FOO
138240
    1MOL0     O    1   5.463   3.526   5.696 -0.1567 -0.4738  0.3663
    1MOL0     C    2   5.505   3.460   5.603 -0.9540  0.1461  0.3386
    1MOL0     O    3   5.455   3.344   5.563  0.1123  0.3965 -0.3386
    1MOL0     C    4   5.331   3.307   5.608  0.4048  0.3060 -0.3943
    1MOL0     C    5   5.322   3.170   5.663  0.0263 -0.6011  0.6580
    1MOL0     C    6   5.192   3.118   5.686  0.7187  0.5780  0.5499
    1MOL0     C    7   5.074   3.195   5.682  0.4640 -0.1550 -0.0357
    1MOL0     O    8   4.956   3.135   5.714  0.7204  0.4000  0.7373
    1MOL0     C    9   4.834   3.198   5.659 -0.1109  0.0355 -0.6179
    1MOL0     C   10   4.715   3.108   5.672 -0.4353  0.1948 -0.1191
    1MOL0     C   11   4.587   3.175   5.609 -0.0013  0.2418  0.1182
    1MOL0     C   12   4.488   3.065   5.575  1.3095 -0.3264  0.4587
    1MOL0     C   13   4.352   3.125   5.525 -0.2332 -0.0832 -0.6299
    1MOL0     C   14   4.289   3.224   5.621  0.4643  0.3203 -0.1445
    1MOL0     C   15   4.137   3.230   5.603 -0.4017  0.7927 -0.2508
    1MOL0     C   16   4.084   3.354   5.679  0.5128  0.5668 -0.0618
    1MOL0     N   17   4.126   3.399   5.819 -0.2240 -0.9264  0.4137
    1MOL0     C   18   4.233   3.486   5.841 -0.2726 -0.0073 -0.0260
    1MOL0     C   19   4.219   3.519   5.970 -0.4195  0.3260 -0.1367
    1MOL0     C   20   4.310   3.616   6.049  0.5354 -0.5381  0.2171
    1MOL0     C   21   4.384   3.537   6.161  0.0985  0.3324  0.2303
    1MOL0     C   22   4.416   3.618   6.288  1.2696  0.4192 -0.0348
    1MOL0     C   23   4.517   3.723   6.251 -0.7680  0.3367 -0.1447
    1MOL0     O   24   4.535   3.816   6.363  0.4494 -0.0268  0.4401
    1MOL0     C   25   4.658   3.837   6.417 -1.2693  0.4965 -0.0655
    1MOL0     C   26   4.756   3.736   6.422 -0.4697 -0.0479  1.4799
    1MOL0     C   27   4.890   3.766   6.464 -0.7180 -0.0497  0.4438
    1MOL0     C   28   4.922   3.902   6.513 -1.0478  0.6071 -0.7766
    1MOL0     C   29   5.066   3.944   6.541  0.2076 -0.4982 -0.5726
    1MOL0     O   30   5.164   3.865   6.490 -0.1980 -0.3764  0.4214
    1MOL0     C   31   5.302   3.899   6.512 -0.5462  0.1616  0.4154
    1MOL0     C   32   5.363   3.852   6.629 -0.4130  0.0551  0.1893
    1MOL0     C   33   5.497   3.871   6.652 -0.0060  0.6459  0.6110
    1MOL0     C   34   5.574   3.944   6.554 -0.2354 -0.2587 -0.2066
    1MOL0     O   35   5.708   3.955   6.571 -1.0525  0.5707  0.4261
    1MOL0     C   36   5.761   4.087   6.558 -0.5471 -0.0884 -0.3748
    1MOL0     C   37   5.854   4.106   6.439  0.4357  0.1077 -0.5321
    1MOL0     C   38   5.969   4.005   6.450 -0.3291  0.5680  0.2004
    1MOL0     C   39   6.064   4.061   6.336 -0.1073  0.2389  0.6608
    1MOL0     C   40   6.171   3.957   6.316 -0.4179  0.3753 -0.7532
    1MOL0     C   41   6.270   4.011   6.208  0.3944 -0.0001  0.6796
    1MOL0     C   42   6.372   3.902   6.175 -0.1761  0.9712 -0.4184
    1MOL0     C   43   6.482   3.880   6.283  0.0956 -0.0449  0.1604
    1MOL0    Cl   44   6.613   4.014   6.269  0.0519 -0.4514  0.0856
    1MOL0     C   45   5.518   3.991   6.434 -0.4989  0.5906  0.0507
    1MOL0     C   46   5.380   3.967   6.414 -0.8373  0.2584  0.2449
    1MOL0     O   47   5.088   4.037   6.617  0.4763 -0.5116  0.2405
    1MOL0     C   48   4.817   3.989   6.517 -0.6552 -0.4591 -0.2834
    1MOL0     C   49   4.691   3.964   6.471  0.0554 -0.0237 -0.0216
    1MOL0     N   50   4.110   3.451   6.030 -0.2673  0.4771  0.2506
    1MOL0     N   51   4.066   3.373   5.943  0.5968  0.0497 -0.1322
    1MOL0     C   52   5.091   3.336   5.654  0.3217 -0.3812 -0.1675
    1MOL0     C   53   5.214   3.385   5.610  0.2825  0.1364  0.7014
    1MOL0     C   54   5.630   3.512   5.544 -0.5207  0.6246  0.6681
    1MOL0     C   55   5.708   3.414   5.476 -0.5055 -0.8691 -0.4170
    1MOL0     C   56   5.834   3.444   5.431  0.0675 -0.7873  0.4277
    1MOL0     C   57   5.887   3.575   5.438  0.8726  0.4814 -0.4129
    1MOL0     O   58   6.010   3.612   5.387  0.5691 -0.9775  0.4600
    1MOL0     C   59   6.100   3.512   5.340  0.2334  0.3446 -0.3730
    1MOL0     C   60   6.239   3.569   5.329  0.4627  0.7202 -0.1413
    1MOL0     C   61   6.257   3.715   5.279  0.1766 -0.2197  0.4353
    1MOL0     C   62   6.406   3.757   5.259  0.8864 -1.0822 -0.1551
    1MOL0     C   63   6.423   3.882   5.188 -0.1898  0.5192  0.0605
    1MOL0     C   64   6.458   3.979   5.121 -0.0702  0.5100  0.0790
    1MOL0     C   65   5.817   3.673   5.501 -0.6340 -0.0425  0.5711
    1MOL0     C   66   5.689   3.636   5.562 -1.1373  0.0833 -0.4235
    1MOL0     C   67   5.632   3.741   5.649 -0.1746 -0.5972  0.2420
    1MOL0     H   68   5.414   3.113   5.670 -0.6843 -1.9376 -0.2415
    1MOL0     H   69   5.187   3.010   5.696 -1.6134 -0.1575 -4.9541
    1MOL0     H   70   4.816   3.297   5.702 -1.8733 -0.0887 -0.9808
    1MOL0     H   71   4.845   3.202   5.550 -3.2467 -3.1056 -1.2473
    1MOL0     H   72   4.709   3.084   5.778  3.6607 -0.1943  0.2012
    1MOL0     H   73   4.736   3.014   5.620  0.3422 -0.3878  1.2114
    1MOL0     H   74   4.614   3.235   5.522  1.7484 -0.1688  0.3478
    1MOL0     H   75   4.540   3.239   5.684  0.2593 -0.7699  1.1875
    1MOL0     H   76   4.526   3.013   5.487 -1.0812 -3.0599  0.8907
    1MOL0     H   77   4.460   2.989   5.648  0.1553 -0.7848 -0.4222
    1MOL0     H   78   4.375   3.179   5.433 -2.6232 -0.8004 -1.7154
    1MOL0     H   79   4.289   3.039   5.501 -0.2750  0.2716 -1.8370
    1MOL0     H   80   4.299   3.196   5.726 -0.6844  0.3962  0.0014
    1MOL0     H   81   4.336   3.322   5.614  2.0979 -0.4638 -0.8043
    1MOL0     H   82   4.081   3.139   5.626  1.0050 -0.6012 -2.0667
    1MOL0     H   83   4.104   3.250   5.501 -1.9616 -1.2772 -0.2177
    1MOL0     H   84   4.100   3.440   5.613 -0.1803  0.7901  0.0474
    1MOL0     H   85   3.975   3.347   5.679  0.4924  0.4753  1.6756
    1MOL0     H   86   4.304   3.520   5.766 -0.4788 -1.4470 -0.9148
    1MOL0     H   87   4.376   3.675   5.985 -0.4555 -0.1498 -0.4685
    1MOL0     H   88   4.245   3.690   6.097 -1.6757 -0.7765 -2.1699
    1MOL0     H   89   4.322   3.453   6.194 -3.4874  1.7334 -2.2526
    1MOL0     H   90   4.475   3.488   6.126 -0.1828  0.0531 -0.1103
    1MOL0     H   91   4.447   3.567   6.380 -2.6641  1.6291  2.2521
    1MOL0     H   92   4.328   3.672   6.325  0.6998 -0.0035 -0.7509
    1MOL0     H   93   4.486   3.792   6.172 -0.8729 -1.9043 -2.1888
    1MOL0     H   94   4.610   3.679   6.215  0.4859  2.2922  0.5534
    1MOL0     H   95   4.731   3.637   6.386  0.0485  0.7876 -1.4404
    1MOL0     H   96   4.962   3.686   6.452 -2.4287 -1.8510  1.5365
    1MOL0     H   97   5.308   3.791   6.700 -2.6664  1.0054 -0.6432
    1MOL0     H   98   5.540   3.817   6.735  2.8929  0.5041 -0.8552
    1MOL0     H   99   5.690   4.170   6.561 -0.5994  0.1457 -3.9521
    1MOL0     H  100   5.825   4.098   6.647  0.1551 -0.0215 -0.8813
    1MOL0     H  101   5.790   4.082   6.354  0.2661 -3.2527  0.3754
    1MOL0     H  102   5.879   4.212   6.442  0.1953  0.1469  0.4664
    1MOL0     H  103   6.014   4.006   6.550 -0.7290 -2.8011  0.5200
    1MOL0     H  104   5.933   3.903   6.433 -1.0032  0.4438  2.1600
    1MOL0     H  105   6.108   4.159   6.357  0.9428  0.4897 -2.2655
    1MOL0     H  106   6.001   4.070   6.247 -0.6606 -2.3458  0.6959
    1MOL0     H  107   6.129   3.863   6.279 -1.9165  1.2956 -1.4795
    1MOL0     H  108   6.215   3.931   6.412 -0.3970  1.4835 -0.4523
    1MOL0     H  109   6.224   4.037   6.112  0.4766  0.4970  0.7714
    1MOL0     H  110   6.313   4.107   6.239 -1.3806  1.5121 -1.2402
    1MOL0     H  111   6.430   3.930   6.087  0.6072 -1.7287 -0.8534
    1MOL0     H  112   6.315   3.811   6.155 -0.6252  1.1781 -0.0909
    1MOL0     H  113   6.438   3.884   6.383 -1.2301 -0.1555 -0.4031
    1MOL0     H  114   6.539   3.788   6.268  0.1601 -0.0244  0.2779
    1MOL0     H  115   5.567   4.050   6.357 -1.0523 -0.4130 -1.1143
    1MOL0     H  116   5.340   4.002   6.319 -0.0564 -1.0951 -0.6173
    1MOL0     H  117   4.838   4.092   6.544  2.3994 -0.9531 -0.4477
    1MOL0     H  118   4.610   4.036   6.480 -0.3315 -0.1199 -2.2972
    1MOL0     H  119   4.999   3.393   5.657  0.3129 -0.4276  0.4829
    1MOL0     H  120   5.232   3.490   5.590 -1.2459  0.3574  0.2950
    1MOL0     H  121   5.674   3.313   5.459  1.2252 -1.5297 -0.1137
    1MOL0     H  122   5.895   3.369   5.383  1.2756  1.0180 -0.9929
    1MOL0     H  123   6.055   3.478   5.246 -2.4603 -0.1159  0.9768
    1MOL0     H  124   6.097   3.421   5.401 -1.1516  0.2508 -0.5283
    1MOL0     H  125   6.303   3.508   5.264  0.7432  0.0785  0.7240
    1MOL0     H  126   6.286   3.571   5.428 -0.4268  3.9188  0.3338
    1MOL0     H  127   6.234   3.795   5.351  3.4219  1.7719 -0.4885
    1MOL0     H  128   6.199   3.720   5.187 -0.5097 -1.1554  0.8087
    1MOL0     H  129   6.466   3.766   5.350  3.1236 -0.6122 -1.5792
    1MOL0     H  130   6.464   3.688   5.197  0.1196 -1.0947 -0.8678
    1MOL0     H  131   6.505   4.066   5.080 -0.7673  0.1058 -1.7089
    1MOL0     H  132   5.859   3.774   5.503 -1.2242  0.5494 -4.1862
    1MOL0     H  133   5.534   3.776   5.616 -0.3244  2.1221  3.0147
    1MOL0     H  134   5.622   3.709   5.753 -0.1222 -0.9529  0.1367
    1MOL0     H  135   5.697   3.829   5.643 -2.0418  0.7503 -1.8526
    2MOL0     O  136   6.992   7.042   8.341  0.0972  0.5893 -0.3748
    2MOL0     C  137   6.895   7.119   8.325  1.1310 -0.4686 -0.1078
    2MOL0     O  138   6.873   7.241   8.383  0.2872 -0.2777 -1.2260
    2MOL0     C  139   6.968   7.282   8.473 -1.3643  0.1414  0.0267
    2MOL0     C  140   6.945   7.304   8.609  1.0345  0.4970  0.8436
    2MOL0     C  141   7.040   7.360   8.693 -0.0967 -0.5527 -1.0026
    2MOL0     C  142   7.184   7.368   8.653  0.5425  0.0476  0.1510
    2MOL0     O  143   7.273   7.413   8.743  0.5010 -0.8066 -1.0362
    2MOL0     C  144   7.407   7.407   8.708 -0.2457 -0.2484  0.2472
    2MOL0     C  145   7.449   7.544   8.644  0.5753  1.1194  0.0073
    2MOL0     C  146   7.593   7.528   8.593  0.2682  0.2160 -0.5305
    2MOL0     C  147   7.641   7.620   8.484  0.4438 -0.0877 -0.1232
    2MOL0     C  148   7.782   7.589   8.453  0.4841 -0.0925 -1.1262
    2MOL0     C  149   7.836   7.678   8.344 -0.3592 -0.6282  0.1043
    2MOL0     C  150   7.992   7.667   8.315  0.1578  0.1497  0.0794
    2MOL0     C  151   8.092   7.719   8.420  0.8402 -0.1823  0.8246
    2MOL0     N  152   8.217   7.723   8.363  0.2725 -0.0344 -0.1523
    2MOL0     C  153   8.295   7.621   8.320  0.0906 -0.1639 -0.0761
    2MOL0     C  154   8.414   7.671   8.272  0.3997 -0.5336  0.4672
    2MOL0     C  155   8.537   7.599   8.210 -0.2685 -0.1707  0.4144
    2MOL0     C  156   8.675   7.643   8.262  0.3660  0.0507  0.8356
    2MOL0     C  157   8.784   7.554   8.206  0.1954 -0.1054 -0.7704
    2MOL0     C  158   8.926   7.594   8.251  0.6065 -0.8502 -0.1772
    2MOL0     O  159   9.016   7.509   8.197 -0.1693 -0.4688 -0.1687
    2MOL0     C  160   9.156   7.513   8.204  0.0827 -1.1254 -0.0789
    2MOL0     C  161   9.224   7.609   8.282 -0.4150 -0.1312 -0.0304
    2MOL0     C  162   9.361   7.602   8.288 -0.2645 -0.3778  0.6463
    2MOL0     C  163   9.434   7.518   8.195 -0.4792 -0.6863  0.0968
    2MOL0     C  164   9.579   7.524   8.188 -1.0698  0.4519  0.7530
    2MOL0     O  165   9.647   7.628   8.255  0.0935 -0.0830  0.7547
    2MOL0     C  166   9.787   7.620   8.290  0.2784  0.3832 -0.5240
    2MOL0     C  167   9.849   7.501   8.331 -0.5905  0.3356  0.3162
    2MOL0     C  168   9.988   7.493   8.351  0.2000 -0.2277 -0.4002
    2MOL0     C  169  10.063   7.613   8.342 -0.5153 -1.1651 -0.4836
    2MOL0     O  170  10.195   7.602   8.375 -0.3085  0.5973 -0.2050
    2MOL0     C  171  10.269   7.715   8.427 -0.1548  0.4523 -1.0489
    2MOL0     C  172  10.401   7.671   8.492 -0.1977  0.6016  0.1455
    2MOL0     C  173  10.432   7.739   8.627 -0.5378 -0.0472 -0.2670
    2MOL0     C  174  10.585   7.706   8.675 -0.1854 -0.5068 -0.2156
    2MOL0     C  175  10.587   7.730   8.829  0.7349 -0.1080  0.2251
    2MOL0     C  176  10.721   7.680   8.895  0.6100 -0.5108  0.6350
    2MOL0     C  177  10.744   7.528   8.881 -0.2387 -0.0979 -0.2512
    2MOL0     C  178  10.859   7.482   8.973 -0.3929  0.0731  0.0463
    2MOL0    Cl  179  11.024   7.537   8.924  0.2506  0.3335 -0.1874
    2MOL0     C  180  10.004   7.739   8.303  0.7329 -0.4243 -0.1927
    2MOL0     C  181   9.870   7.734   8.271  0.1834  0.6779  0.4972
    2MOL0     O  182   9.639   7.428   8.131  1.4896 -0.5471 -0.5297
    2MOL0     C  183   9.364   7.427   8.117  0.7415 -0.3285 -0.2991
    2MOL0     C  184   9.224   7.423   8.124  0.4169  0.2453 -0.6578
    2MOL0     N  185   8.402   7.814   8.282  0.1033  0.1191  0.0393
    2MOL0     N  186   8.283   7.843   8.328  0.2678  0.7317 -0.3282
    2MOL0     C  187   7.207   7.343   8.517 -0.2220  0.3129  0.5030
    2MOL0     C  188   7.103   7.299   8.428 -0.7835 -0.1008 -0.5824
    2MOL0     C  189   6.796   7.063   8.235  0.5547  0.4226  0.1866
    2MOL0     C  190   6.837   6.964   8.142 -0.1015  0.0678  0.8146
    2MOL0     C  191   6.748   6.902   8.055  0.1565 -0.6818  0.2941
    2MOL0     C  192   6.618   6.950   8.034 -0.2234 -0.0235  0.0544
    2MOL0     O  193   6.532   6.887   7.948 -0.3467  0.3665 -0.0269
    2MOL0     C  194   6.523   6.961   7.821  0.0489  0.3006  0.1524
    2MOL0     C  195   6.421   6.901   7.736  0.4680  0.2325  0.0147
    2MOL0     C  196   6.279   6.891   7.786 -0.1043 -1.3560 -0.1651
    2MOL0     C  197   6.208   7.023   7.788  1.0453  0.3199 -0.2528
    2MOL0     C  198   6.067   7.014   7.837 -0.1984  0.2891  0.3481
    2MOL0     C  199   5.958   7.031   7.880 -0.2982 -0.1270  0.2528
    2MOL0     C  200   6.569   7.050   8.129 -0.6109 -1.2655  0.5822
    2MOL0     C  201   6.655   7.103   8.226 -0.3159  0.0028 -0.1124
    2MOL0     C  202   6.599   7.201   8.326  0.2475 -0.4159  1.9171
    2MOL0     H  203   6.844   7.277   8.635 -0.2179 -0.2138 -3.8762
    2MOL0     H  204   7.005   7.374   8.794 -2.8896 -0.0202 -1.9635
    2MOL0     H  205   7.476   7.384   8.790  0.6634 -5.0913 -1.4978
    2MOL0     H  206   7.426   7.318   8.647 -0.7163  0.7879 -1.4761
    2MOL0     H  207   7.453   7.624   8.718  0.2337 -0.1932  1.4984
    2MOL0     H  208   7.387   7.580   8.561 -1.7254 -1.7496  0.3339
    2MOL0     H  209   7.618   7.426   8.562  0.3342  0.2657 -0.6409
    2MOL0     H  210   7.658   7.543   8.680 -0.9951 -0.7477  0.6180
    2MOL0     H  211   7.585   7.619   8.390 -1.7463 -0.2551  1.1058
    2MOL0     H  212   7.631   7.718   8.531  0.6800 -0.9392  1.8402
    2MOL0     H  213   7.853   7.605   8.534 -1.3930 -1.8156  0.9815
    2MOL0     H  214   7.793   7.484   8.424 -2.6479 -1.1231  0.9091
    2MOL0     H  215   7.780   7.657   8.252 -2.8313  0.3902  1.3053
    2MOL0     H  216   7.821   7.783   8.369  2.9644  0.3453 -1.4642
    2MOL0     H  217   8.013   7.726   8.226  0.5010 -1.8739 -1.2420
    2MOL0     H  218   8.013   7.562   8.294 -0.5864 -0.8185  3.5127
    2MOL0     H  219   8.060   7.818   8.453 -1.4960 -1.5386  2.9933
    2MOL0     H  220   8.096   7.644   8.499  1.9374 -1.5674 -0.4768
    2MOL0     H  221   8.272   7.515   8.320 -1.2055  0.0626  2.0409
    2MOL0     H  222   8.536   7.494   8.242  1.4995  0.2466  2.0380
    2MOL0     H  223   8.530   7.611   8.102  3.3212 -0.8879 -0.0291
    2MOL0     H  224   8.695   7.742   8.220  0.3347 -1.1056 -2.1624
    2MOL0     H  225   8.692   7.639   8.370  1.5862  3.0359  0.8470
    2MOL0     H  226   8.780   7.561   8.097 -0.4591 -0.5011 -0.7773
    2MOL0     H  227   8.756   7.454   8.242  0.5993  0.7492  2.2238
    2MOL0     H  228   8.929   7.581   8.360  1.3964 -3.0061 -0.3931
    2MOL0     H  229   8.929   7.701   8.232 -2.3722 -0.3526  1.5193
    2MOL0     H  230   9.177   7.682   8.346 -0.6657  1.0616 -1.5114
    2MOL0     H  231   9.415   7.671   8.350  1.4255  0.8116 -1.9766
    2MOL0     H  232   9.795   7.407   8.337 -0.3670  0.2672  1.5869
    2MOL0     H  233  10.030   7.398   8.380 -1.1758 -0.5614  0.5851
    2MOL0     H  234  10.278   7.800   8.359  1.7461  1.0311 -0.1492
    2MOL0     H  235  10.216   7.752   8.515 -0.0889 -0.5044 -0.6016
    2MOL0     H  236  10.401   7.563   8.511 -0.7392  0.2480 -1.7350
    2MOL0     H  237  10.484   7.676   8.421 -1.6057  1.1360 -1.5169
    2MOL0     H  238  10.423   7.848   8.626  0.8346  0.0769 -1.0480
    2MOL0     H  239  10.359   7.702   8.700 -0.5834 -2.0305 -1.2685
    2MOL0     H  240  10.654   7.781   8.637  0.1899 -0.1352  1.1522
    2MOL0     H  241  10.605   7.602   8.649  1.5071 -0.6074  1.3103
    2MOL0     H  242  10.507   7.673   8.878  2.0247 -3.7500 -1.4893
    2MOL0     H  243  10.558   7.831   8.859  2.5123 -0.1550  2.3289
    2MOL0     H  244  10.806   7.724   8.842  1.0010  0.2523  1.8326
    2MOL0     H  245  10.728   7.714   8.999  1.2561  0.8461  0.1645
    2MOL0     H  246  10.768   7.496   8.779  0.5889  0.3712 -0.2163
    2MOL0     H  247  10.649   7.479   8.903 -1.5741  1.4865 -2.0659
    2MOL0     H  248  10.839   7.515   9.075  2.0780  0.6809  0.3914
    2MOL0     H  249  10.863   7.373   8.969 -0.8595  0.0876 -2.4724
    2MOL0     H  250  10.056   7.831   8.281  0.2050  0.3568  1.6468
    2MOL0     H  251   9.824   7.825   8.233  0.1353  0.8011  0.8518
    2MOL0     H  252   9.412   7.352   8.055 -1.2034 -1.4802 -0.4876
    2MOL0     H  253   9.169   7.350   8.064 -1.6569  0.3016  1.0583
    2MOL0     H  254   7.307   7.341   8.473  0.2060  1.2742  1.3855
    2MOL0     H  255   7.149   7.284   8.331  3.2955  0.9266  0.9632
    2MOL0     H  256   6.945   6.947   8.141 -0.3473 -1.6866  0.7828
    2MOL0     H  257   6.803   6.832   7.993 -0.3540 -0.2952 -0.6169
    2MOL0     H  258   6.625   6.963   7.781  0.3795 -2.4055  0.7044
    2MOL0     H  259   6.497   7.067   7.836  0.1204  1.3548 -5.1643
    2MOL0     H  260   6.455   6.800   7.708 -0.2527  0.2649 -1.0557
    2MOL0     H  261   6.416   6.962   7.646  3.5143  0.4582 -0.0933
    2MOL0     H  262   6.286   6.861   7.891 -1.4497 -0.6937  0.1320
    2MOL0     H  263   6.228   6.813   7.730  3.1134 -1.9188 -2.6133
    2MOL0     H  264   6.254   7.081   7.869 -3.2885  1.1546  1.9053
    2MOL0     H  265   6.220   7.066   7.689 -0.3093  0.7165 -0.2624
    2MOL0     H  266   5.871   7.056   7.937 -1.7469 -1.3214 -1.2854
    2MOL0     H  267   6.465   7.079   8.141  0.1803  1.2628  2.5622
    2MOL0     H  268   6.491   7.217   8.330  0.1470  0.8322 -1.6328
    2MOL0     H  269   6.636   7.180   8.426  4.1862 -1.3134  0.4642
    2MOL0     H  270   6.635   7.304   8.315 -1.6362  0.1417  0.2905
    3MOL0     O  271  10.131   7.488   1.833  0.0512  0.7584  0.0527
    3MOL0     C  272  10.131   7.539   1.724 -0.4965 -0.8874 -0.0380
    3MOL0     O  273  10.244   7.551   1.647 -0.2214 -0.1682  0.4676
    3MOL0     C  274  10.360   7.549   1.708 -0.5527  0.1376  0.2358
    3MOL0     C  275  10.382   7.633   1.813 -0.3132 -0.7089 -0.3410
    3MOL0     C  276  10.513   7.653   1.864 -0.6063 -0.2944  0.6550
    3MOL0     C  277  10.622   7.584   1.814  0.3580  0.6090  0.1791
    3MOL0     O  278  10.750   7.604   1.856 -0.3826  0.3777  0.3130
    3MOL0     C  279  10.803   7.499   1.946  0.2870  0.1124  0.4683
    3MOL0     C  280  10.949   7.548   1.981  0.3807 -0.1965 -0.3613
    3MOL0     C  281  11.007   7.427   2.068 -0.9376  0.4341  0.9191
    3MOL0     C  282  10.941   7.412   2.204  0.0191 -0.2181 -1.0169
    3MOL0     C  283  11.039   7.340   2.298  1.0595 -0.3534 -0.2681
    3MOL0     C  284  11.075   7.201   2.252  0.0076  0.3580 -0.1028
    3MOL0     C  285  11.127   7.139   2.378 -0.4571  0.0414  0.0332
    3MOL0     C  286  11.283   7.165   2.400 -0.6504  0.3493 -0.2951
    3MOL0     N  287  11.295   7.288   2.477  0.1497 -0.3956  0.8260
    3MOL0     C  288  11.235   7.317   2.597 -0.0315  0.2718  0.9141
    3MOL0     C  289  11.274   7.443   2.625 -0.8541 -0.7851  0.3857
    3MOL0     C  290  11.245   7.508   2.751  1.3017 -0.4065  0.2275
    3MOL0     C  291  11.270   7.426   2.878 -0.4240 -1.1859 -0.9555
    3MOL0     C  292  11.398   7.464   2.951 -0.4231  0.2790  0.4716
    3MOL0     C  293  11.525   7.473   2.866  0.4317  0.0996 -0.4487
    3MOL0     O  294  11.519   7.359   2.786 -0.3664  0.2626  0.1734
    3MOL0     C  295  11.630   7.344   2.702  0.2854 -0.4398 -0.2223
    3MOL0     C  296  11.758   7.396   2.730 -0.1196 -0.7306  0.0712
    3MOL0     C  297  11.863   7.366   2.651  0.1006 -0.4488  0.2198
    3MOL0     C  298  11.854   7.275   2.543 -0.2048 -0.1295  0.6537
    3MOL0     C  299  11.973   7.249   2.462 -0.5875 -0.0415  0.9383
    3MOL0     O  300  12.096   7.295   2.512  0.1239  0.2416 -0.0481
    3MOL0     C  301  12.214   7.285   2.448  0.0996  0.0157  0.5167
    3MOL0     C  302  12.250   7.182   2.356  0.3594  0.4704  0.3381
    3MOL0     C  303  12.372   7.176   2.294 -0.1970 -0.6403 -0.9605
    3MOL0     C  304  12.469   7.272   2.326  0.0270 -0.5535 -0.2998
    3MOL0     O  305  12.584   7.255   2.260 -0.4825 -0.5194  0.4245
    3MOL0     C  306  12.701   7.332   2.304  0.1891 -0.0620  0.0682
    3MOL0     C  307  12.821   7.273   2.237  0.1001 -0.5296  1.2285
    3MOL0     C  308  12.944   7.339   2.300 -0.3374 -0.3154  0.5638
    3MOL0     C  309  13.075   7.290   2.233  0.5032 -0.2764 -0.4637
    3MOL0     C  310  13.197   7.380   2.294 -0.6647  0.2505  0.5738
    3MOL0     C  311  13.326   7.341   2.227  1.2223 -0.9019  0.4280
    3MOL0     C  312  13.445   7.425   2.263  0.2256 -0.4532  0.0323
    3MOL0     C  313  13.558   7.368   2.179 -0.5498  0.9298  0.7755
    3MOL0    Cl  314  13.712   7.448   2.205  0.1336  0.3876 -0.2454
    3MOL0     C  315  12.443   7.369   2.423 -0.4063  0.1460  0.5211
    3MOL0     C  316  12.318   7.376   2.486 -0.0293 -0.1370  0.8759
    3MOL0     O  317  11.957   7.212   2.350  0.0924  0.6626  0.7653
    3MOL0     C  318  11.725   7.231   2.513 -0.0857 -0.3738  0.8674
    3MOL0     C  319  11.611   7.256   2.600 -0.0601 -0.9142  0.9232
    3MOL0     N  320  11.363   7.490   2.529 -0.3178 -0.4960 -0.0560
    3MOL0     N  321  11.368   7.394   2.434  0.2085 -0.4941  0.0998
    3MOL0     C  322  10.597   7.490   1.712  0.5995 -0.4695 -0.2731
    3MOL0     C  323  10.469   7.479   1.652  0.0786 -0.5923 -0.1507
    3MOL0     C  324   9.998   7.579   1.658  0.1727  0.7427  0.2522
    3MOL0     C  325   9.882   7.517   1.696  0.0165 -0.0985  0.5131
    3MOL0     C  326   9.762   7.538   1.628 -0.8024  0.3972  0.2951
    3MOL0     C  327   9.752   7.635   1.529 -0.5106 -0.3525  0.5028
    3MOL0     O  328   9.633   7.650   1.461 -0.6803 -0.5676  0.3504
    3MOL0     C  329   9.504   7.636   1.533 -0.0729  0.7174  0.0955
    3MOL0     C  330   9.395   7.704   1.461  0.4290  0.9302  0.5090
    3MOL0     C  331   9.262   7.670   1.534 -0.1960 -0.4733  0.2846
    3MOL0     C  332   9.137   7.726   1.466 -0.2182  0.6872 -0.7213
    3MOL0     C  333   9.012   7.684   1.540 -0.2117  0.0269  0.5216
    3MOL0     C  334   8.895   7.654   1.560 -0.2484  0.1144 -0.7259
    3MOL0     C  335   9.869   7.709   1.502  0.2840 -0.8729 -0.1416
    3MOL0     C  336   9.989   7.680   1.559 -1.6395  0.4667 -1.2226
    3MOL0     C  337  10.101   7.763   1.511 -0.1787 -0.9331  0.6474
    3MOL0     H  338  10.309   7.690   1.870 -1.4090 -1.6507 -0.7626
    3MOL0     H  339  10.515   7.714   1.954  1.4157  1.3652 -0.4311
    3MOL0     H  340  10.737   7.489   2.032  0.2845  2.0131  0.7367
    3MOL0     H  341  10.812   7.403   1.896  1.3034  0.8822 -0.9150
    3MOL0     H  342  10.943   7.639   2.041 -0.5602 -2.1570  2.7368
    3MOL0     H  343  11.017   7.563   1.896  0.9218  0.2151  0.1380
    3MOL0     H  344  11.116   7.430   2.085 -0.8976  0.0781  0.7318
    3MOL0     H  345  10.982   7.336   2.013 -2.5148  0.7766  1.0463
    3MOL0     H  346  10.910   7.504   2.255  1.3134  0.0041 -0.5673
    3MOL0     H  347  10.856   7.346   2.190  0.4238 -1.2789  1.1133
    3MOL0     H  348  11.129   7.402   2.306  1.4889 -1.0213  0.1279
    3MOL0     H  349  10.995   7.339   2.398  0.3063 -0.5359 -0.5860
    3MOL0     H  350  10.985   7.151   2.213 -2.0387  2.9245  0.9874
    3MOL0     H  351  11.151   7.195   2.174 -0.0934 -2.7171 -0.0751
    3MOL0     H  352  11.116   7.031   2.366  1.2787 -0.1018 -0.5200
    3MOL0     H  353  11.070   7.165   2.468 -0.6977  3.8809 -1.0477
    3MOL0     H  354  11.338   7.083   2.446 -0.0918 -0.2467 -1.9539
    3MOL0     H  355  11.330   7.171   2.301 -1.0659 -1.8643 -0.6726
    3MOL0     H  356  11.153   7.261   2.641 -0.8321  0.3782 -0.3772
    3MOL0     H  357  11.317   7.590   2.763  1.8034 -0.4991 -1.7443
    3MOL0     H  358  11.141   7.541   2.751  1.8978  1.6506 -0.4283
    3MOL0     H  359  11.192   7.451   2.950  1.0740  3.1809 -0.5281
    3MOL0     H  360  11.272   7.318   2.862 -0.9751 -1.3805  0.1959
    3MOL0     H  361  11.420   7.406   3.041  0.4745  1.0637  0.7802
    3MOL0     H  362  11.387   7.568   2.984  0.1174  0.8808 -1.1361
    3MOL0     H  363  11.614   7.460   2.929 -0.4759 -3.8126  0.3474
    3MOL0     H  364  11.535   7.568   2.814  3.1046 -0.5559 -1.3288
    3MOL0     H  365  11.768   7.464   2.814 -1.8582 -3.0700  2.3277
    3MOL0     H  366  11.962   7.399   2.680 -1.8808  2.0104  5.3562
    3MOL0     H  367  12.174   7.107   2.336  0.9546  0.0570 -0.4065
    3MOL0     H  368  12.387   7.099   2.220  0.1314 -0.4383 -1.1021
    3MOL0     H  369  12.693   7.438   2.277  0.1793 -0.0509  0.1142
    3MOL0     H  370  12.705   7.322   2.413  1.0105 -0.7622 -0.0200
    3MOL0     H  371  12.823   7.166   2.260 -2.9932 -0.5605  1.7158
    3MOL0     H  372  12.819   7.283   2.129 -2.5045 -1.7643  1.0933
    3MOL0     H  373  12.926   7.445   2.284 -1.4195 -0.4202  0.9740
    3MOL0     H  374  12.935   7.320   2.408 -0.7599 -1.1377  0.3989
    3MOL0     H  375  13.065   7.316   2.127  2.0142  0.1630 -0.5314
    3MOL0     H  376  13.085   7.183   2.251  0.2392 -0.2953 -0.4242
    3MOL0     H  377  13.223   7.382   2.401  1.8518 -1.3778  0.0729
    3MOL0     H  378  13.173   7.485   2.277 -0.8438 -0.1071 -1.6764
    3MOL0     H  379  13.337   7.234   2.247  0.2527 -1.0112  0.4280
    3MOL0     H  380  13.314   7.339   2.118 -2.6606 -0.8313  0.7168
    3MOL0     H  381  13.457   7.425   2.372 -4.5243 -2.3969  0.7885
    3MOL0     H  382  13.425   7.529   2.236 -1.2673 -0.6607  0.2963
    3MOL0     H  383  13.581   7.264   2.205 -1.8816 -0.1569 -2.0399
    3MOL0     H  384  13.541   7.374   2.071  0.9222 -1.1394  0.3541
    3MOL0     H  385  12.519   7.444   2.445 -1.4706  2.0447 -1.7734
    3MOL0     H  386  12.297   7.465   2.543  0.2488  1.2084 -1.0452
    3MOL0     H  387  11.698   7.175   2.424  1.4632  0.0773  0.0794
    3MOL0     H  388  11.515   7.209   2.581  0.2061 -0.2530 -2.8624
    3MOL0     H  389  10.680   7.434   1.670  0.1793 -0.2736 -1.3869
    3MOL0     H  390  10.453   7.415   1.567  1.6498 -1.4741  0.1869
    3MOL0     H  391   9.888   7.433   1.764  2.5092 -1.9469 -1.7683
    3MOL0     H  392   9.683   7.474   1.665 -1.3937  0.4219 -0.8742
    3MOL0     H  393   9.520   7.678   1.633 -0.8326  1.0468  0.0853
    3MOL0     H  394   9.485   7.529   1.542  1.2110  0.4661  0.0481
    3MOL0     H  395   9.397   7.670   1.357  1.5078 -1.1928  1.1729
    3MOL0     H  396   9.418   7.811   1.457 -1.3905  1.3288 -1.3505
    3MOL0     H  397   9.271   7.701   1.639  0.3179 -1.2846  0.4893
    3MOL0     H  398   9.256   7.561   1.543 -0.2503 -0.5495 -0.5923
    3MOL0     H  399   9.155   7.834   1.463 -0.1580  0.7957  1.5832
    3MOL0     H  400   9.135   7.682   1.366 -0.2555 -0.8977 -0.0586
    3MOL0     H  401   8.797   7.613   1.577 -0.7744  1.5803 -0.0352
    3MOL0     H  402   9.872   7.777   1.418  0.6259 -0.3702  0.2699
    3MOL0     H  403  10.067   7.859   1.470 -1.1615 -0.8241  1.6835
    3MOL0     H  404  10.165   7.783   1.598  0.4673 -1.0256  0.2058
    3MOL0     H  405  10.155   7.705   1.436  0.6551  1.3816 -0.6584
    4MOL0     O  406   3.378   9.222   9.702 -0.5603 -0.4001 -0.6872
    4MOL0     C  407   3.375   9.099   9.694 -0.5067  0.0382 -0.4929
    4MOL0     O  408   3.459   9.015   9.763  0.3979 -0.5000 -0.7230
    4MOL0     C  409   3.544   9.082   9.855  0.7239  0.2297  0.7025
    4MOL0     C  410   3.665   9.128   9.804 -0.0216  0.3188 -0.0278
    4MOL0     C  411   3.752   9.201   9.880  0.1266 -0.0561 -0.4013
    4MOL0     C  412   3.713   9.230  10.012 -0.6408 -0.5489 -0.0440
    4MOL0     O  413   3.799   9.314  10.080 -0.1860  0.3661  0.7143
    4MOL0     C  414   3.768   9.354  10.213  1.1344  0.1289 -0.2423
    4MOL0     C  415   3.879   9.452  10.261  0.4939 -0.4431 -0.0446
    4MOL0     C  416   4.013   9.388  10.269  0.4188 -0.1161 -0.0595
    4MOL0     C  417   4.119   9.476  10.324  0.3421 -0.5246  0.0055
    4MOL0     C  418   4.258   9.446  10.287  0.0070  0.4359 -0.5205
    4MOL0     C  419   4.285   9.479  10.135  1.3315  0.1772 -0.5909
    4MOL0     C  420   4.424   9.508  10.114  0.5712  0.0446  1.0052
    4MOL0     C  421   4.464   9.500   9.966 -0.2138 -0.3002 -0.5494
    4MOL0     N  422   4.605   9.521   9.952 -0.6903 -0.0603 -0.6523
    4MOL0     C  423   4.659   9.580   9.841  0.6689  0.5549 -0.3861
    4MOL0     C  424   4.792   9.571   9.868  1.2034 -0.2377 -0.3763
    4MOL0     C  425   4.898   9.619   9.777  0.2090 -0.3713  0.1967
    4MOL0     C  426   5.007   9.504   9.749 -0.4115  0.0236  0.6273
    4MOL0     C  427   5.115   9.560   9.653 -0.2017  0.1165 -0.2444
    4MOL0     C  428   5.217   9.452   9.633  0.3977  0.1100 -0.0139
    4MOL0     O  429   5.309   9.498   9.538 -0.5309 -0.5125 -0.0338
    4MOL0     C  430   5.381   9.405   9.474  0.1373 -0.8364  0.0130
    4MOL0     C  431   5.347   9.272   9.437 -0.7963 -0.1830 -0.3253
    4MOL0     C  432   5.439   9.195   9.361 -0.6052 -0.2374 -0.5794
    4MOL0     C  433   5.568   9.247   9.331  0.7761  0.2999  0.1880
    4MOL0     C  434   5.662   9.177   9.257 -0.3779  0.0716  0.1617
    4MOL0     O  435   5.785   9.231   9.232 -0.2009 -0.4489  0.2705
    4MOL0     C  436   5.887   9.161   9.174 -0.1604  0.0601 -0.1085
    4MOL0     C  437   5.920   9.202   9.046  0.9200 -0.4539 -0.1526
    4MOL0     C  438   6.028   9.132   8.992  0.4760  0.0634  0.9494
    4MOL0     C  439   6.106   9.038   9.050  0.7958  0.8411 -0.7972
    4MOL0     O  440   6.225   8.982   8.998  0.6814 -0.1446 -0.8160
    4MOL0     C  441   6.332   9.074   8.958 -0.5560  0.1793  0.6252
    4MOL0     C  442   6.451   8.982   8.934 -0.9171 -0.4779  0.8827
    4MOL0     C  443   6.576   9.085   8.918  0.0297 -0.4542 -0.6321
    4MOL0     C  444   6.711   9.014   8.909  0.3603 -0.3442  0.7130
    4MOL0     C  445   6.818   9.098   8.838 -0.6774 -0.0313  0.5597
    4MOL0     C  446   6.959   9.036   8.837  0.0833 -0.2849 -1.0900
    4MOL0     C  447   7.046   9.111   8.735 -1.0714 -0.3212 -0.3746
    4MOL0     C  448   7.188   9.060   8.723 -0.4672  0.5616 -0.0571
    4MOL0    Cl  449   7.193   8.878   8.679 -0.1253 -0.1504  0.7005
    4MOL0     C  450   6.060   8.991   9.174 -0.9588 -0.2465 -0.7564
    4MOL0     C  451   5.947   9.048   9.238 -1.0041  0.2369  0.2297
    4MOL0     O  452   5.627   9.069   9.223 -0.0941 -0.3342 -0.3511
    4MOL0     C  453   5.602   9.372   9.371  0.3333  0.3698 -0.5498
    4MOL0     C  454   5.508   9.449   9.439  0.1120  0.3423  0.1411
    4MOL0     N  455   4.818   9.514   9.990  0.8773  0.0505  0.5716
    4MOL0     N  456   4.701   9.495  10.043 -1.5978  0.6085  0.8430
    4MOL0     C  457   3.592   9.186  10.065  0.4490  0.0673  0.2243
    4MOL0     C  458   3.509   9.109   9.987  0.4099  0.1065 -1.2181
    4MOL0     C  459   3.261   9.045   9.613 -0.2825 -0.2867 -0.3507
    4MOL0     C  460   3.185   8.953   9.676 -0.0192  0.1616 -0.0025
    4MOL0     C  461   3.074   8.893   9.615 -0.0320  0.2087  0.1156
    4MOL0     C  462   3.034   8.926   9.488  0.5874  0.4637 -0.6842
    4MOL0     O  463   2.931   8.863   9.419 -0.3938 -0.7482  0.1444
    4MOL0     C  464   2.840   8.759   9.470  0.5558  0.6060  0.5565
    4MOL0     C  465   2.704   8.827   9.520 -0.7122  0.0356 -0.0417
    4MOL0     C  466   2.601   8.721   9.553  0.6237 -0.7784  0.0674
    4MOL0     C  467   2.468   8.801   9.546 -0.3592 -0.5857 -0.8230
    4MOL0     C  468   2.366   8.699   9.581 -0.4513 -0.8064 -0.1330
    4MOL0     C  469   2.282   8.611   9.593  0.4216  1.2539 -0.3571
    4MOL0     C  470   3.104   9.029   9.425  0.1159 -0.1277  0.3101
    4MOL0     C  471   3.220   9.088   9.486  0.1500  0.3287 -0.5563
    4MOL0     C  472   3.295   9.193   9.396  0.2569 -0.7505  0.0335
    4MOL0     H  473   3.673   9.111   9.697 -3.2541 -1.7267 -0.0977
    4MOL0     H  474   3.840   9.236   9.827  0.8576 -0.2180  0.6745
    4MOL0     H  475   3.665   9.392  10.218  0.8837 -0.5374 -0.2346
    4MOL0     H  476   3.761   9.267  10.279 -1.5245 -0.3674 -1.0282
    4MOL0     H  477   3.855   9.484  10.363 -0.9105 -0.9285 -0.1955
    4MOL0     H  478   3.882   9.535  10.191 -1.4049 -0.5011 -0.2459
    4MOL0     H  479   4.032   9.369  10.163 -1.1447 -0.3103 -0.3238
    4MOL0     H  480   4.022   9.296  10.327  2.7868 -0.6543 -1.1426
    4MOL0     H  481   4.103   9.574  10.276 -3.5486 -1.4093 -0.8981
    4MOL0     H  482   4.106   9.493  10.431 -3.3198  1.9118 -0.6293
    4MOL0     H  483   4.315   9.511  10.353 -1.0338  2.1670 -1.2707
    4MOL0     H  484   4.291   9.342  10.291 -1.5970 -0.0764  0.4081
    4MOL0     H  485   4.253   9.390  10.079 -0.8020 -0.2327  1.1279
    4MOL0     H  486   4.219   9.560  10.102  0.9297  0.2758  0.4077
    4MOL0     H  487   4.482   9.428  10.161 -0.2316 -2.1000 -1.3873
    4MOL0     H  488   4.452   9.609  10.145  0.3530  1.3403 -2.5530
    4MOL0     H  489   4.439   9.403   9.922 -1.2651 -0.7886  1.0154
    4MOL0     H  490   4.411   9.579   9.913  0.0522 -0.4441 -1.0329
    4MOL0     H  491   4.622   9.621   9.748  2.4395 -1.7944 -2.2492
    4MOL0     H  492   4.851   9.645   9.682  1.4890 -1.0241 -0.6480
    4MOL0     H  493   4.945   9.711   9.814  1.2182 -0.7284 -0.1576
    4MOL0     H  494   5.050   9.464   9.842  1.5430  0.4419 -0.0570
    4MOL0     H  495   4.961   9.414   9.707  2.9768 -0.4584 -2.4877
    4MOL0     H  496   5.163   9.648   9.697 -1.7671 -0.0020  1.9101
    4MOL0     H  497   5.072   9.588   9.557 -0.5898 -2.3741 -0.8698
    4MOL0     H  498   5.171   9.358   9.603  2.4455 -0.1127 -2.9121
    4MOL0     H  499   5.275   9.430   9.723  1.0885  0.8410 -0.2569
    4MOL0     H  500   5.253   9.227   9.467 -0.9004 -0.4106 -0.9944
    4MOL0     H  501   5.400   9.098   9.332 -0.7187 -0.1377 -0.7650
    4MOL0     H  502   5.872   9.285   8.995  0.5095 -1.3773 -1.2868
    4MOL0     H  503   6.054   9.153   8.889  0.9177  2.7124  1.5287
    4MOL0     H  504   6.306   9.113   8.860 -0.1995 -3.1184 -0.9153
    4MOL0     H  505   6.332   9.157   9.029 -1.4997  1.6848 -1.0527
    4MOL0     H  506   6.457   8.898   9.005 -1.3312 -2.3649 -1.1938
    4MOL0     H  507   6.451   8.934   8.835  2.8587 -0.0365  0.5217
    4MOL0     H  508   6.553   9.148   8.832 -2.5418 -2.4261 -1.5527
    4MOL0     H  509   6.560   9.148   9.006 -0.2997 -3.1630  1.4040
    4MOL0     H  510   6.703   8.909   8.877  1.5511 -0.5415  1.0208
    4MOL0     H  511   6.736   8.990   9.013 -0.8612 -2.6185  0.5602
    4MOL0     H  512   6.825   9.192   8.894  1.7446 -0.6291  1.4074
    4MOL0     H  513   6.797   9.112   8.732 -0.3722  0.9295  0.6209
    4MOL0     H  514   6.998   9.040   8.939 -0.5327 -2.8995 -0.6962
    4MOL0     H  515   6.956   8.930   8.809  0.1948 -1.4106  2.6735
    4MOL0     H  516   7.045   9.217   8.761 -0.8694  0.9518 -4.7096
    4MOL0     H  517   7.008   9.098   8.633 -0.2109  2.6458 -1.1645
    4MOL0     H  518   7.239   9.112   8.641 -1.3856 -0.3859 -1.2669
    4MOL0     H  519   7.240   9.074   8.818 -1.6192  0.6143  0.5776
    4MOL0     H  520   6.118   8.910   9.216  1.5270  2.1523  0.7175
    4MOL0     H  521   5.919   9.004   9.333 -0.9502 -2.0591 -0.7425
    4MOL0     H  522   5.701   9.413   9.353  0.1508  1.2585  0.3655
    4MOL0     H  523   5.543   9.545   9.477  1.4920  0.0394 -0.3102
    4MOL0     H  524   3.557   9.204  10.166  0.0312  1.2749 -0.1182
    4MOL0     H  525   3.406   9.087  10.014  0.2223  0.8284 -1.3306
    4MOL0     H  526   3.211   8.934   9.780  1.1847  0.5332 -0.2242
    4MOL0     H  527   3.032   8.820   9.683  0.4770  2.5129  3.1516
    4MOL0     H  528   2.878   8.704   9.556  0.2053  0.4614  0.6198
    4MOL0     H  529   2.823   8.687   9.389  1.6781  1.2046 -0.2393
    4MOL0     H  530   2.676   8.893   9.437  1.1143 -1.3489 -1.8897
    4MOL0     H  531   2.732   8.884   9.609 -3.1690 -0.2634  0.9932
    4MOL0     H  532   2.619   8.677   9.651 -1.1362  2.2845  1.9277
    4MOL0     H  533   2.601   8.645   9.475  2.3755 -0.0841 -0.6461
    4MOL0     H  534   2.471   8.871   9.629 -1.7676 -0.1728 -1.0923
    4MOL0     H  535   2.468   8.855   9.451  3.6863 -1.0808 -1.2943
    4MOL0     H  536   2.209   8.533   9.591 -0.7448  2.3187 -0.2263
    4MOL0     H  537   3.060   9.050   9.327 -1.4579  1.0597  1.2194
    4MOL0     H  538   3.328   9.145   9.304  1.6449  0.8857 -0.3729
    4MOL0     H  539   3.228   9.278   9.383  0.0082 -0.7281  1.2685
    4MOL0     H  540   3.383   9.237   9.446 -0.0970  2.5944 -1.9742
    5MOL0     O  541   9.337  10.610   2.224  0.5999  0.3388  0.7027
    5MOL0     C  542   9.231  10.607   2.287 -0.4027 -0.4270 -0.3239
    5MOL0     O  543   9.179  10.497   2.343  0.0001 -0.6776 -0.1569
    5MOL0     C  544   9.263  10.384   2.357  0.4982 -0.2789  0.2695
    5MOL0     C  545   9.303  10.307   2.247 -0.5733 -0.1627 -0.0153
    5MOL0     C  546   9.387  10.193   2.267  0.2761 -0.5245  0.5862
    5MOL0     C  547   9.410  10.152   2.403 -0.4622 -0.4632 -0.3180
    5MOL0     O  548   9.469  10.033   2.443 -0.0301  0.4187  0.6785
    5MOL0     C  549   9.545   9.970   2.340 -0.0840  0.4575 -0.8227
    5MOL0     C  550   9.624   9.851   2.405 -0.0742  0.7122 -0.9649
    5MOL0     C  551   9.728   9.913   2.494 -0.2942 -0.4757  0.1642
    5MOL0     C  552   9.833   9.813   2.540  0.7391 -0.2527 -0.3103
    5MOL0     C  553   9.932   9.777   2.436  0.0713 -0.1044 -0.5047
    5MOL0     C  554  10.043   9.706   2.507 -0.3679  0.4340 -0.8316
    5MOL0     C  555  10.168   9.707   2.419 -0.0580  0.0912 -0.5885
    5MOL0     C  556  10.291   9.629   2.468  0.2284 -0.8135 -0.2646
    5MOL0     N  557  10.319   9.681   2.605 -0.3387  0.1603  0.1636
    5MOL0     C  558  10.358   9.597   2.713 -0.2365 -0.8773  0.0021
    5MOL0     C  559  10.387   9.694   2.810 -0.4578 -0.4316  0.0146
    5MOL0     C  560  10.446   9.672   2.951  0.3044  0.5089 -0.3470
    5MOL0     C  561  10.489   9.528   2.969 -0.4141 -0.8991 -0.1638
    5MOL0     C  562  10.567   9.517   3.105 -0.3883 -0.3513  0.0489
    5MOL0     C  563  10.606   9.373   3.113 -0.2004 -0.1889  0.1384
    5MOL0     O  564  10.643   9.339   3.251 -0.8357  0.4827 -0.0178
    5MOL0     C  565  10.774   9.358   3.291  0.8544 -0.1398 -0.5677
    5MOL0     C  566  10.875   9.432   3.224 -0.0559  0.2253 -0.6326
    5MOL0     C  567  11.004   9.440   3.274  0.0462  0.6309  0.4211
    5MOL0     C  568  11.032   9.386   3.405 -0.7496  0.9881  0.4295
    5MOL0     C  569  11.164   9.406   3.466 -0.5492  0.9281 -0.6695
    5MOL0     O  570  11.204   9.314   3.561 -0.6014 -0.2896 -0.7699
    5MOL0     C  571  11.319   9.343   3.623  0.3638  0.0983 -1.1607
    5MOL0     C  572  11.437   9.336   3.549 -0.4011  0.2791 -0.7273
    5MOL0     C  573  11.568   9.351   3.608 -0.0949 -0.5632  0.2163
    5MOL0     C  574  11.577   9.395   3.745 -1.1077 -0.5706  0.1911
    5MOL0     O  575  11.704   9.414   3.791 -0.1271  0.6583 -0.2138
    5MOL0     C  576  11.731   9.454   3.924  0.1049 -0.0452  0.0221
    5MOL0     C  577  11.701   9.339   4.028 -0.3497 -0.5877  0.1076
    5MOL0     C  578  11.738   9.388   4.172 -0.3196  0.2090  0.4913
    5MOL0     C  579  11.889   9.419   4.198  0.0244 -0.0147  0.4138
    5MOL0     C  580  11.913   9.464   4.335  0.0059  0.9311 -1.1910
    5MOL0     C  581  12.057   9.503   4.371 -0.4458  0.4801  0.3903
    5MOL0     C  582  12.062   9.604   4.482 -0.1487  0.1435 -0.0968
    5MOL0     C  583  12.203   9.634   4.551 -0.1466  0.7555 -0.3473
    5MOL0    Cl  584  12.178   9.770   4.670 -0.2080 -0.4421  0.0030
    5MOL0     C  585  11.455   9.419   3.817 -0.9160 -0.2983  0.2089
    5MOL0     C  586  11.329   9.393   3.759  0.3576  0.1847  0.1856
    5MOL0     O  587  11.240   9.486   3.408  0.7367 -0.7446  0.0065
    5MOL0     C  588  10.933   9.315   3.471  0.0732 -0.5075 -0.3001
    5MOL0     C  589  10.807   9.294   3.413 -0.3102  0.4554 -0.3158
    5MOL0     N  590  10.355   9.817   2.769 -0.3301 -0.5407  0.3220
    5MOL0     N  591  10.320   9.813   2.644 -0.6892  0.5222  0.3479
    5MOL0     C  592   9.367  10.233   2.511 -0.0445  0.1212  0.1595
    5MOL0     C  593   9.288  10.345   2.491 -0.3136  0.2074  0.6104
    5MOL0     C  594   9.140  10.719   2.291 -0.3549 -0.8201  0.0512
    5MOL0     C  595   9.004  10.704   2.308  0.0709 -0.4019  0.2095
    5MOL0     C  596   8.925  10.802   2.267  0.1639 -0.0634  0.2498
    5MOL0     C  597   8.973  10.919   2.208  0.5559  0.5040 -0.6421
    5MOL0     O  598   8.881  10.997   2.134  0.8017  0.7827 -0.6477
    5MOL0     C  599   8.924  11.092   2.037 -0.0564  1.0494  0.1317
    5MOL0     C  600   8.987  11.025   1.909  1.0287 -0.2436  0.0204
    5MOL0     C  601   9.066  11.134   1.834  0.0890  1.1356 -0.0878
    5MOL0     C  602   9.195  11.080   1.770  1.0541  0.4764  0.2270
    5MOL0     C  603   9.299  11.063   1.869 -0.1842  0.6972 -0.3390
    5MOL0     C  604   9.394  11.038   1.950 -0.1060 -0.0409 -0.3260
    5MOL0     C  605   9.111  10.946   2.221 -0.3864  0.6062  0.5473
    5MOL0     C  606   9.193  10.846   2.267  0.6754 -0.8091 -0.0678
    5MOL0     C  607   9.337  10.884   2.287 -0.2826  0.5306  0.0926
    5MOL0     H  608   9.284  10.338   2.144  0.0564 -1.1992 -0.4668
    5MOL0     H  609   9.428  10.147   2.177  0.8581  1.4169 -0.1825
    5MOL0     H  610   9.479   9.942   2.256 -1.2529  0.2808  0.1257
    5MOL0     H  611   9.622  10.041   2.308 -1.3935  0.6756 -3.8640
    5MOL0     H  612   9.668   9.786   2.328 -1.8460 -0.4360 -1.0780
    5MOL0     H  613   9.559   9.792   2.471 -0.5042  3.8484  1.6294
    5MOL0     H  614   9.672   9.960   2.576  0.2536  0.7688 -0.1472
    5MOL0     H  615   9.779   9.996   2.444  1.1321 -0.5147  1.4961
    5MOL0     H  616   9.894   9.860   2.617  2.6887 -0.6305 -1.5642
    5MOL0     H  617   9.789   9.727   2.592  2.1444 -1.1872 -0.6177
    5MOL0     H  618   9.891   9.712   2.359  1.6025 -0.2731 -1.2265
    5MOL0     H  619   9.965   9.871   2.390  0.3573  1.4020  2.4611
    5MOL0     H  620  10.070   9.753   2.602  3.5816 -0.8903 -1.1083
    5MOL0     H  621  10.004   9.607   2.533 -2.9735  1.9532  1.6308
    5MOL0     H  622  10.198   9.810   2.394 -0.5798  0.4771  0.3154
    5MOL0     H  623  10.146   9.650   2.329 -1.6876 -0.0313 -0.1467
    5MOL0     H  624  10.259   9.524   2.471  0.2232 -0.8309 -0.8321
    5MOL0     H  625  10.377   9.632   2.402  0.4177 -2.1291 -0.1243
    5MOL0     H  626  10.365   9.489   2.707 -0.5723 -0.8453 -1.0231
    5MOL0     H  627  10.530   9.739   2.970  0.3153  0.1767  0.8994
    5MOL0     H  628  10.375   9.694   3.031  2.6464  0.1768  1.9620
    5MOL0     H  629  10.404   9.460   2.972 -1.3756  0.3122  1.1638
    5MOL0     H  630  10.559   9.496   2.891  0.1915 -1.0019  0.4142
    5MOL0     H  631  10.502   9.542   3.189  1.2259 -4.4617  2.8035
    5MOL0     H  632  10.653   9.583   3.111 -0.3487 -0.5214  2.1660
    5MOL0     H  633  10.682   9.358   3.036 -1.1887 -0.5506 -0.7880
    5MOL0     H  634  10.522   9.308   3.087  0.4854 -1.0173 -0.0126
    5MOL0     H  635  10.854   9.488   3.133  1.6175 -2.3239 -2.7430
    5MOL0     H  636  11.076   9.498   3.217 -1.6828  0.1225 -2.4902
    5MOL0     H  637  11.426   9.291   3.451 -0.0479 -0.6337 -0.3644
    5MOL0     H  638  11.659   9.333   3.551  0.3118  0.3661  0.5449
    5MOL0     H  639  11.832   9.493   3.931 -0.9432  2.6806  1.7463
    5MOL0     H  640  11.667   9.535   3.960 -0.1085 -0.9223  1.7717
    5MOL0     H  641  11.597   9.307   4.032 -1.0468  1.2713 -1.6551
    5MOL0     H  642  11.765   9.253   4.003 -0.0051  0.3481 -2.5248
    5MOL0     H  643  11.668   9.470   4.186 -2.1401 -0.7185 -2.4223
    5MOL0     H  644  11.712   9.307   4.241 -0.0729  0.5755  1.0183
    5MOL0     H  645  11.930   9.498   4.133  1.3798 -1.1890 -0.2158
    5MOL0     H  646  11.948   9.331   4.171 -1.5257 -1.2067  0.8379
    5MOL0     H  647  11.884   9.387   4.408  1.9130 -1.3179 -2.6457
    5MOL0     H  648  11.858   9.557   4.354  0.5513  0.9294  0.6276
    5MOL0     H  649  12.119   9.415   4.393  1.4382  1.8379  0.7825
    5MOL0     H  650  12.109   9.548   4.286 -0.4831  0.4282  0.3401
    5MOL0     H  651  11.993   9.563   4.556 -1.1842 -0.6518 -1.4583
    5MOL0     H  652  12.026   9.700   4.444  0.3120  1.2388  2.1019
    5MOL0     H  653  12.237   9.546   4.608  1.1762  1.0301 -0.6848
    5MOL0     H  654  12.272   9.659   4.470  0.5392  0.7318  0.2181
    5MOL0     H  655  11.452   9.448   3.922  0.4680  0.3042  0.1070
    5MOL0     H  656  11.241   9.412   3.820  0.8388 -1.1496  1.3699
    5MOL0     H  657  10.955   9.263   3.565 -1.6778 -3.8084 -1.5341
    5MOL0     H  658  10.731   9.236   3.463 -1.1979  0.4902 -1.5793
    5MOL0     H  659   9.391  10.208   2.614 -1.0297  0.9520  0.6088
    5MOL0     H  660   9.247  10.396   2.578  0.2078  1.1488  0.3078
    5MOL0     H  661   8.954  10.613   2.339 -2.9196  0.7492 -0.8973
    5MOL0     H  662   8.819  10.783   2.274 -0.2157  0.9454 -1.8417
    5MOL0     H  663   8.993  11.159   2.090  0.5482 -1.3801  2.6510
    5MOL0     H  664   8.846  11.156   1.994  0.4933  1.4965 -0.2158
    5MOL0     H  665   8.914  10.983   1.839  1.5268 -1.4696  0.2185
    5MOL0     H  666   9.057  10.948   1.940 -0.1764 -2.5755 -2.6364
    5MOL0     H  667   9.098  11.205   1.910  0.9676 -1.8082  2.5044
    5MOL0     H  668   9.021  11.184   1.748  1.1620  2.2826 -0.0121
    5MOL0     H  669   9.184  10.984   1.720 -0.3133  0.7135  0.0466
    5MOL0     H  670   9.229  11.150   1.692 -2.0170  1.3766 -0.4343
    5MOL0     H  671   9.468  11.035   2.027 -0.3561  2.9467  0.1341
    5MOL0     H  672   9.160  11.037   2.186  0.2458  0.0250 -0.1143
    5MOL0     H  673   9.355  10.992   2.280  0.3900  0.3300 -2.6497
    5MOL0     H  674   9.364  10.836   2.382 -0.5039 -0.5471 -0.3689
    5MOL0     H  675   9.396  10.838   2.207 -0.3454  2.4534 -1.1338
    6MOL0     O  676   3.964   5.609   7.761  0.9885  0.4699 -0.3532
    6MOL0     C  677   3.988   5.538   7.666 -0.4401  0.8399 -0.2416
    6MOL0     O  678   4.069   5.565   7.564 -0.5983 -0.2482  0.3314
    6MOL0     C  679   4.156   5.664   7.577 -0.9534 -0.0155 -0.2178
    6MOL0     C  680   4.125   5.796   7.535  0.1399 -0.3474 -0.6218
    6MOL0     C  681   4.216   5.895   7.552  0.6778  0.2022 -0.2560
    6MOL0     C  682   4.331   5.883   7.630  0.0879  0.5287 -0.0047
    6MOL0     O  683   4.410   5.992   7.649  0.4276  0.0223 -0.2992
    6MOL0     C  684   4.539   5.976   7.595 -0.4581 -0.0505 -0.5896
    6MOL0     C  685   4.557   6.077   7.477  1.4158  0.1482  0.2836
    6MOL0     C  686   4.691   6.152   7.481 -0.2427 -0.0505  0.0915
    6MOL0     C  687   4.803   6.072   7.403  0.6017  0.8557 -0.5966
    6MOL0     C  688   4.934   6.145   7.416 -0.3492  0.0884 -0.0791
    6MOL0     C  689   5.049   6.083   7.334  0.1741 -0.5221  0.1201
    6MOL0     C  690   5.165   6.193   7.327 -1.1320 -0.4204 -0.0239
    6MOL0     C  691   5.242   6.210   7.459 -0.7216 -0.0364  0.5421
    6MOL0     N  692   5.285   6.085   7.520 -0.1207  0.5295  0.9080
    6MOL0     C  693   5.233   6.041   7.642  0.5594  0.4443 -0.3727
    6MOL0     C  694   5.299   5.930   7.675 -0.3935  0.6256 -0.7784
    6MOL0     C  695   5.300   5.836   7.793  0.2794 -0.6597  0.4701
    6MOL0     C  696   5.170   5.839   7.860  0.1552  0.5485  0.0184
    6MOL0     C  697   5.162   5.725   7.969 -0.0089  0.5421 -0.0171
    6MOL0     C  698   5.037   5.734   8.051 -0.1850 -0.4641 -0.3730
    6MOL0     O  699   5.063   5.643   8.154 -0.0574 -0.6643 -0.1564
    6MOL0     C  700   4.961   5.570   8.197 -0.4997 -0.3313  0.3851
    6MOL0     C  701   4.984   5.442   8.230  0.1711 -0.6930 -1.0994
    6MOL0     C  702   4.887   5.350   8.264 -0.3650 -0.0736  0.2273
    6MOL0     C  703   4.750   5.385   8.265 -0.4482  0.7994 -0.2809
    6MOL0     C  704   4.644   5.281   8.279 -0.4451  0.1226  0.0023
    6MOL0     O  705   4.517   5.320   8.278  0.4696  0.3714  0.3265
    6MOL0     C  706   4.415   5.228   8.245  0.3309  1.5004 -0.3045
    6MOL0     C  707   4.420   5.094   8.189 -0.4032  0.1797 -0.3472
    6MOL0     C  708   4.304   5.007   8.164 -0.6579 -0.2340 -0.0718
    6MOL0     C  709   4.186   5.079   8.172  0.3034  0.5265  0.2546
    6MOL0     O  710   4.059   5.028   8.133 -0.2850 -0.0101 -0.1944
    6MOL0     C  711   4.057   4.925   8.030  0.3068 -0.6282 -0.1140
    6MOL0     C  712   3.915   4.877   8.027 -0.1640  0.5846  0.0787
    6MOL0     C  713   3.888   4.790   8.144  0.4875 -0.0937 -0.6428
    6MOL0     C  714   3.737   4.758   8.167 -0.0725  0.5208  0.2177
    6MOL0     C  715   3.652   4.877   8.204  0.5407 -0.1366 -0.1684
    6MOL0     C  716   3.529   4.841   8.280 -0.1717 -0.1082 -0.1810
    6MOL0     C  717   3.465   4.973   8.329 -0.2329  0.8166  0.2208
    6MOL0     C  718   3.318   4.961   8.380 -0.2539 -0.4809 -0.7681
    6MOL0    Cl  719   3.328   4.869   8.534 -0.0835 -0.5350  0.3895
    6MOL0     C  720   4.174   5.206   8.222 -0.0467  0.8180 -0.6409
    6MOL0     C  721   4.288   5.278   8.259  0.0620 -0.1896  0.0579
    6MOL0     O  722   4.676   5.163   8.303 -0.0477  1.0529 -0.4128
    6MOL0     C  723   4.717   5.512   8.229 -0.1505  0.3898  0.3094
    6MOL0     C  724   4.820   5.604   8.196  0.7952 -0.1545 -0.8661
    6MOL0     N  725   5.391   5.901   7.572 -0.1056  0.3914 -0.4856
    6MOL0     N  726   5.379   5.989   7.481 -0.0842  1.1396 -0.4687
    6MOL0     C  727   4.367   5.753   7.668 -0.5972 -0.6009 -0.4674
    6MOL0     C  728   4.276   5.649   7.650  0.3605  0.0669 -0.2423
    6MOL0     C  729   3.926   5.401   7.673  0.6199 -0.4850  0.1000
    6MOL0     C  730   3.882   5.346   7.552 -0.0352 -0.1656 -0.0658
    6MOL0     C  731   3.833   5.216   7.539 -0.2171 -0.2618 -0.7484
    6MOL0     C  732   3.822   5.139   7.654  0.2545  0.2026  0.5236
    6MOL0     O  733   3.786   5.005   7.652 -0.3231  0.4583 -0.0531
    6MOL0     C  734   3.688   4.971   7.554 -0.4799 -0.2497  1.0056
    6MOL0     C  735   3.639   4.832   7.572  0.6927 -0.6582 -0.9639
    6MOL0     C  736   3.576   4.817   7.714  0.3949 -0.1044  0.4281
    6MOL0     C  737   3.503   4.683   7.736 -0.7784  0.8049 -0.0058
    6MOL0     C  738   3.607   4.571   7.734  0.0523  0.5723 -0.4703
    6MOL0     C  739   3.683   4.478   7.739 -0.4779  0.0537  0.1704
    6MOL0     C  740   3.876   5.189   7.774 -1.0259 -0.2348  0.2450
    6MOL0     C  741   3.921   5.321   7.790 -0.5761  0.0941  0.6942
    6MOL0     C  742   3.978   5.364   7.920  0.2780 -0.8413 -0.3001
    6MOL0     H  743   4.036   5.819   7.477  1.8653  1.5424 -2.7051
    6MOL0     H  744   4.200   5.997   7.517  4.1486  0.2722 -2.0116
    6MOL0     H  745   4.614   5.994   7.673 -0.4636  1.5637 -0.9271
    6MOL0     H  746   4.551   5.877   7.548 -1.1435  0.4418 -1.8545
    6MOL0     H  747   4.485   6.158   7.485 -0.1753 -1.0563 -1.1017
    6MOL0     H  748   4.544   6.022   7.383 -1.1281 -1.8357  1.6670
    6MOL0     H  749   4.722   6.185   7.580 -0.8994 -1.8355  0.9243
    6MOL0     H  750   4.671   6.231   7.408  0.2562  0.7618  0.8158
    6MOL0     H  751   4.825   5.974   7.448 -1.4393  0.3230 -0.6705
    6MOL0     H  752   4.770   6.055   7.300  0.1778 -0.5745 -0.2419
    6MOL0     H  753   4.927   6.253   7.395  1.9952  0.2723 -0.2866
    6MOL0     H  754   4.958   6.132   7.522  2.1987 -1.1253 -0.7149
    6MOL0     H  755   5.073   5.987   7.381 -1.7538 -0.2174  1.9303
    6MOL0     H  756   5.010   6.053   7.236 -0.9332 -0.1835  0.4373
    6MOL0     H  757   5.117   6.285   7.293 -1.4417 -1.0060 -1.2468
    6MOL0     H  758   5.243   6.161   7.257  1.9790  1.1484  2.4904
    6MOL0     H  759   5.334   6.268   7.451 -0.4133 -0.3980  1.3318
    6MOL0     H  760   5.175   6.271   7.521 -3.2705  0.0720 -2.1041
    6MOL0     H  761   5.148   6.087   7.692 -0.8512 -1.6194 -0.7558
    6MOL0     H  762   5.315   5.740   7.744 -3.0688 -1.8107  1.4768
    6MOL0     H  763   5.373   5.862   7.871 -2.1042  0.0768  2.5700
    6MOL0     H  764   5.134   5.929   7.912 -2.4870 -0.2048 -0.3583
    6MOL0     H  765   5.091   5.823   7.786  0.3591 -0.7729  0.0602
    6MOL0     H  766   5.243   5.720   8.043 -1.2918 -0.7431  1.3602
    6MOL0     H  767   5.156   5.635   7.908  0.4814  1.9358 -2.2345
    6MOL0     H  768   4.952   5.701   7.990 -0.6537  3.0615 -1.8845
    6MOL0     H  769   5.027   5.832   8.098  0.7394 -0.2208 -0.6543
    6MOL0     H  770   5.076   5.388   8.209  1.4663  0.0011  2.1220
    6MOL0     H  771   4.916   5.250   8.293 -0.0215 -0.0062  0.1273
    6MOL0     H  772   4.519   5.055   8.170  0.3858  1.7271  0.4418
    6MOL0     H  773   4.309   4.901   8.143  0.3338  0.0197 -1.2263
    6MOL0     H  774   4.081   4.965   7.931 -1.9076  0.4488 -0.2802
    6MOL0     H  775   4.118   4.836   8.051 -4.0555 -3.6041  1.4160
    6MOL0     H  776   3.847   4.961   8.019 -2.3459 -0.7625  2.8507
    6MOL0     H  777   3.909   4.807   7.943 -0.3890 -2.2622  2.3033
    6MOL0     H  778   3.938   4.695   8.126 -1.4668 -1.2288 -0.3525
    6MOL0     H  779   3.920   4.850   8.230  1.3427  0.3518 -1.2552
    6MOL0     H  780   3.741   4.683   8.246  0.2937 -3.0904 -2.9554
    6MOL0     H  781   3.697   4.710   8.078  3.3505  1.7906 -2.2024
    6MOL0     H  782   3.631   4.950   8.126  0.0706  0.8938  0.8884
    6MOL0     H  783   3.720   4.926   8.274  2.4024 -1.8818 -0.6612
    6MOL0     H  784   3.452   4.794   8.219 -3.1707 -0.5653  3.5432
    6MOL0     H  785   3.563   4.772   8.359 -1.2992  0.8780  1.2296
    6MOL0     H  786   3.464   5.039   8.242  1.8301 -1.8493 -2.0028
    6MOL0     H  787   3.521   5.024   8.407 -1.0320  2.4162 -0.2048
    6MOL0     H  788   3.267   5.056   8.397  0.7581  0.0931 -0.8433
    6MOL0     H  789   3.251   4.910   8.311 -0.8748  1.0163 -1.3235
    6MOL0     H  790   4.079   5.258   8.228  0.9944  2.6873  0.4294
    6MOL0     H  791   4.273   5.378   8.299 -2.5117 -0.0250 -1.0772
    6MOL0     H  792   4.611   5.536   8.222 -0.6072 -1.7988 -2.0846
    6MOL0     H  793   4.785   5.702   8.164 -4.9038 -1.1286  1.2977
    6MOL0     H  794   4.450   5.747   7.737 -0.9792  2.6986  0.4691
    6MOL0     H  795   4.295   5.547   7.684  0.1642  0.6580  1.7277
    6MOL0     H  796   3.888   5.407   7.462 -1.8287  1.2786  0.7358
    6MOL0     H  797   3.793   5.184   7.444 -1.2315  2.9437 -1.5160
    6MOL0     H  798   3.724   4.968   7.451 -2.0762 -1.2647  0.4317
    6MOL0     H  799   3.605   5.042   7.558  0.7219  1.3447 -0.8179
    6MOL0     H  800   3.729   4.771   7.558  1.8062  0.6908  0.1233
    6MOL0     H  801   3.564   4.799   7.499  1.7393  1.3511 -3.0671
    6MOL0     H  802   3.501   4.896   7.726  2.2373  1.8292 -0.0269
    6MOL0     H  803   3.650   4.838   7.792  1.6298 -0.6414 -0.5567
    6MOL0     H  804   3.435   4.674   7.821 -0.1889 -1.4850  0.3062
    6MOL0     H  805   3.426   4.668   7.661 -1.4489  0.2740  0.7739
    6MOL0     H  806   3.744   4.390   7.741 -0.4306  0.0026 -1.4810
    6MOL0     H  807   3.882   5.134   7.867 -0.0936  0.3410  0.5335
    6MOL0     H  808   3.909   5.429   7.975  0.6131 -0.7732  0.0479
    6MOL0     H  809   3.982   5.276   7.984  0.1596  0.1164  1.0703
    6MOL0     H  810   4.073   5.416   7.904 -0.5360 -0.1442 -3.7184
    7MOL0     O  811   2.886   3.609   4.835  0.7840 -0.6663 -0.4838
    7MOL0     C  812   2.794   3.610   4.915  0.0123 -0.1367 -0.5496
    7MOL0     O  813   2.803   3.576   5.044  0.9852  0.3383 -0.9543
    7MOL0     C  814   2.921   3.525   5.087 -0.0116 -0.0393 -0.2493
    7MOL0     C  815   3.000   3.426   5.025 -1.1771  0.4500 -0.7745
    7MOL0     C  816   3.119   3.374   5.083  0.4928 -0.1018  0.1009
    7MOL0     C  817   3.160   3.405   5.208  0.1169  0.2336 -0.3294
    7MOL0     O  818   3.281   3.353   5.240 -0.0483  0.1491  0.5998
    7MOL0     C  819   3.314   3.356   5.378 -0.8867 -0.4327  0.8795
    7MOL0     C  820   3.417   3.248   5.403  0.5860  0.1105 -0.2333
    7MOL0     C  821   3.548   3.257   5.326 -0.6053 -0.2960 -0.2117
    7MOL0     C  822   3.638   3.369   5.373 -0.3745  0.2037  1.1525
    7MOL0     C  823   3.765   3.394   5.288  0.2994 -1.2932  0.0554
    7MOL0     C  824   3.864   3.278   5.294  0.1534  0.5364  0.2909
    7MOL0     C  825   3.973   3.284   5.181 -0.1019 -0.0409  0.0146
    7MOL0     C  826   3.932   3.253   5.039  0.9914  1.4101 -0.3519
    7MOL0     N  827   4.023   3.324   4.945  0.1663  0.1331  0.1500
    7MOL0     C  828   4.068   3.455   4.945  0.5180  0.5422 -0.5426
    7MOL0     C  829   4.145   3.465   4.838 -0.6892 -0.0325 -0.4034
    7MOL0     C  830   4.230   3.579   4.799  0.3629 -0.8804  0.1995
    7MOL0     C  831   4.378   3.569   4.818  0.0282 -1.0619  0.3463
    7MOL0     C  832   4.448   3.713   4.794  0.5003  0.2177  0.8589
    7MOL0     C  833   4.591   3.727   4.838 -0.1172  0.1760  0.3939
    7MOL0     O  834   4.581   3.686   4.976  0.2120  0.0555 -0.4231
    7MOL0     C  835   4.640   3.763   5.072  0.2844 -0.4532 -0.1889
    7MOL0     C  836   4.757   3.825   5.029 -0.1231 -0.1432 -0.0545
    7MOL0     C  837   4.813   3.928   5.109  0.2599  0.3486  0.3535
    7MOL0     C  838   4.757   3.950   5.236 -0.3938 -0.1509  0.3968
    7MOL0     C  839   4.819   4.041   5.340  0.8174 -0.3853  0.1326
    7MOL0     O  840   4.778   4.042   5.464  0.6153  0.0170  0.0019
    7MOL0     C  841   4.855   4.125   5.550  0.1743 -0.1049  0.2174
    7MOL0     C  842   4.997   4.115   5.574  0.8256  0.1359 -0.6915
    7MOL0     C  843   5.063   4.204   5.664 -0.1415 -0.6388  0.0064
    7MOL0     C  844   4.983   4.288   5.739  0.4094  0.0929 -0.3798
    7MOL0     O  845   5.022   4.366   5.845  0.3349 -0.0031 -0.5141
    7MOL0     C  846   5.087   4.484   5.804  0.1023 -0.7070 -0.4266
    7MOL0     C  847   5.062   4.588   5.902  0.5311  0.6763  0.0330
    7MOL0     C  848   5.130   4.724   5.867 -1.6080  0.5077  0.2442
    7MOL0     C  849   5.120   4.826   5.984  0.6866 -0.1784  0.8560
    7MOL0     C  850   5.176   4.957   5.938  0.6378 -0.9834  0.4817
    7MOL0     C  851   5.151   5.068   6.035 -0.0884 -0.0300  0.4280
    7MOL0     C  852   5.226   5.205   6.003  0.5143  0.0776  0.0261
    7MOL0     C  853   5.379   5.191   6.018 -1.0375 -0.8305 -0.0266
    7MOL0    Cl  854   5.421   5.110   6.174 -0.3763 -0.0493  0.6772
    7MOL0     C  855   4.844   4.291   5.724 -0.6592 -1.2205 -0.1103
    7MOL0     C  856   4.787   4.210   5.633  0.1106  0.3734 -0.6301
    7MOL0     O  857   4.917   4.101   5.297 -0.1543 -0.4387 -0.3608
    7MOL0     C  858   4.639   3.884   5.274  0.1452 -1.2571  0.0259
    7MOL0     C  859   4.583   3.782   5.200  0.7263  0.3810  0.8733
    7MOL0     N  860   4.140   3.346   4.775 -0.1502 -0.0340  1.2073
    7MOL0     N  861   4.083   3.263   4.842 -0.4058  0.6851  0.0682
    7MOL0     C  862   3.073   3.497   5.278 -0.2377 -1.0922  0.8719
    7MOL0     C  863   2.960   3.552   5.223  0.6558  0.3613  0.8098
    7MOL0     C  864   2.660   3.644   4.860 -1.4515  0.4419  0.6591
    7MOL0     C  865   2.662   3.720   4.736 -0.1399  0.1775 -0.0146
    7MOL0     C  866   2.543   3.765   4.674  0.9235  1.0756 -0.3464
    7MOL0     C  867   2.419   3.722   4.725  0.4405 -0.6805 -0.1571
    7MOL0     O  868   2.302   3.764   4.665  0.8071 -0.6873  0.2670
    7MOL0     C  869   2.173   3.755   4.736 -0.3100  0.3218 -0.1021
    7MOL0     C  870   2.049   3.806   4.661  0.1852 -0.3750  0.7353
    7MOL0     C  871   1.924   3.770   4.731  0.1078 -0.3065 -0.2528
    7MOL0     C  872   1.894   3.619   4.722  0.0017 -0.0524  0.4070
    7MOL0     C  873   1.774   3.601   4.802 -0.0987 -0.1759 -0.7023
    7MOL0     C  874   1.661   3.600   4.854 -0.3114  0.6664  0.4410
    7MOL0     C  875   2.422   3.640   4.840  0.3404  0.0984 -0.6844
    7MOL0     C  876   2.534   3.606   4.914 -0.2319  0.2003 -0.1104
    7MOL0     C  877   2.520   3.529   5.045 -0.3296  1.0448  0.0468
    7MOL0     H  878   2.965   3.400   4.925 -1.5853 -0.3016 -0.4462
    7MOL0     H  879   3.171   3.304   5.018 -1.8192  0.8181 -2.9604
    7MOL0     H  880   3.354   3.454   5.404  0.9312 -0.5190 -1.3068
    7MOL0     H  881   3.220   3.327   5.427 -0.3041 -2.3914  0.9268
    7MOL0     H  882   3.358   3.162   5.371  4.4254 -2.2690 -1.5722
    7MOL0     H  883   3.445   3.235   5.508  2.7819  0.4864 -0.7287
    7MOL0     H  884   3.526   3.265   5.219 -3.0136  0.0350  0.2583
    7MOL0     H  885   3.596   3.159   5.330  2.6824  1.1311 -1.3142
    7MOL0     H  886   3.585   3.464   5.359  1.2780  1.0761  0.6034
    7MOL0     H  887   3.663   3.343   5.476 -2.4781 -0.9850  1.4387
    7MOL0     H  888   3.730   3.414   5.186 -1.6136 -0.1851  0.8576
    7MOL0     H  889   3.819   3.485   5.316  1.5218 -0.9706 -2.9954
    7MOL0     H  890   3.914   3.263   5.390 -0.1665 -3.2991  0.0231
    7MOL0     H  891   3.813   3.184   5.275  0.8870  0.5393 -2.0035
    7MOL0     H  892   4.034   3.198   5.210  1.5456  0.8976 -0.4905
    7MOL0     H  893   4.033   3.375   5.186  0.2521 -0.3109  4.6368
    7MOL0     H  894   3.927   3.147   5.016  0.5818  1.0663  1.1998
    7MOL0     H  895   3.829   3.287   5.022 -0.0441 -2.0996 -2.0561
    7MOL0     H  896   4.041   3.538   5.008 -0.3921  1.3403 -1.9345
    7MOL0     H  897   4.220   3.595   4.692 -1.1791  0.3685  0.4962
    7MOL0     H  898   4.201   3.667   4.858  1.9217 -1.0718  1.3302
    7MOL0     H  899   4.403   3.533   4.918 -0.3368 -3.3862 -0.3435
    7MOL0     H  900   4.425   3.506   4.742  2.4594  1.4906 -0.4206
    7MOL0     H  901   4.395   3.787   4.854  3.0361  1.4555  1.7047
    7MOL0     H  902   4.439   3.744   4.690 -0.0117  2.3652  1.5052
    7MOL0     H  903   4.620   3.831   4.824 -0.1785 -0.1768 -3.6267
    7MOL0     H  904   4.660   3.667   4.777  2.4929 -0.0096  3.3044
    7MOL0     H  905   4.818   3.802   4.942  1.2309  0.9329  0.5794
    7MOL0     H  906   4.910   3.968   5.082  0.0697  0.7256  0.2302
    7MOL0     H  907   5.057   4.041   5.523 -1.3417 -1.8873 -0.4865
    7MOL0     H  908   5.170   4.199   5.676  0.0367 -0.3704 -1.2520
    7MOL0     H  909   5.193   4.465   5.788  0.4915  0.3162  0.8424
    7MOL0     H  910   5.052   4.514   5.704  1.4768 -1.3513 -1.1307
    7MOL0     H  911   4.955   4.604   5.919  0.4644 -0.0298  0.2759
    7MOL0     H  912   5.107   4.558   5.997  0.7550  2.6515  0.6047
    7MOL0     H  913   5.235   4.701   5.844 -1.0572  3.0088  0.0171
    7MOL0     H  914   5.098   4.760   5.769  1.5467 -1.5312 -1.7504
    7MOL0     H  915   5.182   4.794   6.068  1.8349 -1.7486 -0.5006
    7MOL0     H  916   5.014   4.829   6.009  0.4994  1.8524  0.0342
    7MOL0     H  917   5.128   4.989   5.846 -0.0419 -1.9171  0.4940
    7MOL0     H  918   5.284   4.945   5.928  0.6793  0.6298 -1.8969
    7MOL0     H  919   5.045   5.085   6.054  0.0231  1.9528 -0.4811
    7MOL0     H  920   5.190   5.043   6.135 -0.0492 -0.8349  0.2167
    7MOL0     H  921   5.200   5.281   6.077  1.0036  1.5196 -1.2175
    7MOL0     H  922   5.202   5.244   5.904  1.1224 -1.6935 -0.8607
    7MOL0     H  923   5.423   5.124   5.943  0.0190 -0.2412  0.0496
    7MOL0     H  924   5.428   5.288   6.013  1.5738 -2.0744 -4.2679
    7MOL0     H  925   4.795   4.370   5.780  2.7581  1.9004 -1.0763
    7MOL0     H  926   4.680   4.213   5.616 -0.2640  0.9597  1.5608
    7MOL0     H  927   4.588   3.905   5.368 -1.3128  0.8711 -1.1436
    7MOL0     H  928   4.487   3.743   5.233  0.3945  0.5770  0.1876
    7MOL0     H  929   3.114   3.533   5.372  2.1568 -0.8734 -0.1886
    7MOL0     H  930   2.902   3.625   5.279 -2.6228 -1.7725  0.4974
    7MOL0     H  931   2.757   3.765   4.708  0.0080 -1.2004 -1.8447
    7MOL0     H  932   2.537   3.829   4.587 -0.9295 -0.6954 -1.6058
    7MOL0     H  933   2.170   3.830   4.815 -1.1157  1.0023 -0.7644
    7MOL0     H  934   2.156   3.652   4.768 -2.7063  0.7067  0.0220
    7MOL0     H  935   2.054   3.772   4.557  3.3245  0.6644  0.4159
    7MOL0     H  936   2.061   3.914   4.650  2.8709 -0.7401 -0.8079
    7MOL0     H  937   1.845   3.833   4.690  1.4175  0.7259 -1.2956
    7MOL0     H  938   1.945   3.789   4.837 -0.9238 -1.5106  0.1905
    7MOL0     H  939   1.872   3.599   4.617  0.7567 -3.1824  0.7489
    7MOL0     H  940   1.977   3.559   4.762  0.7034  2.0302  2.3048
    7MOL0     H  941   1.559   3.603   4.887 -0.4421  1.1872  0.0000
    7MOL0     H  942   2.335   3.590   4.880  1.4437 -0.6776  0.8387
    7MOL0     H  943   2.556   3.428   5.021 -3.1621  0.3405 -1.8612
    7MOL0     H  944   2.569   3.569   5.134 -0.3020 -0.3955  0.6980
    7MOL0     H  945   2.419   3.503   5.079  0.9649 -2.0371  1.9585
    8MOL0     O  946   0.190   7.152   0.789 -0.1846  0.4647 -0.3882
    8MOL0     C  947   0.092   7.219   0.808 -0.2310 -1.2064 -0.9809
    8MOL0     O  948   0.091   7.332   0.884 -0.2114  0.0772 -0.9507
    8MOL0     C  949   0.198   7.379   0.953  0.1577 -0.4950  0.3993
    8MOL0     C  950   0.209   7.357   1.083 -0.7937 -0.3162 -0.7631
    8MOL0     C  951   0.313   7.412   1.155 -0.2396 -1.1206  0.2024
    8MOL0     C  952   0.405   7.496   1.093  0.1352  0.6105  0.1835
    8MOL0     O  953   0.502   7.553   1.170 -0.1196 -0.1584 -0.2198
    8MOL0     C  954   0.615   7.608   1.107 -0.6220 -1.0623  0.1509
    8MOL0     C  955   0.714   7.669   1.207  0.4384 -0.0566  0.4125
    8MOL0     C  956   0.819   7.749   1.119  0.1705  0.8626  0.1536
    8MOL0     C  957   0.889   7.858   1.206  0.1651  0.9949  0.3377
    8MOL0     C  958   1.040   7.877   1.180 -0.1041 -0.6478  0.2983
    8MOL0     C  959   1.083   8.029   1.195 -0.3423  0.7684  1.3267
    8MOL0     C  960   1.232   8.038   1.148  0.1996  0.8502  0.0684
    8MOL0     C  961   1.328   7.976   1.244  0.1141  0.7252 -1.0180
    8MOL0     N  962   1.458   8.040   1.266  0.1608 -0.2191  0.4783
    8MOL0     C  963   1.562   8.046   1.176  0.2092 -1.1192 -0.4200
    8MOL0     C  964   1.645   8.134   1.235 -1.0391  0.9922  0.5493
    8MOL0     C  965   1.769   8.196   1.179  0.0112 -1.0009  0.2864
    8MOL0     C  966   1.895   8.175   1.261 -0.3315  0.4587 -0.1861
    8MOL0     C  967   1.928   8.272   1.382  0.0550  0.2048 -0.5488
    8MOL0     C  968   2.068   8.244   1.436 -0.6235  0.6543 -1.0243
    8MOL0     O  969   2.104   8.363   1.494  0.8292  0.3731  0.3650
    8MOL0     C  970   2.232   8.387   1.534 -0.0376 -0.9651 -1.5314
    8MOL0     C  971   2.255   8.509   1.604 -0.3683 -0.4986  0.3121
    8MOL0     C  972   2.383   8.558   1.640 -0.2099  0.6190 -0.4126
    8MOL0     C  973   2.499   8.484   1.591 -0.5492  0.3447 -0.8131
    8MOL0     C  974   2.636   8.528   1.615 -1.0448  0.3815  0.2983
    8MOL0     O  975   2.736   8.470   1.546  0.3099  0.5027  0.3530
    8MOL0     C  976   2.871   8.489   1.570 -0.0633  0.7832 -0.4784
    8MOL0     C  977   2.955   8.401   1.500 -1.5312  0.0478 -0.4808
    8MOL0     C  978   3.092   8.405   1.506  0.0030 -0.1583 -0.0380
    8MOL0     C  979   3.155   8.501   1.590 -0.6218 -0.0933  0.9664
    8MOL0     O  980   3.293   8.504   1.589  0.0996 -0.0425  0.2538
    8MOL0     C  981   3.381   8.587   1.670  0.2941  1.0646  0.5406
    8MOL0     C  982   3.523   8.579   1.607 -0.7601  0.5490  0.0223
    8MOL0     C  983   3.614   8.670   1.696 -0.4853 -1.0925  0.4385
    8MOL0     C  984   3.761   8.645   1.661  0.8284 -0.0274 -0.6683
    8MOL0     C  985   3.830   8.774   1.686  0.1773  0.8065 -0.0858
    8MOL0     C  986   3.977   8.759   1.645  0.1669 -0.7979 -0.5113
    8MOL0     C  987   3.991   8.741   1.487  0.5249 -0.0951  0.0727
    8MOL0     C  988   4.132   8.771   1.436  0.5477  0.2351  0.5479
    8MOL0    Cl  989   4.166   8.943   1.460  0.7064  0.2747  0.1082
    8MOL0     C  990   3.072   8.593   1.665  0.3052  0.1388  0.4261
    8MOL0     C  991   2.933   8.585   1.653 -0.2522  0.0395 -0.2972
    8MOL0     O  992   2.647   8.624   1.694  0.3708  0.0983  0.8125
    8MOL0     C  993   2.470   8.359   1.531  0.1407  0.3078 -0.3389
    8MOL0     C  994   2.339   8.304   1.507 -1.0533 -0.7225  0.7141
    8MOL0     N  995   1.598   8.160   1.363 -0.1623 -0.4188 -0.3990
    8MOL0     N  996   1.486   8.106   1.379 -0.6879  0.4079 -1.0432
    8MOL0     C  997   0.397   7.517   0.951 -0.2407  0.4307 -0.5211
    8MOL0     C  998   0.294   7.455   0.883 -0.0644  0.0244  0.6398
    8MOL0     C  999  -0.038   7.196   0.759 -0.0949  0.2500  0.1431
    8MOL0     C 1000  -0.148   7.245   0.835 -0.5731 -0.2047  0.5192
    8MOL0     C 1001  -0.273   7.212   0.802 -0.2570 -0.3537 -0.1634
    8MOL0     C 1002  -0.305   7.140   0.686 -0.0663  0.3236 -0.1077
    8MOL0     O 1003  -0.439   7.105   0.661 -0.7103 -0.0885  0.6208
    8MOL0     C 1004  -0.492   7.084   0.529  0.3385  0.0553 -0.1015
    8MOL0     C 1005  -0.625   7.175   0.499 -0.5051 -0.0585 -0.6854
    8MOL0     C 1006  -0.743   7.152   0.609  0.7093  0.1222  0.5904
    8MOL0     C 1007  -0.853   7.256   0.590  0.3785  1.2211  0.5395
    8MOL0     C 1008  -0.977   7.204   0.653  0.0226  0.4118  0.4738
    8MOL0     C 1009  -1.084   7.178   0.700  0.3074 -0.8667 -0.2488
    8MOL0     C 1010  -0.198   7.091   0.614  0.5552 -0.6021 -0.5954
    8MOL0     C 1011  -0.060   7.107   0.652 -0.1396 -0.5888  1.1462
    8MOL0     C 1012   0.039   7.058   0.564 -0.9973 -0.5839  0.5512
    8MOL0     H 1013   0.134   7.295   1.131 -1.5292  1.2299  0.1248
    8MOL0     H 1014   0.313   7.388   1.261  0.9855  0.0693  0.4986
    8MOL0     H 1015   0.664   7.531   1.045 -1.4491 -1.0293 -0.5658
    8MOL0     H 1016   0.582   7.691   1.044  1.1910 -0.9972 -0.7916
    8MOL0     H 1017   0.773   7.594   1.261 -0.2019 -2.6649 -2.2156
    8MOL0     H 1018   0.671   7.724   1.291  0.7002 -0.4993  0.8441
    8MOL0     H 1019   0.766   7.808   1.044  0.4635  1.6535  0.5558
    8MOL0     H 1020   0.887   7.685   1.063 -0.2727  1.3464 -0.9628
    8MOL0     H 1021   0.845   7.958   1.201  1.3903  1.4950 -0.9632
    8MOL0     H 1022   0.882   7.820   1.309  0.9585 -2.1254 -0.6523
    8MOL0     H 1023   1.098   7.824   1.257  3.3436 -0.7066 -2.1254
    8MOL0     H 1024   1.063   7.830   1.084  2.4759  1.1558 -0.0587
    8MOL0     H 1025   1.021   8.087   1.126  0.6109  0.2781  0.0067
    8MOL0     H 1026   1.081   8.061   1.299  0.6675 -2.2225  2.3673
    8MOL0     H 1027   1.262   8.141   1.127  0.1445  0.1379 -4.4769
    8MOL0     H 1028   1.241   7.986   1.053  4.1743  1.2141  0.1022
    8MOL0     H 1029   1.276   7.963   1.339  0.4521 -4.1716 -1.2289
    8MOL0     H 1030   1.331   7.870   1.216 -3.2350  0.1230  0.4456
    8MOL0     H 1031   1.566   8.001   1.077  0.6077 -1.2330 -0.3557
    8MOL0     H 1032   1.788   8.151   1.081 -0.8479  1.2677 -1.0035
    8MOL0     H 1033   1.756   8.301   1.149 -0.4107 -1.6411 -1.9207
    8MOL0     H 1034   1.872   8.075   1.298 -3.0717  0.9845 -0.2553
    8MOL0     H 1035   1.976   8.180   1.188 -0.1171  0.6313  0.0636
    8MOL0     H 1036   1.858   8.263   1.465 -1.4330 -2.3681 -1.9876
    8MOL0     H 1037   1.921   8.375   1.345 -0.2371 -0.6628 -3.1044
    8MOL0     H 1038   2.128   8.196   1.359  0.5948 -0.6344  0.6504
    8MOL0     H 1039   2.067   8.175   1.521 -1.7533  1.0649 -0.6781
    8MOL0     H 1040   2.172   8.568   1.640 -2.1868 -1.8975 -1.3104
    8MOL0     H 1041   2.407   8.645   1.701  0.5130  0.5093 -0.5339
    8MOL0     H 1042   2.921   8.338   1.419  3.0290  2.0597 -4.4620
    8MOL0     H 1043   3.157   8.334   1.455 -1.3970 -1.4312 -0.0986
    8MOL0     H 1044   3.336   8.687   1.670 -0.6132  0.6671  1.4613
    8MOL0     H 1045   3.382   8.550   1.773  0.6710 -0.0915  0.1359
    8MOL0     H 1046   3.566   8.479   1.621 -1.1538  0.5648  1.5721
    8MOL0     H 1047   3.509   8.604   1.502 -3.2914 -0.8743 -0.0645
    8MOL0     H 1048   3.578   8.770   1.673  0.5138 -1.1947 -1.8999
    8MOL0     H 1049   3.609   8.651   1.804  2.3522 -1.8371  0.5198
    8MOL0     H 1050   3.767   8.618   1.555 -0.1364 -1.6884 -0.3314
    8MOL0     H 1051   3.789   8.566   1.731 -0.7936  0.2950  0.4122
    8MOL0     H 1052   3.825   8.799   1.792 -2.0581  0.9356 -0.1572
    8MOL0     H 1053   3.783   8.856   1.630  1.1906  1.0977 -0.5328
    8MOL0     H 1054   4.026   8.855   1.664  0.8344 -1.1349 -0.4836
    8MOL0     H 1055   4.021   8.682   1.710  0.1064 -0.9304 -0.6276
    8MOL0     H 1056   3.926   8.806   1.428  0.5654  0.0487  0.1841
    8MOL0     H 1057   3.975   8.635   1.464  0.3410 -0.7851  3.0125
    8MOL0     H 1058   4.207   8.705   1.480 -0.9987 -1.1271  1.2279
    8MOL0     H 1059   4.138   8.752   1.329 -4.0453 -0.3150  0.2173
    8MOL0     H 1060   3.120   8.662   1.734 -0.6749 -0.4347  1.7071
    8MOL0     H 1061   2.880   8.646   1.725 -1.8363  0.1125 -1.4627
    8MOL0     H 1062   2.549   8.289   1.505 -0.5489 -0.9136  0.6900
    8MOL0     H 1063   2.328   8.205   1.464 -1.6829 -0.3051 -0.1092
    8MOL0     H 1064   0.478   7.560   0.894  0.3070 -1.9757 -1.6859
    8MOL0     H 1065   0.291   7.460   0.774 -0.7603 -2.5779  0.4836
    8MOL0     H 1066  -0.145   7.305   0.925  0.1800  0.8430 -0.1818
    8MOL0     H 1067  -0.346   7.268   0.860  0.6037  3.6838 -2.5878
    8MOL0     H 1068  -0.523   6.982   0.504  1.9768  0.2821 -3.7494
    8MOL0     H 1069  -0.422   7.107   0.448  0.6887 -0.2184  0.1238
    8MOL0     H 1070  -0.664   7.162   0.397 -0.2525 -0.0046 -0.7907
    8MOL0     H 1071  -0.596   7.280   0.508  0.1596 -0.3552  0.8385
    8MOL0     H 1072  -0.710   7.158   0.713 -0.7680  1.0589  1.0384
    8MOL0     H 1073  -0.784   7.052   0.592  1.0852 -0.0880  0.9144
    8MOL0     H 1074  -0.827   7.342   0.652  0.0975  1.4807  0.3049
    8MOL0     H 1075  -0.864   7.273   0.482 -0.6764 -2.2932 -0.0196
    8MOL0     H 1076  -1.171   7.156   0.759  0.4892 -3.7601 -0.9359
    8MOL0     H 1077  -0.214   7.047   0.516  2.6880 -0.3948 -1.0738
    8MOL0     H 1078   0.072   7.146   0.510  0.2404 -1.0770  0.4755
    8MOL0     H 1079   0.130   7.017   0.609 -0.8753  1.2877  2.1577
    8MOL0     H 1080   0.006   6.975   0.501 -1.6572 -0.0536  0.1821
    9MOL0     O 1081   9.898   6.265   9.527 -0.4099  0.4279 -0.0758
    9MOL0     C 1082   9.836   6.180   9.589  0.2882 -0.1294 -0.3827
    9MOL0     O 1083   9.896   6.100   9.693 -0.5472 -0.3176 -0.6160
    9MOL0     C 1084  10.027   6.116   9.735  0.0162 -0.3574  0.3936
    9MOL0     C 1085  10.137   6.108   9.639 -0.3233 -0.2203 -0.6293
    9MOL0     C 1086  10.270   6.118   9.686  0.9210 -0.6702 -0.7404
    9MOL0     C 1087  10.293   6.118   9.829 -0.0923 -1.1415 -1.2249
    9MOL0     O 1088  10.419   6.122   9.905  0.1748 -0.2606 -0.5710
    9MOL0     C 1089  10.519   6.056   9.846 -0.1105  0.3922  0.3850
    9MOL0     C 1090  10.654   6.054   9.924 -0.3912 -0.5797  0.3277
    9MOL0     C 1091  10.739   5.944   9.872 -0.0479  0.3924  0.2036
    9MOL0     C 1092  10.885   5.962   9.883  0.3170  0.3110  0.3737
    9MOL0     C 1093  10.965   5.864   9.796  0.3836 -0.6535 -0.1341
    9MOL0     C 1094  11.119   5.880   9.807  0.2338  0.9638  0.2782
    9MOL0     C 1095  11.188   5.788   9.713  0.7792 -0.2885  0.6997
    9MOL0     C 1096  11.238   5.663   9.796  0.4142  0.1987  0.5687
    9MOL0     N 1097  11.320   5.573   9.717 -0.0913 -0.1165  0.7119
    9MOL0     C 1098  11.454   5.587   9.688  0.6771 -0.8336 -0.6443
    9MOL0     C 1099  11.488   5.469   9.634 -0.2420 -0.9269 -0.8453
    9MOL0     C 1100  11.627   5.426   9.586  0.2041 -0.4550 -0.1187
    9MOL0     C 1101  11.645   5.275   9.601  0.3695  0.0115 -0.1158
    9MOL0     C 1102  11.787   5.233   9.555 -0.1941  0.6061 -0.2692
    9MOL0     C 1103  11.804   5.089   9.594 -0.5298 -0.6910 -0.3133
    9MOL0     O 1104  11.925   5.040   9.541 -0.8774 -0.1718 -0.2618
    9MOL0     C 1105  12.024   5.055   9.637  0.8911 -0.1407 -0.4139
    9MOL0     C 1106  12.118   5.156   9.613  0.4191 -0.0015  0.1358
    9MOL0     C 1107  12.217   5.166   9.714  1.0170 -0.7867 -0.5140
    9MOL0     C 1108  12.222   5.097   9.833 -0.2961 -0.5490  0.5566
    9MOL0     C 1109  12.323   5.132   9.928  0.8246 -0.8673  0.8394
    9MOL0     O 1110  12.408   5.233   9.889  0.0917 -0.5305 -0.0807
    9MOL0     C 1111  12.514   5.259   9.964  0.3090  1.1757  0.3553
    9MOL0     C 1112  12.622   5.166   9.958 -0.5453 -0.2975 -0.0651
    9MOL0     C 1113  12.744   5.205  10.005  0.1633 -0.5582 -0.2246
    9MOL0     C 1114  12.761   5.336  10.059  0.3726 -0.3757  0.0830
    9MOL0     O 1115  12.869   5.383  10.114  0.3406  0.0248 -0.7777
    9MOL0     C 1116  12.987   5.299  10.136  0.7724 -0.5692 -0.1453
    9MOL0     C 1117  13.093   5.391  10.201  0.0557 -0.2466 -0.0861
    9MOL0     C 1118  13.235   5.337  10.198  0.0321  0.1793  0.9617
    9MOL0     C 1119  13.330   5.436  10.250 -0.2459  0.2389  0.2254
    9MOL0     C 1120  13.474   5.397  10.203  0.2044  0.5191 -0.5880
    9MOL0     C 1121  13.585   5.482  10.262  0.9509 -0.1424  1.1599
    9MOL0     C 1122  13.728   5.440  10.228 -0.4175  0.7796  0.9001
    9MOL0     C 1123  13.764   5.461  10.092  0.0371 -0.0450  0.1747
    9MOL0    Cl 1124  13.766   5.634  10.048 -0.6110  0.0578 -0.2976
    9MOL0     C 1125  12.654   5.420  10.070  1.2338 -1.0275  0.2524
    9MOL0     C 1126  12.533   5.378  10.022  0.6525 -0.1553  0.5530
    9MOL0     O 1127  12.333   5.064  10.030 -0.0657  0.4820 -0.1859
    9MOL0     C 1128  12.125   5.000   9.847 -0.5585  0.2489 -1.3125
    9MOL0     C 1129  12.037   4.970   9.743 -0.3907 -0.8544 -0.4790
    9MOL0     N 1130  11.372   5.389   9.638 -0.5197 -0.1227 -0.6587
    9MOL0     N 1131  11.278   5.453   9.677  0.4529 -0.0629 -0.3288
    9MOL0     C 1132  10.186   6.130   9.918  0.4318  0.1136  0.0405
    9MOL0     C 1133  10.051   6.122   9.872  0.0636  0.7202  0.0943
    9MOL0     C 1134   9.695   6.150   9.559 -0.8180  1.1873 -0.3657
    9MOL0     C 1135   9.621   6.077   9.652 -0.4788  0.6165  0.0399
    9MOL0     C 1136   9.491   6.039   9.615  0.6839  0.1425  0.7629
    9MOL0     C 1137   9.433   6.078   9.499  0.4839  0.6239 -0.3669
    9MOL0     O 1138   9.313   6.035   9.449  0.3883  0.2679  0.0280
    9MOL0     C 1139   9.226   5.946   9.525  0.4824 -0.5270 -0.3003
    9MOL0     C 1140   9.249   5.795   9.502  0.0783 -0.1407 -0.6307
    9MOL0     C 1141   9.269   5.759   9.350  0.4253  0.3465  0.1015
    9MOL0     C 1142   9.259   5.608   9.322  0.1221 -1.0066  0.3853
    9MOL0     C 1143   9.378   5.558   9.389  0.3869  0.3790 -0.9535
    9MOL0     C 1144   9.475   5.509   9.443  0.2122  0.3812  0.0645
    9MOL0     C 1145   9.505   6.165   9.420 -0.0445 -0.9285  0.7053
    9MOL0     C 1146   9.632   6.203   9.448 -0.2257  0.4127  0.0718
    9MOL0     C 1147   9.694   6.288   9.337  0.4100  0.1212 -0.3232
    9MOL0     H 1148  10.112   6.095   9.535 -0.8314  0.9560 -0.6689
    9MOL0     H 1149  10.352   6.127   9.615 -0.1177  0.7221 -1.8161
    9MOL0     H 1150  10.482   5.957   9.819 -3.0415  1.6478 -0.5333
    9MOL0     H 1151  10.539   6.109   9.753  0.3848  0.3264  0.4490
    9MOL0     H 1152  10.651   6.031  10.030  1.9029 -3.8538 -0.1555
    9MOL0     H 1153  10.706   6.150   9.923 -0.8954 -0.2736  1.8123
    9MOL0     H 1154  10.726   5.949   9.764  1.4217  3.3803  0.0765
    9MOL0     H 1155  10.706   5.847   9.911  0.1779 -0.2272 -1.0993
    9MOL0     H 1156  10.904   6.064   9.848 -2.1655  0.8459  0.4276
    9MOL0     H 1157  10.923   5.957   9.986  0.0420 -0.4167  0.4459
    9MOL0     H 1158  10.948   5.761   9.829  0.6605 -0.8639 -0.6253
    9MOL0     H 1159  10.919   5.861   9.697 -2.2823 -0.1910  0.9858
    9MOL0     H 1160  11.137   5.984   9.779  0.8184  0.1779 -2.5435
    9MOL0     H 1161  11.167   5.875   9.905  2.2701 -2.5246 -0.7070
    9MOL0     H 1162  11.277   5.847   9.690 -0.4891  0.9612 -1.3257
    9MOL0     H 1163  11.130   5.771   9.621  1.9761 -3.1909  0.3786
    9MOL0     H 1164  11.303   5.693   9.879  1.2396 -2.0299  0.8100
    9MOL0     H 1165  11.148   5.610   9.828  0.5910 -1.0172 -0.8621
    9MOL0     H 1166  11.516   5.667   9.727  0.0005  0.3151 -1.8236
    9MOL0     H 1167  11.651   5.460   9.485  1.5082 -2.5698 -0.5950
    9MOL0     H 1168  11.694   5.477   9.656 -1.4382  2.3213 -0.4424
    9MOL0     H 1169  11.643   5.246   9.706 -0.1742 -0.3476 -0.2189
    9MOL0     H 1170  11.563   5.234   9.540  1.3749 -0.4633 -1.2007
    9MOL0     H 1171  11.869   5.296   9.591  2.1374 -1.8820 -0.9364
    9MOL0     H 1172  11.793   5.244   9.447  1.6720 -0.2280 -0.2830
    9MOL0     H 1173  11.723   5.025   9.559 -1.7875 -1.8060  4.0608
    9MOL0     H 1174  11.792   5.076   9.702 -3.1008  0.0222 -0.4411
    9MOL0     H 1175  12.109   5.211   9.519 -3.0847 -1.6830 -0.6874
    9MOL0     H 1176  12.292   5.242   9.693  0.0359  0.3194 -0.1701
    9MOL0     H 1177  12.595   5.073   9.910  1.1828 -0.2765 -1.1341
    9MOL0     H 1178  12.824   5.132  10.004  0.6293 -0.0764  0.4501
    9MOL0     H 1179  12.963   5.214  10.201 -2.1430 -0.7199 -1.2347
    9MOL0     H 1180  13.017   5.256  10.040 -2.0250 -0.5746 -1.1197
    9MOL0     H 1181  13.100   5.490  10.155  1.0624 -0.1313  0.2776
    9MOL0     H 1182  13.072   5.413  10.306 -0.3078 -1.2536  0.0635
    9MOL0     H 1183  13.249   5.245  10.255  0.9674 -1.4042 -1.6422
    9MOL0     H 1184  13.258   5.307  10.095 -0.8063  2.8595 -0.1021
    9MOL0     H 1185  13.325   5.424  10.359  2.0538 -3.7022  0.0913
    9MOL0     H 1186  13.306   5.539  10.223  0.9421  0.7331  0.9631
    9MOL0     H 1187  13.479   5.399  10.094  1.3671 -0.0125 -0.5548
    9MOL0     H 1188  13.496   5.297  10.241  0.8444  2.0486  3.7066
    9MOL0     H 1189  13.559   5.585  10.236  0.1899 -0.6940 -0.4332
    9MOL0     H 1190  13.569   5.463  10.368 -2.5895 -0.6178  0.6637
    9MOL0     H 1191  13.737   5.333  10.251 -2.0008  0.5734  0.6819
    9MOL0     H 1192  13.792   5.499  10.293 -1.8193  1.2739  1.8947
    9MOL0     H 1193  13.862   5.423  10.061  0.3628  0.5731  0.4180
    9MOL0     H 1194  13.693   5.406  10.030 -2.5831 -0.2964  3.1797
    9MOL0     H 1195  12.665   5.520  10.112  0.2588 -0.4059 -0.9177
    9MOL0     H 1196  12.455   5.452  10.007  0.9214  0.3458  1.5736
    9MOL0     H 1197  12.119   4.946   9.941 -2.5099  0.0084 -1.5429
    9MOL0     H 1198  11.972   4.885   9.761  4.5053 -4.8029  0.9832
    9MOL0     H 1199  10.199   6.134  10.026  0.8686  0.7542 -0.0309
    9MOL0     H 1200   9.971   6.116   9.945 -0.3159 -0.1346 -0.3804
    9MOL0     H 1201   9.662   6.052   9.749  0.0331 -4.7820 -1.2820
    9MOL0     H 1202   9.431   5.976   9.680 -2.1133 -1.4145 -2.9394
    9MOL0     H 1203   9.123   5.967   9.495 -0.0137 -1.0279  1.0073
    9MOL0     H 1204   9.219   5.967   9.632  0.3513  0.8403 -0.5541
    9MOL0     H 1205   9.167   5.749   9.557 -0.5912 -0.4476 -1.8410
    9MOL0     H 1206   9.341   5.757   9.548  0.6444 -0.8985 -2.2840
    9MOL0     H 1207   9.362   5.804   9.314 -0.4273  1.7557 -0.4221
    9MOL0     H 1208   9.193   5.806   9.286  1.1042 -3.4118 -4.0105
    9MOL0     H 1209   9.167   5.567   9.364 -0.6279 -1.4881 -1.6203
    9MOL0     H 1210   9.270   5.581   9.217 -0.7555 -2.6807  0.6923
    9MOL0     H 1211   9.550   5.455   9.496 -1.4146 -3.2166 -1.0331
    9MOL0     H 1212   9.458   6.201   9.329 -1.3612 -0.9698  1.3452
    9MOL0     H 1213   9.622   6.335   9.270  0.4037  2.6486  1.3104
    9MOL0     H 1214   9.752   6.371   9.380 -0.8841 -0.1236  2.0257
    9MOL0     H 1215   9.758   6.224   9.276 -1.3739  0.4253 -2.6522
   10MOL0     O 1216  10.336  10.419   6.445  0.1193  0.8050 -0.6105
   10MOL0     C 1217  10.258  10.394   6.539 -0.5132  0.6031  0.0431
   10MOL0     O 1218  10.283  10.302   6.637  0.7116 -0.1661  0.2385
   10MOL0     C 1219  10.406  10.241   6.649  0.4792  0.0435 -0.3917
   10MOL0     C 1220  10.404  10.112   6.703 -0.4944  0.1396  0.1293
   10MOL0     C 1221  10.522  10.042   6.730 -0.0893 -0.1176 -0.3837
   10MOL0     C 1222  10.648  10.104   6.707 -0.2757 -0.5694  0.8780
   10MOL0     O 1223  10.771  10.039   6.723 -1.2023 -0.5158 -0.4424
   10MOL0     C 1224  10.800  10.021   6.859 -0.0231  0.2665 -0.5035
   10MOL0     C 1225  10.939   9.956   6.873 -0.1300  0.5392 -0.0307
   10MOL0     C 1226  10.934   9.890   7.016 -0.5065 -0.6418  0.6467
   10MOL0     C 1227  11.049   9.804   7.048  0.5617  0.1939 -0.6268
   10MOL0     C 1228  11.190   9.872   7.067 -0.1062 -0.1428 -0.5118
   10MOL0     C 1229  11.293   9.757   7.107  0.6895 -0.6070  0.8503
   10MOL0     C 1230  11.436   9.821   7.121  0.6487 -0.8654 -0.1465
   10MOL0     C 1231  11.539   9.728   7.182  0.0147  0.0989 -0.3444
   10MOL0     N 1232  11.671   9.786   7.163 -0.6647 -0.4568 -0.3722
   10MOL0     C 1233  11.701   9.906   7.223 -0.2650  0.1212 -0.3087
   10MOL0     C 1234  11.817   9.947   7.170 -0.7706 -0.3914  0.6736
   10MOL0     C 1235  11.896  10.073   7.187 -0.2933 -0.3848 -0.3197
   10MOL0     C 1236  12.039  10.040   7.200  0.4688 -0.0268 -0.3984
   10MOL0     C 1237  12.134  10.146   7.264  0.8651  0.7450  0.6245
   10MOL0     C 1238  12.276  10.089   7.300 -0.7718  0.2776  0.0707
   10MOL0     O 1239  12.355  10.114   7.181  0.3909  0.1359 -0.4325
   10MOL0     C 1240  12.494  10.139   7.200 -0.3264 -0.1163 -0.0618
   10MOL0     C 1241  12.561  10.183   7.323 -0.2522  0.4371 -1.0531
   10MOL0     C 1242  12.698  10.209   7.319 -0.5118 -0.4223  0.0790
   10MOL0     C 1243  12.771  10.202   7.196 -0.5378 -0.3366 -0.0838
   10MOL0     C 1244  12.921  10.220   7.196  0.1647  0.1017  0.4157
   10MOL0     O 1245  12.984  10.177   7.305 -0.8880 -0.4873 -0.0128
   10MOL0     C 1246  13.119  10.201   7.306  0.3606 -0.0148 -0.1345
   10MOL0     C 1247  13.199  10.094   7.304  0.1599  0.0379  0.0537
   10MOL0     C 1248  13.336  10.112   7.309 -0.5061  0.3016  0.8698
   10MOL0     C 1249  13.399  10.239   7.327  0.2021  0.0441 -0.5378
   10MOL0     O 1250  13.538  10.244   7.340 -0.2913 -0.6666 -0.3831
   10MOL0     C 1251  13.608  10.373   7.301  0.3516  0.0427 -0.0551
   10MOL0     C 1252  13.574  10.398   7.151 -0.8456 -0.3368  0.9770
   10MOL0     C 1253  13.655  10.520   7.110  0.0543  0.1271  0.2919
   10MOL0     C 1254  13.654  10.543   6.958  0.2997  1.1428 -1.2236
   10MOL0     C 1255  13.759  10.647   6.906  0.8207 -0.5352  0.1050
   10MOL0     C 1256  13.905  10.606   6.921 -0.1622  0.0565  0.5164
   10MOL0     C 1257  14.004  10.705   6.865  0.4336  0.3907  0.2344
   10MOL0     C 1258  14.098  10.636   6.773 -0.3947 -0.5727 -1.1727
   10MOL0    Cl 1259  14.216  10.756   6.738 -0.4389  0.4454 -0.2487
   10MOL0     C 1260  13.314  10.349   7.342 -0.4076 -0.7983  0.2385
   10MOL0     C 1261  13.177  10.325   7.321 -0.2081 -0.5997 -0.3049
   10MOL0     O 1262  12.965  10.265   7.088 -0.3873 -0.2411 -0.0578
   10MOL0     C 1263  12.701  10.159   7.084 -0.4379 -0.5832  0.8598
   10MOL0     C 1264  12.567  10.126   7.086  0.1522 -0.2417  0.5193
   10MOL0     N 1265  11.857   9.852   7.070  0.2691  0.0730 -0.6373
   10MOL0     N 1266  11.767   9.759   7.075 -0.1181 -0.3728  0.3132
   10MOL0     C 1267  10.648  10.233   6.656  0.3734  0.1320  0.4626
   10MOL0     C 1268  10.530  10.303   6.637 -0.2644  0.3885  0.8035
   10MOL0     C 1269  10.118  10.445   6.528 -0.3259  0.0523  0.1214
   10MOL0     C 1270  10.060  10.470   6.399  0.3352  0.1044 -0.5760
   10MOL0     C 1271   9.925  10.497   6.388  1.4422 -1.5914 -0.7538
   10MOL0     C 1272   9.837  10.494   6.499 -0.4587  0.1751 -0.8812
   10MOL0     O 1273   9.704  10.506   6.470 -0.8716 -0.3320 -0.5825
   10MOL0     C 1274   9.616  10.584   6.567 -0.0291 -0.3756 -0.7813
   10MOL0     C 1275   9.613  10.731   6.513  0.2405  1.2991  0.6434
   10MOL0     C 1276   9.511  10.817   6.596  0.3181 -0.5391 -0.4856
   10MOL0     C 1277   9.364  10.763   6.596 -0.1519 -0.0684  0.1997
   10MOL0     C 1278   9.269  10.868   6.640 -0.3584  0.9316  0.9854
   10MOL0     C 1279   9.188  10.947   6.666 -0.1549 -0.1375  0.1193
   10MOL0     C 1280   9.893  10.482   6.627  0.1729  0.2092 -0.8836
   10MOL0     C 1281  10.032  10.453   6.641  0.2437  0.1449  0.9223
   10MOL0     C 1282  10.077  10.428   6.782 -0.0688 -0.3060  0.3383
   10MOL0     H 1283  10.309  10.064   6.724  1.0793 -4.1257 -1.5275
   10MOL0     H 1284  10.517   9.942   6.772 -1.3423  0.8244  1.9035
   10MOL0     H 1285  10.795  10.119   6.908  0.1773 -0.2492  0.5690
   10MOL0     H 1286  10.728   9.950   6.899 -0.5890 -0.6121 -2.8725
   10MOL0     H 1287  11.026  10.021   6.858  2.0268 -1.3726  2.9454
   10MOL0     H 1288  10.953   9.880   6.795 -2.8545  1.8259 -1.9222
   10MOL0     H 1289  10.842   9.835   7.037 -0.3374 -1.2766 -0.2512
   10MOL0     H 1290  10.946   9.978   7.080  1.4304  0.1745 -0.7413
   10MOL0     H 1291  11.017   9.756   7.140  0.3199 -3.0382 -2.2368
   10MOL0     H 1292  11.050   9.726   6.970 -0.6811  0.0060 -0.4831
   10MOL0     H 1293  11.235   9.903   6.972  1.7877 -2.6895 -0.5671
   10MOL0     H 1294  11.188   9.950   7.143  0.7229  0.4890 -1.1134
   10MOL0     H 1295  11.258   9.710   7.199  0.6821 -0.0558  1.1361
   10MOL0     H 1296  11.299   9.682   7.028  2.7827  2.3444 -2.0547
   10MOL0     H 1297  11.423   9.910   7.184  1.8038  0.3307 -1.5113
   10MOL0     H 1298  11.468   9.865   7.026  0.3583 -1.1234 -0.3652
   10MOL0     H 1299  11.520   9.700   7.286  4.4477  0.2695  0.7109
   10MOL0     H 1300  11.546   9.632   7.130  1.0073  1.1175 -2.1930
   10MOL0     H 1301  11.650   9.966   7.298 -0.4447 -0.5429  0.1051
   10MOL0     H 1302  11.868  10.140   7.105 -0.9734  1.0566  1.0272
   10MOL0     H 1303  11.864  10.130   7.275  1.9985  0.3084  0.1354
   10MOL0     H 1304  12.038   9.947   7.257 -2.6293  0.2401  0.1415
   10MOL0     H 1305  12.072  10.013   7.099  0.8983 -1.5638  0.1333
   10MOL0     H 1306  12.084  10.182   7.354 -0.3288  2.2787 -0.6061
   10MOL0     H 1307  12.146  10.233   7.199  1.2366  1.7398  1.9779
   10MOL0     H 1308  12.271   9.982   7.321  0.4606  0.7852  3.6306
   10MOL0     H 1309  12.297  10.144   7.392 -0.9882  1.2851 -0.4633
   10MOL0     H 1310  12.506  10.186   7.417  0.7637  1.8494 -0.4660
   10MOL0     H 1311  12.748  10.246   7.408  0.5491  2.0662 -1.4457
   10MOL0     H 1312  13.165   9.991   7.294  0.4121  0.0278 -0.7186
   10MOL0     H 1313  13.410  10.034   7.322 -0.8428  0.2467  2.7245
   10MOL0     H 1314  13.575  10.452   7.370  2.4454 -0.1207  1.2107
   10MOL0     H 1315  13.715  10.367   7.325  0.4382 -1.8365 -0.7706
   10MOL0     H 1316  13.603  10.318   7.083 -0.2009  2.1176 -1.8133
   10MOL0     H 1317  13.467  10.420   7.139 -0.5143  1.2227  0.5758
   10MOL0     H 1318  13.622  10.614   7.156 -1.0212 -1.5262  3.1513
   10MOL0     H 1319  13.760  10.497   7.128 -0.2159 -1.5445 -0.0799
   10MOL0     H 1320  13.555  10.573   6.920  0.8389  0.7768 -2.9704
   10MOL0     H 1321  13.684  10.448   6.915 -0.1835  0.5150 -0.2100
   10MOL0     H 1322  13.741  10.744   6.954  1.2628 -0.0718 -0.6452
   10MOL0     H 1323  13.741  10.678   6.803 -0.1964 -2.0886 -0.1980
   10MOL0     H 1324  13.917  10.585   7.028 -0.7056 -0.4895  0.4795
   10MOL0     H 1325  13.925  10.510   6.873  1.5468  0.6840 -0.0851
   10MOL0     H 1326  14.049  10.741   6.959  0.1185  2.2449 -0.2884
   10MOL0     H 1327  13.970  10.801   6.826  2.4907  0.3814 -1.7644
   10MOL0     H 1328  14.142  10.549   6.823  0.6760  1.0135  0.8098
   10MOL0     H 1329  14.060  10.602   6.676  0.9579 -0.5544 -1.7285
   10MOL0     H 1330  13.346  10.448   7.373 -2.2186  0.3936 -1.4537
   10MOL0     H 1331  13.108  10.408   7.330  0.9774  0.3099  0.7052
   10MOL0     H 1332  12.752  10.138   6.990 -2.2346 -0.3278 -0.2277
   10MOL0     H 1333  12.527  10.095   6.990 -1.6096  0.6464  0.9216
   10MOL0     H 1334  10.742  10.286   6.642  1.2708 -0.5061  3.4403
   10MOL0     H 1335  10.524  10.400   6.587 -2.4713 -0.6068 -1.0317
   10MOL0     H 1336  10.107  10.470   6.301  0.5068  0.1473 -0.4934
   10MOL0     H 1337   9.883  10.507   6.288 -0.6207 -1.6707  0.0618
   10MOL0     H 1338   9.656  10.587   6.669 -1.2077 -1.9779 -0.2433
   10MOL0     H 1339   9.520  10.533   6.571  0.7012 -1.7320  0.7795
   10MOL0     H 1340   9.582  10.736   6.408  1.1908  1.5746  0.3732
   10MOL0     H 1341   9.707  10.782   6.535  0.4856  0.9776  0.3351
   10MOL0     H 1342   9.519  10.917   6.553 -0.5383  0.4982  1.5946
   10MOL0     H 1343   9.538  10.824   6.702  0.0922  1.4279 -0.5301
   10MOL0     H 1344   9.350  10.739   6.491 -0.6482  0.3152  0.1747
   10MOL0     H 1345   9.354  10.680   6.668  2.4518  0.3689  1.1658
   10MOL0     H 1346   9.125  11.025   6.703 -0.0547 -0.2119  0.4553
   10MOL0     H 1347   9.838  10.485   6.720  1.8173 -0.1596  0.1470
   10MOL0     H 1348  10.083  10.320   6.799  0.1026 -0.2862  0.4044
   10MOL0     H 1349  10.178  10.466   6.799  0.0779  0.7941 -2.4207
   10MOL0     H 1350  10.021  10.492   6.851  1.2430 -0.1287  1.2888
   11MOL0     O 1351  10.486  10.271   1.717 -0.1764 -0.9090 -0.3574
   11MOL0     C 1352  10.478  10.385   1.666  1.0159 -0.6434 -0.5822
   11MOL0     O 1353  10.582  10.471   1.636 -0.0892  1.3313 -0.7586
   11MOL0     C 1354  10.703  10.432   1.679  1.1022  0.8611 -0.7096
   11MOL0     C 1355  10.734  10.441   1.819  0.4817  0.7123  0.4730
   11MOL0     C 1356  10.866  10.408   1.859 -0.5390  0.2306 -0.3814
   11MOL0     C 1357  10.961  10.361   1.770  0.2270 -0.9289 -0.1884
   11MOL0     O 1358  11.087  10.334   1.818 -0.3247  0.1070  0.2588
   11MOL0     C 1359  11.159  10.452   1.866  0.6109  0.0394  0.7069
   11MOL0     C 1360  11.310  10.438   1.861 -0.5206 -0.0948 -0.0650
   11MOL0     C 1361  11.381  10.565   1.896 -0.7168 -0.0086 -0.6016
   11MOL0     C 1362  11.538  10.554   1.866  0.7698  0.1898 -0.1419
   11MOL0     C 1363  11.614  10.682   1.902 -0.2980 -0.4252  0.2139
   11MOL0     C 1364  11.763  10.672   1.849  0.1130  0.1417  1.1452
   11MOL0     C 1365  11.776  10.681   1.692 -0.8419 -0.3799 -0.3726
   11MOL0     C 1366  11.918  10.721   1.655  0.3772 -0.0214  0.0305
   11MOL0     N 1367  11.951  10.705   1.513 -0.0536  0.1361 -0.0127
   11MOL0     C 1368  12.066  10.650   1.469  0.2093  0.1507  0.6735
   11MOL0     C 1369  12.053  10.651   1.331  1.3399 -0.2631  0.5320
   11MOL0     C 1370  12.155  10.611   1.227 -0.4094 -0.2048 -0.0528
   11MOL0     C 1371  12.288  10.683   1.241  0.3693  0.3723 -0.4157
   11MOL0     C 1372  12.414  10.600   1.209 -0.7349  0.6911 -0.3032
   11MOL0     C 1373  12.543  10.650   1.258  0.1365 -0.3207  0.4340
   11MOL0     O 1374  12.572  10.769   1.178  0.4165 -0.2187 -0.7332
   11MOL0     C 1375  12.703  10.801   1.191 -0.5181 -0.4715 -1.4303
   11MOL0     C 1376  12.743  10.871   1.310  0.1975  0.5297  0.0623
   11MOL0     C 1377  12.872  10.917   1.322  0.1378 -0.4897 -0.2431
   11MOL0     C 1378  12.970  10.880   1.228  0.1061  0.0355 -0.4448
   11MOL0     C 1379  13.116  10.908   1.253  0.3216  0.1166  0.2729
   11MOL0     O 1380  13.154  10.954   1.378  0.3967  0.1275 -0.1991
   11MOL0     C 1381  13.289  10.986   1.386 -0.4297  0.4217  0.4181
   11MOL0     C 1382  13.355  11.101   1.331 -0.6164 -0.2755  0.6332
   11MOL0     C 1383  13.495  11.119   1.348  0.6527 -0.1661  0.3902
   11MOL0     C 1384  13.579  11.036   1.421  0.4864 -0.6650  0.6871
   11MOL0     O 1385  13.717  11.052   1.418  0.4783 -0.0177 -0.2210
   11MOL0     C 1386  13.799  10.955   1.472 -0.2194 -1.5704 -0.3808
   11MOL0     C 1387  13.943  11.006   1.497  0.2876  0.4597 -0.6074
   11MOL0     C 1388  13.987  11.053   1.360 -0.1272 -0.6807  0.7326
   11MOL0     C 1389  14.133  11.090   1.370  0.0670 -0.6455 -0.2226
   11MOL0     C 1390  14.180  11.157   1.239 -0.8922  0.3168  0.9243
   11MOL0     C 1391  14.325  11.204   1.245 -0.3630  0.7105 -0.6400
   11MOL0     C 1392  14.362  11.289   1.123 -0.1437  0.1794 -0.5125
   11MOL0     C 1393  14.499  11.355   1.128 -0.0939 -0.5656  0.1033
   11MOL0    Cl 1394  14.636  11.248   1.134 -0.2946  0.3602 -0.0420
   11MOL0     C 1395  13.513  10.927   1.484  0.0051  0.4772  0.0171
   11MOL0     C 1396  13.373  10.903   1.465  0.2283 -0.3115 -0.4754
   11MOL0     O 1397  13.194  10.890   1.155 -0.1822 -0.4572 -0.1875
   11MOL0     C 1398  12.931  10.809   1.114 -0.1170 -0.6344  0.9115
   11MOL0     C 1399  12.798  10.765   1.099 -0.0119  0.0025  0.2784
   11MOL0     N 1400  11.934  10.712   1.297 -1.0916 -0.5956  0.9626
   11MOL0     N 1401  11.872  10.746   1.411  0.5921 -0.0307  0.1272
   11MOL0     C 1402  10.929  10.346   1.631  0.2447 -0.0347  0.0058
   11MOL0     C 1403  10.797  10.385   1.587  0.8598 -0.1959 -0.8010
   11MOL0     C 1404  10.347  10.430   1.615  0.1256 -0.0907 -0.3555
   11MOL0     C 1405  10.229  10.376   1.685 -0.1009 -0.3363 -0.0575
   11MOL0     C 1406  10.099  10.428   1.633 -0.3989  1.1124  0.0489
   11MOL0     C 1407  10.081  10.512   1.531 -0.0777 -0.3733  0.5977
   11MOL0     O 1408   9.951  10.546   1.498 -0.7884 -0.1896 -0.5584
   11MOL0     C 1409   9.931  10.569   1.353  0.1962 -0.1598 -0.8504
   11MOL0     C 1410   9.781  10.549   1.319  1.2043  0.0175  0.1692
   11MOL0     C 1411   9.738  10.403   1.316 -1.1220  0.1224  0.3918
   11MOL0     C 1412   9.586  10.406   1.295  0.0384 -0.0712  0.2374
   11MOL0     C 1413   9.550  10.266   1.273 -0.5348 -0.2799  0.3544
   11MOL0     C 1414   9.520  10.145   1.249  0.4639 -0.6296  1.3262
   11MOL0     C 1415  10.196  10.551   1.466 -1.2195  1.1185  0.7734
   11MOL0     C 1416  10.326  10.518   1.508 -0.2573 -0.0759  1.1530
   11MOL0     C 1417  10.431  10.573   1.413 -0.5010  0.2312  0.3980
   11MOL0     H 1418  10.667  10.477   1.896 -4.8469 -0.4812 -3.1042
   11MOL0     H 1419  10.886  10.422   1.965 -1.2396  1.4010 -0.3935
   11MOL0     H 1420  11.128  10.534   1.800 -0.6366 -1.5774 -0.8172
   11MOL0     H 1421  11.139  10.479   1.970  0.8788 -3.2351  1.7295
   11MOL0     H 1422  11.337  10.412   1.758  1.2290 -0.2688  0.4015
   11MOL0     H 1423  11.343  10.358   1.929 -2.4136 -0.5447  0.3608
   11MOL0     H 1424  11.379  10.571   2.005  1.2211  0.5780 -0.5616
   11MOL0     H 1425  11.340  10.652   1.844 -1.5739 -1.0197 -1.6705
   11MOL0     H 1426  11.588  10.473   1.920  2.7757  1.7120  0.4295
   11MOL0     H 1427  11.541  10.543   1.757 -1.4595  2.7989 -0.5821
   11MOL0     H 1428  11.579  10.778   1.863  0.8465 -0.1711 -0.2339
   11MOL0     H 1429  11.604  10.694   2.010 -0.9196 -1.6005  0.3039
   11MOL0     H 1430  11.824  10.751   1.894  1.9219  1.1180 -2.6250
   11MOL0     H 1431  11.805  10.577   1.885  1.0598 -1.0545 -2.6058
   11MOL0     H 1432  11.700  10.753   1.660  0.1896  0.5232 -0.8326
   11MOL0     H 1433  11.751  10.583   1.650  2.7776 -1.1848 -1.0020
   11MOL0     H 1434  11.933  10.829   1.668 -3.3842  0.6438 -0.1775
   11MOL0     H 1435  11.978  10.659   1.722 -1.7504 -1.4484  0.6872
   11MOL0     H 1436  12.150  10.603   1.520  1.9601 -0.8923 -2.8644
   11MOL0     H 1437  12.162  10.502   1.238 -0.8347 -0.5520 -2.7062
   11MOL0     H 1438  12.115  10.620   1.126  0.1209 -0.2083 -0.2643
   11MOL0     H 1439  12.294  10.761   1.164  2.7210 -0.0229 -0.7088
   11MOL0     H 1440  12.290  10.728   1.341 -2.8373  0.3547 -0.2160
   11MOL0     H 1441  12.424  10.580   1.102 -1.5905  0.1590 -0.2926
   11MOL0     H 1442  12.398  10.500   1.251 -2.0398 -0.2023 -2.7021
   11MOL0     H 1443  12.623  10.577   1.251  0.4656 -0.0106  0.8690
   11MOL0     H 1444  12.533  10.680   1.363  2.9254  2.5974  0.0311
   11MOL0     H 1445  12.658  10.902   1.371 -0.7589  0.5774 -1.2545
   11MOL0     H 1446  12.898  10.975   1.409 -3.2774  1.6274 -0.4926
   11MOL0     H 1447  13.307  11.184   1.280  0.9740  0.6314  0.5415
   11MOL0     H 1448  13.528  11.213   1.306  0.8749  0.2338  1.4290
   11MOL0     H 1449  13.771  10.926   1.574  1.3958 -2.7620 -0.2339
   11MOL0     H 1450  13.801  10.866   1.409  0.0298 -1.3350 -0.7133
   11MOL0     H 1451  13.955  11.094   1.561  0.2067 -1.5140  2.2514
   11MOL0     H 1452  13.990  10.926   1.554 -0.7546 -0.7669 -1.4223
   11MOL0     H 1453  13.979  10.971   1.288  1.1802  0.1853 -0.4512
   11MOL0     H 1454  13.929  11.137   1.320  2.6477  1.1247  0.2226
   11MOL0     H 1455  14.196  11.003   1.393  0.5758 -0.2710 -0.1947
   11MOL0     H 1456  14.140  11.165   1.449 -1.0620 -1.5608  0.7925
   11MOL0     H 1457  14.115  11.242   1.218  1.6120  2.3382  0.8781
   11MOL0     H 1458  14.171  11.085   1.157 -2.0923  1.1707  0.2935
   11MOL0     H 1459  14.329  11.256   1.342 -3.3079 -0.6261  0.3237
   11MOL0     H 1460  14.394  11.119   1.247 -1.9590 -0.6346  0.9333
   11MOL0     H 1461  14.283  11.363   1.106  0.9855  1.8206  1.0371
   11MOL0     H 1462  14.353  11.219   1.040 -3.0277  1.2496 -1.2207
   11MOL0     H 1463  14.509  11.437   1.056 -1.8689  2.6404  3.1725
   11MOL0     H 1464  14.514  11.407   1.223  0.5907  0.0019 -0.3061
   11MOL0     H 1465  13.576  10.865   1.547 -0.4914  1.2351  1.3038
   11MOL0     H 1466  13.336  10.822   1.527 -2.4907  0.5134 -0.8870
   11MOL0     H 1467  13.006  10.772   1.045 -2.1155 -2.5004 -0.4208
   11MOL0     H 1468  12.774  10.705   1.012 -1.5609 -3.3542  2.7836
   11MOL0     H 1469  10.998  10.315   1.553 -0.8528 -2.9421  0.0678
   11MOL0     H 1470  10.771  10.388   1.482  1.2848  0.1875 -0.8943
   11MOL0     H 1471  10.247  10.311   1.770  2.4199 -0.7442 -0.8164
   11MOL0     H 1472  10.015  10.394   1.693 -1.4567  2.1011 -0.8333
   11MOL0     H 1473   9.990  10.492   1.302  3.7675  0.9809  1.1930
   11MOL0     H 1474   9.972  10.666   1.325  0.0721  0.9315  2.4178
   11MOL0     H 1475   9.758  10.607   1.229  0.2840  1.8799  1.5254
   11MOL0     H 1476   9.728  10.601   1.400 -2.0749 -2.6067 -0.0965
   11MOL0     H 1477   9.759  10.358   1.413 -0.0032 -2.5090 -0.9722
   11MOL0     H 1478   9.801  10.334   1.260  1.8987  1.8897  1.4107
   11MOL0     H 1479   9.541  10.446   1.386  1.6268  1.5161  0.3789
   11MOL0     H 1480   9.555  10.457   1.204 -1.9921 -3.8543 -1.4310
   11MOL0     H 1481   9.489  10.043   1.238  1.0201 -0.6688 -0.1263
   11MOL0     H 1482  10.189  10.629   1.391 -2.3944 -0.0572 -0.3998
   11MOL0     H 1483  10.486  10.651   1.466 -0.7444 -0.0766  1.1319
   11MOL0     H 1484  10.493  10.484   1.393 -0.8405 -0.0224  0.4583
   11MOL0     H 1485  10.395  10.606   1.316 -0.5129 -0.8198  0.0312
   12MOL0     O 1486   1.455   8.903   4.147 -0.2200  0.4494 -0.4155
   12MOL0     C 1487   1.488   8.835   4.056 -0.5789  0.8745  0.5632
   12MOL0     O 1488   1.610   8.844   3.985 -0.0576  0.0561 -0.0700
   12MOL0     C 1489   1.705   8.933   4.019  0.0734  0.4079  0.4987
   12MOL0     C 1490   1.834   8.907   3.971  0.3081  0.3883 -0.2650
   12MOL0     C 1491   1.942   8.991   3.992  0.1630 -0.3932  0.2288
   12MOL0     C 1492   1.918   9.117   4.049  0.2597  0.3011 -0.0223
   12MOL0     O 1493   2.009   9.213   4.077  0.6622  0.2630  0.2918
   12MOL0     C 1494   2.135   9.204   4.022 -0.5798  0.0416  0.1068
   12MOL0     C 1495   2.230   9.311   4.076 -0.3797  0.0733  0.5922
   12MOL0     C 1496   2.369   9.295   4.009 -0.0701 -0.3811  0.3496
   12MOL0     C 1497   2.453   9.412   4.060  0.2059  0.0169  0.1528
   12MOL0     C 1498   2.583   9.435   3.992 -0.1430  0.1045 -0.2278
   12MOL0     C 1499   2.677   9.516   4.077  0.3140 -1.0530  0.4134
   12MOL0     C 1500   2.811   9.526   4.015 -0.0240  0.0440  0.2521
   12MOL0     C 1501   2.873   9.659   4.072 -0.8408 -0.0480  0.1526
   12MOL0     N 1502   3.021   9.644   4.082  0.1405 -0.0913  0.5734
   12MOL0     C 1503   3.102   9.741   4.137 -1.4893 -0.5796  1.0545
   12MOL0     C 1504   3.229   9.716   4.093 -0.1665  0.7949 -0.1176
   12MOL0     C 1505   3.361   9.791   4.114  0.1299  0.1331 -0.3871
   12MOL0     C 1506   3.458   9.790   3.998 -0.1303  0.0681  0.6404
   12MOL0     C 1507   3.577   9.887   4.026  0.3909 -0.0715 -0.0121
   12MOL0     C 1508   3.683   9.882   3.915 -0.3635 -0.0504  0.7139
   12MOL0     O 1509   3.729   9.745   3.894  0.6272  0.5203  0.7241
   12MOL0     C 1510   3.851   9.735   3.831  0.2089  0.4680  0.8726
   12MOL0     C 1511   3.941   9.648   3.890 -0.5117  0.6214  0.1947
   12MOL0     C 1512   4.070   9.628   3.833  0.1346  0.0857  0.1420
   12MOL0     C 1513   4.108   9.709   3.722 -0.6942 -0.8953  0.0007
   12MOL0     C 1514   4.254   9.712   3.680 -0.3413 -0.6094 -0.3377
   12MOL0     O 1515   4.332   9.637   3.761 -0.0666  0.1659  0.2523
   12MOL0     C 1516   4.464   9.631   3.717 -0.0729 -0.4365 -0.1183
   12MOL0     C 1517   4.506   9.522   3.643 -0.4299  0.1520 -0.1308
   12MOL0     C 1518   4.639   9.513   3.597  0.5873  0.2542 -0.3303
   12MOL0     C 1519   4.732   9.610   3.641 -0.4192 -0.0012  0.9255
   12MOL0     O 1520   4.870   9.611   3.618 -0.5311 -0.0769 -0.5327
   12MOL0     C 1521   4.922   9.577   3.484  0.0463  0.4778 -0.3126
   12MOL0     C 1522   5.068   9.592   3.478  0.0332 -0.6185  0.2670
   12MOL0     C 1523   5.106   9.743   3.489 -0.8314  0.5923  0.1059
   12MOL0     C 1524   5.248   9.756   3.426  0.7182  0.2469 -0.4658
   12MOL0     C 1525   5.288   9.902   3.410 -0.8984  1.0113 -0.8394
   12MOL0     C 1526   5.436   9.935   3.362 -0.6328 -0.7934 -0.4743
   12MOL0     C 1527   5.426  10.092   3.345 -0.8430  1.0665  0.1784
   12MOL0     C 1528   5.561  10.145   3.293  0.4403  0.6246 -0.0438
   12MOL0    Cl 1529   5.614  10.061   3.141 -0.2171 -0.0901  0.4337
   12MOL0     C 1530   4.693   9.716   3.719  0.2430  0.2558  0.3265
   12MOL0     C 1531   4.557   9.726   3.760  0.0858  0.0414  0.8656
   12MOL0     O 1532   4.285   9.775   3.578  0.9230 -0.5495  0.0919
   12MOL0     C 1533   4.022   9.808   3.672 -0.4579 -0.0017 -0.1767
   12MOL0     C 1534   3.892   9.800   3.719  0.1120 -0.8169 -0.1242
   12MOL0     N 1535   3.222   9.594   4.025  0.5920 -0.2756 -0.7492
   12MOL0     N 1536   3.101   9.558   4.015 -0.7022 -0.1473  0.2643
   12MOL0     C 1537   1.789   9.139   4.103  0.3301  0.0073  0.5692
   12MOL0     C 1538   1.685   9.050   4.084  0.6305 -0.0587 -0.1085
   12MOL0     C 1539   1.398   8.737   3.996 -0.3496  0.6639  1.5137
   12MOL0     C 1540   1.447   8.616   3.935  0.2055  0.0924  1.4125
   12MOL0     C 1541   1.364   8.523   3.888 -0.9415 -0.1216  0.4590
   12MOL0     C 1542   1.227   8.542   3.904  0.5357  0.0346 -0.5123
   12MOL0     O 1543   1.158   8.440   3.853 -0.2893 -0.2084 -0.3347
   12MOL0     C 1544   1.024   8.411   3.903 -0.4192  0.6125  0.4091
   12MOL0     C 1545   0.938   8.382   3.768 -0.5389  0.0687  0.0272
   12MOL0     C 1546   0.912   8.512   3.700  0.7964 -0.0383 -0.2175
   12MOL0     C 1547   0.824   8.491   3.580 -0.2531 -0.1648  0.1780
   12MOL0     C 1548   0.684   8.494   3.609  0.2510  0.4658  0.4866
   12MOL0     C 1549   0.569   8.483   3.638  0.2334  0.0601  0.0747
   12MOL0     C 1550   1.168   8.663   3.946  0.1116  0.0722  0.0075
   12MOL0     C 1551   1.256   8.764   3.995  0.5810  0.5535  0.5768
   12MOL0     C 1552   1.188   8.901   4.024  0.0321  0.0372 -0.5836
   12MOL0     H 1553   1.854   8.810   3.929  0.3279  0.2293  0.1138
   12MOL0     H 1554   2.043   8.969   3.957 -0.2641 -1.9037 -0.1413
   12MOL0     H 1555   2.173   9.102   4.030 -1.7301 -0.6229 -1.9056
   12MOL0     H 1556   2.130   9.227   3.915  0.6227  0.3721  0.1056
   12MOL0     H 1557   2.244   9.289   4.182  1.0608  1.0476  0.6137
   12MOL0     H 1558   2.192   9.413   4.064 -1.0716 -0.1354  0.9202
   12MOL0     H 1559   2.363   9.307   3.901 -0.7160  3.8654  0.6781
   12MOL0     H 1560   2.420   9.201   4.031  4.3058  1.0534 -2.3771
   12MOL0     H 1561   2.387   9.498   4.046  0.0790 -0.4285 -2.5281
   12MOL0     H 1562   2.470   9.402   4.168 -0.0164  4.8701  0.8577
   12MOL0     H 1563   2.634   9.341   3.966  0.6056 -0.6715  3.5504
   12MOL0     H 1564   2.571   9.487   3.896 -2.5242 -1.8624 -1.1273
   12MOL0     H 1565   2.638   9.618   4.083 -0.5793 -1.4010  0.6060
   12MOL0     H 1566   2.678   9.477   4.180 -1.6372  2.3520  1.8903
   12MOL0     H 1567   2.805   9.539   3.907 -0.2996 -1.0350  0.1202
   12MOL0     H 1568   2.877   9.442   4.039 -2.1548 -2.2709 -1.4849
   12MOL0     H 1569   2.843   9.731   3.995 -4.7448  0.1192  1.6021
   12MOL0     H 1570   2.837   9.686   4.172 -1.2881 -0.7005  0.1729
   12MOL0     H 1571   3.081   9.828   4.199  3.5569  1.2265  0.6733
   12MOL0     H 1572   3.346   9.897   4.138  2.6035  0.6985 -1.0629
   12MOL0     H 1573   3.412   9.735   4.192  0.3114 -1.1674 -1.4203
   12MOL0     H 1574   3.508   9.694   3.981  0.4939  0.7870 -1.9660
   12MOL0     H 1575   3.411   9.825   3.906  3.8258  1.5559 -1.0173
   12MOL0     H 1576   3.627   9.851   4.117 -0.0654  1.3576  0.8463
   12MOL0     H 1577   3.539   9.988   4.044  1.5601  0.5500 -0.9618
   12MOL0     H 1578   3.765   9.952   3.934  1.4293 -2.3743  2.0213
   12MOL0     H 1579   3.631   9.922   3.826  1.7387 -3.3596 -2.2794
   12MOL0     H 1580   3.911   9.595   3.980 -3.9012 -1.5357 -1.9507
   12MOL0     H 1581   4.142   9.562   3.880  1.6725  1.4806 -0.1828
   12MOL0     H 1582   4.442   9.435   3.632 -0.9867  0.4200  0.8716
   12MOL0     H 1583   4.686   9.460   3.515 -0.8021  1.7455 -2.1812
   12MOL0     H 1584   4.900   9.472   3.461  0.6303  0.5345 -1.1576
   12MOL0     H 1585   4.874   9.646   3.414 -0.2060  1.3830  0.7198
   12MOL0     H 1586   5.118   9.526   3.549  4.7230  0.3692 -1.7218
   12MOL0     H 1587   5.092   9.550   3.380  1.8983  0.9795 -0.0016
   12MOL0     H 1588   5.034   9.814   3.448 -1.6527  1.2447  2.4891
   12MOL0     H 1589   5.121   9.769   3.594 -1.0477  2.3739 -0.2620
   12MOL0     H 1590   5.234   9.716   3.326  0.3577 -1.2366  0.1553
   12MOL0     H 1591   5.322   9.698   3.483  2.1054  1.4224 -1.0164
   12MOL0     H 1592   5.267   9.954   3.505 -1.2789  1.1258 -0.9824
   12MOL0     H 1593   5.221   9.947   3.336  0.1666  0.0256 -2.4628
   12MOL0     H 1594   5.511   9.913   3.438 -0.0805  0.5844 -0.5838
   12MOL0     H 1595   5.451   9.878   3.270 -2.4856 -1.3105 -0.5041
   12MOL0     H 1596   5.392  10.142   3.436 -0.0508 -1.1250  1.7876
   12MOL0     H 1597   5.346  10.106   3.272 -1.9351 -1.9114  0.6598
   12MOL0     H 1598   5.558  10.252   3.273  2.0902  0.4393 -1.4756
   12MOL0     H 1599   5.638  10.135   3.370 -1.5126  0.8219  2.0696
   12MOL0     H 1600   4.767   9.778   3.768 -0.1524  2.0089 -1.1836
   12MOL0     H 1601   4.520   9.810   3.817 -4.1430 -0.2937 -0.9965
   12MOL0     H 1602   4.050   9.881   3.596 -1.5931  3.3590  2.3749
   12MOL0     H 1603   3.823   9.868   3.670  0.3216  0.0945  0.8065
   12MOL0     H 1604   1.778   9.230   4.162  0.6328  1.1672 -1.1032
   12MOL0     H 1605   1.586   9.070   4.125  0.7441 -0.7122  0.4933
   12MOL0     H 1606   1.555   8.603   3.936  0.5346  2.3957  0.7897
   12MOL0     H 1607   1.400   8.424   3.862 -2.2479 -0.6084  0.4191
   12MOL0     H 1608   0.976   8.489   3.963  0.2686  2.3303 -1.1556
   12MOL0     H 1609   1.032   8.322   3.966  0.1556  0.5471  0.2544
   12MOL0     H 1610   0.841   8.344   3.799  0.1398 -3.0663 -1.3437
   12MOL0     H 1611   0.985   8.313   3.697  1.6305  1.2405  0.2338
   12MOL0     H 1612   1.013   8.539   3.668  1.1075 -5.3227 -5.4953
   12MOL0     H 1613   0.861   8.585   3.764  0.2876  2.0719 -2.8824
   12MOL0     H 1614   0.832   8.580   3.518 -1.0939 -0.7703 -0.8316
   12MOL0     H 1615   0.849   8.400   3.524  2.1635  1.0625 -0.8974
   12MOL0     H 1616   0.466   8.471   3.666 -0.2103 -0.5740 -1.7132
   12MOL0     H 1617   1.064   8.688   3.932  0.8315  2.4466 -1.8767
   12MOL0     H 1618   1.199   8.923   4.130  2.1655 -2.1275 -0.2714
   12MOL0     H 1619   1.242   8.981   3.972 -2.1191  1.1460 -1.2505
   12MOL0     H 1620   1.087   8.906   3.983  0.8127  0.6274 -2.5499
   13MOL0     O 1621   8.275  11.185   2.367 -0.0195  0.2227  0.5129
   13MOL0     C 1622   8.266  11.170   2.243  0.0952  0.1813 -0.0551
   13MOL0     O 1623   8.370  11.139   2.155  0.2490  0.8829 -1.0854
   13MOL0     C 1624   8.499  11.170   2.197 -0.0569  0.4826 -0.0905
   13MOL0     C 1625   8.562  11.273   2.124  0.0171  0.2884  0.2623
   13MOL0     C 1626   8.697  11.308   2.164  0.7208 -0.5740 -0.2795
   13MOL0     C 1627   8.762  11.250   2.281  0.5961 -0.8778 -0.2099
   13MOL0     O 1628   8.888  11.296   2.316  0.6924  0.2452 -0.4043
   13MOL0     C 1629   8.965  11.223   2.412  0.0580  0.0145  0.1549
   13MOL0     C 1630   9.088  11.303   2.443 -0.0031  0.9287  0.8318
   13MOL0     C 1631   9.165  11.266   2.569  1.0186 -0.0034  0.5952
   13MOL0     C 1632   9.291  11.351   2.589  0.0665 -0.1153  0.1696
   13MOL0     C 1633   9.378  11.285   2.697  0.2533  0.2193  0.4020
   13MOL0     C 1634   9.517  11.350   2.699  0.6169 -0.1279  0.1545
   13MOL0     C 1635   9.602  11.304   2.816  0.0965 -0.5172 -0.1061
   13MOL0     C 1636   9.732  11.381   2.826  0.3003 -0.7315 -0.2548
   13MOL0     N 1637   9.840  11.301   2.762 -0.0956  0.7414 -0.4919
   13MOL0     C 1638   9.924  11.216   2.827  0.4737 -0.0693  0.6110
   13MOL0     C 1639  10.022  11.193   2.737 -0.1003 -1.2980 -0.8948
   13MOL0     C 1640  10.139  11.104   2.763  0.6081  0.1250 -0.1761
   13MOL0     C 1641  10.266  11.182   2.810  0.6489 -0.3173 -1.0675
   13MOL0     C 1642  10.367  11.084   2.866 -0.6628  0.1685  0.8365
   13MOL0     C 1643  10.495  11.156   2.911 -0.2143 -0.1365  0.6631
   13MOL0     O 1644  10.582  11.056   2.963 -0.5155  0.2179  0.6082
   13MOL0     C 1645  10.718  11.078   2.969  0.2616  0.4362  0.0831
   13MOL0     C 1646  10.750  11.207   3.006 -0.7110  0.3903 -0.6391
   13MOL0     C 1647  10.882  11.251   3.003 -0.3534 -0.2756 -0.5248
   13MOL0     C 1648  10.985  11.162   2.963  0.5647 -0.3045  0.3722
   13MOL0     C 1649  11.120  11.219   2.959 -0.3003  0.3056 -0.7709
   13MOL0     O 1650  11.213  11.127   2.914 -0.1758 -0.0687  0.5599
   13MOL0     C 1651  11.348  11.151   2.905 -0.1492 -0.1007  0.7046
   13MOL0     C 1652  11.419  11.241   2.985 -0.0265 -1.1435  0.7357
   13MOL0     C 1653  11.560  11.263   2.958 -0.2859 -0.0417 -0.3489
   13MOL0     C 1654  11.629  11.193   2.863  0.3434 -0.7655  0.5203
   13MOL0     O 1655  11.765  11.216   2.853  0.0142 -0.1653 -0.6224
   13MOL0     C 1656  11.841  11.139   2.765  0.5503 -0.8441  0.8508
   13MOL0     C 1657  11.989  11.157   2.799 -0.0339 -0.4092 -0.1042
   13MOL0     C 1658  12.043  11.281   2.723 -0.3512  0.4716 -0.8032
   13MOL0     C 1659  12.193  11.271   2.694  0.0519 -0.2906 -0.0316
   13MOL0     C 1660  12.243  11.361   2.590  0.6640 -0.6523 -0.8164
   13MOL0     C 1661  12.222  11.509   2.631 -0.9777  0.4706 -0.2660
   13MOL0     C 1662  12.294  11.611   2.536 -0.1805 -0.4028  0.4181
   13MOL0     C 1663  12.236  11.590   2.397 -0.1037 -0.8730 -0.3731
   13MOL0    Cl 1664  12.317  11.717   2.302 -0.2882 -0.0925  0.4328
   13MOL0     C 1665  11.549  11.100   2.778 -0.7666 -0.5626  0.2100
   13MOL0     C 1666  11.411  11.077   2.798  0.3215  0.2210 -0.4946
   13MOL0     O 1667  11.147  11.335   2.996 -0.0906 -0.1454  0.5974
   13MOL0     C 1668  10.955  11.030   2.944 -0.2628 -0.1237  0.6044
   13MOL0     C 1669  10.821  10.994   2.934  0.3396  0.3399 -0.7691
   13MOL0     N 1670  10.003  11.279   2.626 -0.4687  0.6555 -0.3580
   13MOL0     N 1671   9.888  11.328   2.634 -0.1629 -0.7975 -0.3398
   13MOL0     C 1672   8.691  11.146   2.350 -0.2396 -0.6882 -0.4575
   13MOL0     C 1673   8.559  11.108   2.308 -0.0186 -0.9483  0.0837
   13MOL0     C 1674   8.127  11.166   2.199 -0.3289  0.0067  0.1685
   13MOL0     C 1675   8.029  11.105   2.283  0.7855  0.6823  1.0454
   13MOL0     C 1676   7.898  11.092   2.230  0.0576 -0.2683  0.0054
   13MOL0     C 1677   7.857  11.139   2.101  0.0923  0.8236 -1.0342
   13MOL0     O 1678   7.730  11.106   2.056  0.0277 -0.7283  0.7823
   13MOL0     C 1679   7.706  11.125   1.917 -1.7758 -0.3908  0.5733
   13MOL0     C 1680   7.564  11.082   1.874 -0.6514 -0.5393  1.0292
   13MOL0     C 1681   7.514  10.952   1.929 -0.2725 -0.6007  0.3486
   13MOL0     C 1682   7.365  10.932   1.883  0.0707  0.2418 -0.0148
   13MOL0     C 1683   7.281  11.033   1.955  0.0273 -1.1837 -0.0625
   13MOL0     C 1684   7.219  11.122   2.014 -0.2366  0.5723 -0.3535
   13MOL0     C 1685   7.951  11.206   2.027 -0.1316 -0.1310 -0.3090
   13MOL0     C 1686   8.085  11.223   2.081  0.0175  0.1894  0.7878
   13MOL0     C 1687   8.171  11.299   1.986  0.5928  0.4886 -0.5129
   13MOL0     H 1688   8.506  11.307   2.037 -0.8705  0.3655  0.8510
   13MOL0     H 1689   8.748  11.384   2.105  3.4461 -3.4131 -1.8744
   13MOL0     H 1690   8.921  11.210   2.512  2.1971  0.4755  1.2285
   13MOL0     H 1691   8.987  11.124   2.371 -0.3057  0.3101 -0.7734
   13MOL0     H 1692   9.063  11.409   2.457  1.3756  1.0792  2.4616
   13MOL0     H 1693   9.156  11.304   2.356 -0.6360  2.9118  0.2914
   13MOL0     H 1694   9.197  11.163   2.550  2.4029  0.6326 -0.7099
   13MOL0     H 1695   9.100  11.277   2.656  1.3837  1.6991  0.6983
   13MOL0     H 1696   9.353  11.360   2.499 -0.6943  0.1561 -0.3318
   13MOL0     H 1697   9.257  11.450   2.620  1.0898  0.0032  0.9615
   13MOL0     H 1698   9.336  11.311   2.795  1.5163  2.7918  0.3203
   13MOL0     H 1699   9.383  11.176   2.686  0.6883  0.3093 -0.3501
   13MOL0     H 1700   9.575  11.324   2.610  4.0275  3.3204  1.1094
   13MOL0     H 1701   9.498  11.458   2.701  1.8295  0.0965  0.8519
   13MOL0     H 1702   9.622  11.197   2.810 -0.5123 -0.6215 -0.4004
   13MOL0     H 1703   9.552  11.323   2.911  0.7601  1.3114 -0.0853
   13MOL0     H 1704   9.719  11.486   2.798  0.8008 -0.1151  1.6961
   13MOL0     H 1705   9.766  11.394   2.929  0.8884  2.2877 -0.7340
   13MOL0     H 1706   9.904  11.170   2.923 -1.2615  0.2385  0.4295
   13MOL0     H 1707  10.104  11.026   2.832  1.5071 -0.0092  0.1413
   13MOL0     H 1708  10.158  11.042   2.675  2.1773 -2.9535  2.1019
   13MOL0     H 1709  10.313  11.250   2.738  1.9080 -1.0279 -0.9517
   13MOL0     H 1710  10.237  11.242   2.896  1.5042 -0.9823 -0.2892
   13MOL0     H 1711  10.400  11.012   2.791  0.5856  0.9395  0.6128
   13MOL0     H 1712  10.340  11.021   2.951  0.4645 -0.5976  0.6429
   13MOL0     H 1713  10.466  11.224   2.991  1.0669 -1.2645  2.1427
   13MOL0     H 1714  10.540  11.212   2.829 -1.3788 -1.4801 -0.9780
   13MOL0     H 1715  10.673  11.277   3.038  0.1914 -0.1126  3.1327
   13MOL0     H 1716  10.908  11.353   3.028  1.0725 -0.3958 -1.3945
   13MOL0     H 1717  11.369  11.290   3.068 -0.5652 -0.8325  0.2373
   13MOL0     H 1718  11.617  11.321   3.030  0.6537 -1.8446  0.4051
   13MOL0     H 1719  11.819  11.032   2.773  1.0058 -1.1558 -1.3356
   13MOL0     H 1720  11.814  11.156   2.660 -0.2207  0.2969  1.2226
   13MOL0     H 1721  12.006  11.164   2.907  2.4067 -0.8101 -0.4117
   13MOL0     H 1722  12.048  11.070   2.771  0.7058 -0.1191  0.5185
   13MOL0     H 1723  11.992  11.299   2.628  1.3635  1.6747 -1.5424
   13MOL0     H 1724  12.030  11.374   2.779  1.5430  1.6020 -2.1310
   13MOL0     H 1725  12.215  11.173   2.652  1.8178  0.1704 -0.2377
   13MOL0     H 1726  12.247  11.289   2.788  1.3444 -1.8534 -0.4348
   13MOL0     H 1727  12.177  11.343   2.504  1.8310 -3.6843 -1.1923
   13MOL0     H 1728  12.347  11.346   2.562  0.6659 -1.7479 -0.2634
   13MOL0     H 1729  12.117  11.539   2.636 -1.4178 -1.2049  1.9979
   13MOL0     H 1730  12.249  11.521   2.736 -3.0186 -0.8298  0.4664
   13MOL0     H 1731  12.400  11.582   2.537  0.2774  1.1644  1.5313
   13MOL0     H 1732  12.270  11.712   2.569  2.1300  0.1718  0.4795
   13MOL0     H 1733  12.249  11.489   2.358 -1.8941 -1.1709 -0.2767
   13MOL0     H 1734  12.132  11.623   2.401  0.2020 -0.0034  0.8711
   13MOL0     H 1735  11.600  11.032   2.711  0.7828 -0.0652  0.8433
   13MOL0     H 1736  11.356  11.007   2.736 -0.1826 -0.9350  1.1888
   13MOL0     H 1737  11.037  10.962   2.922 -1.8563 -1.5534 -1.3264
   13MOL0     H 1738  10.796  10.897   2.891  1.0558 -1.4372  2.4504
   13MOL0     H 1739   8.735  11.122   2.446 -1.6660  3.9666  1.6658
   13MOL0     H 1740   8.496  11.054   2.378 -1.4394  0.2829 -0.2010
   13MOL0     H 1741   8.067  11.074   2.380  1.1605  1.4214  1.1451
   13MOL0     H 1742   7.835  11.039   2.300  0.5580  0.6630  1.1931
   13MOL0     H 1743   7.781  11.086   1.847 -0.2214  1.7666  0.9097
   13MOL0     H 1744   7.718  11.226   1.877  3.3746 -1.7984 -2.3278
   13MOL0     H 1745   7.555  11.077   1.766  0.0069 -1.8717  1.0224
   13MOL0     H 1746   7.502  11.164   1.912  0.7143  1.7744 -1.3629
   13MOL0     H 1747   7.530  10.936   2.036  1.0177 -3.3419 -0.1446
   13MOL0     H 1748   7.573  10.871   1.885 -1.1127 -0.7382 -0.5557
   13MOL0     H 1749   7.347  10.960   1.779 -2.6415 -1.8653 -0.2251
   13MOL0     H 1750   7.324  10.832   1.902  1.2934 -0.1203  0.9078
   13MOL0     H 1751   7.161  11.196   2.066 -3.1587 -0.7417 -1.4811
   13MOL0     H 1752   7.930  11.252   1.932 -4.3585  1.1425  1.0177
   13MOL0     H 1753   8.113  11.382   1.944  0.6932 -0.4127 -2.5823
   13MOL0     H 1754   8.263  11.337   2.030  0.5496  1.5555 -1.2883
   13MOL0     H 1755   8.188  11.226   1.906 -1.7227  2.2614 -2.8121
   14MOL0     O 1756   3.341   8.750   0.433  0.1021 -0.3936 -1.1140
   14MOL0     C 1757   3.285   8.803   0.340  0.0472 -0.4277 -0.0793
   14MOL0     O 1758   3.339   8.902   0.261 -0.3543  1.2432 -0.1622
   14MOL0     C 1759   3.449   8.974   0.314 -0.5840  0.8618 -0.0680
   14MOL0     C 1760   3.455   9.021   0.447  0.2386  0.1466  0.2195
   14MOL0     C 1761   3.573   9.096   0.499  0.1217 -1.0882 -0.5656
   14MOL0     C 1762   3.679   9.122   0.407  0.2691 -0.0879 -0.2448
   14MOL0     O 1763   3.785   9.204   0.443  0.6634 -0.3218  0.3530
   14MOL0     C 1764   3.844   9.173   0.570 -0.1546  0.5010 -0.5145
   14MOL0     C 1765   3.926   9.296   0.611 -0.1948 -0.3645 -0.0279
   14MOL0     C 1766   4.035   9.338   0.502  0.2613 -0.0792 -0.1875
   14MOL0     C 1767   4.178   9.311   0.567  0.0699 -0.3201 -0.3936
   14MOL0     C 1768   4.279   9.398   0.507 -0.2680  0.2430 -0.4128
   14MOL0     C 1769   4.417   9.367   0.570 -0.3889  0.1717  0.5842
   14MOL0     C 1770   4.522   9.478   0.517  0.2679  1.4119 -0.0926
   14MOL0     C 1771   4.666   9.448   0.545  0.4089  0.3872 -0.3498
   14MOL0     N 1772   4.754   9.546   0.483 -0.4229  0.3190 -0.0707
   14MOL0     C 1773   4.777   9.682   0.510 -0.3470 -0.7642 -0.2697
   14MOL0     C 1774   4.899   9.712   0.449  1.2094  0.4413  0.2894
   14MOL0     C 1775   4.988   9.836   0.454  0.2232 -0.5272 -0.3778
   14MOL0     C 1776   5.095   9.830   0.549  0.5964 -0.6383 -0.4102
   14MOL0     C 1777   5.147   9.968   0.585  0.3859  0.3575  0.3017
   14MOL0     C 1778   5.267   9.947   0.669  1.0729  0.0462 -0.2040
   14MOL0     O 1779   5.321  10.074   0.692 -0.9090  0.0528 -0.0101
   14MOL0     C 1780   5.459  10.089   0.682 -0.6835  0.1793 -0.7235
   14MOL0     C 1781   5.505  10.200   0.604  0.9011  0.2732  1.3550
   14MOL0     C 1782   5.642  10.214   0.582  0.4008 -0.1762 -0.4462
   14MOL0     C 1783   5.730  10.124   0.642 -0.5490  0.3041 -0.5487
   14MOL0     C 1784   5.878  10.142   0.615  0.3390  1.2004  0.3407
   14MOL0     O 1785   5.921  10.245   0.538  0.0875  0.0637 -1.0195
   14MOL0     C 1786   6.051  10.234   0.491 -0.0182 -0.6483  0.3225
   14MOL0     C 1787   6.087  10.122   0.411  0.3097 -0.7284  0.0282
   14MOL0     C 1788   6.215  10.116   0.359 -0.1132 -0.0613  0.6124
   14MOL0     C 1789   6.304  10.222   0.377  0.5167  0.3319 -0.3852
   14MOL0     O 1790   6.430  10.209   0.324 -0.2494 -0.1590  0.4927
   14MOL0     C 1791   6.512  10.115   0.394  0.0906  0.1477  0.1974
   14MOL0     C 1792   6.622  10.059   0.297 -0.0384  0.2798 -0.0592
   14MOL0     C 1793   6.709  10.168   0.235 -0.6190 -0.2879  0.2581
   14MOL0     C 1794   6.822  10.107   0.145  0.5817  0.2794 -0.5324
   14MOL0     C 1795   6.868  10.224   0.052  0.2265 -0.2390  0.5864
   14MOL0     C 1796   6.995  10.202  -0.030  0.1886  0.6349  0.7020
   14MOL0     C 1797   7.117  10.235   0.049  0.5226  0.1745 -0.5268
   14MOL0     C 1798   7.127  10.386   0.091  0.3745 -1.3508 -0.0631
   14MOL0    Cl 1799   7.285  10.464   0.067  0.2246 -0.2485 -0.2065
   14MOL0     C 1800   6.271  10.334   0.458 -0.0712 -0.4458 -0.2052
   14MOL0     C 1801   6.146  10.340   0.512  1.0035  0.4446 -0.1141
   14MOL0     O 1802   5.947  10.048   0.650 -0.9548 -0.6141  0.2692
   14MOL0     C 1803   5.688  10.024   0.719  0.2274 -0.3673  0.9643
   14MOL0     C 1804   5.553   9.999   0.741  0.2961 -1.0793  0.5663
   14MOL0     N 1805   4.937   9.597   0.382 -0.1584  0.2446  0.0677
   14MOL0     N 1806   4.845   9.509   0.386  0.4276 -0.5930 -0.0806
   14MOL0     C 1807   3.665   9.084   0.270 -0.4251  0.3008 -0.8941
   14MOL0     C 1808   3.554   9.011   0.227 -0.0817  0.2132 -0.2920
   14MOL0     C 1809   3.141   8.769   0.307 -0.1624 -0.2016  0.0125
   14MOL0     C 1810   3.073   8.867   0.229  0.1285  0.4881  0.0131
   14MOL0     C 1811   2.944   8.833   0.171 -0.1518  0.2069  0.2797
   14MOL0     C 1812   2.879   8.712   0.203  0.4521 -0.0651  0.4112
   14MOL0     O 1813   2.766   8.667   0.150 -0.0460  0.2523  0.5500
   14MOL0     C 1814   2.677   8.770   0.103 -0.3767  0.7576 -0.5942
   14MOL0     C 1815   2.544   8.713   0.054 -0.5272  0.2775  0.2829
   14MOL0     C 1816   2.563   8.631  -0.076  0.4151  0.1959  0.2634
   14MOL0     C 1817   2.413   8.588  -0.105 -0.2723 -0.7492 -1.0707
   14MOL0     C 1818   2.360   8.492  -0.016 -0.0598  0.4167 -0.0173
   14MOL0     C 1819   2.323   8.414   0.066  0.1949  0.0093  0.0755
   14MOL0     C 1820   2.959   8.614   0.270  1.1829  0.2609 -0.3637
   14MOL0     C 1821   3.084   8.640   0.326  0.2510 -0.0522  0.2698
   14MOL0     C 1822   3.154   8.536   0.403 -0.2721  0.0381 -0.4820
   14MOL0     H 1823   3.375   8.998   0.517  1.6611 -2.1357  1.2043
   14MOL0     H 1824   3.568   9.139   0.598 -2.3827 -0.1387 -1.0368
   14MOL0     H 1825   3.773   9.147   0.650  0.8020  0.9801  0.5202
   14MOL0     H 1826   3.907   9.085   0.556  1.9912  1.8722  0.0761
   14MOL0     H 1827   3.975   9.277   0.707  1.6769 -2.2389 -1.2442
   14MOL0     H 1828   3.852   9.376   0.612 -2.2808 -1.9529 -3.6029
   14MOL0     H 1829   4.026   9.441   0.467  5.1343 -0.5062 -3.7364
   14MOL0     H 1830   4.028   9.276   0.412  1.7427  0.7889 -0.9411
   14MOL0     H 1831   4.164   9.339   0.672 -2.5154  0.0784 -0.7700
   14MOL0     H 1832   4.200   9.204   0.567 -1.8395 -0.7538  0.5158
   14MOL0     H 1833   4.287   9.377   0.400  0.3352 -1.9734  0.0295
   14MOL0     H 1834   4.250   9.503   0.517  0.1671  0.3319 -0.0726
   14MOL0     H 1835   4.412   9.374   0.679 -2.4034  0.6234  0.5057
   14MOL0     H 1836   4.456   9.265   0.558 -0.2182  0.1145  1.5804
   14MOL0     H 1837   4.504   9.571   0.571 -0.1531  1.8170 -0.9215
   14MOL0     H 1838   4.508   9.495   0.410 -3.7946 -2.2824 -0.4484
   14MOL0     H 1839   4.679   9.449   0.654 -2.7423 -1.3786  0.1723
   14MOL0     H 1840   4.684   9.344   0.518 -3.4524 -1.3218  2.6298
   14MOL0     H 1841   4.721   9.753   0.571  0.7120  2.4621 -2.7632
   14MOL0     H 1842   5.020   9.854   0.351 -0.1625  2.2210 -0.0733
   14MOL0     H 1843   4.930   9.919   0.495  1.9873  1.9817 -2.5999
   14MOL0     H 1844   5.067   9.766   0.634 -2.9532 -0.3572 -1.2220
   14MOL0     H 1845   5.173   9.779   0.492 -1.2476  1.0620 -4.9324
   14MOL0     H 1846   5.080  10.034   0.642 -0.0801  0.9718 -0.9151
   14MOL0     H 1847   5.181  10.021   0.495 -0.9588  0.7234 -0.0156
   14MOL0     H 1848   5.336   9.873   0.628  0.4254  0.8186 -2.9327
   14MOL0     H 1849   5.222   9.912   0.762  1.6306  1.6820  0.7237
   14MOL0     H 1850   5.432  10.264   0.555  0.6465 -0.1361  1.1964
   14MOL0     H 1851   5.691  10.288   0.520  2.6789  0.1554  1.5822
   14MOL0     H 1852   6.018  10.039   0.398  0.0461 -0.3101 -1.4459
   14MOL0     H 1853   6.249  10.027   0.308  0.4548 -1.6089  3.4401
   14MOL0     H 1854   6.548  10.154   0.489  0.9093  0.9295 -0.4120
   14MOL0     H 1855   6.456  10.025   0.423  1.0883  0.0935  2.1311
   14MOL0     H 1856   6.689   9.993   0.354 -0.5476 -1.4180 -1.3423
   14MOL0     H 1857   6.575   9.989   0.228 -1.4474 -0.0962  1.2226
   14MOL0     H 1858   6.648  10.229   0.168  0.4569  1.9324  1.1972
   14MOL0     H 1859   6.751  10.244   0.301 -0.4731  0.9897 -1.2434
   14MOL0     H 1860   6.789  10.017   0.092  1.4862 -0.8941  0.8201
   14MOL0     H 1861   6.902  10.067   0.208  0.4472 -0.3713 -0.7595
   14MOL0     H 1862   6.885  10.314   0.112  2.5665 -0.2978  0.1256
   14MOL0     H 1863   6.784  10.235  -0.017  1.2147 -1.6032 -0.8961
   14MOL0     H 1864   6.999  10.094  -0.044 -0.2726  0.7171 -0.1763
   14MOL0     H 1865   6.993  10.243  -0.132  0.7033 -0.9037  0.0405
   14MOL0     H 1866   7.205  10.219  -0.014  1.3545  3.4904 -0.3940
   14MOL0     H 1867   7.118  10.164   0.131 -1.9734 -0.9738 -1.3656
   14MOL0     H 1868   7.052  10.448   0.042  0.4502  0.2724  1.7353
   14MOL0     H 1869   7.112  10.404   0.198  3.4166 -1.0190  0.4126
   14MOL0     H 1870   6.352  10.405   0.474 -0.1899 -0.5119  0.7799
   14MOL0     H 1871   6.118  10.425   0.572  0.5923 -0.6522  1.2818
   14MOL0     H 1872   5.756   9.955   0.768 -1.7411 -3.6313 -0.5609
   14MOL0     H 1873   5.511   9.911   0.789 -0.5718 -0.1357  1.5998
   14MOL0     H 1874   3.737   9.125   0.200  0.4204  3.2260  1.4908
   14MOL0     H 1875   3.550   8.972   0.126 -2.0623  0.5504 -0.3902
   14MOL0     H 1876   3.119   8.963   0.209  2.3179 -0.4593  0.1775
   14MOL0     H 1877   2.914   8.901   0.092 -0.9389  0.6610  0.9594
   14MOL0     H 1878   2.724   8.828   0.023  4.8097 -1.2081  0.6505
   14MOL0     H 1879   2.654   8.832   0.190 -1.6866  1.5040 -1.4404
   14MOL0     H 1880   2.478   8.800   0.047  1.0239  1.6203  1.5363
   14MOL0     H 1881   2.498   8.651   0.132 -1.1052 -0.6445 -0.7741
   14MOL0     H 1882   2.631   8.545  -0.075  1.4154  0.6623 -4.5664
   14MOL0     H 1883   2.606   8.688  -0.158  0.4476 -2.0654 -1.3838
   14MOL0     H 1884   2.354   8.680  -0.116  1.2131  0.7581  2.1467
   14MOL0     H 1885   2.418   8.537  -0.202 -2.2391 -0.3217 -1.4339
   14MOL0     H 1886   2.271   8.351   0.135  0.7440  0.4527  0.9083
   14MOL0     H 1887   2.917   8.514   0.270 -2.2020  1.5149 -2.7112
   14MOL0     H 1888   3.176   8.578   0.502  3.6806 -2.5406 -0.0306
   14MOL0     H 1889   3.111   8.436   0.402 -0.7165  0.2171 -2.6011
   14MOL0     H 1890   3.249   8.527   0.350 -0.4371  3.1498 -1.5179
   15MOL0     O 1891   0.645  10.676   6.679 -0.4176  0.1594 -1.2789
   15MOL0     C 1892   0.603  10.768   6.606  0.5166  0.2621 -0.4371
   15MOL0     O 1893   0.676  10.845   6.524 -0.0707  0.1305 -0.4436
   15MOL0     C 1894   0.808  10.828   6.486 -0.5964  0.2719 -0.2764
   15MOL0     C 1895   0.896  10.742   6.543  0.1447  0.3415 -0.9787
   15MOL0     C 1896   1.024  10.724   6.502 -0.3722 -0.1380  0.0967
   15MOL0     C 1897   1.063  10.793   6.391 -0.2309 -0.5082 -0.0872
   15MOL0     O 1898   1.198  10.780   6.350  0.1984  0.6544  0.0343
   15MOL0     C 1899   1.226  10.663   6.272 -0.0511 -0.8728 -0.3200
   15MOL0     C 1900   1.380  10.636   6.245  0.7036 -0.0555 -0.3385
   15MOL0     C 1901   1.450  10.592   6.375  0.0697  0.3938 -0.2894
   15MOL0     C 1902   1.586  10.519   6.351 -1.4355 -0.8612 -0.1830
   15MOL0     C 1903   1.692  10.598   6.259  1.0666 -0.4902  0.1716
   15MOL0     C 1904   1.828  10.540   6.270  0.3869 -0.2009 -0.0506
   15MOL0     C 1905   1.926  10.635   6.202  0.5155  0.3895 -0.0741
   15MOL0     C 1906   2.065  10.566   6.191 -0.3196 -0.3582 -0.8801
   15MOL0     N 1907   2.162  10.665   6.134  0.8720 -0.4865 -0.2088
   15MOL0     C 1908   2.241  10.733   6.215 -0.3919  0.0350 -0.2906
   15MOL0     C 1909   2.303  10.821   6.125  0.6753  0.3583 -0.0894
   15MOL0     C 1910   2.386  10.932   6.179  0.0404  0.8295 -0.5758
   15MOL0     C 1911   2.452  10.997   6.057 -0.4094 -0.1149 -0.2121
   15MOL0     C 1912   2.523  11.128   6.074  0.4660 -0.4590 -0.3034
   15MOL0     C 1913   2.600  11.149   5.934 -1.0925  0.6729 -0.2731
   15MOL0     O 1914   2.522  11.164   5.813 -0.9923  0.4143  0.2578
   15MOL0     C 1915   2.427  11.253   5.821 -0.2400 -0.9822  0.1548
   15MOL0     C 1916   2.441  11.378   5.884 -0.7596 -0.0365 -0.3503
   15MOL0     C 1917   2.333  11.466   5.891  0.8969 -0.1991  0.0310
   15MOL0     C 1918   2.212  11.425   5.836 -0.0015 -0.0809  0.5693
   15MOL0     C 1919   2.089  11.502   5.853  0.7955 -0.0273  0.2912
   15MOL0     O 1920   1.979  11.466   5.773  0.1744 -0.3633  0.2669
   15MOL0     C 1921   1.856  11.514   5.800  1.7541  0.4245 -0.0863
   15MOL0     C 1922   1.749  11.426   5.831 -0.6899  0.4618  0.7335
   15MOL0     C 1923   1.618  11.466   5.838 -0.6243 -0.2252 -0.0555
   15MOL0     C 1924   1.587  11.603   5.814  0.1781  1.0098 -0.3364
   15MOL0     O 1925   1.458  11.639   5.835  0.6411 -0.3829 -0.4346
   15MOL0     C 1926   1.341  11.559   5.805  0.0780 -0.3075 -0.4507
   15MOL0     C 1927   1.221  11.636   5.776 -0.6107  0.3008 -0.0269
   15MOL0     C 1928   1.088  11.547   5.781 -0.2444 -0.2985  0.8923
   15MOL0     C 1929   0.971  11.643   5.776  0.1549 -0.9444  0.2347
   15MOL0     C 1930   0.838  11.569   5.777  0.0527 -0.0205  0.4779
   15MOL0     C 1931   0.722  11.666   5.817 -0.0151  0.1675  0.2585
   15MOL0     C 1932   0.611  11.589   5.886 -0.4918 -0.5555  0.3218
   15MOL0     C 1933   0.508  11.562   5.767  0.3738 -0.7205  0.2323
   15MOL0    Cl 1934   0.376  11.447   5.804  0.3737  0.4631 -0.0807
   15MOL0     C 1935   1.686  11.694   5.792 -0.7505  0.1052 -0.0941
   15MOL0     C 1936   1.821  11.647   5.779  0.4007  0.8683  0.8285
   15MOL0     O 1937   2.089  11.590   5.935  0.2307 -0.0280 -0.8700
   15MOL0     C 1938   2.196  11.305   5.772  0.1410  0.4732  0.3265
   15MOL0     C 1939   2.303  11.220   5.760  0.6587  0.6009 -0.6807
   15MOL0     N 1940   2.270  10.791   6.002  0.3703  0.7298  0.0997
   15MOL0     N 1941   2.181  10.700   6.006  0.1949  0.2744  0.1701
   15MOL0     C 1942   0.986  10.891   6.330 -0.6576  0.1413 -0.1532
   15MOL0     C 1943   0.856  10.899   6.373 -0.6457 -0.9972  0.2840
   15MOL0     C 1944   0.456  10.801   6.604 -0.0037 -0.0035 -0.3897
   15MOL0     C 1945   0.407  10.909   6.535  0.3505  0.5242 -0.5285
   15MOL0     C 1946   0.266  10.955   6.543 -0.2174  0.9460  0.3673
   15MOL0     C 1947   0.175  10.879   6.615  0.8001  0.1116 -0.0645
   15MOL0     O 1948   0.043  10.931   6.620  0.3708  0.3113 -0.2594
   15MOL0     C 1949  -0.044  10.844   6.698  0.2845  0.1667  0.4295
   15MOL0     C 1950  -0.193  10.881   6.694 -0.3657  0.0641  0.4148
   15MOL0     C 1951  -0.277  10.761   6.739 -1.3786  0.3994  0.0324
   15MOL0     C 1952  -0.424  10.780   6.723  0.1157 -0.5660 -0.1435
   15MOL0     C 1953  -0.474  10.881   6.828  0.0119 -0.0146  0.1555
   15MOL0     C 1954  -0.519  10.966   6.905 -0.0031 -0.8370 -0.4736
   15MOL0     C 1955   0.220  10.763   6.680 -0.5975  0.6450 -0.2839
   15MOL0     C 1956   0.355  10.725   6.682 -0.0296  0.8113  0.4054
   15MOL0     C 1957   0.384  10.609   6.774 -0.6497 -0.6247  0.7053
   15MOL0     H 1958   0.870  10.693   6.637  0.2859  0.3750 -0.9211
   15MOL0     H 1959   1.089  10.652   6.550 -0.6523  0.1595  0.9354
   15MOL0     H 1960   1.169  10.574   6.302 -2.5610  0.5601 -0.5011
   15MOL0     H 1961   1.189  10.693   6.174 -0.2197 -2.5883 -0.8258
   15MOL0     H 1962   1.423  10.733   6.221  0.4348 -0.2345 -1.5916
   15MOL0     H 1963   1.402  10.577   6.156  0.2130  3.2876 -2.9065
   15MOL0     H 1964   1.389  10.524   6.435 -0.1248  0.1077 -0.8032
   15MOL0     H 1965   1.467  10.684   6.431 -0.7540  0.5101 -0.2185
   15MOL0     H 1966   1.638  10.518   6.447 -0.8376  0.0394 -0.4760
   15MOL0     H 1967   1.576  10.421   6.304 -1.0364  0.1962 -2.6042
   15MOL0     H 1968   1.664  10.593   6.153  0.5269  1.1415  0.2151
   15MOL0     H 1969   1.692  10.705   6.279 -1.9141 -0.4477  0.4319
   15MOL0     H 1970   1.857  10.526   6.374 -0.6236 -2.3775  0.0026
   15MOL0     H 1971   1.836  10.442   6.221 -0.2808  0.5211 -1.6658
   15MOL0     H 1972   1.934  10.728   6.260 -1.0635 -0.0413  0.8936
   15MOL0     H 1973   1.892  10.654   6.100 -0.3114 -0.7223 -0.0239
   15MOL0     H 1974   2.095  10.524   6.288 -1.5861  1.3716  0.3046
   15MOL0     H 1975   2.060  10.480   6.123  1.1086 -2.3785  1.3954
   15MOL0     H 1976   2.244  10.732   6.323 -0.2463 -1.6754 -0.2838
   15MOL0     H 1977   2.322  10.995   6.242  0.0228 -0.2260  0.5035
   15MOL0     H 1978   2.456  10.887   6.250 -1.1736 -1.8103 -0.9498
   15MOL0     H 1979   2.529  10.923   6.032  0.4996  0.4598  0.8031
   15MOL0     H 1980   2.388  11.007   5.969 -0.6796 -1.4407 -0.1965
   15MOL0     H 1981   2.594  11.110   6.155 -0.5495 -0.3362  0.6472
   15MOL0     H 1982   2.465  11.212   6.112  0.8114  0.1147 -1.0288
   15MOL0     H 1983   2.665  11.063   5.915  0.6509  1.0291  3.2953
   15MOL0     H 1984   2.669  11.233   5.944  2.0945 -1.9099  1.4179
   15MOL0     H 1985   2.538  11.415   5.918 -0.0549 -1.9243 -0.2066
   15MOL0     H 1986   2.342  11.558   5.948 -2.5256 -1.0808  2.3081
   15MOL0     H 1987   1.767  11.321   5.851  2.5444 -0.2139 -3.8576
   15MOL0     H 1988   1.548  11.393   5.876  0.9106 -2.0270 -0.5406
   15MOL0     H 1989   1.368  11.504   5.714 -0.2504  0.8232 -1.2604
   15MOL0     H 1990   1.316  11.481   5.876 -1.7377 -1.6522 -2.4602
   15MOL0     H 1991   1.204  11.712   5.853  1.1263 -1.1000  1.8615
   15MOL0     H 1992   1.234  11.682   5.678 -1.2893  1.1150  0.2570
   15MOL0     H 1993   1.088  11.485   5.691  0.3083  3.8822 -2.2678
   15MOL0     H 1994   1.084  11.481   5.868  0.8309 -1.8065 -0.1457
   15MOL0     H 1995   0.982  11.715   5.694  1.1412 -1.1956  0.1326
   15MOL0     H 1996   0.981  11.699   5.869  0.8440  0.4930 -0.6686
   15MOL0     H 1997   0.845  11.479   5.839  0.9147 -0.1269  0.2310
   15MOL0     H 1998   0.807  11.526   5.681  0.8235  3.7992 -1.7027
   15MOL0     H 1999   0.758  11.752   5.873  0.2974  0.5418 -0.5046
   15MOL0     H 2000   0.686  11.723   5.731 -0.5977  1.4647  1.3306
   15MOL0     H 2001   0.569  11.659   5.959  1.3996 -0.7708  1.6601
   15MOL0     H 2002   0.637  11.501   5.944  1.1952 -0.3584 -0.0934
   15MOL0     H 2003   0.468  11.656   5.727 -0.1133 -1.1455 -0.2934
   15MOL0     H 2004   0.565  11.511   5.688 -0.8753  0.3669 -1.4307
   15MOL0     H 2005   1.676  11.801   5.777 -2.6725 -0.4885 -4.3214
   15MOL0     H 2006   1.903  11.714   5.756  0.7832  0.3618  0.6959
   15MOL0     H 2007   2.101  11.266   5.737 -0.2934  0.7107  1.2154
   15MOL0     H 2008   2.293  11.119   5.723  1.3779  0.7196 -1.2347
   15MOL0     H 2009   1.023  10.949   6.247 -2.0523  2.4805  0.7644
   15MOL0     H 2010   0.786  10.968   6.327  1.6451  0.6140 -1.0190
   15MOL0     H 2011   0.474  10.959   6.466 -0.1969 -2.2078 -3.2473
   15MOL0     H 2012   0.222  11.049   6.511 -0.2638  0.8093  0.0220
   15MOL0     H 2013  -0.021  10.845   6.805 -1.0761  2.3587  0.7746
   15MOL0     H 2014  -0.039  10.742   6.659 -1.1588  0.5180 -0.7881
   15MOL0     H 2015  -0.219  10.903   6.590 -0.0644 -2.1858 -0.1856
   15MOL0     H 2016  -0.210  10.974   6.748 -1.8089 -0.0891  0.2714
   15MOL0     H 2017  -0.263  10.733   6.844 -1.5816  1.3468  0.3301
   15MOL0     H 2018  -0.243  10.671   6.687 -0.1864  0.9002 -0.0923
   15MOL0     H 2019  -0.456  10.819   6.626 -1.1897  0.0347  0.5205
   15MOL0     H 2020  -0.475  10.683   6.730  0.7120 -0.8766  0.0593
   15MOL0     H 2021  -0.552  11.035   6.980 -1.4904 -0.7896 -1.1499
   15MOL0     H 2022   0.147  10.707   6.737 -0.1871  0.4964  0.1001
   15MOL0     H 2023   0.463  10.540   6.741  0.0807 -0.8525  2.7673
   15MOL0     H 2024   0.409  10.660   6.868 -0.7341  0.4410  0.1666
   15MOL0     H 2025   0.301  10.543   6.800 -0.7306 -0.5954  0.5217
   16MOL0     O 2026   8.424   2.428   7.200 -0.0522 -0.4311 -0.4518
   16MOL0     C 2027   8.419   2.335   7.282 -0.2117  0.7083 -0.0153
   16MOL0     O 2028   8.508   2.234   7.289  0.2854  0.3478  0.7193
   16MOL0     C 2029   8.619   2.238   7.209 -0.2657  0.3145 -1.4009
   16MOL0     C 2030   8.631   2.162   7.091  0.3590  0.0614 -0.3109
   16MOL0     C 2031   8.751   2.159   7.010 -0.2747 -0.0709 -0.6354
   16MOL0     C 2032   8.866   2.237   7.056  0.8500  0.3253  0.3468
   16MOL0     O 2033   8.965   2.269   6.969  0.4555 -0.6022 -0.5281
   16MOL0     C 2034   9.040   2.149   6.947 -0.9858 -0.4568 -0.1021
   16MOL0     C 2035   9.134   2.131   7.062 -0.2052  0.6384 -0.7228
   16MOL0     C 2036   9.216   2.006   7.039  1.2902  0.3099 -0.3839
   16MOL0     C 2037   9.341   2.043   6.976 -0.6122 -1.0253  0.2708
   16MOL0     C 2038   9.436   1.928   6.948  0.0105  0.3631 -0.0957
   16MOL0     C 2039   9.535   1.972   6.843 -0.0403 -0.1821  0.3137
   16MOL0     C 2040   9.646   1.869   6.820 -0.1680 -0.1225 -0.2048
   16MOL0     C 2041   9.757   1.932   6.730  0.7515 -0.7078  0.2518
   16MOL0     N 2042   9.874   1.837   6.717  1.0561 -0.2718  0.3065
   16MOL0     C 2043   9.958   1.805   6.822 -0.1018  1.2340  0.2119
   16MOL0     C 2044  10.043   1.712   6.771 -0.0857  0.2145 -0.6544
   16MOL0     C 2045  10.141   1.637   6.855 -0.1341  0.5972  0.2472
   16MOL0     C 2046  10.078   1.506   6.909 -0.2367 -0.2061 -0.0862
   16MOL0     C 2047  10.176   1.424   6.995 -1.0272 -1.2236 -0.1462
   16MOL0     C 2048  10.200   1.483   7.135 -0.0481 -0.0120  0.1468
   16MOL0     O 2049  10.313   1.417   7.197 -0.0952  0.1817  0.0457
   16MOL0     C 2050  10.300   1.291   7.254  0.1763  0.1137 -0.4493
   16MOL0     C 2051  10.413   1.226   7.296 -1.1303  0.4742 -0.8260
   16MOL0     C 2052  10.411   1.112   7.372  0.2473  0.2849 -0.2356
   16MOL0     C 2053  10.293   1.043   7.393  0.1362  0.0155  0.7103
   16MOL0     C 2054  10.275   0.925   7.467  0.3415 -0.4155 -0.7159
   16MOL0     O 2055  10.143   0.900   7.501 -0.1938 -0.3763  0.2576
   16MOL0     C 2056  10.113   0.791   7.578 -0.0174 -0.1971  0.4621
   16MOL0     C 2057  10.124   0.654   7.540  0.1981 -0.7565  0.0247
   16MOL0     C 2058  10.091   0.545   7.626  0.2841  0.2257  0.8727
   16MOL0     C 2059  10.037   0.571   7.751 -0.1563  0.7500 -0.1776
   16MOL0     O 2060  10.002   0.477   7.842 -0.0744 -0.4864 -0.0931
   16MOL0     C 2061   9.908   0.381   7.786 -0.2618 -0.2026 -0.4621
   16MOL0     C 2062   9.801   0.353   7.887  0.1555  0.2997 -0.1145
   16MOL0     C 2063   9.731   0.224   7.862 -0.3486  0.1656 -0.9185
   16MOL0     C 2064   9.625   0.229   7.752 -0.0767  0.0896 -0.1942
   16MOL0     C 2065   9.561   0.087   7.722 -0.8153 -0.5971 -0.4333
   16MOL0     C 2066   9.434   0.094   7.646  0.2880 -0.1241 -0.5145
   16MOL0     C 2067   9.426   0.193   7.525  0.3952 -0.5997 -0.7567
   16MOL0     C 2068   9.287   0.202   7.457 -0.2685  0.1487  0.1451
   16MOL0    Cl 2069   9.164   0.229   7.584 -0.2579 -0.0169 -0.5200
   16MOL0     C 2070  10.030   0.705   7.797 -0.4015  0.0866  0.6368
   16MOL0     C 2071  10.055   0.813   7.707 -0.9877  0.3112 -0.7406
   16MOL0     O 2072  10.371   0.850   7.499  0.0075  0.8025  0.2179
   16MOL0     C 2073  10.176   1.104   7.332 -0.0222 -0.1325  0.1842
   16MOL0     C 2074  10.178   1.218   7.262 -0.0975 -0.0209  0.6984
   16MOL0     N 2075  10.013   1.691   6.637 -0.4347  0.7617  0.0797
   16MOL0     N 2076   9.908   1.762   6.608  0.7975  0.0919 -0.7047
   16MOL0     C 2077   8.854   2.304   7.182 -0.0203 -0.6186  1.2898
   16MOL0     C 2078   8.740   2.292   7.265  0.4606  0.3301 -0.3582
   16MOL0     C 2079   8.320   2.333   7.392  0.5192  0.8692 -0.6782
   16MOL0     C 2080   8.332   2.235   7.492  0.1899 -0.2327 -0.1506
   16MOL0     C 2081   8.250   2.222   7.601 -0.3701  0.3538  0.4084
   16MOL0     C 2082   8.141   2.316   7.607  0.1048  0.2379 -0.2812
   16MOL0     O 2083   8.056   2.315   7.703  0.4127 -0.6293 -0.3693
   16MOL0     C 2084   8.042   2.196   7.777 -0.0482 -0.3346  1.8535
   16MOL0     C 2085   7.910   2.201   7.850 -0.2196 -0.3588 -0.3813
   16MOL0     C 2086   7.877   2.072   7.925  0.1885 -0.3778  0.7037
   16MOL0     C 2087   7.730   2.070   7.975  0.1459  0.5501 -0.3849
   16MOL0     C 2088   7.630   2.080   7.866 -0.0310  0.4416  0.7838
   16MOL0     C 2089   7.560   2.074   7.764  0.3148 -0.0340  0.5981
   16MOL0     C 2090   8.125   2.415   7.508  0.4687  0.3027  0.7246
   16MOL0     C 2091   8.211   2.424   7.404 -0.0380  0.3258 -0.3793
   16MOL0     C 2092   8.173   2.530   7.308  0.2040 -0.0159 -0.7229
   16MOL0     H 2093   8.546   2.102   7.059  1.6169 -1.1453 -1.5335
   16MOL0     H 2094   8.748   2.108   6.914 -2.0315  0.1689 -0.7524
   16MOL0     H 2095   8.975   2.062   6.940 -0.6115 -0.6007 -2.1847
   16MOL0     H 2096   9.096   2.153   6.854  2.2726 -2.2431  1.6182
   16MOL0     H 2097   9.079   2.104   7.153  3.7565  0.0512  1.7372
   16MOL0     H 2098   9.196   2.220   7.078 -1.1942  0.9174  2.3476
   16MOL0     H 2099   9.168   1.925   6.983  0.3849 -0.2297  1.1074
   16MOL0     H 2100   9.232   1.961   7.137 -0.6502  0.8015  0.2161
   16MOL0     H 2101   9.317   2.080   6.876 -0.5644 -2.6410 -0.3696
   16MOL0     H 2102   9.380   2.118   7.045 -3.7784  0.5821  0.4882
   16MOL0     H 2103   9.488   1.899   7.040 -2.0880  0.0850  1.0798
   16MOL0     H 2104   9.388   1.834   6.920 -0.2277  0.9405 -1.7446
   16MOL0     H 2105   9.487   2.000   6.749  2.0953  0.3349 -0.6816
   16MOL0     H 2106   9.583   2.065   6.875  1.3525  0.4648 -3.1592
   16MOL0     H 2107   9.598   1.788   6.763 -1.2487 -0.1807  0.7678
   16MOL0     H 2108   9.695   1.841   6.913  1.3871  2.1680 -0.2776
   16MOL0     H 2109   9.701   1.952   6.638  2.8459 -0.2340 -0.9841
   16MOL0     H 2110   9.789   2.030   6.767 -1.6174 -0.1036  0.8486
   16MOL0     H 2111   9.957   1.835   6.926  0.7239  0.1699  0.5444
   16MOL0     H 2112  10.229   1.618   6.793  1.8955  1.1772  2.7673
   16MOL0     H 2113  10.179   1.694   6.941 -1.3206 -0.7104  1.6975
   16MOL0     H 2114   9.995   1.536   6.975 -0.1935  0.6514 -0.4133
   16MOL0     H 2115  10.034   1.444   6.830  1.1594  0.3721 -1.3554
   16MOL0     H 2116  10.272   1.429   6.941 -1.2610  1.6454 -0.4549
   16MOL0     H 2117  10.152   1.318   6.996 -3.2067 -0.8050 -1.6112
   16MOL0     H 2118  10.111   1.465   7.196  0.9952  0.0457  1.7131
   16MOL0     H 2119  10.214   1.591   7.124 -0.6668 -0.0872 -1.9221
   16MOL0     H 2120  10.502   1.280   7.266 -1.0536 -0.7333 -2.9412
   16MOL0     H 2121  10.504   1.076   7.415 -1.3877  1.8213  5.3936
   16MOL0     H 2122  10.164   0.645   7.440 -3.5565  0.2313 -1.7455
   16MOL0     H 2123  10.107   0.445   7.587 -1.0215  0.1758  0.4144
   16MOL0     H 2124   9.849   0.405   7.697 -2.4040  1.5760  1.3201
   16MOL0     H 2125   9.964   0.290   7.764 -0.9211 -0.2671 -2.0408
   16MOL0     H 2126   9.835   0.354   7.991 -0.7170  3.7096  0.2643
   16MOL0     H 2127   9.722   0.429   7.884  0.0004  0.2011  0.9433
   16MOL0     H 2128   9.804   0.150   7.829 -0.7866  0.6133 -3.0884
   16MOL0     H 2129   9.674   0.181   7.944 -0.1988 -2.9359 -2.2836
   16MOL0     H 2130   9.677   0.263   7.663  0.4123  0.1857  0.1229
   16MOL0     H 2131   9.551   0.301   7.790  1.3279 -1.1827  6.0828
   16MOL0     H 2132   9.536   0.042   7.818  0.1096  0.6761  0.4246
   16MOL0     H 2133   9.627   0.023   7.661 -0.1637  0.0508 -0.4205
   16MOL0     H 2134   9.404  -0.005   7.612  2.3858 -0.5767 -1.2273
   16MOL0     H 2135   9.352   0.121   7.712 -0.2994 -1.9553 -0.4403
   16MOL0     H 2136   9.506   0.175   7.453  0.0570  0.4894 -1.4425
   16MOL0     H 2137   9.461   0.292   7.555  3.7344 -1.4539 -1.4525
   16MOL0     H 2138   9.299   0.286   7.388  3.7356 -1.3042 -1.2056
   16MOL0     H 2139   9.264   0.102   7.417  1.7871 -1.0475  1.7548
   16MOL0     H 2140   9.997   0.731   7.897  1.2808  1.7316  0.8055
   16MOL0     H 2141  10.060   0.914   7.747 -0.4169  0.7980 -1.9895
   16MOL0     H 2142  10.078   1.061   7.351  0.0251 -1.5251 -2.2653
   16MOL0     H 2143  10.086   1.261   7.222 -0.3290 -0.6059  0.5959
   16MOL0     H 2144   8.933   2.371   7.217 -0.6231  1.6708 -1.3892
   16MOL0     H 2145   8.735   2.343   7.360 -2.8469 -3.0365  1.5662
   16MOL0     H 2146   8.405   2.155   7.492 -0.7221 -1.0895  0.2164
   16MOL0     H 2147   8.281   2.139   7.663  2.5978 -0.5828 -2.0918
   16MOL0     H 2148   8.128   2.179   7.841  3.2407 -2.4481 -2.5649
   16MOL0     H 2149   8.039   2.113   7.705 -1.3431  1.4509 -0.2963
   16MOL0     H 2150   7.841   2.219   7.766  1.6138 -0.4874 -1.9966
   16MOL0     H 2151   7.902   2.282   7.922 -2.8014  0.7034 -1.7365
   16MOL0     H 2152   7.952   2.048   8.001 -1.4172 -2.4700  1.7295
   16MOL0     H 2153   7.892   1.994   7.850 -3.1358  0.6392 -1.2319
   16MOL0     H 2154   7.714   1.976   8.028 -0.1864  1.7478  1.7397
   16MOL0     H 2155   7.703   2.151   8.043  1.1537  1.1315 -0.6574
   16MOL0     H 2156   7.477   2.081   7.696 -1.1364 -0.1458  2.2941
   16MOL0     H 2157   8.046   2.488   7.521 -2.1996 -2.0445 -0.9108
   16MOL0     H 2158   8.266   2.578   7.277  0.8850 -1.5422 -1.1584
   16MOL0     H 2159   8.124   2.482   7.222 -1.4800  0.4675 -0.0780
   16MOL0     H 2160   8.105   2.607   7.346 -1.1999 -1.1956 -0.7533
   17MOL0     O 2161   2.552  11.130  10.938 -0.0825 -0.5912 -0.0597
   17MOL0     C 2162   2.540  11.242  10.988 -1.0971  0.3882 -0.0028
   17MOL0     O 2163   2.640  11.329  11.024  1.1145 -0.5269 -0.2631
   17MOL0     C 2164   2.769  11.288  10.995  1.0808  0.5670 -0.2798
   17MOL0     C 2165   2.866  11.317  11.082 -0.8527  0.3275 -0.0077
   17MOL0     C 2166   3.002  11.307  11.044  0.8301 -0.3685 -0.4257
   17MOL0     C 2167   3.043  11.255  10.923  0.2815 -0.2670 -0.4526
   17MOL0     O 2168   3.173  11.246  10.888 -0.3816 -0.3852  0.0867
   17MOL0     C 2169   3.215  11.140  10.798  0.1244  0.4438  0.1232
   17MOL0     C 2170   3.367  11.126  10.787 -0.2902  0.7844 -0.1964
   17MOL0     C 2171   3.402  11.022  10.893 -0.0811  0.5590  0.1258
   17MOL0     C 2172   3.555  10.993  10.906  0.6393  0.2839  0.2225
   17MOL0     C 2173   3.591  10.848  10.956  1.1817 -0.5474 -0.1417
   17MOL0     C 2174   3.736  10.849  11.011 -0.5440  0.4747  0.3176
   17MOL0     C 2175   3.834  10.889  10.892 -0.1960 -0.2060 -1.0795
   17MOL0     C 2176   3.971  10.822  10.932  0.6444 -0.0239  0.0784
   17MOL0     N 2177   4.064  10.868  10.828 -0.0264  0.1201  0.2780
   17MOL0     C 2178   4.117  10.788  10.727 -0.0511 -0.2062 -0.3349
   17MOL0     C 2179   4.214  10.859  10.664 -0.7239 -0.2871  0.1663
   17MOL0     C 2180   4.297  10.819  10.553  0.3762 -0.8026  0.0641
   17MOL0     C 2181   4.448  10.843  10.556 -0.4364  0.9676 -0.4947
   17MOL0     C 2182   4.519  10.743  10.656  0.9598  0.0964 -0.1035
   17MOL0     C 2183   4.659  10.799  10.669  0.1028 -0.1494  0.3565
   17MOL0     O 2184   4.755  10.730  10.583 -0.5445  0.3381 -0.1685
   17MOL0     C 2185   4.886  10.768  10.573 -0.2801  1.1193  0.3460
   17MOL0     C 2186   4.979  10.685  10.499  0.6765 -0.6831 -0.0193
   17MOL0     C 2187   5.108  10.730  10.469 -0.3731  0.4620 -0.0511
   17MOL0     C 2188   5.151  10.862  10.509 -0.5677  0.1399  0.1153
   17MOL0     C 2189   5.294  10.901  10.490  0.2942 -0.0042 -0.3959
   17MOL0     O 2190   5.380  10.814  10.436  0.5787 -0.3962 -0.3765
   17MOL0     C 2191   5.516  10.841  10.404  0.4114 -0.4042 -0.9093
   17MOL0     C 2192   5.598  10.925  10.483 -1.1442 -0.3733 -0.0291
   17MOL0     C 2193   5.733  10.952  10.451 -0.1270  0.0408  0.5415
   17MOL0     C 2194   5.786  10.903  10.330 -0.4558 -0.5313 -0.9951
   17MOL0     O 2195   5.917  10.924  10.302 -0.6280 -0.0791  0.6092
   17MOL0     C 2196   5.995  11.027  10.368 -0.4326  0.3167 -0.1236
   17MOL0     C 2197   6.120  11.070  10.297  0.0014 -0.0866  0.1460
   17MOL0     C 2198   6.067  11.135  10.156  0.4042 -0.2066 -0.6416
   17MOL0     C 2199   6.185  11.171  10.062  1.0281 -0.3421 -0.7058
   17MOL0     C 2200   6.282  11.053  10.029 -0.1171 -0.4590  0.7004
   17MOL0     C 2201   6.344  11.066   9.885 -0.4752 -0.2722  0.4909
   17MOL0     C 2202   6.442  10.948   9.866  0.5397 -0.7150 -0.2854
   17MOL0     C 2203   6.478  10.944   9.710 -0.0557 -0.4497  0.4692
   17MOL0    Cl 2204   6.578  11.091   9.665 -0.1537  0.5608  0.0310
   17MOL0     C 2205   5.711  10.806  10.259 -0.1799 -0.4806 -0.0160
   17MOL0     C 2206   5.579  10.777  10.294 -0.9085  0.4241  0.1036
   17MOL0     O 2207   5.322  11.017  10.528  0.3859 -0.1975 -0.2723
   17MOL0     C 2208   5.055  10.944  10.568  0.3480  0.4267 -0.0541
   17MOL0     C 2209   4.934  10.892  10.613  0.9268  0.2095 -0.2429
   17MOL0     N 2210   4.224  10.982  10.737  0.0583  0.6006  0.0847
   17MOL0     N 2211   4.136  10.981  10.833  0.0952 -0.4560 -0.2424
   17MOL0     C 2212   2.945  11.210  10.840  0.0490  0.7254 -1.0312
   17MOL0     C 2213   2.806  11.232  10.875 -0.1769  0.5826  0.0698
   17MOL0     C 2214   2.399  11.287  10.992  1.1613  0.8504 -0.0003
   17MOL0     C 2215   2.323  11.252  10.874  0.6467  0.2375 -0.3925
   17MOL0     C 2216   2.187  11.274  10.870 -0.0874  0.5917  0.5464
   17MOL0     C 2217   2.124  11.330  10.979  0.7944  0.1916 -0.0929
   17MOL0     O 2218   1.984  11.334  10.966 -0.3600  1.0107  0.1660
   17MOL0     C 2219   1.910  11.415  11.050 -0.1429  0.1256 -0.0590
   17MOL0     C 2220   1.765  11.397  11.006  0.1595 -0.2841 -0.6216
   17MOL0     C 2221   1.677  11.481  11.099  0.1151  0.0190 -0.2315
   17MOL0     C 2222   1.532  11.464  11.049 -0.4455 -0.4005 -0.6557
   17MOL0     C 2223   1.443  11.550  11.136 -0.8690  0.1959  0.2936
   17MOL0     C 2224   1.387  11.641  11.200 -0.7532 -0.1393  0.6894
   17MOL0     C 2225   2.193  11.362  11.092  0.1633 -0.7205 -0.3910
   17MOL0     C 2226   2.327  11.340  11.105 -0.0210  0.5838  0.3593
   17MOL0     C 2227   2.391  11.351  11.232 -1.1620 -0.2206  0.0211
   17MOL0     H 2228   2.850  11.365  11.178  1.6409 -0.0161  0.6464
   17MOL0     H 2229   3.071  11.343  11.120  2.0872 -1.6956 -0.8824
   17MOL0     H 2230   3.183  11.038  10.822  4.4593 -0.6262  2.4204
   17MOL0     H 2231   3.177  11.170  10.699  1.8588  2.9100  0.1130
   17MOL0     H 2232   3.417  11.220  10.811  0.3705  0.3029  0.3495
   17MOL0     H 2233   3.406  11.081  10.695  0.0454  0.5714  0.0487
   17MOL0     H 2234   3.350  10.928  10.874 -0.0076 -0.0089  2.4732
   17MOL0     H 2235   3.359  11.044  10.991 -0.2052 -0.5716  0.3404
   17MOL0     H 2236   3.599  11.012  10.807 -1.4515 -0.5854 -0.9486
   17MOL0     H 2237   3.601  11.065  10.974  3.2925 -1.2083  0.1439
   17MOL0     H 2238   3.520  10.820  11.035  2.2609  0.2144  1.1267
   17MOL0     H 2239   3.580  10.783  10.869 -3.3416 -0.1359 -0.1327
   17MOL0     H 2240   3.748  10.926  11.088  1.8582  0.1093  0.3731
   17MOL0     H 2241   3.764  10.753  11.055  1.1476  0.4755 -0.6755
   17MOL0     H 2242   3.841  10.997  10.878 -2.2272  0.2201  0.6786
   17MOL0     H 2243   3.809  10.832  10.802  1.2684 -0.3487 -1.4109
   17MOL0     H 2244   4.009  10.849  11.031  0.7288  1.3254 -0.3119
   17MOL0     H 2245   3.969  10.713  10.923  0.5586 -0.1554  1.4861
   17MOL0     H 2246   4.082  10.689  10.698  0.7799 -0.9930  1.2032
   17MOL0     H 2247   4.272  10.715  10.532 -2.1696 -0.5788  1.5274
   17MOL0     H 2248   4.262  10.881  10.469 -0.0024 -0.9117  0.1382
   17MOL0     H 2249   4.500  10.829  10.461  3.5777 -2.0101  1.8333
   17MOL0     H 2250   4.479  10.943  10.586 -0.2696  0.6059  0.5893
   17MOL0     H 2251   4.519  10.640  10.619  0.7839  1.0306 -2.9326
   17MOL0     H 2252   4.471  10.753  10.754  1.3655  3.7075 -0.1290
   17MOL0     H 2253   4.692  10.786  10.772 -2.1029 -5.7935  0.7190
   17MOL0     H 2254   4.655  10.907  10.650  0.4711 -0.3294 -0.8437
   17MOL0     H 2255   4.944  10.590  10.459  0.5615 -0.0634 -1.4339
   17MOL0     H 2256   5.175  10.654  10.430 -1.3693 -0.3121 -0.2966
   17MOL0     H 2257   5.555  10.967  10.573  0.4054 -2.8008  1.9720
   17MOL0     H 2258   5.788  11.023  10.512 -0.8710  0.3708  0.8317
   17MOL0     H 2259   5.925  11.112  10.372  0.0008  0.6902 -0.3097
   17MOL0     H 2260   6.023  10.984  10.465 -0.6376 -1.2707 -0.7489
   17MOL0     H 2261   6.166  11.149  10.358 -0.1177  1.4789 -1.6884
   17MOL0     H 2262   6.191  10.990  10.276 -0.2495 -0.0287 -0.9701
   17MOL0     H 2263   6.016  11.049  10.109 -1.4334  0.0518  0.7520
   17MOL0     H 2264   5.991  11.212  10.172  1.7375  0.7380  1.4831
   17MOL0     H 2265   6.251  11.247  10.105  0.0868 -1.6308  3.4809
   17MOL0     H 2266   6.146  11.210   9.968 -1.7841  0.5507  0.7187
   17MOL0     H 2267   6.224  10.962  10.046 -0.3637 -0.7737 -1.5201
   17MOL0     H 2268   6.359  11.057  10.106 -0.8769  1.0349  1.4235
   17MOL0     H 2269   6.268  11.068   9.807  0.9042 -0.8282 -0.9090
   17MOL0     H 2270   6.399  11.160   9.885 -0.4761 -0.2238 -1.7907
   17MOL0     H 2271   6.390  10.858   9.900 -1.1248  0.8959  1.6891
   17MOL0     H 2272   6.531  10.961   9.927 -0.1875  2.8723  0.2717
   17MOL0     H 2273   6.535  10.855   9.683 -0.9178 -0.7783 -0.3362
   17MOL0     H 2274   6.393  10.930   9.642  1.0699 -2.9458 -0.5621
   17MOL0     H 2275   5.760  10.762  10.172 -1.6317  0.8711 -1.5806
   17MOL0     H 2276   5.520  10.718  10.225 -2.7890  1.5405  0.6695
   17MOL0     H 2277   5.076  11.049  10.589 -0.3743  0.0154  3.1502
   17MOL0     H 2278   4.863  10.945  10.674 -1.0146 -1.0695 -1.2891
   17MOL0     H 2279   2.972  11.175  10.741 -2.1069 -0.7102 -1.1748
   17MOL0     H 2280   2.729  11.207  10.802  0.6599  1.9400 -1.3543
   17MOL0     H 2281   2.367  11.214  10.783 -0.7104  0.3467 -1.1252
   17MOL0     H 2282   2.142  11.242  10.777  1.6203  1.5063 -0.6379
   17MOL0     H 2283   1.940  11.519  11.035 -1.3723  0.4194 -0.5423
   17MOL0     H 2284   1.927  11.391  11.156 -1.2961 -0.2300  0.0579
   17MOL0     H 2285   1.747  11.290  11.021  1.0659 -0.0849  2.4413
   17MOL0     H 2286   1.751  11.427  10.902  1.6140 -0.7828 -0.9871
   17MOL0     H 2287   1.699  11.588  11.101 -2.7620  0.7224 -0.4291
   17MOL0     H 2288   1.682  11.447  11.203 -2.4193  0.0372 -0.0407
   17MOL0     H 2289   1.537  11.493  10.944  0.6011 -0.4453 -0.6347
   17MOL0     H 2290   1.501  11.359  11.051 -1.4340 -0.1083 -0.0271
   17MOL0     H 2291   1.351  11.729  11.250 -0.3679  1.0792 -1.0772
   17MOL0     H 2292   2.137  11.410  11.171  0.6299 -1.7176  0.5749
   17MOL0     H 2293   2.315  11.342  11.310 -0.1255 -2.0825  0.8946
   17MOL0     H 2294   2.447  11.259  11.254  0.5745  1.0428  1.1658
   17MOL0     H 2295   2.467  11.428  11.245 -0.6303 -0.5623 -0.9719
   18MOL0     O 2296  11.229   4.074   5.025 -0.4500 -0.2080  0.5844
   18MOL0     C 2297  11.184   4.174   5.079  0.0974  0.0863  0.4829
   18MOL0     O 2298  11.262   4.288   5.101 -0.0376  0.2776 -0.7290
   18MOL0     C 2299  11.397   4.281   5.118  0.8454  0.0716  0.0468
   18MOL0     C 2300  11.455   4.175   5.189 -0.0769  0.6777  0.7107
   18MOL0     C 2301  11.586   4.160   5.203 -0.1826 -0.1978 -0.2519
   18MOL0     C 2302  11.679   4.261   5.158 -0.0732  0.4007 -0.0439
   18MOL0     O 2303  11.814   4.239   5.184  0.4986 -0.0449 -0.4959
   18MOL0     C 2304  11.905   4.346   5.210  0.0256 -0.8320  0.0774
   18MOL0     C 2305  12.006   4.303   5.324  0.6117  0.0600  0.6818
   18MOL0     C 2306  12.101   4.199   5.275 -0.7349  0.8874  0.1016
   18MOL0     C 2307  12.198   4.151   5.384  0.2658 -0.1065 -0.4766
   18MOL0     C 2308  12.142   4.039   5.474  0.9569  0.6701 -0.9495
   18MOL0     C 2309  12.257   3.992   5.575  0.2307 -0.2249 -1.0396
   18MOL0     C 2310  12.247   3.841   5.597 -0.6486  0.0353 -0.4574
   18MOL0     C 2311  12.330   3.800   5.724  0.0055  0.2478  0.6263
   18MOL0     N 2312  12.275   3.848   5.852  0.9252  0.2166 -0.0006
   18MOL0     C 2313  12.141   3.830   5.882  0.2715  0.6899 -0.7766
   18MOL0     C 2314  12.114   3.894   5.996  0.4773  0.5016  0.6017
   18MOL0     C 2315  11.980   3.918   6.060  0.5949  0.6175 -1.1171
   18MOL0     C 2316  11.860   3.942   5.961  0.1496  0.1816 -0.3508
   18MOL0     C 2317  11.731   3.965   6.045  1.1981 -0.3510 -0.1303
   18MOL0     C 2318  11.599   3.981   5.977 -0.1217  0.4871  0.1015
   18MOL0     O 2319  11.567   3.870   5.885 -0.3238  0.3559 -0.4811
   18MOL0     C 2320  11.441   3.880   5.836 -0.4294  0.2115 -0.0346
   18MOL0     C 2321  11.377   3.758   5.812  0.2068  0.8545  0.2037
   18MOL0     C 2322  11.249   3.761   5.734 -1.3479 -1.1470 -0.0953
   18MOL0     C 2323  11.187   3.882   5.701  0.4178  0.3547 -0.0039
   18MOL0     C 2324  11.048   3.886   5.644 -0.2893 -0.5028 -0.0221
   18MOL0     O 2325  10.984   3.766   5.652 -0.1022  0.6511  0.2706
   18MOL0     C 2326  10.853   3.767   5.605  0.6658 -0.3373 -0.4526
   18MOL0     C 2327  10.808   3.668   5.513 -1.1407  0.2463 -0.8053
   18MOL0     C 2328  10.677   3.656   5.468 -0.0860 -0.0614 -0.7730
   18MOL0     C 2329  10.575   3.746   5.516  0.3347  0.2755  0.1810
   18MOL0     O 2330  10.456   3.749   5.443  0.6933  0.1327  0.3070
   18MOL0     C 2331  10.347   3.830   5.507 -0.5901 -1.0029 -0.0675
   18MOL0     C 2332  10.227   3.774   5.442  0.3907 -0.4460 -0.4897
   18MOL0     C 2333  10.205   3.806   5.293 -0.3741  0.4633  0.2279
   18MOL0     C 2334  10.059   3.784   5.245 -0.4838  0.0390  0.1116
   18MOL0     C 2335  10.046   3.835   5.094  0.0807  1.3703  0.0140
   18MOL0     C 2336   9.929   3.771   5.029 -0.6020 -1.1086  0.9614
   18MOL0     C 2337   9.803   3.811   5.112  0.1363 -0.4528 -0.1872
   18MOL0     C 2338   9.672   3.791   5.038  1.0489  0.6903 -0.6279
   18MOL0    Cl 2339   9.647   3.910   4.904  0.4260 -0.1822  0.1572
   18MOL0     C 2340  10.614   3.836   5.626 -0.6335  0.1765  0.4052
   18MOL0     C 2341  10.752   3.847   5.656  0.2452  0.3229 -0.3686
   18MOL0     O 2342  11.003   3.993   5.598  0.2809 -0.1793 -0.1930
   18MOL0     C 2343  11.244   3.998   5.738 -0.3752 -0.1097 -0.8972
   18MOL0     C 2344  11.369   4.000   5.806  0.2334  0.0484 -0.5562
   18MOL0     N 2345  12.235   3.956   6.027  0.2239  0.7063 -0.9832
   18MOL0     N 2346  12.330   3.929   5.949 -0.3689 -0.6016  0.1349
   18MOL0     C 2347  11.626   4.386   5.113 -0.1255  0.5701  0.1067
   18MOL0     C 2348  11.487   4.388   5.083 -0.4918  0.2762 -0.0882
   18MOL0     C 2349  11.044   4.180   5.103  0.3399  0.4453  0.1990
   18MOL0     C 2350  10.962   4.190   4.996  0.0837  0.2679  0.0835
   18MOL0     C 2351  10.818   4.200   5.016 -0.7053  0.0328  0.3898
   18MOL0     C 2352  10.762   4.198   5.145  0.5289  0.5126 -0.6043
   18MOL0     O 2353  10.633   4.205   5.180 -0.0045  0.8340  0.4615
   18MOL0     C 2354  10.524   4.202   5.087 -0.3906 -0.7730 -0.1474
   18MOL0     C 2355  10.475   4.348   5.062  0.5726  0.0105 -0.2157
   18MOL0     C 2356  10.375   4.354   4.937  1.2157  0.7922 -0.2735
   18MOL0     C 2357  10.254   4.255   4.926  0.3256 -1.0757 -0.5990
   18MOL0     C 2358  10.178   4.259   4.800 -0.8213 -0.6658 -0.1938
   18MOL0     C 2359  10.140   4.266   4.680  0.5270 -0.0615 -0.1248
   18MOL0     C 2360  10.848   4.177   5.252 -0.4022  0.6214 -0.5186
   18MOL0     C 2361  10.990   4.174   5.235 -0.9283  0.4208 -0.0387
   18MOL0     C 2362  11.082   4.175   5.353  0.4257  0.0602  0.7950
   18MOL0     H 2363  11.383   4.100   5.221 -1.2788 -0.2214 -3.4226
   18MOL0     H 2364  11.622   4.076   5.262 -3.0741 -0.6160  1.0620
   18MOL0     H 2365  11.950   4.389   5.119  0.4316 -0.3793  0.4862
   18MOL0     H 2366  11.853   4.433   5.251 -0.9522 -1.7683  0.8568
   18MOL0     H 2367  11.943   4.256   5.399 -2.1947 -0.7603 -2.0049
   18MOL0     H 2368  12.061   4.389   5.363  3.0368 -1.7753  1.5768
   18MOL0     H 2369  12.153   4.236   5.186  0.6863 -0.4959  0.3186
   18MOL0     H 2370  12.057   4.105   5.242  0.3951  0.4038 -0.0870
   18MOL0     H 2371  12.281   4.095   5.338  1.1129  2.0088 -1.6558
   18MOL0     H 2372  12.242   4.234   5.440 -0.8445  0.6558 -0.6960
   18MOL0     H 2373  12.053   4.075   5.527  2.2704  0.8103  1.2994
   18MOL0     H 2374  12.115   3.955   5.410  0.6522 -0.0481  0.0903
   18MOL0     H 2375  12.355   4.021   5.535 -0.1437  0.3772 -1.5280
   18MOL0     H 2376  12.259   4.048   5.669 -2.6462 -1.5515 -0.0948
   18MOL0     H 2377  12.297   3.784   5.518  0.0588 -1.1506  0.8069
   18MOL0     H 2378  12.141   3.814   5.597 -2.1036  4.8323  0.3552
   18MOL0     H 2379  12.340   3.691   5.738 -0.3711 -0.1716 -1.9239
   18MOL0     H 2380  12.435   3.827   5.705  0.6435 -0.9875  2.1293
   18MOL0     H 2381  12.084   3.765   5.816  1.8343  1.5266 -3.0613
   18MOL0     H 2382  11.949   3.834   6.122  0.0887  0.8753 -1.0172
   18MOL0     H 2383  11.993   4.006   6.124 -1.9247 -0.3646  0.9332
   18MOL0     H 2384  11.889   4.029   5.902  1.5540 -0.0650 -0.0610
   18MOL0     H 2385  11.854   3.850   5.902 -0.8044  0.7956 -1.2602
   18MOL0     H 2386  11.744   4.055   6.106 -1.4692 -0.9545  1.5110
   18MOL0     H 2387  11.719   3.878   6.109  2.3970 -1.4018 -1.2926
   18MOL0     H 2388  11.611   4.067   5.910  2.0005  0.1993  0.0305
   18MOL0     H 2389  11.515   3.997   6.044 -1.5919  0.6846 -1.7042
   18MOL0     H 2390  11.430   3.665   5.828 -0.6682  0.3496  0.2440
   18MOL0     H 2391  11.191   3.669   5.729 -1.9953 -0.8907  1.7807
   18MOL0     H 2392  10.885   3.602   5.474 -0.9141  1.6303 -2.8711
   18MOL0     H 2393  10.663   3.590   5.383 -0.3133 -1.6789  0.4724
   18MOL0     H 2394  10.336   3.810   5.614 -0.3726 -2.5926 -0.3264
   18MOL0     H 2395  10.350   3.936   5.482  2.0156 -0.7652  0.9423
   18MOL0     H 2396  10.233   3.667   5.465  2.7595 -0.4781 -1.0856
   18MOL0     H 2397  10.138   3.809   5.495 -0.0227 -0.7841 -0.9448
   18MOL0     H 2398  10.225   3.913   5.282 -1.5524  0.9499  2.2199
   18MOL0     H 2399  10.274   3.747   5.233 -0.7462 -0.6612  0.8800
   18MOL0     H 2400   9.990   3.833   5.315  0.7919  2.1745 -0.0228
   18MOL0     H 2401  10.046   3.676   5.237  4.2896 -0.6135 -2.5694
   18MOL0     H 2402  10.132   3.798   5.038 -2.5623 -5.0289 -0.7780
   18MOL0     H 2403  10.047   3.944   5.089 -4.1071  1.5924  0.4185
   18MOL0     H 2404   9.916   3.818   4.931  1.8984 -2.7521 -0.2494
   18MOL0     H 2405   9.949   3.666   5.009 -1.0861 -1.0449  0.0826
   18MOL0     H 2406   9.813   3.919   5.119  1.7342 -0.3642 -2.5064
   18MOL0     H 2407   9.805   3.764   5.211  0.3785 -1.3012 -0.5790
   18MOL0     H 2408   9.663   3.690   4.997  3.8758  0.1256 -0.0626
   18MOL0     H 2409   9.591   3.806   5.110 -0.3047 -1.9124 -1.4884
   18MOL0     H 2410  10.546   3.910   5.667 -1.4542 -0.3866  0.0797
   18MOL0     H 2411  10.785   3.928   5.721  0.7347 -1.0181  1.1207
   18MOL0     H 2412  11.184   4.088   5.731  1.5504  1.2772 -0.4740
   18MOL0     H 2413  11.402   4.096   5.845  1.2335 -0.7878  0.7180
   18MOL0     H 2414  11.686   4.473   5.088  0.4380  0.2225  0.2303
   18MOL0     H 2415  11.450   4.473   5.026 -0.7562 -0.1298 -0.5211
   18MOL0     H 2416  11.004   4.197   4.897 -2.7257  3.2133 -1.1077
   18MOL0     H 2417  10.762   4.218   4.925  1.4173  2.5135 -0.5325
   18MOL0     H 2418  10.442   4.145   5.133 -0.8316  0.1819  0.2705
   18MOL0     H 2419  10.547   4.163   4.988 -1.6496  0.5552 -0.9997
   18MOL0     H 2420  10.561   4.414   5.046 -0.7653  1.4828 -1.7015
   18MOL0     H 2421  10.419   4.380   5.149  0.1944 -2.0922  0.3722
   18MOL0     H 2422  10.435   4.340   4.847  1.7021 -1.2031  0.3182
   18MOL0     H 2423  10.342   4.458   4.928 -1.9026 -0.0782 -0.1028
   18MOL0     H 2424  10.300   4.155   4.930  0.6773 -0.8888  0.3370
   18MOL0     H 2425  10.187   4.282   5.008  1.5518 -0.6327  0.2973
   18MOL0     H 2426  10.109   4.283   4.579 -0.0473  0.7967  0.1872
   18MOL0     H 2427  10.806   4.176   5.352 -0.3038 -0.2502 -0.4751
   18MOL0     H 2428  11.160   4.098   5.359  0.2702 -0.0452  1.6278
   18MOL0     H 2429  11.124   4.276   5.348 -1.1785  0.6706 -1.4127
   18MOL0     H 2430  11.031   4.179   5.450  0.6751  1.2615  0.8868
   19MOL0     O 2431   1.112   5.837   5.955  0.1656 -0.7276  0.4757
   19MOL0     C 2432   1.115   5.956   5.930  0.9706  0.0847  0.6942
   19MOL0     O 2433   1.196   6.045   5.984 -0.0798 -0.0586 -0.0403
   19MOL0     C 2434   1.279   5.998   6.084  0.1461 -1.0135 -0.0394
   19MOL0     C 2435   1.251   6.041   6.209 -0.9198 -0.0090 -1.1423
   19MOL0     C 2436   1.342   6.024   6.304 -0.0194 -0.3153 -0.5447
   19MOL0     C 2437   1.465   5.954   6.282  0.1481 -0.5718  0.0623
   19MOL0     O 2438   1.548   5.943   6.389 -0.0105  0.1979 -0.3090
   19MOL0     C 2439   1.647   5.831   6.373 -0.1864 -0.4643  0.2033
   19MOL0     C 2440   1.697   5.800   6.512 -0.1804 -0.6703  0.7456
   19MOL0     C 2441   1.834   5.729   6.515  0.7140  0.6117 -0.7256
   19MOL0     C 2442   1.947   5.819   6.564  0.0216 -0.1291 -0.2575
   19MOL0     C 2443   2.071   5.744   6.606 -0.4431  0.6889 -0.0411
   19MOL0     C 2444   2.044   5.658   6.731  0.5296 -0.1183 -0.0489
   19MOL0     C 2445   2.166   5.583   6.796 -0.0964 -0.1139  0.6266
   19MOL0     C 2446   2.200   5.466   6.709  0.4482  0.8043 -0.2081
   19MOL0     N 2447   2.322   5.412   6.755 -0.0478 -0.3752  0.8268
   19MOL0     C 2448   2.331   5.336   6.865  0.2910 -0.2040  0.2451
   19MOL0     C 2449   2.454   5.330   6.899  0.3946 -0.2882  0.3342
   19MOL0     C 2450   2.507   5.277   7.028 -0.0506 -0.8276  0.4440
   19MOL0     C 2451   2.488   5.375   7.144 -0.2613 -0.2704  0.6720
   19MOL0     C 2452   2.563   5.512   7.127 -0.2966 -0.0044 -0.2265
   19MOL0     C 2453   2.716   5.499   7.149  0.0816  0.7685  0.4634
   19MOL0     O 2454   2.778   5.632   7.150 -0.2814  0.4378  0.6651
   19MOL0     C 2455   2.834   5.680   7.034  0.5636  0.4667 -0.7894
   19MOL0     C 2456   2.920   5.789   7.050  0.8390 -0.2644 -0.2860
   19MOL0     C 2457   2.990   5.843   6.935  0.3445 -0.6130  0.2210
   19MOL0     C 2458   2.978   5.787   6.813  0.4775  0.0159  0.0890
   19MOL0     C 2459   3.058   5.837   6.695  0.1125 -0.6842 -0.0418
   19MOL0     O 2460   3.122   5.960   6.711  0.4462  0.0457  0.5943
   19MOL0     C 2461   3.200   5.995   6.609 -0.5511 -0.4789  0.1771
   19MOL0     C 2462   3.172   6.104   6.529 -0.0982 -0.7070 -0.0459
   19MOL0     C 2463   3.261   6.136   6.425  0.1956 -0.1562 -0.9320
   19MOL0     C 2464   3.376   6.062   6.404  0.7795 -0.7180 -0.5891
   19MOL0     O 2465   3.461   6.121   6.311  0.0242 -0.2425  0.0776
   19MOL0     C 2466   3.534   6.024   6.225 -0.4102 -0.7686  0.2370
   19MOL0     C 2467   3.455   5.964   6.111 -0.7162 -0.4228  0.0468
   19MOL0     C 2468   3.408   6.076   6.013 -0.3010  0.5021  0.9164
   19MOL0     C 2469   3.291   6.041   5.918 -0.2671  0.3083 -0.4307
   19MOL0     C 2470   3.277   6.141   5.802 -0.5012  0.5614  0.4277
   19MOL0     C 2471   3.181   6.090   5.692 -0.1561 -0.0436 -0.3279
   19MOL0     C 2472   3.049   6.054   5.746  0.0187  0.0067 -0.6657
   19MOL0     C 2473   2.951   6.037   5.630 -0.6295 -0.5365 -0.2675
   19MOL0    Cl 2474   2.905   6.185   5.558  0.0237  0.4160  0.0832
   19MOL0     C 2475   3.404   5.952   6.486 -1.2112  0.0973 -0.7603
   19MOL0     C 2476   3.317   5.928   6.593  0.1150  0.0308  0.0805
   19MOL0     O 2477   3.057   5.776   6.593  0.2657 -0.2230 -0.1377
   19MOL0     C 2478   2.902   5.672   6.800 -0.1314 -0.0613  0.2068
   19MOL0     C 2479   2.822   5.627   6.904  0.3567  0.4484  0.2387
   19MOL0     N 2480   2.525   5.381   6.794 -0.5402  0.4486  0.4633
   19MOL0     N 2481   2.449   5.442   6.714  0.8051 -0.1792 -0.4524
   19MOL0     C 2482   1.488   5.894   6.152 -0.0844  0.4853  0.5327
   19MOL0     C 2483   1.390   5.919   6.050 -1.5632  0.2393 -0.4898
   19MOL0     C 2484   1.039   6.004   5.804 -0.2846  0.4361 -0.7985
   19MOL0     C 2485   1.104   6.109   5.732  0.3295  0.1073  0.8836
   19MOL0     C 2486   1.052   6.150   5.607  0.2084  0.0849  0.1985
   19MOL0     C 2487   0.928   6.100   5.568 -0.0216  0.5791  0.6995
   19MOL0     O 2488   0.878   6.145   5.448  0.1049 -0.8998 -0.0916
   19MOL0     C 2489   0.924   6.245   5.362  0.2455 -0.0483 -0.3492
   19MOL0     C 2490   0.818   6.281   5.253  0.8166 -0.1816  0.6357
   19MOL0     C 2491   0.795   6.179   5.146  0.1023  0.6833 -0.4810
   19MOL0     C 2492   0.685   6.217   5.054  0.2396 -0.0665 -0.1210
   19MOL0     C 2493   0.646   6.104   4.969  0.1469 -0.3374  0.6531
   19MOL0     C 2494   0.616   5.989   4.925  0.3474 -1.1338  0.6498
   19MOL0     C 2495   0.857   6.003   5.636 -0.5102 -0.3690  0.1060
   19MOL0     C 2496   0.920   5.943   5.748 -0.1005  0.0752 -0.0756
   19MOL0     C 2497   0.842   5.844   5.829 -0.5800 -0.0257  0.6037
   19MOL0     H 2498   1.155   6.082   6.235 -0.4231 -0.4396  1.7387
   19MOL0     H 2499   1.323   6.053   6.406 -1.1949  1.0085 -1.1145
   19MOL0     H 2500   1.600   5.737   6.342 -2.2493 -0.2364  2.3127
   19MOL0     H 2501   1.733   5.851   6.310  0.7264  1.1407  1.8730
   19MOL0     H 2502   1.631   5.725   6.558  0.1265  0.8131  3.8827
   19MOL0     H 2503   1.701   5.891   6.572  1.7904  1.1404 -1.9164
   19MOL0     H 2504   1.861   5.680   6.421 -1.6450 -1.5367 -0.3931
   19MOL0     H 2505   1.822   5.644   6.584 -0.8312  2.9189  2.0722
   19MOL0     H 2506   1.966   5.895   6.488  0.3181 -2.6520 -2.8754
   19MOL0     H 2507   1.905   5.865   6.654  2.9662  2.3541 -0.0391
   19MOL0     H 2508   2.104   5.673   6.530 -1.3276 -0.0946  0.2915
   19MOL0     H 2509   2.146   5.816   6.641  0.4989  0.2885 -1.1532
   19MOL0     H 2510   1.999   5.726   6.804 -2.4304 -0.3596 -1.5147
   19MOL0     H 2511   1.977   5.574   6.712 -0.6340 -0.6275  4.8564
   19MOL0     H 2512   2.137   5.549   6.896 -1.8005 -1.1745 -0.1651
   19MOL0     H 2513   2.245   5.658   6.796  0.6965 -0.9212  0.3366
   19MOL0     H 2514   2.134   5.380   6.718  0.0934  1.1951  1.1540
   19MOL0     H 2515   2.213   5.488   6.603 -2.6590  1.7333 -0.4761
   19MOL0     H 2516   2.256   5.312   6.939  0.3589 -1.1143  0.0266
   19MOL0     H 2517   2.447   5.189   7.050  0.3669 -1.1924  0.1292
   19MOL0     H 2518   2.614   5.253   7.021  0.2400  0.5414 -0.1815
   19MOL0     H 2519   2.382   5.401   7.147  0.3146  2.2373  1.0979
   19MOL0     H 2520   2.519   5.322   7.235  1.5969 -2.6557 -1.1862
   19MOL0     H 2521   2.523   5.580   7.204  0.7690 -1.6499  1.9019
   19MOL0     H 2522   2.543   5.558   7.030 -1.8611  1.2978  0.6547
   19MOL0     H 2523   2.759   5.428   7.078  1.0343  2.9710 -1.2770
   19MOL0     H 2524   2.723   5.457   7.250  2.2074 -0.4040 -0.1247
   19MOL0     H 2525   2.940   5.833   7.147  0.2265 -0.6615  0.0281
   19MOL0     H 2526   3.056   5.928   6.951  1.7395 -1.8281  1.1788
   19MOL0     H 2527   3.079   6.161   6.537 -0.9558 -2.0900  0.1602
   19MOL0     H 2528   3.237   6.212   6.351  2.0179 -0.6800 -2.1315
   19MOL0     H 2529   3.621   6.074   6.183 -0.8941  1.8314  2.0614
   19MOL0     H 2530   3.573   5.939   6.281  2.2514 -1.9031 -3.0471
   19MOL0     H 2531   3.518   5.887   6.067 -1.8368 -2.5885  2.0288
   19MOL0     H 2532   3.366   5.915   6.150 -0.2417 -0.7737  0.6964
   19MOL0     H 2533   3.384   6.155   6.086 -1.8847  1.1143 -0.2164
   19MOL0     H 2534   3.488   6.104   5.944 -1.5543  0.4561 -0.6220
   19MOL0     H 2535   3.197   6.039   5.973  0.1515 -0.3072  0.2704
   19MOL0     H 2536   3.312   5.944   5.872  0.9109  0.9943 -1.3955
   19MOL0     H 2537   3.376   6.158   5.759 -0.1272 -0.3136  0.9310
   19MOL0     H 2538   3.257   6.243   5.837  1.8948  0.2601  3.0113
   19MOL0     H 2539   3.162   6.177   5.628 -1.6482  0.8012  1.1922
   19MOL0     H 2540   3.228   6.007   5.638 -0.4855  0.3402 -1.2339
   19MOL0     H 2541   3.020   6.129   5.821 -1.5856 -0.6251 -0.6247
   19MOL0     H 2542   3.052   5.964   5.808  1.1229  1.1903  1.1035
   19MOL0     H 2543   3.001   5.974   5.557  2.3328  0.5921  0.6106
   19MOL0     H 2544   2.857   5.993   5.664 -0.0311  0.9855  4.0526
   19MOL0     H 2545   3.497   5.897   6.483  1.0190  3.2562  2.5441
   19MOL0     H 2546   3.344   5.849   6.664  0.0525 -2.0440 -2.0904
   19MOL0     H 2547   2.887   5.620   6.706 -1.3166  0.0675  0.3082
   19MOL0     H 2548   2.767   5.535   6.889  0.2577 -0.2524  3.9479
   19MOL0     H 2549   1.574   5.837   6.118 -0.4977 -0.5335  1.1664
   19MOL0     H 2550   1.394   5.877   5.950  0.2075 -3.2348  0.8862
   19MOL0     H 2551   1.198   6.148   5.771 -0.7475  1.9053  1.8095
   19MOL0     H 2552   1.104   6.227   5.551  1.6115 -0.4260  0.7406
   19MOL0     H 2553   1.019   6.213   5.318  0.9027 -1.0393  1.6779
   19MOL0     H 2554   0.928   6.335   5.424 -4.3846 -0.8646  1.5838
   19MOL0     H 2555   0.855   6.373   5.208 -2.0835  0.7858 -0.0153
   19MOL0     H 2556   0.732   6.315   5.312  2.1589  1.8671  1.4944
   19MOL0     H 2557   0.787   6.081   5.193 -0.1638  1.4124  1.0691
   19MOL0     H 2558   0.883   6.165   5.083 -0.5060 -0.5557 -1.0917
   19MOL0     H 2559   0.602   6.248   5.118 -0.7273 -4.1283  0.8466
   19MOL0     H 2560   0.723   6.301   4.995  0.1785 -0.0706 -0.1651
   19MOL0     H 2561   0.575   5.897   4.888 -1.7380  0.2168 -0.5720
   19MOL0     H 2562   0.757   5.981   5.600 -0.6868  0.8023 -0.1398
   19MOL0     H 2563   0.898   5.750   5.826  2.7437  1.7963 -1.8431
   19MOL0     H 2564   0.854   5.884   5.930  0.3277  0.9333  0.1423
   19MOL0     H 2565   0.741   5.836   5.789 -0.7724  1.6294  0.7209
   20MOL0     O 2566   8.970   4.132   4.433  0.6561 -0.6952 -0.0294
   20MOL0     C 2567   8.889   4.183   4.360  0.0998 -0.8290 -0.2484
   20MOL0     O 2568   8.916   4.262   4.255  0.3957  0.2810  0.0212
   20MOL0     C 2569   9.040   4.320   4.221  0.2560 -0.9742 -0.0791
   20MOL0     C 2570   9.043   4.449   4.155 -0.5058  0.0012 -0.4969
   20MOL0     C 2571   9.158   4.509   4.106 -0.8754 -0.1107 -1.4196
   20MOL0     C 2572   9.287   4.442   4.134  1.0990 -0.5989 -0.1772
   20MOL0     O 2573   9.401   4.500   4.083 -0.2248  0.1693  0.1828
   20MOL0     C 2574   9.522   4.446   4.133 -0.2781  0.2124  0.3932
   20MOL0     C 2575   9.634   4.551   4.108  0.0872  0.4867  0.3286
   20MOL0     C 2576   9.785   4.490   4.090 -0.2053  0.7610 -1.0608
   20MOL0     C 2577   9.829   4.465   3.949 -0.4843 -0.0809  0.2451
   20MOL0     C 2578   9.961   4.389   3.941 -0.4209  0.0720  0.5202
   20MOL0     C 2579  10.073   4.462   4.008 -0.1979 -0.2140 -0.2681
   20MOL0     C 2580  10.204   4.387   3.982  0.3835  0.0245  0.6685
   20MOL0     C 2581  10.305   4.432   4.088 -0.9914 -0.6906 -0.1652
   20MOL0     N 2582  10.450   4.391   4.070 -0.7880 -0.2834  0.2980
   20MOL0     C 2583  10.499   4.270   4.123  0.8936 -0.3707 -0.0667
   20MOL0     C 2584  10.626   4.272   4.096 -0.7564 -0.5769  1.2304
   20MOL0     C 2585  10.734   4.164   4.137 -0.9407  0.3718  0.3276
   20MOL0     C 2586  10.805   4.201   4.264 -0.3991  0.9830 -0.2891
   20MOL0     C 2587  10.888   4.095   4.338  0.2852  0.5398 -0.5124
   20MOL0     C 2588  11.003   4.030   4.255  0.1156 -0.9462  0.6914
   20MOL0     O 2589  11.105   4.129   4.201  0.7638 -0.1688  0.2869
   20MOL0     C 2590  11.214   4.166   4.270  0.1717 -0.3992  0.4941
   20MOL0     C 2591  11.280   4.274   4.213  0.1775  0.7164 -0.2119
   20MOL0     C 2592  11.396   4.322   4.269 -0.6778  0.4225  0.3446
   20MOL0     C 2593  11.450   4.258   4.382 -1.2436  1.0033 -0.1348
   20MOL0     C 2594  11.574   4.317   4.445 -0.2286 -1.0243  0.5150
   20MOL0     O 2595  11.630   4.248   4.541 -1.0428 -0.7941  0.1334
   20MOL0     C 2596  11.743   4.287   4.607  0.0630  0.0793  0.8366
   20MOL0     C 2597  11.860   4.217   4.575  0.2937  0.4224 -0.4113
   20MOL0     C 2598  11.979   4.248   4.641  0.1646  0.2707  0.4794
   20MOL0     C 2599  11.973   4.336   4.758  0.0488 -0.1179  0.5606
   20MOL0     O 2600  12.077   4.355   4.846  0.8469 -0.4662 -0.4750
   20MOL0     C 2601  12.212   4.363   4.789  0.5859  0.2079 -0.1654
   20MOL0     C 2602  12.326   4.346   4.895  0.7291  0.6491  0.7109
   20MOL0     C 2603  12.311   4.445   5.011 -0.2553  0.2095 -0.1970
   20MOL0     C 2604  12.417   4.417   5.126 -1.2552 -0.5883 -0.0536
   20MOL0     C 2605  12.428   4.531   5.228  0.1692 -0.2934 -0.3794
   20MOL0     C 2606  12.528   4.489   5.337 -0.2091 -0.6159 -1.1204
   20MOL0     C 2607  12.599   4.602   5.428 -0.1351 -0.8252 -0.1871
   20MOL0     C 2608  12.704   4.544   5.525 -0.1781 -0.8819  0.5461
   20MOL0    Cl 2609  12.609   4.461   5.651 -0.4625  0.2729  0.1691
   20MOL0     C 2610  11.852   4.392   4.787 -0.7472 -0.3745  0.0624
   20MOL0     C 2611  11.739   4.381   4.707  0.3734  0.5094 -0.4296
   20MOL0     O 2612  11.607   4.431   4.413 -0.5102 -0.2118  0.5236
   20MOL0     C 2613  11.391   4.147   4.439  0.9024  0.4132  0.0716
   20MOL0     C 2614  11.265   4.112   4.386  0.1614  0.8110 -0.1326
   20MOL0     N 2615  10.658   4.378   4.009  0.1422 -0.0824 -0.3809
   20MOL0     N 2616  10.549   4.457   4.002 -0.0556  0.8942  0.1059
   20MOL0     C 2617   9.283   4.315   4.197 -0.2398 -0.0285  0.3973
   20MOL0     C 2618   9.162   4.252   4.231  0.0251 -0.1074  0.5753
   20MOL0     C 2619   8.746   4.143   4.367  0.2830 -0.4398 -0.5403
   20MOL0     C 2620   8.651   4.152   4.262 -0.4388 -0.7845 -0.9732
   20MOL0     C 2621   8.512   4.117   4.284 -0.2828  0.5390  0.2418
   20MOL0     C 2622   8.468   4.081   4.413  0.2202 -0.3436 -0.2004
   20MOL0     O 2623   8.339   4.051   4.450  0.8193 -0.1759 -0.2947
   20MOL0     C 2624   8.229   4.108   4.368 -0.1110 -0.0271 -0.5005
   20MOL0     C 2625   8.091   4.125   4.431 -0.0208  0.3642 -0.1424
   20MOL0     C 2626   8.051   4.014   4.516  0.5612  0.3032  0.0435
   20MOL0     C 2627   7.929   4.045   4.589  0.6544  0.5551 -0.4589
   20MOL0     C 2628   7.809   4.064   4.502 -0.2057  0.0176  0.4707
   20MOL0     C 2629   7.714   4.050   4.432 -0.9920 -0.8452 -0.2450
   20MOL0     C 2630   8.563   4.066   4.518  0.9909  0.3013 -0.2609
   20MOL0     C 2631   8.699   4.093   4.495 -0.6603  0.5054  0.4056
   20MOL0     C 2632   8.786   4.077   4.624  0.4787  0.4596 -0.8110
   20MOL0     H 2633   8.947   4.499   4.144 -0.7126 -0.3840 -0.4656
   20MOL0     H 2634   9.149   4.600   4.048 -2.6091  0.8398  0.1976
   20MOL0     H 2635   9.513   4.415   4.238 -0.5463 -0.7497  0.0993
   20MOL0     H 2636   9.551   4.354   4.082  1.3351  0.1174  1.4129
   20MOL0     H 2637   9.629   4.602   4.205 -3.3656 -0.8458  1.0068
   20MOL0     H 2638   9.602   4.620   4.030  1.0493  1.6768  0.9551
   20MOL0     H 2639   9.792   4.398   4.148  0.9167  1.5748  0.1332
   20MOL0     H 2640   9.844   4.570   4.133 -1.1623  0.5087  0.8187
   20MOL0     H 2641   9.750   4.398   3.915 -1.3806 -0.0878  2.1827
   20MOL0     H 2642   9.833   4.560   3.895  0.0638  1.6766  3.1025
   20MOL0     H 2643   9.951   4.292   3.990 -1.2500 -1.8419 -3.1303
   20MOL0     H 2644   9.980   4.370   3.835  2.2889 -2.1816  1.2664
   20MOL0     H 2645  10.080   4.561   3.961 -2.1968 -0.2951 -0.8044
   20MOL0     H 2646  10.049   4.481   4.113 -0.0453  2.9291 -0.6921
   20MOL0     H 2647  10.238   4.408   3.880 -2.7293 -2.6480 -1.1105
   20MOL0     H 2648  10.185   4.279   3.986 -0.9800  0.2844  1.7793
   20MOL0     H 2649  10.299   4.541   4.098 -0.7198 -0.7100  0.2213
   20MOL0     H 2650  10.279   4.394   4.187 -1.5269 -1.0222 -0.4316
   20MOL0     H 2651  10.447   4.201   4.188 -0.5880  0.5365 -0.2402
   20MOL0     H 2652  10.694   4.064   4.153  3.3832 -1.8522 -1.1802
   20MOL0     H 2653  10.799   4.155   4.049 -3.1836  0.5314 -1.4411
   20MOL0     H 2654  10.863   4.291   4.240 -1.8074  1.5553 -1.7511
   20MOL0     H 2655  10.722   4.221   4.332  0.2448 -3.0821  2.0020
   20MOL0     H 2656  10.817   4.015   4.363  0.6071 -0.0818 -1.5261
   20MOL0     H 2657  10.938   4.143   4.422  1.4408 -2.5985  0.7569
   20MOL0     H 2658  10.944   3.985   4.174 -0.7741  2.1606 -0.5234
   20MOL0     H 2659  11.056   3.950   4.309 -0.1493 -0.8986  1.0258
   20MOL0     H 2660  11.229   4.319   4.129  0.1084  1.1899  0.0808
   20MOL0     H 2661  11.430   4.416   4.227  0.1752 -0.6071 -1.3741
   20MOL0     H 2662  11.854   4.144   4.496 -1.6214 -1.6161  1.4799
   20MOL0     H 2663  12.061   4.188   4.603 -1.1551 -2.1177  1.1978
   20MOL0     H 2664  12.224   4.285   4.713  0.3527 -2.2116  2.1513
   20MOL0     H 2665  12.219   4.452   4.725  1.3669 -1.1189 -2.0174
   20MOL0     H 2666  12.332   4.241   4.926 -0.1233  0.0435 -1.0487
   20MOL0     H 2667  12.419   4.370   4.843 -0.3121  1.4204 -0.8661
   20MOL0     H 2668  12.324   4.544   4.966  0.6451 -0.6369 -1.8959
   20MOL0     H 2669  12.207   4.444   5.047 -0.6876  1.3542 -1.3218
   20MOL0     H 2670  12.520   4.405   5.090 -1.1989 -1.0361  0.2447
   20MOL0     H 2671  12.384   4.324   5.173  0.2994 -1.9755 -1.5938
   20MOL0     H 2672  12.330   4.557   5.271  0.8260 -1.5387  2.0872
   20MOL0     H 2673  12.467   4.613   5.168 -2.4865  0.1998 -1.5896
   20MOL0     H 2674  12.475   4.423   5.406 -1.3233  0.6078 -0.7661
   20MOL0     H 2675  12.614   4.434   5.297  1.9864 -0.1337  2.4493
   20MOL0     H 2676  12.544   4.684   5.475  0.2595  1.1484 -2.9275
   20MOL0     H 2677  12.660   4.652   5.352 -0.9556  0.8887  0.2277
   20MOL0     H 2678  12.769   4.472   5.475  1.0630  0.4150  0.2549
   20MOL0     H 2679  12.768   4.621   5.569  0.3705 -0.5550 -0.7987
   20MOL0     H 2680  11.840   4.447   4.881  1.8278 -1.5912  1.1865
   20MOL0     H 2681  11.646   4.428   4.738 -0.5268 -0.9150 -0.8995
   20MOL0     H 2682  11.426   4.096   4.529  0.1050  1.3358  0.9265
   20MOL0     H 2683  11.211   4.030   4.432 -1.1443  2.3857  1.2747
   20MOL0     H 2684   9.360   4.238   4.201 -0.5057 -0.4825 -1.8976
   20MOL0     H 2685   9.163   4.147   4.256  4.3667 -0.4159 -0.1119
   20MOL0     H 2686   8.668   4.187   4.161 -0.7191 -0.4127 -0.8928
   20MOL0     H 2687   8.438   4.109   4.205 -2.7603 -0.1101  2.4960
   20MOL0     H 2688   8.218   4.044   4.280 -1.4424 -0.7047  0.1088
   20MOL0     H 2689   8.256   4.209   4.339 -0.5036  0.8686  2.0068
   20MOL0     H 2690   8.021   4.149   4.351  2.2469  2.9102 -1.5139
   20MOL0     H 2691   8.101   4.216   4.491 -0.8010 -0.7671  1.8200
   20MOL0     H 2692   8.124   3.990   4.594  0.5168  2.9230  1.0117
   20MOL0     H 2693   8.037   3.935   4.442 -0.6202  0.9307 -0.4291
   20MOL0     H 2694   7.914   3.965   4.662  0.0705  1.9125  0.9678
   20MOL0     H 2695   7.940   4.144   4.635 -0.1153  0.5051 -0.1471
   20MOL0     H 2696   7.628   4.039   4.370  0.3121  0.1479 -2.3086
   20MOL0     H 2697   8.535   4.027   4.616 -1.0737  0.7024 -0.6375
   20MOL0     H 2698   8.807   4.175   4.667 -0.7444  0.2524  0.3016
   20MOL0     H 2699   8.728   4.018   4.695 -0.4183  1.8222 -0.3582
   20MOL0     H 2700   8.874   4.017   4.599 -1.1778 -0.6444 -4.6998
   21MOL0     O 2701   0.363   2.394   2.351 -0.4675 -0.0792  0.6802
   21MOL0     C 2702   0.296   2.452   2.432 -0.2983 -0.3013 -0.2435
   21MOL0     O 2703   0.345   2.536   2.527  0.0736  0.3423 -0.5212
   21MOL0     C 2704   0.476   2.526   2.564  0.0895  0.5209 -0.4615
   21MOL0     C 2705   0.539   2.410   2.610  0.8114 -0.5523  0.0328
   21MOL0     C 2706   0.673   2.403   2.647 -0.3698 -0.1724 -0.4856
   21MOL0     C 2707   0.755   2.514   2.634  1.0736 -1.0373 -1.2288
   21MOL0     O 2708   0.879   2.500   2.690  0.8318  0.4444  0.1274
   21MOL0     C 2709   0.979   2.601   2.662 -0.0165  0.9001 -0.6984
   21MOL0     C 2710   1.113   2.558   2.728  0.3505  0.2452 -0.3664
   21MOL0     C 2711   1.136   2.625   2.863 -0.6731 -0.0258 -0.0518
   21MOL0     C 2712   1.284   2.635   2.907  0.4457  0.8859 -0.4358
   21MOL0     C 2713   1.357   2.497   2.903  0.0766 -0.0402 -0.4561
   21MOL0     C 2714   1.511   2.531   2.895  1.3631 -0.4708  0.2806
   21MOL0     C 2715   1.595   2.414   2.846  0.5598  0.0422  0.2233
   21MOL0     C 2716   1.601   2.302   2.942  0.2894 -0.4603  0.8501
   21MOL0     N 2717   1.621   2.346   3.089 -0.1925  0.2462  0.3005
   21MOL0     C 2718   1.733   2.419   3.135 -0.0866 -0.8461 -0.4111
   21MOL0     C 2719   1.712   2.425   3.270 -0.1347  0.4656  0.3898
   21MOL0     C 2720   1.805   2.474   3.382  0.1179  0.6997 -0.9280
   21MOL0     C 2721   1.894   2.600   3.345 -0.2273  0.9010 -0.2751
   21MOL0     C 2722   1.994   2.643   3.457 -0.3463 -0.6376 -0.0399
   21MOL0     C 2723   2.128   2.687   3.397  0.4829 -0.5358  0.2779
   21MOL0     O 2724   2.108   2.811   3.320 -0.7117  0.7882  0.5331
   21MOL0     C 2725   2.228   2.855   3.264  0.1439  0.1193  0.5497
   21MOL0     C 2726   2.214   2.961   3.174  0.2895 -0.0138 -1.0064
   21MOL0     C 2727   2.332   3.003   3.111  0.4509  0.0673  0.1099
   21MOL0     C 2728   2.463   2.953   3.132  0.4517 -0.3548  0.3564
   21MOL0     C 2729   2.572   2.997   3.039  0.1982 -0.1863  0.1679
   21MOL0     O 2730   2.698   2.947   3.061 -0.2968 -0.0334  0.5119
   21MOL0     C 2731   2.805   3.007   2.991 -0.5207  0.5002 -0.5202
   21MOL0     C 2732   2.862   3.121   3.040 -0.2146 -0.6046 -0.5462
   21MOL0     C 2733   2.977   3.177   2.981 -0.7598  0.3732 -0.7744
   21MOL0     C 2734   3.032   3.122   2.863 -0.7574 -0.4030 -0.2881
   21MOL0     O 2735   3.144   3.177   2.798  0.0949 -0.0652 -0.2514
   21MOL0     C 2736   3.112   3.288   2.721  0.1381 -0.3191  0.1016
   21MOL0     C 2737   3.213   3.342   2.616 -0.4189  0.9369 -0.1955
   21MOL0     C 2738   3.348   3.327   2.692 -0.1134  0.2322 -0.0914
   21MOL0     C 2739   3.455   3.391   2.615  0.5536 -0.1963 -0.1591
   21MOL0     C 2740   3.590   3.307   2.622 -0.0817 -0.2176 -0.2714
   21MOL0     C 2741   3.639   3.264   2.773 -0.2723  0.4354 -0.9083
   21MOL0     C 2742   3.777   3.204   2.760 -0.3122  0.2828  0.5452
   21MOL0     C 2743   3.826   3.149   2.893  0.0275  0.0331 -0.3604
   21MOL0    Cl 2744   3.813   3.276   3.022  0.1493  0.0301 -0.0308
   21MOL0     C 2745   2.976   3.007   2.818 -0.6175  0.3229  0.5872
   21MOL0     C 2746   2.863   2.950   2.879 -1.5645  0.0127  0.0084
   21MOL0     O 2747   2.537   3.063   2.944 -0.0672  0.1940  0.1081
   21MOL0     C 2748   2.476   2.860   3.235  0.5496  0.8212  0.4347
   21MOL0     C 2749   2.358   2.811   3.295  0.0757 -0.7149 -0.3869
   21MOL0     N 2750   1.595   2.358   3.297 -0.1389  0.4588  0.0465
   21MOL0     N 2751   1.538   2.309   3.191 -0.2858 -0.5047 -0.7291
   21MOL0     C 2752   0.693   2.642   2.587  0.3360  0.3011  0.0947
   21MOL0     C 2753   0.552   2.638   2.565 -0.1140  0.3938  0.2688
   21MOL0     C 2754   0.149   2.437   2.425 -0.0271  0.5743 -0.4783
   21MOL0     C 2755   0.070   2.541   2.485 -0.0533 -0.1827  1.1367
   21MOL0     C 2756  -0.071   2.551   2.459  0.1351  0.1738  0.2319
   21MOL0     C 2757  -0.143   2.463   2.373  0.2779 -0.4091 -0.0645
   21MOL0     O 2758  -0.281   2.481   2.353 -0.1549  0.7307  0.0229
   21MOL0     C 2759  -0.341   2.603   2.380  0.3225 -0.5605 -0.7764
   21MOL0     C 2760  -0.491   2.598   2.336 -0.2116 -0.2677  0.0492
   21MOL0     C 2761  -0.573   2.474   2.360  0.1037 -0.0928 -0.2457
   21MOL0     C 2762  -0.718   2.495   2.318  0.3316  0.3199 -0.1378
   21MOL0     C 2763  -0.785   2.589   2.403  0.2937 -0.4589  0.2755
   21MOL0     C 2764  -0.848   2.665   2.474 -0.1254  0.8829 -0.0259
   21MOL0     C 2765  -0.071   2.359   2.326  0.7056  0.0062 -0.9687
   21MOL0     C 2766   0.071   2.338   2.343 -0.1396  0.4825 -0.6148
   21MOL0     C 2767   0.138   2.229   2.262  0.2851  0.0592  0.0753
   21MOL0     H 2768   0.468   2.329   2.623  0.5625 -0.4066 -0.4220
   21MOL0     H 2769   0.707   2.310   2.691  1.3484  1.2910  1.4764
   21MOL0     H 2770   0.989   2.599   2.553  0.3363 -3.8798 -0.8105
   21MOL0     H 2771   0.948   2.698   2.703  3.0518  1.6026  0.2077
   21MOL0     H 2772   1.186   2.605   2.660 -2.0097  2.1907 -1.7216
   21MOL0     H 2773   1.111   2.449   2.731  0.0282  0.2520 -0.3533
   21MOL0     H 2774   1.078   2.570   2.938 -3.2472 -0.2539 -2.0635
   21MOL0     H 2775   1.106   2.730   2.850  0.0777  0.6211  2.8465
   21MOL0     H 2776   1.339   2.707   2.846  1.2150 -0.8998 -1.9577
   21MOL0     H 2777   1.286   2.663   3.013 -1.8423 -0.7503  0.1125
   21MOL0     H 2778   1.327   2.430   2.984 -2.3997 -0.6862 -1.8104
   21MOL0     H 2779   1.315   2.444   2.818 -0.4680  1.0272 -0.8702
   21MOL0     H 2780   1.522   2.605   2.815 -3.8097  0.1141 -0.2457
   21MOL0     H 2781   1.550   2.583   2.982  0.2417  2.0353 -0.5982
   21MOL0     H 2782   1.694   2.452   2.817  0.5334 -1.3300 -1.9396
   21MOL0     H 2783   1.556   2.374   2.752 -0.2169  0.9461  0.1491
   21MOL0     H 2784   1.504   2.253   2.938  0.7724 -1.5292  1.6967
   21MOL0     H 2785   1.680   2.230   2.917  0.8699  0.8443 -1.3314
   21MOL0     H 2786   1.815   2.461   3.078 -0.7643  2.5130  0.8448
   21MOL0     H 2787   1.747   2.501   3.471 -0.0966 -2.0737 -0.1597
   21MOL0     H 2788   1.876   2.395   3.409  1.5062  1.5201 -2.0049
   21MOL0     H 2789   1.948   2.590   3.251  1.2267 -1.6945  0.7507
   21MOL0     H 2790   1.826   2.684   3.324 -1.7981 -0.2465  0.0738
   21MOL0     H 2791   2.010   2.558   3.524 -0.6823 -0.3005  0.4721
   21MOL0     H 2792   1.954   2.721   3.522  0.1746 -0.2852 -0.1292
   21MOL0     H 2793   2.171   2.601   3.346  2.6837 -0.8456  2.4482
   21MOL0     H 2794   2.199   2.716   3.475 -1.3068  3.0650  0.8054
   21MOL0     H 2795   2.112   2.992   3.158  0.4572  1.1750  0.0457
   21MOL0     H 2796   2.323   3.084   3.039  0.5265 -0.4428 -0.4808
   21MOL0     H 2797   2.832   3.160   3.137  1.1849 -0.9066  0.0196
   21MOL0     H 2798   3.030   3.261   3.024  2.5172 -0.6874 -2.4326
   21MOL0     H 2799   3.022   3.263   2.664 -0.1787  0.5222  0.2140
   21MOL0     H 2800   3.081   3.362   2.796 -4.5425 -1.9644  0.1127
   21MOL0     H 2801   3.216   3.286   2.522  1.2578 -0.3479  0.5636
   21MOL0     H 2802   3.178   3.444   2.593 -1.6121  0.7037  0.5203
   21MOL0     H 2803   3.343   3.383   2.786  0.7108 -1.2540  0.8814
   21MOL0     H 2804   3.359   3.218   2.701  1.5424  0.4326  0.7295
   21MOL0     H 2805   3.470   3.492   2.656 -0.4973  0.3659 -1.0861
   21MOL0     H 2806   3.423   3.401   2.511  1.2776  3.7043 -0.1743
   21MOL0     H 2807   3.670   3.368   2.579 -1.8414  0.0734 -3.3732
   21MOL0     H 2808   3.570   3.213   2.570 -1.3605  1.2008 -2.5163
   21MOL0     H 2809   3.646   3.351   2.839  3.4602  0.6009 -1.3233
   21MOL0     H 2810   3.571   3.187   2.809 -0.5243  2.2345  2.9169
   21MOL0     H 2811   3.847   3.278   2.720 -0.2104 -1.0548 -1.9300
   21MOL0     H 2812   3.782   3.120   2.690  0.7257 -1.4368  2.5563
   21MOL0     H 2813   3.759   3.067   2.923 -0.8505  0.5469 -0.9013
   21MOL0     H 2814   3.930   3.114   2.894  0.6537  1.7969  0.6923
   21MOL0     H 2815   3.014   2.957   2.729  2.6102  1.8815  0.9659
   21MOL0     H 2816   2.835   2.850   2.845  0.4683 -1.2742  1.8471
   21MOL0     H 2817   2.577   2.830   3.260  0.1602  0.7475  2.0495
   21MOL0     H 2818   2.369   2.742   3.379  2.5727 -0.7280 -0.6601
   21MOL0     H 2819   0.755   2.730   2.573  2.6499 -0.9367  1.8852
   21MOL0     H 2820   0.510   2.733   2.531  1.7786  0.8447 -0.9481
   21MOL0     H 2821   0.112   2.614   2.553 -2.7711  3.4153 -0.6804
   21MOL0     H 2822  -0.124   2.629   2.513 -3.1359 -1.9418  0.4090
   21MOL0     H 2823  -0.280   2.681   2.334  1.6737  1.5604  3.9189
   21MOL0     H 2824  -0.341   2.613   2.489 -1.5111  0.9449 -0.8715
   21MOL0     H 2825  -0.486   2.602   2.227 -0.7105 -3.6223 -0.2213
   21MOL0     H 2826  -0.538   2.685   2.382  2.1369  1.2083 -0.1654
   21MOL0     H 2827  -0.574   2.446   2.466  0.7360  0.7115 -0.0090
   21MOL0     H 2828  -0.530   2.395   2.298  1.3406  1.2583 -1.1801
   21MOL0     H 2829  -0.722   2.528   2.214 -0.3932  0.0851 -0.1938
   21MOL0     H 2830  -0.769   2.399   2.330  0.4670  0.2485 -0.1405
   21MOL0     H 2831  -0.885   2.737   2.544 -0.6300 -1.1526  1.9147
   21MOL0     H 2832  -0.126   2.290   2.263  0.1870 -0.4664 -0.0084
   21MOL0     H 2833   0.066   2.170   2.205  0.4179 -1.8526  1.7745
   21MOL0     H 2834   0.214   2.265   2.192 -1.5292  2.7341 -0.6553
   21MOL0     H 2835   0.184   2.159   2.333 -0.4722 -0.6201 -0.0872
   22MOL0     O 2836   7.556  11.201   4.793  0.0341  0.0239 -0.3547
   22MOL0     C 2837   7.486  11.264   4.715  0.4390 -0.1601  1.1989
   22MOL0     O 2838   7.368  11.217   4.662 -0.1417 -0.3715  0.2818
   22MOL0     C 2839   7.300  11.114   4.709  0.8319  0.1742 -0.3560
   22MOL0     C 2840   7.348  10.989   4.744 -0.5869  0.2756  0.3140
   22MOL0     C 2841   7.259  10.892   4.790  0.4515 -0.3639 -1.1275
   22MOL0     C 2842   7.119  10.911   4.786 -0.0033 -0.5810  0.6001
   22MOL0     O 2843   7.037  10.802   4.816 -0.5964  0.1631 -0.1594
   22MOL0     C 2844   7.088  10.670   4.854 -0.4411  0.0291  0.6324
   22MOL0     C 2845   7.105  10.585   4.716 -0.1563 -0.2548  0.5173
   22MOL0     C 2846   7.203  10.470   4.731  0.6156 -0.5485  0.0345
   22MOL0     C 2847   7.291  10.442   4.615  0.0379 -0.0188  0.0051
   22MOL0     C 2848   7.368  10.307   4.622 -0.2913 -0.6292 -0.2166
   22MOL0     C 2849   7.488  10.317   4.530  0.6767  0.3554 -0.2339
   22MOL0     C 2850   7.573  10.189   4.543  0.0916 -0.1878 -0.7073
   22MOL0     C 2851   7.708  10.189   4.469  0.0099  0.0438  0.4487
   22MOL0     N 2852   7.812  10.259   4.545 -0.0423  0.1580  0.1799
   22MOL0     C 2853   7.924  10.197   4.593 -0.1104  0.2571  0.2332
   22MOL0     C 2854   7.966  10.283   4.692 -0.8358  0.4191 -0.2430
   22MOL0     C 2855   8.102  10.274   4.759 -1.0768 -0.5782  0.3974
   22MOL0     C 2856   8.217  10.214   4.669 -0.3312  0.3211 -0.4092
   22MOL0     C 2857   8.338  10.186   4.758 -0.4892 -0.2759 -0.5100
   22MOL0     C 2858   8.451  10.276   4.723  0.1476 -0.3253  0.6838
   22MOL0     O 2859   8.564  10.267   4.812  0.0951 -0.0562 -0.8178
   22MOL0     C 2860   8.553  10.325   4.937 -0.3233 -0.5890  0.3195
   22MOL0     C 2861   8.446  10.394   4.984 -0.5024  0.0551 -0.5616
   22MOL0     C 2862   8.455  10.447   5.109  0.0865 -0.6204 -0.7571
   22MOL0     C 2863   8.565  10.443   5.192 -0.1044 -0.0916 -0.4479
   22MOL0     C 2864   8.566  10.510   5.327  0.2279 -0.7892 -0.5437
   22MOL0     O 2865   8.681  10.527   5.392  0.0624 -0.3801 -0.3450
   22MOL0     C 2866   8.680  10.572   5.522  1.0017  0.6318  0.4784
   22MOL0     C 2867   8.640  10.705   5.554  0.0371 -0.7155 -0.7309
   22MOL0     C 2868   8.643  10.750   5.685  0.3080  0.3527  0.0907
   22MOL0     C 2869   8.683  10.666   5.791  0.1255 -0.8866  0.2531
   22MOL0     O 2870   8.677  10.717   5.908  0.4814 -0.1041 -0.2785
   22MOL0     C 2871   8.702  10.632   6.019 -0.5675  0.6217 -1.4404
   22MOL0     C 2872   8.662  10.700   6.152 -0.8573 -0.3546 -0.1494
   22MOL0     C 2873   8.776  10.804   6.193 -0.0140  0.6115 -0.4798
   22MOL0     C 2874   8.756  10.862   6.332  0.2135  0.3751 -0.3727
   22MOL0     C 2875   8.877  10.950   6.368  0.4435 -0.4168 -0.1118
   22MOL0     C 2876   8.849  11.059   6.469 -0.1611 -0.2326 -0.2475
   22MOL0     C 2877   8.799  11.003   6.602 -0.3882 -0.5633  0.7139
   22MOL0     C 2878   8.768  11.111   6.696  0.4591 -0.4672  0.1595
   22MOL0    Cl 2879   8.918  11.203   6.749 -0.1642 -0.0680  0.0180
   22MOL0     C 2880   8.729  10.539   5.756  0.4975 -0.9830 -0.1411
   22MOL0     C 2881   8.719  10.490   5.628  0.1579  0.4509  0.8117
   22MOL0     O 2882   8.461  10.568   5.351 -0.3493 -0.2100 -0.1188
   22MOL0     C 2883   8.668  10.369   5.148 -0.3133  0.1782  0.0678
   22MOL0     C 2884   8.666  10.313   5.019 -0.8625 -0.9463  0.2526
   22MOL0     N 2885   7.884  10.386   4.692  0.1482 -0.7031  0.8090
   22MOL0     N 2886   7.789  10.376   4.609 -0.0679  1.0511  0.3162
   22MOL0     C 2887   7.068  11.037   4.750  0.4102  0.0643 -0.2978
   22MOL0     C 2888   7.159  11.133   4.712 -0.5612 -0.1134 -0.4951
   22MOL0     C 2889   7.546  11.383   4.655  0.1964 -0.1713 -0.4334
   22MOL0     C 2890   7.674  11.420   4.677 -1.3836 -0.6698  0.0293
   22MOL0     C 2891   7.742  11.525   4.603 -0.0565 -0.0306 -0.7497
   22MOL0     C 2892   7.673  11.577   4.489 -0.0608 -0.2016 -0.0423
   22MOL0     O 2893   7.731  11.657   4.401 -0.5416  0.8100 -0.4015
   22MOL0     C 2894   7.870  11.637   4.382  0.5623  0.6188  0.3287
   22MOL0     C 2895   7.906  11.670   4.240 -0.0433  0.0958  1.2085
   22MOL0     C 2896   8.053  11.640   4.204 -0.3353 -1.0167  0.2879
   22MOL0     C 2897   8.094  11.500   4.171  0.2563 -0.0653  0.3858
   22MOL0     C 2898   8.243  11.504   4.128  0.3300 -0.2530 -0.4110
   22MOL0     C 2899   8.360  11.499   4.107  0.3377  0.8037 -0.3188
   22MOL0     C 2900   7.537  11.545   4.469 -0.7724  1.0866 -0.0599
   22MOL0     C 2901   7.469  11.457   4.556  0.0271  0.2518  0.4203
   22MOL0     C 2902   7.318  11.447   4.532  0.6438 -0.6509 -0.1420
   22MOL0     H 2903   7.454  10.972   4.726 -0.3623 -0.0349  1.7570
   22MOL0     H 2904   7.312  10.801   4.817  2.6856 -0.0167 -3.8722
   22MOL0     H 2905   7.184  10.666   4.907 -0.6793 -1.1099  0.9984
   22MOL0     H 2906   7.020  10.622   4.924 -1.2976  1.5593  0.8915
   22MOL0     H 2907   7.133  10.656   4.638 -5.3119 -0.3196 -1.8369
   22MOL0     H 2908   7.018  10.537   4.669 -0.6231  1.4440 -0.4436
   22MOL0     H 2909   7.148  10.385   4.773 -1.0250  1.1279  1.4792
   22MOL0     H 2910   7.266  10.500   4.816 -0.4225 -0.4492  0.7897
   22MOL0     H 2911   7.221  10.463   4.534  0.3446 -0.0847 -0.2816
   22MOL0     H 2912   7.365  10.522   4.616  0.3990 -0.3348 -0.6896
   22MOL0     H 2913   7.408  10.297   4.724  0.8186  0.1511 -0.5589
   22MOL0     H 2914   7.299  10.224   4.607  2.1225 -2.5337 -1.4699
   22MOL0     H 2915   7.451  10.326   4.428  0.7541  2.2573 -0.1296
   22MOL0     H 2916   7.549  10.407   4.542  1.5247 -0.2739  0.3550
   22MOL0     H 2917   7.519  10.104   4.500 -0.0151 -1.3421  1.5879
   22MOL0     H 2918   7.595  10.173   4.649 -1.0406  1.0152 -0.2740
   22MOL0     H 2919   7.741  10.085   4.457  2.0281  0.7277 -0.4295
   22MOL0     H 2920   7.680  10.237   4.375  0.4088 -0.2278  0.1889
   22MOL0     H 2921   7.964  10.099   4.571  0.8711  0.1629  2.1592
   22MOL0     H 2922   8.133  10.371   4.797  0.5331  0.2365 -2.7228
   22MOL0     H 2923   8.091  10.209   4.846 -2.0392 -2.0441 -0.7611
   22MOL0     H 2924   8.182  10.113   4.650 -0.5056 -0.6461  3.9360
   22MOL0     H 2925   8.234  10.277   4.581  0.0001  1.1882  0.2466
   22MOL0     H 2926   8.375  10.087   4.731  1.4553  0.3525 -0.3306
   22MOL0     H 2927   8.313  10.186   4.864  1.1261 -1.9176 -0.0833
   22MOL0     H 2928   8.419  10.381   4.726  0.2582 -0.3156  1.9582
   22MOL0     H 2929   8.493  10.240   4.629  1.7605 -2.7512  2.2228
   22MOL0     H 2930   8.350  10.398   4.935  0.3821  2.6935 -2.3123
   22MOL0     H 2931   8.366  10.496   5.148  1.9049  1.1528  1.4912
   22MOL0     H 2932   8.601  10.773   5.479 -1.8416  0.1993  0.9775
   22MOL0     H 2933   8.606  10.852   5.693  0.4698  0.5267 -1.2775
   22MOL0     H 2934   8.643  10.541   6.005 -0.7873  0.8170 -1.7941
   22MOL0     H 2935   8.808  10.602   6.026 -1.3909 -2.1519  1.8204
   22MOL0     H 2936   8.569  10.758   6.155 -1.2212 -0.9617  0.4234
   22MOL0     H 2937   8.648  10.619   6.224  1.2741 -0.2763  0.4174
   22MOL0     H 2938   8.874  10.758   6.206  1.1032  3.4220  2.1422
   22MOL0     H 2939   8.791  10.876   6.112  1.2461 -0.4910 -1.2737
   22MOL0     H 2940   8.743  10.782   6.406 -1.0346 -1.6591 -2.6420
   22MOL0     H 2941   8.658  10.909   6.317  0.3142  1.0707  0.9791
   22MOL0     H 2942   8.918  11.005   6.283  0.5534 -0.1995  0.0821
   22MOL0     H 2943   8.957  10.885   6.405  1.9135  1.5288  0.2854
   22MOL0     H 2944   8.941  11.115   6.489 -2.1317  2.0809  3.2979
   22MOL0     H 2945   8.781  11.128   6.419  1.0032  1.4784  0.4680
   22MOL0     H 2946   8.877  10.942   6.648  1.7672  2.2186  1.0097
   22MOL0     H 2947   8.708  10.945   6.589  2.2868 -4.9605 -0.4254
   22MOL0     H 2948   8.680  11.165   6.661 -0.2569 -0.9614  1.1531
   22MOL0     H 2949   8.730  11.069   6.790 -2.4033  1.0761 -0.2018
   22MOL0     H 2950   8.764  10.468   5.830  0.1421 -0.2668  0.7208
   22MOL0     H 2951   8.737  10.386   5.603 -1.3677 -0.4478  3.1047
   22MOL0     H 2952   8.759  10.371   5.208 -0.4666  0.5955  0.2823
   22MOL0     H 2953   8.746  10.251   4.982 -1.6604 -0.9835 -1.4869
   22MOL0     H 2954   6.962  11.058   4.746  0.6733  1.6786  0.4354
   22MOL0     H 2955   7.124  11.230   4.677  1.7337  1.3850  1.0795
   22MOL0     H 2956   7.733  11.383   4.760  0.9940 -1.5343 -1.9417
   22MOL0     H 2957   7.836  11.565   4.641  0.6735 -1.1997 -1.2768
   22MOL0     H 2958   7.904  11.533   4.390 -0.0081  0.3876 -0.1897
   22MOL0     H 2959   7.942  11.687   4.447  1.9076  2.8245 -2.6206
   22MOL0     H 2960   7.898  11.777   4.223 -0.7126  0.0066  0.9181
   22MOL0     H 2961   7.843  11.617   4.168  2.4232 -2.0159  0.4449
   22MOL0     H 2962   8.120  11.688   4.276  1.9423 -0.1709 -2.2091
   22MOL0     H 2963   8.071  11.691   4.109  0.5328 -1.2307  0.3277
   22MOL0     H 2964   8.088  11.436   4.260  0.0843 -2.2360 -1.1125
   22MOL0     H 2965   8.032  11.450   4.096  0.5060  1.5514 -0.9453
   22MOL0     H 2966   8.463  11.474   4.090  0.5483  0.0389  1.7699
   22MOL0     H 2967   7.490  11.591   4.383  1.1209 -0.9617 -2.3327
   22MOL0     H 2968   7.282  11.535   4.477  0.8839  0.2322  1.0589
   22MOL0     H 2969   7.284  11.363   4.471 -1.7697  0.6716 -0.7586
   22MOL0     H 2970   7.268  11.448   4.630  1.9936 -0.0240  0.5640
   23MOL0     O 2971   8.055   0.170   8.167 -0.5780  0.2664  0.3675
   23MOL0     C 2972   7.987   0.133   8.072  1.2376 -0.0500 -0.6873
   23MOL0     O 2973   8.022   0.135   7.942  0.9589 -0.1770  0.1796
   23MOL0     C 2974   8.151   0.167   7.909  0.4362 -0.2412 -0.0204
   23MOL0     C 2975   8.239   0.057   7.890 -0.5990 -0.5515  0.6483
   23MOL0     C 2976   8.364   0.070   7.831  0.9976  0.0793  0.0722
   23MOL0     C 2977   8.410   0.205   7.798  0.4473  0.1946  0.6701
   23MOL0     O 2978   8.530   0.217   7.739 -0.1788 -0.4556  0.7026
   23MOL0     C 2979   8.599   0.342   7.781 -0.2683 -0.7688  0.3126
   23MOL0     C 2980   8.752   0.343   7.754  0.5197  0.0198  0.2834
   23MOL0     C 2981   8.781   0.381   7.603  0.8153 -0.3538  0.3932
   23MOL0     C 2982   8.774   0.258   7.517 -0.1081 -0.0382 -1.0856
   23MOL0     C 2983   8.812   0.296   7.372  0.2635  0.5871  0.2891
   23MOL0     C 2984   8.794   0.174   7.289  0.6347 -0.9805 -0.0390
   23MOL0     C 2985   8.865   0.190   7.149 -0.3541 -0.8311  0.3898
   23MOL0     C 2986   9.009   0.139   7.159  0.2083 -0.1319  0.7385
   23MOL0     N 2987   9.029   0.006   7.212 -0.1406  0.4261 -0.0897
   23MOL0     C 2988   9.005  -0.105   7.142  0.6688 -0.1377 -0.0534
   23MOL0     C 2989   9.018  -0.216   7.224 -0.2942  0.3365 -0.4781
   23MOL0     C 2990   9.002  -0.367   7.195  0.1061 -0.7873 -0.2745
   23MOL0     C 2991   9.131  -0.437   7.147  0.0637  0.0865 -0.1167
   23MOL0     C 2992   9.112  -0.568   7.070  0.0871  0.2447 -0.1973
   23MOL0     C 2993   9.233  -0.633   6.990  0.1656  0.1860  0.2232
   23MOL0     O 2994   9.330  -0.656   7.087  0.0530 -0.5702  0.1593
   23MOL0     C 2995   9.432  -0.742   7.053  0.5559 -1.0509 -0.2292
   23MOL0     C 2996   9.548  -0.711   7.118 -0.1124 -0.0986  0.3636
   23MOL0     C 2997   9.662  -0.790   7.097  0.4408  0.3359 -0.2774
   23MOL0     C 2998   9.672  -0.903   7.004  0.0480 -0.1917 -0.5748
   23MOL0     C 2999   9.774  -1.006   6.995 -0.1324 -0.3620  0.7201
   23MOL0     O 3000   9.848  -1.039   7.102 -0.8469 -0.2793 -0.8638
   23MOL0     C 3001   9.954  -1.127   7.081  0.6325  0.2215  0.7517
   23MOL0     C 3002   9.948  -1.249   7.008  0.0830  0.1875  0.5008
   23MOL0     C 3003  10.062  -1.325   6.993 -0.3096  0.1989  0.2328
   23MOL0     C 3004  10.186  -1.287   7.037  0.0553  0.3382  0.4228
   23MOL0     O 3005  10.295  -1.363   6.998 -0.1097 -0.5444 -1.3415
   23MOL0     C 3006  10.408  -1.358   7.086 -0.6241 -0.0198 -0.4380
   23MOL0     C 3007  10.487  -1.482   7.089 -0.0075 -0.6055  0.7341
   23MOL0     C 3008  10.444  -1.584   7.193  0.5660 -0.4192  0.3441
   23MOL0     C 3009  10.494  -1.722   7.161  0.5368  0.4409  0.2579
   23MOL0     C 3010  10.642  -1.735   7.164 -0.8574  0.0845  1.1808
   23MOL0     C 3011  10.690  -1.853   7.072  0.9129  0.0556  0.7029
   23MOL0     C 3012  10.821  -1.922   7.123 -1.0434 -0.2782  0.2447
   23MOL0     C 3013  10.945  -1.833   7.134  0.2882 -0.4289  0.9009
   23MOL0    Cl 3014  11.090  -1.947   7.176 -0.0983 -0.2734  0.0730
   23MOL0     C 3015  10.199  -1.158   7.102  0.3075 -0.3100  0.0550
   23MOL0     C 3016  10.075  -1.084   7.121 -0.8712 -0.2617 -0.1618
   23MOL0     O 3017   9.786  -1.056   6.883  0.0581  0.5549  0.1566
   23MOL0     C 3018   9.554  -0.912   6.924  0.9803  0.0910  0.2943
   23MOL0     C 3019   9.436  -0.837   6.949 -0.3535 -0.9348 -1.1145
   23MOL0     N 3020   9.056  -0.164   7.341  0.0298 -0.4583  0.2176
   23MOL0     N 3021   9.069  -0.034   7.335  0.4951 -0.0218 -0.0562
   23MOL0     C 3022   8.332   0.313   7.841 -0.3212  0.9594  0.2418
   23MOL0     C 3023   8.202   0.297   7.893 -0.4464  0.7359 -0.1785
   23MOL0     C 3024   7.848   0.101   8.098 -0.1061 -0.7835  0.4141
   23MOL0     C 3025   7.746   0.193   8.054 -1.4495 -0.6624  0.3613
   23MOL0     C 3026   7.614   0.155   8.067  1.5429  0.2469 -0.4093
   23MOL0     C 3027   7.580   0.050   8.145  0.5159  0.0670  0.4060
   23MOL0     O 3028   7.452   0.012   8.164  0.2245  0.5266  0.1448
   23MOL0     C 3029   7.393  -0.095   8.070 -0.1686 -0.2165  0.7565
   23MOL0     C 3030   7.311  -0.026   7.951 -0.4538 -0.7949 -0.3305
   23MOL0     C 3031   7.232  -0.142   7.884 -0.7874 -0.2460 -0.0468
   23MOL0     C 3032   7.155  -0.065   7.773 -0.6103  0.5515  0.0987
   23MOL0     C 3033   7.026  -0.129   7.745 -0.1669 -0.1401  0.4960
   23MOL0     C 3034   6.921  -0.172   7.708  0.3896  0.5280 -0.0771
   23MOL0     C 3035   7.684  -0.024   8.198  0.2980  0.4857  0.4773
   23MOL0     C 3036   7.815  -0.008   8.171 -0.1354  0.1260  0.0158
   23MOL0     C 3037   7.914  -0.121   8.206  0.4616 -0.2787  0.1274
   23MOL0     H 3038   8.195  -0.040   7.908 -1.4955 -0.3703 -0.4587
   23MOL0     H 3039   8.432  -0.013   7.816  3.2164  1.2233  2.7690
   23MOL0     H 3040   8.557   0.420   7.717 -1.1890 -1.5074 -0.0129
   23MOL0     H 3041   8.590   0.368   7.887  2.4758  5.3754 -0.5414
   23MOL0     H 3042   8.791   0.247   7.788 -0.8635 -0.5855  0.2632
   23MOL0     H 3043   8.797   0.415   7.823 -1.6333  0.1053  1.6964
   23MOL0     H 3044   8.880   0.422   7.582  0.8605 -0.6305  0.0513
   23MOL0     H 3045   8.709   0.449   7.555  2.6840 -0.5759 -3.0316
   23MOL0     H 3046   8.854   0.195   7.556 -0.0633  0.2189 -0.7554
   23MOL0     H 3047   8.671   0.220   7.524 -0.3417  0.8255  0.6129
   23MOL0     H 3048   8.758   0.386   7.341  0.5291 -0.6316 -4.4125
   23MOL0     H 3049   8.919   0.317   7.376  0.0186  1.9518  0.3240
   23MOL0     H 3050   8.843   0.092   7.342  1.2674  0.3523  1.5152
   23MOL0     H 3051   8.693   0.132   7.282  0.3326 -0.1312 -1.2532
   23MOL0     H 3052   8.870   0.295   7.116  2.3115 -0.6705  1.0913
   23MOL0     H 3053   8.812   0.136   7.070  1.9744  2.0343 -3.5472
   23MOL0     H 3054   9.053   0.154   7.060 -0.1932 -1.9233  0.2474
   23MOL0     H 3055   9.060   0.209   7.226  2.1014 -0.7557  0.0167
   23MOL0     H 3056   8.962  -0.093   7.043 -0.1417  3.0363  0.5527
   23MOL0     H 3057   8.977  -0.417   7.290 -0.9268 -2.6281 -1.4625
   23MOL0     H 3058   8.926  -0.386   7.119  1.8533 -2.0033 -1.8282
   23MOL0     H 3059   9.181  -0.366   7.081 -2.7539  2.2491 -0.1394
   23MOL0     H 3060   9.199  -0.468   7.227 -0.6954 -0.5716  0.2925
   23MOL0     H 3061   9.030  -0.559   6.999  1.2527 -0.7122 -1.7233
   23MOL0     H 3062   9.092  -0.644   7.147  1.2733 -0.2473 -0.3437
   23MOL0     H 3063   9.262  -0.563   6.911 -1.0611  0.8287  0.3331
   23MOL0     H 3064   9.208  -0.734   6.954  3.9910 -1.6162  1.9881
   23MOL0     H 3065   9.553  -0.644   7.202 -3.5808 -0.2730  0.8664
   23MOL0     H 3066   9.744  -0.776   7.167 -1.2091  5.1076  1.0551
   23MOL0     H 3067   9.853  -1.290   6.977 -0.0740  0.8009  0.1579
   23MOL0     H 3068  10.053  -1.424   6.949  0.4155  0.0243  0.4716
   23MOL0     H 3069  10.471  -1.270   7.068 -2.4582  1.9215  1.9307
   23MOL0     H 3070  10.389  -1.337   7.192  1.1830  2.6848 -0.5395
   23MOL0     H 3071  10.473  -1.515   6.986 -2.2195 -0.8535  1.0712
   23MOL0     H 3072  10.594  -1.460   7.099 -0.3262  0.4615  2.2113
   23MOL0     H 3073  10.482  -1.556   7.292  1.3323  2.4162 -0.6499
   23MOL0     H 3074  10.337  -1.580   7.215  0.5229 -1.3247  0.3448
   23MOL0     H 3075  10.464  -1.735   7.056 -1.0386  1.1598  0.5805
   23MOL0     H 3076  10.448  -1.807   7.212 -0.1502 -0.6829 -2.0720
   23MOL0     H 3077  10.687  -1.739   7.264 -1.7239  0.5294  1.6024
   23MOL0     H 3078  10.687  -1.643   7.125 -1.4516 -0.8141 -1.8311
   23MOL0     H 3079  10.599  -1.914   7.082  1.6317 -0.7073  3.1466
   23MOL0     H 3080  10.684  -1.829   6.965  2.3640 -0.7440  0.4291
   23MOL0     H 3081  10.853  -2.004   7.058  0.4423  0.6759 -0.2630
   23MOL0     H 3082  10.808  -1.950   7.228  0.4551 -0.2639  0.4552
   23MOL0     H 3083  10.968  -1.790   7.036 -0.0359 -3.3785 -0.5986
   23MOL0     H 3084  10.937  -1.756   7.211  0.7479 -0.1325  0.6504
   23MOL0     H 3085  10.298  -1.136   7.141  2.0977 -1.8072 -3.2277
   23MOL0     H 3086  10.082  -0.984   7.163 -1.9463 -0.4158  0.4253
   23MOL0     H 3087   9.547  -0.985   6.845 -2.4582 -0.0765  0.6132
   23MOL0     H 3088   9.353  -0.853   6.881 -0.2727  1.9360 -2.0288
   23MOL0     H 3089   8.352   0.419   7.828 -1.2853  1.0981 -0.2378
   23MOL0     H 3090   8.148   0.386   7.924 -0.5814  0.2796  0.9266
   23MOL0     H 3091   7.772   0.278   7.992  0.4530 -2.0535 -0.8752
   23MOL0     H 3092   7.536   0.216   8.024  0.4275 -0.1510  0.9636
   23MOL0     H 3093   7.326  -0.151   8.135  0.9879 -2.3968  0.1688
   23MOL0     H 3094   7.474  -0.159   8.033  1.1410  0.8839  1.6336
   23MOL0     H 3095   7.378   0.030   7.885 -0.4423 -1.1595 -0.6344
   23MOL0     H 3096   7.249   0.055   7.992 -0.0113 -0.9065  0.5849
   23MOL0     H 3097   7.162  -0.192   7.952  1.2528  1.2139  3.3670
   23MOL0     H 3098   7.298  -0.219   7.843 -0.7869 -1.4471  2.0650
   23MOL0     H 3099   7.125   0.031   7.817  0.4420  0.8959  0.0937
   23MOL0     H 3100   7.218  -0.055   7.684 -0.6196 -0.8736 -0.0855
   23MOL0     H 3101   6.821  -0.199   7.679  0.7894 -2.4318  0.9631
   23MOL0     H 3102   7.645  -0.112   8.249 -0.9690  1.0894  0.5746
   23MOL0     H 3103   7.952  -0.154   8.108  1.6248  1.2896  0.0196
   23MOL0     H 3104   7.999  -0.082   8.263  0.2651  1.6931 -0.8502
   23MOL0     H 3105   7.864  -0.206   8.254 -0.7750  0.7376  0.6849
   24MOL0     O 3106   1.652   7.101   9.840 -0.3009  0.4932 -0.3373
   24MOL0     C 3107   1.651   7.208   9.906 -0.0522 -0.0474  0.6256
   24MOL0     O 3108   1.758   7.262   9.978 -0.0467  0.6700  0.3650
   24MOL0     C 3109   1.876   7.194   9.997 -0.3200  0.3977  0.3822
   24MOL0     C 3110   1.983   7.274  10.020 -0.1394  0.1299  0.3105
   24MOL0     C 3111   2.102   7.227  10.073  0.6286  0.1657  0.3343
   24MOL0     C 3112   2.122   7.091  10.107 -0.0976 -0.2054 -0.1306
   24MOL0     O 3113   2.245   7.057  10.164 -0.7562 -0.2618  0.4010
   24MOL0     C 3114   2.258   6.940  10.241 -1.1710 -0.2654 -0.0847
   24MOL0     C 3115   2.394   6.943  10.323 -0.1688  0.3692 -0.4730
   24MOL0     C 3116   2.412   7.073  10.401 -0.9445  1.2026  0.0735
   24MOL0     C 3117   2.523   7.166  10.340 -0.1839  0.3621 -0.2417
   24MOL0     C 3118   2.548   7.285  10.423 -0.1276 -0.1151  0.3356
   24MOL0     C 3119   2.664   7.359  10.356 -0.8404 -0.5625 -0.3499
   24MOL0     C 3120   2.751   7.427  10.454  0.4584 -0.2358 -0.4464
   24MOL0     C 3121   2.671   7.534  10.532 -0.4075 -0.1377 -0.5365
   24MOL0     N 3122   2.772   7.604  10.618  0.0639  1.1730 -0.1655
   24MOL0     C 3123   2.826   7.732  10.607  0.3742 -0.1514  0.1510
   24MOL0     C 3124   2.895   7.743  10.726  0.0676  0.1888  0.4005
   24MOL0     C 3125   2.959   7.872  10.768 -0.5071  0.0051 -0.5313
   24MOL0     C 3126   3.098   7.891  10.699  0.3291 -0.7218 -0.0759
   24MOL0     C 3127   3.208   7.813  10.767 -0.7310  0.2347 -0.3189
   24MOL0     C 3128   3.330   7.789  10.680 -0.5535 -0.8519  0.5078
   24MOL0     O 3129   3.390   7.923  10.652  0.3445  0.4576 -0.4883
   24MOL0     C 3130   3.518   7.915  10.591  0.4730 -0.4867  0.5230
   24MOL0     C 3131   3.595   7.800  10.580 -0.1351 -1.0722 -0.3702
   24MOL0     C 3132   3.741   7.813  10.566  0.0061  0.3738  0.6189
   24MOL0     C 3133   3.800   7.930  10.530 -0.0028  0.3263  0.2920
   24MOL0     C 3134   3.940   7.937  10.504 -1.6323  0.1701  0.9550
   24MOL0     O 3135   4.020   7.821  10.514 -0.5699  0.0095  0.2659
   24MOL0     C 3136   4.158   7.837  10.494 -0.1581  0.5868  0.8247
   24MOL0     C 3137   4.237   7.921  10.583  0.7118 -0.1890  0.1212
   24MOL0     C 3138   4.374   7.934  10.564  0.1858 -0.6509 -0.4611
   24MOL0     C 3139   4.436   7.872  10.456 -0.1542  0.1584 -0.7903
   24MOL0     O 3140   4.571   7.897  10.440 -0.4572  0.9875  0.2776
   24MOL0     C 3141   4.659   7.798  10.377  0.4857  0.5552  0.4961
   24MOL0     C 3142   4.804   7.846  10.404  0.2528  0.3375 -0.1279
   24MOL0     C 3143   4.900   7.729  10.371 -0.4917 -0.2896  0.4842
   24MOL0     C 3144   5.041   7.793  10.370 -0.0807  0.2703 -0.6367
   24MOL0     C 3145   5.138   7.678  10.346  0.0286  0.4047 -0.5919
   24MOL0     C 3146   5.265   7.751  10.317  0.6944 -0.3934  0.0910
   24MOL0     C 3147   5.377   7.645  10.318  0.4440  0.0073 -0.3940
   24MOL0     C 3148   5.390   7.581  10.175  0.3904  0.5524  0.1116
   24MOL0    Cl 3149   5.455   7.707  10.068  0.1936 -0.0973 -0.1831
   24MOL0     C 3150   4.361   7.784  10.382 -0.7186  0.1142  0.4523
   24MOL0     C 3151   4.226   7.765  10.397  0.4178  0.2541 -0.3233
   24MOL0     O 3152   3.988   8.051  10.483 -0.0351  0.9509 -0.3010
   24MOL0     C 3153   3.719   8.045  10.519  0.3063 -0.6726 -0.4110
   24MOL0     C 3154   3.583   8.042  10.561 -0.9605 -0.1361  0.5811
   24MOL0     N 3155   2.897   7.621  10.794 -0.0167 -0.6479  0.7695
   24MOL0     N 3156   2.816   7.543  10.735  0.4190 -0.4781  0.5465
   24MOL0     C 3157   2.010   7.011  10.091 -0.5406  0.6377  0.5780
   24MOL0     C 3158   1.892   7.059  10.036 -0.0175 -0.4793  0.0237
   24MOL0     C 3159   1.528   7.281   9.930  0.3002 -0.4141  0.0518
   24MOL0     C 3160   1.536   7.415   9.968  0.2699  0.0045 -0.7171
   24MOL0     C 3161   1.419   7.491   9.996  0.7749 -0.0290  0.0106
   24MOL0     C 3162   1.291   7.436   9.988  1.0967  0.2469  0.1215
   24MOL0     O 3163   1.192   7.522  10.016  0.4591  0.2956 -0.0478
   24MOL0     C 3164   1.055   7.477  10.030 -0.8823 -0.9805  0.4987
   24MOL0     C 3165   0.964   7.501   9.906  0.6118  0.1173 -0.7576
   24MOL0     C 3166   0.938   7.646   9.873 -0.6736  1.1551  0.7400
   24MOL0     C 3167   0.837   7.714   9.963 -0.5375 -0.3583 -0.0520
   24MOL0     C 3168   0.709   7.647   9.948  0.6087 -0.7192 -0.7313
   24MOL0     C 3169   0.600   7.592   9.939  0.1050  0.2539 -0.8448
   24MOL0     C 3170   1.284   7.306   9.930  0.5159  0.0488 -0.9042
   24MOL0     C 3171   1.400   7.229   9.900 -0.6258 -0.7523  0.5873
   24MOL0     C 3172   1.370   7.095   9.835 -0.2253 -0.8546  0.1666
   24MOL0     H 3173   1.977   7.383  10.018  2.5250  0.3134 -1.0069
   24MOL0     H 3174   2.189   7.290  10.085  0.4592  0.4366  0.1345
   24MOL0     H 3175   2.185   6.931  10.322 -0.6554 -3.0984  0.1826
   24MOL0     H 3176   2.254   6.851  10.178  0.5258 -2.2346  2.3501
   24MOL0     H 3177   2.476   6.928  10.252  0.9525 -0.5521  0.9782
   24MOL0     H 3178   2.397   6.865  10.399 -1.7309 -0.7174 -1.4547
   24MOL0     H 3179   2.459   7.049  10.496  2.1145  2.1306 -1.0946
   24MOL0     H 3180   2.320   7.131  10.416 -0.9019  1.9549 -2.1343
   24MOL0     H 3181   2.617   7.111  10.335  2.0968  3.9879 -0.8321
   24MOL0     H 3182   2.500   7.191  10.236  2.3480 -0.8982 -1.1755
   24MOL0     H 3183   2.458   7.345  10.437 -0.8832 -0.2592 -3.1095
   24MOL0     H 3184   2.568   7.241  10.521 -2.5455 -1.8449  0.1249
   24MOL0     H 3185   2.734   7.294  10.303  0.6203  0.7719 -0.1475
   24MOL0     H 3186   2.625   7.422  10.276  1.0290 -0.5832 -1.3452
   24MOL0     H 3187   2.837   7.464  10.398  1.4834 -1.4053  0.3052
   24MOL0     H 3188   2.791   7.350  10.520 -0.3126  0.5211  0.9353
   24MOL0     H 3189   2.620   7.607  10.469 -0.4153 -0.8368 -1.3541
   24MOL0     H 3190   2.599   7.491  10.603  0.8166 -2.8634 -0.8226
   24MOL0     H 3191   2.810   7.796  10.521  2.9109  0.8190  0.3217
   24MOL0     H 3192   2.894   7.950  10.729  1.5504  0.1456 -4.2733
   24MOL0     H 3193   2.965   7.886  10.876  0.1646  3.2938 -0.9062
   24MOL0     H 3194   3.083   7.863  10.594  2.3280  3.0113 -1.5509
   24MOL0     H 3195   3.110   8.000  10.698 -0.6129 -0.6011 -0.8188
   24MOL0     H 3196   3.167   7.714  10.791 -2.0426  0.7422 -0.3740
   24MOL0     H 3197   3.231   7.858  10.864  0.4434 -1.8089  0.4103
   24MOL0     H 3198   3.299   7.737  10.589 -3.1292  1.1897  0.0859
   24MOL0     H 3199   3.391   7.717  10.734 -1.5156 -3.1897 -1.3441
   24MOL0     H 3200   3.557   7.701  10.603 -0.0801 -0.6216  1.9669
   24MOL0     H 3201   3.808   7.731  10.589  0.1457  0.5723  0.9401
   24MOL0     H 3202   4.184   7.976  10.660  1.6222  0.7402  0.0985
   24MOL0     H 3203   4.431   8.005  10.624 -1.1705 -0.9388  1.2356
   24MOL0     H 3204   4.657   7.705  10.434  2.0697  0.9361  1.2303
   24MOL0     H 3205   4.647   7.794  10.268  0.0175 -0.2586  0.5681
   24MOL0     H 3206   4.819   7.930  10.336 -0.6922 -0.0125 -0.7876
   24MOL0     H 3207   4.817   7.871  10.509  2.9427  1.1811 -0.5685
   24MOL0     H 3208   4.895   7.649  10.445  1.6129  0.0739  1.0863
   24MOL0     H 3209   4.877   7.697  10.269  1.2339  1.2819 -0.4581
   24MOL0     H 3210   5.064   7.847  10.463 -0.5352 -2.1368  0.9539
   24MOL0     H 3211   5.050   7.870  10.292  2.1513  1.2001  0.4264
   24MOL0     H 3212   5.110   7.614  10.262  0.3076  0.4394 -0.7125
   24MOL0     H 3213   5.135   7.610  10.431  2.3117 -2.2880 -2.4892
   24MOL0     H 3214   5.260   7.797  10.218  1.4570 -2.2971 -0.8777
   24MOL0     H 3215   5.279   7.828  10.394 -0.9621 -1.3836  1.4566
   24MOL0     H 3216   5.357   7.561  10.385  2.8989 -1.0198 -0.8506
   24MOL0     H 3217   5.471   7.688  10.352 -0.6485  1.4730  0.9785
   24MOL0     H 3218   5.468   7.506  10.188 -0.3647  0.1817  3.5335
   24MOL0     H 3219   5.300   7.529  10.143  1.0559  0.5370 -1.8990
   24MOL0     H 3220   4.417   7.735  10.303  1.4151 -1.1878  2.6162
   24MOL0     H 3221   4.171   7.704  10.326  1.5110  0.8907 -1.7878
   24MOL0     H 3222   3.757   8.145  10.499 -2.3580  1.1268  2.5967
   24MOL0     H 3223   3.522   8.132  10.559  2.8153  2.6663 -1.1038
   24MOL0     H 3224   2.018   6.909  10.125  0.6781  0.8195  0.8840
   24MOL0     H 3225   1.802   6.998  10.028  0.7218 -1.5522 -0.4275
   24MOL0     H 3226   1.628   7.469   9.987  0.2392 -0.4800  1.0265
   24MOL0     H 3227   1.417   7.589  10.044  0.9540  0.0509 -0.1411
   24MOL0     H 3228   1.005   7.525  10.115  0.3982 -1.5802  1.6235
   24MOL0     H 3229   1.050   7.372  10.060 -1.4096 -0.7569  1.2133
   24MOL0     H 3230   0.873   7.443   9.926  0.9229  0.1111  0.7671
   24MOL0     H 3231   1.005   7.441   9.824 -4.6934 -3.2584 -1.4371
   24MOL0     H 3232   0.912   7.638   9.767  0.0682  0.1740  0.6166
   24MOL0     H 3233   1.029   7.707   9.874 -0.5103  1.2526 -3.1340
   24MOL0     H 3234   0.870   7.706  10.067  0.3190  1.7427 -0.1186
   24MOL0     H 3235   0.825   7.820   9.939  0.4229 -0.7187 -2.3084
   24MOL0     H 3236   0.508   7.541   9.920 -0.1283  0.6840 -0.8691
   24MOL0     H 3237   1.193   7.250   9.913  0.5185  0.2754 -1.6856
   24MOL0     H 3238   1.262   7.081   9.847 -0.3377 -0.1538  0.0346
   24MOL0     H 3239   1.395   7.101   9.728 -1.9280 -1.9172 -0.3298
   24MOL0     H 3240   1.423   7.016   9.889 -1.8032 -0.2483  2.7455
   25MOL0     O 3241   3.575   3.011   5.075 -0.5448 -0.1927  0.2255
   25MOL0     C 3242   3.512   2.925   5.009 -0.6552  0.5212 -0.3324
   25MOL0     O 3243   3.574   2.852   4.918  0.7016 -0.5823 -0.4975
   25MOL0     C 3244   3.709   2.854   4.910  0.2171 -0.9641  1.2547
   25MOL0     C 3245   3.769   2.966   4.855 -0.3670  0.2576 -0.3545
   25MOL0     C 3246   3.905   2.955   4.820  0.4025 -0.0963 -0.8693
   25MOL0     C 3247   3.978   2.839   4.844 -0.6165 -0.6673 -0.0209
   25MOL0     O 3248   4.112   2.821   4.806  0.3067 -0.3350  0.2673
   25MOL0     C 3249   4.193   2.933   4.757  0.0245  0.1184  0.3861
   25MOL0     C 3250   4.323   2.871   4.721 -0.1875  0.3139 -0.1567
   25MOL0     C 3251   4.419   2.984   4.673 -0.0315  0.3799  0.2898
   25MOL0     C 3252   4.544   2.905   4.613 -0.0686 -0.6631 -0.5015
   25MOL0     C 3253   4.659   3.006   4.582  1.3889 -0.1619 -0.5949
   25MOL0     C 3254   4.795   2.938   4.561 -0.4073  0.3687 -0.6286
   25MOL0     C 3255   4.885   2.937   4.689 -0.1955  0.5305  0.4422
   25MOL0     C 3256   5.027   2.886   4.657  0.1250  0.2412 -0.2761
   25MOL0     N 3257   5.102   2.868   4.787 -0.6288 -0.1509  0.5836
   25MOL0     C 3258   5.192   2.967   4.831  0.4771 -0.5356 -0.1418
   25MOL0     C 3259   5.235   2.918   4.950 -0.5371 -0.1123 -0.2357
   25MOL0     C 3260   5.307   2.995   5.063  0.4514  0.5168  0.2613
   25MOL0     C 3261   5.213   3.093   5.134  0.7159  0.1458 -1.1872
   25MOL0     C 3262   5.275   3.149   5.259 -0.5514 -0.1706  0.4843
   25MOL0     C 3263   5.419   3.191   5.242 -0.1620 -0.5780  0.1618
   25MOL0     O 3264   5.416   3.307   5.149  0.4634  0.0507  0.8770
   25MOL0     C 3265   5.521   3.384   5.138 -0.6193 -1.1502  0.4345
   25MOL0     C 3266   5.613   3.373   5.038  0.8912  0.5466  0.0705
   25MOL0     C 3267   5.711   3.476   5.023 -0.0096 -0.2794  0.1186
   25MOL0     C 3268   5.719   3.586   5.111  0.0077 -0.1822 -0.3902
   25MOL0     C 3269   5.827   3.697   5.093  0.5071  0.4069  0.3153
   25MOL0     O 3270   5.812   3.805   5.175  0.1036 -0.5682 -0.4607
   25MOL0     C 3271   5.901   3.913   5.144  0.4371  0.7448 -0.9868
   25MOL0     C 3272   5.984   3.970   5.240 -0.4844 -1.0474  0.1503
   25MOL0     C 3273   6.057   4.088   5.199  0.8623 -0.5318 -0.3939
   25MOL0     C 3274   6.028   4.155   5.078  0.3070 -0.4989  0.1430
   25MOL0     O 3275   6.091   4.273   5.033  0.1806 -0.2742  0.2571
   25MOL0     C 3276   6.215   4.301   5.086  0.5675  0.5765  0.3795
   25MOL0     C 3277   6.206   4.397   5.210 -0.2283 -0.3980  0.0780
   25MOL0     C 3278   6.322   4.382   5.306 -0.1822  0.1108 -0.2844
   25MOL0     C 3279   6.337   4.502   5.396 -0.5118 -0.2282  0.4371
   25MOL0     C 3280   6.471   4.505   5.480  0.4007 -0.2676 -0.5428
   25MOL0     C 3281   6.546   4.642   5.472  0.5094  0.5146 -0.7652
   25MOL0     C 3282   6.669   4.648   5.557  0.1226 -0.0493  0.3890
   25MOL0     C 3283   6.742   4.772   5.515 -0.0508  0.4705 -0.1647
   25MOL0    Cl 3284   6.880   4.804   5.626  0.3015  0.7868  0.1303
   25MOL0     C 3285   5.928   4.104   4.991 -0.2051 -0.4032 -0.2822
   25MOL0     C 3286   5.861   3.986   5.032 -0.3433 -0.5525 -0.5429
   25MOL0     O 3287   5.907   3.678   4.998 -0.3048  0.2705  0.4623
   25MOL0     C 3288   5.618   3.592   5.204 -0.1540 -0.4865 -0.6049
   25MOL0     C 3289   5.523   3.502   5.214  0.5826  0.5037 -0.2133
   25MOL0     N 3290   5.174   2.797   4.970  0.4917  1.3128 -0.0831
   25MOL0     N 3291   5.096   2.763   4.873 -0.5080  0.1020  0.4034
   25MOL0     C 3292   3.914   2.727   4.892  0.2681 -0.1466 -0.4389
   25MOL0     C 3293   3.771   2.731   4.922 -0.1740  0.0772 -0.2543
   25MOL0     C 3294   3.373   2.897   5.041 -0.3376 -0.2220  0.4999
   25MOL0     C 3295   3.297   3.004   5.098  0.0698  0.4031  0.0474
   25MOL0     C 3296   3.158   2.998   5.114  0.3481 -1.0525  0.0713
   25MOL0     C 3297   3.089   2.884   5.071  0.3431 -0.1243  0.5064
   25MOL0     O 3298   2.952   2.889   5.074 -0.5120 -0.0019 -0.3862
   25MOL0     C 3299   2.876   2.782   5.040 -0.9856 -1.3589  0.0632
   25MOL0     C 3300   2.734   2.820   5.017 -0.4106  0.4742 -0.1666
   25MOL0     C 3301   2.671   2.901   5.133  0.3048 -0.0276 -0.4840
   25MOL0     C 3302   2.539   2.967   5.109 -0.4642  0.4629 -0.0176
   25MOL0     C 3303   2.431   2.869   5.090 -0.1965  0.3891  0.4605
   25MOL0     C 3304   2.339   2.790   5.071  0.0437 -0.9431  0.4990
   25MOL0     C 3305   3.166   2.780   5.008  0.4377  0.2748 -0.5370
   25MOL0     C 3306   3.302   2.780   5.009  0.3319 -0.1336 -0.4126
   25MOL0     C 3307   3.380   2.655   4.978 -0.0758  0.1594 -0.0230
   25MOL0     H 3308   3.707   3.054   4.838 -0.4902  0.0358 -1.1101
   25MOL0     H 3309   3.950   3.034   4.759  2.0338  0.1008  0.5246
   25MOL0     H 3310   4.147   2.977   4.668 -4.5071  1.4777  3.0296
   25MOL0     H 3311   4.205   3.009   4.835  2.6832  0.9315 -0.7032
   25MOL0     H 3312   4.305   2.789   4.651  0.4553  0.8881 -1.0096
   25MOL0     H 3313   4.364   2.820   4.809 -0.4769 -1.4169 -0.9998
   25MOL0     H 3314   4.455   3.050   4.753  1.5854 -0.1593  0.0435
   25MOL0     H 3315   4.369   3.040   4.594  0.3402  0.2247 -0.0569
   25MOL0     H 3316   4.581   2.839   4.692 -0.1489 -0.2208 -0.0868
   25MOL0     H 3317   4.528   2.863   4.514  2.4110 -1.9114 -0.4484
   25MOL0     H 3318   4.636   3.059   4.489 -3.9799  0.1172  0.5969
   25MOL0     H 3319   4.663   3.079   4.663  1.9371 -1.6994  0.8187
   25MOL0     H 3320   4.786   2.837   4.521  0.5850  0.7723 -1.9272
   25MOL0     H 3321   4.857   2.991   4.488  1.7272 -0.0178  0.7802
   25MOL0     H 3322   4.832   2.879   4.766 -1.2057  0.0144 -0.6233
   25MOL0     H 3323   4.905   3.041   4.719 -0.2475 -0.0337  2.6675
   25MOL0     H 3324   5.013   2.786   4.613  0.0785 -0.7042  1.7880
   25MOL0     H 3325   5.072   2.958   4.589 -0.5663  1.2373  0.3010
   25MOL0     H 3326   5.218   3.060   4.780 -1.0219 -2.3524 -4.8092
   25MOL0     H 3327   5.356   2.933   5.139  3.0687  0.8953 -0.9982
   25MOL0     H 3328   5.394   3.044   5.019  0.0470  0.5405 -0.5235
   25MOL0     H 3329   5.187   3.179   5.071 -0.3054  0.9938  0.3373
   25MOL0     H 3330   5.119   3.042   5.156  0.2118  0.1881 -3.0369
   25MOL0     H 3331   5.283   3.067   5.331  0.0001 -2.8983 -2.4873
   25MOL0     H 3332   5.211   3.221   5.310  0.2732  0.6745  0.3504
   25MOL0     H 3333   5.471   3.101   5.208 -0.1963 -1.1463  1.5744
   25MOL0     H 3334   5.463   3.213   5.339 -1.8073 -0.8404  1.0082
   25MOL0     H 3335   5.603   3.286   4.974  0.4478  1.5488 -1.2711
   25MOL0     H 3336   5.771   3.457   4.934  0.2797 -1.8038  0.6022
   25MOL0     H 3337   5.989   3.909   5.330  0.7084 -0.3924  0.5569
   25MOL0     H 3338   6.130   4.128   5.268  0.6965 -1.8205  0.5654
   25MOL0     H 3339   6.275   4.212   5.107  0.1350  0.4520  1.1079
   25MOL0     H 3340   6.265   4.353   5.004 -2.2793  1.2698 -1.0495
   25MOL0     H 3341   6.211   4.499   5.171 -3.5856 -0.6377 -1.3672
   25MOL0     H 3342   6.109   4.408   5.260 -0.0867  1.2168  0.0440
   25MOL0     H 3343   6.316   4.291   5.366  1.9701  0.1676  0.0987
   25MOL0     H 3344   6.415   4.371   5.249 -0.6372  0.9083 -1.2145
   25MOL0     H 3345   6.250   4.510   5.461 -0.8403  2.5690 -0.1981
   25MOL0     H 3346   6.331   4.591   5.332  0.3537 -0.6178 -0.2071
   25MOL0     H 3347   6.540   4.430   5.441 -0.2441 -1.8904  1.2679
   25MOL0     H 3348   6.457   4.472   5.583  0.9732 -0.6615 -0.5852
   25MOL0     H 3349   6.566   4.668   5.368  0.6851  4.5075  0.1057
   25MOL0     H 3350   6.476   4.710   5.521 -1.6055 -2.7933  1.1917
   25MOL0     H 3351   6.725   4.554   5.549 -2.6762 -1.8959  0.9766
   25MOL0     H 3352   6.637   4.652   5.662  1.7656 -0.5683  0.9459
   25MOL0     H 3353   6.788   4.757   5.417  1.2650 -4.7161  0.9814
   25MOL0     H 3354   6.675   4.859   5.518  2.9352  2.9888 -1.4403
   25MOL0     H 3355   5.897   4.156   4.900  0.0207 -0.9651 -0.6871
   25MOL0     H 3356   5.771   3.954   4.979  1.0079  0.0729 -3.3898
   25MOL0     H 3357   5.608   3.688   5.253  3.2276  0.4844 -1.5628
   25MOL0     H 3358   5.441   3.513   5.284 -0.1817  0.3546 -1.0816
   25MOL0     H 3359   3.968   2.634   4.904 -0.7530 -0.6033  0.8568
   25MOL0     H 3360   3.722   2.638   4.951  0.4835 -0.4089 -0.6805
   25MOL0     H 3361   3.343   3.099   5.123  0.6396 -0.1706  1.2603
   25MOL0     H 3362   3.097   3.076   5.159 -0.6898 -1.8357  0.0687
   25MOL0     H 3363   2.879   2.702   5.114 -1.7641 -0.1548  1.4492
   25MOL0     H 3364   2.907   2.727   4.950 -0.1936 -1.4296  0.3734
   25MOL0     H 3365   2.678   2.727   5.009  0.0630  0.2472 -1.0239
   25MOL0     H 3366   2.721   2.873   4.922  2.2103  1.3543 -0.1237
   25MOL0     H 3367   2.738   2.984   5.157  0.7577 -0.1766 -1.1785
   25MOL0     H 3368   2.663   2.846   5.227 -1.4633  0.7848 -0.1182
   25MOL0     H 3369   2.510   3.011   5.204 -1.6161  0.6235 -0.4213
   25MOL0     H 3370   2.542   3.046   5.033  0.3869  0.8815  0.4381
   25MOL0     H 3371   2.262   2.719   5.050  1.0813 -1.2468 -2.8175
   25MOL0     H 3372   3.123   2.685   4.979 -2.6222  1.3760  0.0792
   25MOL0     H 3373   3.447   2.667   4.892  1.3373 -0.7678  0.9109
   25MOL0     H 3374   3.448   2.636   5.062 -0.2650 -0.4181 -0.0011
   25MOL0     H 3375   3.314   2.570   4.959 -0.6575  0.5841  0.0970
   26MOL0     O 3376  10.318   8.657  10.798 -0.2463 -0.1080  0.4895
   26MOL0     C 3377  10.223   8.733  10.789 -0.1464  0.4535 -0.5820
   26MOL0     O 3378  10.218   8.850  10.717  0.4360 -0.1547 -0.5985
   26MOL0     C 3379  10.316   8.900  10.629 -0.7673  0.5598 -0.1578
   26MOL0     C 3380  10.267   8.960  10.514 -0.5584  0.8263 -0.2365
   26MOL0     C 3381  10.353   9.002  10.413  0.3800 -1.1329  0.0312
   26MOL0     C 3382  10.489   8.979  10.431  0.0502  0.7859  0.5631
   26MOL0     O 3383  10.576   9.011  10.325  0.6668  0.5309 -0.0706
   26MOL0     C 3384  10.643   9.139  10.336 -0.1213  0.3979  0.9404
   26MOL0     C 3385  10.551   9.253  10.273 -0.6993 -0.0021  0.3702
   26MOL0     C 3386  10.508   9.234  10.126 -0.7081  0.7405  0.2939
   26MOL0     C 3387  10.383   9.311  10.107 -0.2286  0.4192  0.0407
   26MOL0     C 3388  10.351   9.307   9.959  0.0790 -0.3280 -0.5995
   26MOL0     C 3389  10.403   9.440   9.899 -0.3571 -0.1289  0.2443
   26MOL0     C 3390  10.403   9.425   9.747  0.3146 -0.5790  0.6642
   26MOL0     C 3391  10.493   9.530   9.677 -0.0043 -1.7301  0.2778
   26MOL0     N 3392  10.634   9.494   9.668  0.3367 -0.2151  0.7740
   26MOL0     C 3393  10.728   9.570   9.611  0.4558 -0.7925 -0.9357
   26MOL0     C 3394  10.845   9.510   9.617  0.7110  0.2195 -0.1310
   26MOL0     C 3395  10.980   9.558   9.581 -0.3365  1.0448  0.4521
   26MOL0     C 3396  10.973   9.654   9.460 -0.1765  0.6755  0.1808
   26MOL0     C 3397  11.105   9.724   9.426 -0.9478 -0.2893 -0.5521
   26MOL0     C 3398  11.215   9.639   9.378  0.6954  0.0839  1.1944
   26MOL0     O 3399  11.329   9.722   9.359  0.3000 -0.1943  0.5576
   26MOL0     C 3400  11.424   9.669   9.276 -0.6664  0.8353  0.3141
   26MOL0     C 3401  11.449   9.526   9.268  1.1879  0.0074 -0.5964
   26MOL0     C 3402  11.549   9.478   9.191 -0.3737 -0.4880 -0.0234
   26MOL0     C 3403  11.653   9.565   9.138  0.1220  0.6761  0.2546
   26MOL0     C 3404  11.775   9.505   9.069  0.6890 -0.7476 -0.2331
   26MOL0     O 3405  11.874   9.594   9.031  0.1939  0.0106  0.4348
   26MOL0     C 3406  11.979   9.549   8.960 -0.0622  0.3118  0.6335
   26MOL0     C 3407  12.018   9.605   8.832  0.4368 -0.6924 -0.0264
   26MOL0     C 3408  12.132   9.556   8.753 -0.5994  0.0929 -0.1350
   26MOL0     C 3409  12.212   9.456   8.807  0.0780 -0.9321  0.6074
   26MOL0     O 3410  12.341   9.410   8.756 -0.1318 -0.3684 -0.6964
   26MOL0     C 3411  12.388   9.470   8.639 -0.0763 -0.2048  0.1516
   26MOL0     C 3412  12.544   9.462   8.647  0.6989 -0.6169 -0.3114
   26MOL0     C 3413  12.610   9.520   8.516  0.0153  0.0250  0.3305
   26MOL0     C 3414  12.743   9.450   8.489 -0.6865  0.5861  0.6882
   26MOL0     C 3415  12.791   9.490   8.355  0.4528 -0.4693  0.0997
   26MOL0     C 3416  12.938   9.481   8.329  0.6877  0.7002  0.3256
   26MOL0     C 3417  12.999   9.550   8.204 -0.0912 -0.0257 -0.1923
   26MOL0     C 3418  13.158   9.549   8.209 -0.1374 -0.4060  0.0985
   26MOL0    Cl 3419  13.228   9.641   8.347  0.7414  0.2869 -0.0935
   26MOL0     C 3420  12.177   9.402   8.934  0.2807  0.6578 -0.0517
   26MOL0     C 3421  12.062   9.449   9.008 -0.6517 -0.0104 -0.2809
   26MOL0     O 3422  11.782   9.385   9.065  0.2680 -0.0401 -0.3197
   26MOL0     C 3423  11.631   9.702   9.144  0.4980  0.0845  0.0091
   26MOL0     C 3424  11.523   9.753   9.226 -1.0432  0.4235  0.2822
   26MOL0     N 3425  10.819   9.392   9.684  1.2965  0.7579  0.3025
   26MOL0     N 3426  10.693   9.379   9.710 -0.1393  0.5177 -0.4198
   26MOL0     C 3427  10.544   8.917  10.545  1.0322 -0.0359  0.2625
   26MOL0     C 3428  10.453   8.882  10.645  0.6327 -0.3615 -0.2449
   26MOL0     C 3429  10.092   8.702  10.858  0.0725  0.2328 -0.9151
   26MOL0     C 3430   9.992   8.801  10.871 -0.0563  0.2252  0.1315
   26MOL0     C 3431   9.867   8.777  10.921  0.4726  0.0574  0.5365
   26MOL0     C 3432   9.827   8.653  10.964  0.5784 -0.7735 -0.4371
   26MOL0     O 3433   9.696   8.635  11.004 -0.5894 -0.7291 -0.6249
   26MOL0     C 3434   9.665   8.518  11.080  0.3059 -0.1661  0.3145
   26MOL0     C 3435   9.542   8.533  11.159 -0.6031  0.0610 -0.7894
   26MOL0     C 3436   9.420   8.503  11.073 -0.3110  0.1477  0.2374
   26MOL0     C 3437   9.293   8.495  11.162 -0.5406 -0.1070 -0.4812
   26MOL0     C 3438   9.270   8.405  11.278  0.5657 -0.2705  0.5134
   26MOL0     C 3439   9.249   8.347  11.374  0.5293  0.5197 -0.6309
   26MOL0     C 3440   9.922   8.551  10.952  0.9510  0.0754 -1.1224
   26MOL0     C 3441  10.051   8.570  10.908 -0.3186  0.3988 -0.0533
   26MOL0     C 3442  10.140   8.452  10.893 -0.5695  0.9384  0.2308
   26MOL0     H 3443  10.161   8.969  10.491 -0.1088  1.5963 -2.2165
   26MOL0     H 3444  10.314   9.035  10.317 -0.3594 -2.5792 -0.1969
   26MOL0     H 3445  10.684   9.166  10.433  0.4589 -1.0897  1.1349
   26MOL0     H 3446  10.730   9.138  10.270 -1.7587 -0.4422 -1.3293
   26MOL0     H 3447  10.605   9.348  10.283  1.0253 -0.9312  0.2933
   26MOL0     H 3448  10.458   9.260  10.330  0.9261  1.5214  3.0408
   26MOL0     H 3449  10.491   9.128  10.101 -0.8140  1.1990 -1.7380
   26MOL0     H 3450  10.583   9.269  10.055 -0.6951  0.6455  0.2606
   26MOL0     H 3451  10.297   9.272  10.162  0.1138 -0.9063 -0.3290
   26MOL0     H 3452  10.397   9.410  10.152  1.7525 -1.0973  3.0640
   26MOL0     H 3453  10.394   9.220   9.909  2.5737  0.5149 -0.0761
   26MOL0     H 3454  10.244   9.300   9.938  0.2960  2.3737 -3.2584
   26MOL0     H 3455  10.342   9.527   9.927 -2.5620 -0.9244 -1.7301
   26MOL0     H 3456  10.505   9.453   9.937 -0.2823 -1.8301  0.6945
   26MOL0     H 3457  10.302   9.428   9.704  0.7696 -0.6813 -0.4358
   26MOL0     H 3458  10.445   9.328   9.718  2.1368  0.3513  0.0252
   26MOL0     H 3459  10.477   9.528   9.569  1.6394 -1.7768  0.0172
   26MOL0     H 3460  10.478   9.632   9.713  1.1348 -0.3527 -2.7977
   26MOL0     H 3461  10.728   9.672   9.573 -0.0459 -1.1386 -1.8737
   26MOL0     H 3462  11.025   9.604   9.669 -1.9601  0.9128  1.3748
   26MOL0     H 3463  11.040   9.468   9.566  0.1581  1.1820  1.5523
   26MOL0     H 3464  10.928   9.596   9.378 -1.5274  2.5096 -0.4542
   26MOL0     H 3465  10.907   9.738   9.480 -0.3817  1.8526 -4.3320
   26MOL0     H 3466  11.141   9.758   9.524 -1.5805 -2.3927  0.4650
   26MOL0     H 3467  11.089   9.811   9.362  3.1901  1.9577  1.0422
   26MOL0     H 3468  11.186   9.602   9.279 -0.4640  5.5363 -0.8755
   26MOL0     H 3469  11.233   9.558   9.449  1.0696 -0.9762 -0.0723
   26MOL0     H 3470  11.387   9.456   9.322  0.3500  2.0218  1.2107
   26MOL0     H 3471  11.552   9.370   9.183  4.1721 -0.5516 -0.4089
   26MOL0     H 3472  11.958   9.683   8.787 -1.1605 -2.2241 -0.6921
   26MOL0     H 3473  12.153   9.601   8.657 -1.4173 -1.0722 -0.8741
   26MOL0     H 3474  12.346   9.419   8.553 -0.4823 -1.0825  0.8518
   26MOL0     H 3475  12.367   9.578   8.637  1.2351  0.0784  0.3890
   26MOL0     H 3476  12.581   9.514   8.736  0.0573  1.5835 -1.2463
   26MOL0     H 3477  12.571   9.356   8.645 -0.3077 -0.8795 -0.2844
   26MOL0     H 3478  12.541   9.485   8.439 -0.8734 -3.0001  2.3198
   26MOL0     H 3479  12.616   9.629   8.518  1.9635  0.1647 -3.6114
   26MOL0     H 3480  12.735   9.341   8.501  0.5128  0.6512  2.6240
   26MOL0     H 3481  12.813   9.483   8.567  1.7415  1.0576 -1.5639
   26MOL0     H 3482  12.764   9.595   8.342  1.0094 -0.5470 -2.2170
   26MOL0     H 3483  12.738   9.434   8.278  1.2397 -1.5974  0.3488
   26MOL0     H 3484  12.967   9.545   8.413 -2.6753  0.0900  2.1327
   26MOL0     H 3485  12.987   9.384   8.348  1.4687  0.9619 -0.3318
   26MOL0     H 3486  12.960   9.651   8.188  0.2897  0.7301  3.0629
   26MOL0     H 3487  12.961   9.502   8.113 -0.5792 -1.1887  0.6118
   26MOL0     H 3488  13.178   9.443   8.231  2.1488 -0.3095 -1.1900
   26MOL0     H 3489  13.214   9.570   8.117  1.4939 -2.4831  0.5285
   26MOL0     H 3490  12.245   9.320   8.955 -0.2335 -0.1154 -1.2924
   26MOL0     H 3491  12.041   9.397   9.101  0.8777 -1.5317 -0.7162
   26MOL0     H 3492  11.697   9.771   9.092 -0.9022 -0.8702 -3.3313
   26MOL0     H 3493  11.519   9.858   9.252  2.6262  0.5214  1.0647
   26MOL0     H 3494  10.651   8.900  10.551  1.4799  2.2015 -0.2096
   26MOL0     H 3495  10.482   8.832  10.737  0.5343  2.4432  1.4487
   26MOL0     H 3496  10.015   8.906  10.857 -0.8443  0.4772  0.6939
   26MOL0     H 3497   9.796   8.858  10.931 -4.0272 -3.5913  1.5151
   26MOL0     H 3498   9.751   8.492  11.144 -0.5958 -2.4817  0.7042
   26MOL0     H 3499   9.657   8.433  11.012 -1.1798  1.1245 -1.1947
   26MOL0     H 3500   9.534   8.633  11.204  0.1189 -0.4050  0.4239
   26MOL0     H 3501   9.546   8.464  11.244 -0.8374 -1.1031 -1.6983
   26MOL0     H 3502   9.419   8.410  11.015 -1.0847 -1.7267  3.0476
   26MOL0     H 3503   9.409   8.584  11.001  2.5229 -1.8626 -2.7410
   26MOL0     H 3504   9.290   8.597  11.200 -1.0008 -0.6392  0.9796
   26MOL0     H 3505   9.204   8.481  11.100 -0.8949 -0.9791  0.1991
   26MOL0     H 3506   9.228   8.276  11.452  1.1914 -1.1978 -1.9493
   26MOL0     H 3507   9.902   8.460  11.007  2.4793  0.5844  0.3551
   26MOL0     H 3508  10.169   8.439  10.788 -1.4742 -0.1841  0.1023
   26MOL0     H 3509  10.230   8.469  10.952 -0.1726 -0.4367  0.0493
   26MOL0     H 3510  10.091   8.360  10.927 -2.0075  1.1177 -1.2083
   27MOL0     O 3511   0.050   6.216   3.401  0.0718 -0.2360  0.2596
   27MOL0     C 3512  -0.022   6.206   3.501 -0.0099  0.2601 -1.0147
   27MOL0     O 3513   0.014   6.135   3.619 -0.3625  0.4810  0.3444
   27MOL0     C 3514   0.120   6.047   3.621  0.0435 -0.2860 -0.0517
   27MOL0     C 3515   0.113   5.934   3.704 -0.7978 -0.7107  0.2146
   27MOL0     C 3516   0.226   5.854   3.715  1.0985 -0.1159 -0.2180
   27MOL0     C 3517   0.341   5.870   3.640  0.2259 -0.4440  0.3583
   27MOL0     O 3518   0.450   5.786   3.673 -0.4037  0.3470 -0.5520
   27MOL0     C 3519   0.575   5.816   3.607 -0.1435 -0.5713 -0.3601
   27MOL0     C 3520   0.692   5.730   3.665 -0.3412 -0.0944 -0.4154
   27MOL0     C 3521   0.820   5.797   3.597 -0.0332  0.4559 -0.3959
   27MOL0     C 3522   0.938   5.707   3.595 -0.8770  0.2736 -0.6290
   27MOL0     C 3523   1.052   5.771   3.515  0.4196  1.1801  0.3578
   27MOL0     C 3524   1.014   5.789   3.366 -0.6746  0.5913  0.0600
   27MOL0     C 3525   1.143   5.851   3.305 -0.2391  0.6171  0.0548
   27MOL0     C 3526   1.143   5.834   3.153  0.3211  0.6538  0.2807
   27MOL0     N 3527   1.276   5.851   3.087 -0.7694  0.4887  0.5388
   27MOL0     C 3528   1.377   5.942   3.127  0.5383 -0.5521 -0.1684
   27MOL0     C 3529   1.478   5.909   3.050 -0.2424  0.7310  0.0716
   27MOL0     C 3530   1.599   5.993   3.039  0.5451 -0.7742  0.1576
   27MOL0     C 3531   1.730   5.944   3.118  0.8859  0.6512  0.5233
   27MOL0     C 3532   1.842   6.042   3.104 -0.7409 -0.2041  0.1950
   27MOL0     C 3533   1.977   5.991   3.145  0.3798  0.5980  0.2837
   27MOL0     O 3534   1.975   5.963   3.285  0.1257 -0.2178 -0.3578
   27MOL0     C 3535   2.084   5.918   3.350  0.2206  0.5447  0.3106
   27MOL0     C 3536   2.209   5.871   3.291  0.7176  0.5081 -0.7122
   27MOL0     C 3537   2.307   5.831   3.384  0.7390  0.2956 -0.3727
   27MOL0     C 3538   2.282   5.846   3.528  0.1185  0.0307  0.2114
   27MOL0     C 3539   2.390   5.803   3.623  0.5474 -0.8206  0.5305
   27MOL0     O 3540   2.506   5.758   3.569  0.1172 -0.3019 -0.3401
   27MOL0     C 3541   2.602   5.740   3.665 -0.1951  0.0544 -0.3838
   27MOL0     C 3542   2.617   5.610   3.720 -0.1735 -0.0535 -0.2495
   27MOL0     C 3543   2.712   5.591   3.823  0.5860  0.1158 -0.0246
   27MOL0     C 3544   2.801   5.690   3.863 -0.3283 -0.6830  0.7995
   27MOL0     O 3545   2.890   5.689   3.973  0.0996  0.5058 -0.0076
   27MOL0     C 3546   2.932   5.557   4.020 -0.4257 -0.0561  0.4628
   27MOL0     C 3547   3.041   5.507   3.924  0.7205 -0.6071  0.2276
   27MOL0     C 3548   3.162   5.608   3.928  0.6686 -1.0840  0.3062
   27MOL0     C 3549   3.278   5.568   3.835  0.0469  0.2459 -0.4202
   27MOL0     C 3550   3.402   5.647   3.861 -0.6885  0.2086 -0.8165
   27MOL0     C 3551   3.480   5.617   3.995  0.3723 -0.3906 -0.3076
   27MOL0     C 3552   3.618   5.678   3.988  1.4924 -0.8497  0.7590
   27MOL0     C 3553   3.693   5.661   4.116 -0.8697  0.1851 -0.6063
   27MOL0    Cl 3554   3.665   5.790   4.236 -0.0353  0.1411 -0.3003
   27MOL0     C 3555   2.785   5.812   3.794  0.2197 -0.1822 -0.6343
   27MOL0     C 3556   2.684   5.843   3.703 -0.1816 -0.5484  0.1121
   27MOL0     O 3557   2.366   5.806   3.743  0.5159 -0.1223  0.5482
   27MOL0     C 3558   2.155   5.897   3.575  0.6644  0.2969  0.9382
   27MOL0     C 3559   2.058   5.922   3.482 -0.1830 -0.4318 -0.3021
   27MOL0     N 3560   1.457   5.799   2.975 -0.5484 -0.2660 -0.1582
   27MOL0     N 3561   1.333   5.763   2.994  0.2847 -0.2056  0.2726
   27MOL0     C 3562   0.338   5.966   3.542  0.3299 -0.5756  0.6157
   27MOL0     C 3563   0.231   6.058   3.539 -0.4232  0.6696 -0.2028
   27MOL0     C 3564  -0.156   6.266   3.496 -1.0617 -0.2519 -0.7825
   27MOL0     C 3565  -0.171   6.401   3.469  0.0406  0.4445  0.7540
   27MOL0     C 3566  -0.298   6.451   3.444  0.1933 -0.2935 -0.1784
   27MOL0     C 3567  -0.415   6.377   3.469  0.8594  0.2937 -0.1956
   27MOL0     O 3568  -0.540   6.432   3.455 -0.0003 -0.1681 -0.0498
   27MOL0     C 3569  -0.642   6.347   3.393  0.0916 -0.3593 -1.4370
   27MOL0     C 3570  -0.768   6.429   3.364  0.8190  0.1657  0.0309
   27MOL0     C 3571  -0.730   6.529   3.253  0.7539 -0.3158  1.1145
   27MOL0     C 3572  -0.856   6.596   3.192 -0.1873 -0.1633  0.2204
   27MOL0     C 3573  -0.948   6.659   3.291  0.0219  1.2158  0.8524
   27MOL0     C 3574  -1.029   6.699   3.367 -0.0463  0.3410 -0.0513
   27MOL0     C 3575  -0.401   6.243   3.493 -0.3368  0.1582  0.0757
   27MOL0     C 3576  -0.270   6.191   3.502  0.6764 -0.1713 -0.1216
   27MOL0     C 3577  -0.265   6.044   3.523  0.1870  0.7606 -0.7150
   27MOL0     H 3578   0.041   5.924   3.785 -0.3759 -0.1458  0.6708
   27MOL0     H 3579   0.228   5.772   3.786  0.2735 -0.3643 -0.4690
   27MOL0     H 3580   0.560   5.796   3.501  0.4826  0.6872 -0.7085
   27MOL0     H 3581   0.590   5.922   3.631  3.6194 -0.8485 -0.9645
   27MOL0     H 3582   0.675   5.623   3.648  0.2165  0.2671 -4.0807
   27MOL0     H 3583   0.702   5.738   3.773  0.8498 -1.4818 -0.3959
   27MOL0     H 3584   0.845   5.889   3.650  1.3231  0.2902 -0.7310
   27MOL0     H 3585   0.782   5.832   3.501  2.7073 -0.7901 -2.0429
   27MOL0     H 3586   0.970   5.718   3.699 -1.8053  3.8177 -0.5825
   27MOL0     H 3587   0.918   5.605   3.562 -0.5071  0.0699 -0.2422
   27MOL0     H 3588   1.062   5.871   3.559  0.4837  0.5913  1.7283
   27MOL0     H 3589   1.142   5.709   3.523  2.5865  3.7180 -2.2238
   27MOL0     H 3590   0.970   5.700   3.319 -4.8676  1.3602  2.0245
   27MOL0     H 3591   0.936   5.867   3.364  0.2857  1.6369  1.7057
   27MOL0     H 3592   1.231   5.799   3.345 -2.2421 -0.8602  2.9119
   27MOL0     H 3593   1.148   5.955   3.338  1.3210  1.1666 -1.7153
   27MOL0     H 3594   1.097   5.737   3.129 -5.6993  3.5884 -1.9663
   27MOL0     H 3595   1.066   5.901   3.117 -2.1907 -2.1584  0.0027
   27MOL0     H 3596   1.365   6.027   3.193  2.0278  0.3615 -1.0205
   27MOL0     H 3597   1.609   6.016   2.932  2.1208 -2.1600 -0.0375
   27MOL0     H 3598   1.578   6.086   3.092  3.5238 -0.4441  0.9427
   27MOL0     H 3599   1.703   5.937   3.224  1.0688  1.5392  0.6341
   27MOL0     H 3600   1.758   5.848   3.075 -4.6091 -0.7420 -0.7006
   27MOL0     H 3601   1.829   6.141   3.149  0.1531  0.7462 -1.5173
   27MOL0     H 3602   1.838   6.061   2.996  0.5669  0.9145  0.2993
   27MOL0     H 3603   2.052   6.063   3.111 -1.5617  2.1856 -0.8791
   27MOL0     H 3604   1.991   5.899   3.087 -0.0432 -1.3040  3.0433
   27MOL0     H 3605   2.224   5.859   3.184 -0.0364 -0.0298 -0.7707
   27MOL0     H 3606   2.384   5.773   3.335 -1.6931 -0.6808 -3.3788
   27MOL0     H 3607   2.552   5.526   3.701  0.3277 -0.0507 -2.1414
   27MOL0     H 3608   2.709   5.494   3.872 -0.8651 -2.1308 -4.0220
   27MOL0     H 3609   2.985   5.587   4.111  1.2380  1.4278 -0.9122
   27MOL0     H 3610   2.852   5.486   4.042  0.7511 -1.1097  1.5447
   27MOL0     H 3611   3.079   5.411   3.958  2.2111  0.8590  3.1274
   27MOL0     H 3612   3.012   5.502   3.819  1.5159 -1.1146  0.0232
   27MOL0     H 3613   3.122   5.708   3.906 -1.7033 -2.4986 -2.5465
   27MOL0     H 3614   3.204   5.598   4.028 -0.2682 -4.0490  0.4894
   27MOL0     H 3615   3.254   5.582   3.730  1.7538  0.7954 -0.7694
   27MOL0     H 3616   3.291   5.460   3.851 -2.0115  0.0925  0.5491
   27MOL0     H 3617   3.375   5.752   3.870  1.7031  0.9419 -1.3702
   27MOL0     H 3618   3.464   5.636   3.771  1.4968 -1.0914  0.7403
   27MOL0     H 3619   3.419   5.662   4.074  0.5591 -0.9299  0.1493
   27MOL0     H 3620   3.480   5.509   4.006 -0.1052 -0.5064 -1.3330
   27MOL0     H 3621   3.609   5.780   3.951 -0.7868 -1.4186 -0.4653
   27MOL0     H 3622   3.667   5.621   3.909  0.6692 -1.9214  0.9876
   27MOL0     H 3623   3.674   5.561   4.155 -2.2515  0.7830  0.3489
   27MOL0     H 3624   3.801   5.672   4.100 -0.1654 -0.0997  2.9873
   27MOL0     H 3625   2.856   5.890   3.822 -0.2658  1.2392 -3.0436
   27MOL0     H 3626   2.673   5.943   3.664  0.0406  0.0055  1.4203
   27MOL0     H 3627   2.136   5.923   3.679 -1.0561 -2.3603  1.4029
   27MOL0     H 3628   1.960   5.964   3.506 -0.2209 -0.3275 -0.6322
   27MOL0     H 3629   0.422   5.977   3.475 -0.7219 -2.2666 -1.0913
   27MOL0     H 3630   0.252   6.133   3.464  1.3360 -2.4215 -3.1268
   27MOL0     H 3631  -0.080   6.459   3.456 -0.4042  0.7276 -1.4290
   27MOL0     H 3632  -0.307   6.556   3.420 -2.3441 -0.2321  0.7066
   27MOL0     H 3633  -0.674   6.266   3.459 -1.2489  2.7243  2.0619
   27MOL0     H 3634  -0.611   6.316   3.293  1.4580  2.5515 -2.0305
   27MOL0     H 3635  -0.809   6.482   3.450  1.5223  0.0709  0.4287
   27MOL0     H 3636  -0.853   6.366   3.336  1.0151 -0.1048  0.0434
   27MOL0     H 3637  -0.661   6.495   3.176  0.9147  2.5172 -0.1023
   27MOL0     H 3638  -0.672   6.605   3.306  2.7696  0.0211 -1.3882
   27MOL0     H 3639  -0.817   6.681   3.136  0.1767  0.2427  1.0847
   27MOL0     H 3640  -0.913   6.528   3.128  1.1306 -0.4691 -0.6708
   27MOL0     H 3641  -1.105   6.735   3.435  1.9264 -0.4202  2.7419
   27MOL0     H 3642  -0.480   6.169   3.502  0.8537 -1.7739 -3.6284
   27MOL0     H 3643  -0.342   6.007   3.592  0.3491  1.8533  0.0711
   27MOL0     H 3644  -0.271   5.989   3.429  0.8983 -2.0546  0.7941
   27MOL0     H 3645  -0.169   6.016   3.567 -0.7650 -1.5261  0.0694
   28MOL0     O 3646   5.605   9.572  10.738  0.7889 -0.6111  0.1955
   28MOL0     C 3647   5.516   9.500  10.703 -0.5005  1.0007 -0.2131
   28MOL0     O 3648   5.511   9.426  10.598 -0.0020  0.1217  0.3209
   28MOL0     C 3649   5.608   9.411  10.505  0.3925 -0.2435  0.3239
   28MOL0     C 3650   5.587   9.304  10.414  0.5314 -0.9298  0.1687
   28MOL0     C 3651   5.677   9.276  10.310  0.6741  0.4060  0.3713
   28MOL0     C 3652   5.780   9.361  10.275 -0.4547  0.3351 -0.0733
   28MOL0     O 3653   5.856   9.352  10.160 -0.0659 -0.1947  0.3039
   28MOL0     C 3654   5.859   9.465  10.071  1.0917  0.3849 -0.0152
   28MOL0     C 3655   5.981   9.554  10.074  0.6116 -0.1603  0.1114
   28MOL0     C 3656   6.097   9.479  10.014 -0.4927  0.2589 -0.2910
   28MOL0     C 3657   6.095   9.486   9.863  0.5246  0.6803 -0.1832
   28MOL0     C 3658   6.236   9.475   9.800  0.6277  0.2986 -0.5174
   28MOL0     C 3659   6.320   9.361   9.852  0.4457  0.7260  0.1843
   28MOL0     C 3660   6.454   9.342   9.785  0.4351  0.8914 -0.4479
   28MOL0     C 3661   6.536   9.240   9.864  0.3944 -0.5904 -0.4860
   28MOL0     N 3662   6.671   9.224   9.816 -0.4227  0.7100  0.9326
   28MOL0     C 3663   6.763   9.325   9.812  0.0892 -0.1185  0.6878
   28MOL0     C 3664   6.871   9.265   9.749  0.1239  0.4292 -0.1292
   28MOL0     C 3665   6.989   9.339   9.694 -0.7359  0.5020 -0.6828
   28MOL0     C 3666   7.112   9.259   9.741  0.3233  0.5986  0.0755
   28MOL0     C 3667   7.254   9.310   9.719  0.0533 -0.2533 -0.5491
   28MOL0     C 3668   7.274   9.348   9.572  0.4448 -0.2549 -0.2800
   28MOL0     O 3669   7.391   9.427   9.547 -0.9776 -0.0272 -0.3068
   28MOL0     C 3670   7.480   9.389   9.443 -0.2283 -0.3143  0.1461
   28MOL0     C 3671   7.443   9.329   9.323  0.6379 -0.2444 -0.0789
   28MOL0     C 3672   7.533   9.274   9.232  0.0002  1.5205  0.0012
   28MOL0     C 3673   7.671   9.276   9.256 -0.2748  0.2830 -0.1833
   28MOL0     C 3674   7.762   9.210   9.162  0.4795 -0.4430 -0.8669
   28MOL0     O 3675   7.706   9.131   9.065 -0.4216  0.5136  0.1295
   28MOL0     C 3676   7.773   9.035   8.999 -0.3005 -0.0990  0.9495
   28MOL0     C 3677   7.703   8.929   8.932 -0.7421 -0.2240  0.1057
   28MOL0     C 3678   7.765   8.824   8.865 -0.4649  0.1232 -0.2371
   28MOL0     C 3679   7.910   8.823   8.856 -0.0339  0.1872 -0.5714
   28MOL0     O 3680   7.983   8.723   8.790 -0.4414  0.1506  0.0989
   28MOL0     C 3681   7.913   8.609   8.750  0.5669  0.5397  0.4554
   28MOL0     C 3682   8.015   8.493   8.776 -0.6010 -0.6845 -0.9310
   28MOL0     C 3683   8.065   8.475   8.923  0.1492  0.0708 -0.3220
   28MOL0     C 3684   7.954   8.436   9.023  0.0006  0.5940 -0.2298
   28MOL0     C 3685   8.015   8.383   9.152  0.6224 -0.3156 -0.1292
   28MOL0     C 3686   7.935   8.293   9.252  0.8830  0.3695  1.0936
   28MOL0     C 3687   7.818   8.352   9.320 -0.3534  0.1850 -0.1585
   28MOL0     C 3688   7.766   8.255   9.431  0.2798  0.0113  0.0661
   28MOL0    Cl 3689   7.643   8.345   9.511 -0.3821  0.4402 -0.0264
   28MOL0     C 3690   7.978   8.933   8.905 -0.8244  0.2469 -0.7632
   28MOL0     C 3691   7.910   9.040   8.975  0.3149 -0.3192  0.2703
   28MOL0     O 3692   7.881   9.212   9.195  0.3605 -0.1249 -0.3325
   28MOL0     C 3693   7.710   9.352   9.365 -0.5639 -0.9240  0.2322
   28MOL0     C 3694   7.614   9.402   9.465 -0.2085  0.9795  0.4431
   28MOL0     N 3695   6.836   9.134   9.725 -0.2916  0.4264  0.6443
   28MOL0     N 3696   6.718   9.109   9.765  0.3566 -0.0790  0.4748
   28MOL0     C 3697   5.801   9.463  10.369  0.2381 -0.0092 -1.2298
   28MOL0     C 3698   5.720   9.488  10.482  0.7198  0.0803 -0.8696
   28MOL0     C 3699   5.409   9.478  10.806 -0.4180  0.2697  0.0005
   28MOL0     C 3700   5.434   9.527  10.938  0.0638 -0.2211 -0.9206
   28MOL0     C 3701   5.337   9.493  11.041 -1.0040  0.0418  0.7711
   28MOL0     C 3702   5.221   9.424  11.018  0.8625  0.5751 -0.0913
   28MOL0     O 3703   5.122   9.398  11.108  0.2943 -0.0147 -0.4451
   28MOL0     C 3704   5.094   9.501  11.200  0.1986  0.2333  0.5183
   28MOL0     C 3705   4.970   9.454  11.280 -0.6370  0.0739 -0.2736
   28MOL0     C 3706   4.837   9.436  11.201  0.8188  0.8665  0.2571
   28MOL0     C 3707   4.716   9.414  11.289 -0.3545 -0.9298 -0.1789
   28MOL0     C 3708   4.729   9.339  11.408 -0.0993  0.7144 -0.7245
   28MOL0     C 3709   4.724   9.278  11.516 -0.0054 -0.5750 -0.8129
   28MOL0     C 3710   5.208   9.367  10.900  0.7494 -0.3501  0.5447
   28MOL0     C 3711   5.288   9.395  10.790  0.4887 -0.5008  0.0365
   28MOL0     C 3712   5.242   9.341  10.655  0.6983  0.1135 -0.3040
   28MOL0     H 3713   5.506   9.234  10.428  1.2732 -2.5617 -2.7932
   28MOL0     H 3714   5.650   9.191  10.248 -1.0223  0.3914  1.0755
   28MOL0     H 3715   5.835   9.433   9.969  0.0896  0.6716  0.1193
   28MOL0     H 3716   5.771   9.528  10.088  0.7783  0.2794 -1.1217
   28MOL0     H 3717   5.986   9.587  10.178  0.3491 -1.4774  0.5660
   28MOL0     H 3718   5.957   9.640  10.011 -0.6212  0.2119  1.0478
   28MOL0     H 3719   6.095   9.372  10.035  0.4491  0.0813 -1.0068
   28MOL0     H 3720   6.182   9.531  10.059 -0.5426 -0.2531  0.4106
   28MOL0     H 3721   6.021   9.421   9.815  1.6295 -0.4024 -0.4983
   28MOL0     H 3722   6.069   9.586   9.828  2.1247  0.9562 -0.6768
   28MOL0     H 3723   6.216   9.464   9.693 -0.4111  0.2252 -0.3264
   28MOL0     H 3724   6.282   9.573   9.820 -0.9173  1.0294 -0.3902
   28MOL0     H 3725   6.347   9.379   9.957  0.8835  1.0201  0.0240
   28MOL0     H 3726   6.269   9.265   9.844  2.3483 -0.2608 -0.7507
   28MOL0     H 3727   6.496   9.443   9.782 -0.9000  1.5358  0.8359
   28MOL0     H 3728   6.441   9.298   9.686  1.2745 -2.2412  0.7196
   28MOL0     H 3729   6.551   9.273   9.967  0.4141  0.4594 -0.8188
   28MOL0     H 3730   6.495   9.139   9.875  1.4965 -0.8503  1.8022
   28MOL0     H 3731   6.752   9.421   9.862 -2.6716 -0.5164  1.0261
   28MOL0     H 3732   6.992   9.345   9.585  1.9677  2.4078 -0.6067
   28MOL0     H 3733   6.991   9.441   9.733 -0.1094  0.6579 -1.1037
   28MOL0     H 3734   7.106   9.248   9.850  0.9728 -3.2474 -0.1402
   28MOL0     H 3735   7.116   9.159   9.698  0.8847  0.3059  0.7868
   28MOL0     H 3736   7.326   9.232   9.743 -1.7084 -2.4559 -2.0173
   28MOL0     H 3737   7.268   9.393   9.788  1.8963 -3.2349  2.9740
   28MOL0     H 3738   7.193   9.417   9.546  0.8818  0.7097  0.7926
   28MOL0     H 3739   7.280   9.256   9.515 -0.0378 -1.5283  1.6277
   28MOL0     H 3740   7.336   9.317   9.308 -0.0008  2.5892  1.6386
   28MOL0     H 3741   7.490   9.220   9.148 -0.7835  1.3302  0.5220
   28MOL0     H 3742   7.597   8.919   8.952 -1.0110 -0.9323 -1.4784
   28MOL0     H 3743   7.700   8.749   8.821  0.4450 -0.8011 -0.0350
   28MOL0     H 3744   7.817   8.600   8.801 -1.3930  0.9740 -2.9150
   28MOL0     H 3745   7.895   8.615   8.643 -0.8691 -1.8576  0.4922
   28MOL0     H 3746   7.966   8.396   8.765 -2.0067 -0.0981 -0.1675
   28MOL0     H 3747   8.106   8.504   8.717  1.3794  0.5391  2.1492
   28MOL0     H 3748   8.141   8.396   8.921  2.6280  2.2502  1.8385
   28MOL0     H 3749   8.107   8.570   8.957 -1.0028  0.0521  1.2655
   28MOL0     H 3750   7.891   8.354   8.985 -0.1079  0.6939 -0.2651
   28MOL0     H 3751   7.893   8.526   9.032 -0.0183  0.4291  1.8230
   28MOL0     H 3752   8.037   8.462   9.223  0.0075 -1.4945  1.4181
   28MOL0     H 3753   8.113   8.339   9.133  1.6678  2.3718 -1.4520
   28MOL0     H 3754   7.903   8.217   9.180 -0.4249  2.5650 -0.7679
   28MOL0     H 3755   7.998   8.235   9.320 -0.2101  0.2718  2.0516
   28MOL0     H 3756   7.744   8.367   9.241 -2.6270 -2.3199  1.3470
   28MOL0     H 3757   7.842   8.449   9.363 -0.3646  0.8565 -1.5875
   28MOL0     H 3758   7.708   8.178   9.380 -0.7023  0.6579  0.1797
   28MOL0     H 3759   7.845   8.213   9.494  2.6609 -0.9376 -3.2764
   28MOL0     H 3760   8.084   8.918   8.891 -0.5671  0.4509  0.7231
   28MOL0     H 3761   7.968   9.125   9.011 -1.7330  1.1157  0.4145
   28MOL0     H 3762   7.816   9.373   9.371 -0.8475  2.2509 -2.8316
   28MOL0     H 3763   7.649   9.468   9.544 -2.1949  4.3508 -1.2314
   28MOL0     H 3764   5.884   9.533  10.361  1.9411 -1.9594 -1.3073
   28MOL0     H 3765   5.733   9.573  10.547 -1.2400 -1.0140  1.0700
   28MOL0     H 3766   5.521   9.590  10.953  0.1411 -0.1177 -1.7676
   28MOL0     H 3767   5.363   9.535  11.137  2.2484 -0.8445  0.4150
   28MOL0     H 3768   5.068   9.592  11.146 -2.4989 -1.5983 -1.5953
   28MOL0     H 3769   5.178   9.516  11.268  0.6934 -1.5256  0.3420
   28MOL0     H 3770   4.946   9.541  11.341 -0.6495 -0.4342  0.4622
   28MOL0     H 3771   5.005   9.367  11.337 -0.3277 -0.2305 -0.9182
   28MOL0     H 3772   4.842   9.348  11.135  2.2118 -0.0543  1.5179
   28MOL0     H 3773   4.814   9.522  11.137  0.0356 -0.3637 -1.1817
   28MOL0     H 3774   4.674   9.509  11.321  1.0717 -0.6841  1.0450
   28MOL0     H 3775   4.640   9.378  11.218 -1.5080 -0.6660  0.8802
   28MOL0     H 3776   4.709   9.235  11.613 -1.0382  0.8725 -0.2968
   28MOL0     H 3777   5.115   9.315  10.878  0.6926  0.0333 -0.1535
   28MOL0     H 3778   5.149   9.284  10.660  0.6012  0.3265  0.3483
   28MOL0     H 3779   5.230   9.429  10.592  1.1034  2.6411  2.8862
   28MOL0     H 3780   5.315   9.273  10.610  0.5118 -0.1311 -0.2406
   29MOL0     O 3781   5.713   1.073   6.793  0.1533 -0.4193  0.0632
   29MOL0     C 3782   5.671   1.081   6.911 -0.1564 -0.1049 -0.4510
   29MOL0     O 3783   5.747   1.142   7.015  0.0502  0.0942 -0.8358
   29MOL0     C 3784   5.873   1.178   6.971  0.3514  0.6917 -0.1579
   29MOL0     C 3785   5.989   1.108   7.016  0.1375 -0.2108  0.3404
   29MOL0     C 3786   6.112   1.141   6.972 -1.2886  0.1549  0.3281
   29MOL0     C 3787   6.136   1.229   6.867 -0.4754 -0.2553 -0.9230
   29MOL0     O 3788   6.259   1.261   6.830 -0.5951 -0.6544  0.0985
   29MOL0     C 3789   6.278   1.369   6.741  0.4080  0.2356 -0.7835
   29MOL0     C 3790   6.428   1.387   6.703  0.0847  0.5254  1.2010
   29MOL0     C 3791   6.473   1.265   6.611 -0.8997  0.3810  0.5406
   29MOL0     C 3792   6.620   1.274   6.596 -0.0685 -0.3731 -0.5247
   29MOL0     C 3793   6.687   1.149   6.528  0.0978 -0.0411  0.3231
   29MOL0     C 3794   6.827   1.188   6.474 -0.1286 -0.2214  0.4868
   29MOL0     C 3795   6.908   1.064   6.431  0.7099 -0.3177 -0.4504
   29MOL0     C 3796   7.039   1.110   6.371  0.0132  0.1250  0.2794
   29MOL0     N 3797   7.135   0.995   6.377 -0.9070  0.1899 -0.4661
   29MOL0     C 3798   7.269   1.003   6.347 -0.5339 -0.3251  0.0932
   29MOL0     C 3799   7.318   0.876   6.364  0.0176  0.2526 -0.1328
   29MOL0     C 3800   7.455   0.829   6.343  0.4831  0.0862 -0.0287
   29MOL0     C 3801   7.545   0.875   6.455  0.0704  0.9270  0.8312
   29MOL0     C 3802   7.521   0.808   6.593  0.1840  0.6395  0.3975
   29MOL0     C 3803   7.640   0.801   6.684  0.0833  0.1689 -0.3850
   29MOL0     O 3804   7.679   0.930   6.731  0.5489 -0.6995  0.1954
   29MOL0     C 3805   7.807   0.933   6.765 -0.8200 -0.0321 -0.4100
   29MOL0     C 3806   7.847   0.877   6.894 -0.2612 -0.6009  0.2983
   29MOL0     C 3807   7.987   0.881   6.928 -0.0215  0.9274 -0.3198
   29MOL0     C 3808   8.078   0.927   6.840  0.7133 -0.0290  0.8052
   29MOL0     C 3809   8.220   0.919   6.875  0.6535 -0.0098  0.3313
   29MOL0     O 3810   8.243   0.862   6.993  0.3164  0.3201 -0.3998
   29MOL0     C 3811   8.372   0.857   7.029  0.5541  0.3753  0.1095
   29MOL0     C 3812   8.430   0.951   7.117  0.1485  0.3600  0.1201
   29MOL0     C 3813   8.564   0.931   7.159 -0.2960 -0.3893 -0.6329
   29MOL0     C 3814   8.637   0.820   7.120 -0.2774 -1.0828 -0.2880
   29MOL0     O 3815   8.764   0.806   7.155 -0.1174  0.0375 -0.1604
   29MOL0     C 3816   8.776   0.694   7.251 -0.0923  0.1231 -0.3961
   29MOL0     C 3817   8.913   0.705   7.306  0.0777  0.6104  0.1393
   29MOL0     C 3818   9.027   0.678   7.203 -0.1197 -0.1393 -0.4039
   29MOL0     C 3819   9.040   0.539   7.138  0.5780 -1.8218 -0.5540
   29MOL0     C 3820   9.156   0.543   7.044 -0.3154 -1.0773 -0.9380
   29MOL0     C 3821   9.191   0.409   6.987  0.4724  0.1050 -0.9031
   29MOL0     C 3822   9.268   0.416   6.853  0.4065  0.5512 -0.3824
   29MOL0     C 3823   9.416   0.369   6.856  0.0517  0.2256 -0.3884
   29MOL0    Cl 3824   9.476   0.322   6.691  0.3514 -0.2548 -0.0575
   29MOL0     C 3825   8.577   0.731   7.035  0.6490 -0.6799  0.8476
   29MOL0     C 3826   8.448   0.748   6.988  0.4333  0.7582 -0.5109
   29MOL0     O 3827   8.308   0.977   6.804  0.6981  0.1312  0.3351
   29MOL0     C 3828   8.035   0.980   6.715 -0.9732  0.2663  0.1150
   29MOL0     C 3829   7.899   0.979   6.674 -0.8732  0.4520 -0.1411
   29MOL0     N 3830   7.211   0.792   6.395 -0.4897  0.5866 -0.2753
   29MOL0     N 3831   7.105   0.864   6.401 -0.0086  0.0109  0.1095
   29MOL0     C 3832   6.025   1.296   6.810  0.2032  0.2307 -0.2668
   29MOL0     C 3833   5.899   1.279   6.880  0.4706  0.6964  0.3845
   29MOL0     C 3834   5.544   1.026   6.949 -0.2717 -0.4407  0.8145
   29MOL0     C 3835   5.537   0.938   7.059  0.4304 -0.4073 -0.4153
   29MOL0     C 3836   5.414   0.883   7.106  0.2070  0.3387  0.8268
   29MOL0     C 3837   5.295   0.920   7.046  0.9197 -0.1317  1.2355
   29MOL0     O 3838   5.180   0.868   7.104  0.2147 -0.2144 -0.2208
   29MOL0     C 3839   5.061   0.944   7.071 -0.7264  0.9102  0.0659
   29MOL0     C 3840   4.936   0.899   7.128  0.0270  0.1967  0.4780
   29MOL0     C 3841   4.807   0.996   7.101  0.2045 -1.0880  0.5607
   29MOL0     C 3842   4.689   0.943   7.173 -0.0279  0.2636  1.0302
   29MOL0     C 3843   4.571   1.037   7.154  0.5037 -0.4001 -0.6396
   29MOL0     C 3844   4.463   1.091   7.158  0.5513 -0.7404 -0.3480
   29MOL0     C 3845   5.301   1.011   6.942  0.4042  0.7180  0.8547
   29MOL0     C 3846   5.424   1.067   6.900  0.5050  0.4446  0.0551
   29MOL0     C 3847   5.419   1.163   6.788 -0.4386 -0.2701 -0.1150
   29MOL0     H 3848   5.977   1.035   7.095  1.5281  0.9679  1.6904
   29MOL0     H 3849   6.200   1.084   7.000  0.0332  2.3856  0.9650
   29MOL0     H 3850   6.225   1.355   6.646  0.7377  2.0254 -1.2743
   29MOL0     H 3851   6.249   1.460   6.794 -0.9610  0.1615 -1.3522
   29MOL0     H 3852   6.495   1.400   6.788  1.2121  0.8938  0.2812
   29MOL0     H 3853   6.429   1.479   6.643 -0.2673 -0.6650 -0.7284
   29MOL0     H 3854   6.414   1.265   6.519 -3.3504 -0.6893  2.0127
   29MOL0     H 3855   6.442   1.169   6.653  0.1774  0.1252  0.7725
   29MOL0     H 3856   6.641   1.364   6.536 -0.0126 -0.6321 -0.8974
   29MOL0     H 3857   6.655   1.281   6.699 -4.0891 -0.6194  1.0514
   29MOL0     H 3858   6.693   1.063   6.595  0.9059 -1.5562 -1.6034
   29MOL0     H 3859   6.618   1.124   6.447  1.3151  0.7823 -1.0046
   29MOL0     H 3860   6.816   1.266   6.398 -0.0884 -1.5549 -0.9355
   29MOL0     H 3861   6.888   1.236   6.551 -0.1073  1.5589 -0.5916
   29MOL0     H 3862   6.848   1.002   6.364  0.0827 -0.7302  0.4747
   29MOL0     H 3863   6.931   1.003   6.519  0.2142  0.1808  0.0282
   29MOL0     H 3864   7.029   1.139   6.266  1.3721  3.3590  0.9414
   29MOL0     H 3865   7.088   1.193   6.423  1.1181 -0.6210  0.4800
   29MOL0     H 3866   7.321   1.093   6.315 -0.8644 -0.4845 -0.9191
   29MOL0     H 3867   7.462   0.720   6.337 -1.1473  0.0218 -1.4330
   29MOL0     H 3868   7.472   0.873   6.245 -3.8091  0.9515 -0.5973
   29MOL0     H 3869   7.642   0.848   6.412 -1.0475  0.3482 -1.5066
   29MOL0     H 3870   7.540   0.984   6.454 -4.7854  1.0218 -3.1268
   29MOL0     H 3871   7.498   0.703   6.575 -2.4327  1.1197  0.4861
   29MOL0     H 3872   7.432   0.850   6.641 -1.5204 -2.2889  0.0286
   29MOL0     H 3873   7.721   0.759   6.623 -1.2029  0.7259 -2.5942
   29MOL0     H 3874   7.618   0.737   6.770  2.7145 -0.0929  0.1801
   29MOL0     H 3875   7.773   0.844   6.966 -2.2700  2.3396 -0.2639
   29MOL0     H 3876   8.018   0.850   7.028  1.0595 -0.3447 -1.0216
   29MOL0     H 3877   8.388   1.043   7.156 -2.6983  0.2164 -2.2417
   29MOL0     H 3878   8.617   1.004   7.219 -0.8592  0.0749 -0.6894
   29MOL0     H 3879   8.705   0.714   7.331  1.7789 -0.2410  1.4302
   29MOL0     H 3880   8.761   0.592   7.213 -0.6617  0.2539 -0.5299
   29MOL0     H 3881   8.919   0.807   7.345  0.7953  0.9740 -0.8881
   29MOL0     H 3882   8.928   0.635   7.389  0.3767 -1.2054 -1.3903
   29MOL0     H 3883   9.006   0.749   7.123 -0.9540  0.4460  0.3176
   29MOL0     H 3884   9.128   0.701   7.239 -0.5807 -0.3129  1.0889
   29MOL0     H 3885   8.944   0.515   7.093  1.0876 -0.5333 -2.4730
   29MOL0     H 3886   9.070   0.471   7.219  1.4087 -0.5410  0.2698
   29MOL0     H 3887   9.236   0.582   7.108 -2.1147 -1.5304  1.7412
   29MOL0     H 3888   9.124   0.615   6.967  0.9918 -0.5599 -1.0273
   29MOL0     H 3889   9.238   0.351   7.067 -1.0454  0.1387  0.0508
   29MOL0     H 3890   9.095   0.361   6.966  0.8168 -2.2327  2.1298
   29MOL0     H 3891   9.247   0.511   6.804  2.6460  0.5264 -1.5201
   29MOL0     H 3892   9.220   0.344   6.785  1.7285 -2.0213  1.2148
   29MOL0     H 3893   9.476   0.451   6.897  2.3316 -0.5187 -2.0302
   29MOL0     H 3894   9.420   0.281   6.921 -0.5115  0.7623  0.3915
   29MOL0     H 3895   8.632   0.640   7.016  4.1215  1.6610 -1.4137
   29MOL0     H 3896   8.424   0.679   6.907 -0.6150  0.1089  0.3323
   29MOL0     H 3897   8.108   0.999   6.637  0.3237 -3.1754  0.3151
   29MOL0     H 3898   7.870   0.998   6.571  0.2341 -0.1800 -0.5908
   29MOL0     H 3899   6.021   1.358   6.721  1.2364 -2.9938 -2.7772
   29MOL0     H 3900   5.809   1.330   6.846  0.7211  0.0514 -1.3553
   29MOL0     H 3901   5.617   0.897   7.119 -0.4337  0.0841  1.1374
   29MOL0     H 3902   5.406   0.821   7.195  0.8136 -1.3244 -0.2556
   29MOL0     H 3903   5.047   0.937   6.963 -1.6594  0.9090  0.1789
   29MOL0     H 3904   5.077   1.045   7.111  1.6503 -0.4655  3.0022
   29MOL0     H 3905   4.953   0.876   7.234 -0.7087 -4.3593 -0.2148
   29MOL0     H 3906   4.913   0.804   7.080 -0.6906 -0.3592  1.8512
   29MOL0     H 3907   4.781   1.005   6.996  1.3175  2.4595  0.4576
   29MOL0     H 3908   4.833   1.098   7.134 -0.0298  0.8982 -4.5409
   29MOL0     H 3909   4.664   0.847   7.127  0.2115  0.8898 -0.4678
   29MOL0     H 3910   4.719   0.931   7.277 -2.0289 -0.0573  1.6216
   29MOL0     H 3911   4.370   1.144   7.160 -0.1345 -1.8520 -1.5786
   29MOL0     H 3912   5.203   1.033   6.902 -0.2867  2.6140  3.3440
   29MOL0     H 3913   5.315   1.175   6.756  0.2789 -0.7632 -2.9244
   29MOL0     H 3914   5.471   1.255   6.819  1.7747 -1.1249 -1.0862
   29MOL0     H 3915   5.460   1.122   6.696 -1.9243  0.7589 -1.2824
   30MOL0     O 3916   7.822   8.924   2.960 -0.8011  0.2321  0.0216
   30MOL0     C 3917   7.763   8.976   2.865  0.0338  0.6892 -1.1262
   30MOL0     O 3918   7.824   9.029   2.762 -0.0297 -0.1908 -0.6841
   30MOL0     C 3919   7.958   9.074   2.769  1.1592 -0.3129 -0.0774
   30MOL0     C 3920   8.039   9.043   2.660 -0.7145 -0.2605 -0.1064
   30MOL0     C 3921   8.163   9.100   2.651 -0.7551  0.2133  0.1189
   30MOL0     C 3922   8.217   9.172   2.761 -0.1607 -0.3632  0.2794
   30MOL0     O 3923   8.347   9.213   2.731  0.1641  0.9040  0.3366
   30MOL0     C 3924   8.393   9.327   2.796  0.4055 -1.0075 -0.3573
   30MOL0     C 3925   8.543   9.336   2.771 -0.7175  0.8056 -0.7708
   30MOL0     C 3926   8.623   9.243   2.867 -0.3545  0.3354  1.0001
   30MOL0     C 3927   8.768   9.281   2.864 -0.1985  0.9869  0.0901
   30MOL0     C 3928   8.846   9.171   2.941  0.0299 -0.1382  0.0206
   30MOL0     C 3929   8.997   9.215   2.962 -0.9192 -0.2432 -0.1356
   30MOL0     C 3930   9.086   9.110   3.027  0.1910  0.5927  0.7886
   30MOL0     C 3931   9.036   9.004   3.130  0.3713  0.7403  1.1629
   30MOL0     N 3932   9.133   8.906   3.170 -0.4960 -0.2149  0.1732
   30MOL0     C 3933   9.267   8.930   3.199  0.5127 -0.3011  0.8272
   30MOL0     C 3934   9.323   8.811   3.220  0.0776  0.3313  0.2238
   30MOL0     C 3935   9.463   8.789   3.270  0.2782  0.3146  0.3545
   30MOL0     C 3936   9.458   8.716   3.405  0.8384 -0.3939  0.1680
   30MOL0     C 3937   9.365   8.793   3.510 -0.3010  0.2657  0.1466
   30MOL0     C 3938   9.460   8.868   3.610  0.0548 -0.1057  0.9323
   30MOL0     O 3939   9.573   8.790   3.647  0.5158 -0.0337  0.2625
   30MOL0     C 3940   9.670   8.853   3.722 -0.6178  0.2229  0.6068
   30MOL0     C 3941   9.660   8.975   3.783  0.2636 -0.1447  0.0793
   30MOL0     C 3942   9.766   9.048   3.838 -0.2877 -1.0054  0.5283
   30MOL0     C 3943   9.893   8.988   3.819  0.0490  0.2187  0.3450
   30MOL0     C 3944  10.012   9.051   3.879 -0.2082 -0.0335 -0.4684
   30MOL0     O 3945  10.131   8.977   3.865 -0.1596 -0.4117 -0.2417
   30MOL0     C 3946  10.252   9.015   3.930  0.0278 -0.4292  0.0168
   30MOL0     C 3947  10.286   9.134   4.000 -0.0179  0.4702  0.2600
   30MOL0     C 3948  10.418   9.158   4.048  0.0703  0.5392 -0.0857
   30MOL0     C 3949  10.528   9.068   4.023 -0.6800 -0.2850 -0.1328
   30MOL0     O 3950  10.660   9.084   4.058  0.1956  0.1774  0.6331
   30MOL0     C 3951  10.681   9.179   4.163 -0.0376  1.0150 -0.3690
   30MOL0     C 3952  10.821   9.188   4.215  0.0031  0.3348 -0.2751
   30MOL0     C 3953  10.859   9.063   4.297 -0.8334  0.2028 -0.0186
   30MOL0     C 3954  11.006   9.055   4.338  0.4211 -0.3333 -0.9902
   30MOL0     C 3955  11.101   9.024   4.225 -0.5955 -0.0708  1.2812
   30MOL0     C 3956  11.255   9.049   4.268 -0.3867  0.8831 -0.7500
   30MOL0     C 3957  11.348   9.012   4.165 -0.2996  0.3480  0.7557
   30MOL0     C 3958  11.482   8.994   4.241 -0.3933 -0.2307 -0.2727
   30MOL0    Cl 3959  11.617   8.975   4.114  0.1791  0.5007 -0.0518
   30MOL0     C 3960  10.490   8.955   3.956  0.8697  0.5826  0.3662
   30MOL0     C 3961  10.364   8.933   3.903  1.0784 -0.0237  0.5696
   30MOL0     O 3962  10.001   9.149   3.951  0.1388 -0.6518 -0.1220
   30MOL0     C 3963   9.913   8.873   3.750 -0.1983  0.3251  0.0722
   30MOL0     C 3964   9.803   8.801   3.707  0.8305  0.8178 -0.2723
   30MOL0     N 3965   9.221   8.714   3.213  0.4663 -0.1294 -0.1668
   30MOL0     N 3966   9.109   8.770   3.182  0.0725  0.9977 -0.1453
   30MOL0     C 3967   8.133   9.202   2.871 -0.0707 -0.0748 -0.5965
   30MOL0     C 3968   8.000   9.166   2.869  0.7241 -0.0876  0.1914
   30MOL0     C 3969   7.615   8.982   2.882 -0.3455 -0.0165 -0.0896
   30MOL0     C 3970   7.544   9.093   2.820  0.5645 -0.0262 -0.6714
   30MOL0     C 3971   7.410   9.108   2.847  0.4753 -0.2898  0.2459
   30MOL0     C 3972   7.335   9.016   2.918  0.2404  0.2204  0.4153
   30MOL0     O 3973   7.197   9.042   2.914 -0.5104  0.0260  0.4841
   30MOL0     C 3974   7.120   8.938   2.978  0.7115 -0.5645  0.1150
   30MOL0     C 3975   6.980   8.970   2.985  0.5667 -0.2802 -0.1657
   30MOL0     C 3976   6.909   8.937   2.863  1.3120  0.5307 -0.4921
   30MOL0     C 3977   6.762   8.975   2.857  0.6886 -0.9074  0.7724
   30MOL0     C 3978   6.675   8.917   2.956  0.1446  0.2363 -0.4822
   30MOL0     C 3979   6.604   8.882   3.051  0.2231 -0.7993 -0.8691
   30MOL0     C 3980   7.400   8.892   2.958  0.3925 -0.3424 -0.1075
   30MOL0     C 3981   7.541   8.882   2.949  0.6843 -0.5736 -0.1172
   30MOL0     C 3982   7.592   8.750   2.991 -1.1259 -0.7547 -0.3112
   30MOL0     H 3983   8.015   8.989   2.569  0.4348  2.8079 -2.4069
   30MOL0     H 3984   8.227   9.090   2.563 -2.6686 -2.1673 -1.1287
   30MOL0     H 3985   8.341   9.409   2.747 -1.3488 -0.8931  1.5502
   30MOL0     H 3986   8.357   9.340   2.899 -1.7620  2.3268 -1.3802
   30MOL0     H 3987   8.575   9.439   2.785  1.2558  0.3896 -1.7811
   30MOL0     H 3988   8.587   9.312   2.674  4.4568  0.4753  1.3426
   30MOL0     H 3989   8.621   9.141   2.828  1.0543  0.4475  0.5651
   30MOL0     H 3990   8.586   9.258   2.968  1.1110  0.5474  1.5273
   30MOL0     H 3991   8.811   9.266   2.765  1.3250  0.2494  0.8190
   30MOL0     H 3992   8.776   9.386   2.895 -3.3720  1.0863  0.9345
   30MOL0     H 3993   8.802   9.157   3.040 -0.2113  2.5270  0.3598
   30MOL0     H 3994   8.841   9.079   2.883 -3.0627  1.7812 -3.1438
   30MOL0     H 3995   9.043   9.240   2.866  4.1962 -2.0955  1.5289
   30MOL0     H 3996   8.990   9.307   3.022  0.2874  1.0970 -1.9451
   30MOL0     H 3997   9.185   9.150   3.051  1.2972 -1.3283 -0.2680
   30MOL0     H 3998   9.132   9.061   2.940  0.6970  0.4303  1.1426
   30MOL0     H 3999   8.989   9.048   3.218 -5.3180 -2.5327  0.2267
   30MOL0     H 4000   8.954   8.957   3.076  0.0911  0.2349  2.0164
   30MOL0     H 4001   9.306   9.030   3.213 -0.9930  0.1538  2.0366
   30MOL0     H 4002   9.522   8.735   3.195 -0.7422 -2.4396  1.4253
   30MOL0     H 4003   9.512   8.883   3.297 -3.0875  1.2566  4.2858
   30MOL0     H 4004   9.412   8.620   3.379 -1.0341 -0.4054  3.0048
   30MOL0     H 4005   9.562   8.701   3.434  1.0421 -0.0811 -0.3901
   30MOL0     H 4006   9.318   8.718   3.575 -0.2085  1.2215  1.3559
   30MOL0     H 4007   9.293   8.865   3.469 -1.1343 -0.5248  0.1784
   30MOL0     H 4008   9.402   8.901   3.697  1.4628  1.1060  1.4400
   30MOL0     H 4009   9.487   8.956   3.552  0.3974  0.0286  1.2949
   30MOL0     H 4010   9.563   9.022   3.797  1.7470  2.4592  2.6688
   30MOL0     H 4011   9.754   9.136   3.900  0.6243 -0.4939 -0.0053
   30MOL0     H 4012  10.206   9.201   4.031 -1.1762 -0.5202 -0.5025
   30MOL0     H 4013  10.437   9.247   4.108  1.6237  0.2603 -0.1327
   30MOL0     H 4014  10.663   9.278   4.119 -0.6067  1.1431  0.1302
   30MOL0     H 4015  10.605   9.162   4.240 -1.8704  2.0277 -1.8558
   30MOL0     H 4016  10.883   9.189   4.126 -0.0367  0.7063 -0.2988
   30MOL0     H 4017  10.840   9.274   4.280  0.7310 -1.2985  1.8294
   30MOL0     H 4018  10.788   9.070   4.379 -2.5498  3.1702 -1.5643
   30MOL0     H 4019  10.849   8.970   4.240  2.0593 -1.3262  1.7113
   30MOL0     H 4020  10.997   8.982   4.419  0.9862  0.4068 -0.2423
   30MOL0     H 4021  11.030   9.146   4.393 -2.8514 -0.4902  0.9063
   30MOL0     H 4022  11.096   9.083   4.133 -1.5476 -1.8578  0.1324
   30MOL0     H 4023  11.078   8.920   4.200 -1.8030 -0.1192  2.4735
   30MOL0     H 4024  11.262   9.158   4.280  1.4069  0.7296 -0.0535
   30MOL0     H 4025  11.271   8.990   4.359  1.3750 -1.5303 -2.5058
   30MOL0     H 4026  11.363   9.082   4.082  0.8005 -0.7354 -0.0092
   30MOL0     H 4027  11.315   8.917   4.122  0.7828  0.0048  0.6360
   30MOL0     H 4028  11.508   9.072   4.313 -0.0655  0.8947 -1.5831
   30MOL0     H 4029  11.484   8.899   4.296  0.8289 -0.2671 -0.3652
   30MOL0     H 4030  10.571   8.888   3.927  0.1685 -0.0572 -0.1223
   30MOL0     H 4031  10.331   8.842   3.854  3.2682 -1.4674  1.6019
   30MOL0     H 4032  10.009   8.824   3.758  0.0124  1.0848  3.3033
   30MOL0     H 4033   9.809   8.699   3.671  0.9469  0.3875  0.9375
   30MOL0     H 4034   8.165   9.266   2.952 -1.3501  0.4401 -0.4725
   30MOL0     H 4035   7.935   9.206   2.946  1.4343  1.9443 -0.1895
   30MOL0     H 4036   7.602   9.173   2.775  0.2159  0.8502  0.4044
   30MOL0     H 4037   7.347   9.192   2.822  0.0976  0.7334  4.0605
   30MOL0     H 4038   7.156   8.928   3.081 -0.3842  1.2999  0.7219
   30MOL0     H 4039   7.148   8.847   2.925 -1.4228 -1.2112 -0.0140
   30MOL0     H 4040   6.973   9.078   3.004 -1.9286 -0.3960 -0.0205
   30MOL0     H 4041   6.946   8.909   3.068  2.8872  0.2667  1.2857
   30MOL0     H 4042   6.923   8.831   2.839  0.3111  0.3663 -0.3852
   30MOL0     H 4043   6.947   8.995   2.778 -0.4270 -2.7735 -3.8487
   30MOL0     H 4044   6.750   9.084   2.856  1.1342 -0.8534 -0.3630
   30MOL0     H 4045   6.729   8.953   2.755 -0.5302  1.4002  0.5998
   30MOL0     H 4046   6.540   8.859   3.134 -0.1034  1.7575 -0.3342
   30MOL0     H 4047   7.341   8.809   2.997  1.0548 -1.0793 -0.6357
   30MOL0     H 4048   7.513   8.675   2.991  0.0844 -2.0674 -0.3378
   30MOL0     H 4049   7.675   8.719   2.927  2.0620  1.8607  2.1689
   30MOL0     H 4050   7.633   8.762   3.092 -1.4822 -0.3108 -0.2182
   31MOL0     O 4051   6.396   5.605   3.745 -0.1752  0.3499 -0.2048
   31MOL0     C 4052   6.351   5.590   3.634  0.5211  0.0598  1.0019
   31MOL0     O 4053   6.425   5.606   3.509 -0.6399 -0.6233 -0.1836
   31MOL0     C 4054   6.547   5.673   3.518  0.0887  0.4007  0.2557
   31MOL0     C 4055   6.658   5.623   3.590 -0.3029  0.5547  0.6226
   31MOL0     C 4056   6.772   5.706   3.614  0.2514 -0.4000 -0.7121
   31MOL0     C 4057   6.780   5.820   3.532  0.7688 -0.8759  0.4735
   31MOL0     O 4058   6.890   5.901   3.531  0.4293  0.6522 -0.4228
   31MOL0     C 4059   6.997   5.828   3.470  0.1623 -0.4702 -0.0182
   31MOL0     C 4060   7.127   5.913   3.508  0.2518  0.9158  0.0022
   31MOL0     C 4061   7.254   5.848   3.438 -0.3240  0.2650 -0.4625
   31MOL0     C 4062   7.369   5.937   3.451 -0.1751 -0.1836 -0.2991
   31MOL0     C 4063   7.500   5.879   3.400 -0.0594  0.0856  0.5588
   31MOL0     C 4064   7.627   5.965   3.432 -0.6632 -0.6265 -0.2880
   31MOL0     C 4065   7.753   5.915   3.360 -0.3532  0.2694  0.2487
   31MOL0     C 4066   7.810   5.799   3.441 -0.3949 -0.2680 -0.7495
   31MOL0     N 4067   7.901   5.715   3.367 -0.8381 -0.2844 -0.4759
   31MOL0     C 4068   8.017   5.752   3.298 -0.1646  0.1892 -0.5995
   31MOL0     C 4069   8.043   5.642   3.221  1.2379 -0.0191 -0.2498
   31MOL0     C 4070   8.169   5.630   3.145  0.2945 -0.0952 -0.0319
   31MOL0     C 4071   8.268   5.553   3.236 -0.9235 -0.0465  0.9090
   31MOL0     C 4072   8.385   5.521   3.143  0.2214  0.5070 -0.0581
   31MOL0     C 4073   8.504   5.459   3.205  0.4791  0.4572  0.2733
   31MOL0     O 4074   8.598   5.444   3.097  0.3590  0.1754 -0.5728
   31MOL0     C 4075   8.714   5.371   3.120  0.7730  0.6550  0.5786
   31MOL0     C 4076   8.788   5.342   3.005 -0.1011  0.2960  0.6651
   31MOL0     C 4077   8.916   5.284   3.029  0.0583  0.6112 -0.0871
   31MOL0     C 4078   8.963   5.242   3.152  0.3563  0.1439 -0.1618
   31MOL0     C 4079   9.093   5.166   3.164  0.7390  0.9918 -0.1469
   31MOL0     O 4080   9.154   5.161   3.049 -0.7727 -0.8684  0.1634
   31MOL0     C 4081   9.292   5.139   3.047  0.4062  0.2062 -0.8593
   31MOL0     C 4082   9.341   5.081   2.932  0.1512 -0.0886 -0.5451
   31MOL0     C 4083   9.473   5.060   2.918  0.4178  0.8206  0.4129
   31MOL0     C 4084   9.560   5.100   3.022  0.9352 -0.2241 -0.3050
   31MOL0     O 4085   9.694   5.057   3.004 -0.1247 -0.1790  0.0375
   31MOL0     C 4086   9.787   5.078   3.106 -0.0632  0.2829 -0.3484
   31MOL0     C 4087   9.845   5.208   3.084  0.4552  0.2154  0.3571
   31MOL0     C 4088   9.923   5.216   2.955 -0.1794  0.3085 -0.3107
   31MOL0     C 4089  10.007   5.350   2.946  0.8532  0.7945 -0.5007
   31MOL0     C 4090  10.118   5.363   3.058  0.7504  0.6385  0.4392
   31MOL0     C 4091  10.223   5.463   3.027 -0.3309  0.7400  0.2530
   31MOL0     C 4092  10.349   5.444   3.127  0.6585 -0.3174  0.9229
   31MOL0     C 4093  10.456   5.542   3.101 -0.2529 -0.2928 -0.0044
   31MOL0    Cl 4094  10.537   5.495   2.947  0.2594 -0.4915 -0.0414
   31MOL0     C 4095   9.511   5.174   3.131  0.9461  0.3439 -1.2755
   31MOL0     C 4096   9.375   5.191   3.144 -0.2024 -0.5577  0.5270
   31MOL0     O 4097   9.120   5.098   3.265  0.4705 -0.6636 -0.6876
   31MOL0     C 4098   8.886   5.279   3.257 -0.4891  0.9603 -0.3896
   31MOL0     C 4099   8.764   5.334   3.245 -0.3861 -0.5308  0.2305
   31MOL0     N 4100   7.957   5.544   3.242  0.3503  0.0021 -0.5265
   31MOL0     N 4101   7.868   5.588   3.327  0.4632  0.3545 -1.2632
   31MOL0     C 4102   6.667   5.867   3.453  0.9799  0.1548 -0.0106
   31MOL0     C 4103   6.549   5.795   3.451  0.8527  0.2145 -0.7226
   31MOL0     C 4104   6.206   5.541   3.622 -0.7032 -0.3354  0.6449
   31MOL0     C 4105   6.168   5.475   3.500  0.0926 -0.4168 -0.2496
   31MOL0     C 4106   6.028   5.449   3.478 -0.6279  0.2915  1.0468
   31MOL0     C 4107   5.926   5.480   3.564 -0.5233  0.3128  0.1552
   31MOL0     O 4108   5.797   5.492   3.505 -0.6821 -0.4902  0.0766
   31MOL0     C 4109   5.686   5.519   3.585  0.0390  0.2098 -0.2212
   31MOL0     C 4110   5.612   5.389   3.623  0.0030  0.5033 -0.7876
   31MOL0     C 4111   5.686   5.308   3.736 -0.0981  0.0362  0.2319
   31MOL0     C 4112   5.630   5.174   3.744  0.5484  0.1139  0.1772
   31MOL0     C 4113   5.493   5.167   3.784 -0.1210  0.4579 -0.5045
   31MOL0     C 4114   5.389   5.160   3.842 -0.3596 -0.3162 -0.2209
   31MOL0     C 4115   5.960   5.528   3.686 -0.5156 -0.4267 -0.1199
   31MOL0     C 4116   6.099   5.556   3.714 -0.7671 -0.6125 -0.6382
   31MOL0     C 4117   6.127   5.615   3.857 -0.2474 -0.4096  0.1257
   31MOL0     H 4118   6.627   5.526   3.628 -0.5633  1.1763  2.0883
   31MOL0     H 4119   6.853   5.683   3.682  0.5632 -1.3363 -1.3746
   31MOL0     H 4120   7.004   5.730   3.516 -0.3234 -0.6169 -0.2538
   31MOL0     H 4121   6.990   5.809   3.363 -0.9446  0.5387 -0.1516
   31MOL0     H 4122   7.137   5.917   3.617 -1.2637  0.6532  0.1753
   31MOL0     H 4123   7.116   6.016   3.472  2.3074  0.9096 -0.7462
   31MOL0     H 4124   7.232   5.835   3.332  0.8712 -2.3027 -0.4651
   31MOL0     H 4125   7.269   5.746   3.476 -1.2722  0.7962  1.5050
   31MOL0     H 4126   7.349   6.032   3.401 -0.4259  0.3899  0.8633
   31MOL0     H 4127   7.390   5.954   3.557  1.1161 -1.5732 -0.2939
   31MOL0     H 4128   7.503   5.774   3.430 -0.7763  0.0425  0.5074
   31MOL0     H 4129   7.493   5.883   3.291  0.9051  1.8135  0.5337
   31MOL0     H 4130   7.608   6.067   3.397  0.2858  0.8723  3.1342
   31MOL0     H 4131   7.643   5.974   3.540 -0.3895  1.2826 -0.4585
   31MOL0     H 4132   7.821   5.999   3.345 -0.3609  0.1831 -0.2785
   31MOL0     H 4133   7.727   5.885   3.258 -1.6973 -3.2260  1.4630
   31MOL0     H 4134   7.854   5.839   3.532  0.6343 -4.0901  0.6079
   31MOL0     H 4135   7.731   5.731   3.472 -1.7777  1.1305 -1.0658
   31MOL0     H 4136   8.080   5.839   3.315 -2.8915  1.8249  2.2420
   31MOL0     H 4137   8.147   5.584   3.048  0.4976  0.3560 -0.2952
   31MOL0     H 4138   8.207   5.729   3.117 -1.2263  0.1494 -1.3860
   31MOL0     H 4139   8.306   5.618   3.316 -0.0844 -1.1485  1.4379
   31MOL0     H 4140   8.221   5.467   3.284 -0.1241 -2.3178 -2.0966
   31MOL0     H 4141   8.421   5.610   3.090 -1.3420  0.0872 -1.9873
   31MOL0     H 4142   8.345   5.449   3.071  3.7349 -2.4582  0.6801
   31MOL0     H 4143   8.477   5.359   3.240  0.3093 -0.2854 -1.8058
   31MOL0     H 4144   8.545   5.522   3.285  1.3238  1.4644 -0.8927
   31MOL0     H 4145   8.757   5.380   2.909  1.8007 -0.8626 -0.4803
   31MOL0     H 4146   8.978   5.275   2.940  0.6910 -1.5556  0.5117
   31MOL0     H 4147   9.280   5.041   2.852  1.0091 -0.2388 -1.1246
   31MOL0     H 4148   9.506   5.007   2.830 -2.6384  3.0597 -2.2902
   31MOL0     H 4149   9.742   5.068   3.206 -1.3366  4.0672 -0.3926
   31MOL0     H 4150   9.866   5.003   3.098 -0.7696 -0.8375  2.0980
   31MOL0     H 4151   9.770   5.287   3.091  0.1603  0.1401 -1.3731
   31MOL0     H 4152   9.917   5.216   3.166 -0.8397 -1.5576  1.7108
   31MOL0     H 4153   9.998   5.136   2.959 -1.0797 -0.5637 -0.3535
   31MOL0     H 4154   9.859   5.203   2.867 -0.9715  2.7084 -0.1531
   31MOL0     H 4155   9.944   5.437   2.929  0.5531  0.9193  1.0437
   31MOL0     H 4156  10.055   5.342   2.848 -0.8331 -0.3087 -1.2882
   31MOL0     H 4157  10.172   5.267   3.064  1.0558  0.6856 -1.1575
   31MOL0     H 4158  10.070   5.385   3.154  1.0731 -1.4498  1.1435
   31MOL0     H 4159  10.266   5.442   2.929 -2.3216 -2.5155 -0.0844
   31MOL0     H 4160  10.176   5.562   3.033  0.9820  1.3700  0.3733
   31MOL0     H 4161  10.385   5.341   3.125  0.4398 -0.5058 -3.5546
   31MOL0     H 4162  10.307   5.474   3.223 -0.7665 -2.0192  0.8678
   31MOL0     H 4163  10.408   5.639   3.081 -0.1748 -0.4617 -1.0629
   31MOL0     H 4164  10.522   5.539   3.188 -1.2492  0.2768  0.8009
   31MOL0     H 4165   9.568   5.210   3.216 -1.9161  0.7181  0.6264
   31MOL0     H 4166   9.347   5.249   3.231  0.6602 -0.0244  0.4644
   31MOL0     H 4167   8.918   5.254   3.358  1.7119  1.5765 -0.8774
   31MOL0     H 4168   8.716   5.377   3.333 -2.0481 -0.3849 -0.7043
   31MOL0     H 4169   6.682   5.960   3.401 -1.1029  0.5898  0.1043
   31MOL0     H 4170   6.467   5.831   3.390  0.0030 -1.3524 -0.5533
   31MOL0     H 4171   6.241   5.457   3.422 -0.8186  1.2118 -1.5368
   31MOL0     H 4172   6.002   5.402   3.384  5.2022 -1.2825 -0.1608
   31MOL0     H 4173   5.613   5.569   3.520  0.8618 -1.9099 -3.0152
   31MOL0     H 4174   5.705   5.579   3.674  2.9588 -0.7972 -0.0419
   31MOL0     H 4175   5.600   5.318   3.541  3.5966 -3.4991  1.6701
   31MOL0     H 4176   5.509   5.412   3.649  0.7763  0.1599  3.3670
   31MOL0     H 4177   5.679   5.353   3.835  2.0308 -1.2330  1.0277
   31MOL0     H 4178   5.790   5.305   3.703  0.6073  0.9086  2.2263
   31MOL0     H 4179   5.636   5.129   3.644  0.2212  2.0266 -0.7485
   31MOL0     H 4180   5.690   5.113   3.813  1.7581  2.6984  1.5406
   31MOL0     H 4181   5.299   5.153   3.900  0.4795 -1.5953  0.9839
   31MOL0     H 4182   5.884   5.567   3.754  0.9324  0.2841  1.1738
   31MOL0     H 4183   6.160   5.720   3.855 -2.1556  0.2887  1.9433
   31MOL0     H 4184   6.042   5.622   3.926  0.6718 -0.3432  1.2801
   31MOL0     H 4185   6.204   5.551   3.900 -0.9223 -1.1174  0.2872
   32MOL0     O 4186   5.877   4.511   6.019  0.0492  0.2923  0.5204
   32MOL0     C 4187   5.951   4.421   6.070  0.3567  0.0174  0.2204
   32MOL0     O 4188   5.907   4.329   6.158 -0.0405 -0.1162  0.0562
   32MOL0     C 4189   5.770   4.331   6.202  0.2865  0.5112  0.8654
   32MOL0     C 4190   5.677   4.248   6.142  0.2046 -0.4866  0.2031
   32MOL0     C 4191   5.539   4.254   6.187  1.1008 -0.1538  0.5241
   32MOL0     C 4192   5.512   4.346   6.292  0.7388  0.0512 -0.4528
   32MOL0     O 4193   5.383   4.362   6.355  0.3930  0.5643 -0.4759
   32MOL0     C 4194   5.273   4.347   6.263 -0.6887 -0.1869 -0.2245
   32MOL0     C 4195   5.142   4.379   6.333 -0.1300  0.2262 -0.4906
   32MOL0     C 4196   5.016   4.332   6.267  0.8934 -0.4995  1.3177
   32MOL0     C 4197   4.988   4.183   6.254 -0.4538 -0.1966  0.1020
   32MOL0     C 4198   4.844   4.157   6.208 -0.8590  0.0683 -0.2091
   32MOL0     C 4199   4.818   4.191   6.058  0.3285  0.2814  0.0254
   32MOL0     C 4200   4.670   4.180   6.017 -0.5068  0.1856 -0.3558
   32MOL0     C 4201   4.602   4.046   6.055 -0.2634  0.5432 -0.6854
   32MOL0     N 4202   4.459   4.040   6.016 -0.1500 -0.3066  0.4877
   32MOL0     C 4203   4.368   4.146   6.016 -0.4570 -0.4308  1.0578
   32MOL0     C 4204   4.253   4.099   5.962 -0.6264 -0.1033 -0.5986
   32MOL0     C 4205   4.123   4.175   5.969 -0.1063 -0.1324 -0.6613
   32MOL0     C 4206   3.999   4.106   5.919 -0.6804 -0.3776  0.6311
   32MOL0     C 4207   3.865   4.186   5.959  0.1850  0.0299  0.6223
   32MOL0     C 4208   3.746   4.145   5.877  0.2933 -0.2227 -0.2329
   32MOL0     O 4209   3.651   4.239   5.942 -0.5622 -0.3712 -0.1959
   32MOL0     C 4210   3.514   4.220   5.915 -0.3598 -0.4838 -0.2041
   32MOL0     C 4211   3.437   4.306   5.991  1.0732 -0.0541 -0.2377
   32MOL0     C 4212   3.296   4.297   5.986  0.4256 -0.0513  0.7628
   32MOL0     C 4213   3.233   4.193   5.910 -0.3239 -0.1157 -0.3317
   32MOL0     C 4214   3.082   4.184   5.907 -0.6408 -0.4290 -0.2871
   32MOL0     O 4215   3.004   4.233   6.005 -0.1098 -0.2931 -0.2192
   32MOL0     C 4216   2.862   4.239   5.995  0.1808  0.4066  0.7671
   32MOL0     C 4217   2.786   4.351   6.016  0.5398 -0.0594 -0.2406
   32MOL0     C 4218   2.644   4.344   6.019  0.5333  0.0727 -0.9002
   32MOL0     C 4219   2.585   4.219   6.017  0.0660 -0.0808  0.3981
   32MOL0     O 4220   2.449   4.223   6.010 -0.0039 -0.1544  0.1328
   32MOL0     C 4221   2.383   4.111   6.066  0.5860  0.3026 -0.0951
   32MOL0     C 4222   2.238   4.106   6.038 -0.2610 -0.5124  0.5080
   32MOL0     C 4223   2.211   4.108   5.881  0.5817 -0.1876  0.1411
   32MOL0     C 4224   2.068   4.109   5.844 -0.3647 -0.2278 -0.0168
   32MOL0     C 4225   1.989   4.242   5.884  0.1265  0.7791  0.4419
   32MOL0     C 4226   1.838   4.245   5.876 -0.2306 -0.6197 -0.3255
   32MOL0     C 4227   1.798   4.288   5.731  1.1662  0.1821 -0.9123
   32MOL0     C 4228   1.643   4.315   5.712  1.1135  0.6052  0.0745
   32MOL0    Cl 4229   1.525   4.208   5.805  0.1299  0.7975  0.1710
   32MOL0     C 4230   2.656   4.105   5.978  0.0873  0.0053 -0.6695
   32MOL0     C 4231   2.802   4.117   5.975  0.1702 -0.1820 -0.0223
   32MOL0     O 4232   3.044   4.126   5.806  0.4917  0.5297  0.3543
   32MOL0     C 4233   3.320   4.107   5.839  0.0494 -0.5531  0.2266
   32MOL0     C 4234   3.462   4.125   5.840  0.4319  0.3313 -0.1790
   32MOL0     N 4235   4.277   3.970   5.916  1.0014 -0.2279  0.5049
   32MOL0     N 4236   4.401   3.942   5.945  0.1371 -0.3450 -0.1859
   32MOL0     C 4237   5.613   4.422   6.353  0.1391  0.0898  0.0026
   32MOL0     C 4238   5.744   4.407   6.310  0.3963  0.5385 -0.0523
   32MOL0     C 4239   6.095   4.412   6.026  0.4956 -0.6033 -0.3631
   32MOL0     C 4240   6.194   4.378   6.122  0.5761  0.7531 -0.2799
   32MOL0     C 4241   6.332   4.380   6.092 -0.1691  0.4301 -0.6135
   32MOL0     C 4242   6.374   4.416   5.963  0.2348 -0.1004 -1.3288
   32MOL0     O 4243   6.502   4.432   5.924 -0.0543  0.4449  0.0798
   32MOL0     C 4244   6.596   4.324   5.931  0.0771 -0.2794 -0.5229
   32MOL0     C 4245   6.686   4.340   6.050  0.7384  0.0726  0.4222
   32MOL0     C 4246   6.803   4.424   6.030 -0.1982  0.5331  0.2827
   32MOL0     C 4247   6.876   4.429   6.159 -0.7088 -0.1452 -0.3293
   32MOL0     C 4248   7.005   4.499   6.159 -0.3662  0.2445 -0.4810
   32MOL0     C 4249   7.109   4.556   6.151 -0.4969 -0.5275  0.1575
   32MOL0     C 4250   6.277   4.435   5.863  0.2403 -0.8447 -0.7883
   32MOL0     C 4251   6.142   4.436   5.892 -0.0918 -0.1987  0.0521
   32MOL0     C 4252   6.051   4.473   5.779  0.0143  0.8013  0.3526
   32MOL0     H 4253   5.692   4.175   6.063 -3.8894 -1.9513  0.5417
   32MOL0     H 4254   5.470   4.187   6.137 -0.0793  1.5873 -0.3091
   32MOL0     H 4255   5.278   4.409   6.173  0.2790  1.9391  1.2096
   32MOL0     H 4256   5.259   4.245   6.227 -0.4661 -0.3119  0.0451
   32MOL0     H 4257   5.131   4.487   6.348 -1.3614 -0.2426  3.0206
   32MOL0     H 4258   5.150   4.324   6.427  0.7757  0.8537 -0.1824
   32MOL0     H 4259   5.008   4.374   6.166 -0.9442 -1.7667  0.8794
   32MOL0     H 4260   4.932   4.375   6.323 -0.8569 -0.8718 -0.8847
   32MOL0     H 4261   5.068   4.148   6.189  2.3787  1.6310  2.3285
   32MOL0     H 4262   5.026   4.125   6.340  1.9018 -2.3692 -2.2155
   32MOL0     H 4263   4.834   4.049   6.222 -0.5027 -0.4149 -3.0806
   32MOL0     H 4264   4.784   4.219   6.275  0.4990 -0.5293  1.6122
   32MOL0     H 4265   4.848   4.294   6.035  1.2771 -0.2715 -1.3641
   32MOL0     H 4266   4.875   4.122   5.996 -0.2092  0.8534 -1.1443
   32MOL0     H 4267   4.668   4.198   5.909 -0.2709 -1.7962 -0.7332
   32MOL0     H 4268   4.623   4.261   6.072 -0.8469  0.0063 -0.3791
   32MOL0     H 4269   4.653   3.965   6.002  0.1049 -0.7871  1.6011
   32MOL0     H 4270   4.606   4.027   6.162  1.0196 -0.5903 -0.9057
   32MOL0     H 4271   4.374   4.250   6.046  2.2099  0.2648 -1.3341
   32MOL0     H 4272   4.106   4.206   6.073 -2.1369 -0.8910 -0.7122
   32MOL0     H 4273   4.143   4.270   5.920 -1.6746  1.0454  0.8621
   32MOL0     H 4274   4.009   4.102   5.810  1.3875  1.3067  0.6975
   32MOL0     H 4275   3.991   4.004   5.957 -3.3056 -0.8876 -0.9795
   32MOL0     H 4276   3.880   4.292   5.936 -0.0755 -0.3762 -1.6428
   32MOL0     H 4277   3.850   4.196   6.066  2.1026  1.5659  0.8180
   32MOL0     H 4278   3.720   4.039   5.885  0.2695 -0.3424 -1.5580
   32MOL0     H 4279   3.747   4.156   5.768  2.5769 -3.8432 -0.7454
   32MOL0     H 4280   3.482   4.378   6.060  1.9724 -1.9503  1.2708
   32MOL0     H 4281   3.236   4.366   6.045 -0.6219 -0.8519  0.6551
   32MOL0     H 4282   2.826   4.452   6.021  1.2419 -0.2200 -1.8531
   32MOL0     H 4283   2.579   4.431   6.025 -1.0466 -0.7872 -3.7942
   32MOL0     H 4284   2.415   4.016   6.023 -0.0627 -0.8481  1.8717
   32MOL0     H 4285   2.397   4.101   6.174 -0.6770 -0.8904 -0.0207
   32MOL0     H 4286   2.185   4.018   6.076 -3.4931  1.2399  0.4664
   32MOL0     H 4287   2.196   4.189   6.095  1.6589  0.0298  1.2021
   32MOL0     H 4288   2.260   4.200   5.849  1.8184 -0.9733 -0.3037
   32MOL0     H 4289   2.265   4.026   5.833 -1.8184 -2.5205  1.1684
   32MOL0     H 4290   2.028   4.019   5.891  0.9190 -0.6495  0.3089
   32MOL0     H 4291   2.057   4.096   5.736  1.1352 -1.7570 -0.0188
   32MOL0     H 4292   2.030   4.319   5.818  1.5305  0.6206  1.1001
   32MOL0     H 4293   2.016   4.267   5.987  1.9242 -0.5245  0.3247
   32MOL0     H 4294   1.794   4.152   5.911 -0.0705 -0.2176  0.9683
   32MOL0     H 4295   1.809   4.320   5.950 -1.5436 -0.9266 -0.5097
   32MOL0     H 4296   1.817   4.199   5.670  1.8885 -0.4956  0.2640
   32MOL0     H 4297   1.849   4.381   5.706  0.2302  0.6873 -0.9906
   32MOL0     H 4298   1.625   4.416   5.748 -1.1542  0.5105 -0.6813
   32MOL0     H 4299   1.624   4.312   5.605  3.3906 -1.0203 -0.3601
   32MOL0     H 4300   2.617   4.014   5.933 -1.1686  1.7722 -3.3592
   32MOL0     H 4301   2.857   4.026   5.952 -0.6180 -0.4666 -0.8341
   32MOL0     H 4302   3.283   4.018   5.788  3.0767 -2.1573  0.5972
   32MOL0     H 4303   3.523   4.048   5.794 -0.1357  0.8900 -1.9505
   32MOL0     H 4304   5.589   4.491   6.433  0.0565 -2.2021  2.0710
   32MOL0     H 4305   5.817   4.470   6.359  0.3307 -0.6866  1.7039
   32MOL0     H 4306   6.160   4.355   6.223 -0.6608 -0.0703 -0.8580
   32MOL0     H 4307   6.407   4.362   6.168  0.3667 -1.6560 -1.5526
   32MOL0     H 4308   6.652   4.317   5.837  2.4979 -0.5027  0.8614
   32MOL0     H 4309   6.542   4.230   5.939 -0.5949  0.2904  2.9523
   32MOL0     H 4310   6.734   4.245   6.076 -0.1107 -0.5811 -0.3560
   32MOL0     H 4311   6.637   4.375   6.141 -1.4269  1.0520 -1.0494
   32MOL0     H 4312   6.779   4.528   6.003  0.5975  0.8982  0.9262
   32MOL0     H 4313   6.853   4.374   5.947 -1.5674 -0.4560  0.0209
   32MOL0     H 4314   6.808   4.477   6.230 -0.1336  0.0471  0.0927
   32MOL0     H 4315   6.902   4.327   6.186 -1.1614 -0.6638 -1.7415
   32MOL0     H 4316   7.194   4.621   6.151 -3.4049  3.6623 -0.2378
   32MOL0     H 4317   6.304   4.468   5.763  0.7118 -2.9094 -1.3919
   32MOL0     H 4318   6.048   4.582   5.773 -1.3379  0.7917  0.5845
   32MOL0     H 4319   6.081   4.433   5.681  1.1650  0.6861  0.7447
   32MOL0     H 4320   5.952   4.432   5.801  0.2694  0.7827  1.5030
   33MOL0     O 4321   2.227  11.221   2.636  0.6450  0.4896  0.8684
   33MOL0     C 4322   2.181  11.123   2.573  0.0733 -0.8115 -0.6727
   33MOL0     O 4323   2.248  11.053   2.477 -0.3523 -0.2236 -0.3322
   33MOL0     C 4324   2.380  11.059   2.447  0.5129 -0.2774 -0.2460
   33MOL0     C 4325   2.484  11.067   2.539 -0.6702 -0.0683 -0.3935
   33MOL0     C 4326   2.622  11.079   2.499  0.5182  0.0761  0.3315
   33MOL0     C 4327   2.652  11.081   2.360 -1.0103 -0.6726  0.0642
   33MOL0     O 4328   2.776  11.106   2.308 -0.2249 -0.2980 -0.2198
   33MOL0     C 4329   2.887  11.058   2.382  1.0253 -0.2908 -0.5469
   33MOL0     C 4330   2.999  11.016   2.288  0.4420  0.2148 -0.2181
   33MOL0     C 4331   2.965  10.875   2.234  0.2712  0.6946 -0.4470
   33MOL0     C 4332   3.086  10.811   2.169 -0.6777  0.7102  0.2346
   33MOL0     C 4333   3.064  10.653   2.148 -0.1579 -0.0473 -0.9674
   33MOL0     C 4334   3.189  10.582   2.096  0.4495 -0.0641 -0.5866
   33MOL0     C 4335   3.291  10.554   2.209 -0.5206  0.2269  0.2438
   33MOL0     C 4336   3.425  10.491   2.160  0.2135 -0.4362  0.5681
   33MOL0     N 4337   3.527  10.593   2.135 -0.4005 -0.1769  0.9176
   33MOL0     C 4338   3.513  10.717   2.079 -1.0498 -1.1519  0.7097
   33MOL0     C 4339   3.633  10.768   2.050 -0.4785  0.3335  0.1570
   33MOL0     C 4340   3.662  10.900   1.987 -0.1609  0.7967  0.5730
   33MOL0     C 4341   3.815  10.892   1.949  0.8480 -0.0881  0.9245
   33MOL0     C 4342   3.835  10.803   1.829 -0.4949  0.3341  0.1642
   33MOL0     C 4343   3.781  10.854   1.696  0.6983  0.0557  0.3356
   33MOL0     O 4344   3.799  11.000   1.677  0.0716 -0.3840  1.2190
   33MOL0     C 4345   3.868  11.023   1.556  0.3820 -0.0488  0.5233
   33MOL0     C 4346   3.964  11.117   1.561 -0.2451  0.1260  0.1936
   33MOL0     C 4347   4.052  11.142   1.455  0.0411  0.5936 -0.1286
   33MOL0     C 4348   4.022  11.088   1.331  0.2602  0.4125 -0.1624
   33MOL0     C 4349   4.112  11.109   1.217  0.5320  0.3187 -0.0249
   33MOL0     O 4350   4.222  11.178   1.251  0.0217 -0.3304  0.0980
   33MOL0     C 4351   4.330  11.190   1.160  0.6889  0.8613 -0.0066
   33MOL0     C 4352   4.337  11.287   1.065  0.2212 -0.6068  0.7547
   33MOL0     C 4353   4.460  11.302   0.998  0.8051  0.1628  0.2204
   33MOL0     C 4354   4.573  11.228   1.022 -0.8786  0.0984 -0.2542
   33MOL0     O 4355   4.696  11.228   0.955  0.4124 -0.2100 -0.3600
   33MOL0     C 4356   4.701  11.262   0.808  0.7773 -0.4032  0.3625
   33MOL0     C 4357   4.801  11.177   0.742  0.4847  0.5115  0.0991
   33MOL0     C 4358   4.953  11.185   0.776 -0.5075  0.0233 -0.1589
   33MOL0     C 4359   5.043  11.139   0.648  0.5768  0.2400 -0.5186
   33MOL0     C 4360   5.192  11.168   0.682  0.6137 -0.2878  0.6874
   33MOL0     C 4361   5.279  11.128   0.557  0.0453  0.1618 -0.6898
   33MOL0     C 4362   5.428  11.141   0.581 -0.4374 -0.2113  0.3732
   33MOL0     C 4363   5.510  11.036   0.504  0.7361 -0.0766 -0.4034
   33MOL0    Cl 4364   5.674  11.065   0.572  0.0602  0.5725 -0.0020
   33MOL0     C 4365   4.562  11.136   1.134  0.3146 -0.3484  0.4831
   33MOL0     C 4366   4.441  11.116   1.204  0.1058 -0.3897 -1.3725
   33MOL0     O 4367   4.081  11.072   1.104 -0.1561 -0.0530 -0.4682
   33MOL0     C 4368   3.913  11.002   1.323 -0.1890 -0.1809 -0.0261
   33MOL0     C 4369   3.836  10.964   1.431 -0.1288 -0.0445 -0.4687
   33MOL0     N 4370   3.725  10.669   2.090 -0.0261 -0.4131  0.0312
   33MOL0     N 4371   3.661  10.569   2.130 -0.0801  0.4852 -0.7442
   33MOL0     C 4372   2.544  11.072   2.264  0.7074  0.3611 -0.8072
   33MOL0     C 4373   2.409  11.054   2.312 -0.3338 -0.1746  0.4884
   33MOL0     C 4374   2.027  11.100   2.579 -0.2331  0.4925 -0.0444
   33MOL0     C 4375   1.962  11.011   2.481 -0.7292 -0.5317 -0.2139
   33MOL0     C 4376   1.828  10.975   2.477 -1.1559  0.3841  0.9542
   33MOL0     C 4377   1.749  11.019   2.588 -0.7213  0.0123 -0.2472
   33MOL0     O 4378   1.615  10.998   2.613 -0.0890  0.1077 -0.0548
   33MOL0     C 4379   1.539  10.925   2.521  0.2741  0.4349  0.4911
   33MOL0     C 4380   1.397  10.988   2.517 -0.7913 -0.2063 -0.1040
   33MOL0     C 4381   1.328  11.007   2.656  0.2567  0.6473 -0.0881
   33MOL0     C 4382   1.187  11.034   2.619 -0.8322 -0.6608  0.5023
   33MOL0     C 4383   1.113  10.912   2.568  0.3986  0.8004  0.2987
   33MOL0     C 4384   1.045  10.830   2.518 -0.5382  1.2933  0.2941
   33MOL0     C 4385   1.806  11.100   2.691  0.0251  0.8246  0.3756
   33MOL0     C 4386   1.944  11.137   2.688  0.3540  0.0330 -0.4821
   33MOL0     C 4387   1.990  11.231   2.798  0.1107 -0.8419  0.1570
   33MOL0     H 4388   2.460  11.073   2.644  0.2267  1.0105 -0.2318
   33MOL0     H 4389   2.697  11.096   2.577 -0.8915  0.8105  1.5762
   33MOL0     H 4390   2.928  11.116   2.465  1.3242 -2.5510  0.9680
   33MOL0     H 4391   2.847  10.974   2.440 -0.1460  1.1350  0.8155
   33MOL0     H 4392   3.094  11.019   2.341  1.1250 -1.8363 -1.2043
   33MOL0     H 4393   3.012  11.087   2.205  1.2991  1.3695  0.8717
   33MOL0     H 4394   2.889  10.875   2.155  0.4659 -1.4551 -0.7045
   33MOL0     H 4395   2.928  10.804   2.309  0.4959  1.2275  0.1741
   33MOL0     H 4396   3.118  10.866   2.080  1.0317 -0.2271  0.2256
   33MOL0     H 4397   3.158  10.822   2.251 -1.8271 -1.6166  1.6591
   33MOL0     H 4398   3.022  10.613   2.241 -2.1174 -0.1804 -1.8740
   33MOL0     H 4399   2.982  10.640   2.078 -1.9037  2.8041  0.3732
   33MOL0     H 4400   3.165  10.484   2.054  1.0405  0.1346 -1.4376
   33MOL0     H 4401   3.232  10.638   2.012 -0.5649  0.5508 -0.7062
   33MOL0     H 4402   3.235  10.477   2.263 -5.9640  2.5953 -1.3564
   33MOL0     H 4403   3.301  10.644   2.270 -2.7861 -0.4513  1.7398
   33MOL0     H 4404   3.460  10.422   2.237  0.7147  0.4632  1.1650
   33MOL0     H 4405   3.408  10.420   2.078 -0.4483 -0.5103  0.7642
   33MOL0     H 4406   3.421  10.767   2.050 -0.6193  0.1644  1.5164
   33MOL0     H 4407   3.606  10.913   1.895  0.6325  0.8480  0.0875
   33MOL0     H 4408   3.633  10.978   2.058 -0.9057 -0.1196  1.3073
   33MOL0     H 4409   3.857  10.989   1.923 -2.1176  1.2397  0.6541
   33MOL0     H 4410   3.867  10.864   2.041  3.4129  0.4103 -0.2994
   33MOL0     H 4411   3.789  10.704   1.832 -0.2862  0.1916 -0.9853
   33MOL0     H 4412   3.942  10.779   1.822 -0.7936 -1.3578  0.9171
   33MOL0     H 4413   3.672  10.846   1.693  0.8219 -1.5925 -1.3476
   33MOL0     H 4414   3.821  10.792   1.615  1.5203  1.1407 -0.1014
   33MOL0     H 4415   3.989  11.164   1.656  1.5069  2.1889 -1.1946
   33MOL0     H 4416   4.145  11.197   1.462  2.9556 -3.6483 -1.4460
   33MOL0     H 4417   4.257  11.356   1.041 -1.0208 -1.4933  2.2195
   33MOL0     H 4418   4.459  11.367   0.911 -2.5496 -0.0148  0.0266
   33MOL0     H 4419   4.606  11.240   0.760 -0.6702  3.5590  0.9959
   33MOL0     H 4420   4.719  11.367   0.784 -0.1649  0.0148  1.3848
   33MOL0     H 4421   4.763  11.075   0.734  3.1983 -0.4170 -5.6357
   33MOL0     H 4422   4.803  11.212   0.638  1.7014 -1.6427 -0.6712
   33MOL0     H 4423   4.978  11.290   0.795 -2.1282  0.4633 -0.2702
   33MOL0     H 4424   4.978  11.118   0.859  2.6222  0.8690 -0.3071
   33MOL0     H 4425   5.019  11.197   0.559 -1.4636  2.1302  1.1370
   33MOL0     H 4426   5.023  11.034   0.629  0.3475  0.0498  0.6959
   33MOL0     H 4427   5.221  11.103   0.766  0.3219 -1.1624  0.1256
   33MOL0     H 4428   5.210  11.271   0.714 -0.3813  0.3091 -0.5848
   33MOL0     H 4429   5.251  11.024   0.540  1.1965 -0.4431  0.9079
   33MOL0     H 4430   5.245  11.175   0.464 -1.2055  2.6071  0.8929
   33MOL0     H 4431   5.445  11.116   0.686  0.3565 -0.6482  0.1425
   33MOL0     H 4432   5.467  11.241   0.559  1.1345 -1.0293 -0.6985
   33MOL0     H 4433   5.470  10.935   0.517  2.2851 -1.0117 -2.4631
   33MOL0     H 4434   5.502  11.053   0.396 -2.4866  0.3639 -0.2114
   33MOL0     H 4435   4.649  11.079   1.166  2.3966  1.4771 -1.5316
   33MOL0     H 4436   4.437  11.042   1.283  2.1347  3.0140  2.2570
   33MOL0     H 4437   3.895  10.958   1.225  0.2333  1.5147 -0.9107
   33MOL0     H 4438   3.757  10.890   1.421  0.6714 -0.9012 -0.6288
   33MOL0     H 4439   2.562  11.093   2.159  0.5723  0.5909 -0.7849
   33MOL0     H 4440   2.329  11.025   2.244 -0.1553 -0.3529  0.3555
   33MOL0     H 4441   2.032  10.984   2.403  1.9137  0.4133  1.6935
   33MOL0     H 4442   1.799  10.899   2.405 -0.6287  0.1854  0.9423
   33MOL0     H 4443   1.546  10.819   2.544  0.9444  0.6585  1.3653
   33MOL0     H 4444   1.588  10.929   2.423 -1.0403 -0.4363 -0.2301
   33MOL0     H 4445   1.339  10.934   2.442 -1.6399 -0.6273  0.8338
   33MOL0     H 4446   1.417  11.089   2.479  0.4322  0.0158  1.0223
   33MOL0     H 4447   1.380  11.084   2.714  0.2986 -0.0996  0.8978
   33MOL0     H 4448   1.337  10.913   2.713 -0.2449  0.6980  0.0827
   33MOL0     H 4449   1.125  11.074   2.700 -0.4113 -1.6000  1.3071
   33MOL0     H 4450   1.191  11.110   2.540 -0.4867 -0.8718  0.3191
   33MOL0     H 4451   0.971  10.771   2.466  0.9741  2.7491 -3.9172
   33MOL0     H 4452   1.754  11.122   2.784  1.5058  2.5684  0.8538
   33MOL0     H 4453   2.068  11.178   2.855  0.4966 -0.7649 -0.2897
   33MOL0     H 4454   2.032  11.321   2.751  1.9304 -0.2900  2.5901
   33MOL0     H 4455   1.911  11.269   2.863  1.0375 -1.4570  1.7161
   34MOL0     O 4456   7.786   0.440  10.294 -0.0040  0.5310 -0.2295
   34MOL0     C 4457   7.727   0.337  10.258 -0.5264 -0.3087 -0.1365
   34MOL0     O 4458   7.783   0.211  10.240 -0.5227  0.5705  0.1220
   34MOL0     C 4459   7.913   0.195  10.276 -0.4097  0.1528  0.3693
   34MOL0     C 4460   7.947   0.066  10.310 -0.1762  0.0293  0.4866
   34MOL0     C 4461   8.081   0.023  10.303 -1.0244 -0.6126  0.6022
   34MOL0     C 4462   8.183   0.112  10.279  0.3906  0.4614  0.3536
   34MOL0     O 4463   8.309   0.054  10.268 -0.0818 -0.3516  0.4013
   34MOL0     C 4464   8.424   0.131  10.224  0.0636  1.0323  0.4361
   34MOL0     C 4465   8.549   0.047  10.196 -0.5535  0.4654  0.0867
   34MOL0     C 4466   8.597  -0.009  10.334  0.0886 -0.3680  0.3898
   34MOL0     C 4467   8.733  -0.068  10.305  0.3541  0.0582  0.4694
   34MOL0     C 4468   8.799  -0.138  10.433  0.4107 -0.1778 -0.6741
   34MOL0     C 4469   8.835  -0.287  10.407  0.1767 -0.1617 -0.4868
   34MOL0     C 4470   8.716  -0.381  10.388 -0.3508 -0.1766  0.2956
   34MOL0     C 4471   8.654  -0.408  10.516  0.0108  0.1888 -0.8590
   34MOL0     N 4472   8.509  -0.426  10.516 -0.6882  0.7743 -0.9624
   34MOL0     C 4473   8.411  -0.328  10.525 -0.8650 -0.1723  0.2638
   34MOL0     C 4474   8.296  -0.395  10.521 -0.2008 -0.1948  0.2649
   34MOL0     C 4475   8.169  -0.332  10.547  0.3379 -0.0408  0.3871
   34MOL0     C 4476   8.051  -0.419  10.589 -0.4106  0.1760  0.5593
   34MOL0     C 4477   7.941  -0.335  10.649 -0.9437 -0.2172 -0.1569
   34MOL0     C 4478   7.812  -0.408  10.680  0.3741  0.3410  0.0225
   34MOL0     O 4479   7.699  -0.310  10.690  0.1256  0.2735  0.6269
   34MOL0     C 4480   7.575  -0.356  10.728  0.4372  0.6435  0.8957
   34MOL0     C 4481   7.537  -0.491  10.756 -0.8811  0.5845  0.3182
   34MOL0     C 4482   7.412  -0.529  10.811  0.1656  0.0719 -0.0830
   34MOL0     C 4483   7.306  -0.429  10.827  0.4443 -0.9841  0.0661
   34MOL0     C 4484   7.177  -0.455  10.888 -0.2165  0.1170 -0.6338
   34MOL0     O 4485   7.164  -0.579  10.944  0.3138 -0.0596  0.3259
   34MOL0     C 4486   7.063  -0.603  11.030 -0.0566 -0.7201 -0.3725
   34MOL0     C 4487   7.007  -0.733  11.035 -0.6162  0.3382  0.4003
   34MOL0     C 4488   6.909  -0.774  11.130  0.1709 -0.0435 -0.1559
   34MOL0     C 4489   6.863  -0.684  11.226  0.3828  0.5099  0.3261
   34MOL0     O 4490   6.764  -0.727  11.316 -0.2623  0.0111  0.1743
   34MOL0     C 4491   6.712  -0.632  11.411  0.2373  0.4974 -0.5291
   34MOL0     C 4492   6.576  -0.668  11.468  1.0238  0.2618  0.4793
   34MOL0     C 4493   6.507  -0.547  11.523  0.2435 -0.0016 -0.7398
   34MOL0     C 4494   6.361  -0.593  11.556 -0.1719 -0.4211  0.2989
   34MOL0     C 4495   6.278  -0.512  11.667  0.6694 -0.6198 -0.8415
   34MOL0     C 4496   6.123  -0.558  11.667 -0.6712  0.5286 -0.4845
   34MOL0     C 4497   6.046  -0.460  11.766  0.6122 -0.1618  0.2517
   34MOL0     C 4498   5.908  -0.520  11.800  0.0737  0.6521  0.2465
   34MOL0    Cl 4499   5.926  -0.652  11.922 -0.4357  0.0863  0.0104
   34MOL0     C 4500   6.921  -0.560  11.230 -0.6324  0.3212  0.0023
   34MOL0     C 4501   7.017  -0.513  11.130 -0.9833  0.4570  0.5568
   34MOL0     O 4502   7.090  -0.368  10.892 -0.5806  0.0186  0.2790
   34MOL0     C 4503   7.340  -0.298  10.784  0.1938 -0.0530 -0.0778
   34MOL0     C 4504   7.465  -0.268  10.741 -0.3925 -0.0368  0.2474
   34MOL0     N 4505   8.319  -0.526  10.519  0.8674 -0.1061 -0.3763
   34MOL0     N 4506   8.444  -0.547  10.506 -0.0557 -0.0709 -0.3134
   34MOL0     C 4507   8.150   0.241  10.232  0.4925  0.5095  0.5173
   34MOL0     C 4508   8.018   0.279  10.238  0.8020  0.4406  0.1330
   34MOL0     C 4509   7.583   0.356  10.229  0.0830  0.2336  0.5371
   34MOL0     C 4510   7.500   0.244  10.209  0.0629  0.0728 -0.4290
   34MOL0     C 4511   7.361   0.249  10.186 -0.3810 -0.3660 -0.7488
   34MOL0     C 4512   7.294   0.377  10.198  0.7098  0.1916  0.5234
   34MOL0     O 4513   7.156   0.373  10.181  0.1620  0.0395  0.6210
   34MOL0     C 4514   7.087   0.466  10.261 -0.1739 -0.0856 -0.1364
   34MOL0     C 4515   6.946   0.427  10.303  0.6528 -0.3747  0.0580
   34MOL0     C 4516   6.942   0.297  10.386 -1.2339  0.1169  0.7533
   34MOL0     C 4517   6.809   0.292  10.467  0.4191  0.3925  0.6588
   34MOL0     C 4518   6.693   0.272  10.380 -0.2326 -0.5016 -0.2311
   34MOL0     C 4519   6.596   0.260  10.304 -0.1385  0.6196  0.0784
   34MOL0     C 4520   7.376   0.484  10.186  0.0871 -0.3056  0.1970
   34MOL0     C 4521   7.512   0.474  10.216  0.3966  0.2300 -0.6853
   34MOL0     C 4522   7.579   0.612  10.213  0.5652 -0.1630 -0.1213
   34MOL0     H 4523   7.874  -0.011  10.331 -0.8947  1.0959  2.0989
   34MOL0     H 4524   8.106  -0.082  10.318  0.8036 -0.6272 -1.7871
   34MOL0     H 4525   8.398   0.166  10.123 -1.1050 -1.7922 -0.3441
   34MOL0     H 4526   8.446   0.212  10.294  2.9210  0.7853 -0.0444
   34MOL0     H 4527   8.624   0.116  10.156  1.1266  0.5212  3.1022
   34MOL0     H 4528   8.530  -0.034  10.125 -0.1911  0.3665  0.0987
   34MOL0     H 4529   8.540  -0.094  10.372  1.8455 -3.1002 -2.5799
   34MOL0     H 4530   8.605   0.065  10.415 -0.2742 -0.2825  0.3481
   34MOL0     H 4531   8.713  -0.138  10.224  1.7510 -0.3904  0.4802
   34MOL0     H 4532   8.801   0.015  10.281  1.4524 -0.3156  2.0901
   34MOL0     H 4533   8.897  -0.097  10.459  0.8302 -2.5086  1.8681
   34MOL0     H 4534   8.725  -0.124  10.511  0.4657  1.4484 -0.8876
   34MOL0     H 4535   8.902  -0.285  10.321  0.6826  1.0920 -0.0880
   34MOL0     H 4536   8.895  -0.329  10.488  2.1751  0.6681 -1.4719
   34MOL0     H 4537   8.749  -0.469  10.331  0.1975  0.4475 -0.3655
   34MOL0     H 4538   8.642  -0.329  10.326 -0.2089 -1.0230 -0.6121
   34MOL0     H 4539   8.710  -0.490  10.561  0.9501  0.8807 -0.7290
   34MOL0     H 4540   8.679  -0.324  10.582  1.4519  0.1843 -1.3637
   34MOL0     H 4541   8.428  -0.226  10.555  0.6793 -0.5170  0.7016
   34MOL0     H 4542   8.181  -0.253  10.622  1.1211 -2.3031  2.7936
   34MOL0     H 4543   8.146  -0.279  10.455  2.1102 -0.3543 -0.2750
   34MOL0     H 4544   8.014  -0.471  10.500  0.1712 -0.8735  0.9088
   34MOL0     H 4545   8.071  -0.497  10.663 -1.2294 -0.5618  0.0259
   34MOL0     H 4546   7.924  -0.250  10.582  0.7879 -0.2966 -0.7515
   34MOL0     H 4547   7.988  -0.288  10.736 -1.7516 -0.5255  0.4502
   34MOL0     H 4548   7.821  -0.468  10.771  1.8418 -0.4968 -0.6447
   34MOL0     H 4549   7.793  -0.476  10.597 -2.2204 -2.2546  2.5070
   34MOL0     H 4550   7.607  -0.573  10.743 -1.2845  0.3199 -0.2190
   34MOL0     H 4551   7.390  -0.632  10.836 -0.5658  0.1353 -0.4419
   34MOL0     H 4552   7.043  -0.812  10.971 -2.2014 -2.7080  2.9665
   34MOL0     H 4553   6.880  -0.878  11.127  0.2104 -0.0732  0.3743
   34MOL0     H 4554   6.779  -0.627  11.497  0.6246  1.0103 -0.8538
   34MOL0     H 4555   6.706  -0.531  11.370 -0.4386  1.5786  2.0386
   34MOL0     H 4556   6.516  -0.715  11.389  0.4217 -0.3394  1.2661
   34MOL0     H 4557   6.589  -0.748  11.543 -0.5081 -1.1663 -0.6932
   34MOL0     H 4558   6.561  -0.519  11.614  0.9311 -0.2321 -1.0696
   34MOL0     H 4559   6.498  -0.465  11.452  2.9869 -0.1519 -1.3779
   34MOL0     H 4560   6.365  -0.691  11.604  1.0799 -0.1500  0.7818
   34MOL0     H 4561   6.301  -0.601  11.465 -1.2918  2.3874  0.7028
   34MOL0     H 4562   6.288  -0.407  11.636  1.2610 -0.6176 -0.6684
   34MOL0     H 4563   6.319  -0.514  11.768 -2.5168  0.1832  0.5956
   34MOL0     H 4564   6.083  -0.566  11.566 -1.1950 -0.8557 -0.1823
   34MOL0     H 4565   6.118  -0.660  11.705 -2.0780  0.1826 -1.5252
   34MOL0     H 4566   6.037  -0.363  11.715 -1.2621 -0.3984  0.0476
   34MOL0     H 4567   6.109  -0.454  11.855  0.1859 -0.6516  0.5888
   34MOL0     H 4568   5.845  -0.444  11.847 -0.9247  0.6601 -1.0435
   34MOL0     H 4569   5.860  -0.554  11.708 -0.5468 -1.4218  1.2744
   34MOL0     H 4570   6.890  -0.499  11.314 -0.7163  1.1975 -0.6527
   34MOL0     H 4571   7.063  -0.414  11.128 -2.4544  1.1797 -1.8937
   34MOL0     H 4572   7.278  -0.212  10.809  0.4807  0.2227 -0.3010
   34MOL0     H 4573   7.495  -0.165  10.726 -0.6959 -0.0126 -0.1909
   34MOL0     H 4574   8.232   0.297  10.188 -0.0577  0.2942 -0.8300
   34MOL0     H 4575   8.006   0.382  10.204  1.9463  0.9122  1.1071
   34MOL0     H 4576   7.548   0.147  10.215  1.8554  0.6371 -3.3964
   34MOL0     H 4577   7.301   0.159  10.174 -0.0303 -0.4688 -1.8220
   34MOL0     H 4578   7.079   0.563  10.211  2.1410  0.8156  1.0770
   34MOL0     H 4579   7.146   0.481  10.352 -0.0901  1.4875 -0.4157
   34MOL0     H 4580   6.886   0.400  10.215 -1.4167  1.1181  0.9397
   34MOL0     H 4581   6.896   0.508  10.357  0.5847  2.0221 -3.2746
   34MOL0     H 4582   7.027   0.299  10.454  0.3105  1.8682 -1.0980
   34MOL0     H 4583   6.967   0.208  10.326 -2.7171  0.9623 -1.2315
   34MOL0     H 4584   6.825   0.205  10.532  0.6837 -1.9999 -2.3895
   34MOL0     H 4585   6.804   0.382  10.529  0.0028  1.3360 -0.7142
   34MOL0     H 4586   6.504   0.244  10.251 -0.2634 -1.6594  0.8576
   34MOL0     H 4587   7.317   0.575  10.181 -0.6821 -0.7646  0.6676
   34MOL0     H 4588   7.514   0.684  10.162  0.2183 -1.9713 -2.4552
   34MOL0     H 4589   7.607   0.645  10.313 -1.4705  0.7514  0.1932
   34MOL0     H 4590   7.664   0.610  10.143  0.4524  1.5818 -0.3414
   35MOL0     O 4591   4.219   1.869   8.151  0.0732 -0.3583  0.5219
   35MOL0     C 4592   4.261   1.809   8.254  0.9044 -0.2831  0.3560
   35MOL0     O 4593   4.181   1.765   8.353 -0.2827 -0.9935  0.0710
   35MOL0     C 4594   4.046   1.751   8.344 -0.4278 -0.8730 -0.0849
   35MOL0     C 4595   3.979   1.744   8.466 -0.2273 -0.7859 -0.3117
   35MOL0     C 4596   3.841   1.721   8.470 -0.6529  0.1986  0.1354
   35MOL0     C 4597   3.768   1.702   8.350 -0.6668  0.3593  0.2622
   35MOL0     O 4598   3.636   1.661   8.338  0.5183 -0.6477 -0.0688
   35MOL0     C 4599   3.597   1.569   8.439  0.4923  0.4158 -0.3520
   35MOL0     C 4600   3.477   1.481   8.398  0.1431 -0.3583  0.4279
   35MOL0     C 4601   3.517   1.369   8.301 -0.5350 -0.0125 -0.0623
   35MOL0     C 4602   3.398   1.288   8.252 -0.4757  0.3299  0.6359
   35MOL0     C 4603   3.412   1.160   8.167 -0.8835  0.8200  0.0418
   35MOL0     C 4604   3.525   1.064   8.226 -0.3018  0.4677  0.5468
   35MOL0     C 4605   3.667   1.099   8.162  0.6590 -0.0110  0.2616
   35MOL0     C 4606   3.684   1.039   8.014  0.3622 -0.2260 -0.2272
   35MOL0     N 4607   3.819   1.071   7.954  0.0727 -0.2202  0.2542
   35MOL0     C 4608   3.874   1.198   7.933  0.6905  0.3254 -0.0246
   35MOL0     C 4609   3.998   1.192   7.890 -0.0647  0.1849 -0.0691
   35MOL0     C 4610   4.074   1.295   7.819 -0.0193 -0.1437  1.2090
   35MOL0     C 4611   4.148   1.380   7.927  1.1334  0.0013 -0.0890
   35MOL0     C 4612   4.238   1.480   7.867  0.6844 -0.2883  0.0921
   35MOL0     C 4613   4.299   1.589   7.962  0.3327  0.6774 -0.2813
   35MOL0     O 4614   4.351   1.690   7.871 -0.1803 -0.0834 -1.0363
   35MOL0     C 4615   4.475   1.702   7.816  0.2623 -0.0597 -0.3527
   35MOL0     C 4616   4.511   1.813   7.748  0.9335  0.1629  0.2186
   35MOL0     C 4617   4.639   1.843   7.723 -0.9139 -0.0452 -0.3427
   35MOL0     C 4618   4.742   1.747   7.745  0.0643  0.1294  0.1997
   35MOL0     C 4619   4.889   1.776   7.720  0.3110 -0.5153 -0.5334
   35MOL0     O 4620   4.987   1.687   7.754 -0.1098 -0.5211 -0.3136
   35MOL0     C 4621   5.114   1.730   7.742  0.0183 -0.7224 -0.3451
   35MOL0     C 4622   5.175   1.813   7.836 -0.4263 -0.9976  0.4609
   35MOL0     C 4623   5.309   1.847   7.820 -0.1237  1.1013  0.4432
   35MOL0     C 4624   5.376   1.813   7.702  0.3916  0.2929  0.2740
   35MOL0     O 4625   5.508   1.843   7.684  0.7977  0.7593 -0.3094
   35MOL0     C 4626   5.541   1.973   7.636 -1.2284 -0.1428  0.0256
   35MOL0     C 4627   5.596   1.962   7.490  0.3234 -0.0744  0.6733
   35MOL0     C 4628   5.648   2.107   7.450 -0.6593  0.1113  1.0095
   35MOL0     C 4629   5.670   2.112   7.298 -0.5748 -0.0457  0.2805
   35MOL0     C 4630   5.759   2.227   7.259  0.2000 -1.1119  0.2277
   35MOL0     C 4631   5.705   2.369   7.288  0.1856  0.4673  0.1739
   35MOL0     C 4632   5.543   2.381   7.277  0.0033  0.6712 -0.6525
   35MOL0     C 4633   5.490   2.355   7.140 -0.1584 -0.3573  0.6907
   35MOL0    Cl 4634   5.313   2.395   7.137  0.0561 -0.6441  0.1603
   35MOL0     C 4635   5.317   1.728   7.609  0.5127 -0.6187  0.5239
   35MOL0     C 4636   5.187   1.692   7.631  0.0550 -0.6803 -0.1543
   35MOL0     O 4637   4.905   1.884   7.665  0.0793  0.7675 -0.3177
   35MOL0     C 4638   4.703   1.620   7.796  0.3729 -0.6806 -0.3154
   35MOL0     C 4639   4.565   1.596   7.834 -0.6546 -0.2215 -0.1108
   35MOL0     N 4640   4.026   1.054   7.896 -0.1643  0.3627  0.3084
   35MOL0     N 4641   3.913   0.984   7.917 -0.1148  1.3047  0.2048
   35MOL0     C 4642   3.833   1.708   8.232  0.7531 -0.2944  0.1987
   35MOL0     C 4643   3.969   1.728   8.229  0.5419 -0.5634  0.2566
   35MOL0     C 4644   4.410   1.810   8.287 -0.2527  0.0056 -0.5061
   35MOL0     C 4645   4.497   1.860   8.180  0.3431 -0.7128 -0.8246
   35MOL0     C 4646   4.642   1.862   8.197  0.1525  0.0789 -0.6804
   35MOL0     C 4647   4.701   1.803   8.308  0.0715 -0.0689 -0.3317
   35MOL0     O 4648   4.833   1.796   8.341 -0.1455 -0.8033  0.3921
   35MOL0     C 4649   4.926   1.813   8.237  0.3637  0.1574 -0.1059
   35MOL0     C 4650   5.055   1.734   8.272  0.1322  0.8478 -0.1719
   35MOL0     C 4651   5.163   1.729   8.157 -0.7159 -0.3539  0.7885
   35MOL0     C 4652   5.289   1.676   8.227  0.0752 -0.6672 -0.3838
   35MOL0     C 4653   5.410   1.648   8.146  0.0684  0.3215 -0.4315
   35MOL0     C 4654   5.509   1.620   8.077  0.8509  0.6031 -0.3916
   35MOL0     C 4655   4.613   1.747   8.400 -0.0318 -0.2644  0.3009
   35MOL0     C 4656   4.476   1.751   8.398  1.4558 -0.4296 -0.3839
   35MOL0     C 4657   4.401   1.710   8.522 -0.4918  0.0565  0.2897
   35MOL0     H 4658   4.037   1.754   8.557  0.2443  0.0108 -0.6900
   35MOL0     H 4659   3.795   1.704   8.566  0.6646  1.0806  0.9713
   35MOL0     H 4660   3.678   1.500   8.463 -0.9155 -1.0939  0.2539
   35MOL0     H 4661   3.562   1.621   8.529 -3.7703 -1.7159 -0.5617
   35MOL0     H 4662   3.399   1.541   8.351  1.0550  0.9540  0.5490
   35MOL0     H 4663   3.430   1.426   8.480  0.2116  0.0646  0.7529
   35MOL0     H 4664   3.591   1.302   8.345  3.0773  1.1008 -3.8387
   35MOL0     H 4665   3.571   1.415   8.218  0.9089 -1.6831 -0.1116
   35MOL0     H 4666   3.351   1.260   8.347  3.4859 -1.8388  2.1984
   35MOL0     H 4667   3.327   1.358   8.207 -0.5968 -0.0051  0.3006
   35MOL0     H 4668   3.312   1.116   8.161 -1.6018  2.3993  0.1236
   35MOL0     H 4669   3.447   1.184   8.066 -0.6196  2.7990  0.5786
   35MOL0     H 4670   3.530   1.088   8.332 -1.4272 -0.0625  0.7373
   35MOL0     H 4671   3.498   0.958   8.217 -3.4266  1.1385  0.6209
   35MOL0     H 4672   3.744   1.049   8.220  2.2229 -0.0853 -1.7901
   35MOL0     H 4673   3.683   1.207   8.161 -0.2423  0.1431  1.0255
   35MOL0     H 4674   3.673   0.930   8.019  0.5311 -0.2203  0.3830
   35MOL0     H 4675   3.610   1.088   7.950  1.2113 -0.4480 -1.3963
   35MOL0     H 4676   3.806   1.283   7.937 -1.4916 -1.3783  2.1248
   35MOL0     H 4677   4.141   1.246   7.749 -1.4279 -0.7250  0.2221
   35MOL0     H 4678   4.006   1.355   7.759  0.8576 -1.5253 -1.3133
   35MOL0     H 4679   4.082   1.436   7.994  1.0628  0.4145 -0.4965
   35MOL0     H 4680   4.217   1.323   7.990 -0.8010 -0.9548  1.2404
   35MOL0     H 4681   4.183   1.528   7.785  1.6802 -1.5919 -1.3885
   35MOL0     H 4682   4.325   1.434   7.819  3.3194  2.1438  2.1597
   35MOL0     H 4683   4.371   1.546   8.032 -2.7755 -1.4994  1.8563
   35MOL0     H 4684   4.215   1.632   8.017  2.3012  1.4081  2.3052
   35MOL0     H 4685   4.434   1.888   7.737 -0.1383 -0.7651  1.0812
   35MOL0     H 4686   4.660   1.935   7.669 -1.6076 -0.5955 -1.6069
   35MOL0     H 4687   5.122   1.863   7.917  0.1085 -1.3961  1.0559
   35MOL0     H 4688   5.363   1.901   7.897  1.2063 -0.0423  0.3559
   35MOL0     H 4689   5.452   2.035   7.633  0.5234  2.5320 -0.5099
   35MOL0     H 4690   5.595   2.032   7.711  2.0836 -2.2289 -0.4727
   35MOL0     H 4691   5.682   1.895   7.486 -0.3093 -0.9319  0.9862
   35MOL0     H 4692   5.512   1.919   7.435 -0.3625 -1.0038  2.3704
   35MOL0     H 4693   5.589   2.188   7.494  0.5478  0.3858  2.2192
   35MOL0     H 4694   5.750   2.115   7.489  0.6909 -1.5605 -1.8773
   35MOL0     H 4695   5.577   2.122   7.241 -0.4119  4.0291  0.4656
   35MOL0     H 4696   5.717   2.022   7.257  0.0276  1.0429 -1.5719
   35MOL0     H 4697   5.758   2.223   7.149 -3.1104  1.9359 -0.0259
   35MOL0     H 4698   5.859   2.217   7.301 -0.5335 -2.2207  1.8067
   35MOL0     H 4699   5.752   2.408   7.378  2.3531 -1.1080 -0.1780
   35MOL0     H 4700   5.739   2.420   7.197  0.5797  0.0061  0.0571
   35MOL0     H 4701   5.516   2.480   7.316 -1.9875  1.7956 -4.4855
   35MOL0     H 4702   5.493   2.308   7.341 -0.7373 -1.4000 -3.4370
   35MOL0     H 4703   5.535   2.424   7.068 -1.9156  1.4766  1.2578
   35MOL0     H 4704   5.516   2.252   7.116  2.1860 -0.2273  2.3207
   35MOL0     H 4705   5.373   1.696   7.521  1.7687  1.3159  0.5622
   35MOL0     H 4706   5.148   1.615   7.565  2.5368 -1.9374 -0.2587
   35MOL0     H 4707   4.779   1.543   7.804 -0.0099 -1.1221 -0.7997
   35MOL0     H 4708   4.544   1.508   7.894  1.3982 -0.3161  0.5623
   35MOL0     H 4709   3.771   1.702   8.143  1.5977 -2.8098 -0.3084
   35MOL0     H 4710   4.022   1.720   8.135 -0.2924 -1.9421 -0.1232
   35MOL0     H 4711   4.450   1.924   8.106  2.2535 -0.2269 -1.6763
   35MOL0     H 4712   4.702   1.923   8.130  1.3965  0.0541  0.3820
   35MOL0     H 4713   4.946   1.919   8.226 -1.5084  0.3675 -2.1963
   35MOL0     H 4714   4.891   1.769   8.143  3.3402 -1.0026 -0.8104
   35MOL0     H 4715   5.040   1.629   8.299 -0.2844  1.3153  1.5406
   35MOL0     H 4716   5.096   1.786   8.360 -1.0343 -1.8094  2.1179
   35MOL0     H 4717   5.200   1.826   8.120  2.2186 -1.8747 -0.5735
   35MOL0     H 4718   5.140   1.679   8.063  0.1973  0.7416 -0.0447
   35MOL0     H 4719   5.329   1.746   8.301 -1.2538 -0.7436  0.4378
   35MOL0     H 4720   5.262   1.590   8.289  1.7679 -0.4650  0.7102
   35MOL0     H 4721   5.585   1.598   8.005 -0.8573 -0.1076 -2.0619
   35MOL0     H 4722   4.665   1.702   8.484 -2.8988 -1.2020  1.6835
   35MOL0     H 4723   4.341   1.618   8.515 -2.7541  1.5286 -0.7295
   35MOL0     H 4724   4.477   1.689   8.598 -1.5111 -1.7036  0.9049
   35MOL0     H 4725   4.337   1.787   8.564 -2.3985 -1.9228  1.2186
   36MOL0     O 4726   5.053   8.330   4.370 -0.7854 -0.2840  0.0515
   36MOL0     C 4727   5.053   8.400   4.265  0.7335 -0.2395 -0.7347
   36MOL0     O 4728   4.936   8.450   4.209 -0.4089  0.3149 -0.4026
   36MOL0     C 4729   4.814   8.419   4.275 -1.1396  0.6443  0.0714
   36MOL0     C 4730   4.717   8.515   4.254 -0.2317  0.7124  0.1677
   36MOL0     C 4731   4.578   8.480   4.276 -0.2287  0.4055 -0.2791
   36MOL0     C 4732   4.541   8.355   4.316  0.0057  0.6981 -0.3642
   36MOL0     O 4733   4.405   8.330   4.332 -0.2945  0.6191 -0.9721
   36MOL0     C 4734   4.374   8.252   4.443 -0.4438  1.0361  0.1934
   36MOL0     C 4735   4.350   8.328   4.580 -0.1821  0.0099 -0.1460
   36MOL0     C 4736   4.263   8.447   4.564  0.2412 -0.1703  0.3172
   36MOL0     C 4737   4.236   8.506   4.705  0.4757  0.3494  0.4166
   36MOL0     C 4738   4.173   8.646   4.673 -0.5815  0.5514  0.1175
   36MOL0     C 4739   4.098   8.700   4.790  0.2558  0.5596 -0.0725
   36MOL0     C 4740   4.177   8.739   4.915  0.9257 -0.8325 -0.4365
   36MOL0     C 4741   4.090   8.787   5.028  0.1767  0.1941 -0.6802
   36MOL0     N 4742   4.102   8.931   5.034 -0.5788  0.5760 -0.1010
   36MOL0     C 4743   4.047   9.015   4.951  0.2794 -0.3720  0.5164
   36MOL0     C 4744   4.097   9.139   4.982 -0.3001  0.1969  0.6870
   36MOL0     C 4745   4.083   9.260   4.895  0.3193  0.9431 -0.8989
   36MOL0     C 4746   4.219   9.332   4.857  0.0988  0.4003  0.4771
   36MOL0     C 4747   4.278   9.428   4.962 -0.1655  0.0513 -0.6244
   36MOL0     C 4748   4.427   9.453   4.938  0.8302  0.8615 -0.1358
   36MOL0     O 4749   4.438   9.491   4.797  0.0970  0.7322  0.6210
   36MOL0     C 4750   4.564   9.482   4.737  0.3177  0.0680 -0.7292
   36MOL0     C 4751   4.575   9.518   4.599  0.6559 -0.5431 -0.1358
   36MOL0     C 4752   4.696   9.500   4.539  0.1111 -0.1030 -0.6992
   36MOL0     C 4753   4.823   9.477   4.612  0.1630 -0.2924 -0.5311
   36MOL0     C 4754   4.950   9.459   4.532  0.2534  0.0964 -0.0167
   36MOL0     O 4755   5.052   9.382   4.584  0.2937  0.3194 -0.4760
   36MOL0     C 4756   5.168   9.362   4.509  1.4547  0.6894 -0.2275
   36MOL0     C 4757   5.219   9.236   4.537 -0.4546 -0.1384 -0.2847
   36MOL0     C 4758   5.337   9.186   4.470 -0.2356 -0.6922  0.9125
   36MOL0     C 4759   5.385   9.267   4.357  0.5221 -0.7980 -1.0614
   36MOL0     O 4760   5.491   9.205   4.294  0.3396  0.4187  0.0030
   36MOL0     C 4761   5.601   9.299   4.269 -0.7695  1.0800 -0.6435
   36MOL0     C 4762   5.737   9.239   4.280 -0.0062  1.0510 -0.2160
   36MOL0     C 4763   5.769   9.117   4.185 -0.0843 -0.2804 -0.5431
   36MOL0     C 4764   5.899   9.054   4.217  0.5855 -0.2185  0.8255
   36MOL0     C 4765   5.950   8.961   4.113 -0.2653 -0.1100  1.1543
   36MOL0     C 4766   6.071   8.881   4.160  0.5255  0.6458 -0.2151
   36MOL0     C 4767   6.111   8.773   4.058 -0.1604 -0.0726 -0.2065
   36MOL0     C 4768   6.206   8.670   4.125 -0.0262  0.2421 -0.3469
   36MOL0    Cl 4769   6.255   8.558   4.003  0.5716 -0.0808 -0.3530
   36MOL0     C 4770   5.326   9.385   4.331 -0.6385 -0.9493  1.1530
   36MOL0     C 4771   5.225   9.436   4.406  0.7765  0.5425 -0.0302
   36MOL0     O 4772   4.950   9.527   4.431 -0.6318 -0.2697  0.8038
   36MOL0     C 4773   4.817   9.458   4.751 -0.1775  0.4815  1.0098
   36MOL0     C 4774   4.684   9.455   4.818 -0.8368  0.3892 -0.6242
   36MOL0     N 4775   4.174   9.124   5.100 -0.4110 -0.0048  0.0403
   36MOL0     N 4776   4.181   8.999   5.127  0.3669  0.4427  0.3591
   36MOL0     C 4777   4.645   8.261   4.334 -0.3950  0.5749 -0.3178
   36MOL0     C 4778   4.775   8.290   4.310 -0.1075 -0.6627  0.0649
   36MOL0     C 4779   5.181   8.430   4.193  0.4936  0.4452  0.1841
   36MOL0     C 4780   5.178   8.546   4.111  0.6860 -0.0188 -0.3548
   36MOL0     C 4781   5.283   8.578   4.034 -0.0656 -0.8381 -0.1841
   36MOL0     C 4782   5.393   8.497   4.028 -0.0526  0.3293  0.8061
   36MOL0     O 4783   5.492   8.528   3.937  0.5755 -0.1300 -0.6067
   36MOL0     C 4784   5.562   8.421   3.868 -0.1164 -0.0651 -0.6778
   36MOL0     C 4785   5.642   8.479   3.748 -0.2106 -0.0855  0.2919
   36MOL0     C 4786   5.765   8.564   3.795  0.1109 -0.2637 -1.0336
   36MOL0     C 4787   5.839   8.613   3.664 -0.5341  0.0709 -0.0235
   36MOL0     C 4788   5.944   8.713   3.694  0.0666 -0.2603  0.9036
   36MOL0     C 4789   6.041   8.786   3.705 -0.4436 -0.3939  0.2400
   36MOL0     C 4790   5.401   8.381   4.101  0.3709 -0.4181 -0.5661
   36MOL0     C 4791   5.298   8.355   4.191  0.0600  0.0090  0.0297
   36MOL0     C 4792   5.309   8.227   4.277 -0.2511  0.4601  0.1721
   36MOL0     H 4793   4.753   8.608   4.211 -2.1535  0.2496 -2.7837
   36MOL0     H 4794   4.509   8.563   4.274 -0.3057  0.3342 -0.8413
   36MOL0     H 4795   4.281   8.199   4.421  0.7771 -1.3376  0.3848
   36MOL0     H 4796   4.446   8.171   4.458  1.6285  2.3641 -1.9860
   36MOL0     H 4797   4.451   8.353   4.615  0.3302 -1.3843 -0.5661
   36MOL0     H 4798   4.312   8.254   4.651  1.7089 -0.8957  0.0139
   36MOL0     H 4799   4.174   8.407   4.515  1.2737  0.2910 -2.0797
   36MOL0     H 4800   4.317   8.520   4.502  0.1867  0.3342  0.8560
   36MOL0     H 4801   4.173   8.431   4.753 -0.7809  1.4478  0.5333
   36MOL0     H 4802   4.325   8.512   4.768 -0.8416 -1.6077  2.6465
   36MOL0     H 4803   4.264   8.700   4.646 -0.0295 -0.2853  0.2608
   36MOL0     H 4804   4.107   8.638   4.586  1.4198  1.3121 -1.5351
   36MOL0     H 4805   4.047   8.786   4.744 -0.1445  0.5752  0.3963
   36MOL0     H 4806   4.025   8.628   4.829 -1.2958  2.4195  0.6258
   36MOL0     H 4807   4.247   8.815   4.879 -0.8826  1.3042  0.3104
   36MOL0     H 4808   4.227   8.646   4.943  1.5032 -0.7027 -1.0011
   36MOL0     H 4809   3.984   8.763   5.010 -0.4561  0.9164  1.6520
   36MOL0     H 4810   4.123   8.747   5.125 -1.8207  1.5741  0.6514
   36MOL0     H 4811   3.986   8.995   4.863  1.5110 -0.9622 -0.2361
   36MOL0     H 4812   4.034   9.227   4.802 -1.1676  3.0420 -0.9208
   36MOL0     H 4813   4.013   9.329   4.943  0.2015  0.5417 -0.4844
   36MOL0     H 4814   4.285   9.260   4.807  0.7178  0.5680  1.0438
   36MOL0     H 4815   4.190   9.405   4.780 -1.6314 -1.3151 -0.5901
   36MOL0     H 4816   4.254   9.386   5.060  0.5983 -0.4381 -0.6407
   36MOL0     H 4817   4.227   9.525   4.958 -0.5673  0.1967  3.3887
   36MOL0     H 4818   4.475   9.357   4.960 -0.7846 -0.0823 -0.6019
   36MOL0     H 4819   4.474   9.534   4.994  2.9929  0.2183 -0.9293
   36MOL0     H 4820   4.492   9.551   4.537  1.0964  0.3165 -0.2789
   36MOL0     H 4821   4.692   9.507   4.431 -2.3259 -2.7005 -0.8922
   36MOL0     H 4822   5.183   9.172   4.617 -0.9409 -0.1978 -0.5483
   36MOL0     H 4823   5.383   9.095   4.508 -1.1923 -1.1790  0.9188
   36MOL0     H 4824   5.585   9.335   4.167 -0.6857  2.3659 -0.2204
   36MOL0     H 4825   5.603   9.386   4.336  1.4103  0.2353  0.4960
   36MOL0     H 4826   5.813   9.310   4.247 -1.5532  1.2889 -3.8015
   36MOL0     H 4827   5.744   9.211   4.385  2.6437  1.5357 -0.2053
   36MOL0     H 4828   5.695   9.040   4.209 -0.0550  0.2196  1.2641
   36MOL0     H 4829   5.767   9.138   4.078  0.6652  5.0950  0.2350
   36MOL0     H 4830   5.884   9.006   4.315 -0.4084  0.0719  0.8282
   36MOL0     H 4831   5.965   9.140   4.230  2.1860 -0.9442 -1.6649
   36MOL0     H 4832   5.988   9.017   4.027  1.5633 -1.3402  1.1061
   36MOL0     H 4833   5.874   8.890   4.080  2.1461 -1.4980 -2.0733
   36MOL0     H 4834   6.140   8.964   4.173  0.6043  0.4536  0.6618
   36MOL0     H 4835   6.047   8.838   4.258  2.1869  2.2953  0.9758
   36MOL0     H 4836   6.151   8.801   3.960 -0.1852 -0.3432 -0.2967
   36MOL0     H 4837   6.018   8.718   4.039 -0.3843  0.7046 -1.4660
   36MOL0     H 4838   6.298   8.717   4.162  0.0210 -0.7436  0.8588
   36MOL0     H 4839   6.158   8.610   4.202 -1.5096 -0.5009 -1.7891
   36MOL0     H 4840   5.354   9.440   4.241 -0.1157  1.1669  2.5322
   36MOL0     H 4841   5.184   9.528   4.365 -1.4799 -0.4807 -0.2381
   36MOL0     H 4842   4.908   9.442   4.807  0.6821  3.9977  0.8698
   36MOL0     H 4843   4.676   9.440   4.925  0.2983 -2.3454 -0.8606
   36MOL0     H 4844   4.616   8.160   4.359 -0.5377  0.8557  0.6729
   36MOL0     H 4845   4.849   8.210   4.308  1.3019  0.4749  2.5026
   36MOL0     H 4846   5.097   8.618   4.103  2.6752  2.1587 -2.4959
   36MOL0     H 4847   5.281   8.677   3.988  1.9029  0.0796  1.5506
   36MOL0     H 4848   5.491   8.346   3.832 -0.5173  0.5449 -1.1816
   36MOL0     H 4849   5.640   8.381   3.933 -1.0223  1.5636  1.5564
   36MOL0     H 4850   5.577   8.540   3.684  0.9010 -0.2544 -1.0379
   36MOL0     H 4851   5.686   8.398   3.690  0.3960  2.0033 -2.3623
   36MOL0     H 4852   5.832   8.496   3.849 -0.1762  0.3366  0.0957
   36MOL0     H 4853   5.732   8.645   3.861  1.1995 -0.8985  0.3328
   36MOL0     H 4854   5.882   8.524   3.619 -0.8310 -1.0204  1.7660
   36MOL0     H 4855   5.770   8.651   3.588  2.0070  1.2649 -1.8642
   36MOL0     H 4856   6.127   8.851   3.704 -1.3652  0.9517  2.4047
   36MOL0     H 4857   5.485   8.312   4.108 -0.0951 -0.8175  2.1260
   36MOL0     H 4858   5.294   8.263   4.379 -1.9782  1.2675 -0.3366
   36MOL0     H 4859   5.233   8.150   4.261 -0.3622  0.0440  2.4376
   36MOL0     H 4860   5.408   8.180   4.268 -0.0028  0.3989  2.6348
   37MOL0     O 4861   4.766   4.082  10.107  0.2771  0.1378 -0.0136
   37MOL0     C 4862   4.695   4.025  10.188 -0.3403  0.0267  0.3274
   37MOL0     O 4863   4.740   3.979  10.309  0.4303  0.3020 -0.0919
   37MOL0     C 4864   4.859   4.015  10.365 -0.7975 -0.3324  0.6747
   37MOL0     C 4865   4.960   3.920  10.382  0.0939 -0.4214  0.0117
   37MOL0     C 4866   5.085   3.961  10.416 -0.3227  0.9268 -0.0386
   37MOL0     C 4867   5.121   4.092  10.436  0.0984 -0.1507 -0.1609
   37MOL0     O 4868   5.251   4.105  10.467 -0.2350 -0.4040 -0.0003
   37MOL0     C 4869   5.295   4.236  10.493 -0.4290 -1.2425 -0.3759
   37MOL0     C 4870   5.453   4.235  10.486  0.2999 -0.1283  0.1107
   37MOL0     C 4871   5.518   4.147  10.379  1.1082 -0.2803  0.6419
   37MOL0     C 4872   5.674   4.140  10.389  0.4498  0.9795  0.4993
   37MOL0     C 4873   5.730   3.995  10.377  0.9752 -0.1158 -0.6243
   37MOL0     C 4874   5.886   3.992  10.370 -1.0731  0.4998 -0.0507
   37MOL0     C 4875   5.941   4.017  10.223 -0.8109  0.0828 -0.1896
   37MOL0     C 4876   6.094   4.050  10.226  0.6499  0.7153 -0.8930
   37MOL0     N 4877   6.139   4.180  10.288  0.3369 -0.5905  0.4402
   37MOL0     C 4878   6.261   4.233  10.256  0.3746 -0.7362 -0.0677
   37MOL0     C 4879   6.273   4.346  10.330  0.4156 -0.3966  0.2540
   37MOL0     C 4880   6.388   4.449  10.332  0.1808  0.1699 -0.3188
   37MOL0     C 4881   6.505   4.401  10.418 -1.1203  0.8819 -0.5513
   37MOL0     C 4882   6.640   4.474  10.386 -0.1655 -0.5260  0.3963
   37MOL0     C 4883   6.738   4.377  10.325 -0.3556 -0.1444  0.2204
   37MOL0     O 4884   6.844   4.320  10.399 -0.3844  0.2051  0.4584
   37MOL0     C 4885   6.946   4.390  10.458 -1.8719 -0.6804  1.1532
   37MOL0     C 4886   6.960   4.527  10.491  0.1540 -0.2523 -1.2921
   37MOL0     C 4887   7.068   4.581  10.566 -0.5762  0.1256  0.4491
   37MOL0     C 4888   7.164   4.490  10.623 -0.4021 -0.0779 -0.5055
   37MOL0     C 4889   7.272   4.545  10.716  0.0702  0.5006 -0.4037
   37MOL0     O 4890   7.300   4.677  10.705 -1.5549 -0.1493  0.4013
   37MOL0     C 4891   7.393   4.732  10.792  0.5845  0.3381  0.7637
   37MOL0     C 4892   7.361   4.735  10.933 -0.1570 -0.3164 -0.3279
   37MOL0     C 4893   7.466   4.767  11.015  0.5777 -0.1760  0.2989
   37MOL0     C 4894   7.580   4.826  10.962  0.4865 -0.1037 -0.0772
   37MOL0     O 4895   7.694   4.850  11.038 -0.7556 -0.2132 -0.7281
   37MOL0     C 4896   7.680   4.925  11.159  0.7212  0.3428 -0.2112
   37MOL0     C 4897   7.819   4.953  11.220 -0.5972  0.9432 -0.2907
   37MOL0     C 4898   7.899   4.819  11.238 -0.5938  0.1215 -0.3852
   37MOL0     C 4899   8.037   4.875  11.289 -0.3626 -0.1717 -0.0153
   37MOL0     C 4900   8.139   4.773  11.272  0.2637  0.3857  0.0678
   37MOL0     C 4901   8.274   4.793  11.349  0.5572 -0.3236  0.7546
   37MOL0     C 4902   8.336   4.665  11.409 -0.3917 -0.3023  1.3846
   37MOL0     C 4903   8.414   4.582  11.312 -0.4485  0.6102  0.2379
   37MOL0    Cl 4904   8.540   4.670  11.215 -0.0357  0.0910  0.0560
   37MOL0     C 4905   7.597   4.848  10.825  0.0124  0.4936 -0.1264
   37MOL0     C 4906   7.507   4.790  10.740 -0.0461 -0.3241  0.0516
   37MOL0     O 4907   7.311   4.468  10.804 -0.8161  0.1513  0.8316
   37MOL0     C 4908   7.146   4.351  10.594 -0.0808  0.0876  0.0258
   37MOL0     C 4909   7.046   4.303  10.515  0.5763  0.3295 -1.1341
   37MOL0     N 4910   6.148   4.366  10.407  0.0268  0.3776  0.1917
   37MOL0     N 4911   6.078   4.256  10.386 -0.2355 -0.6097  0.0916
   37MOL0     C 4912   5.019   4.191  10.414  0.7660  0.7024  0.4719
   37MOL0     C 4913   4.889   4.153  10.388  0.5827 -0.4824 -0.3178
   37MOL0     C 4914   4.560   3.972  10.146  0.1202 -0.0401  0.1829
   37MOL0     C 4915   4.479   3.912  10.244  1.5053 -0.0049  0.2839
   37MOL0     C 4916   4.355   3.851  10.213 -1.4451  0.1428  0.4792
   37MOL0     C 4917   4.312   3.837  10.076 -0.3559 -0.2447  0.6658
   37MOL0     O 4918   4.202   3.772  10.049 -0.1946  0.4865 -0.6318
   37MOL0     C 4919   4.169   3.715   9.921 -0.6224 -0.0259 -0.3582
   37MOL0     C 4920   4.031   3.639   9.937 -1.4513 -0.3964  0.6292
   37MOL0     C 4921   3.921   3.747   9.938  0.0057 -0.4687  0.4831
   37MOL0     C 4922   3.779   3.690   9.946  0.8731 -0.7599  0.1383
   37MOL0     C 4923   3.724   3.672  10.081 -0.4534 -0.0753  0.8907
   37MOL0     C 4924   3.693   3.670  10.193  0.2475 -0.3818 -0.5981
   37MOL0     C 4925   4.393   3.901   9.977 -0.4143 -0.0454  0.7001
   37MOL0     C 4926   4.522   3.963  10.006  0.1464  0.6237  0.1575
   37MOL0     C 4927   4.595   4.029   9.892  0.8156  0.1323 -0.1186
   37MOL0     H 4928   4.921   3.821  10.366 -1.1962 -0.2874  1.9592
   37MOL0     H 4929   5.153   3.879  10.437 -2.0454 -0.6021 -0.1368
   37MOL0     H 4930   5.255   4.298  10.412  0.0074  0.0392  0.3459
   37MOL0     H 4931   5.264   4.274  10.591  0.6720 -1.4562  0.0743
   37MOL0     H 4932   5.486   4.190  10.580  2.4973  0.2215 -0.4529
   37MOL0     H 4933   5.501   4.332  10.474  0.0847 -0.0821 -0.3961
   37MOL0     H 4934   5.494   4.199  10.285  0.7280 -0.2867  0.7337
   37MOL0     H 4935   5.473   4.047  10.374  0.3307 -0.2849 -8.2699
   37MOL0     H 4936   5.732   4.211  10.328  0.5188  2.4053  2.1525
   37MOL0     H 4937   5.700   4.162  10.493  0.8455  1.2512  0.3473
   37MOL0     H 4938   5.689   3.951  10.469  2.1733 -0.7384 -0.3658
   37MOL0     H 4939   5.680   3.933  10.302  0.4658 -0.7985  0.2563
   37MOL0     H 4940   5.924   4.071  10.435  1.8583  0.6680 -1.8084
   37MOL0     H 4941   5.926   3.895  10.403 -2.5796 -0.1688 -0.1006
   37MOL0     H 4942   5.882   4.096  10.177 -0.0908  0.4582 -0.4779
   37MOL0     H 4943   5.929   3.932  10.154  0.4259  0.3137 -0.7181
   37MOL0     H 4944   6.148   3.967  10.271 -1.5665 -1.3334 -1.7951
   37MOL0     H 4945   6.108   4.034  10.119 -1.0827  0.6286 -1.1327
   37MOL0     H 4946   6.336   4.184  10.194  2.5804  3.0333 -0.6493
   37MOL0     H 4947   6.419   4.457  10.227  1.6793  2.8304  0.2376
   37MOL0     H 4948   6.349   4.548  10.355 -0.9646 -0.5052  0.7515
   37MOL0     H 4949   6.480   4.430  10.520  2.7059  1.6514  0.3068
   37MOL0     H 4950   6.510   4.292  10.409  0.2932  0.6567  1.9834
   37MOL0     H 4951   6.693   4.508  10.476  2.2619 -1.4666 -0.5816
   37MOL0     H 4952   6.616   4.553  10.313  1.1952 -1.4510 -1.1316
   37MOL0     H 4953   6.783   4.433  10.242  1.3366 -1.1989  0.3908
   37MOL0     H 4954   6.683   4.298  10.274  0.3595 -0.2683 -0.3682
   37MOL0     H 4955   6.885   4.600  10.460  0.0357  0.3780  0.3493
   37MOL0     H 4956   7.074   4.684  10.597  1.6951  0.1704  0.0453
   37MOL0     H 4957   7.271   4.684  10.966 -1.1324 -0.5522 -3.1530
   37MOL0     H 4958   7.446   4.733  11.116  2.8437 -0.6055  0.6594
   37MOL0     H 4959   7.638   5.026  11.166 -0.8352 -0.3169  0.3619
   37MOL0     H 4960   7.622   4.859  11.223  0.1019  1.3223  0.2573
   37MOL0     H 4961   7.878   5.011  11.149 -0.6037 -0.1574 -1.2304
   37MOL0     H 4962   7.805   5.005  11.315  0.5249  0.6649  0.0521
   37MOL0     H 4963   7.861   4.736  11.298  0.1056  0.9838  1.3368
   37MOL0     H 4964   7.924   4.782  11.139 -1.8833 -2.0721  0.0396
   37MOL0     H 4965   8.028   4.888  11.397  1.3042  0.1259  0.1030
   37MOL0     H 4966   8.071   4.957  11.227 -2.4183  1.6475  1.1118
   37MOL0     H 4967   8.148   4.772  11.163 -0.5949 -1.3499 -0.0232
   37MOL0     H 4968   8.088   4.679  11.298 -0.2119  0.6770  0.1964
   37MOL0     H 4969   8.344   4.839  11.279  1.9344 -2.8953  0.3098
   37MOL0     H 4970   8.257   4.863  11.431 -0.0648  1.1193 -0.5599
   37MOL0     H 4971   8.261   4.597  11.451 -0.7394 -0.8867 -0.1400
   37MOL0     H 4972   8.404   4.696  11.489  0.4534  2.0208 -0.1445
   37MOL0     H 4973   8.483   4.517  11.366 -1.3783  1.0101  1.9930
   37MOL0     H 4974   8.350   4.518  11.250  0.3191  0.8081 -0.7942
   37MOL0     H 4975   7.695   4.881  10.792  0.5852 -0.7165  0.2796
   37MOL0     H 4976   7.521   4.790  10.632  0.2317  0.4552  0.0865
   37MOL0     H 4977   7.219   4.277  10.625 -2.4195 -3.3245 -2.0103
   37MOL0     H 4978   7.033   4.197  10.499 -0.8629 -0.0939  1.9770
   37MOL0     H 4979   5.031   4.298  10.428 -1.5587  1.1759 -0.6963
   37MOL0     H 4980   4.807   4.224  10.396  0.9217 -0.0142 -0.8850
   37MOL0     H 4981   4.503   3.914  10.350 -0.1676 -1.4112  0.7490
   37MOL0     H 4982   4.303   3.806  10.297 -1.0591 -0.3402  0.4614
   37MOL0     H 4983   4.246   3.648   9.882 -2.0223 -3.0196  1.6648
   37MOL0     H 4984   4.160   3.800   9.852  0.5955  1.6550  1.4352
   37MOL0     H 4985   4.028   3.593  10.036 -0.7030  0.1612  0.9261
   37MOL0     H 4986   4.020   3.570   9.853 -1.8103  0.9473 -0.4651
   37MOL0     H 4987   3.927   3.809   9.848 -1.9250  1.0505  1.3123
   37MOL0     H 4988   3.931   3.818  10.021  0.8193 -0.3554  0.2995
   37MOL0     H 4989   3.718   3.761   9.889  0.2210 -2.3937 -1.2735
   37MOL0     H 4990   3.775   3.598   9.888  1.8957  1.2687 -3.4274
   37MOL0     H 4991   3.645   3.679  10.288  0.3241  3.6998 -0.7947
   37MOL0     H 4992   4.357   3.899   9.875  4.7089  1.5570 -1.4997
   37MOL0     H 4993   4.692   3.979   9.875  2.1732  2.0871  1.3982
   37MOL0     H 4994   4.542   4.033   9.797  0.2767 -2.1424  0.0125
   37MOL0     H 4995   4.613   4.135   9.909 -1.4322  0.6754 -0.9133
   38MOL0     O 4996   5.101   6.245  10.934  0.2154  0.4346  0.3063
   38MOL0     C 4997   5.052   6.132  10.903 -0.6717 -0.9590 -0.4461
   38MOL0     O 4998   5.124   6.024  10.860 -0.2466 -0.3897 -0.0782
   38MOL0     C 4999   5.259   6.030  10.870  0.0467 -0.6719  0.3599
   38MOL0     C 5000   5.320   5.922  10.942  0.5674 -0.3386  0.2719
   38MOL0     C 5001   5.462   5.920  10.971  0.5600 -0.0988  0.3810
   38MOL0     C 5002   5.545   6.022  10.922 -0.0797 -0.1015  1.1733
   38MOL0     O 5003   5.677   6.015  10.939  0.3705  0.8801 -0.6098
   38MOL0     C 5004   5.737   6.053  11.065  0.1101  0.3904 -0.1936
   38MOL0     C 5005   5.879   6.085  11.025 -0.8077 -0.1620  0.0974
   38MOL0     C 5006   5.955   5.957  10.991 -0.4246 -0.0934 -0.3865
   38MOL0     C 5007   6.093   5.971  10.941  0.3806 -0.0453 -0.0869
   38MOL0     C 5008   6.161   5.834  10.940  0.2897 -0.2759 -0.1512
   38MOL0     C 5009   6.291   5.842  10.864 -1.0435 -0.6617 -0.3496
   38MOL0     C 5010   6.365   5.710  10.868  0.4664  0.5121  0.2114
   38MOL0     C 5011   6.461   5.716  10.982  0.4906 -0.0951  0.3975
   38MOL0     N 5012   6.514   5.576  11.009 -0.1230 -0.2617 -0.4991
   38MOL0     C 5013   6.615   5.521  10.941  0.1880 -0.2824  0.1871
   38MOL0     C 5014   6.618   5.391  10.976  0.5081  0.8636  0.8615
   38MOL0     C 5015   6.703   5.286  10.906  0.4669 -0.5931  0.1737
   38MOL0     C 5016   6.817   5.238  11.003  0.0269 -0.1728 -0.0126
   38MOL0     C 5017   6.860   5.097  10.951 -0.1293  0.0044  0.3129
   38MOL0     C 5018   6.950   5.025  11.042  0.3846 -0.0940 -0.4602
   38MOL0     O 5019   7.086   5.082  11.035 -0.1667 -0.0308  0.1343
   38MOL0     C 5020   7.173   5.039  11.131  0.4585  0.9268 -0.7639
   38MOL0     C 5021   7.289   5.108  11.159 -0.1314  0.3865  0.8388
   38MOL0     C 5022   7.378   5.069  11.264 -0.2169  0.1993  0.4905
   38MOL0     C 5023   7.348   4.953  11.336  0.1996  0.1182  1.1113
   38MOL0     C 5024   7.442   4.894  11.437 -0.1967 -0.4012 -0.1693
   38MOL0     O 5025   7.386   4.803  11.515  0.2004 -0.5759  0.2247
   38MOL0     C 5026   7.468   4.709  11.567 -0.0682 -0.6044 -0.2773
   38MOL0     C 5027   7.448   4.671  11.701  0.4507  0.7145 -0.2719
   38MOL0     C 5028   7.535   4.580  11.756 -0.0978  0.4865 -0.4401
   38MOL0     C 5029   7.635   4.515  11.695 -0.1081  0.2516  0.6955
   38MOL0     O 5030   7.721   4.432  11.761  0.2991 -0.0570 -0.1485
   38MOL0     C 5031   7.758   4.302  11.695  0.2127 -0.2703  0.0364
   38MOL0     C 5032   7.904   4.260  11.723  0.5140  0.5972  0.6218
   38MOL0     C 5033   7.924   4.221  11.869 -0.4916 -0.3794 -0.3793
   38MOL0     C 5034   8.062   4.260  11.925  0.0837 -0.9656  0.3554
   38MOL0     C 5035   8.092   4.203  12.068  0.4948  0.1969  0.0822
   38MOL0     C 5036   8.236   4.223  12.121 -0.4687 -0.0867 -0.2291
   38MOL0     C 5037   8.342   4.172  12.028 -0.8519  0.6578  0.3697
   38MOL0     C 5038   8.482   4.179  12.084  0.0096  0.3952  0.7388
   38MOL0    Cl 5039   8.484   4.085  12.237  0.0869 -0.0530  0.3987
   38MOL0     C 5040   7.657   4.553  11.564 -0.4550 -0.2733  0.2698
   38MOL0     C 5041   7.564   4.641  11.495  0.0078  0.3874  0.2725
   38MOL0     O 5042   7.559   4.925  11.434 -0.0064  0.6746 -0.2347
   38MOL0     C 5043   7.235   4.881  11.302  1.1316  0.2022 -0.6077
   38MOL0     C 5044   7.156   4.918  11.200  0.4601  0.6266 -0.3896
   38MOL0     N 5045   6.509   5.364  11.057  0.0644  0.5327 -1.0455
   38MOL0     N 5046   6.452   5.479  11.080  0.0596  0.4505 -0.1450
   38MOL0     C 5047   5.484   6.125  10.842 -0.2165 -0.3705  0.8124
   38MOL0     C 5048   5.345   6.129  10.807  0.3302 -0.1324 -0.2118
   38MOL0     C 5049   4.905   6.120  10.904 -1.2837  0.5653 -0.8679
   38MOL0     C 5050   4.835   6.240  10.900  0.2738  0.2323 -0.2958
   38MOL0     C 5051   4.701   6.248  10.900 -0.2497 -0.6483  0.1662
   38MOL0     C 5052   4.622   6.138  10.907 -0.2430 -0.4772  0.5385
   38MOL0     O 5053   4.483   6.135  10.907  0.2392 -0.6445 -0.1606
   38MOL0     C 5054   4.391   6.246  10.920 -0.5021 -0.6491  0.1913
   38MOL0     C 5055   4.377   6.323  10.787 -0.2107 -0.6337 -0.4849
   38MOL0     C 5056   4.301   6.243  10.674  0.3656  0.6285  0.4234
   38MOL0     C 5057   4.142   6.259  10.686  0.8370 -0.3016  0.6628
   38MOL0     C 5058   4.085   6.255  10.553  0.1399 -0.1677 -0.5177
   38MOL0     C 5059   4.059   6.250  10.431 -0.0923 -0.6995  0.5887
   38MOL0     C 5060   4.697   6.019  10.893  0.1132 -0.0170  0.0065
   38MOL0     C 5061   4.837   6.000  10.893  0.3156  0.2111 -0.5498
   38MOL0     C 5062   4.895   5.860  10.877 -0.9659  0.0977  0.5351
   38MOL0     H 5063   5.254   5.847  10.983  1.5061 -0.9234  0.7555
   38MOL0     H 5064   5.498   5.832  11.024 -0.1659  0.1391  1.2950
   38MOL0     H 5065   5.684   6.143  11.097 -1.6820 -0.1991 -1.3510
   38MOL0     H 5066   5.730   5.969  11.134  1.2003 -0.0451 -0.5866
   38MOL0     H 5067   5.927   6.132  11.111  1.2841  0.0095 -1.0846
   38MOL0     H 5068   5.865   6.151  10.938 -1.5656  1.2937  1.2727
   38MOL0     H 5069   5.894   5.902  10.918 -0.8099  0.5147 -0.5310
   38MOL0     H 5070   5.955   5.901  11.085  0.6178  2.9675  1.5657
   38MOL0     H 5071   6.107   6.022  10.846 -1.0490  1.7279  0.6066
   38MOL0     H 5072   6.148   6.028  11.016  0.7492  0.5202 -0.7811
   38MOL0     H 5073   6.178   5.798  11.042  0.6964  1.3284  0.3779
   38MOL0     H 5074   6.104   5.757  10.887  0.8029 -0.5148 -0.3705
   38MOL0     H 5075   6.263   5.863  10.760  0.8851 -0.3955 -0.8580
   38MOL0     H 5076   6.366   5.919  10.882 -0.3384 -1.6921  1.3478
   38MOL0     H 5077   6.431   5.698  10.782  0.5139  0.8134  0.2077
   38MOL0     H 5078   6.291   5.631  10.885  1.2638 -1.1927 -3.3242
   38MOL0     H 5079   6.544   5.786  10.963  1.1445  0.3916  4.2587
   38MOL0     H 5080   6.406   5.748  11.071 -0.4179 -0.1170 -0.1383
   38MOL0     H 5081   6.666   5.577  10.864 -3.0737  0.4010 -1.6599
   38MOL0     H 5082   6.647   5.195  10.887  1.1632 -1.0592  0.3171
   38MOL0     H 5083   6.744   5.330  10.814 -0.7876 -1.6349 -0.9205
   38MOL0     H 5084   6.893   5.315  11.006 -0.8822  0.7266  1.1075
   38MOL0     H 5085   6.783   5.223  11.107 -2.0234 -0.7933 -0.7058
   38MOL0     H 5086   6.895   5.103  10.847 -1.7870 -1.2193 -0.3532
   38MOL0     H 5087   6.765   5.043  10.954 -1.2541  1.9476  1.7187
   38MOL0     H 5088   6.950   4.920  11.010  1.7534 -0.0845 -0.5436
   38MOL0     H 5089   6.912   5.038  11.144  2.7030  1.2224  0.3319
   38MOL0     H 5090   7.311   5.193  11.096 -1.9228 -0.4984 -1.0747
   38MOL0     H 5091   7.468   5.124  11.289  0.6983 -1.0093 -0.0321
   38MOL0     H 5092   7.369   4.707  11.766  0.7605  0.2974  0.3555
   38MOL0     H 5093   7.508   4.551  11.857 -3.1128  0.8926 -1.0306
   38MOL0     H 5094   7.675   4.239  11.726 -0.4345  0.5389 -0.0119
   38MOL0     H 5095   7.761   4.315  11.587  0.7746 -1.0423 -0.0449
   38MOL0     H 5096   7.927   4.172  11.661  1.5082 -0.8529  2.9205
   38MOL0     H 5097   7.980   4.327  11.683 -0.4329 -0.0861 -2.6847
   38MOL0     H 5098   7.853   4.275  11.932  2.1108  1.8852  0.8095
   38MOL0     H 5099   7.891   4.117  11.876 -1.5538 -0.1236 -1.2397
   38MOL0     H 5100   8.088   4.364  11.905  1.4135 -1.6628 -1.9685
   38MOL0     H 5101   8.123   4.203  11.854  0.7985  0.1528  0.0485
   38MOL0     H 5102   8.063   4.098  12.057 -0.9890  0.3395  1.9870
   38MOL0     H 5103   8.012   4.239  12.133 -2.5883 -1.3214 -2.6402
   38MOL0     H 5104   8.248   4.329  12.143  2.8950 -0.4332  0.1919
   38MOL0     H 5105   8.247   4.166  12.214  0.3294 -0.1504 -0.3541
   38MOL0     H 5106   8.336   4.226  11.933 -1.0766 -1.8027 -1.1055
   38MOL0     H 5107   8.330   4.066  12.003  2.3843 -0.3505  2.4228
   38MOL0     H 5108   8.562   4.139  12.022 -1.1012  1.0661 -1.2054
   38MOL0     H 5109   8.503   4.283  12.110 -2.8960  1.5129 -0.8514
   38MOL0     H 5110   7.742   4.522  11.504 -0.3904 -1.1897  0.8103
   38MOL0     H 5111   7.567   4.659  11.388  1.0482  0.0175  0.2253
   38MOL0     H 5112   7.205   4.789  11.351  2.6434  0.3350  0.6462
   38MOL0     H 5113   7.067   4.856  11.193  1.9211 -1.5123 -1.0257
   38MOL0     H 5114   5.547   6.200  10.795 -2.4864  2.6458  2.1794
   38MOL0     H 5115   5.305   6.210  10.747  1.1286  0.6675  0.3125
   38MOL0     H 5116   4.895   6.331  10.901  3.0100 -1.4755 -0.2362
   38MOL0     H 5117   4.658   6.347  10.905  0.4554 -0.2309 -1.4884
   38MOL0     H 5118   4.432   6.322  10.986 -0.4780  1.7073 -2.3483
   38MOL0     H 5119   4.298   6.211  10.967 -2.0429  0.7864 -1.6344
   38MOL0     H 5120   4.477   6.355  10.755 -0.2107  0.2450  0.3306
   38MOL0     H 5121   4.319   6.415  10.803 -1.0522 -0.8642 -2.0355
   38MOL0     H 5122   4.310   6.135  10.685  0.9040  0.3327 -2.2095
   38MOL0     H 5123   4.348   6.269  10.579  3.5627 -1.0572  1.3946
   38MOL0     H 5124   4.109   6.179  10.753  1.8500 -0.9658  0.3881
   38MOL0     H 5125   4.110   6.349  10.739  0.4287 -0.0262 -0.0392
   38MOL0     H 5126   4.025   6.235  10.331  1.8644  1.1040 -0.4170
   38MOL0     H 5127   4.641   5.927  10.881  2.7346 -1.5351 -1.5648
   38MOL0     H 5128   4.824   5.785  10.841  0.5635  0.0401 -2.6879
   38MOL0     H 5129   4.982   5.848  10.812  0.2015 -0.2425  2.0854
   38MOL0     H 5130   4.943   5.823  10.968 -0.5520 -0.9793 -0.1022
   39MOL0     O 5131   5.295   1.890   3.043 -0.3476  0.0054  0.7070
   39MOL0     C 5132   5.226   1.915   2.947 -0.2058 -0.1821 -0.6329
   39MOL0     O 5133   5.257   1.995   2.842 -0.2682  0.0652 -0.8164
   39MOL0     C 5134   5.390   2.027   2.825 -0.9828  0.2270  0.0091
   39MOL0     C 5135   5.429   2.026   2.691 -0.3283 -0.0989 -0.7628
   39MOL0     C 5136   5.553   2.071   2.656 -0.7888  0.4357  0.4909
   39MOL0     C 5137   5.649   2.126   2.745 -0.4646  0.5715  0.5130
   39MOL0     O 5138   5.771   2.171   2.696  0.4472  0.3337  0.0449
   39MOL0     C 5139   5.875   2.223   2.778 -0.0475  0.4048  0.4616
   39MOL0     C 5140   5.998   2.250   2.702  0.6019 -0.6538  0.2766
   39MOL0     C 5141   6.099   2.326   2.780  0.6477  0.4622 -0.1815
   39MOL0     C 5142   6.228   2.323   2.702 -0.3252 -0.8580  0.0026
   39MOL0     C 5143   6.344   2.340   2.796 -0.5324  0.7259 -0.2120
   39MOL0     C 5144   6.473   2.331   2.714  0.3172  0.2082 -1.1319
   39MOL0     C 5145   6.601   2.352   2.800  0.1519 -0.1542 -0.3231
   39MOL0     C 5146   6.725   2.323   2.716 -0.3591  0.1963 -0.1257
   39MOL0     N 5147   6.758   2.429   2.619  0.0421 -0.5410 -0.4013
   39MOL0     C 5148   6.802   2.557   2.641 -0.2654  0.0887  0.9298
   39MOL0     C 5149   6.845   2.604   2.522  0.5303  0.5566  0.2075
   39MOL0     C 5150   6.887   2.744   2.511 -0.5945 -0.0457  0.3630
   39MOL0     C 5151   6.906   2.782   2.365 -1.3758  0.0024  0.1686
   39MOL0     C 5152   7.024   2.722   2.291 -0.0957 -1.0375  0.3389
   39MOL0     C 5153   7.166   2.752   2.340  0.2364 -1.4112  0.8512
   39MOL0     O 5154   7.216   2.879   2.299 -0.3098  0.7122 -0.3814
   39MOL0     C 5155   7.337   2.918   2.347 -0.3150 -1.0054 -0.2227
   39MOL0     C 5156   7.363   3.044   2.293  0.4385  0.4050  0.3226
   39MOL0     C 5157   7.483   3.105   2.324 -0.1975  0.9210 -0.1070
   39MOL0     C 5158   7.582   3.029   2.390  1.8360 -0.2640 -0.2959
   39MOL0     C 5159   7.711   3.088   2.413  0.0903  0.2508  0.1738
   39MOL0     O 5160   7.798   3.015   2.497 -0.4004 -0.9835 -0.2575
   39MOL0     C 5161   7.920   3.070   2.499 -0.1756  0.5759 -0.0036
   39MOL0     C 5162   8.010   3.026   2.401 -0.4735  0.2989 -0.2694
   39MOL0     C 5163   8.135   3.085   2.398 -0.0007 -0.1366 -0.0713
   39MOL0     C 5164   8.179   3.183   2.492 -0.0873 -0.0519  0.3106
   39MOL0     O 5165   8.312   3.220   2.478 -0.0325  0.0429 -1.2266
   39MOL0     C 5166   8.368   3.332   2.556  0.4609  0.0007  0.8644
   39MOL0     C 5167   8.490   3.389   2.473  0.9288  0.6266  1.2167
   39MOL0     C 5168   8.463   3.419   2.319 -0.6231  0.0339  0.1009
   39MOL0     C 5169   8.585   3.493   2.260 -0.1972  0.3615  0.0681
   39MOL0     C 5170   8.651   3.610   2.355  0.1694  0.6355 -0.1592
   39MOL0     C 5171   8.741   3.704   2.286 -0.6697  0.3942  0.4836
   39MOL0     C 5172   8.875   3.638   2.258  0.4455  0.4048 -0.5891
   39MOL0     C 5173   8.968   3.742   2.191  0.0983 -0.3038 -0.4110
   39MOL0    Cl 5174   9.084   3.657   2.082 -0.0198  0.2227 -0.5540
   39MOL0     C 5175   8.088   3.218   2.590 -0.0535 -0.1147  0.3886
   39MOL0     C 5176   7.959   3.166   2.589 -0.2210  0.2488 -0.2065
   39MOL0     O 5177   7.736   3.186   2.345 -0.3645  0.4364  0.6872
   39MOL0     C 5178   7.550   2.901   2.447 -0.8950  0.2635  0.0898
   39MOL0     C 5179   7.430   2.845   2.418  1.5845 -1.2356 -0.0837
   39MOL0     N 5180   6.823   2.506   2.430 -0.4878 -0.3886  0.2956
   39MOL0     N 5181   6.770   2.398   2.486  0.9189 -0.5582 -0.3503
   39MOL0     C 5182   5.611   2.130   2.879  0.0506 -0.3868  0.1866
   39MOL0     C 5183   5.483   2.086   2.918  0.7822  0.1966  0.0318
   39MOL0     C 5184   5.082   1.880   2.953 -0.9258  0.4166  0.0347
   39MOL0     C 5185   5.003   1.890   2.836  0.8922 -0.0984 -0.5205
   39MOL0     C 5186   4.862   1.869   2.831  0.1383  0.6824  0.5978
   39MOL0     C 5187   4.793   1.826   2.949  0.3021  0.5643  0.0696
   39MOL0     O 5188   4.654   1.802   2.951  0.1643  0.2068 -0.0676
   39MOL0     C 5189   4.574   1.885   2.868  0.3149 -0.3717 -0.0081
   39MOL0     C 5190   4.428   1.892   2.935 -0.6876 -0.8195  0.8710
   39MOL0     C 5191   4.413   1.987   3.051 -0.2291 -0.0449  0.6091
   39MOL0     C 5192   4.265   1.989   3.092 -0.2352 -0.5189 -0.9509
   39MOL0     C 5193   4.171   2.034   2.991 -0.1957  0.1761  0.7891
   39MOL0     C 5194   4.109   2.058   2.898 -0.0170 -0.2033 -0.4970
   39MOL0     C 5195   4.869   1.805   3.061  0.2925  0.0385 -0.7208
   39MOL0     C 5196   5.010   1.833   3.067 -0.2583  0.4160  0.6644
   39MOL0     C 5197   5.085   1.808   3.202  0.8097 -0.9950 -0.0221
   39MOL0     H 5198   5.357   2.003   2.613 -0.4148 -1.1674 -0.3948
   39MOL0     H 5199   5.578   2.072   2.550 -3.0526  2.2363 -0.1265
   39MOL0     H 5200   5.846   2.316   2.827 -1.9227  0.1031  0.0207
   39MOL0     H 5201   5.899   2.144   2.850 -2.3460 -1.6155 -0.8165
   39MOL0     H 5202   5.975   2.305   2.609 -0.7927  0.8106  1.4278
   39MOL0     H 5203   6.034   2.153   2.666  1.1495  0.4750 -2.4990
   39MOL0     H 5204   6.107   2.287   2.882 -0.7070  0.4308 -0.0788
   39MOL0     H 5205   6.062   2.428   2.790 -5.1392 -1.2538 -0.6082
   39MOL0     H 5206   6.234   2.226   2.652  0.3879 -0.2707 -1.1037
   39MOL0     H 5207   6.241   2.406   2.631  3.8228 -0.2051  1.2822
   39MOL0     H 5208   6.338   2.438   2.843  0.5496  0.6553  0.1038
   39MOL0     H 5209   6.340   2.259   2.870 -1.1363  1.3938  0.4920
   39MOL0     H 5210   6.474   2.239   2.655  1.0955  0.3621 -1.3697
   39MOL0     H 5211   6.466   2.416   2.646  3.9590 -0.1092 -2.0806
   39MOL0     H 5212   6.593   2.283   2.885 -2.1975  1.2937  0.7316
   39MOL0     H 5213   6.602   2.456   2.834 -0.4340 -0.2170 -0.0986
   39MOL0     H 5214   6.816   2.313   2.774  1.5358 -1.4496 -3.1024
   39MOL0     H 5215   6.708   2.224   2.671  2.6654 -0.2636 -0.4871
   39MOL0     H 5216   6.803   2.622   2.728  0.7796  1.1533  0.1498
   39MOL0     H 5217   6.800   2.794   2.555  1.2464  1.2765  2.7606
   39MOL0     H 5218   6.976   2.771   2.569  0.9484 -0.3573 -1.7683
   39MOL0     H 5219   6.810   2.762   2.316 -1.0830  1.5571 -1.1471
   39MOL0     H 5220   6.909   2.891   2.355 -0.2948 -0.1273 -1.3944
   39MOL0     H 5221   7.007   2.756   2.188 -2.6994 -4.3918 -0.5245
   39MOL0     H 5222   7.020   2.613   2.282  0.1037 -0.8712 -2.8428
   39MOL0     H 5223   7.231   2.673   2.301 -0.1582 -0.5207 -1.7782
   39MOL0     H 5224   7.169   2.740   2.449 -0.5489 -1.2442  0.8941
   39MOL0     H 5225   7.291   3.091   2.227 -1.8130 -1.8312  1.0247
   39MOL0     H 5226   7.498   3.208   2.293  1.0067  0.9529  0.5434
   39MOL0     H 5227   7.969   2.953   2.333 -0.4112 -1.2019  1.2494
   39MOL0     H 5228   8.200   3.050   2.319  0.7298  3.9404 -1.5452
   39MOL0     H 5229   8.300   3.412   2.583 -0.5073 -0.5021 -0.0131
   39MOL0     H 5230   8.404   3.285   2.648 -2.9374 -0.9848  1.8342
   39MOL0     H 5231   8.519   3.482   2.522  1.1759  1.6621 -0.8213
   39MOL0     H 5232   8.574   3.323   2.499 -0.7717 -0.2526  5.3713
   39MOL0     H 5233   8.444   3.319   2.278 -0.2174 -0.6988  1.6517
   39MOL0     H 5234   8.374   3.483   2.319 -0.4118  0.3285  0.0802
   39MOL0     H 5235   8.550   3.536   2.165 -1.3280 -0.4101  0.1260
   39MOL0     H 5236   8.660   3.418   2.234  1.1007  0.2106  3.7026
   39MOL0     H 5237   8.699   3.579   2.448  0.8867 -0.0822 -0.7466
   39MOL0     H 5238   8.563   3.662   2.394  0.0654  0.4533 -0.1471
   39MOL0     H 5239   8.690   3.742   2.197 -1.4084  1.7548  1.4551
   39MOL0     H 5240   8.770   3.787   2.350  3.2527 -0.8125  0.5270
   39MOL0     H 5241   8.869   3.564   2.178 -3.1401  0.0763 -0.1903
   39MOL0     H 5242   8.927   3.600   2.347 -1.2870 -1.3626 -0.2594
   39MOL0     H 5243   8.913   3.812   2.128 -0.1739 -2.0734 -2.2114
   39MOL0     H 5244   9.026   3.795   2.268 -1.8973 -1.4734  2.0613
   39MOL0     H 5245   8.109   3.300   2.657 -2.2206 -0.3361  1.4286
   39MOL0     H 5246   7.896   3.197   2.672 -0.9394  0.1185 -0.6992
   39MOL0     H 5247   7.619   2.835   2.499 -1.1124  0.2111  0.3152
   39MOL0     H 5248   7.405   2.742   2.441 -0.2266 -0.6771  0.5751
   39MOL0     H 5249   5.682   2.172   2.949  1.3741  1.9512 -2.3506
   39MOL0     H 5250   5.457   2.099   3.023 -1.1072 -1.4931 -0.1712
   39MOL0     H 5251   5.047   1.932   2.746  1.4659  1.9976  0.6899
   39MOL0     H 5252   4.808   1.876   2.737 -1.3506 -1.0810  1.2435
   39MOL0     H 5253   4.562   1.831   2.773 -1.7892  0.5003 -0.2839
   39MOL0     H 5254   4.608   1.988   2.853 -2.2428  0.2670 -2.2352
   39MOL0     H 5255   4.394   1.794   2.970  1.3497 -1.2963  1.6472
   39MOL0     H 5256   4.353   1.927   2.863 -0.7422  2.0321  2.1771
   39MOL0     H 5257   4.430   2.087   3.011  2.9425 -0.4151  0.7008
   39MOL0     H 5258   4.485   1.963   3.130  1.2204  1.0957 -0.2955
   39MOL0     H 5259   4.230   1.893   3.132 -2.2179 -0.3216 -2.0717
   39MOL0     H 5260   4.259   2.059   3.176 -2.8659 -1.9242  0.1322
   39MOL0     H 5261   4.045   2.097   2.822 -0.1719 -0.3568 -0.4454
   39MOL0     H 5262   4.814   1.754   3.140  1.2436  0.7936  0.4653
   39MOL0     H 5263   5.020   1.758   3.274  0.5146 -2.7800 -1.4526
   39MOL0     H 5264   5.164   1.735   3.180  1.0515 -1.4375  2.0850
   39MOL0     H 5265   5.134   1.895   3.247  0.7100  0.3621 -2.3908
   40MOL0     O 5266   9.164  10.745   2.884 -0.1124 -0.9028  0.3625
   40MOL0     C 5267   9.149  10.718   2.766  0.1606 -0.5554  0.7760
   40MOL0     O 5268   9.244  10.665   2.685  0.1850 -0.8898 -0.5371
   40MOL0     C 5269   9.372  10.682   2.733 -0.9726  0.7477 -0.5251
   40MOL0     C 5270   9.464  10.572   2.741 -0.1666  0.2215 -0.2247
   40MOL0     C 5271   9.598  10.581   2.787 -0.5218  0.2782 -0.4744
   40MOL0     C 5272   9.639  10.702   2.838  0.0891 -0.5380 -1.4316
   40MOL0     O 5273   9.761  10.732   2.890 -0.3231 -0.4602 -0.0268
   40MOL0     C 5274   9.873  10.670   2.831 -0.1590  0.3261  0.2146
   40MOL0     C 5275  10.006  10.717   2.906  0.4573 -0.2477  0.5146
   40MOL0     C 5276  10.122  10.642   2.858 -0.2396  0.4759  0.1643
   40MOL0     C 5277  10.256  10.699   2.914  0.7901  1.0030 -0.1725
   40MOL0     C 5278  10.360  10.589   2.912 -0.7012 -0.9083 -0.2590
   40MOL0     C 5279  10.482  10.655   2.985  0.1269 -0.0910  0.2966
   40MOL0     C 5280  10.618  10.591   2.955 -0.3032 -0.1465  0.4933
   40MOL0     C 5281  10.673  10.501   3.063 -0.9177  0.2183 -0.8552
   40MOL0     N 5282  10.585  10.385   3.098 -0.8106 -0.6372  0.1462
   40MOL0     C 5283  10.498  10.314   3.018 -0.1579 -0.6816 -0.5903
   40MOL0     C 5284  10.432  10.234   3.099 -0.6300 -0.7323  0.1501
   40MOL0     C 5285  10.337  10.130   3.050  0.2777  0.0287 -0.0240
   40MOL0     C 5286  10.198  10.189   3.024 -0.7931  0.2476 -0.1414
   40MOL0     C 5287  10.143  10.246   3.161  0.6414 -1.1486  0.0179
   40MOL0     C 5288  10.075  10.386   3.153 -0.1297  1.0267  0.5708
   40MOL0     O 5289   9.999  10.393   3.028  0.3473 -0.2282 -0.1204
   40MOL0     C 5290   9.866  10.347   3.018  0.3305  0.4122 -0.3080
   40MOL0     C 5291   9.836  10.280   2.902 -0.4915 -0.2074  0.2609
   40MOL0     C 5292   9.703  10.234   2.867 -0.4419 -0.2038  0.3251
   40MOL0     C 5293   9.604  10.239   2.965  0.0224 -0.2825  0.3723
   40MOL0     C 5294   9.469  10.188   2.937 -0.9404 -0.5878 -0.6047
   40MOL0     O 5295   9.360  10.263   2.970 -0.1722 -0.2047  0.5676
   40MOL0     C 5296   9.230  10.222   2.930 -0.9772  0.2317 -0.0757
   40MOL0     C 5297   9.132  10.317   2.892 -0.4083 -0.4021 -0.3134
   40MOL0     C 5298   9.000  10.275   2.858  0.8774 -0.6845  0.7657
   40MOL0     C 5299   8.958  10.142   2.879 -0.6355  0.3455  0.4357
   40MOL0     O 5300   8.834  10.096   2.842  0.5081  0.4140  0.1122
   40MOL0     C 5301   8.756  10.184   2.758 -0.0126  0.1440 -0.6844
   40MOL0     C 5302   8.671  10.262   2.839  0.0467 -0.5560  0.0233
   40MOL0     C 5303   8.575  10.332   2.745 -0.1205 -0.2146 -0.6276
   40MOL0     C 5304   8.490  10.442   2.801 -0.4555  0.0608  0.5282
   40MOL0     C 5305   8.378  10.384   2.898  0.0758  0.1560  0.4665
   40MOL0     C 5306   8.265  10.481   2.944  0.0387  0.1600  0.2094
   40MOL0     C 5307   8.199  10.549   2.820 -0.5293 -0.0374  1.1343
   40MOL0     C 5308   8.060  10.620   2.840 -0.3587  0.2605 -0.0733
   40MOL0    Cl 5309   7.935  10.515   2.912  0.1608 -0.1150  0.2033
   40MOL0     C 5310   9.054  10.047   2.920  0.0358 -0.0805 -0.5427
   40MOL0     C 5311   9.188  10.082   2.948 -0.3043 -0.0027  1.1108
   40MOL0     O 5312   9.465  10.078   2.878  0.2105  0.0425 -0.2438
   40MOL0     C 5313   9.632  10.306   3.087 -0.5347  0.2310 -0.0464
   40MOL0     C 5314   9.761  10.354   3.111  0.0228 -0.1098 -0.0584
   40MOL0     N 5315  10.482  10.255   3.230  0.2301 -0.2722 -0.5599
   40MOL0     N 5316  10.576  10.353   3.232  0.2273  0.2632  1.0895
   40MOL0     C 5317   9.553  10.819   2.834  0.1282 -0.3520  0.3982
   40MOL0     C 5318   9.423  10.801   2.784 -0.7958 -0.3991  1.2686
   40MOL0     C 5319   9.016  10.705   2.706  0.4650  0.2693  0.0216
   40MOL0     C 5320   8.977  10.578   2.645 -0.7804  0.2409 -0.0111
   40MOL0     C 5321   8.856  10.554   2.596 -0.2043 -0.1209  0.0014
   40MOL0     C 5322   8.754  10.643   2.600  0.0432 -0.1942 -0.4049
   40MOL0     O 5323   8.627  10.613   2.553 -0.1369 -0.8573  0.3351
   40MOL0     C 5324   8.570  10.712   2.473  0.2016  0.8185 -0.0979
   40MOL0     C 5325   8.443  10.662   2.395 -0.4001 -0.1317 -0.0760
   40MOL0     C 5326   8.377  10.773   2.296 -0.1384  1.0105 -0.1373
   40MOL0     C 5327   8.227  10.755   2.278 -0.6132 -0.2726 -0.2523
   40MOL0     C 5328   8.148  10.805   2.396  0.6155  0.3889  0.2750
   40MOL0     C 5329   8.091  10.834   2.505 -0.5673 -0.1192 -0.4368
   40MOL0     C 5330   8.785  10.769   2.664  0.2774  0.4448  0.2243
   40MOL0     C 5331   8.912  10.795   2.726  0.3920  0.4975 -0.1823
   40MOL0     C 5332   8.926  10.918   2.819  0.0166  0.0935 -0.0243
   40MOL0     H 5333   9.430  10.480   2.693 -0.7922  1.6487 -2.6609
   40MOL0     H 5334   9.661  10.494   2.775 -0.9599 -0.1099  0.0081
   40MOL0     H 5335   9.859  10.568   2.866 -2.2973  0.8161  0.9164
   40MOL0     H 5336   9.868  10.680   2.722  0.6135 -1.3308  0.0070
   40MOL0     H 5337   9.996  10.712   3.015 -1.0967  1.7316  0.5091
   40MOL0     H 5338  10.016  10.825   2.889  0.5728 -0.4525 -0.7966
   40MOL0     H 5339  10.135  10.644   2.749  3.7689 -3.1733  0.3095
   40MOL0     H 5340  10.109  10.535   2.877  2.2371 -0.3309 -2.1102
   40MOL0     H 5341  10.284  10.778   2.843  2.2801  0.6799  0.0144
   40MOL0     H 5342  10.239  10.732   3.017 -1.4908 -0.3537 -0.0525
   40MOL0     H 5343  10.327  10.504   2.973 -4.1917  1.9209  2.1818
   40MOL0     H 5344  10.393  10.563   2.811 -0.5976  0.5261 -0.6066
   40MOL0     H 5345  10.490  10.762   2.961  0.0280  0.2266  1.6052
   40MOL0     H 5346  10.454  10.636   3.089  0.5239 -0.3319  0.3613
   40MOL0     H 5347  10.689  10.672   2.937  0.7284 -0.8549  1.2508
   40MOL0     H 5348  10.621  10.547   2.855  0.8194  2.1911 -0.5873
   40MOL0     H 5349  10.766  10.455   3.026 -0.0462  1.2097  0.0153
   40MOL0     H 5350  10.699  10.565   3.148  2.2403 -1.4355 -0.4001
   40MOL0     H 5351  10.483  10.321   2.911 -1.2553 -0.4292 -0.4386
   40MOL0     H 5352  10.363  10.088   2.953 -1.3553 -1.3091  0.0735
   40MOL0     H 5353  10.338  10.058   3.133  0.4149  1.1115  0.9463
   40MOL0     H 5354  10.216  10.266   2.949 -0.2827 -2.0210 -2.4711
   40MOL0     H 5355  10.130  10.114   2.984  0.6301 -0.1352 -1.9275
   40MOL0     H 5356  10.224  10.255   3.234  1.2224  1.9879 -0.8783
   40MOL0     H 5357  10.071  10.174   3.201 -0.6405 -0.3758 -0.8406
   40MOL0     H 5358  10.148  10.467   3.162  0.7015  0.0740  3.6240
   40MOL0     H 5359   9.999  10.396   3.232 -3.2113 -1.8196 -1.7452
   40MOL0     H 5360   9.913  10.262   2.829 -0.0025  1.6646  0.2635
   40MOL0     H 5361   9.683  10.179   2.776  1.0632 -3.3015  1.7424
   40MOL0     H 5362   9.168  10.419   2.889  1.8537 -1.1188  0.5248
   40MOL0     H 5363   8.933  10.356   2.835  1.2059 -0.2803  1.2055
   40MOL0     H 5364   8.821  10.243   2.693 -1.1040  1.1869 -0.8633
   40MOL0     H 5365   8.687  10.126   2.696 -3.4937  1.6603  1.4080
   40MOL0     H 5366   8.625  10.194   2.912 -1.1650  0.7467  0.5262
   40MOL0     H 5367   8.730  10.331   2.899 -2.6495 -0.1904  2.5186
   40MOL0     H 5368   8.633  10.378   2.664  1.5770  2.9727  2.1609
   40MOL0     H 5369   8.504  10.253   2.719  2.8350 -3.4956  0.4659
   40MOL0     H 5370   8.463  10.501   2.713  1.1368  2.5566  1.5925
   40MOL0     H 5371   8.552  10.508   2.863 -0.1947  0.6845 -0.3837
   40MOL0     H 5372   8.418  10.345   2.992  0.3330 -1.6790 -0.3575
   40MOL0     H 5373   8.332  10.298   2.849  0.7468 -0.5417  1.0389
   40MOL0     H 5374   8.191  10.434   3.010 -0.5815 -0.7923 -1.1235
   40MOL0     H 5375   8.313  10.558   3.005 -1.9990  0.3645  1.6623
   40MOL0     H 5376   8.177  10.461   2.759 -1.5046 -0.2630  1.8059
   40MOL0     H 5377   8.268  10.621   2.774 -0.2788  0.2532  1.9376
   40MOL0     H 5378   8.084  10.700   2.911  3.8564 -1.6039  0.8897
   40MOL0     H 5379   8.022  10.654   2.743  1.1356 -2.9178 -1.9336
   40MOL0     H 5380   9.038   9.940   2.918 -0.4251 -0.0165 -2.1550
   40MOL0     H 5381   9.269  10.016   2.975  0.3087  0.0243 -0.5415
   40MOL0     H 5382   9.552  10.315   3.159 -0.3775  0.8466  0.0487
   40MOL0     H 5383   9.786  10.414   3.199  0.7815  0.9662 -0.9749
   40MOL0     H 5384   9.577  10.910   2.888 -1.0947  0.3447 -0.1829
   40MOL0     H 5385   9.357  10.888   2.779 -2.5043 -1.6489  0.9056
   40MOL0     H 5386   9.048  10.495   2.643 -0.5894  0.4109 -0.9736
   40MOL0     H 5387   8.826  10.467   2.538  0.6481  1.1273 -2.4748
   40MOL0     H 5388   8.636  10.759   2.400  2.4115  1.8515  2.4201
   40MOL0     H 5389   8.538  10.799   2.532 -0.5230  0.4230  0.1016
   40MOL0     H 5390   8.376  10.628   2.475  3.2019 -0.1053  3.2354
   40MOL0     H 5391   8.463  10.576   2.331  0.4154 -1.0896  1.4019
   40MOL0     H 5392   8.416  10.752   2.196  0.0998 -2.0111  0.4974
   40MOL0     H 5393   8.382  10.874   2.340 -2.8717  1.6161 -1.0677
   40MOL0     H 5394   8.187  10.805   2.189 -0.9762 -0.7006 -0.3321
   40MOL0     H 5395   8.212  10.648   2.262  0.4844 -0.1688 -2.3731
   40MOL0     H 5396   8.047  10.858   2.599  3.9617  1.8312  1.4795
   40MOL0     H 5397   8.702  10.837   2.677 -0.7115 -1.0892  2.6347
   40MOL0     H 5398   8.832  10.971   2.840  0.4685  0.6058  0.7503
   40MOL0     H 5399   8.963  10.898   2.920 -1.6546 -1.6405  0.3135
   40MOL0     H 5400   8.999  10.992   2.786  1.8664 -1.0212  1.3704
   41MOL0     O 5401   5.436   1.562   0.569  0.1346  1.0003 -0.8270
   41MOL0     C 5402   5.372   1.505   0.482  0.1544 -1.1884  0.5072
   41MOL0     O 5403   5.429   1.419   0.392 -0.1832  0.2396 -0.0144
   41MOL0     C 5404   5.551   1.359   0.431  0.2455  0.3156  0.2916
   41MOL0     C 5405   5.665   1.388   0.350  0.3113 -0.4049 -0.4023
   41MOL0     C 5406   5.791   1.342   0.388 -0.3173 -0.1877 -0.2057
   41MOL0     C 5407   5.809   1.263   0.506  0.5264 -0.0259  0.2000
   41MOL0     O 5408   5.930   1.210   0.544 -0.2013 -0.5523  0.6770
   41MOL0     C 5409   5.984   1.301   0.641 -0.0650  0.0798 -0.5324
   41MOL0     C 5410   6.125   1.283   0.630 -0.9294  0.6358  0.5314
   41MOL0     C 5411   6.182   1.344   0.498 -0.0324 -0.3452  0.2305
   41MOL0     C 5412   6.332   1.296   0.482 -0.1896  0.1082  1.2763
   41MOL0     C 5413   6.399   1.365   0.359 -0.3210  0.0936  0.1924
   41MOL0     C 5414   6.554   1.334   0.357  0.6309 -0.6320 -0.4031
   41MOL0     C 5415   6.627   1.390   0.238 -0.0922  0.5300  0.0574
   41MOL0     C 5416   6.736   1.298   0.187 -0.4030 -0.2414  0.5933
   41MOL0     N 5417   6.837   1.270   0.280  0.0242  0.2140  0.9613
   41MOL0     C 5418   6.959   1.317   0.263 -0.1491  0.6318  0.3670
   41MOL0     C 5419   7.023   1.296   0.382  0.5909 -0.1000  0.4692
   41MOL0     C 5420   7.168   1.318   0.417  0.2410  0.5230 -0.1070
   41MOL0     C 5421   7.202   1.465   0.406 -0.3439  0.2040  0.5020
   41MOL0     C 5422   7.351   1.491   0.431 -0.1280 -0.0708 -0.5478
   41MOL0     C 5423   7.401   1.634   0.388 -0.6800 -0.3756 -0.0986
   41MOL0     O 5424   7.431   1.717   0.506  0.3654 -0.0438  0.0072
   41MOL0     C 5425   7.563   1.719   0.550  0.1375 -0.7387 -0.1316
   41MOL0     C 5426   7.615   1.609   0.617  0.7060  0.4596  0.0683
   41MOL0     C 5427   7.754   1.609   0.644  0.9850 -0.1408  0.2714
   41MOL0     C 5428   7.839   1.720   0.608 -0.0142 -0.4011 -0.7989
   41MOL0     C 5429   7.980   1.712   0.644 -0.4172  0.8535  0.6531
   41MOL0     O 5430   8.033   1.600   0.709  0.6822  0.2825  0.5371
   41MOL0     C 5431   8.162   1.570   0.742  0.0915 -0.3535  0.1299
   41MOL0     C 5432   8.172   1.489   0.852 -0.6178 -0.1739  0.8824
   41MOL0     C 5433   8.304   1.447   0.888  0.1774  0.2218 -0.1970
   41MOL0     C 5434   8.422   1.497   0.838  0.2249 -0.0909  0.0538
   41MOL0     O 5435   8.542   1.443   0.883  0.9525 -0.5261 -0.1987
   41MOL0     C 5436   8.652   1.440   0.793 -1.0148  0.5207  0.1656
   41MOL0     C 5437   8.759   1.552   0.836 -1.0984  0.1624  0.2382
   41MOL0     C 5438   8.888   1.533   0.743 -0.0030  0.2673 -0.2308
   41MOL0     C 5439   9.007   1.578   0.822  0.8693 -0.0184 -0.1619
   41MOL0     C 5440   9.011   1.734   0.854  0.4881 -0.8250 -0.4027
   41MOL0     C 5441   8.999   1.829   0.722 -0.3927 -0.1059  0.4244
   41MOL0     C 5442   9.110   1.797   0.623 -0.4350  0.7839  0.0845
   41MOL0     C 5443   9.120   1.913   0.526 -0.0818 -0.2465 -0.2304
   41MOL0    Cl 5444   9.208   2.049   0.617 -0.3053  0.2823  0.2326
   41MOL0     C 5445   8.397   1.583   0.730 -0.7352 -0.0546  0.2862
   41MOL0     C 5446   8.278   1.614   0.673  0.9464 -0.2594 -0.3021
   41MOL0     O 5447   8.038   1.815   0.620 -0.0715  0.4512 -0.8883
   41MOL0     C 5448   7.784   1.819   0.531  0.6720  0.2547  0.3507
   41MOL0     C 5449   7.645   1.825   0.503 -0.4381  0.6814 -0.5201
   41MOL0     N 5450   6.933   1.243   0.467 -0.2286  0.7148 -0.1781
   41MOL0     N 5451   6.818   1.223   0.408  0.5429  0.1056 -0.4622
   41MOL0     C 5452   5.692   1.232   0.583 -0.0500  0.3224 -0.1072
   41MOL0     C 5453   5.564   1.281   0.544 -0.1902  0.2150  0.2358
   41MOL0     C 5454   5.238   1.539   0.452  0.3038  0.0451  0.1888
   41MOL0     C 5455   5.196   1.511   0.315  0.1626 -0.0545  0.5030
   41MOL0     C 5456   5.063   1.551   0.275  1.1024  0.0742 -0.5372
   41MOL0     C 5457   4.961   1.590   0.365  0.6884  0.2440  0.8929
   41MOL0     O 5458   4.832   1.632   0.322 -0.1082 -0.3074 -0.0030
   41MOL0     C 5459   4.744   1.696   0.415  0.5526 -1.1559 -0.0421
   41MOL0     C 5460   4.602   1.701   0.351  0.3308  0.4663 -0.0209
   41MOL0     C 5461   4.605   1.787   0.221  0.0424 -0.0543  0.0873
   41MOL0     C 5462   4.522   1.723   0.118  0.4271  0.2056 -0.2585
   41MOL0     C 5463   4.382   1.715   0.152  0.7017 -0.0078  0.5140
   41MOL0     C 5464   4.264   1.709   0.196 -0.6335 -0.1165  0.2915
   41MOL0     C 5465   5.000   1.594   0.502  0.5666 -0.8128  0.7389
   41MOL0     C 5466   5.137   1.575   0.543  0.7351 -0.4201 -0.0591
   41MOL0     C 5467   5.174   1.590   0.687  0.5456  0.4414 -0.5386
   41MOL0     H 5468   5.658   1.444   0.257  0.8539 -1.4469 -1.0870
   41MOL0     H 5469   5.876   1.369   0.326 -2.3437  0.6006 -2.8343
   41MOL0     H 5470   5.952   1.404   0.627  0.5581  0.6857  2.0133
   41MOL0     H 5471   5.946   1.293   0.743  0.0370  1.8993 -0.3353
   41MOL0     H 5472   6.142   1.177   0.651  1.6183  0.3399 -2.3316
   41MOL0     H 5473   6.173   1.345   0.706 -2.3702  2.0961  0.2953
   41MOL0     H 5474   6.173   1.453   0.498 -1.8773 -0.4675 -0.7213
   41MOL0     H 5475   6.123   1.309   0.413  0.5715  1.3030 -0.9179
   41MOL0     H 5476   6.396   1.305   0.571  0.6039  1.1561  0.6234
   41MOL0     H 5477   6.342   1.187   0.475  3.6820  0.4229 -1.4440
   41MOL0     H 5478   6.352   1.345   0.262 -2.4983  0.2334  1.1598
   41MOL0     H 5479   6.396   1.474   0.367  1.6124  0.2646 -0.7644
   41MOL0     H 5480   6.600   1.354   0.454  2.3534 -1.8015 -0.9471
   41MOL0     H 5481   6.551   1.225   0.347 -1.7748 -0.5701 -0.9905
   41MOL0     H 5482   6.656   1.494   0.256 -1.5163  0.9806 -0.0988
   41MOL0     H 5483   6.555   1.403   0.156  0.0736  0.9501 -0.0264
   41MOL0     H 5484   6.691   1.201   0.161 -0.0407 -0.1598 -0.3709
   41MOL0     H 5485   6.766   1.353   0.097 -3.1625  1.1622  0.4544
   41MOL0     H 5486   6.991   1.375   0.176 -0.3880  0.0702 -0.1036
   41MOL0     H 5487   7.187   1.273   0.515 -0.6515  2.1859  0.8768
   41MOL0     H 5488   7.233   1.260   0.350 -0.9849 -0.3408 -0.5769
   41MOL0     H 5489   7.183   1.496   0.303 -0.0467 -2.8255 -0.5527
   41MOL0     H 5490   7.133   1.524   0.468  0.3746  1.7376 -0.1008
   41MOL0     H 5491   7.404   1.418   0.369 -0.0508  0.5397 -1.2188
   41MOL0     H 5492   7.366   1.470   0.537  1.9516 -0.5018 -0.8765
   41MOL0     H 5493   7.327   1.687   0.328 -1.3531 -0.9567  0.2046
   41MOL0     H 5494   7.502   1.622   0.347 -0.0598 -0.7888  1.4621
   41MOL0     H 5495   7.549   1.527   0.645 -1.0751  1.5996 -0.6240
   41MOL0     H 5496   7.801   1.523   0.691  0.7376 -0.8427 -0.7236
   41MOL0     H 5497   8.076   1.459   0.892 -2.3430 -0.1183 -2.7979
   41MOL0     H 5498   8.313   1.382   0.974 -3.7097 -0.7966 -0.3755
   41MOL0     H 5499   8.692   1.339   0.788  0.8138  1.2260 -3.4475
   41MOL0     H 5500   8.630   1.462   0.688  0.5469 -1.7647 -0.7233
   41MOL0     H 5501   8.715   1.652   0.825  1.1453  1.2697  0.7587
   41MOL0     H 5502   8.784   1.534   0.940 -0.3471 -3.2405 -0.4078
   41MOL0     H 5503   8.900   1.427   0.719  1.8419  0.2449  0.6085
   41MOL0     H 5504   8.869   1.595   0.655 -1.4669  0.4946  0.2272
   41MOL0     H 5505   9.097   1.540   0.773 -0.4771 -1.1670 -1.8676
   41MOL0     H 5506   8.999   1.522   0.916 -1.2536 -0.8343 -0.7530
   41MOL0     H 5507   9.097   1.763   0.916  1.7367 -1.3604 -1.8178
   41MOL0     H 5508   8.918   1.760   0.906 -1.4718 -1.4249 -3.3619
   41MOL0     H 5509   8.896   1.822   0.685 -1.0747 -0.3005  2.2226
   41MOL0     H 5510   9.013   1.935   0.744  0.7409 -0.2601  0.4875
   41MOL0     H 5511   9.080   1.705   0.572 -3.3388  0.1595  2.5743
   41MOL0     H 5512   9.197   1.791   0.689 -1.9203 -1.0085  2.0509
   41MOL0     H 5513   9.175   1.886   0.435 -0.0453  0.0298 -0.2913
   41MOL0     H 5514   9.019   1.942   0.495 -0.9219 -2.1196  0.5664
   41MOL0     H 5515   8.491   1.624   0.693  0.3804 -2.7535 -0.1596
   41MOL0     H 5516   8.271   1.678   0.585  2.7000 -0.8520 -0.9226
   41MOL0     H 5517   7.849   1.896   0.492  1.9266 -0.2691  1.3030
   41MOL0     H 5518   7.605   1.899   0.433 -1.7446 -0.5239 -1.0888
   41MOL0     H 5519   5.693   1.179   0.678  1.5103 -2.7805 -1.7412
   41MOL0     H 5520   5.477   1.266   0.608 -1.1330 -0.7560 -1.2206
   41MOL0     H 5521   5.244   1.461   0.231 -3.2011 -2.6765 -0.0749
   41MOL0     H 5522   5.047   1.552   0.168 -1.3595 -0.3399 -0.2431
   41MOL0     H 5523   4.779   1.790   0.458 -1.1232 -1.0174  1.1051
   41MOL0     H 5524   4.730   1.625   0.497 -2.7659 -1.3786 -0.6584
   41MOL0     H 5525   4.535   1.740   0.428  0.5958  0.6615  0.1148
   41MOL0     H 5526   4.570   1.600   0.325  1.5492  0.4409 -1.5740
   41MOL0     H 5527   4.707   1.789   0.183  0.1887  2.6992  0.4415
   41MOL0     H 5528   4.570   1.885   0.257  2.3616 -0.1178  2.8372
   41MOL0     H 5529   4.520   1.776   0.022  0.0380 -1.4310 -1.1954
   41MOL0     H 5530   4.578   1.630   0.108  3.1389  1.9959 -4.2613
   41MOL0     H 5531   4.162   1.696   0.225 -0.1270 -2.3988  1.2684
   41MOL0     H 5532   4.929   1.629   0.576 -1.1141 -2.8873  0.1935
   41MOL0     H 5533   5.098   1.625   0.758  0.1953 -2.2317  0.5063
   41MOL0     H 5534   5.217   1.500   0.730  1.4872  1.3576  0.5188
   41MOL0     H 5535   5.248   1.669   0.706 -1.4199  1.9372  1.5251
   42MOL0     O 5536  10.354   7.990   1.188 -0.4923 -0.8099  0.8909
   42MOL0     C 5537  10.282   7.895   1.214 -1.1441 -0.3455  0.1111
   42MOL0     O 5538  10.336   7.767   1.247  0.6019  0.3562  0.3551
   42MOL0     C 5539  10.473   7.758   1.269  0.8980  0.7440 -0.1825
   42MOL0     C 5540  10.516   7.706   1.389  0.6262 -0.8567  0.1856
   42MOL0     C 5541  10.653   7.695   1.410  0.4647  0.1941 -0.6276
   42MOL0     C 5542  10.749   7.703   1.308  0.2768 -0.1249  0.2557
   42MOL0     O 5543  10.885   7.699   1.327 -0.8937  0.6164 -0.3412
   42MOL0     C 5544  10.945   7.594   1.403  0.1409  0.3963  0.6440
   42MOL0     C 5545  11.091   7.638   1.448 -0.2246  0.1859 -0.4401
   42MOL0     C 5546  11.099   7.721   1.575  1.1216 -1.6080  0.0673
   42MOL0     C 5547  11.244   7.758   1.618 -0.7922  0.1664  0.8528
   42MOL0     C 5548  11.257   7.840   1.751  0.0636  0.5381  0.4958
   42MOL0     C 5549  11.184   7.977   1.732  0.1601  0.0779 -0.2002
   42MOL0     C 5550  11.210   8.075   1.849 -0.2220  0.1576 -0.3687
   42MOL0     C 5551  11.103   8.192   1.846 -0.3388  0.0999  0.1472
   42MOL0     N 5552  10.968   8.154   1.881  0.1729 -0.1833  0.7259
   42MOL0     C 5553  10.941   8.102   2.006 -0.1320 -0.1316 -0.5536
   42MOL0     C 5554  10.844   8.014   1.992 -0.0179 -0.3722 -1.1296
   42MOL0     C 5555  10.777   7.925   2.086  0.0750  0.2710 -1.2116
   42MOL0     C 5556  10.624   7.946   2.097 -0.3014  0.0968 -0.4659
   42MOL0     C 5557  10.584   8.079   2.168  0.4417 -0.3315 -0.0003
   42MOL0     C 5558  10.631   8.083   2.313 -0.1636  0.6620 -0.2696
   42MOL0     O 5559  10.521   8.033   2.401 -0.0409 -0.3336  0.9927
   42MOL0     C 5560  10.407   8.105   2.442  0.1471 -0.3863 -0.5335
   42MOL0     C 5561  10.423   8.240   2.467  0.6349  0.1454 -0.6422
   42MOL0     C 5562  10.312   8.329   2.485 -0.0644 -0.7565  0.3576
   42MOL0     C 5563  10.182   8.273   2.490 -0.4035 -0.2739  1.0882
   42MOL0     C 5564  10.060   8.358   2.502  0.8648 -0.2537 -0.1116
   42MOL0     O 5565   9.939   8.289   2.500 -0.2328  0.9009  0.4454
   42MOL0     C 5566   9.817   8.337   2.474 -0.5025  0.1406 -0.6417
   42MOL0     C 5567   9.778   8.469   2.437 -0.0791 -0.1933 -1.2212
   42MOL0     C 5568   9.645   8.502   2.408  0.2935 -0.1719  0.2120
   42MOL0     C 5569   9.538   8.405   2.427 -1.0591  0.4673  0.1619
   42MOL0     O 5570   9.407   8.432   2.423  0.4597 -0.7731 -0.3741
   42MOL0     C 5571   9.361   8.573   2.405  0.1657  0.7646 -0.1292
   42MOL0     C 5572   9.209   8.579   2.401  0.5519  0.3252 -0.2123
   42MOL0     C 5573   9.157   8.722   2.392  0.1335 -0.7862 -0.4358
   42MOL0     C 5574   9.015   8.735   2.365  0.1582  0.0524  0.6635
   42MOL0     C 5575   8.966   8.883   2.374  0.1037  0.8286  0.7212
   42MOL0     C 5576   8.818   8.905   2.393 -0.0667  0.1721  0.2226
   42MOL0     C 5577   8.725   8.845   2.289  0.7219 -0.0151 -0.1074
   42MOL0     C 5578   8.576   8.887   2.301 -0.4245 -0.5147  0.3718
   42MOL0    Cl 5579   8.495   8.820   2.449  0.2044  0.5313  0.0666
   42MOL0     C 5580   9.580   8.274   2.468 -0.2957 -0.0645  0.2158
   42MOL0     C 5581   9.720   8.239   2.481  0.1716  0.1216  0.0363
   42MOL0     O 5582  10.066   8.480   2.499 -0.1596 -0.0558  0.3455
   42MOL0     C 5583  10.170   8.133   2.488  0.1538 -0.8314 -0.7519
   42MOL0     C 5584  10.277   8.047   2.455 -0.3156  0.3399  0.3775
   42MOL0     N 5585  10.785   8.032   1.868  0.0820 -0.4005  0.6515
   42MOL0     N 5586  10.868   8.107   1.800 -1.0482  0.1390 -0.3345
   42MOL0     C 5587  10.703   7.743   1.183  0.2543 -0.1343  0.2416
   42MOL0     C 5588  10.567   7.774   1.163 -0.4147 -0.8200 -1.0544
   42MOL0     C 5589  10.136   7.909   1.208  0.0878  0.5252 -0.0709
   42MOL0     C 5590  10.057   7.798   1.172  0.6140  0.7791 -0.0333
   42MOL0     C 5591   9.916   7.793   1.168 -0.5346 -0.0476 -0.3916
   42MOL0     C 5592   9.845   7.918   1.192  0.2328  0.1551 -0.0257
   42MOL0     O 5593   9.713   7.920   1.189  0.4684 -0.4435 -0.0324
   42MOL0     C 5594   9.648   7.875   1.071  0.4154 -0.6879 -0.5037
   42MOL0     C 5595   9.507   7.941   1.045 -1.2881 -0.0159 -0.2471
   42MOL0     C 5596   9.439   7.891   0.920  0.1500  0.2823 -0.7246
   42MOL0     C 5597   9.292   7.926   0.909 -0.1187  0.6069 -0.1887
   42MOL0     C 5598   9.218   7.843   1.007 -0.1752  0.4666  0.1602
   42MOL0     C 5599   9.150   7.772   1.080 -0.2224  0.5696  0.2257
   42MOL0     C 5600   9.914   8.024   1.242 -0.7566 -0.1098  0.1711
   42MOL0     C 5601  10.060   8.022   1.241  0.2761 -0.2470 -0.3677
   42MOL0     C 5602  10.115   8.142   1.317 -1.2563 -0.5957 -0.2209
   42MOL0     H 5603  10.440   7.687   1.463  0.2561  1.9970  0.6477
   42MOL0     H 5604  10.682   7.686   1.515 -2.0951 -1.2277  0.0552
   42MOL0     H 5605  10.876   7.575   1.486 -1.6281 -3.5001 -1.4443
   42MOL0     H 5606  10.957   7.503   1.344 -3.6133  0.9048 -1.2666
   42MOL0     H 5607  11.135   7.694   1.365  0.2839  2.3877  1.2239
   42MOL0     H 5608  11.157   7.551   1.458 -1.6339 -1.0959 -1.6656
   42MOL0     H 5609  11.054   7.667   1.658  0.3387 -1.3445 -0.1717
   42MOL0     H 5610  11.036   7.811   1.571  0.9424 -1.7210  0.3597
   42MOL0     H 5611  11.291   7.660   1.635 -0.8727 -0.4560 -1.9683
   42MOL0     H 5612  11.298   7.807   1.537  1.2424 -1.3601  1.1764
   42MOL0     H 5613  11.221   7.789   1.841 -1.6239  0.3710 -0.2298
   42MOL0     H 5614  11.361   7.869   1.766 -0.6168  3.4857  0.0004
   42MOL0     H 5615  11.216   8.022   1.638  4.7170 -1.5932  0.2896
   42MOL0     H 5616  11.076   7.964   1.729 -0.1650  2.1983  0.8306
   42MOL0     H 5617  11.313   8.110   1.848 -0.5652  1.2303  0.2637
   42MOL0     H 5618  11.209   8.024   1.946 -0.6778  0.5979 -0.1375
   42MOL0     H 5619  11.133   8.280   1.905  3.4097  0.4660 -1.9986
   42MOL0     H 5620  11.102   8.224   1.742 -0.2487 -0.4396 -0.0209
   42MOL0     H 5621  10.989   8.103   2.104 -2.0666 -0.2703  0.4464
   42MOL0     H 5622  10.793   7.824   2.048 -2.1664 -1.8788  2.7965
   42MOL0     H 5623  10.830   7.928   2.182 -0.9970  1.0128 -0.6161
   42MOL0     H 5624  10.572   7.956   2.001  1.4073  1.9901 -1.2704
   42MOL0     H 5625  10.586   7.861   2.155  4.2196 -0.4025  2.2555
   42MOL0     H 5626  10.474   8.081   2.163  0.4399  0.0279  0.1489
   42MOL0     H 5627  10.628   8.160   2.110  2.0459 -1.7913 -0.9127
   42MOL0     H 5628  10.651   8.188   2.336 -0.1490  0.9592 -1.5601
   42MOL0     H 5629  10.724   8.027   2.332 -0.8109 -0.9924 -1.6941
   42MOL0     H 5630  10.513   8.299   2.455  0.8838 -0.2624 -0.7929
   42MOL0     H 5631  10.333   8.435   2.479  3.0948 -0.9660  3.6096
   42MOL0     H 5632   9.844   8.554   2.451 -0.4546 -0.0378 -0.3670
   42MOL0     H 5633   9.619   8.607   2.402 -2.8427 -0.8992 -0.6291
   42MOL0     H 5634   9.390   8.638   2.488 -0.8230  0.4989  0.4442
   42MOL0     H 5635   9.399   8.610   2.310 -0.5754 -1.0560 -1.1863
   42MOL0     H 5636   9.168   8.526   2.315 -0.7342 -1.0346  1.1516
   42MOL0     H 5637   9.176   8.529   2.493  1.9296  0.3234  0.3174
   42MOL0     H 5638   9.185   8.782   2.479  1.5927  2.2256 -2.8046
   42MOL0     H 5639   9.217   8.770   2.314 -0.0882 -0.3640 -0.3516
   42MOL0     H 5640   8.965   8.677   2.442  2.2787  0.3479  2.3590
   42MOL0     H 5641   8.980   8.699   2.268  0.5563  0.5694  0.3187
   42MOL0     H 5642   8.998   8.933   2.282  1.5377 -0.0262  0.7434
   42MOL0     H 5643   9.021   8.935   2.453  0.8566 -0.9625  1.4114
   42MOL0     H 5644   8.784   8.861   2.487  0.5551 -0.8094 -0.0024
   42MOL0     H 5645   8.806   9.014   2.402 -0.2522  0.1444  0.3364
   42MOL0     H 5646   8.721   8.737   2.304 -1.4028  0.0210 -0.1623
   42MOL0     H 5647   8.765   8.871   2.191  0.1756  0.6394 -0.1675
   42MOL0     H 5648   8.575   8.996   2.291 -0.1309 -0.7008 -3.1159
   42MOL0     H 5649   8.520   8.850   2.214  2.4281 -2.1839 -0.9166
   42MOL0     H 5650   9.511   8.198   2.504  0.3926 -0.5580  0.5228
   42MOL0     H 5651   9.738   8.138   2.517  2.4289  0.6426  0.5529
   42MOL0     H 5652  10.071   8.093   2.507  0.2692 -0.4932  0.6422
   42MOL0     H 5653  10.251   7.945   2.428 -1.8152  0.8942 -0.3586
   42MOL0     H 5654  10.780   7.756   1.108  2.1751 -0.2135  2.1141
   42MOL0     H 5655  10.538   7.826   1.072 -1.9564  0.6539  0.2184
   42MOL0     H 5656  10.110   7.706   1.149 -2.2327 -0.6638 -1.3405
   42MOL0     H 5657   9.857   7.707   1.137 -0.6133  0.0998 -0.6506
   42MOL0     H 5658   9.622   7.770   1.086 -0.3075 -0.3815  0.4989
   42MOL0     H 5659   9.712   7.892   0.984  1.3910 -1.9908 -0.0733
   42MOL0     H 5660   9.525   8.048   1.030  1.5694 -0.3015  0.6016
   42MOL0     H 5661   9.442   7.930   1.132 -2.7039 -2.6807 -1.5090
   42MOL0     H 5662   9.450   7.783   0.911 -1.7589 -0.2401  1.9582
   42MOL0     H 5663   9.487   7.928   0.829  0.8168 -0.1781 -0.5627
   42MOL0     H 5664   9.277   8.032   0.935 -1.7069  0.3048  0.1873
   42MOL0     H 5665   9.246   7.913   0.811  0.1687  0.4434 -0.3041
   42MOL0     H 5666   9.072   7.723   1.134  1.3653 -1.5852  0.6835
   42MOL0     H 5667   9.874   8.116   1.284 -0.6178  0.8875 -1.7789
   42MOL0     H 5668  10.126   8.220   1.242 -2.3730 -1.0846 -0.9079
   42MOL0     H 5669  10.044   8.182   1.390 -1.2535 -0.3324 -0.3629
   42MOL0     H 5670  10.215   8.122   1.358 -1.2807 -1.6725 -0.6366
   43MOL0     O 5671   6.756   8.687   1.302  0.0527  0.7874 -0.2740
   43MOL0     C 5672   6.735   8.795   1.250  0.2567  0.5903  0.6141
   43MOL0     O 5673   6.826   8.834   1.150 -0.7987 -0.1390 -0.1749
   43MOL0     C 5674   6.954   8.780   1.155 -0.2175 -0.7760  0.8675
   43MOL0     C 5675   7.053   8.841   1.230 -1.0964 -1.1975  0.5162
   43MOL0     C 5676   7.186   8.785   1.231 -0.3766  0.0190 -0.4320
   43MOL0     C 5677   7.213   8.676   1.154 -0.2770  0.1282  1.1345
   43MOL0     O 5678   7.346   8.636   1.144 -0.4990  0.1111 -1.0451
   43MOL0     C 5679   7.386   8.510   1.094  1.1559  0.3557  0.0884
   43MOL0     C 5680   7.540   8.492   1.115  0.3730  0.2017  0.3569
   43MOL0     C 5681   7.626   8.596   1.037  0.0090  0.0304 -0.2010
   43MOL0     C 5682   7.778   8.555   1.057  0.1843 -0.2249 -0.2275
   43MOL0     C 5683   7.864   8.658   0.982  0.5154 -0.3866  0.6192
   43MOL0     C 5684   8.010   8.626   0.952 -0.2584 -0.2709  0.4669
   43MOL0     C 5685   8.097   8.610   1.078 -0.4982  0.5034 -0.3881
   43MOL0     C 5686   8.235   8.580   1.032 -0.2309  0.2062 -0.2938
   43MOL0     N 5687   8.314   8.537   1.152  0.0898  0.4173  0.7770
   43MOL0     C 5688   8.398   8.625   1.215 -1.0819  0.5566 -0.0932
   43MOL0     C 5689   8.423   8.564   1.335  0.8871 -0.6126  1.5419
   43MOL0     C 5690   8.491   8.627   1.449  0.1340  0.3887 -0.7188
   43MOL0     C 5691   8.636   8.661   1.414 -0.3017  0.3557 -0.3174
   43MOL0     C 5692   8.715   8.539   1.371 -0.9299  0.1012 -0.0601
   43MOL0     C 5693   8.849   8.583   1.326  0.1985  0.0605  0.4349
   43MOL0     O 5694   8.917   8.668   1.422 -0.0426  0.4637  0.4001
   43MOL0     C 5695   9.056   8.678   1.420  0.7640 -0.3364  0.6057
   43MOL0     C 5696   9.109   8.763   1.523 -0.1180 -0.5547 -0.2573
   43MOL0     C 5697   9.253   8.763   1.552 -0.4125 -0.5972 -0.3239
   43MOL0     C 5698   9.337   8.691   1.462  0.1488  0.3615 -0.0259
   43MOL0     C 5699   9.484   8.693   1.487  0.3553 -0.6644 -0.3988
   43MOL0     O 5700   9.527   8.769   1.592  0.2770 -0.0356  0.2952
   43MOL0     C 5701   9.654   8.763   1.639 -0.6135 -0.4673 -0.6063
   43MOL0     C 5702   9.681   8.876   1.716  0.0883 -0.2588 -0.7066
   43MOL0     C 5703   9.809   8.901   1.765  0.7296 -0.2632 -0.1227
   43MOL0     C 5704   9.915   8.807   1.737 -0.2412 -0.0736  0.3802
   43MOL0     O 5705  10.047   8.819   1.782  1.1345 -0.6353 -0.1658
   43MOL0     C 5706  10.070   8.915   1.888  0.6411 -0.1408 -0.1547
   43MOL0     C 5707  10.193   8.897   1.977 -0.5313  0.8833  0.2550
   43MOL0     C 5708  10.197   9.015   2.079 -0.9545  1.0374 -0.5061
   43MOL0     C 5709  10.334   9.010   2.154  0.0739  0.0098 -0.0057
   43MOL0     C 5710  10.348   9.147   2.225 -0.1405 -0.2502  0.1665
   43MOL0     C 5711  10.482   9.147   2.306  0.0749 -1.1575  0.3490
   43MOL0     C 5712  10.472   9.252   2.419 -0.0567  1.1926  0.8755
   43MOL0     C 5713  10.609   9.256   2.486  0.3170 -0.5014 -0.2280
   43MOL0    Cl 5714  10.604   9.350   2.636 -0.2210 -0.5582  0.1770
   43MOL0     C 5715   9.886   8.688   1.664  0.0610  0.2540 -0.2672
   43MOL0     C 5716   9.755   8.662   1.618  0.6342 -0.2104  0.2462
   43MOL0     O 5717   9.555   8.626   1.415  0.3606 -0.3900 -0.6183
   43MOL0     C 5718   9.278   8.612   1.357 -0.8092 -0.2299  0.6472
   43MOL0     C 5719   9.141   8.595   1.346 -0.8118  0.3049 -0.1403
   43MOL0     N 5720   8.360   8.436   1.330 -0.1615 -0.1215 -0.3607
   43MOL0     N 5721   8.293   8.422   1.222 -0.0398  0.2886  0.8314
   43MOL0     C 5722   7.116   8.627   1.065  0.4101 -0.4471 -0.2540
   43MOL0     C 5723   6.988   8.675   1.072 -0.0377 -0.2554 -0.2362
   43MOL0     C 5724   6.641   8.894   1.297 -0.0989  0.7052  0.5726
   43MOL0     C 5725   6.645   9.030   1.256  0.5919  0.1201 -0.0177
   43MOL0     C 5726   6.566   9.133   1.313  0.3974  0.5109 -0.0319
   43MOL0     C 5727   6.463   9.099   1.402 -0.2200  0.3554 -0.9416
   43MOL0     O 5728   6.368   9.192   1.431  0.1666  0.2475 -0.1900
   43MOL0     C 5729   6.362   9.224   1.571 -0.7451  0.6991  0.0393
   43MOL0     C 5730   6.377   9.372   1.595 -0.1499  0.1387 -0.6632
   43MOL0     C 5731   6.518   9.423   1.554  0.3243  0.9623  0.0294
   43MOL0     C 5732   6.559   9.535   1.663 -0.1923 -0.1832  0.3194
   43MOL0     C 5733   6.668   9.613   1.604 -0.0211 -0.1024 -0.2131
   43MOL0     C 5734   6.759   9.669   1.541  0.6450  0.2068 -0.2970
   43MOL0     C 5735   6.441   8.971   1.426  0.4131  0.2837 -0.5615
   43MOL0     C 5736   6.525   8.861   1.377 -0.4313 -1.0554 -0.5367
   43MOL0     C 5737   6.486   8.727   1.429 -0.7356  0.1389  0.0722
   43MOL0     H 5738   7.035   8.939   1.274 -0.5098  0.0945 -1.9151
   43MOL0     H 5739   7.270   8.836   1.278 -0.9309  0.0336  0.5780
   43MOL0     H 5740   7.337   8.428   1.147  2.5123 -0.3139  0.3690
   43MOL0     H 5741   7.359   8.505   0.988  1.2488  4.0538 -0.2196
   43MOL0     H 5742   7.564   8.393   1.076  0.7799  0.6787 -0.6306
   43MOL0     H 5743   7.569   8.503   1.220 -0.6383  0.3380  0.6254
   43MOL0     H 5744   7.621   8.698   1.075 -0.7519 -0.8184  2.1448
   43MOL0     H 5745   7.600   8.580   0.931  1.4402 -2.9183 -0.1960
   43MOL0     H 5746   7.818   8.550   1.158  0.7549 -0.2446 -0.4505
   43MOL0     H 5747   7.786   8.455   1.013 -0.7188 -0.3061 -0.2401
   43MOL0     H 5748   7.815   8.672   0.885 -0.1452 -0.7184  0.9017
   43MOL0     H 5749   7.864   8.753   1.037 -0.1511 -1.4830  2.6204
   43MOL0     H 5750   8.016   8.536   0.890 -2.4525 -0.9290  1.1065
   43MOL0     H 5751   8.048   8.709   0.892 -3.1200  0.3027 -0.7392
   43MOL0     H 5752   8.060   8.523   1.133 -3.0913  0.6955 -1.6923
   43MOL0     H 5753   8.087   8.701   1.137 -0.8059 -0.2516  0.7653
   43MOL0     H 5754   8.245   8.499   0.959  0.1104 -0.3548  0.3713
   43MOL0     H 5755   8.280   8.670   0.990  1.3277 -1.2319 -1.8811
   43MOL0     H 5756   8.447   8.718   1.187  1.3613 -0.6636 -0.2351
   43MOL0     H 5757   8.439   8.716   1.488 -1.4453  0.4971 -2.8602
   43MOL0     H 5758   8.475   8.557   1.530 -3.5229  0.6119 -1.0687
   43MOL0     H 5759   8.634   8.726   1.327  2.6754 -1.5344 -1.9719
   43MOL0     H 5760   8.685   8.706   1.501  0.1881 -1.5262  0.4361
   43MOL0     H 5761   8.687   8.491   1.277  1.0560  0.0780 -0.6827
   43MOL0     H 5762   8.719   8.468   1.454 -0.5460 -0.2681 -0.3900
   43MOL0     H 5763   8.839   8.622   1.224  2.1540 -0.7118 -0.0926
   43MOL0     H 5764   8.898   8.485   1.330 -1.9093 -1.1201 -0.8463
   43MOL0     H 5765   9.041   8.819   1.584 -0.1523 -0.2981 -0.5297
   43MOL0     H 5766   9.290   8.826   1.633 -0.1177 -0.5021 -0.5303
   43MOL0     H 5767   9.599   8.945   1.731  1.8960  2.1468 -1.2738
   43MOL0     H 5768   9.826   8.997   1.813 -1.8569 -0.4155  1.2614
   43MOL0     H 5769  10.084   9.008   1.833 -0.6750 -1.1901 -2.3976
   43MOL0     H 5770   9.983   8.926   1.952 -1.4663 -1.5230 -2.5913
   43MOL0     H 5771  10.182   8.803   2.032  1.0873  0.4617 -0.1034
   43MOL0     H 5772  10.282   8.888   1.914  0.3305  1.9680  1.2745
   43MOL0     H 5773  10.180   9.108   2.025 -1.2384  1.6017  0.5198
   43MOL0     H 5774  10.112   9.006   2.148 -0.5022 -1.2586 -0.1735
   43MOL0     H 5775  10.425   8.992   2.095 -1.2115 -3.8785 -1.0544
   43MOL0     H 5776  10.324   8.943   2.239 -1.5554 -0.0440 -0.2055
   43MOL0     H 5777  10.263   9.172   2.289  0.2806 -0.2923  0.7536
   43MOL0     H 5778  10.356   9.225   2.149 -0.3221  0.7416  1.1524
   43MOL0     H 5779  10.510   9.055   2.356 -0.2835  0.5311  4.0107
   43MOL0     H 5780  10.564   9.168   2.237 -1.7719  0.9602 -1.3613
   43MOL0     H 5781  10.399   9.211   2.489  0.2569 -2.2234 -0.5990
   43MOL0     H 5782  10.443   9.351   2.381  2.2186  0.5998 -2.9782
   43MOL0     H 5783  10.639   9.154   2.510  0.6252 -0.8787 -2.1293
   43MOL0     H 5784  10.683   9.300   2.419 -0.3708 -0.7514 -1.1686
   43MOL0     H 5785   9.967   8.617   1.653 -1.0271 -0.9448 -0.7810
   43MOL0     H 5786   9.722   8.570   1.571  0.0997 -0.9599  2.0264
   43MOL0     H 5787   9.337   8.555   1.286  1.9857  1.6407  1.2967
   43MOL0     H 5788   9.106   8.523   1.272 -0.3509 -0.2265  0.1525
   43MOL0     H 5789   7.136   8.541   1.002 -1.4686 -0.9130 -0.2702
   43MOL0     H 5790   6.906   8.632   1.015  0.2190 -1.1608  0.0575
   43MOL0     H 5791   6.717   9.069   1.186  1.6270  0.4298  1.1959
   43MOL0     H 5792   6.583   9.232   1.272  2.9733  0.0128 -0.3568
   43MOL0     H 5793   6.442   9.173   1.626 -1.4619 -0.6631 -0.1497
   43MOL0     H 5794   6.266   9.201   1.618 -0.5178  1.7774  1.0865
   43MOL0     H 5795   6.353   9.389   1.700 -2.0416 -0.2127 -0.9962
   43MOL0     H 5796   6.307   9.433   1.536  0.6046  2.1285  0.4078
   43MOL0     H 5797   6.525   9.461   1.452  5.2514  3.7138  1.0381
   43MOL0     H 5798   6.583   9.335   1.549  1.0863  1.0201  4.4625
   43MOL0     H 5799   6.483   9.609   1.689 -0.0237 -0.5103  1.8483
   43MOL0     H 5800   6.585   9.474   1.750 -0.7989 -0.5151  0.2725
   43MOL0     H 5801   6.840   9.726   1.500  0.8940 -0.2218 -0.4071
   43MOL0     H 5802   6.361   8.943   1.495 -0.1627  3.2025  0.0975
   43MOL0     H 5803   6.378   8.714   1.429 -0.9002  1.3901 -0.2118
   43MOL0     H 5804   6.528   8.643   1.372 -2.8204 -1.3925  0.6794
   43MOL0     H 5805   6.533   8.712   1.526 -1.3373 -0.1744  0.3162
   44MOL0     O 5806   4.495   5.220   6.190  0.3249 -0.8436 -0.1151
   44MOL0     C 5807   4.614   5.238   6.203 -0.9690 -0.9141 -0.0344
   44MOL0     O 5808   4.680   5.345   6.158 -0.2336 -0.1809 -0.2259
   44MOL0     C 5809   4.626   5.430   6.070 -0.5009  0.3957  0.1707
   44MOL0     C 5810   4.604   5.563   6.115  0.6281 -0.1127 -0.7273
   44MOL0     C 5811   4.565   5.658   6.025 -0.0233 -0.0641  0.5920
   44MOL0     C 5812   4.525   5.626   5.897  0.5694 -0.0276 -0.1631
   44MOL0     O 5813   4.465   5.718   5.816  1.2161 -0.4411 -0.6754
   44MOL0     C 5814   4.416   5.695   5.691  0.1810  0.9717 -0.1460
   44MOL0     C 5815   4.334   5.814   5.635  0.4770 -1.5648 -0.4542
   44MOL0     C 5816   4.402   5.943   5.615 -0.2073 -0.3243 -0.4568
   44MOL0     C 5817   4.313   6.047   5.545  0.7335  0.1031 -0.1751
   44MOL0     C 5818   4.300   6.048   5.397 -0.0326 -0.5162  1.1023
   44MOL0     C 5819   4.245   6.177   5.336  0.2609  0.6121  0.1246
   44MOL0     C 5820   4.258   6.169   5.188  0.9032  0.2942 -0.5643
   44MOL0     C 5821   4.184   6.061   5.109 -0.3619 -0.8455  0.2945
   44MOL0     N 5822   4.047   6.095   5.115 -0.7633  0.0115 -0.1717
   44MOL0     C 5823   3.979   6.153   5.019 -0.0686  0.0148  0.0887
   44MOL0     C 5824   3.847   6.131   5.032  0.2935 -0.2946 -0.1568
   44MOL0     C 5825   3.724   6.162   4.951 -1.2131  0.2977 -0.2251
   44MOL0     C 5826   3.586   6.113   5.002 -0.2068 -0.4401  0.1768
   44MOL0     C 5827   3.540   5.968   4.994  0.4048  0.4441  0.1446
   44MOL0     C 5828   3.415   5.962   4.909  0.2708 -0.4465  0.0150
   44MOL0     O 5829   3.358   5.836   4.938 -0.2240 -0.5881  0.3384
   44MOL0     C 5830   3.217   5.825   4.925 -0.6954  0.4573 -0.5069
   44MOL0     C 5831   3.156   5.697   4.938 -0.5634  0.5591 -0.0052
   44MOL0     C 5832   3.021   5.672   4.913  0.1576 -0.3185 -0.3294
   44MOL0     C 5833   2.943   5.774   4.857 -0.7012  0.5729  0.2615
   44MOL0     C 5834   2.805   5.755   4.830 -0.2459 -0.9954  0.2327
   44MOL0     O 5835   2.728   5.848   4.896 -0.0535 -0.2129  0.0362
   44MOL0     C 5836   2.585   5.834   4.876  0.3228 -0.1741  0.1688
   44MOL0     C 5837   2.508   5.718   4.892  0.3995  0.7229 -0.4658
   44MOL0     C 5838   2.367   5.715   4.858 -0.2981  0.3358 -0.7970
   44MOL0     C 5839   2.308   5.830   4.802  0.2948  0.1713 -0.3287
   44MOL0     O 5840   2.172   5.852   4.777  0.4839 -0.2226  0.0679
   44MOL0     C 5841   2.093   5.748   4.720 -0.0566 -1.1589 -0.3552
   44MOL0     C 5842   2.048   5.802   4.589 -0.5943 -0.6914  0.5386
   44MOL0     C 5843   1.933   5.897   4.591 -0.0500  0.8438 -0.6505
   44MOL0     C 5844   1.802   5.820   4.619  0.8091  0.8131 -0.4354
   44MOL0     C 5845   1.696   5.905   4.684  0.0249 -0.0906  0.4212
   44MOL0     C 5846   1.607   5.979   4.584 -0.2276  0.2467 -0.3474
   44MOL0     C 5847   1.531   6.095   4.644  0.1516  0.3573  0.1990
   44MOL0     C 5848   1.428   6.169   4.543 -0.5192  0.2288  0.2686
   44MOL0    Cl 5849   1.516   6.265   4.407 -0.1536  0.4581  0.4979
   44MOL0     C 5850   2.387   5.938   4.778 -0.5597  0.4409  0.2377
   44MOL0     C 5851   2.520   5.939   4.813  0.4647 -0.1792  0.0598
   44MOL0     O 5852   2.762   5.658   4.767  0.3139 -0.2687 -1.3403
   44MOL0     C 5853   2.996   5.901   4.840 -0.2330  0.4988  0.3699
   44MOL0     C 5854   3.133   5.929   4.873  0.1355 -0.2512 -0.4375
   44MOL0     N 5855   3.851   6.054   5.151  0.6728 -0.1257 -0.8143
   44MOL0     N 5856   3.967   6.037   5.200 -0.4987 -1.2472 -0.8248
   44MOL0     C 5857   4.551   5.495   5.850 -0.0390 -0.7393  0.0719
   44MOL0     C 5858   4.604   5.397   5.935  0.0331 -0.4786  0.5464
   44MOL0     C 5859   4.682   5.156   6.298  0.2039  0.0272 -0.1632
   44MOL0     C 5860   4.810   5.201   6.344  0.8385  1.0146  0.0781
   44MOL0     C 5861   4.901   5.116   6.405 -0.1595 -0.3338 -0.0618
   44MOL0     C 5862   4.863   4.995   6.449  0.1727  0.3864 -0.1577
   44MOL0     O 5863   4.942   4.914   6.527  0.0728  0.1465 -0.7223
   44MOL0     C 5864   5.050   4.973   6.600  0.7398 -0.0808  0.1433
   44MOL0     C 5865   5.152   4.863   6.646  0.2120  0.7091  0.1289
   44MOL0     C 5866   5.218   4.782   6.529  0.4635 -0.6846 -0.3046
   44MOL0     C 5867   5.305   4.880   6.447 -0.3419 -1.0209 -0.5060
   44MOL0     C 5868   5.445   4.891   6.485  0.5306  0.4421 -1.0128
   44MOL0     C 5869   5.562   4.894   6.516  1.1538  1.1322 -0.3488
   44MOL0     C 5870   4.734   4.952   6.415 -0.2952  0.5762  0.0030
   44MOL0     C 5871   4.633   5.029   6.352 -0.4846  0.4572 -0.1616
   44MOL0     C 5872   4.499   4.967   6.326 -0.2512 -0.1534 -0.0236
   44MOL0     H 5873   4.601   5.599   6.218 -1.4004  1.5850 -1.3046
   44MOL0     H 5874   4.554   5.760   6.059 -0.7354  0.6206 -1.5164
   44MOL0     H 5875   4.492   5.679   5.614  1.2735  2.5142  0.5553
   44MOL0     H 5876   4.359   5.602   5.693  1.4313  0.1143 -1.8778
   44MOL0     H 5877   4.246   5.820   5.700  0.0309 -0.6471 -1.1084
   44MOL0     H 5878   4.297   5.795   5.534  1.5780  4.5758 -2.4661
   44MOL0     H 5879   4.490   5.934   5.550  0.6880  0.4266  0.6145
   44MOL0     H 5880   4.419   5.970   5.720  1.1050 -2.9080  0.1005
   44MOL0     H 5881   4.213   6.018   5.578  1.1641  0.5638  1.6377
   44MOL0     H 5882   4.337   6.145   5.587  0.4043  0.5769 -1.0710
   44MOL0     H 5883   4.396   6.023   5.349 -0.4799 -1.9030  0.8987
   44MOL0     H 5884   4.236   5.968   5.360  0.6105 -0.4527 -0.2237
   44MOL0     H 5885   4.138   6.180   5.355 -0.2682  2.3349 -2.6119
   44MOL0     H 5886   4.298   6.266   5.371  2.3671  0.5308 -2.4877
   44MOL0     H 5887   4.361   6.174   5.150  1.0572 -1.0395 -0.3528
   44MOL0     H 5888   4.220   6.263   5.147 -0.0802 -0.0557 -0.4703
   44MOL0     H 5889   4.212   6.061   5.004 -0.0189  1.1682  0.3309
   44MOL0     H 5890   4.205   5.960   5.146  0.7230 -0.8661 -0.3595
   44MOL0     H 5891   4.017   6.207   4.932  0.4269 -0.1005  0.2351
   44MOL0     H 5892   3.728   6.272   4.946 -1.9622  0.3774  0.6991
   44MOL0     H 5893   3.751   6.139   4.848 -3.0075  0.7912 -0.8260
   44MOL0     H 5894   3.572   6.140   5.107 -2.6877  0.0060 -0.1930
   44MOL0     H 5895   3.528   6.186   4.945  2.6748 -0.2463 -2.8116
   44MOL0     H 5896   3.521   5.919   5.090 -1.3467  1.7400  0.5019
   44MOL0     H 5897   3.611   5.903   4.941  1.1585  0.6497  0.8699
   44MOL0     H 5898   3.453   5.972   4.807  0.7626 -1.8062  0.0351
   44MOL0     H 5899   3.353   6.045   4.944  0.4029 -1.0106  1.6894
   44MOL0     H 5900   3.218   5.615   4.973  1.5434  1.1063 -2.2043
   44MOL0     H 5901   2.974   5.577   4.933 -1.5369  0.3786 -0.8607
   44MOL0     H 5902   2.560   5.629   4.925 -0.4979  0.5654  0.5905
   44MOL0     H 5903   2.306   5.628   4.879  1.5910 -0.6665  0.9589
   44MOL0     H 5904   2.153   5.658   4.705 -0.6634 -1.5931 -0.1932
   44MOL0     H 5905   2.009   5.741   4.789  0.5106 -1.9120  0.2844
   44MOL0     H 5906   2.136   5.851   4.545 -0.4830  2.7454  4.0499
   44MOL0     H 5907   2.026   5.716   4.524 -0.5085 -0.0263 -0.3874
   44MOL0     H 5908   1.947   5.983   4.658 -0.4059  1.5249 -1.4244
   44MOL0     H 5909   1.918   5.947   4.494  1.1791  1.2216 -0.6668
   44MOL0     H 5910   1.810   5.744   4.697  3.2574 -0.1962 -1.5544
   44MOL0     H 5911   1.759   5.782   4.526 -1.5091  2.0689  0.0502
   44MOL0     H 5912   1.741   5.978   4.753 -1.0235  1.4439 -0.4570
   44MOL0     H 5913   1.631   5.829   4.728 -2.7449 -0.2172 -3.3898
   44MOL0     H 5914   1.675   6.040   4.524 -1.8073  2.2915 -0.1639
   44MOL0     H 5915   1.540   5.914   4.528 -2.1596  1.7277  0.1313
   44MOL0     H 5916   1.610   6.166   4.673 -0.8004 -0.0809  4.4937
   44MOL0     H 5917   1.473   6.066   4.732  3.2589  0.1216  2.3296
   44MOL0     H 5918   1.364   6.092   4.498 -1.3649  0.5598  0.8923
   44MOL0     H 5919   1.357   6.239   4.586 -1.2019 -2.1792  3.4142
   44MOL0     H 5920   2.339   6.017   4.722 -1.8703 -1.7336 -1.9471
   44MOL0     H 5921   2.575   6.031   4.797 -0.5114  0.8145  2.0861
   44MOL0     H 5922   2.931   5.979   4.802  0.2099  0.8622  0.3494
   44MOL0     H 5923   3.172   6.026   4.844 -1.8420  0.3917 -1.1169
   44MOL0     H 5924   4.508   5.456   5.757 -2.1144 -0.7892  0.9944
   44MOL0     H 5925   4.621   5.298   5.894  0.4784 -1.1646  2.3033
   44MOL0     H 5926   4.849   5.300   6.324 -1.7789  1.7609 -1.8135
   44MOL0     H 5927   4.997   5.163   6.424  1.0808 -3.0946  0.9560
   44MOL0     H 5928   5.019   5.033   6.686  0.6884 -1.0226  0.7914
   44MOL0     H 5929   5.106   5.050   6.546 -0.3356  1.2551  0.8490
   44MOL0     H 5930   5.097   4.798   6.716  1.8732  0.5997  1.3932
   44MOL0     H 5931   5.228   4.906   6.712 -0.0472 -1.3170  1.8970
   44MOL0     H 5932   5.142   4.736   6.466  0.1393  0.1200 -0.5195
   44MOL0     H 5933   5.281   4.703   6.570  0.9116 -0.3413 -0.3210
   44MOL0     H 5934   5.298   4.842   6.344 -0.4143 -0.3097 -0.7735
   44MOL0     H 5935   5.280   4.987   6.446  1.1943 -0.6416 -1.6718
   44MOL0     H 5936   5.666   4.914   6.534  1.4966  0.1438 -1.1650
   44MOL0     H 5937   4.711   4.853   6.454  1.3832  0.5606  1.0684
   44MOL0     H 5938   4.485   4.932   6.223 -0.7573 -3.2194  0.9702
   44MOL0     H 5939   4.497   4.867   6.369 -1.7107  0.8348  2.3713
   44MOL0     H 5940   4.410   5.025   6.350  0.7928 -0.2114  5.0726
   45MOL0     O 5941   5.398   0.603   1.766  0.4672 -0.1404  0.4667
   45MOL0     C 5942   5.358   0.516   1.845  0.4833  0.1173  0.0699
   45MOL0     O 5943   5.437   0.461   1.940  0.0189  0.6019 -0.4364
   45MOL0     C 5944   5.562   0.503   1.969  0.3058  0.7269 -0.4438
   45MOL0     C 5945   5.664   0.544   1.880  0.1127  0.3475  0.3598
   45MOL0     C 5946   5.787   0.565   1.926 -0.2738 -0.5192 -0.1912
   45MOL0     C 5947   5.814   0.531   2.065  0.7321 -0.3764 -0.3450
   45MOL0     O 5948   5.934   0.546   2.126  0.3869 -0.0438 -0.4492
   45MOL0     C 5949   6.043   0.588   2.048 -0.0310 -0.1119  0.0110
   45MOL0     C 5950   6.168   0.594   2.140  0.5913  0.0003 -0.2721
   45MOL0     C 5951   6.285   0.625   2.056 -0.7558  0.2402  0.7891
   45MOL0     C 5952   6.427   0.611   2.127  0.8190 -0.3102  0.1916
   45MOL0     C 5953   6.538   0.645   2.029  0.0232  0.7163  0.9975
   45MOL0     C 5954   6.680   0.616   2.091 -0.7084 -0.3676 -0.1933
   45MOL0     C 5955   6.785   0.610   1.973  0.6144  0.3381 -0.2278
   45MOL0     C 5956   6.934   0.605   2.015 -0.1152 -0.7615 -0.2999
   45MOL0     N 5957   6.976   0.480   2.077  0.2576 -0.3644 -0.4296
   45MOL0     C 5958   7.063   0.391   2.027  0.7224 -0.2268 -0.1043
   45MOL0     C 5959   7.093   0.299   2.121 -0.3353 -0.2744  0.6564
   45MOL0     C 5960   7.166   0.172   2.125 -0.0341  0.3948 -0.3140
   45MOL0     C 5961   7.315   0.188   2.178 -0.2898  0.1197  0.3321
   45MOL0     C 5962   7.399   0.070   2.131 -0.2094  0.1640  0.4415
   45MOL0     C 5963   7.546   0.083   2.181  0.4321 -0.1968  0.1567
   45MOL0     O 5964   7.610   0.200   2.133  0.2144  0.5730 -0.0547
   45MOL0     C 5965   7.744   0.197   2.137  0.4006 -0.1938  0.1886
   45MOL0     C 5966   7.816   0.176   2.257  0.2500  0.2880  0.4138
   45MOL0     C 5967   7.954   0.191   2.265  0.5537  1.3806 -0.3714
   45MOL0     C 5968   8.019   0.221   2.143  0.6691  0.1264  0.6626
   45MOL0     C 5969   8.159   0.252   2.152 -0.5420  0.5602  0.2051
   45MOL0     O 5970   8.231   0.200   2.259 -0.1400 -0.2885  0.3003
   45MOL0     C 5971   8.352   0.257   2.293  0.4902  0.1331 -0.2370
   45MOL0     C 5972   8.374   0.398   2.300  0.1362  0.4411 -1.8159
   45MOL0     C 5973   8.479   0.447   2.388  0.7846 -0.7243 -0.2335
   45MOL0     C 5974   8.579   0.360   2.428  0.0305  1.0746  1.1719
   45MOL0     O 5975   8.702   0.407   2.480  0.3633 -0.2116  0.2784
   45MOL0     C 5976   8.761   0.510   2.391  0.0917  0.3446  0.3258
   45MOL0     C 5977   8.903   0.476   2.361 -0.0024 -0.4341 -0.2197
   45MOL0     C 5978   9.002   0.461   2.482 -0.0573  0.8113 -0.2171
   45MOL0     C 5979   9.134   0.425   2.413 -0.4972 -0.4322 -0.6993
   45MOL0     C 5980   9.259   0.435   2.506  0.2941  0.7474  0.2494
   45MOL0     C 5981   9.390   0.434   2.427  0.5801 -0.6831  0.8109
   45MOL0     C 5982   9.507   0.401   2.515 -0.3679 -0.3015  0.1405
   45MOL0     C 5983   9.634   0.380   2.436  0.9329 -0.0370 -0.6997
   45MOL0    Cl 5984   9.768   0.308   2.536  0.4593  0.2746 -0.2207
   45MOL0     C 5985   8.559   0.223   2.422 -0.8087  0.3378  0.3566
   45MOL0     C 5986   8.444   0.177   2.361 -0.2619  0.2740  1.0628
   45MOL0     O 5987   8.211   0.314   2.059  0.0871 -0.1625  0.2015
   45MOL0     C 5988   7.947   0.237   2.022 -0.0474 -0.0907 -0.6659
   45MOL0     C 5989   7.811   0.229   2.026 -0.0972 -1.2773 -0.8299
   45MOL0     N 5990   7.024   0.339   2.229 -0.4233  0.3331 -0.3456
   45MOL0     N 5991   6.948   0.439   2.201  0.4021 -0.5492  0.3343
   45MOL0     C 5992   5.713   0.495   2.152  0.5245  0.4598 -0.6665
   45MOL0     C 5993   5.586   0.479   2.106 -0.9948  0.7549 -0.1049
   45MOL0     C 5994   5.219   0.471   1.857 -0.0800  0.9889 -0.2425
   45MOL0     C 5995   5.182   0.373   1.956  0.4041  0.0584 -0.2594
   45MOL0     C 5996   5.044   0.331   1.962 -0.1534 -0.0024  0.0205
   45MOL0     C 5997   4.949   0.387   1.881 -0.4857 -0.2283 -0.5432
   45MOL0     O 5998   4.814   0.353   1.885 -0.0841 -0.4983 -0.2575
   45MOL0     C 5999   4.772   0.240   1.958 -0.2421 -0.8927  0.0280
   45MOL0     C 6000   4.629   0.206   1.935 -0.0338 -0.4369 -0.0096
   45MOL0     C 6001   4.577   0.118   2.056 -0.8606 -0.4738 -0.7463
   45MOL0     C 6002   4.466   0.024   2.021 -0.0874  0.1813 -0.0263
   45MOL0     C 6003   4.364   0.078   1.940  0.6218  0.6980 -0.1287
   45MOL0     C 6004   4.270   0.121   1.870 -0.6686 -1.0292 -1.1056
   45MOL0     C 6005   4.982   0.492   1.801 -0.0532  0.7523 -0.4718
   45MOL0     C 6006   5.112   0.531   1.784  0.8133  0.2707 -0.2896
   45MOL0     C 6007   5.124   0.623   1.676  0.2522  0.0257  0.2194
   45MOL0     H 6008   5.646   0.575   1.778 -0.7235 -0.9469  0.1015
   45MOL0     H 6009   5.861   0.601   1.856  0.3163 -0.3400  0.5139
   45MOL0     H 6010   6.046   0.520   1.963 -5.7224  0.7678 -1.3330
   45MOL0     H 6011   6.019   0.689   2.012 -1.2935 -0.6514 -0.7488
   45MOL0     H 6012   6.189   0.492   2.174  4.1762  0.9598  0.7665
   45MOL0     H 6013   6.153   0.654   2.230  0.1511 -2.6315  1.5214
   45MOL0     H 6014   6.269   0.727   2.021 -0.2169 -0.6524 -2.2889
   45MOL0     H 6015   6.290   0.563   1.967  0.3690 -0.9809  1.6558
   45MOL0     H 6016   6.425   0.685   2.207  1.1208 -1.6412  1.4747
   45MOL0     H 6017   6.435   0.511   2.171  0.9071  0.2723  1.5555
   45MOL0     H 6018   6.520   0.573   1.949 -1.4692  2.9974 -0.8247
   45MOL0     H 6019   6.521   0.747   1.993 -0.3796  0.2279 -0.2231
   45MOL0     H 6020   6.718   0.691   2.159  1.2366 -0.1392 -1.4513
   45MOL0     H 6021   6.678   0.517   2.138 -0.2111 -0.5525 -0.5470
   45MOL0     H 6022   6.767   0.698   1.911 -0.8477  0.2313  0.0234
   45MOL0     H 6023   6.758   0.523   1.912 -1.7045 -1.3475  2.8951
   45MOL0     H 6024   7.001   0.634   1.934 -0.1919 -2.4302 -0.9924
   45MOL0     H 6025   6.945   0.686   2.089  0.6453  1.4095 -2.6442
   45MOL0     H 6026   7.083   0.381   1.921 -0.0395  0.0463 -0.2852
   45MOL0     H 6027   7.117   0.097   2.188 -1.9320  0.4461 -1.6112
   45MOL0     H 6028   7.157   0.126   2.026  1.5552 -0.2741 -0.1676
   45MOL0     H 6029   7.350   0.281   2.131  2.4817 -0.1946  1.6317
   45MOL0     H 6030   7.312   0.208   2.285 -1.0825  1.4024  0.1054
   45MOL0     H 6031   7.393   0.069   2.021 -3.4645  2.2692  0.4423
   45MOL0     H 6032   7.356  -0.028   2.153  0.7512 -0.5324 -0.6196
   45MOL0     H 6033   7.594  -0.009   2.144  0.8422  0.9779 -2.4465
   45MOL0     H 6034   7.547   0.084   2.290  0.4095 -1.3126  0.1795
   45MOL0     H 6035   7.763   0.152   2.348 -0.5647  0.8104  0.0829
   45MOL0     H 6036   7.997   0.169   2.362 -2.9241 -1.6582  0.7236
   45MOL0     H 6037   8.316   0.471   2.244  0.4448  0.6477 -1.8758
   45MOL0     H 6038   8.475   0.554   2.402 -1.1594 -0.4837 -2.0028
   45MOL0     H 6039   8.704   0.516   2.298 -1.0762 -0.1907  0.9813
   45MOL0     H 6040   8.764   0.607   2.441 -2.1701  1.9280 -2.3389
   45MOL0     H 6041   8.907   0.384   2.302 -2.1840  0.1392 -1.3735
   45MOL0     H 6042   8.937   0.558   2.298 -0.7117  1.5820  1.8840
   45MOL0     H 6043   9.007   0.549   2.547  0.1930 -0.6446  1.8473
   45MOL0     H 6044   8.977   0.384   2.556  0.0186 -0.1337 -1.1504
   45MOL0     H 6045   9.154   0.506   2.343 -0.0013 -0.1150 -0.2022
   45MOL0     H 6046   9.135   0.330   2.358 -4.1856  0.0517 -1.8907
   45MOL0     H 6047   9.261   0.339   2.559 -2.1402  1.1734  1.2255
   45MOL0     H 6048   9.256   0.526   2.565 -0.4172  1.6956 -1.1905
   45MOL0     H 6049   9.376   0.376   2.335 -1.0975  3.0482 -1.5192
   45MOL0     H 6050   9.396   0.537   2.392 -4.0807 -0.9860 -1.7276
   45MOL0     H 6051   9.486   0.305   2.563 -2.6652  0.7592  1.3967
   45MOL0     H 6052   9.521   0.475   2.594 -2.7070 -0.7682  1.0874
   45MOL0     H 6053   9.600   0.318   2.352 -3.0990 -2.3714  2.3252
   45MOL0     H 6054   9.653   0.481   2.398 -4.3399  0.4085 -3.0541
   45MOL0     H 6055   8.632   0.150   2.457 -1.1386  0.0055  0.3524
   45MOL0     H 6056   8.412   0.074   2.374 -3.9696  1.1627  0.0765
   45MOL0     H 6057   8.002   0.263   1.932  0.8551  2.3708  0.5360
   45MOL0     H 6058   7.763   0.261   1.934 -0.9124 -2.3196 -0.7914
   45MOL0     H 6059   5.750   0.476   2.253 -1.8690  0.0527  0.2103
   45MOL0     H 6060   5.511   0.445   2.176 -0.0350  0.5087  0.8290
   45MOL0     H 6061   5.258   0.312   2.005 -0.6535 -0.4416  0.8232
   45MOL0     H 6062   5.015   0.249   2.028 -0.5029 -1.6071 -2.0206
   45MOL0     H 6063   4.795   0.278   2.058 -0.9141  2.9273 -1.0920
   45MOL0     H 6064   4.841   0.156   1.959  0.9135 -0.0934  4.2079
   45MOL0     H 6065   4.616   0.155   1.839 -1.9810  1.4583 -0.8516
   45MOL0     H 6066   4.569   0.297   1.929 -2.6001 -2.0631 -0.6708
   45MOL0     H 6067   4.543   0.188   2.134 -1.6199 -0.9553 -0.6346
   45MOL0     H 6068   4.660   0.070   2.108  1.5406  1.9554 -2.0928
   45MOL0     H 6069   4.506  -0.066   1.974  0.5806  0.8968 -0.8487
   45MOL0     H 6070   4.425  -0.012   2.116 -0.5526 -0.1124 -0.3313
   45MOL0     H 6071   4.180   0.163   1.832 -0.6636  1.5055  1.3073
   45MOL0     H 6072   4.908   0.547   1.744 -0.0480  0.6485 -0.5791
   45MOL0     H 6073   5.028   0.655   1.633 -0.4367 -0.7699  1.1094
   45MOL0     H 6074   5.161   0.721   1.708  0.5688 -0.5649  1.7080
   45MOL0     H 6075   5.178   0.574   1.595 -1.5544 -3.4984  0.9797
   46MOL0     O 6076   9.461   6.382   6.955 -0.1778  0.1740  0.2379
   46MOL0     C 6077   9.389   6.481   6.936  0.7276 -0.5012  0.2916
   46MOL0     O 6078   9.410   6.608   6.983 -0.4891 -0.1853  0.0033
   46MOL0     C 6079   9.527   6.636   7.068 -0.4771 -0.0834  0.3308
   46MOL0     C 6080   9.648   6.568   7.058 -1.2977 -0.5368 -0.3646
   46MOL0     C 6081   9.756   6.598   7.148  0.2799 -0.2206  0.3720
   46MOL0     C 6082   9.735   6.692   7.245 -0.4809  0.1635  0.2159
   46MOL0     O 6083   9.835   6.722   7.330 -0.2457 -0.0612  0.5484
   46MOL0     C 6084   9.841   6.641   7.442  0.5313 -1.1001  0.3033
   46MOL0     C 6085   9.899   6.503   7.405 -0.4430 -0.6120 -0.3358
   46MOL0     C 6086   9.921   6.418   7.531 -0.0110 -0.1276 -1.2262
   46MOL0     C 6087  10.021   6.297   7.515  0.1951 -0.4059 -0.0536
   46MOL0     C 6088  10.035   6.224   7.651 -0.3537  0.1690 -0.1576
   46MOL0     C 6089  10.144   6.117   7.662 -0.6543 -0.3197 -0.4280
   46MOL0     C 6090  10.149   6.050   7.800  0.7029  0.2128  0.1257
   46MOL0     C 6091  10.253   6.115   7.901  0.2942 -0.3160  0.0889
   46MOL0     N 6092  10.384   6.059   7.881  0.0262  0.4882 -0.0447
   46MOL0     C 6093  10.489   6.119   7.819  1.0465  0.7355  0.6455
   46MOL0     C 6094  10.587   6.024   7.824 -0.2969 -0.1700 -0.0932
   46MOL0     C 6095  10.722   6.032   7.765  0.5734  0.4500 -0.0275
   46MOL0     C 6096  10.728   6.001   7.613 -0.9298  0.1154  0.1382
   46MOL0     C 6097  10.652   5.875   7.589 -0.3527  1.0794 -0.5950
   46MOL0     C 6098  10.652   5.819   7.443 -0.7954  0.9263  0.9862
   46MOL0     O 6099  10.540   5.872   7.378 -0.1131  0.0161  1.1049
   46MOL0     C 6100  10.414   5.822   7.393 -0.4393 -0.3951  1.0009
   46MOL0     C 6101  10.379   5.708   7.464 -0.5734  0.1985 -0.3826
   46MOL0     C 6102  10.235   5.672   7.483  0.3376  0.5349 -0.5473
   46MOL0     C 6103  10.133   5.759   7.435  0.6521 -0.4080 -0.1793
   46MOL0     C 6104   9.986   5.720   7.441 -0.4247 -0.1597  0.3350
   46MOL0     O 6105   9.948   5.592   7.483  0.0730 -0.4839 -0.4662
   46MOL0     C 6106   9.821   5.541   7.477 -0.3262 -0.2158 -0.6716
   46MOL0     C 6107   9.716   5.589   7.405 -0.2424  0.8686 -0.0699
   46MOL0     C 6108   9.596   5.514   7.407 -0.5298  0.3360  0.3924
   46MOL0     C 6109   9.581   5.406   7.488 -0.2180  0.6938  0.7847
   46MOL0     O 6110   9.461   5.348   7.487 -0.3638  0.1141  0.2477
   46MOL0     C 6111   9.382   5.336   7.608 -0.7276 -0.0175  0.5261
   46MOL0     C 6112   9.345   5.479   7.664  0.5898 -0.5491  0.4538
   46MOL0     C 6113   9.244   5.560   7.590  0.8576  0.6485  0.8171
   46MOL0     C 6114   9.117   5.495   7.551 -0.1181  0.8245 -0.8508
   46MOL0     C 6115   9.048   5.579   7.437  0.2912  0.6979 -0.0286
   46MOL0     C 6116   8.913   5.523   7.395  0.7245  0.3464 -0.3025
   46MOL0     C 6117   8.823   5.630   7.328 -1.0425  0.0558 -0.3458
   46MOL0     C 6118   8.677   5.591   7.332 -0.0063  0.8469 -0.3158
   46MOL0    Cl 6119   8.588   5.732   7.252  0.0635  0.0147  0.0713
   46MOL0     C 6120   9.688   5.352   7.550  0.2139 -0.0234 -0.5985
   46MOL0     C 6121   9.811   5.418   7.535 -0.2661  0.2769 -0.0555
   46MOL0     O 6122   9.915   5.818   7.425  1.0445  0.1435  0.0895
   46MOL0     C 6123  10.174   5.873   7.362  0.5232 -0.0895 -0.1014
   46MOL0     C 6124  10.311   5.904   7.339 -0.4026 -0.6912 -0.3523
   46MOL0     N 6125  10.539   5.917   7.895 -1.1282  0.1540 -0.3796
   46MOL0     N 6126  10.423   5.940   7.937  0.4613 -0.2412  0.3848
   46MOL0     C 6127   9.615   6.762   7.256  0.3122 -0.3288 -0.2010
   46MOL0     C 6128   9.511   6.738   7.157 -0.3572  0.6449  0.7585
   46MOL0     C 6129   9.266   6.468   6.850 -0.2367 -0.6726  0.0182
   46MOL0     C 6130   9.200   6.588   6.808 -0.8888 -0.0373 -0.4891
   46MOL0     C 6131   9.102   6.585   6.714 -0.5963 -0.3125 -0.4347
   46MOL0     C 6132   9.059   6.472   6.652  0.3128  0.7799  0.6499
   46MOL0     O 6133   8.977   6.457   6.546 -0.2508 -0.1673 -0.9659
   46MOL0     C 6134   8.912   6.581   6.496 -1.5636  0.3538 -0.1663
   46MOL0     C 6135   8.812   6.524   6.401  0.6481  0.2091  1.1033
   46MOL0     C 6136   8.719   6.635   6.372  0.1792  0.4991  0.7865
   46MOL0     C 6137   8.609   6.582   6.288 -0.7365 -0.2234  0.5082
   46MOL0     C 6138   8.500   6.679   6.276 -0.3607  0.3183 -0.0869
   46MOL0     C 6139   8.414   6.762   6.294 -0.2182 -0.3581  0.9316
   46MOL0     C 6140   9.105   6.349   6.714  0.8830 -0.4799 -0.0656
   46MOL0     C 6141   9.203   6.346   6.814  0.7253  0.4582  0.9303
   46MOL0     C 6142   9.242   6.208   6.868 -0.5834 -0.1265 -0.2862
   46MOL0     H 6143   9.669   6.488   6.988 -1.4348 -1.1454  0.2676
   46MOL0     H 6144   9.845   6.539   7.128  2.0655  2.7853 -1.4174
   46MOL0     H 6145   9.903   6.687   7.520  4.5078 -0.1129 -3.0684
   46MOL0     H 6146   9.739   6.619   7.477  2.0339 -2.8261  4.1801
   46MOL0     H 6147   9.992   6.530   7.354 -0.4943 -0.3867 -0.3114
   46MOL0     H 6148   9.834   6.450   7.335 -1.9484  0.6936  0.0285
   46MOL0     H 6149   9.826   6.377   7.566  0.5849 -0.5640 -0.0631
   46MOL0     H 6150   9.960   6.471   7.619 -1.0626  0.0773 -0.8736
   46MOL0     H 6151   9.990   6.233   7.433  2.4300 -0.0398 -1.2711
   46MOL0     H 6152  10.113   6.350   7.487 -0.0363  0.9243  1.5164
   46MOL0     H 6153  10.073   6.302   7.718 -1.9493  1.1614 -0.3498
   46MOL0     H 6154   9.935   6.198   7.688 -1.1087  0.1857 -2.0718
   46MOL0     H 6155  10.116   6.040   7.589  1.9510  0.0829 -2.0161
   46MOL0     H 6156  10.244   6.149   7.631 -0.4467 -0.2895  0.2609
   46MOL0     H 6157  10.160   5.942   7.785 -0.3824 -0.0594  1.1963
   46MOL0     H 6158  10.052   6.064   7.847  1.7462  0.8044  2.2216
   46MOL0     H 6159  10.256   6.224   7.888  1.0100 -0.5916 -2.6619
   46MOL0     H 6160  10.219   6.095   8.003  1.1078  0.7371  0.5939
   46MOL0     H 6161  10.486   6.218   7.775 -3.0333  1.4923  2.2225
   46MOL0     H 6162  10.763   6.131   7.788  1.6269 -0.2279  1.2257
   46MOL0     H 6163  10.783   5.958   7.817  0.2360 -1.9272 -2.7957
   46MOL0     H 6164  10.684   6.080   7.552  2.3972  0.8025 -1.5951
   46MOL0     H 6165  10.831   5.991   7.578 -0.2636  1.4221  1.6321
   46MOL0     H 6166  10.546   5.872   7.614 -2.0502 -0.7137 -6.4503
   46MOL0     H 6167  10.709   5.796   7.638 -2.2950 -0.8203 -1.2488
   46MOL0     H 6168  10.643   5.710   7.442 -0.1352  0.7235 -3.4251
   46MOL0     H 6169  10.749   5.831   7.394 -1.3433 -3.5479 -1.8850
   46MOL0     H 6170  10.453   5.637   7.499  1.3900  2.1965 -0.2364
   46MOL0     H 6171  10.203   5.586   7.542 -1.8445 -1.2451 -3.9697
   46MOL0     H 6172   9.717   5.684   7.352  0.9755  1.1904  0.5049
   46MOL0     H 6173   9.514   5.548   7.345  1.6371  1.1150 -2.2374
   46MOL0     H 6174   9.298   5.274   7.575 -1.9956  1.1017  1.5019
   46MOL0     H 6175   9.446   5.285   7.681 -0.3136  0.1311  0.2642
   46MOL0     H 6176   9.303   5.466   7.764  0.9851  3.1016  1.2305
   46MOL0     H 6177   9.438   5.536   7.676 -1.1509  2.9256 -1.2542
   46MOL0     H 6178   9.220   5.649   7.650  0.2371  0.6774  0.5306
   46MOL0     H 6179   9.286   5.600   7.497  1.8565 -1.1211  0.4546
   46MOL0     H 6180   9.050   5.479   7.636  0.7236 -2.3299 -0.6715
   46MOL0     H 6181   9.139   5.398   7.506  0.5450  1.3504 -1.6814
   46MOL0     H 6182   9.119   5.589   7.355 -0.7205  1.1984 -0.8799
   46MOL0     H 6183   9.032   5.678   7.481 -2.0296  0.0869  0.6726
   46MOL0     H 6184   8.926   5.448   7.317 -4.0044 -1.3042  0.1528
   46MOL0     H 6185   8.857   5.477   7.477  2.3368  0.3216  0.8389
   46MOL0     H 6186   8.852   5.654   7.225  0.3506 -1.1361 -0.2708
   46MOL0     H 6187   8.823   5.724   7.383  0.2749  0.7734 -1.4965
   46MOL0     H 6188   8.659   5.501   7.273 -2.2094  1.5362 -0.7862
   46MOL0     H 6189   8.641   5.561   7.431  1.0744  0.8477  0.0978
   46MOL0     H 6190   9.679   5.250   7.586  1.2387  0.2138  0.3903
   46MOL0     H 6191   9.900   5.369   7.571 -0.3679  1.1340  1.4495
   46MOL0     H 6192  10.108   5.947   7.318 -2.9430 -2.2663  1.0799
   46MOL0     H 6193  10.347   5.985   7.277  1.3050 -1.8775 -0.9885
   46MOL0     H 6194   9.597   6.842   7.328 -1.3852 -1.7634  1.0369
   46MOL0     H 6195   9.420   6.796   7.161 -1.3922 -0.6690 -1.5035
   46MOL0     H 6196   9.241   6.675   6.861  0.7752 -1.4413  0.6563
   46MOL0     H 6197   9.066   6.682   6.682  0.1815  0.3938  0.7583
   46MOL0     H 6198   8.974   6.651   6.438 -1.2693 -0.4939 -0.9072
   46MOL0     H 6199   8.865   6.631   6.581  0.5306 -0.5427  1.6208
   46MOL0     H 6200   8.744   6.460   6.457 -1.9707  0.5060 -1.5270
   46MOL0     H 6201   8.857   6.474   6.315 -1.8592 -1.5642  0.7186
   46MOL0     H 6202   8.769   6.718   6.321 -2.4975  1.4687 -0.4613
   46MOL0     H 6203   8.675   6.673   6.465  0.2667  0.4100  0.8641
   46MOL0     H 6204   8.652   6.562   6.189  2.1601  3.8062  0.7130
   46MOL0     H 6205   8.571   6.485   6.322  0.9879 -1.5292 -1.1074
   46MOL0     H 6206   8.335   6.834   6.298 -0.8569 -0.9159 -0.8251
   46MOL0     H 6207   9.053   6.266   6.667  0.3379  0.8374 -1.8801
   46MOL0     H 6208   9.323   6.167   6.806 -0.0596 -0.6955  0.7290
   46MOL0     H 6209   9.267   6.214   6.975  2.3439  0.5855 -0.8991
   46MOL0     H 6210   9.152   6.146   6.860 -0.0141 -0.8588 -1.2351
   47MOL0     O 6211   4.336   5.531   5.002  0.3873  0.0195 -0.5689
   47MOL0     C 6212   4.263   5.628   4.974  0.0346  0.4990 -0.3585
   47MOL0     O 6213   4.299   5.756   4.993 -0.0808  0.7778  0.0996
   47MOL0     C 6214   4.410   5.774   5.075  0.2830 -0.5412 -0.2068
   47MOL0     C 6215   4.415   5.723   5.209 -0.2319 -0.1282  1.0261
   47MOL0     C 6216   4.522   5.767   5.291  0.1975  0.6130  0.4499
   47MOL0     C 6217   4.624   5.848   5.247 -0.0821  1.2218 -0.5478
   47MOL0     O 6218   4.718   5.904   5.332 -0.5092  0.0407 -0.0057
   47MOL0     C 6219   4.770   5.820   5.442 -0.8688 -0.5586 -0.2614
   47MOL0     C 6220   4.900   5.868   5.508 -0.8714 -0.0352  0.3208
   47MOL0     C 6221   4.902   6.023   5.537  0.2850  0.3900 -0.6342
   47MOL0     C 6222   5.035   6.067   5.597 -0.3730  0.5237  0.1130
   47MOL0     C 6223   5.163   6.041   5.508 -0.9858 -0.0169  0.0075
   47MOL0     C 6224   5.127   6.097   5.372  0.4901 -0.4566 -0.8791
   47MOL0     C 6225   5.256   6.093   5.295 -0.7361  0.1728 -0.5891
   47MOL0     C 6226   5.264   6.171   5.157  0.3699  0.1271 -0.4372
   47MOL0     N 6227   5.390   6.165   5.087 -0.0096  0.0874  0.7776
   47MOL0     C 6228   5.436   6.252   4.992  0.4345 -0.2451 -0.4673
   47MOL0     C 6229   5.557   6.216   4.960  1.0547  0.3199  0.1722
   47MOL0     C 6230   5.627   6.263   4.837  0.7893  0.2466 -0.4827
   47MOL0     C 6231   5.670   6.153   4.747 -0.2012  0.0734  0.5246
   47MOL0     C 6232   5.558   6.059   4.713  0.4680  0.4505  0.6232
   47MOL0     C 6233   5.613   5.943   4.631  0.1478  0.2403 -0.2242
   47MOL0     O 6234   5.653   5.992   4.498  0.0388 -0.1576  0.3297
   47MOL0     C 6235   5.559   6.013   4.398  0.2259 -0.3425  0.0089
   47MOL0     C 6236   5.424   5.970   4.407 -0.2037 -0.5400 -0.1740
   47MOL0     C 6237   5.345   5.963   4.292  0.1300 -0.2461  0.1178
   47MOL0     C 6238   5.387   6.012   4.167 -0.1324  0.0277  0.0507
   47MOL0     C 6239   5.298   6.009   4.046 -0.6446  0.8536 -0.2065
   47MOL0     O 6240   5.351   6.058   3.927 -0.9275  0.3437  0.3413
   47MOL0     C 6241   5.269   6.066   3.824 -0.4881  0.7000 -0.5739
   47MOL0     C 6242   5.306   6.019   3.695 -0.0987 -1.1684 -0.5850
   47MOL0     C 6243   5.227   6.037   3.581  0.2323  0.5278  0.4359
   47MOL0     C 6244   5.103   6.087   3.587  0.1737  0.2444 -0.1767
   47MOL0     O 6245   5.023   6.094   3.474  0.0167  0.1175  0.8127
   47MOL0     C 6246   4.979   6.227   3.439  0.0046 -0.6951  0.0501
   47MOL0     C 6247   4.925   6.225   3.300  0.2881  0.4593 -0.1267
   47MOL0     C 6248   4.789   6.145   3.283 -0.1067 -1.0557  0.0759
   47MOL0     C 6249   4.665   6.237   3.298 -0.3540 -0.0170 -0.2967
   47MOL0     C 6250   4.543   6.169   3.228  0.3518  0.6784 -0.6109
   47MOL0     C 6251   4.418   6.257   3.241  0.0276  0.3706 -0.7363
   47MOL0     C 6252   4.294   6.196   3.191 -0.0852  0.0994 -0.0264
   47MOL0     C 6253   4.175   6.283   3.239  0.1250  0.0544  0.1345
   47MOL0    Cl 6254   4.024   6.174   3.208 -0.3315  0.0235 -0.0086
   47MOL0     C 6255   5.053   6.125   3.717 -0.4590 -0.2784  0.2567
   47MOL0     C 6256   5.138   6.116   3.826 -0.5042  0.1733 -1.0901
   47MOL0     O 6257   5.183   5.954   4.063  0.0516  0.0017  0.8052
   47MOL0     C 6258   5.519   6.055   4.157 -0.3973  0.6325  0.6665
   47MOL0     C 6259   5.601   6.063   4.272  1.0164  0.0696 -0.3642
   47MOL0     N 6260   5.591   6.118   5.050 -0.4115 -0.1146 -1.3963
   47MOL0     N 6261   5.497   6.091   5.133 -0.2877  0.1995  0.4508
   47MOL0     C 6262   4.613   5.894   5.117  0.2318 -0.6547  0.1605
   47MOL0     C 6263   4.510   5.861   5.028  0.0615  0.0427 -0.7039
   47MOL0     C 6264   4.132   5.595   4.912 -0.0197  1.1575  0.8128
   47MOL0     C 6265   4.128   5.469   4.843  0.4475  0.5267 -0.1933
   47MOL0     C 6266   4.007   5.431   4.775  1.2483  0.1653 -0.2516
   47MOL0     C 6267   3.892   5.510   4.772 -0.6083 -0.1443 -0.6626
   47MOL0     O 6268   3.784   5.454   4.710 -0.3218 -0.6668 -0.4289
   47MOL0     C 6269   3.651   5.483   4.763  0.1045 -0.0901 -0.0901
   47MOL0     C 6270   3.554   5.424   4.662 -0.3297 -0.2162 -0.8751
   47MOL0     C 6271   3.411   5.456   4.712  0.1481 -0.1815  0.4230
   47MOL0     C 6272   3.320   5.367   4.631  0.8164  0.2834  0.4966
   47MOL0     C 6273   3.177   5.399   4.652 -0.0717 -0.2987 -0.0874
   47MOL0     C 6274   3.057   5.414   4.662 -0.4043  0.0885  0.1062
   47MOL0     C 6275   3.895   5.633   4.847 -0.6482  0.1103 -0.3564
   47MOL0     C 6276   4.010   5.666   4.915 -0.5334  0.7811 -0.4051
   47MOL0     C 6277   4.009   5.802   4.980 -0.2914 -0.1806  1.0520
   47MOL0     H 6278   4.338   5.661   5.255 -0.3838 -2.1328 -1.6918
   47MOL0     H 6279   4.515   5.725   5.391 -0.9528 -0.5521 -0.0907
   47MOL0     H 6280   4.697   5.802   5.522  0.6203 -3.1807  0.6558
   47MOL0     H 6281   4.784   5.717   5.407 -1.7930 -0.6304 -0.4461
   47MOL0     H 6282   4.979   5.841   5.438 -2.7457 -2.9737 -0.8687
   47MOL0     H 6283   4.914   5.822   5.606 -0.7599  3.0344  1.8903
   47MOL0     H 6284   4.815   6.039   5.602 -0.7512 -3.3040 -0.8964
   47MOL0     H 6285   4.872   6.072   5.444 -0.3001 -0.3947 -0.8717
   47MOL0     H 6286   5.034   6.176   5.606  1.0857  0.5721 -0.1760
   47MOL0     H 6287   5.050   6.042   5.702  1.1143  2.3743  0.3986
   47MOL0     H 6288   5.240   6.105   5.552 -0.2242  0.6638 -2.2057
   47MOL0     H 6289   5.186   5.934   5.501 -1.9468 -0.1588 -1.4941
   47MOL0     H 6290   5.050   6.029   5.333  0.9473 -3.2761  2.6481
   47MOL0     H 6291   5.095   6.199   5.394  2.0349 -0.4190  1.5991
   47MOL0     H 6292   5.280   5.990   5.265  2.3928  0.6707 -0.1590
   47MOL0     H 6293   5.339   6.124   5.359 -0.7951  0.8865 -0.8530
   47MOL0     H 6294   5.193   6.118   5.093  1.1784 -1.8401  0.2187
   47MOL0     H 6295   5.222   6.268   5.184 -0.6157 -0.3284 -0.2848
   47MOL0     H 6296   5.374   6.329   4.947 -1.7761 -1.2915  0.6497
   47MOL0     H 6297   5.563   6.338   4.790  0.2312  1.3190  1.8660
   47MOL0     H 6298   5.715   6.320   4.867 -0.2208  1.7761 -0.2984
   47MOL0     H 6299   5.704   6.195   4.652 -3.8848  1.1129 -0.4836
   47MOL0     H 6300   5.747   6.099   4.805 -1.1334 -0.0204  1.7179
   47MOL0     H 6301   5.487   6.114   4.652  2.8539  0.9355 -1.9345
   47MOL0     H 6302   5.512   6.014   4.802  2.7838 -3.5118  0.0837
   47MOL0     H 6303   5.541   5.864   4.611 -0.4513  0.6804  0.1477
   47MOL0     H 6304   5.708   5.912   4.676 -0.1113  0.1138  0.2328
   47MOL0     H 6305   5.390   5.925   4.500  1.7353 -1.1428  0.3021
   47MOL0     H 6306   5.244   5.927   4.309  0.1309 -0.0887  0.4617
   47MOL0     H 6307   5.401   5.968   3.687 -1.1122 -3.1888 -0.3077
   47MOL0     H 6308   5.273   6.003   3.489  0.1598  0.0409  0.5755
   47MOL0     H 6309   4.907   6.264   3.512  1.5095  0.9968  0.7641
   47MOL0     H 6310   5.064   6.296   3.436 -0.2884 -0.2621  1.0837
   47MOL0     H 6311   4.906   6.330   3.275  0.4646  0.0747 -1.9934
   47MOL0     H 6312   5.006   6.188   3.237  2.4535  2.9983  0.9404
   47MOL0     H 6313   4.771   6.112   3.180 -2.4805 -0.3789  0.2361
   47MOL0     H 6314   4.781   6.069   3.361 -1.3490  2.4629  3.7081
   47MOL0     H 6315   4.686   6.332   3.248 -2.5536 -0.3534 -1.9797
   47MOL0     H 6316   4.655   6.249   3.406 -0.5107  2.6234 -0.5426
   47MOL0     H 6317   4.530   6.070   3.274  1.1166  0.9105  0.1285
   47MOL0     H 6318   4.576   6.157   3.124  2.9485  0.7791  0.1340
   47MOL0     H 6319   4.400   6.281   3.346 -0.1888  2.0757 -1.1425
   47MOL0     H 6320   4.432   6.346   3.180 -1.1576  0.3040 -1.1315
   47MOL0     H 6321   4.286   6.096   3.233 -2.0701 -0.2050 -1.0016
   47MOL0     H 6322   4.298   6.200   3.082  1.0666 -0.8559 -0.0361
   47MOL0     H 6323   4.191   6.310   3.344  3.1596 -1.2287  0.1154
   47MOL0     H 6324   4.163   6.375   3.181 -3.7726 -0.9603 -0.9437
   47MOL0     H 6325   4.951   6.157   3.737 -0.7587 -0.8460 -0.3058
   47MOL0     H 6326   5.098   6.152   3.920  2.8069 -0.6234  0.7810
   47MOL0     H 6327   5.554   6.113   4.072  0.8562 -0.3870  0.4640
   47MOL0     H 6328   5.701   6.098   4.248  0.1927  1.8050 -1.4550
   47MOL0     H 6329   4.686   5.966   5.083  1.7099 -1.8006  0.7872
   47MOL0     H 6330   4.496   5.898   4.927 -1.0243  1.1619 -0.1717
   47MOL0     H 6331   4.223   5.417   4.831  0.2716 -0.5966  2.6176
   47MOL0     H 6332   3.994   5.336   4.724 -0.0341 -0.4632  1.1729
   47MOL0     H 6333   3.636   5.591   4.767  0.1902 -0.0679 -0.3573
   47MOL0     H 6334   3.638   5.440   4.863 -1.4905 -1.6624 -0.9083
   47MOL0     H 6335   3.570   5.316   4.673  1.8114  0.1282 -0.0020
   47MOL0     H 6336   3.563   5.461   4.559 -1.3193 -2.6192 -1.8958
   47MOL0     H 6337   3.390   5.561   4.688 -0.0836 -0.8784 -2.9401
   47MOL0     H 6338   3.396   5.436   4.818 -0.4561 -0.5319  0.2768
   47MOL0     H 6339   3.356   5.369   4.528  2.2484 -2.0108  0.8870
   47MOL0     H 6340   3.332   5.262   4.661 -2.8065 -0.8466 -1.3959
   47MOL0     H 6341   2.951   5.425   4.678 -0.6195 -3.3175  1.8947
   47MOL0     H 6342   3.806   5.695   4.853 -0.4260  0.3932  0.0265
   47MOL0     H 6343   3.914   5.853   4.996 -0.2616 -0.2709  1.5341
   47MOL0     H 6344   4.048   5.788   5.082  0.2873 -2.5738  0.5569
   47MOL0     H 6345   4.067   5.879   4.929 -1.8313  0.2707 -0.1050
   48MOL0     O 6346   6.827   1.606   8.874  0.1558  1.5221 -0.6697
   48MOL0     C 6347   6.791   1.506   8.935  0.0736  0.5350 -0.3416
   48MOL0     O 6348   6.880   1.398   8.954  0.0989  0.3084 -0.4733
   48MOL0     C 6349   7.008   1.419   8.966 -0.7460  0.0452 -0.1243
   48MOL0     C 6350   7.065   1.434   9.091  0.1146 -0.0922  0.8234
   48MOL0     C 6351   7.201   1.470   9.105  0.0561  0.4221 -0.0758
   48MOL0     C 6352   7.288   1.474   9.000  1.0260  0.2736  0.3424
   48MOL0     O 6353   7.419   1.520   9.018  0.3801  0.0136 -0.0396
   48MOL0     C 6354   7.509   1.490   8.918  0.0573 -0.2873  0.1905
   48MOL0     C 6355   7.638   1.493   8.999  0.3854  0.3722 -0.7524
   48MOL0     C 6356   7.761   1.440   8.925 -0.5125  0.7711  0.9033
   48MOL0     C 6357   7.830   1.556   8.849 -0.3177 -0.0487 -0.1546
   48MOL0     C 6358   7.954   1.521   8.765  0.2948  0.3141 -0.7673
   48MOL0     C 6359   7.924   1.471   8.629 -0.0816  0.5297  0.3517
   48MOL0     C 6360   8.064   1.447   8.570 -0.2047 -0.9010  0.7819
   48MOL0     C 6361   8.061   1.412   8.425  0.0700 -0.1992  0.4321
   48MOL0     N 6362   8.202   1.410   8.382 -0.1910 -0.2123  0.5285
   48MOL0     C 6363   8.296   1.314   8.411 -0.9984  0.4809 -0.1250
   48MOL0     C 6364   8.412   1.359   8.354 -0.7524 -0.1025 -0.4743
   48MOL0     C 6365   8.548   1.289   8.355  0.6106 -0.0456  1.0201
   48MOL0     C 6366   8.641   1.349   8.447 -0.0950 -0.2856  0.0959
   48MOL0     C 6367   8.783   1.284   8.443  0.1339 -0.3275  0.5388
   48MOL0     C 6368   8.869   1.364   8.545  0.2952 -0.0392  0.4052
   48MOL0     O 6369   9.002   1.308   8.548 -0.1409 -0.5600 -0.4957
   48MOL0     C 6370   9.090   1.365   8.639  1.0854  0.5618 -0.4098
   48MOL0     C 6371   9.210   1.295   8.661 -0.0932 -0.7653  0.5881
   48MOL0     C 6372   9.311   1.351   8.747 -0.2426  0.4023 -0.2209
   48MOL0     C 6373   9.290   1.481   8.807 -0.5436  0.8977 -0.1244
   48MOL0     C 6374   9.403   1.529   8.891 -0.0623 -0.5148  0.8084
   48MOL0     O 6375   9.534   1.482   8.860  0.1437 -0.6797  0.0219
   48MOL0     C 6376   9.638   1.538   8.931  0.9131 -1.8059  0.2208
   48MOL0     C 6377   9.667   1.670   8.921 -0.4352 -0.7863 -0.0398
   48MOL0     C 6378   9.769   1.726   8.998  0.4425 -0.3432 -0.3728
   48MOL0     C 6379   9.853   1.653   9.085  1.0638 -0.1633  0.5340
   48MOL0     O 6380   9.940   1.704   9.173 -0.1671  0.3254 -0.8982
   48MOL0     C 6381  10.011   1.827   9.149  0.7246  0.5761  0.5929
   48MOL0     C 6382  10.142   1.837   9.231  0.0904  1.0795 -0.5909
   48MOL0     C 6383  10.254   1.756   9.162  0.1705 -0.4107 -0.5449
   48MOL0     C 6384  10.343   1.857   9.083  0.0801 -0.1818 -1.1012
   48MOL0     C 6385  10.466   1.802   9.018  0.2780  0.4939  0.2950
   48MOL0     C 6386  10.546   1.705   9.113 -0.6599 -0.0995 -0.7762
   48MOL0     C 6387  10.680   1.678   9.053  0.6735 -0.1853  0.8713
   48MOL0     C 6388  10.792   1.773   9.099 -0.4786  0.1892 -0.2290
   48MOL0    Cl 6389  10.810   1.756   9.281 -0.1929  0.3187 -0.4165
   48MOL0     C 6390   9.808   1.522   9.094 -1.3540 -0.2535  0.4294
   48MOL0     C 6391   9.711   1.464   9.016 -0.2226  1.1457  0.6159
   48MOL0     O 6392   9.368   1.600   8.984 -0.1410  0.4948  0.1810
   48MOL0     C 6393   9.168   1.543   8.792 -1.2002  0.2311  0.6651
   48MOL0     C 6394   9.066   1.476   8.726 -0.1490 -0.5327 -1.0374
   48MOL0     N 6395   8.380   1.484   8.299 -0.0642 -0.0152  0.3496
   48MOL0     N 6396   8.256   1.519   8.314  0.1801 -0.2357 -0.8117
   48MOL0     C 6397   7.223   1.452   8.873  0.3020 -0.4409 -0.4027
   48MOL0     C 6398   7.088   1.426   8.854 -0.6367  0.8244 -0.0904
   48MOL0     C 6399   6.644   1.473   8.964 -0.6345  0.3342 -0.1818
   48MOL0     C 6400   6.608   1.338   8.954 -0.2333 -0.6494 -0.2079
   48MOL0     C 6401   6.483   1.301   8.980 -0.1781  1.2814  0.1307
   48MOL0     C 6402   6.384   1.390   9.016 -0.2221 -0.3529  0.3947
   48MOL0     O 6403   6.264   1.333   9.052  0.3405  0.1044  0.0288
   48MOL0     C 6404   6.160   1.417   9.113  0.1642 -0.3248 -0.0133
   48MOL0     C 6405   6.080   1.326   9.206 -0.5165  0.4274  0.1137
   48MOL0     C 6406   6.167   1.276   9.324  0.0463  0.2902 -0.5895
   48MOL0     C 6407   6.101   1.178   9.419 -0.3179 -1.2426  0.3266
   48MOL0     C 6408   6.080   1.055   9.344  0.2063 -1.2050  0.8589
   48MOL0     C 6409   6.070   0.946   9.290  0.0149  0.3022  0.0749
   48MOL0     C 6410   6.414   1.534   9.016 -0.1109  0.6931  0.0801
   48MOL0     C 6411   6.544   1.570   9.000 -0.4532  0.3570 -0.4319
   48MOL0     C 6412   6.567   1.721   8.997  0.3511 -0.3960  0.0759
   48MOL0     H 6413   7.003   1.411   9.177  0.8172  0.4727  1.4900
   48MOL0     H 6414   7.247   1.480   9.203  3.7566 -1.6737 -1.4012
   48MOL0     H 6415   7.482   1.399   8.864 -0.2541 -0.9007  1.3532
   48MOL0     H 6416   7.514   1.573   8.846  1.3246 -0.4896  0.0263
   48MOL0     H 6417   7.635   1.415   9.075 -1.3710  2.5504  1.5774
   48MOL0     H 6418   7.651   1.588   9.052 -0.3832 -0.0693  0.2533
   48MOL0     H 6419   7.727   1.364   8.853 -2.8555  0.7369  1.9357
   48MOL0     H 6420   7.834   1.389   8.989  2.8818  2.4550 -1.3466
   48MOL0     H 6421   7.750   1.592   8.783 -1.6871 -1.2645  0.7821
   48MOL0     H 6422   7.865   1.631   8.921 -0.0397 -1.2783  1.0535
   48MOL0     H 6423   8.008   1.615   8.754  2.3578 -0.5140  1.4418
   48MOL0     H 6424   8.029   1.455   8.810 -0.3627 -0.1005 -0.2618
   48MOL0     H 6425   7.866   1.378   8.626  0.1957  0.3653 -0.0451
   48MOL0     H 6426   7.876   1.543   8.561 -0.1778  0.7946  0.6977
   48MOL0     H 6427   8.107   1.364   8.627  0.7826  0.3571  1.9432
   48MOL0     H 6428   8.120   1.540   8.586  0.7256 -1.4272  0.6139
   48MOL0     H 6429   8.006   1.318   8.413 -0.2785 -0.3701  2.8628
   48MOL0     H 6430   8.004   1.494   8.381  0.0489 -1.0178 -1.1455
   48MOL0     H 6431   8.280   1.219   8.462 -1.9120  1.0576  0.7009
   48MOL0     H 6432   8.537   1.183   8.379 -0.5942 -0.2356 -0.2495
   48MOL0     H 6433   8.588   1.300   8.254  0.5603 -2.0031  0.7425
   48MOL0     H 6434   8.662   1.454   8.422  3.7551 -1.2489 -1.3632
   48MOL0     H 6435   8.589   1.348   8.544 -1.4370 -0.5315 -0.6036
   48MOL0     H 6436   8.824   1.284   8.342 -1.4002  3.4817 -0.2504
   48MOL0     H 6437   8.774   1.182   8.484  0.7952 -0.5080  0.2497
   48MOL0     H 6438   8.819   1.357   8.642 -1.7674  0.3880 -0.5604
   48MOL0     H 6439   8.877   1.470   8.516 -1.6462 -0.6998 -3.2599
   48MOL0     H 6440   9.239   1.205   8.608  0.4846 -1.1755  1.5808
   48MOL0     H 6441   9.404   1.296   8.757  1.2720  2.6789 -0.8763
   48MOL0     H 6442   9.595   1.721   8.859  0.4401 -0.3671 -0.7369
   48MOL0     H 6443   9.788   1.833   9.009  0.7126 -0.6046  2.4174
   48MOL0     H 6444  10.033   1.835   9.042 -2.4287  0.5678 -0.1591
   48MOL0     H 6445   9.937   1.904   9.172 -3.3015 -2.4271 -1.0158
   48MOL0     H 6446  10.169   1.942   9.248 -3.1381  2.0250 -0.6626
   48MOL0     H 6447  10.119   1.807   9.334 -0.8348  3.9517  0.1100
   48MOL0     H 6448  10.313   1.716   9.246 -1.1841  0.8897  1.0943
   48MOL0     H 6449  10.211   1.668   9.114 -3.6534 -1.0725  3.4345
   48MOL0     H 6450  10.378   1.928   9.159 -0.4578 -1.3432  0.2882
   48MOL0     H 6451  10.284   1.912   9.009 -0.5650  1.5346  0.5961
   48MOL0     H 6452  10.528   1.881   8.976  1.7262 -0.3711  0.7259
   48MOL0     H 6453  10.422   1.741   8.937  1.3980  1.0978 -0.7964
   48MOL0     H 6454  10.565   1.746   9.212 -3.3030 -1.3190  0.3277
   48MOL0     H 6455  10.489   1.614   9.131  0.1900 -0.0021  3.3473
   48MOL0     H 6456  10.670   1.681   8.944 -3.2713  1.7718  1.1012
   48MOL0     H 6457  10.721   1.580   9.077  1.8014 -0.0485 -0.3747
   48MOL0     H 6458  10.890   1.746   9.058 -1.2018 -0.1151 -1.8354
   48MOL0     H 6459  10.763   1.877   9.085  0.0817  0.5566  1.1104
   48MOL0     H 6460   9.861   1.455   9.161  0.3350  0.8553  0.2596
   48MOL0     H 6461   9.700   1.358   9.033 -0.2607  1.5684  3.7889
   48MOL0     H 6462   9.137   1.638   8.833  0.5726  0.3344  1.8867
   48MOL0     H 6463   8.964   1.513   8.722 -0.8746 -2.4773 -2.5924
   48MOL0     H 6464   7.278   1.461   8.780  0.9448  2.4370  0.1585
   48MOL0     H 6465   7.046   1.400   8.758 -3.0902 -0.7741  1.2992
   48MOL0     H 6466   6.681   1.265   8.919  0.2259  0.0388 -0.7132
   48MOL0     H 6467   6.452   1.198   8.969  1.1126  0.8892 -0.0519
   48MOL0     H 6468   6.089   1.450   9.036 -0.5240 -2.1728 -0.2136
   48MOL0     H 6469   6.204   1.502   9.166  0.6096  0.8540 -2.1613
   48MOL0     H 6470   6.040   1.250   9.138 -2.9172  0.4518  1.3836
   48MOL0     H 6471   5.993   1.372   9.254 -0.8274 -3.0671  3.4473
   48MOL0     H 6472   6.212   1.357   9.382 -0.8378 -1.3647  2.6172
   48MOL0     H 6473   6.249   1.217   9.282 -0.0531  1.3598 -2.3983
   48MOL0     H 6474   6.170   1.153   9.500 -0.0173 -0.1469  0.4286
   48MOL0     H 6475   6.012   1.227   9.458  2.5451  3.0596  2.2962
   48MOL0     H 6476   6.073   0.854   9.235 -0.9709  1.9740 -2.9951
   48MOL0     H 6477   6.335   1.604   9.045  1.7143  1.7920  2.7695
   48MOL0     H 6478   6.469   1.766   9.018 -1.1309 -2.1668 -2.5432
   48MOL0     H 6479   6.633   1.744   9.082 -1.0321  1.7796  0.6438
   48MOL0     H 6480   6.616   1.748   8.903  2.6199  0.7485  1.4983
   49MOL0     O 6481   8.539   9.230   8.080 -0.2393 -0.3958  0.1401
   49MOL0     C 6482   8.452   9.309   8.051 -0.4574  0.5333  0.2718
   49MOL0     O 6483   8.474   9.442   8.019  0.6842 -0.8442  0.1750
   49MOL0     C 6484   8.581   9.488   7.948  0.6345  0.6841 -0.0591
   49MOL0     C 6485   8.548   9.561   7.834 -1.0799 -1.0710 -0.3391
   49MOL0     C 6486   8.654   9.598   7.750 -0.1513  0.3340  0.7367
   49MOL0     C 6487   8.788   9.561   7.774 -0.6361 -0.6082  0.4330
   49MOL0     O 6488   8.892   9.596   7.699  0.3429  0.1049  0.6923
   49MOL0     C 6489   8.869   9.650   7.570  0.5746 -0.1046  0.1940
   49MOL0     C 6490   9.000   9.647   7.500  0.0273 -0.3270 -0.1832
   49MOL0     C 6491   9.092   9.764   7.540  0.1086  0.1651  0.4836
   49MOL0     C 6492   9.205   9.789   7.446 -0.7837  0.5277  0.2621
   49MOL0     C 6493   9.337   9.826   7.512 -0.2427 -0.0154 -0.4035
   49MOL0     C 6494   9.330   9.974   7.568 -0.1129  0.3713  0.3151
   49MOL0     C 6495   9.434   9.987   7.682  0.9696  0.1278 -0.7316
   49MOL0     C 6496   9.436  10.140   7.721 -0.5644  0.1878 -0.7781
   49MOL0     N 6497   9.499  10.157   7.861  0.4125 -0.2839 -0.2847
   49MOL0     C 6498   9.568  10.271   7.893 -0.3499 -0.7919 -1.1002
   49MOL0     C 6499   9.573  10.274   8.032  0.6708  1.0994 -0.1960
   49MOL0     C 6500   9.625  10.390   8.116 -0.2350  0.0801  0.0116
   49MOL0     C 6501   9.754  10.347   8.189 -0.3312 -0.2583 -1.2562
   49MOL0     C 6502   9.813  10.461   8.279 -0.3678 -0.7571 -0.2505
   49MOL0     C 6503   9.930  10.412   8.371  0.2199  0.4584  0.4334
   49MOL0     O 6504  10.034  10.356   8.293 -0.7487 -1.3281  0.4040
   49MOL0     C 6505  10.150  10.320   8.351  0.2173 -0.4062 -0.1578
   49MOL0     C 6506  10.184  10.331   8.486 -0.1245  0.4802  0.2471
   49MOL0     C 6507  10.316  10.288   8.528 -0.6072 -1.1104  0.2581
   49MOL0     C 6508  10.413  10.232   8.444 -1.0730 -0.5644 -0.1862
   49MOL0     C 6509  10.549  10.182   8.478  0.2924  0.4248  0.0167
   49MOL0     O 6510  10.592  10.225   8.602 -0.0875  0.3609 -0.2955
   49MOL0     C 6511  10.726  10.231   8.630 -0.7369 -0.2601 -0.9318
   49MOL0     C 6512  10.839  10.174   8.577  0.2255 -0.4412  0.3652
   49MOL0     C 6513  10.973  10.203   8.622  0.7941 -0.7524  0.3361
   49MOL0     C 6514  10.992  10.292   8.731 -0.7102  0.4385  0.9349
   49MOL0     O 6515  11.119  10.287   8.789 -0.6066 -0.2293 -0.0132
   49MOL0     C 6516  11.156  10.395   8.859 -0.3839 -0.1237  0.0209
   49MOL0     C 6517  11.296  10.375   8.919  0.3848 -0.1598 -0.1111
   49MOL0     C 6518  11.372  10.508   8.937 -0.7254  0.4706 -0.0662
   49MOL0     C 6519  11.524  10.489   8.985  0.7221 -0.1741 -0.7572
   49MOL0     C 6520  11.609  10.597   8.915  0.1032  1.0070 -0.0522
   49MOL0     C 6521  11.726  10.633   9.004  0.1485  0.1898 -0.5961
   49MOL0     C 6522  11.837  10.520   9.007 -0.4176  0.3390  0.9126
   49MOL0     C 6523  11.943  10.545   9.103 -0.5515 -0.2986  0.3130
   49MOL0    Cl 6524  12.074  10.421   9.068 -0.1516 -0.3188 -0.2339
   49MOL0     C 6525  10.878  10.341   8.798 -0.7650 -0.6051  0.4903
   49MOL0     C 6526  10.749  10.312   8.744 -0.2612  0.0621  1.2624
   49MOL0     O 6527  10.620  10.129   8.387  0.5858 -1.0253  0.4754
   49MOL0     C 6528  10.375  10.225   8.308  0.4070 -0.4166 -0.4901
   49MOL0     C 6529  10.248  10.268   8.264  0.3139 -1.1355  0.0868
   49MOL0     N 6530   9.503  10.164   8.080 -0.6096  0.0931 -0.3823
   49MOL0     N 6531   9.453  10.094   7.973 -0.2788  0.1732  0.6112
   49MOL0     C 6532   8.814   9.486   7.884 -0.4184 -0.0954  0.0392
   49MOL0     C 6533   8.712   9.452   7.969 -0.9170  0.2718  0.1895
   49MOL0     C 6534   8.313   9.265   8.053  0.1373  1.1195 -0.5837
   49MOL0     C 6535   8.217   9.359   8.072  0.1999 -1.0808 -0.2331
   49MOL0     C 6536   8.083   9.338   8.074  0.1953  0.1465 -0.0214
   49MOL0     C 6537   8.037   9.205   8.051 -0.6712  0.0846 -0.6671
   49MOL0     O 6538   7.906   9.190   8.068  0.2901  0.2786 -0.0903
   49MOL0     C 6539   7.864   9.083   8.153  0.0448 -0.4603  0.0132
   49MOL0     C 6540   7.919   9.080   8.300 -1.0360 -0.4451 -0.2239
   49MOL0     C 6541   7.879   8.947   8.362 -0.7744 -0.7922 -0.2625
   49MOL0     C 6542   7.951   8.936   8.507 -0.0748 -0.1681  0.5584
   49MOL0     C 6543   8.100   8.915   8.491  1.5353  0.4303 -0.3596
   49MOL0     C 6544   8.220   8.887   8.475  0.1655 -0.4891 -0.5979
   49MOL0     C 6545   8.130   9.111   8.030  0.1068  0.5553  0.4367
   49MOL0     C 6546   8.264   9.138   8.033  0.5662  0.7155 -0.1750
   49MOL0     C 6547   8.356   9.017   8.034  0.7896 -0.4910 -0.1660
   49MOL0     H 6548   8.449   9.583   7.794 -0.3887  4.3249  0.1133
   49MOL0     H 6549   8.627   9.651   7.659 -2.2216 -0.7943  0.6220
   49MOL0     H 6550   8.795   9.597   7.510  0.3571 -0.1884  0.5307
   49MOL0     H 6551   8.835   9.754   7.580  0.9776 -0.0783  1.5299
   49MOL0     H 6552   8.981   9.648   7.392 -1.1441 -1.2855 -0.0031
   49MOL0     H 6553   9.038   9.546   7.520  0.1897 -0.1099  0.6242
   49MOL0     H 6554   9.123   9.744   7.643  0.4701  0.0543  0.3541
   49MOL0     H 6555   9.034   9.856   7.548 -2.0362 -0.8923 -1.7998
   49MOL0     H 6556   9.233   9.699   7.390  1.0002  0.8809  0.5351
   49MOL0     H 6557   9.155   9.862   7.382 -2.1065 -0.3463  0.2617
   49MOL0     H 6558   9.358   9.765   7.601 -0.0372  0.8519  0.1644
   49MOL0     H 6559   9.424   9.801   7.451 -1.6466  0.4764 -2.6857
   49MOL0     H 6560   9.361  10.055   7.501  2.2529 -1.9961 -1.6877
   49MOL0     H 6561   9.236  10.004   7.614 -0.0611  0.4226  0.3890
   49MOL0     H 6562   9.534   9.948   7.666  1.5904  0.0710  2.5568
   49MOL0     H 6563   9.385   9.942   7.769  1.2960  0.8825 -0.1432
   49MOL0     H 6564   9.483  10.205   7.646  3.3544 -0.1285  1.1276
   49MOL0     H 6565   9.333  10.170   7.739 -0.7029 -1.5101  1.8932
   49MOL0     H 6566   9.618  10.347   7.833  1.7012  2.0862  3.6579
   49MOL0     H 6567   9.634  10.479   8.053 -0.6617  0.4008  0.3927
   49MOL0     H 6568   9.551  10.412   8.194 -0.6963  0.8748 -0.6225
   49MOL0     H 6569   9.740  10.252   8.242 -0.1143 -0.3471 -1.3576
   49MOL0     H 6570   9.829  10.316   8.116  1.8000  0.7436  0.4014
   49MOL0     H 6571   9.741  10.486   8.357  2.5215 -1.9551  3.0824
   49MOL0     H 6572   9.842  10.552   8.227 -1.7613 -0.4263 -0.4863
   49MOL0     H 6573   9.886  10.330   8.428  2.0805 -0.2591  0.9142
   49MOL0     H 6574   9.966  10.488   8.441  1.5184 -0.5766  0.9452
   49MOL0     H 6575  10.114  10.353   8.565 -2.5665 -0.8548 -1.4265
   49MOL0     H 6576  10.340  10.299   8.633 -1.8363 -3.2025  0.8147
   49MOL0     H 6577  10.844  10.096   8.501 -0.5791 -3.5214  3.2457
   49MOL0     H 6578  11.057  10.149   8.580  1.8628 -0.1604  1.6491
   49MOL0     H 6579  11.166  10.481   8.792  0.0938 -0.4311 -0.3073
   49MOL0     H 6580  11.084  10.408   8.940 -2.4134 -1.9943 -1.3784
   49MOL0     H 6581  11.278  10.335   9.019 -2.9669  0.7817 -0.2150
   49MOL0     H 6582  11.356  10.309   8.855  2.3757  0.7999  0.7063
   49MOL0     H 6583  11.373  10.557   8.839 -0.7864  2.8426  1.0609
   49MOL0     H 6584  11.321  10.584   8.997  0.0155  1.2806 -0.4349
   49MOL0     H 6585  11.564  10.391   8.958  1.1419 -0.5946  1.1948
   49MOL0     H 6586  11.528  10.485   9.094 -0.5457  1.6408 -0.5756
   49MOL0     H 6587  11.553  10.689   8.894 -1.8913 -0.1027  0.0706
   49MOL0     H 6588  11.642  10.549   8.823 -2.1523  0.5878 -0.7126
   49MOL0     H 6589  11.774  10.728   8.980  0.1615  1.3086  3.2306
   49MOL0     H 6590  11.688  10.644   9.106 -0.4415  1.4451 -0.9387
   49MOL0     H 6591  11.869  10.507   8.903  1.2528  2.6119  1.0590
   49MOL0     H 6592  11.796  10.425   9.043  1.4641  0.2039  2.9421
   49MOL0     H 6593  11.986  10.645   9.091 -2.2646  0.2535 -1.9721
   49MOL0     H 6594  11.904  10.542   9.205 -3.6320 -2.1741 -0.7716
   49MOL0     H 6595  10.878  10.391   8.895 -2.5329  0.2074  0.1081
   49MOL0     H 6596  10.666  10.363   8.793 -2.2101 -0.7507 -0.9876
   49MOL0     H 6597  10.448  10.178   8.244  0.9933  1.2754 -1.1103
   49MOL0     H 6598  10.220  10.254   8.160  0.0943  1.4971 -0.2751
   49MOL0     H 6599   8.915   9.455   7.907 -0.4747 -0.7721 -0.5984
   49MOL0     H 6600   8.746   9.387   8.049  0.6178 -4.0537 -3.5536
   49MOL0     H 6601   8.252   9.460   8.093 -0.2423 -0.9587 -0.0444
   49MOL0     H 6602   8.009   9.416   8.087 -1.3076 -0.5095 -3.5508
   49MOL0     H 6603   7.866   8.985   8.105  0.9181 -0.0520 -0.8142
   49MOL0     H 6604   7.757   9.106   8.162  0.6583  1.7854  3.2669
   49MOL0     H 6605   7.884   9.164   8.361  0.3184 -0.5473  0.7457
   49MOL0     H 6606   8.027   9.099   8.309 -0.9113 -0.0381 -2.1038
   49MOL0     H 6607   7.936   8.873   8.306  1.9340  1.7135 -1.1318
   49MOL0     H 6608   7.771   8.933   8.371 -0.9346 -0.8464 -2.0311
   49MOL0     H 6609   7.928   9.028   8.562  2.1159  0.6029  0.2743
   49MOL0     H 6610   7.911   8.848   8.558  0.8014 -0.6409  0.4424
   49MOL0     H 6611   8.324   8.865   8.462  0.7485 -0.1316  2.6656
   49MOL0     H 6612   8.105   9.006   8.021  1.9354  0.2115 -1.2441
   49MOL0     H 6613   8.298   8.929   8.003  2.1891 -0.8591 -1.8501
   49MOL0     H 6614   8.425   9.039   7.953 -1.5818  0.0554 -2.1701
   49MOL0     H 6615   8.405   9.000   8.131  0.7840  2.2653  0.4185
   50MOL0     O 6616   7.889   4.937  10.497  1.2412  0.1152  0.0878
   50MOL0     C 6617   7.920   5.053  10.499  0.2543 -0.4038 -0.3545
   50MOL0     O 6618   7.834   5.165  10.491 -0.2860  0.3939 -0.1368
   50MOL0     C 6619   7.700   5.145  10.512 -0.2717  0.2977  0.6914
   50MOL0     C 6620   7.639   5.126  10.637 -0.3717  0.1540  0.1979
   50MOL0     C 6621   7.500   5.117  10.651 -0.4913  0.5049 -0.6007
   50MOL0     C 6622   7.419   5.136  10.533 -0.2286  0.3069 -0.1231
   50MOL0     O 6623   7.284   5.146  10.542 -0.6496 -0.2206  0.7299
   50MOL0     C 6624   7.210   5.133  10.669 -0.0398 -0.6646 -0.1391
   50MOL0     C 6625   7.179   5.268  10.733  0.4634  1.0179 -0.0925
   50MOL0     C 6626   7.290   5.356  10.782 -0.3318  0.2903 -0.3054
   50MOL0     C 6627   7.244   5.486  10.846  0.9060  0.3058  0.2687
   50MOL0     C 6628   7.197   5.591  10.754  0.2867  0.7154  0.0298
   50MOL0     C 6629   7.125   5.696  10.841 -0.4726 -0.1660 -0.1205
   50MOL0     C 6630   7.119   5.821  10.759  0.2715  0.8397  0.0646
   50MOL0     C 6631   7.043   5.940  10.828 -0.7144  0.0513 -0.0600
   50MOL0     N 6632   7.102   5.999  10.944 -0.2723  0.1263 -0.0139
   50MOL0     C 6633   7.232   6.012  10.970 -0.2589  0.0511 -1.1503
   50MOL0     C 6634   7.236   6.076  11.089  0.6200 -0.1083  0.4985
   50MOL0     C 6635   7.343   6.122  11.174  0.4397 -0.2373 -0.7166
   50MOL0     C 6636   7.406   6.005  11.248  0.0103 -0.4040  0.1594
   50MOL0     C 6637   7.496   5.911  11.160 -0.3504 -0.3603 -0.2713
   50MOL0     C 6638   7.588   5.823  11.245  0.3243 -0.5569 -0.0887
   50MOL0     O 6639   7.682   5.910  11.314 -0.1710  0.7009  0.5073
   50MOL0     C 6640   7.794   5.846  11.357 -0.3744  0.3309 -0.0702
   50MOL0     C 6641   7.892   5.796  11.269  0.3767 -0.5924 -0.5861
   50MOL0     C 6642   8.011   5.742  11.320  0.7009 -1.0457 -0.5177
   50MOL0     C 6643   8.030   5.731  11.464  0.4680  0.1561  0.9509
   50MOL0     C 6644   8.153   5.669  11.524 -0.1683 -0.7169  0.6499
   50MOL0     O 6645   8.261   5.647  11.439 -0.4017  0.0463 -0.0085
   50MOL0     C 6646   8.366   5.563  11.477 -0.4184 -0.2865  0.0818
   50MOL0     C 6647   8.457   5.544  11.374 -0.2509  0.5787 -0.7474
   50MOL0     C 6648   8.562   5.455  11.382  0.5101 -0.3071 -0.1203
   50MOL0     C 6649   8.586   5.378  11.493 -0.2670  0.2723 -0.6082
   50MOL0     O 6650   8.684   5.279  11.481 -0.2548 -0.1449  0.6556
   50MOL0     C 6651   8.702   5.192  11.594  0.3554 -0.2570 -0.0656
   50MOL0     C 6652   8.665   5.048  11.564  0.5581 -0.2329 -0.6558
   50MOL0     C 6653   8.794   4.978  11.516  0.8439 -0.2044 -0.0289
   50MOL0     C 6654   8.763   4.831  11.490  0.2561 -0.3971  0.3956
   50MOL0     C 6655   8.892   4.748  11.499  0.2927  0.1288  0.3894
   50MOL0     C 6656   8.994   4.795  11.392 -0.3651  0.1076 -0.3424
   50MOL0     C 6657   9.138   4.744  11.408  0.1097 -0.1667 -0.4387
   50MOL0     C 6658   9.197   4.814  11.527 -0.6462  1.0924 -0.1537
   50MOL0    Cl 6659   9.368   4.778  11.521  0.9013  0.0680 -0.1774
   50MOL0     C 6660   8.485   5.397  11.598 -0.0363  0.7400  0.1946
   50MOL0     C 6661   8.377   5.480  11.591  0.2052  0.4401 -0.1489
   50MOL0     O 6662   8.154   5.659  11.642 -0.4583  1.0352  0.1151
   50MOL0     C 6663   7.928   5.784  11.548  0.1655  0.2696 -0.0042
   50MOL0     C 6664   7.818   5.849  11.496  0.4488  0.2043  0.3318
   50MOL0     N 6665   7.104   6.111  11.129 -0.5287  0.2271  0.3694
   50MOL0     N 6666   7.030   6.053  11.042 -0.6841  0.5992 -0.5439
   50MOL0     C 6667   7.480   5.143  10.406 -0.2753 -0.8069 -0.0623
   50MOL0     C 6668   7.618   5.143  10.394 -0.0062 -0.1532 -0.1972
   50MOL0     C 6669   8.060   5.083  10.483 -0.1691  0.2080 -0.5997
   50MOL0     C 6670   8.095   5.153  10.369 -0.1291 -0.5467 -0.5340
   50MOL0     C 6671   8.225   5.185  10.348  0.2208  0.0042  0.0833
   50MOL0     C 6672   8.323   5.146  10.438  0.0865  0.6666 -0.2669
   50MOL0     O 6673   8.457   5.178  10.403 -0.3101 -0.1198 -0.7485
   50MOL0     C 6674   8.565   5.133  10.487 -0.1147 -0.7634 -0.0083
   50MOL0     C 6675   8.690   5.205  10.433  0.4158  0.6870 -0.7170
   50MOL0     C 6676   8.833   5.147  10.484  0.7792  0.2626  0.5832
   50MOL0     C 6677   8.945   5.245  10.456  0.5059  0.0756 -0.1080
   50MOL0     C 6678   8.990   5.225  10.312 -0.5691 -0.4242  0.1598
   50MOL0     C 6679   9.036   5.218  10.195  0.3628  0.1519 -0.7853
   50MOL0     C 6680   8.284   5.078  10.552 -0.1528  0.6856  0.0321
   50MOL0     C 6681   8.154   5.038  10.577  0.0127 -0.5671 -0.6330
   50MOL0     C 6682   8.118   4.959  10.691  0.4456  0.8295 -0.7843
   50MOL0     H 6683   7.701   5.117  10.726  0.4055 -0.2230 -0.3670
   50MOL0     H 6684   7.465   5.115  10.753  2.3192 -0.6882  0.4207
   50MOL0     H 6685   7.112   5.094  10.639  0.5972 -1.4730 -1.1966
   50MOL0     H 6686   7.245   5.065  10.747 -3.7551 -1.9089  0.6742
   50MOL0     H 6687   7.117   5.241  10.819  3.0650 -2.1663  1.0038
   50MOL0     H 6688   7.129   5.326  10.656  0.0549  4.1492  2.3595
   50MOL0     H 6689   7.357   5.386  10.701 -0.0268  0.3039 -0.0463
   50MOL0     H 6690   7.347   5.304  10.859  0.2891  2.1922  0.5632
   50MOL0     H 6691   7.172   5.469  10.926  1.2841  3.0631  1.3316
   50MOL0     H 6692   7.339   5.523  10.886  1.0322  1.3466 -0.8921
   50MOL0     H 6693   7.274   5.629  10.686 -0.6618 -1.1082 -2.2324
   50MOL0     H 6694   7.118   5.547  10.692  0.1288  1.7848 -0.5568
   50MOL0     H 6695   7.031   5.667  10.890 -1.5189  3.2565  0.1440
   50MOL0     H 6696   7.199   5.711  10.920 -0.5484  1.5554 -0.3406
   50MOL0     H 6697   7.063   5.794  10.669 -0.5226  0.6103  0.6152
   50MOL0     H 6698   7.218   5.852  10.723  0.7426 -0.8387 -0.1612
   50MOL0     H 6699   7.017   6.022  10.760  1.0327  1.9499  1.4317
   50MOL0     H 6700   6.954   5.888  10.865  0.1241 -1.9682 -0.7286
   50MOL0     H 6701   7.317   5.967  10.920  1.7012 -0.5441  2.4297
   50MOL0     H 6702   7.425   6.173  11.123 -2.3384  2.5698 -2.8489
   50MOL0     H 6703   7.321   6.203  11.245 -2.3195 -0.3225 -1.3424
   50MOL0     H 6704   7.483   6.049  11.312  1.4240 -1.9457 -0.4119
   50MOL0     H 6705   7.330   5.953  11.307 -2.7134 -0.5890 -3.1922
   50MOL0     H 6706   7.565   5.965  11.095 -1.5777  1.7087  0.0391
   50MOL0     H 6707   7.425   5.852  11.101  1.0027  0.0496 -2.4088
   50MOL0     H 6708   7.637   5.755  11.175  2.2485 -1.2066  1.7875
   50MOL0     H 6709   7.542   5.765  11.325  2.7165  0.1751  1.9399
   50MOL0     H 6710   7.882   5.824  11.165 -0.7836  2.5854  0.2657
   50MOL0     H 6711   8.087   5.699  11.255  1.1416 -0.3532 -0.4646
   50MOL0     H 6712   8.449   5.611  11.289  1.2597  4.6329  1.9897
   50MOL0     H 6713   8.643   5.440  11.313  1.4014 -1.0130  1.0467
   50MOL0     H 6714   8.808   5.199  11.620  0.1011 -0.9822  1.2666
   50MOL0     H 6715   8.654   5.227  11.686  1.1630  1.1206 -0.1387
   50MOL0     H 6716   8.631   4.997  11.654  0.0732  1.5943  0.2237
   50MOL0     H 6717   8.583   5.035  11.493 -0.8095  1.8029  0.4765
   50MOL0     H 6718   8.823   5.036  11.428  2.0776 -1.3637 -0.4132
   50MOL0     H 6719   8.872   4.989  11.592 -1.0522  2.2097  1.7755
   50MOL0     H 6720   8.716   4.818  11.392 -0.9951 -1.8504  1.1381
   50MOL0     H 6721   8.697   4.785  11.563 -0.3694 -1.0078 -0.5288
   50MOL0     H 6722   8.868   4.643  11.479  0.2061  0.5593 -2.0914
   50MOL0     H 6723   8.940   4.753  11.597 -0.1321  0.4255  0.5807
   50MOL0     H 6724   8.949   4.764  11.297  0.2626  2.2113 -1.3909
   50MOL0     H 6725   8.997   4.902  11.370  1.6447 -0.1322 -1.4767
   50MOL0     H 6726   9.195   4.771  11.318  0.2116 -1.9127 -0.9245
   50MOL0     H 6727   9.136   4.636  11.424 -1.4962  0.0291  0.9473
   50MOL0     H 6728   9.194   4.923  11.529 -0.1466  1.1032  0.1282
   50MOL0     H 6729   9.155   4.785  11.624 -1.2545 -1.3423 -1.0754
   50MOL0     H 6730   8.486   5.337  11.688 -4.4970  0.8528  0.5523
   50MOL0     H 6731   8.302   5.477  11.669 -1.4423 -0.7122 -1.6896
   50MOL0     H 6732   7.940   5.770  11.655  1.4619  2.7565  0.2564
   50MOL0     H 6733   7.734   5.888  11.552 -0.9794 -1.3617 -0.6354
   50MOL0     H 6734   7.415   5.160  10.321  1.3437 -0.5589 -1.3012
   50MOL0     H 6735   7.659   5.170  10.297  2.3478 -1.8680  0.2364
   50MOL0     H 6736   8.023   5.200  10.303 -0.1636  0.3014  0.0865
   50MOL0     H 6737   8.260   5.240  10.261  0.4318  2.3154  1.5432
   50MOL0     H 6738   8.570   5.024  10.478  0.1352 -0.7189 -0.4860
   50MOL0     H 6739   8.542   5.167  10.588 -1.1917  1.1526 -0.8379
   50MOL0     H 6740   8.683   5.312  10.454  2.0836  1.0394 -1.7135
   50MOL0     H 6741   8.697   5.199  10.324  1.3977 -1.4408 -0.5931
   50MOL0     H 6742   8.846   5.047  10.444  0.5569  0.8757 -1.0916
   50MOL0     H 6743   8.826   5.146  10.594 -2.5445  3.5299  0.6254
   50MOL0     H 6744   8.901   5.343  10.476 -0.0866 -0.2588  0.2255
   50MOL0     H 6745   9.028   5.225  10.524  1.0334  0.2069 -0.7032
   50MOL0     H 6746   9.076   5.221  10.096  2.8555 -2.3517  0.0147
   50MOL0     H 6747   8.361   5.034  10.614 -0.3425 -2.4892 -1.8090
   50MOL0     H 6748   8.021   4.988  10.734  0.6792 -0.2797  0.5549
   50MOL0     H 6749   8.116   4.851  10.674  2.4921  0.5600  0.3497
   50MOL0     H 6750   8.190   4.980  10.770 -0.1649 -1.9351  0.6421
   51MOL0     O 6751   0.900   8.895   2.296 -0.2332 -0.1169  0.5904
   51MOL0     C 6752   0.868   8.829   2.198 -0.3660  1.2916 -0.0391
   51MOL0     O 6753   0.961   8.760   2.124 -0.6692  1.0104  0.0368
   51MOL0     C 6754   1.093   8.761   2.163 -0.0398  0.0470 -0.1497
   51MOL0     C 6755   1.173   8.876   2.143 -0.6395 -1.1776  0.1444
   51MOL0     C 6756   1.308   8.879   2.182 -0.2540  0.2568  0.6505
   51MOL0     C 6757   1.361   8.760   2.250  0.7551  0.3669 -0.6448
   51MOL0     O 6758   1.493   8.746   2.281 -0.1111 -0.5749  0.5520
   51MOL0     C 6759   1.570   8.860   2.287  0.3402 -0.4522 -0.0025
   51MOL0     C 6760   1.719   8.851   2.315 -0.1780  0.5052 -0.1787
   51MOL0     C 6761   1.753   8.766   2.446 -0.1327  0.0750  0.0547
   51MOL0     C 6762   1.909   8.760   2.471  0.9046  0.5315 -1.0583
   51MOL0     C 6763   1.970   8.659   2.380 -0.5609  0.1975 -0.1783
   51MOL0     C 6764   2.119   8.624   2.425 -0.4239  0.0499  0.3679
   51MOL0     C 6765   2.178   8.519   2.332 -0.7994  0.1928  0.0907
   51MOL0     C 6766   2.317   8.467   2.377 -0.6937  0.9420 -0.2898
   51MOL0     N 6767   2.389   8.404   2.271 -0.5458 -0.3300  0.6579
   51MOL0     C 6768   2.398   8.451   2.139  0.0530  0.0613  0.0986
   51MOL0     C 6769   2.479   8.355   2.074 -0.4607 -0.3584 -0.3921
   51MOL0     C 6770   2.501   8.344   1.925 -0.2502  0.2830 -0.7842
   51MOL0     C 6771   2.638   8.288   1.892  0.4192  0.1055 -1.2294
   51MOL0     C 6772   2.762   8.367   1.926  0.3955 -0.2116  0.4161
   51MOL0     C 6773   2.899   8.304   1.920 -0.1214  0.3258 -0.1477
   51MOL0     O 6774   2.909   8.178   1.987 -0.5447  0.8120 -0.0632
   51MOL0     C 6775   3.015   8.099   1.955 -0.0422 -0.0011 -0.3549
   51MOL0     C 6776   3.143   8.151   1.923 -0.4911  0.2478 -0.1129
   51MOL0     C 6777   3.254   8.070   1.911 -0.7688 -0.3767  0.5192
   51MOL0     C 6778   3.235   7.928   1.897 -0.2166  0.4415 -0.4121
   51MOL0     C 6779   3.346   7.835   1.871  0.2365  0.5089 -0.5939
   51MOL0     O 6780   3.473   7.876   1.892 -0.7885  1.4070  0.6337
   51MOL0     C 6781   3.575   7.782   1.912 -0.1519  0.4291 -0.1904
   51MOL0     C 6782   3.575   7.639   1.928  0.3407 -1.2345  0.0467
   51MOL0     C 6783   3.695   7.567   1.935  0.1318 -0.2018 -0.4808
   51MOL0     C 6784   3.818   7.629   1.926  0.0150 -0.7664  0.0453
   51MOL0     O 6785   3.931   7.552   1.929 -0.1818 -0.0210  0.7150
   51MOL0     C 6786   4.046   7.618   1.981  0.0774  0.1131  0.2036
   51MOL0     C 6787   4.148   7.517   2.023 -0.3494  0.0066 -0.4336
   51MOL0     C 6788   4.255   7.564   2.130 -0.4555  0.5877 -0.4104
   51MOL0     C 6789   4.339   7.684   2.103  0.0213  0.1097 -0.5863
   51MOL0     C 6790   4.390   7.694   1.965  0.0359 -0.2061 -0.1898
   51MOL0     C 6791   4.488   7.578   1.927  0.0219  0.6730 -0.2731
   51MOL0     C 6792   4.559   7.599   1.801  0.3417 -0.5252  0.5932
   51MOL0     C 6793   4.685   7.519   1.797  0.8608 -0.0227  0.3975
   51MOL0    Cl 6794   4.775   7.563   1.655 -0.3279  0.4706 -0.0200
   51MOL0     C 6795   3.820   7.765   1.902  0.1611 -0.4253  0.5207
   51MOL0     C 6796   3.700   7.842   1.902  1.0382  0.3122 -0.9105
   51MOL0     O 6797   3.312   7.724   1.827 -0.6228  0.2276  0.7545
   51MOL0     C 6798   3.107   7.884   1.911  0.4963  0.1691 -0.3517
   51MOL0     C 6799   3.000   7.961   1.956 -0.0157  0.1634  0.1177
   51MOL0     N 6800   2.505   8.255   2.164  0.6131 -0.2510  0.8485
   51MOL0     N 6801   2.443   8.279   2.278 -0.0140  0.0482 -0.5124
   51MOL0     C 6802   1.279   8.648   2.267  0.4106 -0.1387  0.2033
   51MOL0     C 6803   1.144   8.645   2.226  0.5604 -0.2449 -0.3679
   51MOL0     C 6804   0.726   8.826   2.153  0.0513 -0.4195 -0.3072
   51MOL0     C 6805   0.700   8.700   2.097 -0.0282  0.3794  0.6774
   51MOL0     C 6806   0.574   8.655   2.069  0.4528 -1.1373  0.8371
   51MOL0     C 6807   0.461   8.741   2.102 -0.3997 -0.6438  0.2175
   51MOL0     O 6808   0.330   8.710   2.099  0.4196 -0.3714 -0.5752
   51MOL0     C 6809   0.292   8.566   2.115  0.2984 -0.3458  1.0884
   51MOL0     C 6810   0.256   8.482   1.993  1.1136 -0.3256  0.0539
   51MOL0     C 6811   0.132   8.511   1.906  0.2524 -0.5206 -0.1471
   51MOL0     C 6812   0.164   8.467   1.764 -0.0333  0.2927 -0.9570
   51MOL0     C 6813   0.053   8.491   1.678  0.5727 -0.2143  0.7497
   51MOL0     C 6814  -0.049   8.522   1.616 -0.1384  0.4138  1.1438
   51MOL0     C 6815   0.492   8.863   2.159  0.6086 -0.5668 -0.6077
   51MOL0     C 6816   0.619   8.912   2.187  0.0805  0.2829 -0.7936
   51MOL0     C 6817   0.637   9.041   2.249 -0.2240 -0.6180 -0.8554
   51MOL0     H 6818   1.129   8.960   2.089  3.2027  1.6208  0.9260
   51MOL0     H 6819   1.371   8.965   2.160  2.5520 -0.3600  4.9102
   51MOL0     H 6820   1.563   8.906   2.188 -0.4850  3.0447  1.5564
   51MOL0     H 6821   1.522   8.935   2.350  0.3582 -1.2365  0.9806
   51MOL0     H 6822   1.765   8.949   2.326 -0.5683  1.0778 -2.9510
   51MOL0     H 6823   1.770   8.799   2.233 -1.6058 -0.4961 -0.4765
   51MOL0     H 6824   1.711   8.666   2.432  1.2618 -0.4554 -0.5518
   51MOL0     H 6825   1.719   8.816   2.537 -1.7650  2.7600 -1.8841
   51MOL0     H 6826   1.950   8.862   2.465 -0.2194  1.5189  3.7850
   51MOL0     H 6827   1.935   8.720   2.569 -0.3196 -0.0326 -0.9502
   51MOL0     H 6828   1.902   8.574   2.392  0.7412 -0.6530  1.6241
   51MOL0     H 6829   1.970   8.696   2.277  0.3515 -0.2404 -0.3453
   51MOL0     H 6830   2.180   8.714   2.412 -1.0659  0.5111  0.5315
   51MOL0     H 6831   2.126   8.597   2.531 -0.4960  1.4267  0.7381
   51MOL0     H 6832   2.190   8.578   2.241  1.3736 -1.0432 -0.4869
   51MOL0     H 6833   2.114   8.431   2.323 -2.2482  1.2779 -0.7057
   51MOL0     H 6834   2.375   8.541   2.434 -0.6507 -0.1922  1.2137
   51MOL0     H 6835   2.312   8.396   2.460 -0.7406 -0.0503 -1.1326
   51MOL0     H 6836   2.350   8.537   2.094 -0.5097  0.1573  0.8557
   51MOL0     H 6837   2.421   8.284   1.881 -0.7194  0.2161  0.1440
   51MOL0     H 6838   2.493   8.447   1.889  2.1335  0.8182  0.0557
   51MOL0     H 6839   2.639   8.186   1.932  0.5558 -0.9317 -3.6839
   51MOL0     H 6840   2.631   8.274   1.783 -2.2712  1.3283 -1.2810
   51MOL0     H 6841   2.756   8.386   2.033  1.3918 -3.0144  1.0677
   51MOL0     H 6842   2.737   8.461   1.875 -2.4444  0.3543  2.6138
   51MOL0     H 6843   2.967   8.373   1.971  1.5329 -2.0131  1.0132
   51MOL0     H 6844   2.929   8.290   1.815 -0.4278 -0.5062 -0.1258
   51MOL0     H 6845   3.153   8.258   1.914 -3.7988  0.8634  1.7925
   51MOL0     H 6846   3.354   8.103   1.887 -0.6679 -1.4862 -0.6639
   51MOL0     H 6847   3.482   7.586   1.944 -2.4399  2.7581 -1.2943
   51MOL0     H 6848   3.711   7.460   1.944 -0.7567 -0.6424 -3.0711
   51MOL0     H 6849   4.092   7.682   1.904  0.6966 -2.4196 -1.6573
   51MOL0     H 6850   4.013   7.686   2.060 -2.4449  0.8432 -1.3431
   51MOL0     H 6851   4.091   7.433   2.063  1.7619 -0.8467  0.8993
   51MOL0     H 6852   4.196   7.476   1.934  0.6962 -3.4090  1.5548
   51MOL0     H 6853   4.203   7.581   2.225 -0.7886 -1.0527 -0.2535
   51MOL0     H 6854   4.323   7.478   2.137  0.6018  1.2562 -1.8793
   51MOL0     H 6855   4.418   7.673   2.177 -0.9212 -4.9276  0.0054
   51MOL0     H 6856   4.277   7.766   2.143 -0.8947 -0.9594  0.2472
   51MOL0     H 6857   4.441   7.790   1.956  0.1479 -0.0092  1.9867
   51MOL0     H 6858   4.306   7.691   1.895 -0.6100 -0.0109  0.5672
   51MOL0     H 6859   4.564   7.561   2.003 -0.3227 -0.4644 -0.1570
   51MOL0     H 6860   4.430   7.487   1.906  2.4035 -1.0196  0.1435
   51MOL0     H 6861   4.589   7.702   1.779  1.3947 -1.1172 -0.9447
   51MOL0     H 6862   4.496   7.573   1.717 -2.2963  0.9188  1.9819
   51MOL0     H 6863   4.744   7.555   1.882  2.0078  0.6902 -0.6729
   51MOL0     H 6864   4.662   7.412   1.800 -0.6104  0.1807 -1.6552
   51MOL0     H 6865   3.916   7.814   1.898 -0.6497  1.7038  3.5485
   51MOL0     H 6866   3.716   7.948   1.889  1.6423  0.4172  0.5007
   51MOL0     H 6867   3.090   7.777   1.898  1.6392  0.0965 -1.3815
   51MOL0     H 6868   2.908   7.915   1.990 -0.2109  0.8501  0.5396
   51MOL0     H 6869   1.334   8.567   2.314 -2.0742 -1.0843  1.6555
   51MOL0     H 6870   1.080   8.557   2.232  4.0236 -3.0161 -0.4660
   51MOL0     H 6871   0.775   8.627   2.068  0.9792  0.6371  2.4598
   51MOL0     H 6872   0.565   8.559   2.021  0.2438  0.4183 -2.4839
   51MOL0     H 6873   0.203   8.577   2.178  1.1005  2.3404  1.8946
   51MOL0     H 6874   0.373   8.520   2.174  1.3881  0.0757 -0.0383
   51MOL0     H 6875   0.255   8.373   2.010  0.2436 -0.6759 -1.9497
   51MOL0     H 6876   0.338   8.502   1.923  0.2743  2.8757 -0.1618
   51MOL0     H 6877   0.126   8.620   1.916  1.2431 -0.6723  2.7723
   51MOL0     H 6878   0.047   8.457   1.947  0.1936  0.1642  0.6456
   51MOL0     H 6879   0.258   8.511   1.730  0.6668 -2.0641 -2.2868
   51MOL0     H 6880   0.182   8.359   1.754  1.4066  0.4443 -0.1712
   51MOL0     H 6881  -0.138   8.529   1.557  0.0496 -2.0368  0.4843
   51MOL0     H 6882   0.413   8.928   2.194  0.7434 -0.9577  0.4580
   51MOL0     H 6883   0.543   9.097   2.247  0.0906 -0.0855 -0.9066
   51MOL0     H 6884   0.673   9.036   2.352 -2.0641 -0.0785 -0.1479
   51MOL0     H 6885   0.707   9.107   2.196  0.5053  1.3185  2.2879
   52MOL0     O 6886   6.780  10.578   1.031  0.4687 -0.9096 -0.7302
   52MOL0     C 6887   6.771  10.546   1.149 -0.0579  0.1071 -0.2375
   52MOL0     O 6888   6.866  10.498   1.229  0.2075  0.6324 -0.2485
   52MOL0     C 6889   6.991  10.503   1.188 -0.0305  0.0164  0.2010
   52MOL0     C 6890   7.045  10.377   1.152  0.5788 -0.2869 -0.0392
   52MOL0     C 6891   7.184  10.375   1.129  0.0006  0.2228  0.2248
   52MOL0     C 6892   7.255  10.493   1.113 -0.2182 -0.5757 -0.3945
   52MOL0     O 6893   7.389  10.493   1.092 -0.5755  0.1421 -0.2570
   52MOL0     C 6894   7.434  10.442   0.961  0.0341  0.5914  0.0964
   52MOL0     C 6895   7.470  10.543   0.855 -0.7096 -0.4117 -0.5621
   52MOL0     C 6896   7.601  10.617   0.875 -0.1051 -0.7718  0.2982
   52MOL0     C 6897   7.722  10.572   0.788  0.0105 -0.0936  0.2746
   52MOL0     C 6898   7.796  10.440   0.836  0.2782 -0.5041 -0.0030
   52MOL0     C 6899   7.906  10.396   0.734 -0.1115 -0.2480 -0.2191
   52MOL0     C 6900   7.964  10.267   0.797  0.0871  0.5804  0.5745
   52MOL0     C 6901   8.080  10.218   0.719  0.3054  0.4330  0.4792
   52MOL0     N 6902   8.163  10.130   0.802  0.1592  0.2593 -0.6466
   52MOL0     C 6903   8.115  10.020   0.874 -0.0114 -0.1380 -0.2687
   52MOL0     C 6904   8.215   9.954   0.930 -1.5449  0.5257 -0.8200
   52MOL0     C 6905   8.195   9.827   1.001  0.6389  0.0419  0.4664
   52MOL0     C 6906   8.157   9.703   0.920 -0.9382 -0.0209  0.1648
   52MOL0     C 6907   8.246   9.680   0.797 -0.3848  0.2368  0.2955
   52MOL0     C 6908   8.396   9.669   0.822  0.0730  0.2405  0.5348
   52MOL0     O 6909   8.420   9.570   0.923  0.1156 -0.6264 -0.4523
   52MOL0     C 6910   8.549   9.562   0.966 -0.6356 -0.0449  0.2465
   52MOL0     C 6911   8.602   9.646   1.071  0.0528 -0.8673 -0.1070
   52MOL0     C 6912   8.738   9.637   1.113  0.3978  0.0976 -0.1907
   52MOL0     C 6913   8.823   9.541   1.051  0.0870 -0.0151 -0.3980
   52MOL0     C 6914   8.967   9.529   1.104  0.2727 -1.1267  0.6235
   52MOL0     O 6915   8.996   9.599   1.223  0.0319  0.1169  0.7807
   52MOL0     C 6916   9.128   9.617   1.246 -0.0581 -0.9376 -0.1713
   52MOL0     C 6917   9.181   9.743   1.239 -0.5418  0.0196 -0.2183
   52MOL0     C 6918   9.311   9.757   1.274 -0.0885  0.1262 -0.0799
   52MOL0     C 6919   9.395   9.653   1.310 -0.6682  0.6482  0.2852
   52MOL0     O 6920   9.508   9.696   1.377  0.0309  0.1441 -0.2806
   52MOL0     C 6921   9.544   9.614   1.494 -0.4932 -0.5220  0.7701
   52MOL0     C 6922   9.631   9.683   1.590  0.2909 -0.0250  0.1201
   52MOL0     C 6923   9.757   9.731   1.530 -0.7780  0.2115 -0.5139
   52MOL0     C 6924   9.851   9.622   1.487  0.5738  0.4238  0.6268
   52MOL0     C 6925   9.987   9.686   1.443  0.5470 -0.2656 -0.1304
   52MOL0     C 6926  10.084   9.584   1.391  0.7185 -0.4664  0.2088
   52MOL0     C 6927  10.199   9.651   1.307  0.0038 -0.8142  0.1839
   52MOL0     C 6928  10.322   9.549   1.300  0.3200 -0.7058  0.3157
   52MOL0    Cl 6929  10.285   9.389   1.211 -0.3830  0.0922  0.0385
   52MOL0     C 6930   9.346   9.523   1.306 -0.1983  0.5641  0.2037
   52MOL0     C 6931   9.211   9.508   1.272 -0.1120 -0.3466  0.4574
   52MOL0     O 6932   9.042   9.452   1.044 -0.1295 -0.1154 -0.1281
   52MOL0     C 6933   8.774   9.473   0.944 -1.0710 -0.1476  0.0639
   52MOL0     C 6934   8.637   9.480   0.909  0.4440 -0.2892  0.3420
   52MOL0     N 6935   8.328  10.013   0.886  0.2231  0.0352 -1.1230
   52MOL0     N 6936   8.296  10.108   0.802  0.6419  0.9201 -0.6023
   52MOL0     C 6937   7.200  10.617   1.159 -0.9955  0.5581 -0.2023
   52MOL0     C 6938   7.070  10.626   1.186  0.0302  0.0708 -0.3178
   52MOL0     C 6939   6.637  10.541   1.197  0.2250  0.8214 -0.3259
   52MOL0     C 6940   6.600  10.428   1.270  0.9652 -0.1038 -0.9783
   52MOL0     C 6941   6.469  10.398   1.301  0.0509 -0.3986 -0.1122
   52MOL0     C 6942   6.368  10.492   1.274 -0.3990 -0.3847 -0.1513
   52MOL0     O 6943   6.235  10.475   1.317 -0.7272  0.3578  0.7918
   52MOL0     C 6944   6.138  10.494   1.219  0.5049 -1.1458  0.1974
   52MOL0     C 6945   5.999  10.442   1.255 -0.0742  0.5706 -0.1479
   52MOL0     C 6946   5.992  10.305   1.330  0.8530 -0.3089 -0.0539
   52MOL0     C 6947   5.846  10.264   1.355 -0.6601  0.1116 -0.4114
   52MOL0     C 6948   5.857  10.113   1.369 -0.2164 -0.8112  0.6148
   52MOL0     C 6949   5.874   9.998   1.392  0.4826  0.0388  0.0785
   52MOL0     C 6950   6.413  10.622   1.217 -0.0360 -0.1593  0.9810
   52MOL0     C 6951   6.543  10.642   1.169  0.0925  0.4832 -0.4546
   52MOL0     C 6952   6.586  10.787   1.118 -0.0499  0.7860 -0.4248
   52MOL0     H 6953   6.992  10.283   1.156 -2.7042  1.4643  0.5547
   52MOL0     H 6954   7.236  10.281   1.125 -0.5054 -0.0247 -0.9280
   52MOL0     H 6955   7.520  10.374   0.971  0.4004  1.2014  1.3372
   52MOL0     H 6956   7.350  10.383   0.923  0.1574 -0.1479  0.9365
   52MOL0     H 6957   7.387  10.614   0.861 -0.3478 -0.0433  0.3662
   52MOL0     H 6958   7.468  10.492   0.759 -1.6200 -3.2521  0.8498
   52MOL0     H 6959   7.623  10.629   0.982  0.8919 -0.7411  0.1000
   52MOL0     H 6960   7.591  10.715   0.828  0.5647 -0.4272  0.8560
   52MOL0     H 6961   7.680  10.551   0.689 -1.2620 -1.5785  1.0821
   52MOL0     H 6962   7.797  10.652   0.790  1.1532 -1.1418  2.0726
   52MOL0     H 6963   7.846  10.464   0.930 -0.0731 -1.2365  0.3763
   52MOL0     H 6964   7.732  10.353   0.852  0.2687 -0.4003  0.5384
   52MOL0     H 6965   7.886  10.375   0.629 -1.1572  0.7070 -0.2266
   52MOL0     H 6966   7.982  10.474   0.727 -1.6204  1.2774 -0.1930
   52MOL0     H 6967   7.880  10.198   0.797  1.6276 -1.4017 -0.4994
   52MOL0     H 6968   7.996  10.287   0.900 -0.1478  3.5619  0.1655
   52MOL0     H 6969   8.042  10.152   0.640  2.0037 -0.4269  0.3138
   52MOL0     H 6970   8.138  10.301   0.677  1.1352  1.1382  2.8410
   52MOL0     H 6971   8.010   9.993   0.879 -0.9799  3.3257  3.4609
   52MOL0     H 6972   8.287   9.812   1.057  2.1501  1.1123 -1.5746
   52MOL0     H 6973   8.110   9.847   1.068  1.0327 -0.3576  1.0859
   52MOL0     H 6974   8.162   9.619   0.989 -1.0152 -0.4922 -0.3930
   52MOL0     H 6975   8.052   9.696   0.890 -1.1125 -0.8408  0.9241
   52MOL0     H 6976   8.226   9.751   0.716  0.6608  0.7663  0.4742
   52MOL0     H 6977   8.225   9.586   0.746  1.9216  1.1438 -2.6439
   52MOL0     H 6978   8.436   9.767   0.851 -0.0827  0.8524 -1.2111
   52MOL0     H 6979   8.446   9.641   0.729 -3.0520 -2.8608 -0.4032
   52MOL0     H 6980   8.531   9.719   1.109  1.0088  0.0325  0.0098
   52MOL0     H 6981   8.779   9.700   1.191  0.7174  0.9136 -0.9970
   52MOL0     H 6982   9.122   9.832   1.221  1.6789  1.4028 -1.0530
   52MOL0     H 6983   9.356   9.855   1.273  1.8886 -0.7285  0.3483
   52MOL0     H 6984   9.452   9.589   1.549 -1.7361  0.7539 -0.6376
   52MOL0     H 6985   9.599   9.525   1.463  0.7773  0.0810  1.2390
   52MOL0     H 6986   9.582   9.773   1.630  0.4512  0.5040 -0.8567
   52MOL0     H 6987   9.651   9.614   1.672  1.3761  1.2563  0.9804
   52MOL0     H 6988   9.734   9.794   1.443  0.7434 -0.1067 -1.1726
   52MOL0     H 6989   9.797   9.801   1.604 -0.3582 -0.7496  0.1917
   52MOL0     H 6990   9.817   9.553   1.409  0.0507 -1.4849  2.4778
   52MOL0     H 6991   9.876   9.558   1.572 -1.3699  0.4667  1.2777
   52MOL0     H 6992  10.028   9.735   1.532 -0.7362 -0.5970  0.6571
   52MOL0     H 6993   9.967   9.759   1.363 -0.6344  0.5953  0.9141
   52MOL0     H 6994  10.126   9.531   1.477  4.6388  3.7499  1.2570
   52MOL0     H 6995  10.026   9.524   1.320 -0.4551  1.3737 -0.4663
   52MOL0     H 6996  10.235   9.744   1.352  1.0627 -0.7671 -0.7173
   52MOL0     H 6997  10.171   9.675   1.204  0.7436  0.0046  0.1577
   52MOL0     H 6998  10.404   9.601   1.250  0.1301 -2.4050 -1.9030
   52MOL0     H 6999  10.358   9.533   1.403  0.5711 -1.1749  0.1617
   52MOL0     H 7000   9.414   9.439   1.316 -1.9595 -1.0436 -0.7408
   52MOL0     H 7001   9.168   9.410   1.260  3.2177 -1.8689 -0.1080
   52MOL0     H 7002   8.835   9.401   0.892 -0.2348  1.1159 -0.7520
   52MOL0     H 7003   8.618   9.413   0.825  2.2522 -2.9332  1.8646
   52MOL0     H 7004   7.271  10.700   1.160  0.7015 -0.8421  0.2750
   52MOL0     H 7005   7.023  10.715   1.226  0.6881  0.5740 -0.6562
   52MOL0     H 7006   6.673  10.351   1.294 -0.7684 -1.1046  1.5002
   52MOL0     H 7007   6.445  10.299   1.339  1.3208 -1.2548 -1.4307
   52MOL0     H 7008   6.164  10.449   1.123  0.4997 -1.3701  0.2995
   52MOL0     H 7009   6.126  10.600   1.195 -0.3712 -0.6390  2.6015
   52MOL0     H 7010   5.936  10.430   1.166 -0.9246 -0.2531  0.5370
   52MOL0     H 7011   5.949  10.518   1.316  0.2207 -0.3162  1.2471
   52MOL0     H 7012   6.056  10.304   1.418  1.1734 -3.8016 -0.1586
   52MOL0     H 7013   6.037  10.223   1.273  0.7420 -0.9294  0.7343
   52MOL0     H 7014   5.800  10.314   1.441 -2.2259  0.5406 -1.4398
   52MOL0     H 7015   5.785  10.278   1.265 -2.0972 -1.2766  0.2977
   52MOL0     H 7016   5.875   9.894   1.418  0.3945  0.6498  2.8791
   52MOL0     H 7017   6.337  10.696   1.191  0.4694 -0.2728 -1.0315
   52MOL0     H 7018   6.570  10.783   1.010 -0.1312 -1.2302 -0.3877
   52MOL0     H 7019   6.512  10.858   1.156 -0.5799  0.7513 -1.3622
   52MOL0     H 7020   6.689  10.810   1.145  0.7549 -2.0815 -0.7420
   53MOL0     O 7021   1.184   3.840   0.373  0.1168 -0.0475 -0.1841
   53MOL0     C 7022   1.122   3.802   0.478 -0.4098  0.3138 -0.6027
   53MOL0     O 7023   1.184   3.755   0.591  0.0299 -0.1804  0.2874
   53MOL0     C 7024   1.317   3.770   0.616  0.0023 -0.1037 -0.5472
   53MOL0     C 7025   1.389   3.891   0.622  0.3478  0.3224 -0.9704
   53MOL0     C 7026   1.525   3.894   0.650  0.5355  0.4007 -0.1368
   53MOL0     C 7027   1.584   3.779   0.696  0.5602  0.1137 -0.3731
   53MOL0     O 7028   1.714   3.796   0.747  0.0122 -0.5762  0.4072
   53MOL0     C 7029   1.792   3.679   0.759  0.9467 -0.5009 -0.2681
   53MOL0     C 7030   1.943   3.701   0.788 -0.4231  0.2883  0.3863
   53MOL0     C 7031   1.961   3.750   0.940 -0.3912 -0.4998  1.0844
   53MOL0     C 7032   1.963   3.632   1.041 -0.7362  0.2798  0.1448
   53MOL0     C 7033   2.101   3.622   1.097 -1.2933 -0.4860  0.0808
   53MOL0     C 7034   2.191   3.535   1.010 -0.5466 -0.2768  0.8664
   53MOL0     C 7035   2.334   3.510   1.062  0.6451 -0.1158  0.5686
   53MOL0     C 7036   2.413   3.417   0.963  0.5483 -0.3347  0.4502
   53MOL0     N 7037   2.543   3.383   1.017  0.3900  0.7027 -0.1472
   53MOL0     C 7038   2.666   3.439   0.998 -0.1295  0.6414 -0.1952
   53MOL0     C 7039   2.759   3.351   1.049  0.8665  0.0474 -0.7583
   53MOL0     C 7040   2.903   3.385   1.070  0.2470 -0.1532  0.0225
   53MOL0     C 7041   2.999   3.384   0.954 -0.5197  0.1887 -0.6371
   53MOL0     C 7042   3.026   3.243   0.894  0.0740  0.6655  0.0436
   53MOL0     C 7043   3.163   3.185   0.924 -0.8509  0.5891 -0.2506
   53MOL0     O 7044   3.263   3.238   0.840  0.3102 -0.1882 -0.3945
   53MOL0     C 7045   3.380   3.172   0.808  0.1821 -0.1270  0.0523
   53MOL0     C 7046   3.485   3.248   0.783 -0.6160 -0.1630 -0.4583
   53MOL0     C 7047   3.612   3.202   0.764 -0.1670 -0.0962  0.7927
   53MOL0     C 7048   3.639   3.063   0.772  0.6202 -0.1754  0.2199
   53MOL0     C 7049   3.779   3.008   0.755 -0.0434 -0.4971  0.1208
   53MOL0     O 7050   3.878   3.096   0.714 -0.0674 -0.9158  0.1068
   53MOL0     C 7051   4.001   3.050   0.691 -0.5786  0.0391 -0.2245
   53MOL0     C 7052   4.036   2.967   0.585  0.1008 -0.2194  0.7543
   53MOL0     C 7053   4.163   2.907   0.580  0.6433 -1.0599  0.1571
   53MOL0     C 7054   4.244   2.911   0.696  0.5916 -0.1138  0.4345
   53MOL0     O 7055   4.358   2.840   0.708  0.3641  1.1172 -0.2646
   53MOL0     C 7056   4.353   2.702   0.707  0.0505  0.5000 -0.0486
   53MOL0     C 7057   4.491   2.639   0.737 -0.2347 -0.3334 -0.4810
   53MOL0     C 7058   4.592   2.661   0.623 -0.0944  0.0262  0.1611
   53MOL0     C 7059   4.722   2.582   0.659 -0.3034 -0.1551 -0.2856
   53MOL0     C 7060   4.836   2.577   0.552  0.8532 -0.0780 -1.0120
   53MOL0     C 7061   4.897   2.710   0.525 -0.2776 -0.9830 -1.4309
   53MOL0     C 7062   5.039   2.711   0.462  0.3222 -0.6849 -0.0002
   53MOL0     C 7063   5.074   2.850   0.396  0.1184 -0.0587 -0.7780
   53MOL0    Cl 7064   5.062   2.990   0.514  0.0613 -0.2938  0.5652
   53MOL0     C 7065   4.202   2.988   0.805 -0.2738  0.8054 -0.6560
   53MOL0     C 7066   4.087   3.072   0.796  0.1597 -0.1937  0.0105
   53MOL0     O 7067   3.787   2.890   0.771 -0.3143  0.4078 -0.2641
   53MOL0     C 7068   3.525   2.979   0.784  0.4999  0.0249 -0.0324
   53MOL0     C 7069   3.397   3.033   0.804  0.4121  0.3856  0.2767
   53MOL0     N 7070   2.686   3.238   1.092  0.1930 -0.7914  0.4151
   53MOL0     N 7071   2.559   3.260   1.065 -0.1488  0.1133  0.1003
   53MOL0     C 7072   1.515   3.659   0.692  0.9246  0.1263  0.0695
   53MOL0     C 7073   1.383   3.650   0.646  0.2717  0.9537 -0.4428
   53MOL0     C 7074   0.975   3.837   0.483  0.0157 -0.0082  0.4312
   53MOL0     C 7075   0.916   3.855   0.610  0.9676 -0.5003  1.0207
   53MOL0     C 7076   0.779   3.885   0.626  0.0689 -0.3293  0.0714
   53MOL0     C 7077   0.706   3.889   0.509 -0.4299 -0.3684 -0.0839
   53MOL0     O 7078   0.573   3.914   0.505  0.6034 -0.3517  0.0824
   53MOL0     C 7079   0.494   3.926   0.633  0.5006  0.0847  0.6238
   53MOL0     C 7080   0.341   3.919   0.606  0.0685 -0.4412 -0.6080
   53MOL0     C 7081   0.257   3.959   0.729  0.8260  0.1084  0.2283
   53MOL0     C 7082   0.117   3.931   0.705  0.0529  0.3313 -0.3764
   53MOL0     C 7083   0.056   4.047   0.633  0.8007 -0.1583 -0.0835
   53MOL0     C 7084   0.029   4.147   0.563  0.1324 -0.1166 -0.3893
   53MOL0     C 7085   0.766   3.868   0.385  0.8197  0.6915 -0.2178
   53MOL0     C 7086   0.895   3.856   0.370 -0.1464 -0.2040 -0.2400
   53MOL0     C 7087   0.946   3.860   0.229  0.3927  0.0840 -0.5708
   53MOL0     H 7088   1.343   3.988   0.603 -1.4716 -0.5101 -1.0237
   53MOL0     H 7089   1.578   3.989   0.648  0.6535  0.3261 -0.4466
   53MOL0     H 7090   1.755   3.612   0.836  2.9228  0.3724  1.5561
   53MOL0     H 7091   1.788   3.624   0.664 -0.3203 -0.0600 -0.4855
   53MOL0     H 7092   1.993   3.777   0.727  0.3567  0.9333  1.7751
   53MOL0     H 7093   1.997   3.606   0.784  1.7101  1.4618  0.3099
   53MOL0     H 7094   1.883   3.825   0.960  0.9536  0.9385  1.1718
   53MOL0     H 7095   2.057   3.802   0.950 -1.3362  1.3376  1.1220
   53MOL0     H 7096   1.904   3.653   1.131 -4.1219 -2.5275 -1.2065
   53MOL0     H 7097   1.920   3.546   0.991  1.4088 -1.1565  0.6097
   53MOL0     H 7098   2.141   3.720   1.123 -1.9949  0.1966 -1.2993
   53MOL0     H 7099   2.097   3.567   1.191  2.5875 -0.8349  0.1885
   53MOL0     H 7100   2.154   3.434   0.990 -0.5513  0.3372 -3.0787
   53MOL0     H 7101   2.205   3.586   0.914 -0.0751 -1.2264  0.4171
   53MOL0     H 7102   2.321   3.452   1.154 -0.6840  1.8385  1.7021
   53MOL0     H 7103   2.389   3.603   1.074  0.2796 -0.0467  1.7816
   53MOL0     H 7104   2.355   3.327   0.939  2.1655 -1.1802 -0.5346
   53MOL0     H 7105   2.429   3.472   0.870  1.4966 -0.1051  0.7344
   53MOL0     H 7106   2.685   3.541   0.966  2.0618  0.0643 -0.8668
   53MOL0     H 7107   2.901   3.493   1.086 -1.0656  0.1220 -1.7098
   53MOL0     H 7108   2.949   3.336   1.156  2.3229  0.5351 -0.6379
   53MOL0     H 7109   2.964   3.447   0.872 -2.2161 -1.2898 -1.1353
   53MOL0     H 7110   3.095   3.423   0.989 -0.4100  0.6726 -1.4648
   53MOL0     H 7111   3.015   3.238   0.785 -1.8433  2.6236  0.0677
   53MOL0     H 7112   2.959   3.170   0.940  0.4317 -1.3378 -2.4027
   53MOL0     H 7113   3.165   3.076   0.916  3.4920  0.6681 -3.0805
   53MOL0     H 7114   3.193   3.218   1.023  5.1978 -0.8320 -1.2202
   53MOL0     H 7115   3.454   3.352   0.778 -1.2849 -0.3821 -1.1627
   53MOL0     H 7116   3.689   3.276   0.746 -2.1965  1.6906 -1.1936
   53MOL0     H 7117   3.959   2.950   0.510 -0.3462  1.1730  0.8662
   53MOL0     H 7118   4.193   2.849   0.493  0.0977 -2.2482  0.7317
   53MOL0     H 7119   4.276   2.673   0.779  1.7560  2.5735  2.8020
   53MOL0     H 7120   4.316   2.664   0.611 -1.4635 -1.1060  1.1079
   53MOL0     H 7121   4.522   2.682   0.833 -1.1498  0.3954 -0.5021
   53MOL0     H 7122   4.484   2.533   0.765  3.0243 -0.3123  0.8774
   53MOL0     H 7123   4.552   2.610   0.535  0.9304 -1.4798  0.5290
   53MOL0     H 7124   4.621   2.765   0.601  0.8906 -0.0350  1.0968
   53MOL0     H 7125   4.697   2.477   0.681 -0.2188  0.0383  0.7636
   53MOL0     H 7126   4.769   2.621   0.749  0.9707 -0.4221 -0.8172
   53MOL0     H 7127   4.788   2.548   0.458  0.8611  2.1095 -1.7407
   53MOL0     H 7128   4.917   2.514   0.590  2.5305  3.8624  2.6425
   53MOL0     H 7129   4.819   2.768   0.473  0.6464  2.0478  0.2952
   53MOL0     H 7130   4.899   2.765   0.620 -0.0626  1.2082 -2.6466
   53MOL0     H 7131   5.027   2.644   0.377  0.3890  0.8124 -1.2396
   53MOL0     H 7132   5.119   2.674   0.526  0.3297 -1.9491 -0.7084
   53MOL0     H 7133   5.173   2.856   0.349  0.2929  1.0284 -0.3088
   53MOL0     H 7134   4.991   2.852   0.325 -1.6146 -1.3620  1.0842
   53MOL0     H 7135   4.272   3.006   0.886  1.0944 -1.4513 -1.2578
   53MOL0     H 7136   4.050   3.141   0.871 -3.5032 -1.1707 -0.6897
   53MOL0     H 7137   3.524   2.871   0.793 -0.6442  0.1699  2.5447
   53MOL0     H 7138   3.314   2.963   0.818 -0.6819  1.7533  0.9466
   53MOL0     H 7139   1.555   3.561   0.713 -0.4998 -0.4496  0.2587
   53MOL0     H 7140   1.330   3.555   0.641 -0.4527  1.3629 -0.6894
   53MOL0     H 7141   0.967   3.830   0.703 -2.0272 -1.7958  2.4566
   53MOL0     H 7142   0.726   3.899   0.720  1.9896 -1.5172  1.4221
   53MOL0     H 7143   0.524   4.024   0.670 -0.2185  1.5480 -2.3957
   53MOL0     H 7144   0.521   3.841   0.696  0.5325  0.6351  1.3628
   53MOL0     H 7145   0.324   3.811   0.597  1.7380 -0.9241  1.2870
   53MOL0     H 7146   0.315   3.979   0.518 -1.3039  0.9787  0.7058
   53MOL0     H 7147   0.272   4.060   0.768  1.2543 -0.8866  2.9254
   53MOL0     H 7148   0.287   3.901   0.817  1.5990  1.2155  0.7206
   53MOL0     H 7149   0.104   3.830   0.665  1.9433 -0.9503  1.9830
   53MOL0     H 7150   0.069   3.929   0.803 -0.3414  0.4547 -0.5632
   53MOL0     H 7151   0.011   4.232   0.501  1.1370  0.3363 -0.0724
   53MOL0     H 7152   0.693   3.867   0.305 -1.1987 -1.3745  1.5101
   53MOL0     H 7153   0.868   3.878   0.154 -1.1986  1.5536  1.3419
   53MOL0     H 7154   1.012   3.946   0.220 -0.8308  1.0705 -0.4543
   53MOL0     H 7155   1.010   3.775   0.204  0.0654 -1.3942  3.0040
   54MOL0     O 7156   6.504  10.056   9.364 -0.0251 -0.3077 -0.2151
   54MOL0     C 7157   6.486  10.178   9.384 -0.1463 -0.3731  0.8206
   54MOL0     O 7158   6.587  10.272   9.385  0.1325  0.4043 -0.4588
   54MOL0     C 7159   6.708  10.221   9.401  1.2455  0.2763 -0.2836
   54MOL0     C 7160   6.794  10.220   9.291  0.0813 -0.6307  0.7387
   54MOL0     C 7161   6.931  10.200   9.298 -0.8927 -0.2968  0.1619
   54MOL0     C 7162   6.990  10.170   9.422 -0.4078 -0.1584  0.4031
   54MOL0     O 7163   7.125  10.138   9.435  0.3836 -0.5151  0.3148
   54MOL0     C 7164   7.205  10.259   9.451 -0.0221 -0.5081 -0.0309
   54MOL0     C 7165   7.343  10.214   9.490 -0.5241  0.5888 -0.3084
   54MOL0     C 7166   7.439  10.331   9.503  0.1639 -0.2959 -1.0401
   54MOL0     C 7167   7.457  10.425   9.381  0.0685  0.0443  0.0615
   54MOL0     C 7168   7.580  10.517   9.398  0.2593 -0.0755  0.4321
   54MOL0     C 7169   7.704  10.424   9.407  0.5149  0.3320 -0.0468
   54MOL0     C 7170   7.830  10.470   9.332 -0.0611 -0.4700 -0.0113
   54MOL0     C 7171   7.903  10.572   9.406 -0.2694 -0.1728  0.7196
   54MOL0     N 7172   8.038  10.589   9.364 -0.5118  0.1282 -0.0138
   54MOL0     C 7173   8.151  10.611   9.442 -0.6195  0.6075 -0.2408
   54MOL0     C 7174   8.252  10.643   9.354 -0.5623  0.0998  0.3351
   54MOL0     C 7175   8.392  10.680   9.403 -0.6643 -0.4269  0.9866
   54MOL0     C 7176   8.492  10.567   9.387  0.0126  0.7823  0.9554
   54MOL0     C 7177   8.460  10.458   9.497  0.3959 -0.6250 -0.1162
   54MOL0     C 7178   8.561  10.347   9.501  0.8510 -0.5313  0.1921
   54MOL0     O 7179   8.547  10.268   9.617 -0.1019  0.6761  0.3680
   54MOL0     C 7180   8.647  10.169   9.630 -0.9229 -0.3114 -1.0453
   54MOL0     C 7181   8.759  10.156   9.548 -0.7154  0.0779  0.6321
   54MOL0     C 7182   8.859  10.061   9.576  0.6891 -0.4095  0.1893
   54MOL0     C 7183   8.858  10.002   9.709 -0.0483  0.4704  0.3430
   54MOL0     C 7184   8.979   9.938   9.766  0.1392  0.2464 -0.0497
   54MOL0     O 7185   9.002   9.972   9.892  0.8673  1.1780  0.1852
   54MOL0     C 7186   9.108   9.918   9.960 -0.3053  0.1869 -0.1749
   54MOL0     C 7187   9.104   9.796  10.026  0.2776  0.1077  0.1316
   54MOL0     C 7188   9.216   9.747  10.091  0.5235 -1.7400  0.8656
   54MOL0     C 7189   9.331   9.823  10.102 -0.7107  0.0826  0.4567
   54MOL0     O 7190   9.430   9.764  10.176  0.0193 -0.1823 -0.3204
   54MOL0     C 7191   9.556   9.834  10.180  0.2783  0.1005 -0.1975
   54MOL0     C 7192   9.668   9.748  10.236  0.3424  0.3778  0.2940
   54MOL0     C 7193   9.651   9.731  10.389 -0.0942  0.3704  0.1339
   54MOL0     C 7194   9.758   9.638  10.446 -0.1501  0.0809 -0.5505
   54MOL0     C 7195   9.722   9.566  10.580  0.0266 -0.6473  0.6439
   54MOL0     C 7196   9.834   9.474  10.609 -0.2628 -0.3846  0.1875
   54MOL0     C 7197   9.806   9.388  10.730  0.1604 -0.2755  0.2026
   54MOL0     C 7198   9.918   9.285  10.738 -1.1235 -0.3531 -0.8228
   54MOL0    Cl 7199   9.867   9.175  10.870 -0.0729 -0.4599 -0.1619
   54MOL0     C 7200   9.336   9.945  10.037 -0.1534  0.4624 -0.1358
   54MOL0     C 7201   9.224   9.991   9.965 -0.7255  0.4591  0.2547
   54MOL0     O 7202   9.063   9.903   9.687  0.0945  0.3757  0.5275
   54MOL0     C 7203   8.746  10.019   9.788  0.3649 -0.8413 -0.3805
   54MOL0     C 7204   8.643  10.100   9.751  0.3761 -0.1501 -0.1320
   54MOL0     N 7205   8.209  10.619   9.226  1.0301  0.0999  0.0222
   54MOL0     N 7206   8.080  10.600   9.230  0.0472 -0.3052 -0.5747
   54MOL0     C 7207   6.908  10.173   9.530 -0.0718  0.7990  0.3172
   54MOL0     C 7208   6.771  10.202   9.526 -0.1419 -0.2369 -0.0840
   54MOL0     C 7209   6.346  10.227   9.421  0.1269  0.5822 -0.5005
   54MOL0     C 7210   6.322  10.330   9.515 -0.6723 -0.7341 -0.1195
   54MOL0     C 7211   6.195  10.382   9.543  0.3895 -0.1442 -0.5371
   54MOL0     C 7212   6.082  10.323   9.488 -0.2035 -0.0426  0.4457
   54MOL0     O 7213   5.953  10.364   9.502 -0.4006 -0.2329 -0.2804
   54MOL0     C 7214   5.932  10.492   9.436  0.4768 -0.1091  0.1668
   54MOL0     C 7215   5.796  10.563   9.465  0.0668  0.1534 -0.1933
   54MOL0     C 7216   5.687  10.462   9.430 -0.6665  0.1674  0.5460
   54MOL0     C 7217   5.549  10.521   9.457 -0.6308  0.5922 -1.1275
   54MOL0     C 7218   5.537  10.661   9.434 -0.1430 -0.2578 -0.0945
   54MOL0     C 7219   5.506  10.776   9.405  0.1778 -0.7327  0.2272
   54MOL0     C 7220   6.108  10.227   9.402  0.0736  0.3245 -0.3648
   54MOL0     C 7221   6.233  10.171   9.367 -0.4200 -0.1950  0.4284
   54MOL0     C 7222   6.226  10.065   9.263 -0.1317 -0.4387 -0.1899
   54MOL0     H 7223   6.756  10.247   9.193 -1.6492  2.2104  2.0522
   54MOL0     H 7224   6.986  10.208   9.205  1.3076 -0.9297  1.3487
   54MOL0     H 7225   7.218  10.319   9.360  1.4832  0.1951  0.6065
   54MOL0     H 7226   7.158  10.323   9.526 -3.4628 -1.6530 -1.0590
   54MOL0     H 7227   7.387  10.142   9.421  2.9498  0.6379  1.6501
   54MOL0     H 7228   7.345  10.168   9.589 -1.6622 -0.8934 -0.9378
   54MOL0     H 7229   7.529  10.293   9.551 -0.6826  0.2036  1.0447
   54MOL0     H 7230   7.391  10.398   9.574 -0.6829 -2.8788  0.9707
   54MOL0     H 7231   7.462  10.356   9.296 -0.1604 -1.4147  1.1857
   54MOL0     H 7232   7.379  10.498   9.362  0.0831 -0.7151 -3.6529
   54MOL0     H 7233   7.583  10.581   9.310  1.9609 -1.2663 -0.4177
   54MOL0     H 7234   7.561  10.569   9.493  1.2099  0.3850  0.3827
   54MOL0     H 7235   7.722  10.413   9.514  0.7571  2.3361  0.1557
   54MOL0     H 7236   7.680  10.324   9.367  0.5314  0.4406 -0.3305
   54MOL0     H 7237   7.807  10.512   9.233  1.8995 -0.7369 -0.6222
   54MOL0     H 7238   7.900  10.386   9.321 -2.3453 -2.5958  0.7332
   54MOL0     H 7239   7.857  10.671   9.398  1.7377  0.8426  1.1404
   54MOL0     H 7240   7.898  10.548   9.513  1.2895 -0.0892  0.8357
   54MOL0     H 7241   8.160  10.626   9.549  0.8757  0.0188 -0.2709
   54MOL0     H 7242   8.438  10.765   9.351  1.2012 -0.5323  2.3413
   54MOL0     H 7243   8.393  10.710   9.508  0.5748  1.0238  0.6093
   54MOL0     H 7244   8.482  10.522   9.288  0.2999  1.5856  0.5561
   54MOL0     H 7245   8.595  10.603   9.389  0.3352  0.0499 -0.8536
   54MOL0     H 7246   8.363  10.417   9.469 -1.0157  1.8915  0.8097
   54MOL0     H 7247   8.437  10.496   9.597 -0.6703  1.6368 -1.1546
   54MOL0     H 7248   8.656  10.399   9.485  0.1896  0.6607  0.0502
   54MOL0     H 7249   8.553  10.291   9.407 -1.9252  1.1716 -0.6954
   54MOL0     H 7250   8.772  10.209   9.455  2.9037  0.5274  1.2148
   54MOL0     H 7251   8.939  10.056   9.504 -0.1129 -2.5340 -0.6327
   54MOL0     H 7252   9.018   9.731  10.012 -0.7837  1.8149 -1.8214
   54MOL0     H 7253   9.220   9.645  10.127 -0.9000 -2.7153 -1.5091
   54MOL0     H 7254   9.587   9.866  10.080 -0.1685 -1.1458 -0.7582
   54MOL0     H 7255   9.548   9.916  10.252 -0.0179 -0.4211  0.3748
   54MOL0     H 7256   9.664   9.650  10.188 -1.2198 -0.2293  1.5315
   54MOL0     H 7257   9.762   9.798  10.211  1.3350 -0.1730  2.6657
   54MOL0     H 7258   9.663   9.821  10.449 -0.9423  0.4501  0.1995
   54MOL0     H 7259   9.554   9.689  10.419  0.6484  0.3625  2.7081
   54MOL0     H 7260   9.852   9.690  10.468  1.0856 -3.0351  2.5826
   54MOL0     H 7261   9.770   9.557  10.373 -1.9537 -0.9977  0.2842
   54MOL0     H 7262   9.633   9.505  10.562 -0.2892  0.0401 -0.1773
   54MOL0     H 7263   9.699   9.638  10.659  0.6441 -0.3539  0.5549
   54MOL0     H 7264   9.849   9.407  10.524  1.4208 -0.9240  0.8601
   54MOL0     H 7265   9.930   9.524  10.626 -0.5453 -0.0679  0.8892
   54MOL0     H 7266   9.711   9.334  10.720  1.1776 -1.9627 -0.8326
   54MOL0     H 7267   9.800   9.445  10.823  0.3624 -0.7327  0.4947
   54MOL0     H 7268   9.922   9.232  10.642 -0.2326  0.1555 -1.0796
   54MOL0     H 7269  10.018   9.318  10.768 -0.1211 -1.8509 -2.3371
   54MOL0     H 7270   9.422  10.011  10.033  0.7108 -0.7260 -2.6005
   54MOL0     H 7271   9.235  10.085   9.913 -1.2961  1.2990  1.5932
   54MOL0     H 7272   8.741   9.961   9.879  1.8693 -1.2959 -0.5615
   54MOL0     H 7273   8.568  10.114   9.829  2.9887 -0.2589  2.5904
   54MOL0     H 7274   6.949  10.147   9.627  1.8227 -0.8503 -0.8299
   54MOL0     H 7275   6.726  10.209   9.625  0.2330 -2.0795  0.2516
   54MOL0     H 7276   6.406  10.378   9.564 -1.2889  1.1583 -0.7917
   54MOL0     H 7277   6.172  10.458   9.617 -1.5786 -2.6181  1.5980
   54MOL0     H 7278   5.952  10.477   9.329 -2.2369  1.4097 -0.6662
   54MOL0     H 7279   6.002  10.569   9.470  0.4463  0.0312 -0.0790
   54MOL0     H 7280   5.790  10.647   9.395  2.8782  2.1959  1.7964
   54MOL0     H 7281   5.786  10.598   9.568 -1.5437 -1.0546  0.1074
   54MOL0     H 7282   5.700  10.373   9.493  0.1060 -0.5599 -0.5979
   54MOL0     H 7283   5.691  10.433   9.324  0.6582 -0.4848  0.7478
   54MOL0     H 7284   5.480  10.464   9.394 -1.2575  2.0416 -1.7904
   54MOL0     H 7285   5.516  10.508   9.560 -0.0901  4.3074 -0.3566
   54MOL0     H 7286   5.488  10.880   9.390  2.9990 -0.0714  0.8723
   54MOL0     H 7287   6.021  10.186   9.353 -0.0072  2.0718 -1.8025
   54MOL0     H 7288   6.241  10.109   9.164 -1.5805  1.9832  0.5673
   54MOL0     H 7289   6.295   9.984   9.287  1.1585  0.9461  0.9688
   54MOL0     H 7290   6.121  10.032   9.261 -0.5015  0.7117 -0.4380
   55MOL0     O 7291   1.344   1.312   5.353 -0.7327 -0.3082 -0.1445
   55MOL0     C 7292   1.283   1.205   5.350 -0.2178  0.0770 -0.6893
   55MOL0     O 7293   1.342   1.083   5.374 -0.1821 -0.0613  0.0429
   55MOL0     C 7294   1.475   1.064   5.406  1.1166  0.0859  0.3514
   55MOL0     C 7295   1.502   1.031   5.534 -0.2876 -0.1126 -0.0841
   55MOL0     C 7296   1.630   1.014   5.572  0.2460 -1.5824 -0.2699
   55MOL0     C 7297   1.742   1.027   5.480 -0.6638 -0.5300  0.3129
   55MOL0     O 7298   1.866   1.010   5.518  0.2778  0.8553 -0.3950
   55MOL0     C 7299   1.895   0.912   5.623 -1.0260  0.5395  0.0200
   55MOL0     C 7300   2.048   0.914   5.647 -0.4031  0.8343 -0.0166
   55MOL0     C 7301   2.117   0.864   5.522 -0.3569 -0.1886 -0.5104
   55MOL0     C 7302   2.271   0.887   5.529  0.6307  0.7670 -0.3738
   55MOL0     C 7303   2.351   0.850   5.397 -0.0664  0.6775 -0.2882
   55MOL0     C 7304   2.302   0.946   5.271  0.0587 -0.4418 -0.3601
   55MOL0     C 7305   2.397   0.943   5.150 -0.2257 -0.2698 -0.0563
   55MOL0     C 7306   2.359   1.036   5.037  0.4260  0.8863  0.1654
   55MOL0     N 7307   2.256   0.971   4.960 -0.2909  0.6078 -0.0326
   55MOL0     C 7308   2.129   1.020   4.948 -0.2676  0.4862  0.0400
   55MOL0     C 7309   2.078   0.930   4.865 -0.0491 -0.0270 -0.3360
   55MOL0     C 7310   1.938   0.928   4.830  0.5110 -0.2649  0.1557
   55MOL0     C 7311   1.850   0.883   4.943 -0.4318 -0.8952 -0.1423
   55MOL0     C 7312   1.703   0.903   4.891 -0.2461  0.4168 -0.9366
   55MOL0     C 7313   1.604   0.889   5.008 -0.3369  0.0205  0.1457
   55MOL0     O 7314   1.486   0.964   4.977 -0.3587 -0.1869  0.2245
   55MOL0     C 7315   1.364   0.904   4.956  0.2742  0.2584  0.1160
   55MOL0     C 7316   1.347   0.780   4.901 -0.0835 -0.0560  0.3027
   55MOL0     C 7317   1.220   0.736   4.860  0.1409 -0.9560  0.0229
   55MOL0     C 7318   1.104   0.807   4.882  0.5154 -0.4707 -0.4359
   55MOL0     C 7319   0.968   0.750   4.863  0.2187 -0.3826 -0.4211
   55MOL0     O 7320   0.862   0.813   4.927 -1.5917  1.5573 -0.2935
   55MOL0     C 7321   0.729   0.779   4.886 -0.1040 -0.1499  0.4875
   55MOL0     C 7322   0.652   0.692   4.952  0.2579 -0.3167 -0.2227
   55MOL0     C 7323   0.526   0.660   4.911  0.0755 -0.6395 -0.9179
   55MOL0     C 7324   0.470   0.719   4.801  0.3213 -0.1764 -1.1968
   55MOL0     O 7325   0.338   0.709   4.781 -0.8620  0.0280  0.3939
   55MOL0     C 7326   0.278   0.761   4.670  0.4162  0.4983 -0.3611
   55MOL0     C 7327   0.141   0.707   4.655 -0.0013 -0.5122 -0.9777
   55MOL0     C 7328   0.033   0.762   4.759 -0.4179  0.8584  0.0721
   55MOL0     C 7329   0.073   0.715   4.903  0.5671 -1.3042  1.1185
   55MOL0     C 7330  -0.047   0.717   5.003 -0.5348 -0.5200  0.3652
   55MOL0     C 7331  -0.151   0.835   4.996 -0.4131  0.5521  0.7818
   55MOL0     C 7332  -0.244   0.863   5.119 -0.3712 -0.7754 -0.0399
   55MOL0     C 7333  -0.258   0.746   5.215  0.6265  0.2095  0.3258
   55MOL0    Cl 7334  -0.344   0.802   5.361 -0.1616 -0.4597 -0.6048
   55MOL0     C 7335   0.547   0.813   4.733 -0.5158  0.6696  1.2929
   55MOL0     C 7336   0.678   0.840   4.771  0.2832 -0.1047  0.0543
   55MOL0     O 7337   0.959   0.656   4.785  0.0481  0.6176 -0.2875
   55MOL0     C 7338   1.121   0.928   4.956  0.2530 -0.0599 -0.5000
   55MOL0     C 7339   1.250   0.974   4.992  0.7182 -0.0970 -0.6157
   55MOL0     N 7340   2.170   0.844   4.811 -0.6294 -0.3928 -0.3935
   55MOL0     N 7341   2.285   0.880   4.869 -0.2597  0.5654 -0.2722
   55MOL0     C 7342   1.715   1.065   5.344 -0.4814 -0.5044 -1.1722
   55MOL0     C 7343   1.577   1.081   5.313 -0.8792  0.4796  0.8069
   55MOL0     C 7344   1.138   1.195   5.312 -0.4718 -0.5476  0.3332
   55MOL0     C 7345   1.076   1.069   5.314  0.6698  0.0909  0.3615
   55MOL0     C 7346   0.952   1.055   5.249  0.2243  0.4872  0.0271
   55MOL0     C 7347   0.871   1.157   5.206  0.0832 -0.1293 -0.0920
   55MOL0     O 7348   0.741   1.151   5.155 -0.1861  0.2673 -0.1595
   55MOL0     C 7349   0.650   1.136   5.261  1.1027  0.4271 -1.1236
   55MOL0     C 7350   0.615   0.986   5.298  0.1826 -0.1155  0.6885
   55MOL0     C 7351   0.535   0.968   5.428 -0.4114 -0.3112 -0.8335
   55MOL0     C 7352   0.390   1.016   5.416  0.6994 -0.1501 -0.6204
   55MOL0     C 7353   0.308   0.921   5.342  0.8702  0.0134  0.8502
   55MOL0     C 7354   0.249   0.835   5.283  0.1783  0.2317  0.4506
   55MOL0     C 7355   0.929   1.287   5.220 -0.3342  0.3146  0.8563
   55MOL0     C 7356   1.058   1.302   5.276  0.6370  0.1859  1.2216
   55MOL0     C 7357   1.094   1.443   5.287 -0.8491 -1.2048  0.1567
   55MOL0     H 7358   1.431   1.012   5.613 -0.8271  1.7544 -0.0710
   55MOL0     H 7359   1.648   0.979   5.672  1.5054  2.4122  1.1138
   55MOL0     H 7360   1.843   0.949   5.712 -0.1055  1.7555  0.0914
   55MOL0     H 7361   1.864   0.811   5.596  1.1151 -0.2551  0.3894
   55MOL0     H 7362   2.068   0.842   5.728  0.0704 -1.6937 -2.2460
   55MOL0     H 7363   2.084   1.014   5.672 -0.0238  0.4393  1.1113
   55MOL0     H 7364   2.089   0.927   5.437 -2.6114  1.6481  1.4492
   55MOL0     H 7365   2.096   0.757   5.511 -1.3708 -0.3613  2.3084
   55MOL0     H 7366   2.298   0.991   5.550 -1.6937  1.2566  0.4984
   55MOL0     H 7367   2.308   0.826   5.612  0.3624  0.6751 -0.3208
   55MOL0     H 7368   2.460   0.861   5.408  0.0389 -0.2101 -0.3450
   55MOL0     H 7369   2.329   0.745   5.376 -2.8890  0.3595  3.2936
   55MOL0     H 7370   2.200   0.931   5.234  0.4100 -1.9855 -0.7721
   55MOL0     H 7371   2.306   1.047   5.313 -2.0375 -0.0250 -1.0471
   55MOL0     H 7372   2.415   0.840   5.117  0.2949 -0.2701  0.2094
   55MOL0     H 7373   2.494   0.985   5.180 -1.5051  3.0195 -0.1160
   55MOL0     H 7374   2.314   1.132   5.064  0.3854  0.3851  1.9614
   55MOL0     H 7375   2.445   1.052   4.970 -0.7511  2.0744 -1.1316
   55MOL0     H 7376   2.083   1.111   4.985  2.4562  1.8166  0.3882
   55MOL0     H 7377   1.913   1.030   4.799 -0.2506 -0.9275 -1.5330
   55MOL0     H 7378   1.925   0.858   4.747 -1.1887 -0.2630  0.3962
   55MOL0     H 7379   1.863   0.779   4.975 -0.4802 -1.4278 -1.7874
   55MOL0     H 7380   1.869   0.951   5.027  2.7300 -2.5699  0.6608
   55MOL0     H 7381   1.692   0.818   4.824  2.9760 -3.1031  2.4976
   55MOL0     H 7382   1.704   1.000   4.840 -1.8974  1.3659  0.6908
   55MOL0     H 7383   1.650   0.936   5.095  0.5554 -1.1735  0.3337
   55MOL0     H 7384   1.594   0.783   5.032  3.9704 -1.1553 -2.3031
   55MOL0     H 7385   1.434   0.721   4.875 -1.7764 -2.1087 -1.0533
   55MOL0     H 7386   1.210   0.649   4.795  1.9325 -1.5099  0.4365
   55MOL0     H 7387   0.692   0.645   5.041  1.2450  2.6392  1.0223
   55MOL0     H 7388   0.464   0.591   4.967  0.8935  0.1348  1.0113
   55MOL0     H 7389   0.278   0.871   4.671  1.3278  0.5087  0.2992
   55MOL0     H 7390   0.331   0.734   4.579  0.0747 -0.2423 -0.3452
   55MOL0     H 7391   0.109   0.737   4.554  0.9006  0.4625 -0.9876
   55MOL0     H 7392   0.150   0.598   4.663  1.8175 -0.2227  2.5763
   55MOL0     H 7393   0.024   0.871   4.751 -0.2450  0.7520 -2.0933
   55MOL0     H 7394  -0.066   0.722   4.736 -0.7512  1.5239  0.3352
   55MOL0     H 7395   0.157   0.781   4.926 -1.8780  2.8416 -0.8340
   55MOL0     H 7396   0.110   0.612   4.899  0.0328 -1.5108 -3.0770
   55MOL0     H 7397  -0.013   0.707   5.107  1.2077  3.3415  0.3472
   55MOL0     H 7398  -0.113   0.633   4.979 -1.3047  0.0505  0.4332
   55MOL0     H 7399  -0.085   0.918   4.969  0.2426  0.2863  1.5484
   55MOL0     H 7400  -0.215   0.812   4.910 -1.3706 -2.1830  2.1415
   55MOL0     H 7401  -0.345   0.899   5.095 -0.5733 -1.1564  0.2305
   55MOL0     H 7402  -0.196   0.939   5.180  1.7327 -1.4810 -0.7256
   55MOL0     H 7403  -0.316   0.671   5.161  0.7340 -0.5188  1.1947
   55MOL0     H 7404  -0.160   0.704   5.237  0.6890 -1.3607 -2.5420
   55MOL0     H 7405   0.521   0.872   4.645  1.0948 -3.2161 -2.1036
   55MOL0     H 7406   0.738   0.912   4.717 -1.0809  1.1071  0.0901
   55MOL0     H 7407   1.039   0.985   4.998  0.4387 -0.7966  0.9364
   55MOL0     H 7408   1.267   1.059   5.058  4.6125 -0.7462 -0.5872
   55MOL0     H 7409   1.794   1.067   5.270  2.3544 -0.4403  1.6340
   55MOL0     H 7410   1.537   1.113   5.218 -4.2642 -0.4408  1.7746
   55MOL0     H 7411   1.114   0.982   5.368 -2.1661 -3.8757 -3.3048
   55MOL0     H 7412   0.929   0.949   5.241  1.7141  0.1030  0.4352
   55MOL0     H 7413   0.558   1.192   5.242 -0.4507 -1.5662  0.0844
   55MOL0     H 7414   0.689   1.194   5.345 -1.3785 -3.6646  3.3543
   55MOL0     H 7415   0.708   0.928   5.298  0.9796  1.1246 -0.0481
   55MOL0     H 7416   0.549   0.953   5.217 -1.2934 -2.0679  2.5853
   55MOL0     H 7417   0.588   1.024   5.505 -3.1457  0.4362  0.6531
   55MOL0     H 7418   0.527   0.865   5.466 -0.8294  0.1642  0.4499
   55MOL0     H 7419   0.354   1.031   5.518  0.8974  0.3831 -0.6257
   55MOL0     H 7420   0.381   1.118   5.379 -1.8420  0.8035  2.1717
   55MOL0     H 7421   0.204   0.744   5.248 -0.2378  1.0686 -1.2993
   55MOL0     H 7422   0.858   1.362   5.188  1.2162  1.2488 -0.5475
   55MOL0     H 7423   1.179   1.463   5.221 -1.4242  2.2953  0.2841
   55MOL0     H 7424   1.019   1.504   5.235  0.1307 -0.2760 -0.2084
   55MOL0     H 7425   1.116   1.486   5.385  0.7764  2.5336 -1.6337
   56MOL0     O 7426   0.718   0.810   0.137  0.1369 -0.0568 -0.0492
   56MOL0     C 7427   0.756   0.807   0.019  0.7688  0.6278  0.6764
   56MOL0     O 7428   0.874   0.847  -0.024  0.7733 -0.1242  0.3765
   56MOL0     C 7429   0.939   0.937   0.043 -0.0932 -0.8720  0.0579
   56MOL0     C 7430   0.906   1.070   0.024 -0.0976 -0.1719 -0.2279
   56MOL0     C 7431   0.974   1.168   0.085  0.0822 -0.6840  0.1045
   56MOL0     C 7432   1.081   1.137   0.170 -0.0595 -0.5636 -0.0588
   56MOL0     O 7433   1.151   1.237   0.243  0.0433  0.1736 -0.4725
   56MOL0     C 7434   1.078   1.351   0.295 -0.3149 -0.8544 -0.5114
   56MOL0     C 7435   1.103   1.475   0.210 -0.1143  0.0682  0.4749
   56MOL0     C 7436   1.254   1.490   0.187  0.2727 -0.0366  0.5762
   56MOL0     C 7437   1.332   1.527   0.320  0.1435  0.4345  0.0622
   56MOL0     C 7438   1.459   1.602   0.281 -0.1422  0.1153 -0.4155
   56MOL0     C 7439   1.565   1.607   0.384 -0.4546  0.3925 -0.4289
   56MOL0     C 7440   1.697   1.674   0.338 -0.6211 -0.9853  0.3791
   56MOL0     C 7441   1.805   1.681   0.447  0.2458 -0.0377 -0.6724
   56MOL0     N 7442   1.933   1.733   0.403  0.4353  0.2372  0.3797
   56MOL0     C 7443   2.011   1.678   0.301  0.0664  0.2075  0.5668
   56MOL0     C 7444   2.125   1.752   0.306 -0.6084 -1.3281  0.5417
   56MOL0     C 7445   2.240   1.759   0.209  1.1719  0.9234  0.9027
   56MOL0     C 7446   2.307   1.617   0.180 -0.4319 -0.0635  0.1080
   56MOL0     C 7447   2.347   1.535   0.306 -0.1006  0.3008 -1.2568
   56MOL0     C 7448   2.417   1.621   0.419 -0.6938 -0.9030  0.1271
   56MOL0     O 7449   2.539   1.673   0.367  1.1864 -0.3343 -0.3597
   56MOL0     C 7450   2.652   1.588   0.357 -0.3764  0.8630 -0.2023
   56MOL0     C 7451   2.700   1.542   0.234  0.1501 -1.2534 -0.1872
   56MOL0     C 7452   2.824   1.482   0.235 -0.5142 -0.2424 -0.7807
   56MOL0     C 7453   2.915   1.467   0.344 -0.6299 -0.2962 -0.4957
   56MOL0     C 7454   3.047   1.399   0.323 -0.3431 -0.0923  0.2662
   56MOL0     O 7455   3.080   1.380   0.192 -0.0410  0.0702 -0.1829
   56MOL0     C 7456   3.194   1.303   0.158  0.7470  0.4052  0.5080
   56MOL0     C 7457   3.299   1.259   0.238  0.2831 -0.5822  0.0097
   56MOL0     C 7458   3.397   1.168   0.185 -0.8207 -1.0889 -0.3032
   56MOL0     C 7459   3.398   1.129   0.049 -0.9866  0.6084  0.3895
   56MOL0     O 7460   3.505   1.064  -0.000 -0.0619  0.4510 -0.1818
   56MOL0     C 7461   3.615   1.014   0.076 -0.5041 -0.2879 -0.1687
   56MOL0     C 7462   3.718   0.965  -0.012 -0.1759  0.2405  0.1107
   56MOL0     C 7463   3.820   0.893   0.082 -0.3050  0.0668 -0.5436
   56MOL0     C 7464   3.941   0.854  -0.012  0.5582  0.1400  0.0651
   56MOL0     C 7465   4.045   0.800   0.079 -0.2631  0.1984 -0.2239
   56MOL0     C 7466   4.158   0.739  -0.001 -0.0044 -0.1924  0.2057
   56MOL0     C 7467   4.279   0.711   0.082  0.6595  0.2794 -0.7184
   56MOL0     C 7468   4.395   0.798   0.044  0.0833  0.0099  0.1032
   56MOL0    Cl 7469   4.531   0.752   0.143 -0.6282  0.0123 -0.0839
   56MOL0     C 7470   3.300   1.183  -0.029 -0.4587  0.9519 -0.6202
   56MOL0     C 7471   3.192   1.252   0.025  0.2979 -1.2189 -0.1578
   56MOL0     O 7472   3.092   1.344   0.421 -0.8814 -0.3608  0.0963
   56MOL0     C 7473   2.864   1.508   0.470 -0.0176 -0.5834  0.3907
   56MOL0     C 7474   2.736   1.570   0.471  0.4470 -0.3374 -0.0815
   56MOL0     N 7475   2.115   1.851   0.404 -0.1764 -0.5285 -0.3282
   56MOL0     N 7476   2.006   1.827   0.468 -0.1080 -0.1618 -0.5659
   56MOL0     C 7477   1.126   1.003   0.186  0.4216  0.1147 -0.4420
   56MOL0     C 7478   1.044   0.903   0.128 -0.2194  0.2902 -1.2528
   56MOL0     C 7479   0.663   0.742  -0.080 -0.2285 -0.2893 -0.5707
   56MOL0     C 7480   0.686   0.617  -0.130 -0.4285 -0.9227 -0.1808
   56MOL0     C 7481   0.621   0.563  -0.235  0.1531  0.5433 -0.1624
   56MOL0     C 7482   0.528   0.646  -0.300  0.0168 -0.1935  1.4006
   56MOL0     O 7483   0.447   0.614  -0.416  0.2300  0.2147 -0.4942
   56MOL0     C 7484   0.448   0.478  -0.464 -0.7550  0.4566 -0.6732
   56MOL0     C 7485   0.345   0.475  -0.573  0.0222  0.6162  0.1020
   56MOL0     C 7486   0.206   0.463  -0.499  0.1549  1.6240 -0.2932
   56MOL0     C 7487   0.142   0.583  -0.436 -0.4499 -0.3116  0.2664
   56MOL0     C 7488   0.000   0.574  -0.419  0.3191 -0.3102 -0.5377
   56MOL0     C 7489  -0.122   0.574  -0.413 -0.8935  0.3770 -0.3613
   56MOL0     C 7490   0.505   0.772  -0.246  1.1737  0.0213  1.0239
   56MOL0     C 7491   0.566   0.821  -0.135  0.2243 -0.0133  0.6044
   56MOL0     C 7492   0.534   0.957  -0.084  0.6258 -0.1711 -0.1184
   56MOL0     H 7493   0.815   1.099  -0.026  0.7299  0.7606 -1.2245
   56MOL0     H 7494   0.940   1.264   0.049  0.0387 -1.0268 -0.8136
   56MOL0     H 7495   0.970   1.334   0.303 -0.2458 -0.5056  2.6112
   56MOL0     H 7496   1.118   1.375   0.394  0.4063  1.6834 -1.3299
   56MOL0     H 7497   1.075   1.569   0.258  3.0896  0.6738  1.3548
   56MOL0     H 7498   1.047   1.468   0.116  1.2943 -0.3488 -0.3660
   56MOL0     H 7499   1.253   1.573   0.116 -0.2168  0.7361  1.4705
   56MOL0     H 7500   1.304   1.407   0.135  0.2407  0.7109 -0.7026
   56MOL0     H 7501   1.266   1.584   0.385  0.0643  0.0495  0.3278
   56MOL0     H 7502   1.352   1.429   0.365 -0.7077 -0.3364 -1.1484
   56MOL0     H 7503   1.500   1.561   0.188  1.1453  2.7294 -1.0794
   56MOL0     H 7504   1.444   1.709   0.263  2.0623  0.0616 -3.4423
   56MOL0     H 7505   1.524   1.653   0.474 -2.3988 -1.8441 -0.0600
   56MOL0     H 7506   1.587   1.503   0.411 -4.4426  0.0559  2.3791
   56MOL0     H 7507   1.691   1.773   0.292  0.1127  0.0891  2.4506
   56MOL0     H 7508   1.728   1.606   0.258 -0.9832  1.0535 -1.5698
   56MOL0     H 7509   1.786   1.750   0.529  1.6204  0.7037 -0.9320
   56MOL0     H 7510   1.819   1.579   0.483  0.1365  0.8668  2.1415
   56MOL0     H 7511   2.004   1.597   0.229  2.5847 -0.2103  0.7144
   56MOL0     H 7512   2.201   1.798   0.114  1.2535  2.5425  1.5109
   56MOL0     H 7513   2.328   1.822   0.228  1.9229  0.8486 -1.8764
   56MOL0     H 7514   2.245   1.548   0.123  2.4677 -2.2853 -0.5321
   56MOL0     H 7515   2.391   1.633   0.113 -0.1194 -1.4030  0.1679
   56MOL0     H 7516   2.424   1.460   0.287  0.7478  0.0606  2.4299
   56MOL0     H 7517   2.263   1.476   0.343  2.4282 -1.1031  2.9676
   56MOL0     H 7518   2.448   1.559   0.503 -1.5238 -0.7266  0.5776
   56MOL0     H 7519   2.346   1.697   0.454  1.9966  2.1188 -0.5734
   56MOL0     H 7520   2.650   1.566   0.140 -1.1691 -1.4894  0.4370
   56MOL0     H 7521   2.855   1.461   0.133  1.8344  0.3675 -0.2566
   56MOL0     H 7522   3.312   1.284   0.343  1.1253  0.4111 -0.3167
   56MOL0     H 7523   3.476   1.148   0.257  1.6521  4.2291 -1.0790
   56MOL0     H 7524   3.664   1.092   0.135  0.0781 -1.2724  0.6898
   56MOL0     H 7525   3.578   0.935   0.141  0.9486 -1.2222 -0.4231
   56MOL0     H 7526   3.678   0.893  -0.084  0.2086  0.3130 -0.1735
   56MOL0     H 7527   3.763   1.043  -0.075  1.4663 -2.1662 -1.8664
   56MOL0     H 7528   3.857   0.958   0.162 -0.1125 -2.4638  1.5206
   56MOL0     H 7529   3.779   0.806   0.132 -0.0916  0.1947 -0.1478
   56MOL0     H 7530   3.978   0.935  -0.075 -0.4422 -0.2287 -1.0247
   56MOL0     H 7531   3.911   0.783  -0.090 -0.5929  0.6278  0.0421
   56MOL0     H 7532   4.004   0.724   0.146  0.0591  2.5625  2.8402
   56MOL0     H 7533   4.086   0.880   0.140 -2.9143 -0.1468  2.2392
   56MOL0     H 7534   4.125   0.646  -0.047 -0.3933  0.4557 -0.8504
   56MOL0     H 7535   4.177   0.808  -0.084 -1.1229 -1.0694 -0.8034
   56MOL0     H 7536   4.293   0.603   0.071 -3.3082 -0.5653  0.9517
   56MOL0     H 7537   4.256   0.722   0.188  0.4328  1.4156 -0.8705
   56MOL0     H 7538   4.428   0.791  -0.060  0.5480  0.3130  0.2253
   56MOL0     H 7539   4.374   0.903   0.065 -0.5130 -0.1084  0.1060
   56MOL0     H 7540   3.302   1.153  -0.133 -0.9747 -0.9676 -0.1138
   56MOL0     H 7541   3.110   1.285  -0.039  0.4953 -0.8786 -0.2419
   56MOL0     H 7542   2.929   1.512   0.557 -2.3514  3.1110  2.2031
   56MOL0     H 7543   2.689   1.622   0.554 -3.2661 -0.1450 -2.0868
   56MOL0     H 7544   1.219   0.979   0.236  0.6364  1.3719 -0.1957
   56MOL0     H 7545   1.065   0.796   0.127 -1.3849  0.0264 -0.2143
   56MOL0     H 7546   0.757   0.552  -0.080 -1.5363 -0.8548  1.5726
   56MOL0     H 7547   0.652   0.460  -0.252  0.6243  0.3115  1.7772
   56MOL0     H 7548   0.413   0.413  -0.383 -2.6104  0.8552 -1.1129
   56MOL0     H 7549   0.545   0.433  -0.489 -1.1398  0.4583 -2.3153
   56MOL0     H 7550   0.364   0.386  -0.634 -0.1141  1.4272 -1.1820
   56MOL0     H 7551   0.358   0.566  -0.633  0.0790  0.8395  0.4479
   56MOL0     H 7552   0.218   0.373  -0.438 -2.9069  1.4415  0.1966
   56MOL0     H 7553   0.134   0.431  -0.575 -0.2656  1.7490  0.0484
   56MOL0     H 7554   0.183   0.609  -0.338  0.2943  1.0152 -0.3735
   56MOL0     H 7555   0.168   0.666  -0.502 -0.5825 -0.9999 -0.6685
   56MOL0     H 7556  -0.228   0.586  -0.406 -1.6891 -3.2950 -3.2305
   56MOL0     H 7557   0.438   0.821  -0.316 -0.4678 -2.0664  1.0218
   56MOL0     H 7558   0.517   0.963   0.024  0.1709 -1.4739 -0.0994
   56MOL0     H 7559   0.620   1.023  -0.102  1.5761 -0.7864  1.8591
   56MOL0     H 7560   0.442   0.986  -0.134  0.0903 -0.7888  0.4868
   57MOL0     O 7561   4.231   4.526   0.162 -0.8446  0.1607  0.3401
   57MOL0     C 7562   4.342   4.484   0.120  0.1543  0.4084 -1.0698
   57MOL0     O 7563   4.366   4.356   0.066  0.2645 -0.4492  0.6623
   57MOL0     C 7564   4.271   4.269   0.054  1.3207  0.7671  0.1732
   57MOL0     C 7565   4.184   4.218   0.154 -0.5613 -0.3172  0.3422
   57MOL0     C 7566   4.103   4.110   0.131 -0.2810  0.9183 -0.7076
   57MOL0     C 7567   4.101   4.044   0.018 -0.4916  0.1305 -0.0673
   57MOL0     O 7568   4.025   3.929   0.023  0.0093 -0.0854  0.7604
   57MOL0     C 7569   4.044   3.824  -0.076 -0.6158  0.1245  0.3593
   57MOL0     C 7570   4.179   3.752  -0.078 -0.5006  0.9860  0.3239
   57MOL0     C 7571   4.207   3.673  -0.199 -0.9641 -0.5083  0.1154
   57MOL0     C 7572   4.309   3.564  -0.171  0.1610  0.4176  0.7915
   57MOL0     C 7573   4.361   3.507  -0.302 -0.1479 -0.3033  0.1250
   57MOL0     C 7574   4.253   3.421  -0.370 -0.6838  0.5445 -0.1818
   57MOL0     C 7575   4.319   3.340  -0.484 -0.1472  0.1464  0.4202
   57MOL0     C 7576   4.398   3.423  -0.583 -0.1991  0.3690  0.0700
   57MOL0     N 7577   4.482   3.340  -0.672 -0.0498 -0.1086  0.2216
   57MOL0     C 7578   4.437   3.268  -0.781  0.5990  0.7902  0.3609
   57MOL0     C 7579   4.542   3.206  -0.834 -0.1216  0.0251  0.6813
   57MOL0     C 7580   4.540   3.114  -0.956  0.1527  0.5118  1.1334
   57MOL0     C 7581   4.607   3.182  -1.080  0.2909  0.4671  0.3998
   57MOL0     C 7582   4.560   3.112  -1.206 -0.3042 -0.3352  0.4370
   57MOL0     C 7583   4.611   3.183  -1.328  0.2542 -0.0696 -0.0903
   57MOL0     O 7584   4.755   3.167  -1.342 -0.4285 -0.3327  0.1592
   57MOL0     C 7585   4.816   3.205  -1.465  0.7837  0.1528  0.5113
   57MOL0     C 7586   4.741   3.281  -1.563  0.9589  0.1121 -0.1457
   57MOL0     C 7587   4.788   3.298  -1.693 -0.7045 -0.4344  0.3911
   57MOL0     C 7588   4.920   3.256  -1.729  0.2975 -0.8653 -0.8386
   57MOL0     C 7589   4.985   3.281  -1.856 -0.4240 -0.6054 -1.0815
   57MOL0     O 7590   5.119   3.289  -1.848 -0.5338 -0.3918  0.4077
   57MOL0     C 7591   5.195   3.320  -1.960  0.1442 -0.1156 -0.6064
   57MOL0     C 7592   5.209   3.459  -1.994 -0.1352  0.6998 -0.0341
   57MOL0     C 7593   5.284   3.497  -2.104 -0.2027  0.2351 -0.3682
   57MOL0     C 7594   5.348   3.399  -2.181 -0.7354 -0.8708 -0.8650
   57MOL0     O 7595   5.429   3.452  -2.280  0.3677  0.4775 -0.2481
   57MOL0     C 7596   5.509   3.358  -2.351 -0.1590  0.7561 -0.3973
   57MOL0     C 7597   5.616   3.423  -2.450 -0.1850 -0.3425  0.9137
   57MOL0     C 7598   5.737   3.481  -2.379 -0.7467  0.1405 -1.0706
   57MOL0     C 7599   5.834   3.528  -2.488 -0.0846 -0.6177  0.2827
   57MOL0     C 7600   5.950   3.614  -2.445 -0.2522 -0.0344  0.3311
   57MOL0     C 7601   6.027   3.664  -2.564  0.3887  0.2092  1.1381
   57MOL0     C 7602   6.096   3.558  -2.661 -0.7341 -0.3436 -0.1131
   57MOL0     C 7603   6.181   3.619  -2.769 -0.7528 -0.0989  0.3088
   57MOL0    Cl 7604   6.082   3.732  -2.874 -0.1415 -0.3036  0.0564
   57MOL0     C 7605   5.335   3.268  -2.148  0.1536  0.5856  0.5274
   57MOL0     C 7606   5.264   3.226  -2.035 -0.0934  0.2499  0.1095
   57MOL0     O 7607   4.919   3.306  -1.956  0.8366 -0.1938 -0.2048
   57MOL0     C 7608   5.005   3.189  -1.627  0.8208 -0.7413  0.0283
   57MOL0     C 7609   4.940   3.167  -1.500 -0.1259 -0.3574  0.1573
   57MOL0     N 7610   4.650   3.223  -0.751 -0.5549 -0.7236  0.3928
   57MOL0     N 7611   4.610   3.304  -0.659  0.5191 -0.0122  0.0857
   57MOL0     C 7612   4.180   4.090  -0.091 -0.3855  0.5723 -0.0921
   57MOL0     C 7613   4.266   4.194  -0.066 -0.1697  1.1049 -0.2503
   57MOL0     C 7614   4.460   4.565   0.167  0.4610 -1.3173 -0.2822
   57MOL0     C 7615   4.585   4.498   0.180 -0.5344 -0.4091 -0.0777
   57MOL0     C 7616   4.704   4.574   0.199 -0.5921  0.2863  0.0745
   57MOL0     C 7617   4.700   4.714   0.212 -0.1543 -1.1410  0.3392
   57MOL0     O 7618   4.809   4.790   0.248 -0.2839 -0.2556  0.3511
   57MOL0     C 7619   4.910   4.831   0.146  0.0401 -0.6033  0.1974
   57MOL0     C 7620   4.983   4.962   0.183 -0.0155 -0.1253  0.0571
   57MOL0     C 7621   5.022   5.051   0.060  0.2882 -0.0358  0.2849
   57MOL0     C 7622   4.925   5.165   0.021  0.1390 -0.7463 -0.0891
   57MOL0     C 7623   4.787   5.130  -0.018  0.6886  0.6765 -0.1215
   57MOL0     C 7624   4.669   5.113  -0.044 -0.0203 -0.6152  0.0130
   57MOL0     C 7625   4.577   4.780   0.206 -0.5315 -0.0658  0.1830
   57MOL0     C 7626   4.458   4.704   0.171 -1.4466  0.0857  0.1424
   57MOL0     C 7627   4.333   4.784   0.149 -0.1317  0.4333  0.7742
   57MOL0     H 7628   4.184   4.245   0.259 -1.5551  0.9495  0.0458
   57MOL0     H 7629   4.052   4.057   0.211  3.6340  0.7374  1.9542
   57MOL0     H 7630   3.962   3.755  -0.057 -0.1043 -0.4559  0.4803
   57MOL0     H 7631   4.040   3.881  -0.169  3.8932  3.7838  2.0073
   57MOL0     H 7632   4.185   3.687   0.010  0.6620  0.4734 -0.1148
   57MOL0     H 7633   4.261   3.824  -0.076 -0.4043  0.9356 -0.9360
   57MOL0     H 7634   4.248   3.738  -0.276  0.0620 -0.2613  0.8484
   57MOL0     H 7635   4.117   3.619  -0.230 -1.6134  0.9541 -0.6059
   57MOL0     H 7636   4.397   3.594  -0.114  0.2108  1.0513  0.3972
   57MOL0     H 7637   4.251   3.494  -0.110  2.7445  0.2598  3.3001
   57MOL0     H 7638   4.394   3.593  -0.362  0.5530  0.1926  1.1959
   57MOL0     H 7639   4.448   3.445  -0.282  0.8903  0.9540 -0.3732
   57MOL0     H 7640   4.219   3.353  -0.292 -0.3476  0.8898  0.2664
   57MOL0     H 7641   4.171   3.487  -0.400 -0.5262  1.1784  0.7511
   57MOL0     H 7642   4.242   3.281  -0.535  0.5658 -1.8578  1.5648
   57MOL0     H 7643   4.390   3.271  -0.436 -1.7293 -2.1569 -0.4003
   57MOL0     H 7644   4.338   3.477  -0.657  1.0738  0.9269 -0.5881
   57MOL0     H 7645   4.468   3.494  -0.538  0.4812  1.2578 -2.1983
   57MOL0     H 7646   4.334   3.250  -0.808  1.8401 -3.1226 -2.6491
   57MOL0     H 7647   4.594   3.020  -0.943 -3.7575 -2.4377 -1.4298
   57MOL0     H 7648   4.433   3.096  -0.970 -0.5361  1.7585  4.0114
   57MOL0     H 7649   4.578   3.288  -1.080 -0.3031  0.3139  1.0895
   57MOL0     H 7650   4.716   3.174  -1.082  0.2468 -0.8498 -2.4035
   57MOL0     H 7651   4.453   3.092  -1.215 -0.3195  0.1249 -0.5525
   57MOL0     H 7652   4.605   3.012  -1.210 -0.2725 -0.3699  1.5390
   57MOL0     H 7653   4.575   3.286  -1.337 -0.8504 -0.6335 -4.2090
   57MOL0     H 7654   4.565   3.134  -1.415 -0.5466 -1.7006  1.1858
   57MOL0     H 7655   4.641   3.320  -1.555 -0.8537 -3.8581 -0.8921
   57MOL0     H 7656   4.720   3.344  -1.764 -2.7830 -0.2788  2.3655
   57MOL0     H 7657   5.165   3.536  -1.931  0.0167  0.1489  0.7531
   57MOL0     H 7658   5.295   3.602  -2.128  0.5427  0.1407 -0.4590
   57MOL0     H 7659   5.570   3.301  -2.281 -1.0009 -0.4974 -0.6488
   57MOL0     H 7660   5.449   3.290  -2.412 -0.5532  0.3858  0.3906
   57MOL0     H 7661   5.643   3.339  -2.515 -1.7371  0.5173 -0.9287
   57MOL0     H 7662   5.566   3.495  -2.514 -1.7649 -1.5189  0.7489
   57MOL0     H 7663   5.706   3.564  -2.315 -0.8270  0.5045 -1.5735
   57MOL0     H 7664   5.781   3.403  -2.317 -2.8735 -0.1191  0.2411
   57MOL0     H 7665   5.785   3.591  -2.562 -0.0208  1.8316  2.1808
   57MOL0     H 7666   5.868   3.435  -2.535 -1.9654 -2.1591  1.7774
   57MOL0     H 7667   6.015   3.546  -2.389 -0.6696 -0.1544  0.6746
   57MOL0     H 7668   5.921   3.690  -2.372  0.6418 -1.3412  2.1346
   57MOL0     H 7669   5.963   3.727  -2.627  2.2859  1.5339  0.4130
   57MOL0     H 7670   6.099   3.740  -2.530 -0.1243  1.8878 -1.2360
   57MOL0     H 7671   6.016   3.501  -2.710 -0.4625  0.1039 -1.0946
   57MOL0     H 7672   6.153   3.493  -2.594  0.9955  1.5156  0.3180
   57MOL0     H 7673   6.270   3.666  -2.725 -2.3836  0.2599  3.5802
   57MOL0     H 7674   6.227   3.547  -2.836 -2.4336  0.0199 -1.0370
   57MOL0     H 7675   5.381   3.190  -2.210  2.2197  1.7479  0.4955
   57MOL0     H 7676   5.253   3.123  -2.002 -1.3426 -0.0059 -1.0401
   57MOL0     H 7677   5.104   3.149  -1.641  0.0559 -3.2615  1.4094
   57MOL0     H 7678   4.995   3.115  -1.423 -0.5274 -0.6442  0.2568
   57MOL0     H 7679   4.191   4.045  -0.189 -0.3293  1.5863 -0.5642
   57MOL0     H 7680   4.332   4.222  -0.148  0.9835 -3.0447 -0.9726
   57MOL0     H 7681   4.593   4.390   0.172 -3.0072 -0.6309 -0.4241
   57MOL0     H 7682   4.798   4.519   0.204  0.5287  2.2262  2.0886
   57MOL0     H 7683   4.854   4.841   0.052 -1.6277 -1.8108  1.0124
   57MOL0     H 7684   4.983   4.751   0.133 -0.2043 -0.9999  1.1669
   57MOL0     H 7685   5.072   4.938   0.242 -0.1120  0.3415  0.4005
   57MOL0     H 7686   4.919   5.028   0.242 -0.9985 -0.2872 -0.8049
   57MOL0     H 7687   5.053   5.001  -0.033 -0.1524  0.4689 -0.1415
   57MOL0     H 7688   5.111   5.101   0.099  0.7682 -0.9027  0.3389
   57MOL0     H 7689   4.914   5.230   0.109  1.3101 -0.2452 -0.2914
   57MOL0     H 7690   4.966   5.222  -0.063  0.4094  1.1720  1.2732
   57MOL0     H 7691   4.564   5.106  -0.063 -0.0097  0.2623 -0.3975
   57MOL0     H 7692   4.573   4.887   0.221 -0.6867  0.0269 -0.4568
   57MOL0     H 7693   4.360   4.881   0.105  2.3789  0.1517  1.5435
   57MOL0     H 7694   4.264   4.736   0.079  1.7128 -0.8093 -0.2766
   57MOL0     H 7695   4.284   4.799   0.246 -1.9351  1.5821 -0.2543
   58MOL0     O 7696   2.864   6.451   8.180  0.1242  0.4656  0.1515
   58MOL0     C 7697   2.823   6.561   8.128 -0.0460  0.6668 -0.7471
   58MOL0     O 7698   2.850   6.685   8.174 -0.3190 -0.1884 -0.8364
   58MOL0     C 7699   2.952   6.699   8.260 -0.6226  0.0136 -0.9120
   58MOL0     C 7700   3.077   6.635   8.248 -0.3406 -0.1792 -0.1923
   58MOL0     C 7701   3.170   6.667   8.345 -0.3430  0.1421  0.0344
   58MOL0     C 7702   3.149   6.757   8.448 -1.1942 -0.7415 -0.3090
   58MOL0     O 7703   3.247   6.789   8.533 -0.4041 -0.6372 -0.1220
   58MOL0     C 7704   3.230   6.730   8.659 -0.0096  0.2129  0.1827
   58MOL0     C 7705   3.335   6.785   8.760 -0.0404  0.3267  0.3275
   58MOL0     C 7706   3.346   6.679   8.860 -0.2271  0.9151 -0.5537
   58MOL0     C 7707   3.232   6.705   8.960 -0.1377 -0.0010 -0.2936
   58MOL0     C 7708   3.225   6.599   9.073  0.1998 -0.3023  0.6386
   58MOL0     C 7709   3.185   6.464   9.030  0.1772 -0.2221 -0.4267
   58MOL0     C 7710   3.183   6.369   9.155 -0.4821 -0.0996 -0.2370
   58MOL0     C 7711   3.167   6.223   9.112  0.1099 -0.0286 -0.7096
   58MOL0     N 7712   3.270   6.169   9.027 -0.0808  0.2815  0.0468
   58MOL0     C 7713   3.262   6.170   8.892  0.2486 -0.5021  0.6598
   58MOL0     C 7714   3.382   6.103   8.860 -0.3998  0.5819 -0.4676
   58MOL0     C 7715   3.424   6.073   8.716 -0.2593 -0.1719  0.4702
   58MOL0     C 7716   3.429   6.205   8.628  1.4464 -0.1346  0.6253
   58MOL0     C 7717   3.486   6.326   8.709 -0.9359 -0.2924  0.2487
   58MOL0     C 7718   3.563   6.436   8.631 -0.6117 -0.4881  0.2418
   58MOL0     O 7719   3.630   6.519   8.729  0.0833 -0.0249 -0.4153
   58MOL0     C 7720   3.770   6.501   8.743  0.5206  1.0957  0.1600
   58MOL0     C 7721   3.826   6.594   8.827  0.0537 -0.1716 -0.9239
   58MOL0     C 7722   3.956   6.576   8.871 -0.7003  0.3906  0.6406
   58MOL0     C 7723   4.024   6.451   8.849  0.7887 -0.6483  0.3526
   58MOL0     C 7724   4.163   6.434   8.901 -0.1383  0.1440  0.4003
   58MOL0     O 7725   4.228   6.324   8.847 -0.6018 -0.5182 -0.0084
   58MOL0     C 7726   4.361   6.310   8.879 -0.1956 -0.1727 -0.5331
   58MOL0     C 7727   4.438   6.334   9.000  0.7636  0.1456  1.0600
   58MOL0     C 7728   4.569   6.292   9.011 -0.0578 -0.2383 -0.5225
   58MOL0     C 7729   4.627   6.210   8.915  0.6436 -0.2301  0.3557
   58MOL0     O 7730   4.754   6.162   8.920 -0.4281 -0.1481 -0.6135
   58MOL0     C 7731   4.800   6.065   8.824 -0.7802 -1.0029  0.3781
   58MOL0     C 7732   4.954   6.046   8.836  0.0732 -0.1864  0.8814
   58MOL0     C 7733   5.002   5.923   8.896  0.1387 -0.0207  0.7404
   58MOL0     C 7734   5.140   5.892   8.846  0.3164 -0.0983 -0.5928
   58MOL0     C 7735   5.230   5.796   8.921 -0.1047  0.6518 -0.1716
   58MOL0     C 7736   5.232   5.832   9.070  0.2351 -0.1174 -0.2877
   58MOL0     C 7737   5.347   5.775   9.141  0.7801 -0.6069  0.1137
   58MOL0     C 7738   5.327   5.786   9.291 -0.7855 -0.4777  0.1893
   58MOL0    Cl 7739   5.315   5.956   9.342 -0.4366  0.4404  0.1894
   58MOL0     C 7740   4.554   6.180   8.801  0.7404  1.2552 -0.0144
   58MOL0     C 7741   4.418   6.223   8.784 -0.5596  0.5209 -0.0086
   58MOL0     O 7742   4.217   6.533   8.950  0.0918  0.4687  0.1157
   58MOL0     C 7743   3.968   6.357   8.762  0.4163 -0.4733  0.0623
   58MOL0     C 7744   3.839   6.375   8.711 -0.5158 -0.2993 -1.0987
   58MOL0     N 7745   3.440   6.052   8.978 -0.1169  0.7177 -0.3442
   58MOL0     N 7746   3.372   6.098   9.070 -0.1210 -1.0831  0.5441
   58MOL0     C 7747   3.029   6.826   8.452  0.4517  1.1264  0.7221
   58MOL0     C 7748   2.930   6.789   8.359  0.1356  0.5353 -0.6409
   58MOL0     C 7749   2.736   6.537   8.011 -0.4351 -0.0364 -0.5258
   58MOL0     C 7750   2.612   6.603   8.005  0.4267  0.1008 -0.3880
   58MOL0     C 7751   2.527   6.589   7.895 -0.4892 -0.4111  0.2780
   58MOL0     C 7752   2.566   6.535   7.783 -0.0584 -0.9623 -0.1718
   58MOL0     O 7753   2.473   6.546   7.678 -0.2460  0.0184  0.5523
   58MOL0     C 7754   2.493   6.458   7.565 -0.4166 -0.3515 -0.3237
   58MOL0     C 7755   2.369   6.464   7.481 -0.3257 -0.7636  1.7208
   58MOL0     C 7756   2.367   6.362   7.369 -0.8269 -0.5666 -0.9819
   58MOL0     C 7757   2.235   6.358   7.294  0.2546  0.2692 -0.1114
   58MOL0     C 7758   2.257   6.256   7.190 -0.3231  0.7710  0.6010
   58MOL0     C 7759   2.264   6.181   7.090  0.2766 -0.5909 -0.3317
   58MOL0     C 7760   2.689   6.467   7.778  0.0397  0.2360 -0.0371
   58MOL0     C 7761   2.781   6.471   7.894 -0.6610 -0.1402  0.9096
   58MOL0     C 7762   2.920   6.429   7.873 -0.0817 -0.5306  0.1298
   58MOL0     H 7763   3.097   6.570   8.164 -1.6534  0.6425 -1.1825
   58MOL0     H 7764   3.269   6.622   8.339  0.8130  2.1798  2.0719
   58MOL0     H 7765   3.131   6.760   8.695  0.6452  0.5120  1.8136
   58MOL0     H 7766   3.235   6.622   8.643 -0.3320 -0.1080  1.9481
   58MOL0     H 7767   3.317   6.889   8.790  1.0780  1.7239 -3.3155
   58MOL0     H 7768   3.428   6.800   8.704  0.9989 -2.9849  0.9689
   58MOL0     H 7769   3.437   6.685   8.921 -1.2334 -0.9383  1.2675
   58MOL0     H 7770   3.341   6.579   8.816 -1.2814 -0.3452  2.1588
   58MOL0     H 7771   3.247   6.803   9.007 -0.5300 -0.5614  1.0446
   58MOL0     H 7772   3.139   6.726   8.906  0.6606 -0.9587 -2.0922
   58MOL0     H 7773   3.325   6.597   9.118  1.0511  3.4384 -0.6792
   58MOL0     H 7774   3.159   6.640   9.149 -1.4686  1.0527 -1.4191
   58MOL0     H 7775   3.084   6.466   8.988  1.2560 -2.3986 -3.5345
   58MOL0     H 7776   3.252   6.430   8.951  0.5158  0.5422 -0.4783
   58MOL0     H 7777   3.096   6.393   9.217 -2.5127 -3.2723 -1.5630
   58MOL0     H 7778   3.273   6.374   9.216 -0.1274 -1.1831 -0.6490
   58MOL0     H 7779   3.150   6.159   9.199 -4.6308 -0.5880 -1.7522
   58MOL0     H 7780   3.075   6.207   9.055  0.1212 -0.3611 -0.6380
   58MOL0     H 7781   3.187   6.206   8.823  2.2167 -1.0184 -1.9300
   58MOL0     H 7782   3.525   6.032   8.717  0.3848  1.3020  2.0077
   58MOL0     H 7783   3.361   6.000   8.665 -1.3476  0.9274  0.1755
   58MOL0     H 7784   3.485   6.178   8.538  3.7152  0.5031  1.7794
   58MOL0     H 7785   3.329   6.233   8.593  2.2877  1.4705 -0.6260
   58MOL0     H 7786   3.555   6.287   8.784 -1.2023 -1.8613 -0.2783
   58MOL0     H 7787   3.401   6.373   8.760 -0.3550 -0.2220  1.1712
   58MOL0     H 7788   3.486   6.494   8.580 -1.2934 -2.6435 -1.3313
   58MOL0     H 7789   3.631   6.402   8.553 -3.0814 -1.3782 -1.6593
   58MOL0     H 7790   3.771   6.685   8.849 -0.6425 -0.2331 -2.3390
   58MOL0     H 7791   4.000   6.664   8.917 -0.7921  1.0678 -0.5166
   58MOL0     H 7792   4.389   6.401   9.069 -0.4952  2.0769 -1.5468
   58MOL0     H 7793   4.629   6.317   9.098 -1.4748 -2.8290  1.3368
   58MOL0     H 7794   4.746   5.973   8.848 -3.5215 -0.1029 -1.7282
   58MOL0     H 7795   4.781   6.103   8.723  0.0965 -0.7418  0.2990
   58MOL0     H 7796   4.998   6.054   8.737  1.5129  0.9980  1.5750
   58MOL0     H 7797   5.000   6.133   8.884 -2.2914  0.5111  2.0873
   58MOL0     H 7798   4.997   5.930   9.005 -3.5931  0.6106  0.6479
   58MOL0     H 7799   4.945   5.833   8.870 -1.1776  0.9617  0.1163
   58MOL0     H 7800   5.187   5.990   8.836 -1.9745  1.4558  2.1510
   58MOL0     H 7801   5.119   5.850   8.747 -2.0397 -0.0706 -0.1574
   58MOL0     H 7802   5.334   5.791   8.889  0.5935  3.1328  1.4418
   58MOL0     H 7803   5.186   5.696   8.912 -0.3443  0.3608  2.8862
   58MOL0     H 7804   5.226   5.941   9.083  1.1497 -0.1259  0.3617
   58MOL0     H 7805   5.139   5.794   9.113 -0.4918 -0.6566 -2.2322
   58MOL0     H 7806   5.435   5.828   9.104  0.2893  1.5925  1.8331
   58MOL0     H 7807   5.362   5.670   9.116 -0.6294 -0.9787  0.7011
   58MOL0     H 7808   5.246   5.720   9.324 -0.7964 -1.2021 -1.1929
   58MOL0     H 7809   5.416   5.752   9.346  0.1580  1.4800 -0.0518
   58MOL0     H 7810   4.571   6.104   8.725 -2.7141 -0.0340  0.3075
   58MOL0     H 7811   4.355   6.198   8.699 -1.3552  0.3357  0.6223
   58MOL0     H 7812   4.017   6.267   8.727 -0.2787 -1.2203  0.9793
   58MOL0     H 7813   3.789   6.295   8.657  0.0330 -1.0061 -0.5797
   58MOL0     H 7814   3.027   6.901   8.531  2.9149  0.9564  1.0528
   58MOL0     H 7815   2.839   6.847   8.366 -0.4103 -0.3715 -0.0334
   58MOL0     H 7816   2.585   6.668   8.087  5.0251  3.0141 -0.7785
   58MOL0     H 7817   2.430   6.638   7.900 -2.0647 -2.9231 -2.7282
   58MOL0     H 7818   2.511   6.356   7.598 -1.2611 -0.3075  0.3386
   58MOL0     H 7819   2.576   6.497   7.505  1.8965 -0.9633  2.2813
   58MOL0     H 7820   2.373   6.563   7.435  2.2889 -0.7637  1.7927
   58MOL0     H 7821   2.280   6.457   7.544 -2.0350 -2.0070 -0.6533
   58MOL0     H 7822   2.381   6.261   7.409  1.8903  0.1126 -0.0309
   58MOL0     H 7823   2.454   6.376   7.305 -0.8833  0.0566 -0.9265
   58MOL0     H 7824   2.158   6.315   7.359  1.1416 -0.6363  0.3661
   58MOL0     H 7825   2.210   6.458   7.258  2.4649  1.4513  1.4295
   58MOL0     H 7826   2.263   6.120   7.002 -1.6445 -0.8747 -0.1681
   58MOL0     H 7827   2.707   6.417   7.684  0.5063  0.5944 -0.1401
   58MOL0     H 7828   2.976   6.523   7.871 -1.9715  0.7171  1.9786
   58MOL0     H 7829   2.953   6.361   7.953 -1.2620 -0.9395  0.2884
   58MOL0     H 7830   2.941   6.384   7.775  1.6219 -0.8967  0.6265
   59MOL0     O 7831   8.864   8.740   5.620 -0.2304 -0.0105  0.1960
   59MOL0     C 7832   8.890   8.662   5.713 -0.4617  0.3274  0.2873
   59MOL0     O 7833   9.010   8.667   5.784 -0.2847 -0.2010  0.0948
   59MOL0     C 7834   9.111   8.746   5.736  0.3759  0.4689 -0.7548
   59MOL0     C 7835   9.113   8.880   5.780 -0.8653  0.1004 -0.7082
   59MOL0     C 7836   9.203   8.966   5.724  0.1366 -0.6522 -0.3373
   59MOL0     C 7837   9.312   8.915   5.646 -0.1780 -1.0492 -0.4756
   59MOL0     O 7838   9.412   9.013   5.613 -0.3096  0.1449 -0.5362
   59MOL0     C 7839   9.516   8.963   5.523 -0.0608 -0.1930  0.7177
   59MOL0     C 7840   9.639   9.056   5.537 -0.1451 -0.0389  0.8345
   59MOL0     C 7841   9.653   9.147   5.411  0.4475 -0.1456 -0.2500
   59MOL0     C 7842   9.782   9.223   5.416 -1.1713  1.0277  0.4867
   59MOL0     C 7843   9.814   9.289   5.273 -0.2188  0.0383 -0.2890
   59MOL0     C 7844   9.959   9.347   5.274  0.1358 -0.4686 -0.1445
   59MOL0     C 7845   9.992   9.427   5.148 -0.1816 -0.3303  0.7100
   59MOL0     C 7846  10.102   9.534   5.160  0.0762 -0.6857 -0.7707
   59MOL0     N 7847  10.236   9.489   5.128 -0.0121 -0.2105  0.6675
   59MOL0     C 7848  10.311   9.417   5.216 -0.6333  0.3498 -0.6552
   59MOL0     C 7849  10.431   9.408   5.156 -0.2118  0.7013 -0.2252
   59MOL0     C 7850  10.541   9.309   5.192 -0.2001  0.5831  0.4876
   59MOL0     C 7851  10.682   9.374   5.179  0.0092 -0.2636  0.2260
   59MOL0     C 7852  10.693   9.512   5.251  0.8086 -0.0361 -0.1448
   59MOL0     C 7853  10.836   9.535   5.277  0.2940 -0.5079 -0.3742
   59MOL0     O 7854  10.914   9.548   5.153 -0.0443  0.6272 -0.6615
   59MOL0     C 7855  11.045   9.541   5.154 -0.1573  0.0336 -0.1207
   59MOL0     C 7856  11.122   9.504   5.265  0.3194  0.1131 -0.2420
   59MOL0     C 7857  11.253   9.486   5.262  0.3939 -0.0081 -0.4171
   59MOL0     C 7858  11.323   9.506   5.145  0.2410  0.6336  0.3188
   59MOL0     C 7859  11.472   9.493   5.150  0.5447  0.9678 -0.2964
   59MOL0     O 7860  11.534   9.455   5.269 -0.0555 -0.3868  0.1208
   59MOL0     C 7861  11.671   9.459   5.273 -0.6562 -0.0804 -0.4714
   59MOL0     C 7862  11.724   9.534   5.377  0.1124 -0.3961 -0.3536
   59MOL0     C 7863  11.865   9.550   5.393  0.3176  0.0265 -0.1983
   59MOL0     C 7864  11.951   9.469   5.327  0.2301  0.0654  1.2929
   59MOL0     O 7865  12.083   9.484   5.361 -0.3041 -0.3245 -0.0863
   59MOL0     C 7866  12.185   9.445   5.265 -0.5098  0.3181 -0.5186
   59MOL0     C 7867  12.323   9.469   5.329  0.1715 -0.2643  0.1809
   59MOL0     C 7868  12.442   9.390   5.274  0.1291 -0.0587  0.0393
   59MOL0     C 7869  12.571   9.391   5.359  0.3671 -0.1424  0.3225
   59MOL0     C 7870  12.675   9.302   5.297  0.8194  0.3695  0.2768
   59MOL0     C 7871  12.797   9.295   5.396 -0.6275 -0.0776  0.5099
   59MOL0     C 7872  12.913   9.218   5.343  0.5264 -0.3946 -0.2484
   59MOL0     C 7873  13.019   9.195   5.453  0.6720  0.3228  0.0111
   59MOL0    Cl 7874  13.179   9.154   5.370  0.5174 -0.2210  0.6275
   59MOL0     C 7875  11.897   9.395   5.215 -0.4458 -0.0109 -0.1308
   59MOL0     C 7876  11.765   9.397   5.184  0.2470 -0.3981 -0.1303
   59MOL0     O 7877  11.529   9.505   5.041 -0.0164  0.6899 -0.1812
   59MOL0     C 7878  11.261   9.552   5.028 -0.1069  0.1663 -0.0568
   59MOL0     C 7879  11.119   9.564   5.035 -0.5027 -0.2340 -0.7599
   59MOL0     N 7880  10.426   9.467   5.031  0.0384 -0.2749 -0.5873
   59MOL0     N 7881  10.314   9.521   5.019 -0.0490 -0.6097  0.2033
   59MOL0     C 7882   9.312   8.783   5.611  0.1935  0.0693 -0.5434
   59MOL0     C 7883   9.206   8.700   5.652 -1.2259  0.3224  0.3116
   59MOL0     C 7884   8.782   8.576   5.767 -0.7154  0.3218  0.3230
   59MOL0     C 7885   8.820   8.503   5.881  0.2846 -0.4805  0.3148
   59MOL0     C 7886   8.729   8.416   5.943  0.4294 -0.1006 -0.1308
   59MOL0     C 7887   8.607   8.395   5.882  1.0894  0.0250  0.4175
   59MOL0     O 7888   8.510   8.313   5.925 -0.3557  0.2563  0.1834
   59MOL0     C 7889   8.543   8.222   6.027 -0.6838 -0.0797  0.0904
   59MOL0     C 7890   8.632   8.105   5.964  0.2150  0.3530 -0.8175
   59MOL0     C 7891   8.572   8.044   5.830  0.5650 -0.1046  0.1082
   59MOL0     C 7892   8.666   7.933   5.794 -0.0793 -0.3610 -0.6222
   59MOL0     C 7893   8.647   7.807   5.870  0.2097 -0.1909 -0.3993
   59MOL0     C 7894   8.632   7.705   5.937  0.4547 -0.2183 -0.0946
   59MOL0     C 7895   8.567   8.462   5.764 -0.1434  0.4838 -0.1486
   59MOL0     C 7896   8.657   8.549   5.710  0.8437 -0.6607  0.2642
   59MOL0     C 7897   8.600   8.623   5.581 -0.1704 -0.4987  0.4175
   59MOL0     H 7898   9.032   8.913   5.844 -0.9982  1.5636 -1.5695
   59MOL0     H 7899   9.212   9.068   5.760 -0.7811 -0.8093  0.3762
   59MOL0     H 7900   9.551   8.864   5.554 -0.6339 -0.5606  0.2146
   59MOL0     H 7901   9.485   8.954   5.418 -0.7061 -1.6290  1.0058
   59MOL0     H 7902   9.732   9.000   5.548  3.2694  5.0343  1.4233
   59MOL0     H 7903   9.634   9.113   5.631 -0.5834  2.1521 -0.4374
   59MOL0     H 7904   9.571   9.220   5.402  0.2453 -0.6265 -3.5152
   59MOL0     H 7905   9.650   9.085   5.321 -1.6320 -0.3229 -0.1031
   59MOL0     H 7906   9.790   9.295   5.497  0.1108 -0.5036  1.8008
   59MOL0     H 7907   9.852   9.141   5.437 -1.2341  0.5617 -1.0082
   59MOL0     H 7908   9.801   9.225   5.185 -1.4507  0.4781 -0.4450
   59MOL0     H 7909   9.742   9.368   5.252 -1.6648 -0.5596  2.0628
   59MOL0     H 7910   9.965   9.420   5.355 -0.1171  0.4244 -0.9236
   59MOL0     H 7911  10.028   9.265   5.297  0.9301  0.2304 -0.0385
   59MOL0     H 7912   9.904   9.478   5.107  1.3551 -0.4224 -3.1388
   59MOL0     H 7913  10.019   9.351   5.075  0.9213 -1.9458  2.6911
   59MOL0     H 7914  10.090   9.613   5.085  0.2915 -1.0613 -1.2133
   59MOL0     H 7915  10.089   9.585   5.256 -1.1463 -0.6363 -0.9518
   59MOL0     H 7916  10.275   9.356   5.298 -1.0792 -2.6031 -2.8908
   59MOL0     H 7917  10.529   9.263   5.291  1.4813  1.8106  1.3116
   59MOL0     H 7918  10.544   9.235   5.112 -0.2252  2.5460 -1.4322
   59MOL0     H 7919  10.747   9.296   5.219 -2.2402 -2.7864 -0.7419
   59MOL0     H 7920  10.699   9.405   5.075  3.0165 -0.0509  0.6930
   59MOL0     H 7921  10.635   9.515   5.343  2.0677  1.1925  0.6439
   59MOL0     H 7922  10.658   9.588   5.180  1.9474  2.3556  1.6737
   59MOL0     H 7923  10.865   9.445   5.333 -0.1330 -0.9263 -0.8105
   59MOL0     H 7924  10.852   9.613   5.351  1.9424 -1.9718  0.8857
   59MOL0     H 7925  11.075   9.494   5.362  0.7934  0.7458  0.0613
   59MOL0     H 7926  11.303   9.463   5.356  1.4784 -0.5713 -1.1100
   59MOL0     H 7927  11.660   9.584   5.448  0.0941 -1.8413  0.7027
   59MOL0     H 7928  11.883   9.626   5.468 -0.6672  1.3660 -1.2470
   59MOL0     H 7929  12.189   9.340   5.236 -1.9453 -0.7308  2.6631
   59MOL0     H 7930  12.178   9.513   5.180 -2.8392  0.1379 -0.5479
   59MOL0     H 7931  12.346   9.576   5.334 -0.8888 -0.0613  2.4144
   59MOL0     H 7932  12.313   9.431   5.431  0.9944 -0.6433  0.1296
   59MOL0     H 7933  12.414   9.285   5.267 -1.8489  0.5120 -1.4993
   59MOL0     H 7934  12.463   9.422   5.171  0.3669  0.3558  0.2123
   59MOL0     H 7935  12.538   9.358   5.457 -3.8977  2.6245  0.0885
   59MOL0     H 7936  12.616   9.490   5.369 -2.0000  0.8597  2.1683
   59MOL0     H 7937  12.707   9.346   5.201 -2.0271  0.9944 -0.4719
   59MOL0     H 7938  12.629   9.205   5.277  2.8374 -0.5208 -0.2776
   59MOL0     H 7939  12.840   9.393   5.419 -1.8764  0.5300  0.3418
   59MOL0     H 7940  12.764   9.242   5.486  0.3885 -1.2991  0.1978
   59MOL0     H 7941  12.952   9.281   5.262 -0.0448 -0.4808 -0.5953
   59MOL0     H 7942  12.886   9.120   5.304  3.5325 -1.0407 -0.9616
   59MOL0     H 7943  13.023   9.280   5.522 -0.6952  1.8107 -1.6337
   59MOL0     H 7944  12.985   9.107   5.509  3.3359 -0.2644  0.8394
   59MOL0     H 7945  11.967   9.337   5.157 -0.9499 -2.9515  1.9417
   59MOL0     H 7946  11.737   9.345   5.093 -1.8273 -0.8249  0.6872
   59MOL0     H 7947  11.326   9.551   4.941  1.7191  2.6543  1.1678
   59MOL0     H 7948  11.062   9.574   4.943 -3.5308 -0.0740  0.9897
   59MOL0     H 7949   9.393   8.726   5.567 -0.8008 -1.9595  0.1392
   59MOL0     H 7950   9.209   8.600   5.612  3.9317  0.9612 -1.7849
   59MOL0     H 7951   8.920   8.495   5.924  1.6047 -2.0721 -2.7384
   59MOL0     H 7952   8.759   8.387   6.044  1.1245  1.3980  0.1197
   59MOL0     H 7953   8.445   8.185   6.060 -0.3797 -0.2771  0.7932
   59MOL0     H 7954   8.591   8.263   6.116 -0.9411 -2.3855  1.3610
   59MOL0     H 7955   8.666   8.029   6.035  0.9883  0.4770 -1.0526
   59MOL0     H 7956   8.727   8.146   5.929 -0.1402  2.5547  0.6070
   59MOL0     H 7957   8.563   8.123   5.755 -0.1935 -1.2476 -1.0472
   59MOL0     H 7958   8.481   7.985   5.841  1.0970 -1.3811 -1.8634
   59MOL0     H 7959   8.661   7.909   5.687  3.6011  0.1415 -1.0361
   59MOL0     H 7960   8.768   7.971   5.800 -0.6158  1.7424 -3.0144
   59MOL0     H 7961   8.623   7.623   6.005 -0.7323  0.2874  0.3993
   59MOL0     H 7962   8.467   8.448   5.723  0.8029 -4.2543 -1.4251
   59MOL0     H 7963   8.652   8.604   5.487 -2.3250 -0.7637 -0.8014
   59MOL0     H 7964   8.497   8.590   5.560 -0.8955  2.3781 -1.0053
   59MOL0     H 7965   8.600   8.732   5.592 -1.0938 -0.3176 -1.1208
   60MOL0     O 7966  10.525   5.409   9.380 -0.6239 -1.3477  1.0616
   60MOL0     C 7967  10.416   5.395   9.430 -0.9352 -0.4168 -0.1628
   60MOL0     O 7968  10.391   5.334   9.549 -0.2810  0.3299 -0.8858
   60MOL0     C 7969  10.476   5.253   9.622 -0.8938  0.5046 -0.9636
   60MOL0     C 7970  10.578   5.172   9.561 -0.5899 -0.2507  1.4433
   60MOL0     C 7971  10.666   5.090   9.641 -0.0540  0.0682 -0.5198
   60MOL0     C 7972  10.651   5.079   9.781 -0.7369  0.0470 -0.8994
   60MOL0     O 7973  10.724   4.990   9.850 -0.2847 -0.1647 -0.6666
   60MOL0     C 7974  10.721   5.004   9.991 -0.8633  0.5326  0.0704
   60MOL0     C 7975  10.850   4.944  10.041 -0.0844  0.0575  0.9079
   60MOL0     C 7976  10.866   4.948  10.199  0.0527 -0.8784  0.0571
   60MOL0     C 7977  10.952   4.834  10.262  0.3367  0.1684  0.0147
   60MOL0     C 7978  11.026   4.867  10.389  0.4042 -0.7362 -0.4766
   60MOL0     C 7979  11.164   4.941  10.368 -0.8740  0.3283  0.5918
   60MOL0     C 7980  11.266   4.839  10.311 -0.6065 -0.5497  0.5173
   60MOL0     C 7981  11.379   4.916  10.237 -0.4101 -1.8109  0.3325
   60MOL0     N 7982  11.476   4.975  10.323 -0.4539  0.5978  0.4475
   60MOL0     C 7983  11.540   4.910  10.420 -0.0304 -0.2269  0.3840
   60MOL0     C 7984  11.631   5.002  10.457 -0.9768 -0.0774 -0.6011
   60MOL0     C 7985  11.744   4.986  10.561 -0.1901  0.2410  0.1466
   60MOL0     C 7986  11.833   4.867  10.522 -0.5396 -0.0524  0.1668
   60MOL0     C 7987  11.978   4.895  10.564  0.2336 -0.0270 -0.0230
   60MOL0     C 7988  12.083   4.796  10.521 -0.1846  0.1946  0.7676
   60MOL0     O 7989  12.043   4.658  10.539  0.4043  0.3371  0.1062
   60MOL0     C 7990  12.128   4.557  10.492  1.3715 -1.0750  0.4617
   60MOL0     C 7991  12.076   4.430  10.462  0.2761  0.0183 -0.5905
   60MOL0     C 7992  12.167   4.335  10.408 -0.2382 -0.1980  0.3401
   60MOL0     C 7993  12.305   4.362  10.398 -0.9317 -0.3535 -0.7830
   60MOL0     C 7994  12.401   4.261  10.355 -0.4510  0.1809 -0.0304
   60MOL0     O 7995  12.354   4.167  10.266 -0.2550 -0.2020 -0.2001
   60MOL0     C 7996  12.436   4.069  10.217  0.5895 -0.2158 -0.3842
   60MOL0     C 7997  12.364   3.969  10.146  0.4426 -0.7667 -0.2644
   60MOL0     C 7998  12.425   3.867  10.071  0.4514  0.7864  0.9783
   60MOL0     C 7999  12.560   3.844  10.075 -0.0528  0.2224 -0.8087
   60MOL0     O 8000  12.614   3.753   9.997 -0.1165  0.6279 -0.2354
   60MOL0     C 8001  12.728   3.673  10.042  0.5850  1.0110 -0.3036
   60MOL0     C 8002  12.859   3.739   9.998  0.0347  0.8047  1.0243
   60MOL0     C 8003  12.847   3.783   9.854 -0.9242  0.0987 -0.2269
   60MOL0     C 8004  12.831   3.932   9.845  0.7878  0.9215 -0.3489
   60MOL0     C 8005  12.835   3.980   9.697 -0.7972 -1.0942  0.5216
   60MOL0     C 8006  12.707   3.928   9.627  0.0999 -0.1519  0.0430
   60MOL0     C 8007  12.676   4.006   9.496  0.2445  1.0072 -0.0243
   60MOL0     C 8008  12.644   3.913   9.386  0.3484  0.2588  0.4862
   60MOL0    Cl 8009  12.592   4.017   9.242  0.0154  0.3092  0.1811
   60MOL0     C 8010  12.634   3.937  10.161  0.6540 -0.2926  0.2855
   60MOL0     C 8011  12.577   4.053  10.219 -0.0421  0.0804  0.7478
   60MOL0     O 8012  12.513   4.262  10.404 -0.4985  0.2735 -0.4584
   60MOL0     C 8013  12.353   4.491  10.419 -0.7787 -0.9732  0.3553
   60MOL0     C 8014  12.267   4.582  10.467 -0.7151  0.1656 -0.2624
   60MOL0     N 8015  11.615   5.119  10.381 -0.0757 -0.6514 -0.7815
   60MOL0     N 8016  11.513   5.104  10.300  0.5914 -0.1255 -0.6659
   60MOL0     C 8017  10.541   5.150   9.843  0.8406 -0.0139 -0.0691
   60MOL0     C 8018  10.464   5.236   9.762  0.0229  0.0045 -1.2544
   60MOL0     C 8019  10.307   5.440   9.342 -0.0783  0.1419 -0.8255
   60MOL0     C 8020  10.333   5.483   9.210 -0.5503  0.3730  0.4846
   60MOL0     C 8021  10.231   5.534   9.132 -0.4343 -0.4288  0.6804
   60MOL0     C 8022  10.102   5.557   9.181  0.4707 -0.5874 -0.4527
   60MOL0     O 8023   9.997   5.607   9.098 -0.0305  0.7435 -0.2168
   60MOL0     C 8024  10.026   5.659   8.964 -0.6452  0.5670  0.3004
   60MOL0     C 8025   9.919   5.748   8.906  0.8106  0.2055  0.0391
   60MOL0     C 8026   9.787   5.670   8.875  0.6558  0.1167 -0.0690
   60MOL0     C 8027   9.748   5.663   8.724  1.0479  0.0268  0.0723
   60MOL0     C 8028   9.701   5.793   8.678  0.8805 -0.7409 -0.2123
   60MOL0     C 8029   9.664   5.899   8.630  0.2311  0.2576 -0.6668
   60MOL0     C 8030  10.077   5.515   9.311 -0.0957  0.6789  0.0154
   60MOL0     C 8031  10.176   5.458   9.393  0.3108  0.0289 -0.0190
   60MOL0     C 8032  10.133   5.413   9.537  0.6208 -0.9309  0.4435
   60MOL0     H 8033  10.598   5.183   9.455  0.6693  5.5432  1.9771
   60MOL0     H 8034  10.746   5.035   9.593 -0.4007 -1.4789  0.6201
   60MOL0     H 8035  10.729   5.108  10.024 -0.5476  0.1489  1.2401
   60MOL0     H 8036  10.641   4.954  10.045  0.2939 -0.3026  1.0742
   60MOL0     H 8037  10.933   4.999   9.997 -0.8994  0.9282  0.3990
   60MOL0     H 8038  10.854   4.837  10.021  2.9639 -0.1088  1.8994
   60MOL0     H 8039  10.769   4.932  10.246 -1.3564  4.1042 -0.5649
   60MOL0     H 8040  10.900   5.047  10.231  1.6800 -1.7624  1.1821
   60MOL0     H 8041  10.888   4.746  10.277  1.0170 -0.7403 -1.9866
   60MOL0     H 8042  11.025   4.798  10.189  1.1244 -2.2337  1.8506
   60MOL0     H 8043  10.966   4.919  10.465 -3.3014 -3.4476 -1.2449
   60MOL0     H 8044  11.053   4.768  10.428 -0.0504 -0.1031  1.5863
   60MOL0     H 8045  11.147   5.027  10.302 -0.9289 -0.2496 -0.1689
   60MOL0     H 8046  11.209   4.975  10.461  1.3672 -0.5038 -0.1048
   60MOL0     H 8047  11.223   4.778  10.231 -2.7193 -0.9349  1.8656
   60MOL0     H 8048  11.302   4.771  10.389 -0.4709  0.0360  0.9738
   60MOL0     H 8049  11.441   4.859  10.168  1.2206 -0.1288  0.3433
   60MOL0     H 8050  11.339   4.992  10.169  0.2441  0.5288  2.3995
   60MOL0     H 8051  11.522   4.808  10.453  0.1178 -0.5957 -0.6471
   60MOL0     H 8052  11.800   5.080  10.560  0.3649 -0.0660  0.9555
   60MOL0     H 8053  11.714   4.983  10.666 -0.6333  0.2416  0.0211
   60MOL0     H 8054  11.807   4.773  10.573 -0.0058 -0.4010 -0.1891
   60MOL0     H 8055  11.824   4.850  10.414  0.0927 -2.9948  0.4874
   60MOL0     H 8056  11.977   4.911  10.673 -0.4736  0.3777 -0.0855
   60MOL0     H 8057  12.007   4.985  10.508  0.7797  0.8450  1.5854
   60MOL0     H 8058  12.171   4.815  10.582  1.2284 -3.4435  0.1492
   60MOL0     H 8059  12.087   4.813  10.413  0.5478 -0.5209  0.6693
   60MOL0     H 8060  11.972   4.415  10.489 -0.1864  3.2820 -0.1354
   60MOL0     H 8061  12.130   4.235  10.387 -3.1467  0.5133  1.5250
   60MOL0     H 8062  12.257   3.984  10.136  0.3491 -1.5507 -0.5809
   60MOL0     H 8063  12.363   3.795  10.018  0.7802  1.3894 -0.2774
   60MOL0     H 8064  12.719   3.648  10.148  2.2878 -0.8782 -0.5464
   60MOL0     H 8065  12.707   3.581   9.986  0.1347  1.1977 -0.4475
   60MOL0     H 8066  12.885   3.829  10.056  0.1753  1.2141  0.3414
   60MOL0     H 8067  12.939   3.666  10.016 -0.0191 -0.2236 -2.2955
   60MOL0     H 8068  12.940   3.763   9.800  0.6823  0.3801  2.3039
   60MOL0     H 8069  12.775   3.720   9.801 -0.5063 -0.2965 -0.3307
   60MOL0     H 8070  12.911   3.982   9.902  1.2965 -1.7033  1.4475
   60MOL0     H 8071  12.735   3.958   9.890 -1.9532 -3.6355 -2.7383
   60MOL0     H 8072  12.926   3.943   9.648 -0.6383 -0.1725  0.0998
   60MOL0     H 8073  12.833   4.089   9.686  0.7893 -1.0315  0.5681
   60MOL0     H 8074  12.707   3.824   9.594  0.7943  0.7023 -2.9385
   60MOL0     H 8075  12.627   3.947   9.699  0.4849  0.3189  0.3556
   60MOL0     H 8076  12.761   4.067   9.464  2.3681 -2.7123 -2.2768
   60MOL0     H 8077  12.590   4.071   9.511  1.0662  1.7313  1.9390
   60MOL0     H 8078  12.739   3.864   9.366  1.1263  1.6057  0.7714
   60MOL0     H 8079  12.569   3.836   9.409  0.9781 -0.1217  1.2895
   60MOL0     H 8080  12.742   3.928  10.150  0.5072 -0.8394 -0.8408
   60MOL0     H 8081  12.644   4.125  10.265 -0.7208 -0.2528  2.3355
   60MOL0     H 8082  12.454   4.526  10.402 -2.0060  3.4163  0.9559
   60MOL0     H 8083  12.306   4.679  10.494 -2.8837  0.2809  3.0043
   60MOL0     H 8084  10.516   5.136   9.947 -2.4455  0.6486 -0.6370
   60MOL0     H 8085  10.388   5.293   9.816 -3.2231 -4.4434 -0.5733
   60MOL0     H 8086  10.434   5.486   9.170 -1.1338  0.2659 -1.0825
   60MOL0     H 8087  10.259   5.579   9.038 -1.5535 -0.7880  0.1608
   60MOL0     H 8088  10.037   5.580   8.889  1.5237  3.1995 -2.4543
   60MOL0     H 8089  10.125   5.707   8.965  0.4027 -1.2992 -2.1470
   60MOL0     H 8090   9.955   5.797   8.816 -1.9143  1.5425 -0.4204
   60MOL0     H 8091   9.897   5.830   8.975 -0.7377 -0.7497  0.7383
   60MOL0     H 8092   9.703   5.711   8.932 -0.2203  1.1274 -1.9844
   60MOL0     H 8093   9.800   5.566   8.905 -1.4954 -0.8929 -2.2961
   60MOL0     H 8094   9.835   5.632   8.665  0.1213 -2.6202 -0.0360
   60MOL0     H 8095   9.666   5.594   8.704  1.7301 -1.0117  0.7384
   60MOL0     H 8096   9.600   5.973   8.585  1.4967  2.1751  0.5298
   60MOL0     H 8097   9.972   5.519   9.339 -0.4854 -2.6054 -0.5628
   60MOL0     H 8098  10.029   5.438   9.560  1.4756  1.7248  1.8279
   60MOL0     H 8099  10.146   5.305   9.541 -0.3321 -1.0224  2.2080
   60MOL0     H 8100  10.197   5.457   9.614 -0.8270  3.2100 -0.4433
   61MOL0     O 8101   1.746   7.543   0.965  0.1801  0.0601  0.5595
   61MOL0     C 8102   1.692   7.446   0.914 -0.1025  0.4104 -0.1401
   61MOL0     O 8103   1.757   7.360   0.834  0.3945  0.0685 -0.6152
   61MOL0     C 8104   1.879   7.401   0.790 -0.1570 -1.1341 -0.5848
   61MOL0     C 8105   1.895   7.482   0.675  0.1092 -0.2443 -0.6071
   61MOL0     C 8106   2.021   7.489   0.612  0.3478 -0.2728 -0.2352
   61MOL0     C 8107   2.134   7.424   0.672 -0.8223 -0.7471  0.3587
   61MOL0     O 8108   2.265   7.438   0.611 -0.5669 -0.1543  0.3181
   61MOL0     C 8109   2.370   7.375   0.673 -0.3144  0.3078  0.6926
   61MOL0     C 8110   2.515   7.412   0.616  0.2048 -0.0504 -0.4697
   61MOL0     C 8111   2.625   7.325   0.671 -0.0383  0.4195  0.3838
   61MOL0     C 8112   2.763   7.377   0.608 -0.3802 -0.4132 -0.1388
   61MOL0     C 8113   2.881   7.295   0.663 -0.4529 -0.0416 -0.0667
   61MOL0     C 8114   2.993   7.392   0.678 -0.3841  0.0446 -0.0257
   61MOL0     C 8115   3.115   7.318   0.732  0.9941  0.1681  0.0730
   61MOL0     C 8116   3.218   7.411   0.774 -0.7112 -0.0374  0.1791
   61MOL0     N 8117   3.349   7.337   0.808 -1.0145  0.0655  0.1632
   61MOL0     C 8118   3.371   7.201   0.807 -0.9351 -0.2906  0.7069
   61MOL0     C 8119   3.505   7.188   0.841  0.2511 -0.2186  0.0635
   61MOL0     C 8120   3.577   7.052   0.850 -0.0236 -0.3101  0.4343
   61MOL0     C 8121   3.724   7.070   0.834 -0.7000  0.1740 -0.3840
   61MOL0     C 8122   3.794   7.114   0.962  0.2445  0.6585  0.4337
   61MOL0     C 8123   3.787   6.999   1.066  0.0113  0.0462 -0.8469
   61MOL0     O 8124   3.895   6.919   1.044 -0.2394  0.1201 -0.4512
   61MOL0     C 8125   4.024   6.961   1.077 -0.2737  0.5741  0.6829
   61MOL0     C 8126   4.118   6.872   1.029 -0.6961 -0.3418 -0.2462
   61MOL0     C 8127   4.258   6.890   1.048  0.8225 -0.3780  0.3041
   61MOL0     C 8128   4.297   7.000   1.122 -0.5394  0.4451  0.0803
   61MOL0     C 8129   4.441   7.016   1.142 -0.1990 -0.3750  0.5730
   61MOL0     O 8130   4.533   6.935   1.076  0.0856  0.1542 -0.4446
   61MOL0     C 8131   4.670   6.923   1.113 -0.0081 -0.3528 -0.4738
   61MOL0     C 8132   4.724   6.947   1.245 -0.0586 -0.1153  0.5028
   61MOL0     C 8133   4.854   6.900   1.271 -0.2087 -0.0499 -0.1865
   61MOL0     C 8134   4.924   6.830   1.174  0.0324  0.2701 -0.0075
   61MOL0     O 8135   5.045   6.760   1.191 -0.3042  0.0928 -0.0233
   61MOL0     C 8136   5.085   6.705   1.322 -0.8599  0.3175  0.1693
   61MOL0     C 8137   5.224   6.665   1.291  0.7187 -0.8782 -0.8475
   61MOL0     C 8138   5.307   6.792   1.279 -0.0856  0.3987  0.5075
   61MOL0     C 8139   5.448   6.761   1.328  0.2893 -0.5915  0.7374
   61MOL0     C 8140   5.549   6.882   1.323 -0.6143  1.1149 -0.3295
   61MOL0     C 8141   5.669   6.849   1.405  0.8421  0.6742 -0.3918
   61MOL0     C 8142   5.775   6.957   1.399  0.8947  1.3482  0.4810
   61MOL0     C 8143   5.901   6.898   1.473 -0.1147  0.0540 -0.3671
   61MOL0    Cl 8144   5.987   6.790   1.369  0.9549 -0.1513  0.4975
   61MOL0     C 8145   4.869   6.814   1.047  0.1757 -0.5509  0.2227
   61MOL0     C 8146   4.746   6.859   1.011  0.3032  0.1657 -0.2899
   61MOL0     O 8147   4.471   7.099   1.220 -0.5872 -0.5880  0.4552
   61MOL0     C 8148   4.201   7.091   1.174 -0.1807 -0.0239  0.1146
   61MOL0     C 8149   4.058   7.078   1.153  0.2591  0.3448 -0.1467
   61MOL0     N 8150   3.552   7.314   0.869  0.0824  0.4495 -0.6603
   61MOL0     N 8151   3.455   7.394   0.855 -0.4353 -0.2793 -0.2815
   61MOL0     C 8152   2.109   7.345   0.781  0.1915  0.8611 -0.3165
   61MOL0     C 8153   1.984   7.343   0.843 -1.3214 -0.9487 -0.5921
   61MOL0     C 8154   1.543   7.436   0.934  0.6695  0.4056 -0.2276
   61MOL0     C 8155   1.468   7.370   0.831 -0.2219  0.5990  0.9650
   61MOL0     C 8156   1.327   7.360   0.835 -0.3598 -0.5964  0.5030
   61MOL0     C 8157   1.256   7.398   0.951 -0.2468  0.4392 -0.8026
   61MOL0     O 8158   1.123   7.382   0.971  0.4384 -0.3993 -0.7728
   61MOL0     C 8159   1.035   7.344   0.862  0.3924  0.0858 -0.0443
   61MOL0     C 8160   0.891   7.332   0.914 -0.6598 -0.4727  0.0957
   61MOL0     C 8161   0.859   7.202   0.975  0.1038 -1.3385 -0.1238
   61MOL0     C 8162   0.809   7.099   0.875  0.4019 -1.0962  0.0736
   61MOL0     C 8163   0.798   6.969   0.948 -0.3480  0.3279  0.2807
   61MOL0     C 8164   0.789   6.861   1.001 -0.3885 -0.0118 -0.6024
   61MOL0     C 8165   1.335   7.447   1.062  0.5273 -0.7460  0.5174
   61MOL0     C 8166   1.474   7.467   1.061  0.4562 -0.4540 -0.1256
   61MOL0     C 8167   1.540   7.530   1.181 -0.4018 -0.6942 -0.5113
   61MOL0     H 8168   1.809   7.540   0.645  1.9853  1.7914 -2.3327
   61MOL0     H 8169   2.024   7.549   0.521  0.5503 -0.9887 -0.7096
   61MOL0     H 8170   2.372   7.390   0.781  0.0672 -2.7481  1.1812
   61MOL0     H 8171   2.352   7.268   0.662  1.6617  0.0719 -0.8347
   61MOL0     H 8172   2.530   7.520   0.625  0.5854 -0.2645  1.9523
   61MOL0     H 8173   2.519   7.382   0.511  2.4232 -2.5480  0.2131
   61MOL0     H 8174   2.610   7.218   0.650  0.0074  0.9129 -2.5891
   61MOL0     H 8175   2.639   7.344   0.778  2.9079 -0.2072  0.1708
   61MOL0     H 8176   2.773   7.355   0.502  0.0056 -2.5349  0.3000
   61MOL0     H 8177   2.784   7.483   0.626  1.8402 -0.7366 -0.5542
   61MOL0     H 8178   2.846   7.250   0.756 -1.3738  3.3409  1.3792
   61MOL0     H 8179   2.911   7.214   0.596 -1.8352 -0.2556 -0.4649
   61MOL0     H 8180   3.033   7.443   0.590  1.4120  1.6612  1.6207
   61MOL0     H 8181   2.967   7.466   0.755  2.4384 -1.3419  2.4734
   61MOL0     H 8182   3.146   7.243   0.658 -5.0043 -2.3364 -0.4978
   61MOL0     H 8183   3.089   7.268   0.826 -0.4934 -0.7273 -0.7808
   61MOL0     H 8184   3.250   7.480   0.694 -0.8273  0.9603  0.9671
   61MOL0     H 8185   3.174   7.467   0.856 -1.4791 -3.6889  2.4569
   61MOL0     H 8186   3.306   7.114   0.802 -0.5991 -0.5617  0.9962
   61MOL0     H 8187   3.542   7.002   0.941 -2.5012 -1.2255 -0.9154
   61MOL0     H 8188   3.547   6.992   0.764  0.5758 -0.1165  0.0834
   61MOL0     H 8189   3.767   6.971   0.812 -2.1189 -0.8624  1.3114
   61MOL0     H 8190   3.740   7.144   0.754 -2.0738 -0.0987 -0.9346
   61MOL0     H 8191   3.747   7.204   1.001 -1.2750  0.1625 -0.1705
   61MOL0     H 8192   3.897   7.141   0.939  0.6237 -0.5393  0.6248
   61MOL0     H 8193   3.699   6.935   1.061  0.0074  0.0339 -0.6622
   61MOL0     H 8194   3.796   7.041   1.167 -0.9581 -0.1441 -0.6678
   61MOL0     H 8195   4.084   6.788   0.970 -1.5873 -1.3080  1.5794
   61MOL0     H 8196   4.324   6.819   1.000  0.7270 -1.5908  1.8879
   61MOL0     H 8197   4.667   6.998   1.322 -2.2404 -5.2656  2.7862
   61MOL0     H 8198   4.892   6.912   1.372 -0.7086  3.4061 -0.3112
   61MOL0     H 8199   5.073   6.789   1.390  0.7136  0.2874  0.5342
   61MOL0     H 8200   5.027   6.616   1.348  1.5997 -2.0466 -1.8343
   61MOL0     H 8201   5.263   6.603   1.373 -1.5579 -1.8423 -0.4234
   61MOL0     H 8202   5.232   6.607   1.199  1.1121 -1.6697 -0.3274
   61MOL0     H 8203   5.303   6.814   1.172  1.1897 -1.2112  0.0878
   61MOL0     H 8204   5.273   6.880   1.334  1.9918  0.7637  1.2779
   61MOL0     H 8205   5.497   6.687   1.264 -1.0155 -0.9518  0.1237
   61MOL0     H 8206   5.452   6.713   1.426  1.2065 -3.8106 -0.7165
   61MOL0     H 8207   5.498   6.967   1.369 -1.7389 -0.0106  0.6150
   61MOL0     H 8208   5.581   6.907   1.222  0.3988 -0.9620 -0.5844
   61MOL0     H 8209   5.631   6.849   1.507 -2.7937  0.9947 -1.5924
   61MOL0     H 8210   5.703   6.750   1.372 -0.4873  0.0338  0.0921
   61MOL0     H 8211   5.746   7.047   1.454  0.1972  0.2756  1.9626
   61MOL0     H 8212   5.791   6.986   1.295 -1.1120  0.2729 -0.1834
   61MOL0     H 8213   5.966   6.983   1.495 -1.4499  0.0917  4.2740
   61MOL0     H 8214   5.887   6.853   1.571  1.5123 -0.0451 -0.1521
   61MOL0     H 8215   4.938   6.780   0.970 -0.7221  0.0549 -0.8851
   61MOL0     H 8216   4.714   6.822   0.914 -1.0449 -1.3814  0.6882
   61MOL0     H 8217   4.230   7.182   1.226  2.0188 -0.3547 -0.4362
   61MOL0     H 8218   3.988   7.151   1.192 -2.0906 -1.4761 -0.7249
   61MOL0     H 8219   2.191   7.299   0.835 -0.3128  1.2798  0.8491
   61MOL0     H 8220   1.978   7.274   0.927  0.8994 -0.7831 -0.2340
   61MOL0     H 8221   1.509   7.353   0.732 -3.3241 -2.2492  0.0117
   61MOL0     H 8222   1.261   7.329   0.754 -0.0771  1.7124 -0.6993
   61MOL0     H 8223   1.049   7.247   0.813  1.2467  1.8248 -3.6331
   61MOL0     H 8224   1.042   7.410   0.775 -1.9985  0.8271  0.2544
   61MOL0     H 8225   0.835   7.351   0.822  5.9670  0.5311 -4.4141
   61MOL0     H 8226   0.876   7.418   0.980  0.6777 -0.4838  0.4492
   61MOL0     H 8227   0.777   7.232   1.041  1.1887  1.5942  0.0421
   61MOL0     H 8228   0.948   7.164   1.025 -0.3034 -0.5023  1.3075
   61MOL0     H 8229   0.710   7.129   0.839  0.7447 -0.2415 -0.1635
   61MOL0     H 8230   0.869   7.093   0.785 -1.0067 -0.7360 -0.9252
   61MOL0     H 8231   0.776   6.757   1.024 -3.0640  0.4187  0.1384
   61MOL0     H 8232   1.270   7.479   1.143  0.1409  0.5800 -0.2896
   61MOL0     H 8233   1.490   7.502   1.274 -2.1702 -3.6061 -2.1899
   61MOL0     H 8234   1.641   7.488   1.186 -1.7723 -4.4269 -0.4425
   61MOL0     H 8235   1.532   7.638   1.167 -0.8363 -0.8127 -1.2223
   62MOL0     O 8236   8.296   9.910   3.735  0.2118 -0.0894  0.1709
   62MOL0     C 8237   8.218   9.901   3.830  0.0249 -0.1254 -0.1706
   62MOL0     O 8238   8.246   9.882   3.957 -0.1381 -0.6325  0.6521
   62MOL0     C 8239   8.378   9.877   3.990  0.2213 -0.9716  0.2978
   62MOL0     C 8240   8.482   9.976   3.961  0.0403  0.3368 -0.2168
   62MOL0     C 8241   8.615   9.956   4.003 -0.1709 -0.2097 -0.7700
   62MOL0     C 8242   8.643   9.837   4.055  0.4642  0.2608 -0.5967
   62MOL0     O 8243   8.774   9.822   4.098 -0.2687 -0.1153  0.7319
   62MOL0     C 8244   8.804   9.740   4.210 -0.4580  0.0547 -0.3715
   62MOL0     C 8245   8.918   9.793   4.285 -1.6459 -0.3770  0.2744
   62MOL0     C 8246   9.054   9.754   4.217  0.4412 -1.0487  0.3082
   62MOL0     C 8247   9.173   9.830   4.295  0.7712  0.0189  0.3209
   62MOL0     C 8248   9.309   9.781   4.264  0.5264  0.4878 -0.0592
   62MOL0     C 8249   9.401   9.884   4.334 -0.4627  0.2472 -0.2338
   62MOL0     C 8250   9.547   9.856   4.296  0.4937 -0.2658 -0.4110
   62MOL0     C 8251   9.641   9.904   4.421  0.3034 -0.6282  0.0912
   62MOL0     N 8252   9.774   9.885   4.367  0.6068 -0.6681  0.1536
   62MOL0     C 8253   9.844   9.969   4.277 -0.0379 -1.1038 -0.4633
   62MOL0     C 8254   9.962   9.899   4.266  0.3596  0.3415 -0.5467
   62MOL0     C 8255  10.075   9.939   4.166  0.4633  0.0842  0.2267
   62MOL0     C 8256  10.218   9.951   4.206  0.5187 -0.0988  0.2505
   62MOL0     C 8257  10.268   9.865   4.318  1.3282 -0.1780 -0.7501
   62MOL0     C 8258  10.413   9.862   4.315 -0.1943  0.4549 -0.4541
   62MOL0     O 8259  10.482   9.985   4.276  0.2803 -0.1212 -0.4488
   62MOL0     C 8260  10.618   9.979   4.243 -0.1968  0.0314  0.5170
   62MOL0     C 8261  10.687  10.103   4.217  0.2810 -0.1366 -0.1939
   62MOL0     C 8262  10.828  10.093   4.204 -0.2045 -0.4610  0.6142
   62MOL0     C 8263  10.907   9.978   4.218 -0.7087 -0.4306  0.5389
   62MOL0     C 8264  11.054   9.968   4.190  0.4050 -0.0174  0.1903
   62MOL0     O 8265  11.124   9.842   4.200  0.2962  0.0696  0.5557
   62MOL0     C 8266  11.262   9.856   4.196  0.5166  0.4818  0.2325
   62MOL0     C 8267  11.341   9.851   4.307 -0.4157  0.0275  0.2933
   62MOL0     C 8268  11.481   9.856   4.289 -0.2333 -0.1940 -0.4725
   62MOL0     C 8269  11.542   9.877   4.162 -0.0052 -0.0624 -0.3151
   62MOL0     O 8270  11.675   9.893   4.141  0.6898 -0.5179  0.5513
   62MOL0     C 8271  11.754   9.794   4.199 -0.0926  0.2185  0.0264
   62MOL0     C 8272  11.902   9.834   4.172  0.4823  0.0319  0.9121
   62MOL0     C 8273  11.937   9.828   4.028  0.3579  0.5776 -0.2456
   62MOL0     C 8274  12.068   9.900   3.995  0.7558 -0.2673 -0.2537
   62MOL0     C 8275  12.119   9.859   3.857 -0.1221 -0.0325 -0.5625
   62MOL0     C 8276  12.261   9.905   3.833 -0.0485  0.4981 -0.8682
   62MOL0     C 8277  12.297  10.053   3.822  0.6491 -0.5439  0.3248
   62MOL0     C 8278  12.447  10.086   3.823 -0.5075 -0.5993  0.7779
   62MOL0    Cl 8279  12.523  10.056   3.664 -0.1098  0.7816  0.1210
   62MOL0     C 8280  11.459   9.895   4.055  0.6354 -0.0724 -0.3772
   62MOL0     C 8281  11.323   9.874   4.073  0.0397 -0.1936 -0.1976
   62MOL0     O 8282  11.107  10.075   4.167 -0.5790 -0.6451  0.6493
   62MOL0     C 8283  10.838   9.860   4.252  0.3644 -0.5248 -0.1273
   62MOL0     C 8284  10.695   9.864   4.259  0.7192 -0.0075  0.4858
   62MOL0     N 8285   9.956   9.783   4.335 -0.3299 -0.9261 -0.0969
   62MOL0     N 8286   9.848   9.771   4.381  0.3741  0.3097 -0.9726
   62MOL0     C 8287   8.552   9.733   4.064 -0.2245  0.4372 -0.7594
   62MOL0     C 8288   8.421   9.756   4.029  0.4452  0.5678  0.8099
   62MOL0     C 8289   8.067   9.905   3.806  0.4080 -0.0712  0.3513
   62MOL0     C 8290   7.986   9.869   3.914 -0.8296  0.3750 -0.5072
   62MOL0     C 8291   7.846   9.856   3.906 -0.6459 -0.1327  0.4502
   62MOL0     C 8292   7.778   9.873   3.788 -0.0064 -0.9179  0.3863
   62MOL0     O 8293   7.645   9.867   3.770  0.2775  0.5802 -0.2479
   62MOL0     C 8294   7.568   9.816   3.881  0.1819  0.0007 -0.5008
   62MOL0     C 8295   7.445   9.746   3.824  0.3684  0.6155 -0.3753
   62MOL0     C 8296   7.365   9.836   3.726 -0.1750  0.5812  0.1755
   62MOL0     C 8297   7.317   9.968   3.794 -0.7837 -0.6423 -0.1409
   62MOL0     C 8298   7.219   9.955   3.902 -0.2673 -0.2374 -0.0944
   62MOL0     C 8299   7.133   9.921   3.982 -0.0410 -0.8097  0.6964
   62MOL0     C 8300   7.859   9.906   3.674 -0.1428  0.5374 -0.5125
   62MOL0     C 8301   8.002   9.922   3.683  0.5441 -0.4633  0.1782
   62MOL0     C 8302   8.069   9.960   3.558 -0.1703  0.1868  0.9705
   62MOL0     H 8303   8.471  10.071   3.909 -0.7932 -0.2002 -1.0573
   62MOL0     H 8304   8.691  10.032   3.988 -0.2294  0.2724  1.1699
   62MOL0     H 8305   8.718   9.737   4.277  1.1436  0.0820  1.7983
   62MOL0     H 8306   8.828   9.638   4.180  1.4585  0.3161  0.1060
   62MOL0     H 8307   8.919   9.760   4.389 -0.2866  1.9452  1.0809
   62MOL0     H 8308   8.915   9.903   4.291  0.3235 -0.3384  1.7907
   62MOL0     H 8309   9.055   9.794   4.116 -0.1669  0.9260  1.0234
   62MOL0     H 8310   9.074   9.647   4.220  3.7328 -0.5380  3.3884
   62MOL0     H 8311   9.159   9.937   4.277  0.6375 -0.1730 -0.7548
   62MOL0     H 8312   9.150   9.820   4.401 -0.3680  1.2768  0.2273
   62MOL0     H 8313   9.332   9.684   4.310  0.4865  1.1131  1.3336
   62MOL0     H 8314   9.330   9.784   4.157  1.2455 -1.5950 -0.0239
   62MOL0     H 8315   9.381   9.987   4.303  3.2050  0.2972 -3.1917
   62MOL0     H 8316   9.391   9.883   4.443  0.6419  0.9842 -0.1008
   62MOL0     H 8317   9.577   9.900   4.200  0.7340  1.1003  0.2617
   62MOL0     H 8318   9.558   9.749   4.275  0.8433 -0.2795 -0.1671
   62MOL0     H 8319   9.620  10.008   4.450 -0.4812 -0.1059 -2.1635
   62MOL0     H 8320   9.620   9.839   4.507  0.2315 -0.4398  0.2162
   62MOL0     H 8321   9.818  10.063   4.229 -0.0851 -1.1023 -0.4344
   62MOL0     H 8322  10.068   9.857   4.094 -0.7121  0.8804 -0.5966
   62MOL0     H 8323  10.054  10.033   4.114 -0.4783  1.0278  2.2258
   62MOL0     H 8324  10.281   9.942   4.117 -1.9584 -0.0112 -1.5944
   62MOL0     H 8325  10.237  10.055   4.234  0.4836 -0.0917  0.2485
   62MOL0     H 8326  10.232   9.762   4.313  4.2588 -1.4674  1.5462
   62MOL0     H 8327  10.242   9.899   4.419  1.2300 -0.1693 -0.7781
   62MOL0     H 8328  10.452   9.780   4.254 -1.4920 -1.3459  0.9906
   62MOL0     H 8329  10.444   9.836   4.417 -3.8521 -2.5685  0.1097
   62MOL0     H 8330  10.631  10.195   4.211  0.4292  0.1050  1.4626
   62MOL0     H 8331  10.890  10.181   4.186 -3.2305  1.7045  0.0873
   62MOL0     H 8332  11.294   9.861   4.404 -3.0799  3.0710 -1.1264
   62MOL0     H 8333  11.545   9.853   4.377  1.5324 -0.8243 -1.7114
   62MOL0     H 8334  11.734   9.797   4.307  2.2494 -1.5872  0.5890
   62MOL0     H 8335  11.720   9.703   4.149 -0.9524  1.7680 -2.3742
   62MOL0     H 8336  11.911   9.938   4.204 -3.9640  1.5079 -1.7354
   62MOL0     H 8337  11.970   9.769   4.227  1.6444 -0.0210 -0.5164
   62MOL0     H 8338  11.963   9.723   4.012  1.8576  0.9367 -0.2903
   62MOL0     H 8339  11.859   9.844   3.953 -0.3082  0.8985  0.4963
   62MOL0     H 8340  12.145   9.878   4.070  1.0275 -0.8450 -0.6886
   62MOL0     H 8341  12.045  10.006   4.000 -2.8747 -0.8988 -0.8124
   62MOL0     H 8342  12.046   9.888   3.780 -1.3545 -0.7109  0.3151
   62MOL0     H 8343  12.101   9.751   3.855  0.3952 -0.1082 -1.5114
   62MOL0     H 8344  12.323   9.868   3.916  1.4192 -0.2157 -2.2228
   62MOL0     H 8345  12.305   9.854   3.747  1.5759  0.3117  0.0275
   62MOL0     H 8346  12.268  10.097   3.918  1.6964 -2.0704  1.3773
   62MOL0     H 8347  12.243  10.099   3.739  1.7169 -0.1136 -0.1483
   62MOL0     H 8348  12.463  10.191   3.849 -1.1156 -0.8323  2.2154
   62MOL0     H 8349  12.512  10.036   3.896  3.1065 -0.5711 -2.1210
   62MOL0     H 8350  11.505   9.911   3.959  1.0464 -3.0870 -0.7947
   62MOL0     H 8351  11.259   9.871   3.985 -0.4634  1.8320  0.0471
   62MOL0     H 8352  10.893   9.767   4.258 -0.4169 -1.1690 -2.0757
   62MOL0     H 8353  10.647   9.769   4.283 -3.9885  2.0994  0.5147
   62MOL0     H 8354   8.591   9.638   4.100 -3.2327 -1.0086 -0.9365
   62MOL0     H 8355   8.351   9.674   4.035  2.2672 -1.1519 -0.0596
   62MOL0     H 8356   8.031   9.839   4.008  0.4463  0.8282 -0.9458
   62MOL0     H 8357   7.795   9.836   4.000 -1.3579 -1.0673 -0.1145
   62MOL0     H 8358   7.544   9.897   3.952  0.2403 -0.9768  0.6776
   62MOL0     H 8359   7.625   9.737   3.930  1.7733 -1.2192 -4.0580
   62MOL0     H 8360   7.387   9.729   3.915  1.2328 -2.3598 -0.2947
   62MOL0     H 8361   7.476   9.656   3.770 -1.9321  0.5338 -1.7230
   62MOL0     H 8362   7.283   9.781   3.677 -0.2728 -1.4822  2.4442
   62MOL0     H 8363   7.431   9.868   3.645 -0.4738  2.3679  0.6047
   62MOL0     H 8364   7.410  10.011   3.833 -0.6867 -1.3817  0.4744
   62MOL0     H 8365   7.277  10.037   3.720  0.7297 -0.7067 -1.0633
   62MOL0     H 8366   7.047   9.907   4.044 -1.2584 -0.7380 -0.9208
   62MOL0     H 8367   7.806   9.928   3.582 -2.6317  1.3511  1.0320
   62MOL0     H 8368   8.131   9.873   3.536 -0.6384  0.6477 -2.9281
   62MOL0     H 8369   7.999   9.972   3.475  1.8346 -0.4809 -0.9239
   62MOL0     H 8370   8.141  10.043   3.556  1.6236 -1.2708 -1.6587
   63MOL0     O 8371   4.282   5.729   9.260  0.4388  0.4173 -0.1267
   63MOL0     C 8372   4.311   5.647   9.176 -0.0344  0.1971 -0.4657
   63MOL0     O 8373   4.424   5.652   9.105  0.3332 -0.1414 -0.0657
   63MOL0     C 8374   4.527   5.723   9.164  0.1268 -0.1127  0.2666
   63MOL0     C 8375   4.593   5.698   9.284  0.3806  0.8336 -0.1554
   63MOL0     C 8376   4.684   5.786   9.337  0.1586 -1.2951 -0.0206
   63MOL0     C 8377   4.711   5.914   9.283 -0.4920  0.5587  1.2778
   63MOL0     O 8378   4.811   5.998   9.330 -0.2266 -0.2856 -0.6746
   63MOL0     C 8379   4.913   6.038   9.239 -0.4214 -0.1275 -0.3220
   63MOL0     C 8380   5.013   6.138   9.313  0.0577 -0.1892  0.4953
   63MOL0     C 8381   5.102   6.211   9.220 -0.0383 -0.0305  0.9281
   63MOL0     C 8382   5.205   6.297   9.284  0.3217  0.2571 -0.3793
   63MOL0     C 8383   5.303   6.368   9.193 -0.2424  0.6476 -0.2439
   63MOL0     C 8384   5.404   6.465   9.252 -1.1147 -0.0156 -0.9905
   63MOL0     C 8385   5.499   6.390   9.351 -0.1777  0.3609  0.1560
   63MOL0     C 8386   5.608   6.312   9.278 -0.0574 -0.4917  0.4732
   63MOL0     N 8387   5.705   6.397   9.199  0.1532  0.2687  0.0435
   63MOL0     C 8388   5.735   6.526   9.226  0.5168  0.0127  0.0144
   63MOL0     C 8389   5.847   6.561   9.158  0.2978  1.0872 -0.0833
   63MOL0     C 8390   5.917   6.693   9.175 -1.3027 -0.1744  0.1904
   63MOL0     C 8391   6.061   6.679   9.234 -0.3028 -0.7064 -0.1397
   63MOL0     C 8392   6.058   6.673   9.381  0.6320  0.1583 -0.5688
   63MOL0     C 8393   6.189   6.706   9.445 -0.1567  0.2391  0.3849
   63MOL0     O 8394   6.280   6.603   9.398  0.0090  0.8858  0.1879
   63MOL0     C 8395   6.411   6.604   9.439  0.6029 -0.1119 -0.0618
   63MOL0     C 8396   6.502   6.537   9.357 -0.7148 -0.3563  0.0650
   63MOL0     C 8397   6.635   6.523   9.405 -0.6556 -0.8657  0.5636
   63MOL0     C 8398   6.676   6.584   9.523  0.5391 -0.6705  1.0392
   63MOL0     C 8399   6.817   6.561   9.577  0.0106  0.7439 -0.3026
   63MOL0     O 8400   6.904   6.494   9.496 -0.8253 -0.3119  0.1523
   63MOL0     C 8401   7.020   6.438   9.544 -0.0976  0.1790  0.4144
   63MOL0     C 8402   7.039   6.294   9.545 -0.3990  0.0226  0.0372
   63MOL0     C 8403   7.162   6.236   9.582 -0.5679 -0.4491  0.6383
   63MOL0     C 8404   7.269   6.319   9.609  0.3232 -0.2942  0.1839
   63MOL0     O 8405   7.393   6.271   9.641  0.8692  0.1806  0.3286
   63MOL0     C 8406   7.468   6.209   9.536  0.7211  0.8957 -0.0300
   63MOL0     C 8407   7.606   6.158   9.586  0.7262 -1.0834  0.3413
   63MOL0     C 8408   7.685   6.076   9.487  0.8967  0.1387 -0.0690
   63MOL0     C 8409   7.837   6.076   9.518 -0.5265 -0.9684 -0.5016
   63MOL0     C 8410   7.913   5.970   9.443  0.0372 -0.1238  0.3330
   63MOL0     C 8411   8.062   5.984   9.463 -0.0222 -0.4113 -0.3443
   63MOL0     C 8412   8.135   5.856   9.412  0.2857 -0.3267 -0.9689
   63MOL0     C 8413   8.287   5.865   9.417  0.6845 -0.5829  0.3601
   63MOL0    Cl 8414   8.324   5.971   9.277 -0.1144  0.1931  0.2196
   63MOL0     C 8415   7.254   6.458   9.603 -0.1358  0.3705  0.1056
   63MOL0     C 8416   7.135   6.519   9.559  0.4804 -0.4991  0.8062
   63MOL0     O 8417   6.840   6.603   9.690  0.2923 -0.4502  0.6477
   63MOL0     C 8418   6.588   6.655   9.592  0.1737  0.2897 -0.4777
   63MOL0     C 8419   6.455   6.665   9.557  0.9696  0.2312 -0.1602
   63MOL0     N 8420   5.872   6.454   9.073  0.2671  0.1221  0.0607
   63MOL0     N 8421   5.785   6.365   9.094 -0.7027  0.1913 -0.0414
   63MOL0     C 8422   4.633   5.941   9.167 -0.0892  0.5303  0.7972
   63MOL0     C 8423   4.551   5.845   9.102 -0.4032 -0.4032 -0.0196
   63MOL0     C 8424   4.214   5.534   9.145 -0.3743 -1.2208 -0.3392
   63MOL0     C 8425   4.091   5.549   9.208  0.7637  0.5303 -1.1988
   63MOL0     C 8426   3.994   5.450   9.187 -0.4992  0.3344 -0.2455
   63MOL0     C 8427   4.015   5.336   9.120  0.3984 -0.3517 -0.3894
   63MOL0     O 8428   3.904   5.247   9.101 -1.2417 -0.2121 -0.1124
   63MOL0     C 8429   3.873   5.191   8.974 -0.2193  0.5714  0.7979
   63MOL0     C 8430   3.844   5.283   8.854  0.4311 -0.0734 -0.4944
   63MOL0     C 8431   3.716   5.371   8.876 -0.1742  0.1737  0.0906
   63MOL0     C 8432   3.702   5.475   8.766  0.2202 -0.9718  0.3072
   63MOL0     C 8433   3.823   5.549   8.734 -0.3942  0.2826  0.4357
   63MOL0     C 8434   3.918   5.613   8.699 -0.0952 -0.0868  0.1058
   63MOL0     C 8435   4.137   5.320   9.060 -0.1642  0.5900 -0.1066
   63MOL0     C 8436   4.240   5.414   9.071 -0.5859  0.5621  0.3049
   63MOL0     C 8437   4.376   5.383   9.013  0.1574 -0.0836  0.1547
   63MOL0     H 8438   4.560   5.604   9.328  0.5532 -0.0869 -1.8893
   63MOL0     H 8439   4.734   5.752   9.427  0.0955  0.5021  0.7356
   63MOL0     H 8440   4.973   5.951   9.211  0.3320  0.5039 -0.7054
   63MOL0     H 8441   4.864   6.087   9.155  2.5224  0.2242 -1.9940
   63MOL0     H 8442   5.065   6.082   9.391  1.5643  3.4286  2.3466
   63MOL0     H 8443   4.954   6.212   9.369  0.1454 -0.0505  0.4035
   63MOL0     H 8444   5.042   6.264   9.146  1.2250 -0.5986 -0.5736
   63MOL0     H 8445   5.165   6.147   9.157 -0.2857  2.2586 -1.8433
   63MOL0     H 8446   5.150   6.367   9.348  2.5480 -0.8113  3.0217
   63MOL0     H 8447   5.261   6.233   9.353 -0.9632 -1.9416 -1.2513
   63MOL0     H 8448   5.358   6.285   9.149  0.7259 -0.7828  3.3064
   63MOL0     H 8449   5.253   6.408   9.104 -1.2051  0.6048  0.2595
   63MOL0     H 8450   5.458   6.516   9.171  1.1116 -3.3426 -1.7911
   63MOL0     H 8451   5.353   6.538   9.316 -0.2115  0.1309 -0.4192
   63MOL0     H 8452   5.445   6.323   9.418  0.7559 -0.7977 -0.2321
   63MOL0     H 8453   5.545   6.472   9.407  1.0878 -1.3663  1.7408
   63MOL0     H 8454   5.664   6.262   9.358  1.2044  2.7609  1.7966
   63MOL0     H 8455   5.564   6.236   9.212 -0.1236  0.8083 -1.0247
   63MOL0     H 8456   5.685   6.599   9.288  0.6641  0.9951 -0.9746
   63MOL0     H 8457   5.926   6.751   9.082 -0.1449  0.8648  0.9203
   63MOL0     H 8458   5.857   6.762   9.235 -0.7319 -0.3938  1.0289
   63MOL0     H 8459   6.103   6.589   9.187  0.1276 -0.8868  0.5711
   63MOL0     H 8460   6.130   6.755   9.198  1.6102 -2.8527 -1.3348
   63MOL0     H 8461   6.028   6.573   9.414  2.9616  0.0665  1.5923
   63MOL0     H 8462   5.981   6.744   9.412 -0.4074 -1.1186 -0.1470
   63MOL0     H 8463   6.180   6.703   9.554  0.6389 -0.9132  0.4399
   63MOL0     H 8464   6.228   6.804   9.416 -2.2424  0.3510 -2.3942
   63MOL0     H 8465   6.475   6.500   9.259  1.6593 -0.7268 -0.5073
   63MOL0     H 8466   6.699   6.456   9.349 -1.4675 -1.8873  0.8324
   63MOL0     H 8467   6.954   6.233   9.517  1.2859 -1.0418 -3.3528
   63MOL0     H 8468   7.186   6.131   9.588  2.9964  0.2920  1.2827
   63MOL0     H 8469   7.407   6.130   9.491  1.5561  0.4708 -0.4288
   63MOL0     H 8470   7.487   6.270   9.448 -0.7375 -2.4382 -2.9337
   63MOL0     H 8471   7.665   6.242   9.624  1.9222 -1.3590 -0.8509
   63MOL0     H 8472   7.584   6.081   9.660  0.6156 -0.9007  0.4993
   63MOL0     H 8473   7.643   5.976   9.471  0.1092  0.6175 -1.1512
   63MOL0     H 8474   7.673   6.132   9.394 -2.6383 -0.1189  0.1058
   63MOL0     H 8475   7.853   6.064   9.626  0.5121 -0.4521 -0.5894
   63MOL0     H 8476   7.874   6.177   9.505  0.4808 -1.4803 -1.7503
   63MOL0     H 8477   7.890   5.987   9.337 -2.0316  2.6071  1.1028
   63MOL0     H 8478   7.879   5.870   9.473  2.2237 -2.2188 -3.3892
   63MOL0     H 8479   8.103   6.076   9.419  0.8788 -2.3502 -3.8994
   63MOL0     H 8480   8.079   5.982   9.571  0.1387  0.3682 -0.3497
   63MOL0     H 8481   8.113   5.843   9.305  2.5034 -1.8047 -1.3058
   63MOL0     H 8482   8.101   5.774   9.475  4.8936 -1.1282  0.8951
   63MOL0     H 8483   8.310   5.918   9.510  1.5141  1.1138 -0.7541
   63MOL0     H 8484   8.346   5.773   9.420  0.3353 -0.7956  0.8582
   63MOL0     H 8485   7.336   6.526   9.618 -1.1964  1.6569  0.2869
   63MOL0     H 8486   7.129   6.621   9.523  1.4114 -1.2071 -1.5429
   63MOL0     H 8487   6.614   6.702   9.687  0.5475  1.1128 -0.9686
   63MOL0     H 8488   6.393   6.718   9.629  1.4102  0.3334  0.1529
   63MOL0     H 8489   4.649   6.037   9.120 -0.4775 -1.7457 -4.6910
   63MOL0     H 8490   4.495   5.875   9.014  1.9683 -2.1899 -2.2573
   63MOL0     H 8491   4.068   5.626   9.280  1.1208 -0.1233 -0.3670
   63MOL0     H 8492   3.899   5.453   9.238  1.0057  1.6733  2.6936
   63MOL0     H 8493   3.781   5.131   8.975 -0.2232  0.3902 -2.0703
   63MOL0     H 8494   3.946   5.120   8.935  0.2390  2.9056 -3.1597
   63MOL0     H 8495   3.838   5.226   8.760  1.9296  1.7827 -1.8077
   63MOL0     H 8496   3.929   5.350   8.838 -0.5908  1.2391 -0.5737
   63MOL0     H 8497   3.733   5.434   8.964  1.9157 -0.6656  0.3472
   63MOL0     H 8498   3.627   5.307   8.879 -0.3656  0.4623  1.4826
   63MOL0     H 8499   3.656   5.429   8.678 -5.3630  2.3360  0.9865
   63MOL0     H 8500   3.626   5.552   8.785  1.0239  0.6610 -2.5296
   63MOL0     H 8501   4.006   5.656   8.656 -1.3996 -0.0609 -2.7987
   63MOL0     H 8502   4.158   5.236   8.995 -0.6455  0.4077 -0.0271
   63MOL0     H 8503   4.455   5.399   9.087  0.3129 -1.9797  0.4512
   63MOL0     H 8504   4.395   5.282   8.975 -1.0232  0.5914 -2.4698
   63MOL0     H 8505   4.397   5.440   8.922  1.8050 -1.8631 -0.6557
   64MOL0     O 8506   7.252  11.021   9.713  0.7597  0.5365  0.0974
   64MOL0     C 8507   7.231  11.142   9.698 -0.3640  0.4615  0.3838
   64MOL0     O 8508   7.118  11.213   9.728 -0.4898 -0.3702  0.7255
   64MOL0     C 8509   7.045  11.181   9.835  0.2942 -0.9823 -0.1946
   64MOL0     C 8510   6.903  11.180   9.828 -0.2345 -0.0945  0.1174
   64MOL0     C 8511   6.822  11.161   9.937  0.0805  0.4809  0.5040
   64MOL0     C 8512   6.881  11.145  10.065 -0.5532 -0.7494 -1.3183
   64MOL0     O 8513   6.806  11.112  10.176 -0.5658  0.2148  0.1926
   64MOL0     C 8514   6.692  11.193  10.199  0.4298  0.0326 -0.6897
   64MOL0     C 8515   6.652  11.168  10.350  0.6110 -0.7740  0.4061
   64MOL0     C 8516   6.508  11.223  10.388  0.2540  0.4746 -0.6354
   64MOL0     C 8517   6.500  11.273  10.533 -0.2726  0.3338 -0.1039
   64MOL0     C 8518   6.356  11.295  10.566  0.6354  0.0403  0.1571
   64MOL0     C 8519   6.343  11.345  10.713 -0.0754 -0.0700 -0.2904
   64MOL0     C 8520   6.428  11.479  10.748  1.0057 -0.5045  0.0172
   64MOL0     C 8521   6.399  11.594  10.655  0.0269 -0.7844 -0.4475
   64MOL0     N 8522   6.494  11.705  10.679  0.4266 -0.3415  0.3154
   64MOL0     C 8523   6.515  11.800  10.583  0.0101  0.0149  0.6627
   64MOL0     C 8524   6.540  11.915  10.645 -0.7770  0.4776  0.6121
   64MOL0     C 8525   6.542  12.044  10.563 -0.4643  0.1415  0.0609
   64MOL0     C 8526   6.677  12.113  10.577  0.4479  0.3592 -0.3592
   64MOL0     C 8527   6.677  12.257  10.517 -0.0069 -0.5142 -0.9097
   64MOL0     C 8528   6.807  12.336  10.536  0.0875 -0.1467 -0.1309
   64MOL0     O 8529   6.908  12.282  10.443  0.6804 -0.0724 -0.1625
   64MOL0     C 8530   7.032  12.337  10.434  0.3714  0.4130  0.6420
   64MOL0     C 8531   7.117  12.289  10.337 -0.8100  0.8395  0.3171
   64MOL0     C 8532   7.252  12.333  10.317  0.3548 -0.3060 -0.4363
   64MOL0     C 8533   7.286  12.448  10.390 -1.2693 -0.0695 -0.3272
   64MOL0     C 8534   7.418  12.510  10.367 -0.6620 -0.3326 -0.4581
   64MOL0     O 8535   7.510  12.424  10.316  0.5332 -0.0709 -0.0192
   64MOL0     C 8536   7.641  12.438  10.305  0.5017 -0.0246 -0.7606
   64MOL0     C 8537   7.703  12.318  10.275 -0.2956  0.2956 -0.2880
   64MOL0     C 8538   7.838  12.320  10.237 -0.7244 -0.7235 -0.2285
   64MOL0     C 8539   7.901  12.449  10.227 -1.1308 -0.0532 -0.1729
   64MOL0     O 8540   8.037  12.448  10.189 -0.2956  0.7742 -0.3936
   64MOL0     C 8541   8.066  12.513  10.061  0.7464 -0.0750 -0.1080
   64MOL0     C 8542   8.170  12.623  10.086 -0.1383 -0.0394 -0.0234
   64MOL0     C 8543   8.241  12.671   9.959  0.5632 -0.7789  0.3660
   64MOL0     C 8544   8.333  12.796   9.974  0.0807  0.0080  0.1005
   64MOL0     C 8545   8.440  12.811   9.864 -0.1008  0.5766  0.3332
   64MOL0     C 8546   8.381  12.807   9.716 -0.1323  1.1230 -0.8134
   64MOL0     C 8547   8.283  12.923   9.698 -0.1640  0.3061 -0.0876
   64MOL0     C 8548   8.252  12.930   9.552  0.6778 -0.1052 -0.8842
   64MOL0    Cl 8549   8.401  12.990   9.476 -0.1585  0.0035  0.3825
   64MOL0     C 8550   7.834  12.569  10.257 -1.0120  0.5384 -0.2198
   64MOL0     C 8551   7.700  12.561  10.295 -0.5580 -0.0064  0.3732
   64MOL0     O 8552   7.445  12.614  10.420 -0.2555  0.9160  0.0380
   64MOL0     C 8553   7.200  12.498  10.493  0.7402  0.9048 -0.0921
   64MOL0     C 8554   7.073  12.451  10.505 -0.5117  0.5515 -0.2489
   64MOL0     N 8555   6.535  11.894  10.777  0.1597  0.2533  0.5726
   64MOL0     N 8556   6.506  11.767  10.799 -0.3934 -0.6854 -0.3279
   64MOL0     C 8557   7.023  11.143  10.076  0.7384 -0.6224 -0.5632
   64MOL0     C 8558   7.100  11.176   9.965 -0.2583  0.2480 -0.2900
   64MOL0     C 8559   7.343  11.226   9.653 -0.3648 -0.2885  0.4410
   64MOL0     C 8560   7.302  11.347   9.585 -0.3687 -0.0516  0.6888
   64MOL0     C 8561   7.401  11.434   9.535 -0.0771  0.0537 -0.1452
   64MOL0     C 8562   7.541  11.405   9.544  0.3884 -0.4343  0.0375
   64MOL0     O 8563   7.630  11.490   9.487  0.3213  1.0658 -0.0560
   64MOL0     C 8564   7.742  11.435   9.422 -0.0655 -0.2311  0.3058
   64MOL0     C 8565   7.865  11.449   9.508 -0.1935 -0.1175 -0.7952
   64MOL0     C 8566   7.987  11.390   9.430 -0.2657  0.3651  0.1225
   64MOL0     C 8567   8.113  11.453   9.474 -0.7629 -1.1762 -0.2106
   64MOL0     C 8568   8.233  11.421   9.396 -0.7175 -0.4123  0.1290
   64MOL0     C 8569   8.332  11.411   9.323 -0.2200  0.6508  0.2787
   64MOL0     C 8570   7.571  11.280   9.601 -0.9390 -0.7412 -0.3195
   64MOL0     C 8571   7.478  11.198   9.657  1.0250  0.2013  0.6433
   64MOL0     C 8572   7.537  11.070   9.716 -0.3040 -0.0100  0.0712
   64MOL0     H 8573   6.866  11.175   9.726 -1.3587 -0.9361  0.5441
   64MOL0     H 8574   6.714  11.166   9.932  0.0501  2.6520  1.8121
   64MOL0     H 8575   6.712  11.296  10.169 -0.6498  0.2939 -0.5560
   64MOL0     H 8576   6.606  11.156  10.142  0.6967  0.4169 -1.3549
   64MOL0     H 8577   6.721  11.227  10.411  1.0783  1.9598 -2.4494
   64MOL0     H 8578   6.658  11.062  10.374 -1.2743 -0.5739  1.9707
   64MOL0     H 8579   6.445  11.136  10.369 -1.0796  0.9842  1.1730
   64MOL0     H 8580   6.476  11.292  10.310 -2.1361 -3.2418 -3.2574
   64MOL0     H 8581   6.544  11.209  10.609 -2.4486 -3.0287 -1.4295
   64MOL0     H 8582   6.551  11.369  10.542  0.0296  0.1745 -0.1156
   64MOL0     H 8583   6.303  11.360  10.496 -0.8483  2.0366  2.9108
   64MOL0     H 8584   6.305  11.200  10.554 -0.2190  0.4178  0.6875
   64MOL0     H 8585   6.236  11.355  10.735 -0.0384 -0.1410 -0.0733
   64MOL0     H 8586   6.378  11.256  10.767 -0.8010 -0.2225 -0.0608
   64MOL0     H 8587   6.536  11.457  10.746  1.1095 -0.9605  3.8425
   64MOL0     H 8588   6.408  11.501  10.853  0.0957  2.0176 -0.6210
   64MOL0     H 8589   6.405  11.556  10.552  2.0211 -1.0881 -0.2605
   64MOL0     H 8590   6.298  11.623  10.684 -0.2668 -2.9936  0.9952
   64MOL0     H 8591   6.496  11.787  10.477 -0.2587 -0.3956  0.7577
   64MOL0     H 8592   6.520  12.045  10.456  1.2798  1.4770 -0.3338
   64MOL0     H 8593   6.468  12.106  10.614  1.4720  1.9161  0.8560
   64MOL0     H 8594   6.697  12.121  10.684 -2.1036 -0.3975  0.2484
   64MOL0     H 8595   6.749  12.049  10.525 -1.7665 -1.2289 -1.6333
   64MOL0     H 8596   6.593  12.313  10.559 -0.8366 -1.8886 -0.6575
   64MOL0     H 8597   6.664  12.250  10.409  0.7858 -1.0242 -0.9798
   64MOL0     H 8598   6.845  12.349  10.638 -0.2234 -0.7893  0.0720
   64MOL0     H 8599   6.783  12.439  10.507 -0.1517 -0.0304  0.4555
   64MOL0     H 8600   7.086  12.207  10.273 -0.5701  0.9297  0.0826
   64MOL0     H 8601   7.317  12.279  10.249  1.0156 -0.8252  0.5747
   64MOL0     H 8602   7.648  12.225  10.278  0.5139 -0.1818  0.2743
   64MOL0     H 8603   7.888  12.226  10.215 -0.3717 -0.5013 -0.3869
   64MOL0     H 8604   8.107  12.443   9.988 -0.3246  1.0503 -1.8409
   64MOL0     H 8605   7.977  12.555  10.015  2.3865  0.5851 -2.9172
   64MOL0     H 8606   8.122  12.706  10.138 -1.0312  0.3821 -1.4541
   64MOL0     H 8607   8.252  12.584  10.147  0.1412  1.1859  0.4057
   64MOL0     H 8608   8.298  12.594   9.907 -1.5619 -0.6497 -2.3812
   64MOL0     H 8609   8.162  12.694   9.887  1.0445 -0.6200 -0.1206
   64MOL0     H 8610   8.381  12.786  10.072 -1.7297 -0.4528  0.9876
   64MOL0     H 8611   8.273  12.887   9.965  1.1481  0.6639 -0.6887
   64MOL0     H 8612   8.517  12.734   9.868  2.4361  2.9774  0.4629
   64MOL0     H 8613   8.504  12.899   9.869  3.5209 -1.8489  0.2928
   64MOL0     H 8614   8.473  12.812   9.656  1.6681 -1.9375  1.3980
   64MOL0     H 8615   8.325  12.714   9.706  2.2545 -0.7605  1.6712
   64MOL0     H 8616   8.329  13.016   9.733  0.9416 -0.4603  0.5258
   64MOL0     H 8617   8.186  12.906   9.746  0.8849 -1.1082  1.6160
   64MOL0     H 8618   8.222  12.834   9.510 -0.2577 -0.3025  0.2012
   64MOL0     H 8619   8.172  13.004   9.545  1.1864  0.6237  0.6479
   64MOL0     H 8620   7.890  12.662  10.262  1.1125 -0.7509  1.1145
   64MOL0     H 8621   7.652  12.656  10.315  2.8889  1.5767  2.2164
   64MOL0     H 8622   7.232  12.583  10.553 -0.0504 -0.3731  2.2297
   64MOL0     H 8623   7.008  12.493  10.581  1.7883  0.4662  1.9139
   64MOL0     H 8624   7.062  11.121  10.175 -0.6507 -2.7165 -0.4153
   64MOL0     H 8625   7.207  11.182   9.985 -0.4030 -1.6319  1.3433
   64MOL0     H 8626   7.204  11.379   9.552 -0.1862 -1.4728 -1.3854
   64MOL0     H 8627   7.365  11.518   9.477  1.2202  1.5938  1.1748
   64MOL0     H 8628   7.750  11.486   9.325 -0.7867 -0.5929  0.0524
   64MOL0     H 8629   7.720  11.335   9.384 -2.8334  0.2859  0.3291
   64MOL0     H 8630   7.846  11.396   9.602 -2.1316 -0.6212 -1.4076
   64MOL0     H 8631   7.883  11.554   9.533  0.9640 -1.2322  3.8744
   64MOL0     H 8632   7.971  11.398   9.322  0.0838  0.1988  0.0587
   64MOL0     H 8633   7.984  11.283   9.456 -1.2857 -0.2085 -2.0858
   64MOL0     H 8634   8.097  11.561   9.467 -1.4607 -1.2823 -0.3247
   64MOL0     H 8635   8.131  11.416   9.575  0.5376  0.1630  0.0915
   64MOL0     H 8636   8.417  11.394   9.260 -1.7767 -2.6959 -1.1389
   64MOL0     H 8637   7.674  11.247   9.612 -0.3177  0.5011 -2.0436
   64MOL0     H 8638   7.501  11.049   9.818 -1.7353 -1.6788 -0.7305
   64MOL0     H 8639   7.525  10.982   9.653 -0.2852 -1.9381  2.5883
   64MOL0     H 8640   7.645  11.084   9.719 -0.2432  0.7695 -3.0577
   65MOL0     O 8641   1.233   2.256   5.542  0.3864  0.4819  0.1054
   65MOL0     C 8642   1.157   2.352   5.521  0.4866  0.3876  1.2858
   65MOL0     O 8643   1.168   2.475   5.572 -0.1827 -1.0803  0.4927
   65MOL0     C 8644   1.284   2.525   5.634  0.2188  0.7210 -0.5512
   65MOL0     C 8645   1.318   2.661   5.625  0.3026 -0.3064  0.6940
   65MOL0     C 8646   1.425   2.716   5.702  0.5695 -0.7777  0.4282
   65MOL0     C 8647   1.492   2.634   5.791 -0.2857  0.2083 -0.3815
   65MOL0     O 8648   1.575   2.691   5.885  0.3300 -0.1744  0.3252
   65MOL0     C 8649   1.716   2.675   5.871 -0.9241  0.1569  0.1769
   65MOL0     C 8650   1.778   2.802   5.817 -0.3980 -0.4860 -0.1191
   65MOL0     C 8651   1.931   2.780   5.806 -0.4813 -0.8561  0.2086
   65MOL0     C 8652   2.004   2.802   5.938 -0.5671 -0.1671 -0.1735
   65MOL0     C 8653   2.150   2.784   5.919  0.0360  0.0146 -0.9960
   65MOL0     C 8654   2.217   2.806   6.065  0.4607  0.2794 -0.4000
   65MOL0     C 8655   2.334   2.709   6.081 -0.9540  0.9657  0.3067
   65MOL0     C 8656   2.387   2.731   6.230  0.4752 -0.5489 -0.0836
   65MOL0     N 8657   2.427   2.866   6.255  0.5470  0.5739  0.0311
   65MOL0     C 8658   2.513   2.936   6.177 -0.9781 -0.5621 -0.5827
   65MOL0     C 8659   2.548   3.044   6.263  0.9518 -0.7475  0.8766
   65MOL0     C 8660   2.643   3.151   6.223  0.3997 -0.6957 -0.3669
   65MOL0     C 8661   2.784   3.100   6.226  0.0287 -0.2474  0.5613
   65MOL0     C 8662   2.873   3.232   6.222  0.2439  0.0699 -0.4150
   65MOL0     C 8663   3.022   3.194   6.268  0.7906  0.4397  0.0187
   65MOL0     O 8664   3.134   3.283   6.218 -0.3614 -0.1728  0.1438
   65MOL0     C 8665   3.244   3.292   6.300 -1.1311 -0.0535 -0.0492
   65MOL0     C 8666   3.269   3.240   6.432 -0.6522 -0.1038 -0.0383
   65MOL0     C 8667   3.390   3.260   6.496  0.0664  0.0877  0.5357
   65MOL0     C 8668   3.488   3.341   6.429  0.5606  0.1522 -0.3408
   65MOL0     C 8669   3.622   3.358   6.488 -0.5947 -0.2450 -0.4363
   65MOL0     O 8670   3.720   3.378   6.395 -0.9064 -0.7567 -0.0793
   65MOL0     C 8671   3.853   3.410   6.424  0.4515  0.2700  0.4256
   65MOL0     C 8672   3.920   3.361   6.541 -0.3057  1.0543  0.1922
   65MOL0     C 8673   4.033   3.420   6.579 -0.4656  0.1422  0.4545
   65MOL0     C 8674   4.106   3.519   6.512 -0.4371  0.1709  1.6697
   65MOL0     O 8675   4.229   3.582   6.544 -0.0301 -0.2982 -0.3551
   65MOL0     C 8676   4.281   3.568   6.679  1.3716  0.6284 -0.6331
   65MOL0     C 8677   4.381   3.675   6.690  0.5100  0.1464  0.0766
   65MOL0     C 8678   4.470   3.653   6.817  0.7164 -0.3174 -0.2012
   65MOL0     C 8679   4.607   3.592   6.780  0.4822  0.7668 -0.2327
   65MOL0     C 8680   4.726   3.609   6.884 -0.4303  0.3409 -0.0269
   65MOL0     C 8681   4.775   3.761   6.870  0.8932  0.6227  1.1263
   65MOL0     C 8682   4.920   3.792   6.911 -0.5518  0.6924  0.7541
   65MOL0     C 8683   4.955   3.944   6.907  0.5961  0.0039 -0.9281
   65MOL0    Cl 8684   5.122   3.945   6.956  0.1856  0.2501  0.1854
   65MOL0     C 8685   4.054   3.550   6.380  0.4066  0.3438 -0.1463
   65MOL0     C 8686   3.930   3.502   6.337  1.0120  0.3491 -0.0356
   65MOL0     O 8687   3.641   3.337   6.606  0.7134 -0.8219  0.6492
   65MOL0     C 8688   3.455   3.405   6.311  0.2612 -0.5267 -0.5375
   65MOL0     C 8689   3.334   3.388   6.249 -0.0553 -0.4177 -0.4486
   65MOL0     N 8690   2.471   3.043   6.377 -0.2326 -0.3949 -0.2918
   65MOL0     N 8691   2.403   2.927   6.370 -0.8522  0.5227  0.1390
   65MOL0     C 8692   1.467   2.497   5.794 -0.2799 -0.2109  0.3710
   65MOL0     C 8693   1.360   2.440   5.720  0.1641  0.2865  0.4918
   65MOL0     C 8694   1.042   2.333   5.423  0.2148  0.1466 -0.4028
   65MOL0     C 8695   0.941   2.429   5.429 -1.0633 -0.4752  0.0240
   65MOL0     C 8696   0.832   2.429   5.346 -0.1968 -0.6157 -0.1033
   65MOL0     C 8697   0.820   2.336   5.255 -0.3177  0.2530 -0.0386
   65MOL0     O 8698   0.729   2.356   5.159  0.2430  0.8181  0.1323
   65MOL0     C 8699   0.687   2.257   5.065  0.6524 -0.0446  0.5064
   65MOL0     C 8700   0.587   2.316   4.954 -0.2576  0.0824  0.1388
   65MOL0     C 8701   0.447   2.273   4.997  0.3121  1.1110 -0.9036
   65MOL0     C 8702   0.332   2.318   4.894 -0.7865 -0.0590 -1.0139
   65MOL0     C 8703   0.322   2.464   4.884 -0.4017 -0.5335  0.4302
   65MOL0     C 8704   0.341   2.581   4.891 -0.5846 -0.0319 -0.4419
   65MOL0     C 8705   0.906   2.231   5.248  0.3339 -0.3146  0.1726
   65MOL0     C 8706   1.026   2.222   5.333 -0.0378 -0.6143  0.0158
   65MOL0     C 8707   1.128   2.108   5.308  0.5795 -0.2046  0.0906
   65MOL0     H 8708   1.262   2.726   5.558  0.1981 -1.1708 -0.0894
   65MOL0     H 8709   1.447   2.821   5.718  1.6576 -1.3125  2.8291
   65MOL0     H 8710   1.759   2.665   5.971  0.3163  1.1760 -0.2322
   65MOL0     H 8711   1.736   2.577   5.825 -0.3357 -0.4219  1.5830
   65MOL0     H 8712   1.762   2.894   5.875 -1.6932  1.0082 -2.6809
   65MOL0     H 8713   1.741   2.831   5.719  0.3004  0.3881 -0.1339
   65MOL0     H 8714   1.977   2.841   5.728 -2.2630  0.2876 -0.0256
   65MOL0     H 8715   1.944   2.676   5.774 -0.4792  0.1104 -3.3799
   65MOL0     H 8716   1.993   2.906   5.971  1.9872 -0.3586  1.5987
   65MOL0     H 8717   1.965   2.746   6.024 -1.1110  0.3182 -0.0914
   65MOL0     H 8718   2.164   2.677   5.905 -0.3371 -0.7597  3.2103
   65MOL0     H 8719   2.198   2.839   5.838  2.4809 -0.2987  0.1454
   65MOL0     H 8720   2.244   2.910   6.084 -1.9698  0.5035  2.8582
   65MOL0     H 8721   2.143   2.779   6.142 -1.0834 -1.0879 -2.2663
   65MOL0     H 8722   2.418   2.725   6.013 -1.1651  0.0203 -0.1950
   65MOL0     H 8723   2.295   2.607   6.082  0.9467  0.1228  3.6579
   65MOL0     H 8724   2.308   2.700   6.299  1.1568 -1.0087  0.4997
   65MOL0     H 8725   2.481   2.676   6.245  2.0050  1.7063 -0.8317
   65MOL0     H 8726   2.561   2.904   6.085 -0.2640  0.4095 -0.5708
   65MOL0     H 8727   2.612   3.203   6.132 -1.5136  2.1752  1.7214
   65MOL0     H 8728   2.632   3.224   6.304 -0.5019 -0.3980 -0.7473
   65MOL0     H 8729   2.800   3.033   6.311  2.0814 -0.9086 -0.2801
   65MOL0     H 8730   2.807   3.039   6.138  1.5546 -1.1613  1.5488
   65MOL0     H 8731   2.838   3.303   6.297 -0.9480 -2.0488  1.1627
   65MOL0     H 8732   2.868   3.279   6.123 -0.9765  0.5356 -0.1478
   65MOL0     H 8733   3.045   3.099   6.219  0.8800  0.1788  0.5572
   65MOL0     H 8734   3.022   3.177   6.377  1.8469 -4.1043 -0.4992
   65MOL0     H 8735   3.201   3.172   6.483  1.1674 -1.6067  0.4965
   65MOL0     H 8736   3.420   3.209   6.587  0.5511 -1.2366 -0.3528
   65MOL0     H 8737   3.875   3.287   6.607 -1.3588  2.6879  1.3909
   65MOL0     H 8738   4.067   3.387   6.677 -1.7086  0.9113  1.1787
   65MOL0     H 8739   4.207   3.585   6.758  2.7943 -1.5751  1.3319
   65MOL0     H 8740   4.319   3.466   6.693  0.1813  0.3181  0.6146
   65MOL0     H 8741   4.449   3.658   6.606  1.8064  0.7632  0.9700
   65MOL0     H 8742   4.335   3.775   6.687  2.6099  1.1553 -2.0135
   65MOL0     H 8743   4.485   3.748   6.869 -0.4233 -0.4614  0.4147
   65MOL0     H 8744   4.417   3.601   6.896 -0.1906 -1.7274 -1.6834
   65MOL0     H 8745   4.635   3.622   6.678 -2.0179 -0.9370 -1.5277
   65MOL0     H 8746   4.576   3.487   6.779 -1.6277  1.3482  0.5557
   65MOL0     H 8747   4.804   3.536   6.859  0.8898  1.8562 -0.5070
   65MOL0     H 8748   4.690   3.590   6.986  0.7470  0.1727  0.3693
   65MOL0     H 8749   4.752   3.792   6.768 -1.3920  0.0269  1.4203
   65MOL0     H 8750   4.705   3.822   6.928 -1.6349 -0.8025 -0.2928
   65MOL0     H 8751   4.988   3.741   6.843  0.8391  0.6344  2.1372
   65MOL0     H 8752   4.938   3.755   7.013 -0.5582  0.2742  0.6041
   65MOL0     H 8753   4.936   3.988   6.809 -1.3325  0.6056 -0.3351
   65MOL0     H 8754   4.892   4.004   6.973 -3.5088 -1.2830 -3.2749
   65MOL0     H 8755   4.113   3.607   6.309 -0.5748 -0.9146 -2.0686
   65MOL0     H 8756   3.871   3.534   6.252  0.2880  0.5860  0.5517
   65MOL0     H 8757   3.520   3.472   6.258 -3.2604  1.5960 -2.5715
   65MOL0     H 8758   3.325   3.432   6.150 -0.0163 -0.5295 -0.5025
   65MOL0     H 8759   1.523   2.426   5.853 -1.5065 -1.1303  0.4604
   65MOL0     H 8760   1.336   2.336   5.740 -1.5675  0.7484  0.9603
   65MOL0     H 8761   0.949   2.519   5.489  2.2190 -0.0000 -0.9134
   65MOL0     H 8762   0.752   2.503   5.353 -0.1407 -0.6069  0.5072
   65MOL0     H 8763   0.643   2.171   5.116 -1.8958  0.2954 -0.9699
   65MOL0     H 8764   0.771   2.220   5.005 -0.9167 -0.2043 -1.7281
   65MOL0     H 8765   0.615   2.268   4.860  2.5154  0.2802  0.7686
   65MOL0     H 8766   0.578   2.423   4.937 -2.0484  0.0765  0.7765
   65MOL0     H 8767   0.414   2.308   5.095  2.6057 -2.2847  1.2935
   65MOL0     H 8768   0.449   2.163   5.000  4.1487  1.0713 -0.0488
   65MOL0     H 8769   0.361   2.284   4.795 -0.1280 -0.7047 -0.6144
   65MOL0     H 8770   0.237   2.274   4.927  0.5434 -1.4703  1.1531
   65MOL0     H 8771   0.357   2.687   4.904  1.9137 -0.2767 -1.0706
   65MOL0     H 8772   0.888   2.151   5.176  1.2638 -0.6166  0.2600
   65MOL0     H 8773   1.163   2.066   5.403 -0.9574 -1.2749  0.2338
   65MOL0     H 8774   1.086   2.023   5.253  1.5801  0.3010 -1.5165
   65MOL0     H 8775   1.206   2.154   5.248  2.0046 -2.7656 -0.1580
   66MOL0     O 8776   3.163   0.463   1.758  1.1578 -0.0281 -0.3586
   66MOL0     C 8777   3.079   0.375   1.745 -0.7008 -1.2457 -0.3664
   66MOL0     O 8778   3.095   0.262   1.666  0.1264 -0.4731  0.0652
   66MOL0     C 8779   3.219   0.226   1.622  0.4749  0.6081  0.8487
   66MOL0     C 8780   3.219   0.158   1.501 -0.1760 -0.3255 -0.0938
   66MOL0     C 8781   3.336   0.098   1.453 -0.5037 -0.5186  0.3170
   66MOL0     C 8782   3.464   0.121   1.517 -0.5437  0.4538 -0.0545
   66MOL0     O 8783   3.585   0.076   1.472 -0.1370 -0.1404  0.0477
   66MOL0     C 8784   3.592   0.081   1.324  0.5645  0.1483  0.2056
   66MOL0     C 8785   3.738   0.055   1.302 -1.2265  0.1291  0.5543
   66MOL0     C 8786   3.794   0.149   1.193 -1.0852  0.3567  0.0543
   66MOL0     C 8787   3.934   0.106   1.150 -0.3574 -0.2867  0.4589
   66MOL0     C 8788   3.995   0.207   1.052  0.4145  0.8098  0.4724
   66MOL0     C 8789   3.973   0.161   0.905 -0.0153  0.3477  0.2882
   66MOL0     C 8790   4.039   0.275   0.822 -0.8026 -0.5519 -0.0783
   66MOL0     C 8791   4.011   0.254   0.672  0.1261 -0.5268  0.4560
   66MOL0     N 8792   4.079   0.361   0.603 -0.7842 -1.2218  0.7764
   66MOL0     C 8793   4.213   0.358   0.568 -0.4039 -0.1988 -0.1687
   66MOL0     C 8794   4.234   0.487   0.522 -0.2505  0.0219  0.9811
   66MOL0     C 8795   4.354   0.543   0.458  0.2260  0.0250 -0.4200
   66MOL0     C 8796   4.493   0.493   0.508 -0.1593  0.4913  0.0597
   66MOL0     C 8797   4.551   0.378   0.422  0.4294  1.0102  0.3545
   66MOL0     C 8798   4.661   0.314   0.497 -0.5157  0.3802 -0.0818
   66MOL0     O 8799   4.725   0.221   0.409 -0.5128 -0.2918 -0.0280
   66MOL0     C 8800   4.860   0.207   0.414 -0.6516  0.0117  0.8258
   66MOL0     C 8801   4.951   0.265   0.502 -0.2044  0.1724  0.0270
   66MOL0     C 8802   5.091   0.226   0.499 -0.1285 -0.1850  0.4201
   66MOL0     C 8803   5.142   0.155   0.393 -0.0683 -0.2576  0.6819
   66MOL0     C 8804   5.287   0.117   0.396 -0.0362  0.1733 -0.0400
   66MOL0     O 8805   5.333   0.052   0.285  0.0335 -0.0552  0.6788
   66MOL0     C 8806   5.468   0.027   0.273  0.1390 -0.0383  0.0986
   66MOL0     C 8807   5.508  -0.095   0.210 -0.7403  0.3789  0.0118
   66MOL0     C 8808   5.643  -0.129   0.184 -0.6323 -0.4285 -0.6384
   66MOL0     C 8809   5.737  -0.028   0.222  0.8343  0.2684  0.3677
   66MOL0     O 8810   5.869  -0.031   0.193 -0.3501 -0.0661 -0.2246
   66MOL0     C 8811   5.925  -0.145   0.125 -0.2604 -0.5366  0.3308
   66MOL0     C 8812   6.060  -0.113   0.056 -0.1146 -0.7192 -0.0195
   66MOL0     C 8813   6.125  -0.244   0.003  0.3183 -0.4417 -0.5761
   66MOL0     C 8814   6.249  -0.204  -0.088 -0.2935  0.4387 -0.4861
   66MOL0     C 8815   6.308  -0.320  -0.166 -0.0471  1.3189 -0.0682
   66MOL0     C 8816   6.399  -0.281  -0.274 -0.0322 -0.0019  0.1761
   66MOL0     C 8817   6.465  -0.406  -0.336  0.2931 -0.5389  0.4115
   66MOL0     C 8818   6.557  -0.491  -0.248  0.5462  0.1262  0.4223
   66MOL0    Cl 8819   6.474  -0.633  -0.190 -0.5265 -0.2151  0.1755
   66MOL0     C 8820   5.689   0.088   0.274  0.7545 -1.0444 -0.1887
   66MOL0     C 8821   5.561   0.120   0.308  0.5465 -1.3451  0.2516
   66MOL0     O 8822   5.353   0.147   0.497 -0.9518  0.1013  0.3507
   66MOL0     C 8823   5.050   0.101   0.301  0.1952  0.5452  0.9691
   66MOL0     C 8824   4.909   0.121   0.316  0.6933 -0.1159  0.5052
   66MOL0     N 8825   4.114   0.564   0.532  0.8330  0.1757  0.2641
   66MOL0     N 8826   4.030   0.493   0.591 -0.3358 -0.0334  0.2728
   66MOL0     C 8827   3.452   0.189   1.639 -0.6789  0.6137 -0.1583
   66MOL0     C 8828   3.337   0.243   1.692  0.0794 -0.2329  0.5078
   66MOL0     C 8829   2.948   0.379   1.807  0.2565 -0.3751  0.9711
   66MOL0     C 8830   2.836   0.340   1.726  0.7059 -0.1854 -0.1289
   66MOL0     C 8831   2.704   0.345   1.767 -0.4531 -0.5786  0.0299
   66MOL0     C 8832   2.684   0.376   1.904  0.7414  0.5093  0.4600
   66MOL0     O 8833   2.553   0.399   1.961 -0.4893 -0.0093 -0.1425
   66MOL0     C 8834   2.445   0.389   1.870  0.8509 -0.5577  0.5601
   66MOL0     C 8835   2.309   0.432   1.935  0.2620  0.9102  0.4773
   66MOL0     C 8836   2.191   0.374   1.852  0.1747 -0.0438 -0.5740
   66MOL0     C 8837   2.044   0.425   1.892  0.5733 -0.4341  0.0828
   66MOL0     C 8838   1.938   0.360   1.814 -0.3667  0.7930  1.0879
   66MOL0     C 8839   1.838   0.305   1.763 -0.3801 -0.2969 -0.1963
   66MOL0     C 8840   2.789   0.401   1.982 -0.6783  0.0297  0.3992
   66MOL0     C 8841   2.922   0.403   1.938  0.1371 -0.0371  0.2141
   66MOL0     C 8842   3.028   0.464   2.035 -0.1212 -0.4512 -1.1978
   66MOL0     H 8843   3.123   0.142   1.453  0.4397  0.1048 -1.5299
   66MOL0     H 8844   3.326   0.025   1.374 -0.2251 -0.2177  0.0048
   66MOL0     H 8845   3.535   0.000   1.277 -1.1516  1.0157  0.7114
   66MOL0     H 8846   3.561   0.178   1.285  1.1142  0.1158 -0.3113
   66MOL0     H 8847   3.736  -0.050   1.271 -5.0305 -0.9736  3.7992
   66MOL0     H 8848   3.799   0.068   1.391 -2.6929  1.5746  1.3947
   66MOL0     H 8849   3.802   0.251   1.231 -2.1797  0.7471 -0.7057
   66MOL0     H 8850   3.727   0.135   1.108  0.0987 -0.8330 -0.7153
   66MOL0     H 8851   4.008   0.102   1.230 -1.2719  0.7958  1.3921
   66MOL0     H 8852   3.930   0.006   1.107  1.4138 -0.9151  1.6500
   66MOL0     H 8853   3.949   0.304   1.069  0.5886  0.9221  0.3053
   66MOL0     H 8854   4.104   0.202   1.063  0.3169 -0.1299  1.2200
   66MOL0     H 8855   4.017   0.064   0.879 -3.2261 -1.1735  0.1536
   66MOL0     H 8856   3.866   0.145   0.899  0.0036 -0.8069  2.2163
   66MOL0     H 8857   4.145   0.256   0.840 -0.4573 -1.7402 -2.8868
   66MOL0     H 8858   4.003   0.374   0.852  0.2707  0.4208 -1.8449
   66MOL0     H 8859   4.056   0.159   0.640 -2.1655 -1.1789 -1.0586
   66MOL0     H 8860   3.904   0.264   0.650  0.1701  2.9071  1.2625
   66MOL0     H 8861   4.283   0.276   0.576 -1.3060 -1.1020 -1.1391
   66MOL0     H 8862   4.349   0.521   0.351  1.4465  0.0661 -0.5001
   66MOL0     H 8863   4.356   0.652   0.461 -1.8246  0.0660  1.2197
   66MOL0     H 8864   4.554   0.584   0.508 -1.5933  1.5321  2.2365
   66MOL0     H 8865   4.479   0.459   0.611 -0.3104 -0.3285 -0.2293
   66MOL0     H 8866   4.596   0.420   0.332 -0.1950  1.9185  0.4514
   66MOL0     H 8867   4.478   0.300   0.401  2.3612 -0.4029 -1.5717
   66MOL0     H 8868   4.614   0.267   0.583 -1.1628  0.8415 -0.1818
   66MOL0     H 8869   4.727   0.390   0.540 -0.2086  0.3186 -0.4387
   66MOL0     H 8870   4.918   0.331   0.581 -2.5004 -1.9949  1.0332
   66MOL0     H 8871   5.156   0.240   0.585  0.9931  2.0469 -0.7072
   66MOL0     H 8872   5.429  -0.164   0.184 -1.1157  1.4397 -1.8961
   66MOL0     H 8873   5.673  -0.219   0.130 -2.1580 -1.9125  0.8569
   66MOL0     H 8874   5.948  -0.217   0.205  0.0140  0.7435  1.4406
   66MOL0     H 8875   5.859  -0.194   0.053 -1.1759 -0.1354  0.8748
   66MOL0     H 8876   6.042  -0.042  -0.026 -1.2100 -2.2825 -1.2020
   66MOL0     H 8877   6.126  -0.054   0.120 -0.1616  1.0556 -1.5057
   66MOL0     H 8878   6.155  -0.310   0.085 -1.0779  1.9469  2.0446
   66MOL0     H 8879   6.048  -0.295  -0.055 -0.8360 -2.7808  2.7327
   66MOL0     H 8880   6.325  -0.164  -0.020 -0.5133  2.5235 -1.3731
   66MOL0     H 8881   6.214  -0.133  -0.164 -1.9891  0.0601 -0.1053
   66MOL0     H 8882   6.227  -0.383  -0.204  0.8346  0.2037 -0.1541
   66MOL0     H 8883   6.367  -0.383  -0.099  2.2089  2.0600 -1.2469
   66MOL0     H 8884   6.337  -0.236  -0.353 -0.1950 -0.7349 -0.1162
   66MOL0     H 8885   6.466  -0.204  -0.235 -1.5962  0.4526  2.1139
   66MOL0     H 8886   6.535  -0.360  -0.407  2.3709 -3.3929  0.4542
   66MOL0     H 8887   6.393  -0.468  -0.389 -1.1099  1.6296 -0.3921
   66MOL0     H 8888   6.648  -0.524  -0.298  0.1280 -0.9726  0.3519
   66MOL0     H 8889   6.585  -0.426  -0.164  1.6013  0.7629 -0.3937
   66MOL0     H 8890   5.753   0.172   0.298  1.0623 -1.4619  0.4644
   66MOL0     H 8891   5.529   0.217   0.343 -0.8303 -1.6526 -0.0870
   66MOL0     H 8892   5.094   0.036   0.226  1.6400  1.8552  0.6376
   66MOL0     H 8893   4.833   0.075   0.254  2.8943 -2.7991 -0.4215
   66MOL0     H 8894   3.546   0.217   1.686  0.7407  2.7222 -3.8765
   66MOL0     H 8895   3.351   0.300   1.783  0.0935  2.8822 -1.3014
   66MOL0     H 8896   2.848   0.291   1.630 -2.4237  1.2285 -1.3671
   66MOL0     H 8897   2.622   0.312   1.704 -0.5144  0.5781 -0.5220
   66MOL0     H 8898   2.432   0.288   1.832  0.2823  0.5076 -2.3057
   66MOL0     H 8899   2.463   0.449   1.781 -1.7310 -0.5662 -0.0513
   66MOL0     H 8900   2.295   0.541   1.937 -1.5005  0.7863 -1.5876
   66MOL0     H 8901   2.290   0.378   2.028 -0.0477 -1.1387 -0.7262
   66MOL0     H 8902   2.188   0.267   1.877 -1.6344 -0.0131 -0.4916
   66MOL0     H 8903   2.201   0.390   1.745 -1.4291 -1.9515 -1.0808
   66MOL0     H 8904   2.019   0.410   1.998 -0.3970  0.5641  0.0072
   66MOL0     H 8905   2.043   0.531   1.865 -1.5618 -0.5369 -0.4027
   66MOL0     H 8906   1.751   0.264   1.715 -0.2469  1.7184 -2.3357
   66MOL0     H 8907   2.761   0.439   2.080 -1.6672  1.4850 -0.3966
   66MOL0     H 8908   3.065   0.559   1.996 -2.1725  1.9322  2.2253
   66MOL0     H 8909   2.999   0.474   2.139 -0.4119  2.1631 -1.4639
   66MOL0     H 8910   3.117   0.400   2.039  1.8130  2.1404  1.1103
   67MOL0     O 8911   5.659  10.556   1.448  0.0044 -0.8997  0.4620
   67MOL0     C 8912   5.630  10.546   1.568  0.3301  0.0143  0.8241
   67MOL0     O 8913   5.718  10.541   1.668 -0.5821 -0.1133 -0.0852
   67MOL0     C 8914   5.850  10.584   1.652  0.1852 -0.9139  0.3417
   67MOL0     C 8915   5.952  10.496   1.642 -0.1754 -0.4652  0.2058
   67MOL0     C 8916   6.083  10.525   1.621  0.0445 -0.2045 -0.6938
   67MOL0     C 8917   6.114  10.667   1.615 -0.0425  0.7528 -0.0420
   67MOL0     O 8918   6.242  10.694   1.587  0.0639  0.0017  0.1057
   67MOL0     C 8919   6.270  10.801   1.504 -0.3018  0.3388  0.3855
   67MOL0     C 8920   6.406  10.854   1.558 -0.7248  0.1225 -1.2025
   67MOL0     C 8921   6.527  10.750   1.533  0.4312  0.3025  1.1279
   67MOL0     C 8922   6.666  10.795   1.583 -0.0064  0.0824  0.2743
   67MOL0     C 8923   6.743  10.855   1.465  0.3585 -0.3246 -0.0723
   67MOL0     C 8924   6.897  10.859   1.492 -0.4100  0.6235  1.0428
   67MOL0     C 8925   6.921  10.931   1.622  0.8375 -0.3408  0.3068
   67MOL0     C 8926   7.067  10.933   1.675 -0.1122  0.2901  0.2796
   67MOL0     N 8927   7.159  10.995   1.575 -0.0970  0.0215  0.1673
   67MOL0     C 8928   7.212  10.953   1.453  0.9412  0.4562  0.4238
   67MOL0     C 8929   7.295  11.048   1.413 -0.3071 -0.3621  0.2650
   67MOL0     C 8930   7.386  11.040   1.294 -0.0286 -0.6570 -0.5225
   67MOL0     C 8931   7.465  10.914   1.297  0.1997 -0.2851  0.7588
   67MOL0     C 8932   7.566  10.889   1.184  0.1316 -0.3622 -0.2315
   67MOL0     C 8933   7.686  10.980   1.191  0.2360 -0.3743 -0.1010
   67MOL0     O 8934   7.754  10.963   1.064  0.6134 -0.4055  0.3412
   67MOL0     C 8935   7.881  11.022   1.061 -1.3176 -0.8229  1.2402
   67MOL0     C 8936   7.943  11.105   1.153  0.5492 -0.1453  0.0099
   67MOL0     C 8937   8.079  11.139   1.143 -0.9402  0.7925 -0.0980
   67MOL0     C 8938   8.166  11.088   1.040  1.1856  0.7125 -0.6431
   67MOL0     C 8939   8.311  11.114   1.030 -0.5716 -0.0501 -0.3794
   67MOL0     O 8940   8.386  11.050   0.936  0.1454  0.0776 -0.7425
   67MOL0     C 8941   8.522  11.035   0.947 -0.3933  0.4602  0.5619
   67MOL0     C 8942   8.602  11.022   0.831  0.9210 -0.1025 -0.1688
   67MOL0     C 8943   8.737  11.007   0.839 -0.6288 -0.0721  0.5220
   67MOL0     C 8944   8.813  11.001   0.956  0.9642 -0.4717 -0.6319
   67MOL0     O 8945   8.953  10.999   0.954 -0.2790  0.7744  0.4749
   67MOL0     C 8946   9.021  11.083   1.043  0.3007  0.5997 -0.3132
   67MOL0     C 8947   9.166  11.083   1.016  0.2461  0.1708 -0.6889
   67MOL0     C 8948   9.239  11.173   1.117 -0.1319  0.4272  0.0151
   67MOL0     C 8949   9.307  11.292   1.043 -0.2210  0.1302  0.1993
   67MOL0     C 8950   9.381  11.379   1.132 -0.9623  0.1221 -0.4506
   67MOL0     C 8951   9.503  11.308   1.189 -0.5262  0.0744  0.0813
   67MOL0     C 8952   9.622  11.395   1.235 -0.0803 -0.5803  0.2560
   67MOL0     C 8953   9.711  11.473   1.131  0.0581 -0.3397  0.2709
   67MOL0    Cl 8954   9.854  11.547   1.211 -0.0379 -0.6695 -0.0870
   67MOL0     C 8955   8.729  11.002   1.075  0.1934  0.2990 -0.0208
   67MOL0     C 8956   8.585  11.012   1.072 -0.5569 -0.2057 -0.2107
   67MOL0     O 8957   8.353  11.201   1.105  0.0760  0.5165  0.4345
   67MOL0     C 8958   8.100  11.008   0.940  0.3727  0.0544 -0.4429
   67MOL0     C 8959   7.959  10.978   0.948  0.3631 -0.3290 -0.3020
   67MOL0     N 8960   7.290  11.155   1.497  0.6317  0.3057 -0.3733
   67MOL0     N 8961   7.217  11.115   1.600 -0.6826  0.1634  0.2641
   67MOL0     C 8962   6.010  10.759   1.618 -0.8322  0.9226 -0.3401
   67MOL0     C 8963   5.878  10.720   1.633  0.2623  0.1333  0.5316
   67MOL0     C 8964   5.496  10.514   1.620  0.6061 -0.0076  0.3031
   67MOL0     C 8965   5.490  10.455   1.738  0.1071 -0.0701 -0.4175
   67MOL0     C 8966   5.366  10.416   1.789 -0.0057  0.1888 -0.0667
   67MOL0     C 8967   5.245  10.441   1.716 -0.4780  0.3142  0.2070
   67MOL0     O 8968   5.122  10.401   1.761  0.0245 -0.2676 -0.2618
   67MOL0     C 8969   5.101  10.360   1.894  0.1215 -0.3427  0.0620
   67MOL0     C 8970   4.960  10.317   1.924  0.2883  0.1969  0.9886
   67MOL0     C 8971   4.927  10.178   1.858  0.1041 -0.2030  0.6109
   67MOL0     C 8972   4.815  10.108   1.928  0.5241  0.1094 -0.1322
   67MOL0     C 8973   4.693  10.186   1.919 -0.1458 -0.0986 -0.3023
   67MOL0     C 8974   4.586  10.242   1.912 -0.3159 -0.1802  0.0212
   67MOL0     C 8975   5.255  10.500   1.588  0.9515  0.5397  0.2661
   67MOL0     C 8976   5.380  10.539   1.537  0.4152 -0.1271 -0.2547
   67MOL0     C 8977   5.377  10.604   1.406 -0.1825 -0.5153  0.3267
   67MOL0     H 8978   5.937  10.389   1.642  0.8918 -0.6379  1.8074
   67MOL0     H 8979   6.143  10.437   1.598 -1.2369 -0.9968 -1.1485
   67MOL0     H 8980   6.269  10.753   1.405 -1.1982 -0.0538  0.5775
   67MOL0     H 8981   6.217  10.897   1.500  0.6710  1.0383  2.7000
   67MOL0     H 8982   6.415  10.889   1.661  1.9646 -2.5396 -0.3734
   67MOL0     H 8983   6.433  10.934   1.489 -1.4231  1.0155 -0.4521
   67MOL0     H 8984   6.531  10.740   1.424 -0.9543  1.9278  0.8878
   67MOL0     H 8985   6.517  10.656   1.587 -1.3663 -0.1315  0.1421
   67MOL0     H 8986   6.650  10.869   1.663 -0.3585  1.7572 -1.2865
   67MOL0     H 8987   6.730  10.715   1.622  0.2190  0.2651  0.2839
   67MOL0     H 8988   6.719  10.799   1.374 -1.2308  2.1204 -1.2730
   67MOL0     H 8989   6.714  10.959   1.449 -0.3946  0.2258  3.9083
   67MOL0     H 8990   6.929  10.755   1.507 -2.0865 -0.4474 -1.9316
   67MOL0     H 8991   6.955  10.906   1.412  0.1861 -2.0382 -0.2055
   67MOL0     H 8992   6.873  10.886   1.710 -0.4648  1.1901  0.4206
   67MOL0     H 8993   6.889  11.035   1.615  0.4438 -0.2861  2.3550
   67MOL0     H 8994   7.075  10.997   1.763  0.4873  1.1635 -0.3886
   67MOL0     H 8995   7.095  10.828   1.689 -0.0677 -0.0861 -2.1878
   67MOL0     H 8996   7.211  10.855   1.404 -3.9707  1.2368 -1.6666
   67MOL0     H 8997   7.334  11.060   1.200  0.9742  2.9519 -0.4527
   67MOL0     H 8998   7.460  11.120   1.298  0.2325 -0.8402 -1.5487
   67MOL0     H 8999   7.512  10.894   1.393  2.0906  0.1071 -0.0464
   67MOL0     H 9000   7.391  10.838   1.271 -0.5445  0.6175  0.1505
   67MOL0     H 9001   7.506  10.898   1.093  1.2923  0.0407 -0.9838
   67MOL0     H 9002   7.603  10.786   1.189 -0.8291 -0.7173 -0.3768
   67MOL0     H 9003   7.757  10.951   1.269 -1.3283 -0.7973  1.2044
   67MOL0     H 9004   7.643  11.079   1.208 -1.8653 -0.8246 -2.3100
   67MOL0     H 9005   7.891  11.157   1.233  1.6816 -1.5413  1.7263
   67MOL0     H 9006   8.131  11.205   1.211  1.1189  1.2148 -1.9657
   67MOL0     H 9007   8.567  11.030   0.729  1.1182 -1.3515 -0.3563
   67MOL0     H 9008   8.789  10.996   0.744  1.2723  0.3429  1.4621
   67MOL0     H 9009   8.989  11.188   1.048  1.9413  1.0900  0.9381
   67MOL0     H 9010   9.001  11.046   1.144  0.7605  0.7497 -0.1626
   67MOL0     H 9011   9.213  10.986   1.037 -1.1395 -0.1866  0.9998
   67MOL0     H 9012   9.185  11.114   0.912 -1.4030  4.3683  0.0776
   67MOL0     H 9013   9.170  11.215   1.191 -1.4305  1.6191 -1.7929
   67MOL0     H 9014   9.318  11.119   1.171  2.9386  1.0059 -3.4655
   67MOL0     H 9015   9.240  11.367   1.001 -0.6142  1.2950  2.7143
   67MOL0     H 9016   9.375  11.245   0.971  2.0186 -0.5408  2.5935
   67MOL0     H 9017   9.317  11.421   1.211  0.3288 -1.2560  1.4369
   67MOL0     H 9018   9.421  11.462   1.073  0.4575 -0.6823 -0.6599
   67MOL0     H 9019   9.462  11.265   1.281 -2.7368  0.1025 -0.8470
   67MOL0     H 9020   9.540  11.232   1.121 -0.6223 -0.1693  0.2978
   67MOL0     H 9021   9.685  11.329   1.295 -1.0842 -2.2665 -0.4846
   67MOL0     H 9022   9.576  11.474   1.295 -3.8958 -2.9643  0.7959
   67MOL0     H 9023   9.741  11.402   1.054 -0.4876 -1.4271  1.0267
   67MOL0     H 9024   9.666  11.565   1.091 -0.1763 -0.5040  0.1569
   67MOL0     H 9025   8.788  11.006   1.167  1.9562 -0.0418 -1.0913
   67MOL0     H 9026   8.526  11.005   1.163  0.5148 -2.8279  0.3999
   67MOL0     H 9027   8.148  10.956   0.858  1.4604 -2.3794  1.5794
   67MOL0     H 9028   7.918  10.914   0.870  2.4006 -0.0165 -1.7112
   67MOL0     H 9029   6.030  10.865   1.612  0.1292  0.9198  1.9112
   67MOL0     H 9030   5.793  10.787   1.639 -0.8853 -1.0696 -1.2867
   67MOL0     H 9031   5.568  10.413   1.800 -1.0160 -0.2051  0.9460
   67MOL0     H 9032   5.371  10.373   1.888  2.2556  2.1487  0.7964
   67MOL0     H 9033   5.128  10.440   1.964 -1.0419  0.1571 -0.0502
   67MOL0     H 9034   5.169  10.277   1.915 -1.1803 -1.4335  0.0444
   67MOL0     H 9035   4.895  10.384   1.868 -1.1185 -1.3522  0.6746
   67MOL0     H 9036   4.939  10.320   2.031  1.4148  2.7553  1.2054
   67MOL0     H 9037   5.013  10.110   1.864 -0.9193 -1.6596 -0.4010
   67MOL0     H 9038   4.915  10.199   1.751  0.2479  1.3050  0.8702
   67MOL0     H 9039   4.791  10.013   1.880  0.2185  1.1688 -2.1468
   67MOL0     H 9040   4.844  10.080   2.030 -2.2396 -3.0023 -0.0149
   67MOL0     H 9041   4.483  10.265   1.895 -1.6862 -4.9805  0.2751
   67MOL0     H 9042   5.160  10.516   1.539 -1.1154 -1.6638  3.1250
   67MOL0     H 9043   5.386  10.533   1.323 -1.4658  0.3898 -0.6369
   67MOL0     H 9044   5.281  10.653   1.386 -0.1230  0.3537  2.0261
   67MOL0     H 9045   5.452  10.680   1.388 -0.8404 -0.0454 -0.5197
   68MOL0     O 9046  11.020   2.824   4.490  0.0599 -0.0624 -0.2808
   68MOL0     C 9047  10.951   2.754   4.557 -0.7055  0.6003  0.1156
   68MOL0     O 9048  10.991   2.651   4.636  0.8837  0.3162  0.9171
   68MOL0     C 9049  11.104   2.585   4.592  0.2043 -0.4187 -0.6324
   68MOL0     C 9050  11.102   2.500   4.486 -0.3370 -0.6621  0.1962
   68MOL0     C 9051  11.217   2.428   4.448 -0.0210  0.9473  0.3699
   68MOL0     C 9052  11.335   2.456   4.501  0.6033  0.2870 -0.3336
   68MOL0     O 9053  11.442   2.387   4.451 -0.4142 -0.0184 -0.1067
   68MOL0     C 9054  11.565   2.391   4.519  0.5254 -0.3179  0.8878
   68MOL0     C 9055  11.669   2.327   4.425  0.4477 -0.5192 -0.0135
   68MOL0     C 9056  11.811   2.305   4.480  0.0162  0.5812  0.3097
   68MOL0     C 9057  11.913   2.293   4.358  0.1900 -0.0159 -0.3755
   68MOL0     C 9058  12.053   2.268   4.403  0.4584 -0.2380 -0.1682
   68MOL0     C 9059  12.131   2.225   4.280  0.4308 -0.1798  0.2907
   68MOL0     C 9060  12.282   2.228   4.307  0.1499 -1.1669 -0.3294
   68MOL0     C 9061  12.356   2.154   4.199  0.1725  0.1346  0.6203
   68MOL0     N 9062  12.505   2.159   4.223  0.0993  0.5234 -0.1297
   68MOL0     C 9063  12.583   2.164   4.338 -0.2152 -0.4366 -0.3346
   68MOL0     C 9064  12.713   2.167   4.307  0.5256 -0.0798 -0.2646
   68MOL0     C 9065  12.833   2.192   4.406  1.1903 -0.3718  1.3149
   68MOL0     C 9066  12.886   2.064   4.470 -0.5461  0.3479  0.2109
   68MOL0     C 9067  13.030   2.082   4.528 -1.0526  0.7698  0.3081
   68MOL0     C 9068  13.094   1.951   4.575 -0.8670  0.1952 -0.1430
   68MOL0     O 9069  13.099   1.848   4.473 -0.0937  0.1164 -0.6016
   68MOL0     C 9070  13.212   1.776   4.479  0.4884 -0.8430  0.6356
   68MOL0     C 9071  13.295   1.747   4.587 -0.4443 -0.2007  0.2451
   68MOL0     C 9072  13.407   1.670   4.565 -1.2115  1.0000 -0.3796
   68MOL0     C 9073  13.442   1.619   4.437  0.7461  0.0149 -0.7003
   68MOL0     C 9074  13.563   1.529   4.427  0.5233  0.1053  0.1454
   68MOL0     O 9075  13.604   1.488   4.302  0.2024  0.4542 -0.0415
   68MOL0     C 9076  13.717   1.424   4.277 -0.8932  0.1867  0.1526
   68MOL0     C 9077  13.725   1.283   4.290 -0.3229  0.1593  0.3750
   68MOL0     C 9078  13.850   1.226   4.278  0.5835  0.3579  0.7126
   68MOL0     C 9079  13.968   1.304   4.276 -0.2796  0.7690 -0.5516
   68MOL0     O 9080  14.091   1.240   4.284  0.0762 -0.3743 -0.1574
   68MOL0     C 9081  14.098   1.107   4.241 -0.3244  0.3619 -0.2640
   68MOL0     C 9082  14.245   1.072   4.252  0.3071  0.0375  0.5016
   68MOL0     C 9083  14.345   1.159   4.178 -0.3722  0.7767  0.4949
   68MOL0     C 9084  14.479   1.087   4.186 -0.2579 -0.0292  0.8386
   68MOL0     C 9085  14.596   1.165   4.119 -0.5773 -0.3501  0.1026
   68MOL0     C 9086  14.731   1.103   4.134 -0.0018  0.5167  0.4068
   68MOL0     C 9087  14.844   1.210   4.120  0.6063 -0.3738  0.0275
   68MOL0     C 9088  14.969   1.161   4.044 -0.2932 -0.0940  0.1344
   68MOL0    Cl 9089  14.908   1.099   3.879 -0.1751  0.2704  0.4530
   68MOL0     C 9090  13.955   1.434   4.279 -0.5946 -0.5535 -0.1922
   68MOL0     C 9091  13.834   1.499   4.273 -0.5458  0.1171  1.1345
   68MOL0     O 9092  13.630   1.506   4.524  0.0670  0.0637 -0.1617
   68MOL0     C 9093  13.357   1.652   4.330 -0.8546 -0.0210  1.2656
   68MOL0     C 9094  13.244   1.733   4.349  0.4506 -0.4557  0.8023
   68MOL0     N 9095  12.720   2.154   4.174 -1.2341 -0.0548 -0.0883
   68MOL0     N 9096  12.604   2.147   4.125 -0.2112 -0.2819  0.4514
   68MOL0     C 9097  11.342   2.545   4.609 -0.5826 -0.1637 -0.6729
   68MOL0     C 9098  11.230   2.608   4.659 -0.4058 -0.2204 -0.6049
   68MOL0     C 9099  10.805   2.775   4.558  0.5311 -0.1084  0.1551
   68MOL0     C 9100  10.746   2.790   4.433 -0.0444 -0.2812  0.1772
   68MOL0     C 9101  10.607   2.793   4.419 -0.0616  0.9034  0.1241
   68MOL0     C 9102  10.525   2.801   4.531  0.6541  0.3932 -0.6184
   68MOL0     O 9103  10.386   2.809   4.530 -0.9911 -0.5076 -0.0687
   68MOL0     C 9104  10.323   2.803   4.401 -0.1852 -0.9557  0.5622
   68MOL0     C 9105  10.186   2.761   4.435 -0.6537 -0.2303  0.1803
   68MOL0     C 9106  10.102   2.736   4.306 -0.2468  0.3830  0.1444
   68MOL0     C 9107   9.966   2.664   4.352  0.2907 -0.3764  0.7685
   68MOL0     C 9108   9.857   2.702   4.260 -0.0576  0.3251 -0.1286
   68MOL0     C 9109   9.773   2.722   4.176 -0.6075 -0.7240  0.1550
   68MOL0     C 9110  10.587   2.779   4.655  0.5633 -0.3659  0.0020
   68MOL0     C 9111  10.724   2.773   4.674  0.5800 -0.0394  0.3525
   68MOL0     C 9112  10.779   2.783   4.810  0.0606 -0.1617 -0.9234
   68MOL0     H 9113  11.007   2.502   4.434 -0.7674 -0.1436  0.9808
   68MOL0     H 9114  11.207   2.344   4.381  0.5400  2.1957 -1.3714
   68MOL0     H 9115  11.594   2.495   4.534 -0.8043 -0.1338  2.5008
   68MOL0     H 9116  11.567   2.344   4.618  3.7939 -1.7963  0.2434
   68MOL0     H 9117  11.675   2.401   4.345  1.0386  2.7172  2.8227
   68MOL0     H 9118  11.636   2.234   4.378  1.0026 -0.8219  0.1859
   68MOL0     H 9119  11.812   2.206   4.527  1.0610  0.9891  1.1787
   68MOL0     H 9120  11.845   2.385   4.546  2.0507 -0.4685  0.5911
   68MOL0     H 9121  11.878   2.211   4.295 -3.0759  1.2481 -0.4161
   68MOL0     H 9122  11.903   2.391   4.310  3.2856 -0.3555 -1.9327
   68MOL0     H 9123  12.090   2.361   4.448 -2.3808  0.5050  0.8855
   68MOL0     H 9124  12.064   2.189   4.477 -1.4527  0.7712  1.3134
   68MOL0     H 9125  12.098   2.121   4.272  0.1120 -0.0630  0.1065
   68MOL0     H 9126  12.106   2.273   4.186  0.1658 -1.7362 -0.4680
   68MOL0     H 9127  12.311   2.181   4.402  0.0175 -0.1775  0.2066
   68MOL0     H 9128  12.317   2.331   4.313  1.0517 -1.2858 -2.4111
   68MOL0     H 9129  12.317   2.053   4.185  0.3527 -0.0201  1.2021
   68MOL0     H 9130  12.341   2.209   4.106  2.6501 -0.3561 -0.1569
   68MOL0     H 9131  12.531   2.172   4.433 -1.0815 -0.5430 -0.7852
   68MOL0     H 9132  12.915   2.241   4.352  1.6400  1.1172  3.2415
   68MOL0     H 9133  12.791   2.253   4.487 -0.9070 -0.3881  0.3011
   68MOL0     H 9134  12.817   2.018   4.542 -0.7139 -0.1125 -0.2360
   68MOL0     H 9135  12.906   1.986   4.396  1.6170 -0.6242  1.7475
   68MOL0     H 9136  13.017   2.141   4.619 -1.4734 -1.8969  2.1116
   68MOL0     H 9137  13.090   2.141   4.459 -1.8907  2.4965  0.9966
   68MOL0     H 9138  13.038   1.896   4.652 -0.9866  0.9751  0.3445
   68MOL0     H 9139  13.191   1.982   4.614 -1.0161  2.8944 -1.6671
   68MOL0     H 9140  13.276   1.788   4.686 -1.3808 -0.4991  0.2049
   68MOL0     H 9141  13.461   1.632   4.651 -3.3587 -1.6634 -0.0679
   68MOL0     H 9142  13.631   1.231   4.308 -0.1175 -0.1221  0.6480
   68MOL0     H 9143  13.842   1.118   4.288 -2.2752  0.4185 -0.1656
   68MOL0     H 9144  14.042   1.039   4.305  0.3363 -0.2467 -0.3133
   68MOL0     H 9145  14.054   1.097   4.142  0.7173  1.9956 -0.9331
   68MOL0     H 9146  14.267   1.066   4.359  0.7961 -1.5129  0.3341
   68MOL0     H 9147  14.251   0.968   4.218  0.2407 -0.8473  2.9891
   68MOL0     H 9148  14.332   1.153   4.069  2.0245 -0.1326  0.1981
   68MOL0     H 9149  14.356   1.265   4.203  1.2085  0.6879  0.2425
   68MOL0     H 9150  14.471   0.994   4.129 -1.0619  2.2843 -3.1694
   68MOL0     H 9151  14.499   1.064   4.291 -1.9502  0.8205  1.3835
   68MOL0     H 9152  14.586   1.269   4.150 -1.5028 -0.0818 -1.0347
   68MOL0     H 9153  14.568   1.169   4.014 -0.8540  1.0662  0.2173
   68MOL0     H 9154  14.736   1.040   4.224  0.1194 -0.5876 -0.3579
   68MOL0     H 9155  14.733   1.027   4.056 -1.1110  0.4422  0.4353
   68MOL0     H 9156  14.873   1.245   4.220  2.6613 -0.2651 -0.5538
   68MOL0     H 9157  14.822   1.300   4.062 -1.9880 -0.0990  1.2988
   68MOL0     H 9158  15.034   1.249   4.038 -0.8498  0.3938  0.9176
   68MOL0     H 9159  15.033   1.090   4.097  1.0789  1.8215  1.1459
   68MOL0     H 9160  14.047   1.490   4.273  1.5064 -3.7664 -0.4543
   68MOL0     H 9161  13.839   1.605   4.295  1.2995  0.5298 -1.0046
   68MOL0     H 9162  13.380   1.617   4.230 -4.0462  0.1062  0.3927
   68MOL0     H 9163  13.170   1.744   4.270 -1.9055 -2.5623  2.5270
   68MOL0     H 9164  11.435   2.555   4.665 -1.6646  3.0107  0.7885
   68MOL0     H 9165  11.243   2.667   4.749  2.7052 -0.7586 -0.5895
   68MOL0     H 9166  10.802   2.801   4.341  0.0019 -0.1824  0.2179
   68MOL0     H 9167  10.569   2.808   4.318  1.3506  2.1399 -0.2539
   68MOL0     H 9168  10.370   2.728   4.336 -0.4830 -2.6156  2.1722
   68MOL0     H 9169  10.320   2.902   4.355 -1.5783 -0.8742  0.7864
   68MOL0     H 9170  10.135   2.836   4.495 -2.2315  0.3608 -1.7864
   68MOL0     H 9171  10.188   2.666   4.489  0.9628  0.6134  1.7127
   68MOL0     H 9172  10.154   2.675   4.232  1.0676  1.8171 -0.1554
   68MOL0     H 9173  10.074   2.831   4.259  2.9673  2.3847  1.9438
   68MOL0     H 9174   9.977   2.555   4.349  0.4816 -0.3343 -0.7136
   68MOL0     H 9175   9.932   2.701   4.449 -1.3764  2.5740 -0.7837
   68MOL0     H 9176   9.701   2.747   4.101  1.0683  2.4726 -0.5602
   68MOL0     H 9177  10.519   2.772   4.740 -1.3526  2.2216 -1.1561
   68MOL0     H 9178  10.886   2.769   4.825 -0.4680 -1.6593  2.2337
   68MOL0     H 9179  10.750   2.871   4.867  2.5622 -1.6727  3.1180
   68MOL0     H 9180  10.738   2.704   4.873  1.7336 -0.6279 -0.3738
   69MOL0     O 9181   1.561  10.887   4.548 -0.4603 -0.6591 -0.6323
   69MOL0     C 9182   1.466  10.875   4.467 -0.7568  0.5943  0.1552
   69MOL0     O 9183   1.434  10.753   4.410 -0.2267 -0.5662 -0.4756
   69MOL0     C 9184   1.537  10.667   4.391 -0.5791  0.3400  0.4208
   69MOL0     C 9185   1.632  10.696   4.294 -0.2533 -0.5221 -0.0336
   69MOL0     C 9186   1.737  10.609   4.261  0.1333  0.6315  0.3587
   69MOL0     C 9187   1.737  10.477   4.314  0.5494 -0.2224  0.8869
   69MOL0     O 9188   1.831  10.383   4.263 -0.4750  0.7140 -0.0710
   69MOL0     C 9189   1.950  10.422   4.192  0.3178  0.3583  0.3042
   69MOL0     C 9190   2.055  10.304   4.191 -0.3939  0.1502 -0.7824
   69MOL0     C 9191   2.162  10.321   4.089  0.1955  0.3103  0.5515
   69MOL0     C 9192   2.269  10.215   4.113  0.6792 -0.3744  0.5424
   69MOL0     C 9193   2.368  10.227   3.996  0.2333  0.5406 -0.2292
   69MOL0     C 9194   2.473  10.123   3.997  0.2421 -0.2353  0.6429
   69MOL0     C 9195   2.581  10.137   4.111  0.4922 -0.3225 -0.1651
   69MOL0     C 9196   2.674  10.020   4.129 -0.9363 -0.1251  0.6400
   69MOL0     N 9197   2.782  10.042   4.229 -0.3487  0.2278 -0.0133
   69MOL0     C 9198   2.758  10.093   4.353  0.4192  0.0753  0.0637
   69MOL0     C 9199   2.882  10.114   4.394  0.2943  0.5974 -0.1107
   69MOL0     C 9200   2.912  10.169   4.529  0.1755  0.3064  0.5869
   69MOL0     C 9201   3.053  10.219   4.528 -0.5433 -0.1259 -0.3234
   69MOL0     C 9202   3.070  10.340   4.626 -0.1443  0.5504  0.2467
   69MOL0     C 9203   3.210  10.399   4.596 -0.0298 -0.2090  0.3489
   69MOL0     O 9204   3.309  10.311   4.649  0.0403  0.4806  0.4528
   69MOL0     C 9205   3.441  10.335   4.623 -0.1585 -0.5881  0.7502
   69MOL0     C 9206   3.536  10.238   4.646  0.1319 -0.0022  0.5359
   69MOL0     C 9207   3.668  10.255   4.626  0.5513  0.5565  0.2927
   69MOL0     C 9208   3.713  10.370   4.566 -0.2351 -0.3687 -0.8057
   69MOL0     C 9209   3.853  10.379   4.536  0.6252  0.0605  0.4638
   69MOL0     O 9210   3.893  10.462   4.435  0.8010  0.3183  0.6096
   69MOL0     C 9211   4.026  10.470   4.402  0.0188 -0.0029 -0.2119
   69MOL0     C 9212   4.081  10.351   4.339  0.5705 -0.7235 -0.6781
   69MOL0     C 9213   4.214  10.368   4.297 -0.2288 -0.2670  0.7190
   69MOL0     C 9214   4.295  10.477   4.328  0.7724 -0.3741  0.2786
   69MOL0     O 9215   4.421  10.477   4.279 -0.2697  0.5840 -0.2890
   69MOL0     C 9216   4.441  10.571   4.169  1.1677 -0.9932 -0.8471
   69MOL0     C 9217   4.562  10.534   4.085 -0.6476  0.1302  0.2636
   69MOL0     C 9218   4.613  10.653   3.998 -0.3385 -0.4423  0.8991
   69MOL0     C 9219   4.704  10.605   3.876  0.1801 -0.8113  0.0458
   69MOL0     C 9220   4.668  10.664   3.746 -0.2597  0.3625  0.4270
   69MOL0     C 9221   4.693  10.813   3.743  0.1915 -0.0036 -0.4377
   69MOL0     C 9222   4.675  10.860   3.597  0.0627 -0.8542 -0.7400
   69MOL0     C 9223   4.667  11.013   3.601  0.3664  0.5365  0.6868
   69MOL0    Cl 9224   4.799  11.099   3.674  0.2134  0.2118  0.1272
   69MOL0     C 9225   4.249  10.578   4.411  0.0823 -0.0851  0.1264
   69MOL0     C 9226   4.108  10.572   4.448 -0.3641  0.1106  0.7244
   69MOL0     O 9227   3.934  10.313   4.600 -0.0967 -0.8803  0.1354
   69MOL0     C 9228   3.626  10.472   4.538  0.3620 -0.7408  0.2645
   69MOL0     C 9229   3.489  10.457   4.567 -0.0174 -0.2177 -0.7008
   69MOL0     N 9230   2.977  10.069   4.306  0.2575 -0.5242 -0.4546
   69MOL0     N 9231   2.915  10.028   4.206  1.1995 -1.2119 -0.3947
   69MOL0     C 9232   1.639  10.449   4.415 -0.1418 -0.1445 -0.3029
   69MOL0     C 9233   1.542  10.542   4.454  0.3149 -0.0235  0.2390
   69MOL0     C 9234   1.367  10.977   4.457 -0.0235  0.6499  0.9848
   69MOL0     C 9235   1.253  10.960   4.374  0.1782 -0.6961  0.3260
   69MOL0     C 9236   1.151  11.050   4.370  0.2496 -0.3253 -0.7768
   69MOL0     C 9237   1.144  11.158   4.456  0.1285  1.0282  0.4464
   69MOL0     O 9238   1.049  11.264   4.446 -0.1295  0.5641 -0.0546
   69MOL0     C 9239   0.918  11.216   4.402 -0.6921  0.0954 -0.0830
   69MOL0     C 9240   0.806  11.325   4.421  0.2658 -0.4050  0.2159
   69MOL0     C 9241   0.682  11.271   4.348 -0.8716 -0.4297 -0.2972
   69MOL0     C 9242   0.575  11.382   4.356 -0.4133  0.0548  0.8358
   69MOL0     C 9243   0.442  11.336   4.305 -0.0121 -0.5669  0.4564
   69MOL0     C 9244   0.328  11.306   4.270 -0.7894 -0.1273  0.2018
   69MOL0     C 9245   1.255  11.189   4.538  0.4937 -1.0219  0.2938
   69MOL0     C 9246   1.367  11.098   4.538  0.0119  0.3101  0.0523
   69MOL0     C 9247   1.488  11.136   4.622  0.7230  0.8156  0.3921
   69MOL0     H 9248   1.637  10.784   4.230  3.4348 -2.9543 -3.5577
   69MOL0     H 9249   1.805  10.640   4.182 -0.1960  0.5686  0.0508
   69MOL0     H 9250   1.926  10.438   4.087  1.8589 -1.6536 -0.4197
   69MOL0     H 9251   1.993  10.511   4.238  1.8345  0.1861 -0.7251
   69MOL0     H 9252   2.004  10.210   4.170 -0.1030 -0.1359 -0.2292
   69MOL0     H 9253   2.097  10.306   4.292 -2.6741  1.2753  0.2156
   69MOL0     H 9254   2.211  10.420   4.089 -1.1305  1.0014 -0.6202
   69MOL0     H 9255   2.125  10.298   3.989 -1.0285  0.9803  0.8310
   69MOL0     H 9256   2.328  10.233   4.204  3.3773 -0.2734 -1.1171
   69MOL0     H 9257   2.231  10.112   4.111  0.6202 -0.3407 -1.0233
   69MOL0     H 9258   2.319  10.214   3.899  2.1537  3.4115 -1.7141
   69MOL0     H 9259   2.420  10.323   3.991  0.0128  0.8422  2.1610
   69MOL0     H 9260   2.415  10.031   4.004  0.0380 -0.4318 -2.4028
   69MOL0     H 9261   2.530  10.107   3.905 -0.2503 -2.0865  0.6246
   69MOL0     H 9262   2.521  10.155   4.202  1.1944  1.6429 -0.0388
   69MOL0     H 9263   2.645  10.223   4.092  2.9552 -2.0619 -0.1381
   69MOL0     H 9264   2.619   9.929   4.155 -0.4028 -0.8511 -0.6766
   69MOL0     H 9265   2.724  10.015   4.032 -0.3440  1.3207  0.8321
   69MOL0     H 9266   2.663  10.107   4.403  0.1678 -4.7936  1.4837
   69MOL0     H 9267   2.848  10.257   4.542 -2.9372 -1.5571 -0.8938
   69MOL0     H 9268   2.899  10.106   4.617 -2.0205  1.7955  1.4293
   69MOL0     H 9269   3.114  10.134   4.560 -2.6215 -0.8827  1.9101
   69MOL0     H 9270   3.076  10.245   4.424  0.0787 -1.6968 -0.6074
   69MOL0     H 9271   3.050  10.303   4.727 -0.9587 -0.5983 -0.3075
   69MOL0     H 9272   2.998  10.420   4.607 -1.7288 -0.9747 -0.4814
   69MOL0     H 9273   3.227  10.494   4.649  0.0581 -0.0522  0.0410
   69MOL0     H 9274   3.227  10.423   4.491 -0.2421 -0.8845  0.1596
   69MOL0     H 9275   3.498  10.141   4.674 -2.6850  0.0414 -2.5649
   69MOL0     H 9276   3.740  10.176   4.646 -1.4834 -1.3313  0.5007
   69MOL0     H 9277   4.016  10.267   4.320  0.2547 -0.5642 -0.3024
   69MOL0     H 9278   4.261  10.285   4.246  0.0106  0.2424  0.0929
   69MOL0     H 9279   4.356  10.564   4.100 -0.2611  0.6903  0.6351
   69MOL0     H 9280   4.449  10.673   4.207 -0.5518 -2.3750  3.9488
   69MOL0     H 9281   4.646  10.509   4.151 -1.0177 -1.2899  0.2192
   69MOL0     H 9282   4.517  10.461   4.018  0.5843  0.8061 -1.3910
   69MOL0     H 9283   4.525  10.711   3.969 -1.2098 -1.9436  0.4372
   69MOL0     H 9284   4.682  10.707   4.064  3.0911 -2.5144 -0.6773
   69MOL0     H 9285   4.688  10.497   3.869 -0.6778 -0.7199  0.4990
   69MOL0     H 9286   4.811  10.623   3.893  0.1031 -1.5728  1.5237
   69MOL0     H 9287   4.565  10.648   3.714 -0.0719  0.5789 -0.3203
   69MOL0     H 9288   4.732  10.620   3.669 -0.4112  1.0755 -0.1244
   69MOL0     H 9289   4.628  10.869   3.811  0.8410  2.7073 -1.8974
   69MOL0     H 9290   4.794  10.825   3.783  0.1291 -2.8461  0.7990
   69MOL0     H 9291   4.596  10.803   3.548  0.6373 -1.9879 -0.3713
   69MOL0     H 9292   4.764  10.827   3.544  0.2586 -0.1187 -0.8799
   69MOL0     H 9293   4.648  11.053   3.501 -1.9878  0.3178  0.9816
   69MOL0     H 9294   4.576  11.028   3.660 -0.4892  1.4937 -0.7851
   69MOL0     H 9295   4.312  10.664   4.431 -3.2080  2.4295  0.4102
   69MOL0     H 9296   4.071  10.656   4.506 -0.1071  1.0680 -0.4678
   69MOL0     H 9297   3.660  10.568   4.500 -2.7290 -0.1102 -1.2623
   69MOL0     H 9298   3.432  10.542   4.531 -1.0660 -1.7254 -2.8657
   69MOL0     H 9299   1.636  10.349   4.459  2.3355  0.9602  2.7726
   69MOL0     H 9300   1.473  10.512   4.532  1.3325 -2.2051  0.3752
   69MOL0     H 9301   1.246  10.873   4.309  1.0712 -1.3185  1.0285
   69MOL0     H 9302   1.072  11.039   4.297 -0.6396 -1.1375  0.2766
   69MOL0     H 9303   0.887  11.131   4.464  0.8430 -0.9485 -0.6868
   69MOL0     H 9304   0.912  11.190   4.296  2.9662  0.9088 -0.6190
   69MOL0     H 9305   0.842  11.420   4.378  2.2076 -1.3856 -0.4460
   69MOL0     H 9306   0.779  11.345   4.525  1.0978  1.5275  0.1073
   69MOL0     H 9307   0.650  11.181   4.403  1.2701  0.5087  2.7070
   69MOL0     H 9308   0.708  11.243   4.245 -0.6157  0.3509 -0.4487
   69MOL0     H 9309   0.554  11.414   4.458  2.2017  0.3023  1.3535
   69MOL0     H 9310   0.614  11.467   4.299 -1.5979 -0.4862 -0.8961
   69MOL0     H 9311   0.226  11.283   4.247 -1.3784  2.7139 -0.4045
   69MOL0     H 9312   1.247  11.281   4.594 -0.0916 -0.0410 -1.3096
   69MOL0     H 9313   1.459  11.223   4.682 -2.7356  0.2632 -0.2397
   69MOL0     H 9314   1.507  11.060   4.699 -1.0938  0.6761  0.7628
   69MOL0     H 9315   1.582  11.153   4.570  0.4167 -0.6943 -0.7289
   70MOL0     O 9316  10.642   1.369   4.176  0.1668 -0.2265 -0.4986
   70MOL0     C 9317  10.592   1.268   4.133  0.9867 -0.2088 -0.2955
   70MOL0     O 9318  10.644   1.144   4.145  0.4922 -0.0337 -0.6196
   70MOL0     C 9319  10.777   1.129   4.167  0.4447  0.7318  0.5201
   70MOL0     C 9320  10.824   1.101   4.290  0.2591  0.0767 -0.5367
   70MOL0     C 9321  10.952   1.064   4.311 -0.6084  0.9113  0.9304
   70MOL0     C 9322  11.050   1.051   4.209  0.4204 -0.1016  1.1071
   70MOL0     O 9323  11.172   0.998   4.232 -1.1005  0.2056  0.1603
   70MOL0     C 9324  11.192   0.912   4.347  0.4733 -0.4260  0.6521
   70MOL0     C 9325  11.260   0.987   4.464  0.1920  0.4351 -0.4254
   70MOL0     C 9326  11.404   1.039   4.436  0.2261  0.3851  0.4016
   70MOL0     C 9327  11.468   1.118   4.545 -0.7712  0.3013  0.1809
   70MOL0     C 9328  11.621   1.124   4.519 -0.1831 -0.0339  0.1040
   70MOL0     C 9329  11.695   1.213   4.624 -0.4740  0.6799  0.0756
   70MOL0     C 9330  11.691   1.152   4.765  0.3118  0.1072 -0.5727
   70MOL0     C 9331  11.777   1.238   4.869 -0.0680  0.0203  0.4054
   70MOL0     N 9332  11.909   1.269   4.819  0.1414  0.1006  0.6574
   70MOL0     C 9333  12.022   1.190   4.815 -0.6112  0.5417 -0.4352
   70MOL0     C 9334  12.123   1.261   4.764  0.3481  0.2896  0.8501
   70MOL0     C 9335  12.268   1.230   4.743  0.4485  0.5845  0.0886
   70MOL0     C 9336  12.352   1.318   4.819  0.7788 -0.4057 -0.2491
   70MOL0     C 9337  12.499   1.298   4.794 -0.5190 -0.1134 -0.2365
   70MOL0     C 9338  12.594   1.390   4.874 -0.1117  0.4013  0.6834
   70MOL0     O 9339  12.718   1.331   4.837  0.2322 -0.3981 -0.5240
   70MOL0     C 9340  12.827   1.344   4.925  0.6781 -0.5550  1.0952
   70MOL0     C 9341  12.838   1.430   5.038  0.7493 -0.0046 -0.1872
   70MOL0     C 9342  12.955   1.445   5.113  0.5700  0.1625 -0.5205
   70MOL0     C 9343  13.065   1.365   5.083  0.3858  0.4039 -0.2332
   70MOL0     C 9344  13.181   1.361   5.176 -0.0806  0.2413  0.4985
   70MOL0     O 9345  13.165   1.398   5.306  0.0848 -0.1513 -0.3144
   70MOL0     C 9346  13.271   1.382   5.396  0.4002  0.1509  1.0096
   70MOL0     C 9347  13.347   1.265   5.410  0.8294  0.0512  0.7223
   70MOL0     C 9348  13.450   1.258   5.496  0.0372 -0.9076  0.3375
   70MOL0     C 9349  13.489   1.380   5.560  0.2936  0.2993  1.1823
   70MOL0     O 9350  13.608   1.390   5.627  0.3019 -0.0499  0.0679
   70MOL0     C 9351  13.710   1.286   5.629  0.1094  1.1119  0.1783
   70MOL0     C 9352  13.834   1.331   5.698  0.0492  0.0733 -1.1349
   70MOL0     C 9353  13.910   1.427   5.604 -0.6527  0.3193 -0.8628
   70MOL0     C 9354  14.051   1.475   5.657 -0.3678 -0.2261  0.7500
   70MOL0     C 9355  14.132   1.530   5.532 -0.0524  0.7192 -0.0955
   70MOL0     C 9356  14.238   1.626   5.589 -0.1933  0.2822 -0.3554
   70MOL0     C 9357  14.322   1.684   5.471 -0.1670 -0.2121 -0.1591
   70MOL0     C 9358  14.433   1.765   5.526 -1.0045 -0.4306 -0.5446
   70MOL0    Cl 9359  14.383   1.900   5.643  0.0287  0.1235 -0.3494
   70MOL0     C 9360  13.410   1.495   5.550 -0.1931  0.0910  1.6411
   70MOL0     C 9361  13.305   1.495   5.469 -0.0122  0.1638  0.8014
   70MOL0     O 9362  13.290   1.327   5.122  0.3338 -0.3381 -0.4045
   70MOL0     C 9363  13.061   1.289   4.969 -0.3768  0.3772 -0.7597
   70MOL0     C 9364  12.944   1.283   4.890 -0.5456 -0.0150  0.1980
   70MOL0     N 9365  12.062   1.382   4.735  0.8680  0.3187  0.8493
   70MOL0     N 9366  11.943   1.387   4.767 -0.2330  0.4377 -0.8499
   70MOL0     C 9367  10.999   1.071   4.077  0.4194  0.0929 -0.2347
   70MOL0     C 9368  10.861   1.111   4.062  0.5446 -0.5637 -0.0292
   70MOL0     C 9369  10.456   1.267   4.068  0.9727 -0.2460 -0.5672
   70MOL0     C 9370  10.411   1.161   3.995  0.1837  0.3795  0.8267
   70MOL0     C 9371  10.288   1.155   3.923  0.5585  0.0288 -0.0460
   70MOL0     C 9372  10.212   1.269   3.914  0.3428 -0.5246  0.0889
   70MOL0     O 9373  10.110   1.271   3.821 -0.6743  0.0596  0.2665
   70MOL0     C 9374  10.034   1.392   3.802  0.1152  0.1279 -0.5008
   70MOL0     C 9375   9.903   1.376   3.716 -0.0074  0.4068 -0.3088
   70MOL0     C 9376   9.817   1.501   3.701 -0.2118  0.3231 -0.3456
   70MOL0     C 9377   9.705   1.453   3.604  0.1053 -0.2553 -0.0512
   70MOL0     C 9378   9.593   1.533   3.626  0.6495 -0.9299 -0.9134
   70MOL0     C 9379   9.489   1.596   3.627  1.0701  0.2440  0.0374
   70MOL0     C 9380  10.242   1.375   3.997 -0.8051 -0.1677 -0.0079
   70MOL0     C 9381  10.361   1.376   4.078  0.7376  1.2206 -0.1767
   70MOL0     C 9382  10.386   1.495   4.173 -0.7350 -0.1836  0.1606
   70MOL0     H 9383  10.754   1.112   4.372  0.0294  3.4597 -1.0672
   70MOL0     H 9384  10.981   1.043   4.413  2.0919 -1.2622 -0.1795
   70MOL0     H 9385  11.107   0.856   4.387  0.7280 -0.4965  1.1064
   70MOL0     H 9386  11.265   0.838   4.314  0.5619 -0.7300  1.5038
   70MOL0     H 9387  11.265   0.911   4.543  0.9044  0.1150 -0.7660
   70MOL0     H 9388  11.191   1.071   4.476  0.7945  0.7705  0.7519
   70MOL0     H 9389  11.401   1.103   4.347 -0.5520  0.9346  0.8223
   70MOL0     H 9390  11.464   0.952   4.408  0.0856  0.5692 -0.5343
   70MOL0     H 9391  11.417   1.215   4.548  2.2345  2.0306 -0.8635
   70MOL0     H 9392  11.458   1.059   4.637 -0.3234  1.8202  1.2278
   70MOL0     H 9393  11.662   1.023   4.515  0.1018  0.1122 -1.5720
   70MOL0     H 9394  11.631   1.169   4.420  0.8980 -3.2142 -1.3429
   70MOL0     H 9395  11.802   1.208   4.601 -0.0681 -1.3660  2.0161
   70MOL0     H 9396  11.665   1.318   4.627 -0.5901  0.6585 -0.3572
   70MOL0     H 9397  11.722   1.047   4.758 -1.0996 -0.5440  1.7951
   70MOL0     H 9398  11.593   1.145   4.814  0.9617 -2.6652  0.5060
   70MOL0     H 9399  11.737   1.338   4.884  1.0544  1.1505 -3.1443
   70MOL0     H 9400  11.778   1.194   4.969  1.5985  1.5103  1.0936
   70MOL0     H 9401  12.035   1.097   4.871  2.8735 -0.1374 -2.0862
   70MOL0     H 9402  12.293   1.128   4.773  3.4069  1.4745  0.9858
   70MOL0     H 9403  12.294   1.226   4.636 -0.8398 -0.3020 -0.2241
   70MOL0     H 9404  12.321   1.417   4.784  2.1249 -0.6935 -2.4599
   70MOL0     H 9405  12.325   1.309   4.924 -1.3648  0.9116 -0.6101
   70MOL0     H 9406  12.509   1.312   4.686 -2.1157  0.0498 -0.3919
   70MOL0     H 9407  12.529   1.199   4.827 -1.6644 -0.5505 -0.4576
   70MOL0     H 9408  12.579   1.399   4.982 -0.7003  1.5987  0.5219
   70MOL0     H 9409  12.572   1.488   4.830  0.0486  0.4924  0.8055
   70MOL0     H 9410  12.751   1.489   5.068 -0.5100 -1.6537 -0.4834
   70MOL0     H 9411  12.953   1.493   5.211  1.1992  0.7132 -0.7711
   70MOL0     H 9412  13.312   1.175   5.361  2.7763  0.4310 -1.5525
   70MOL0     H 9413  13.501   1.165   5.518 -0.7487 -1.0822  1.5202
   70MOL0     H 9414  13.679   1.202   5.692  1.2842  2.2808  2.4139
   70MOL0     H 9415  13.726   1.247   5.528 -2.2585 -0.1199  0.1909
   70MOL0     H 9416  13.808   1.386   5.789  1.2548  3.2874 -2.5729
   70MOL0     H 9417  13.895   1.245   5.726  2.3699  2.4217  1.6129
   70MOL0     H 9418  13.916   1.375   5.509 -2.1107 -1.1490 -0.2115
   70MOL0     H 9419  13.842   1.511   5.587 -1.1789 -0.1865 -1.2888
   70MOL0     H 9420  14.112   1.398   5.705 -2.1439 -0.6827  2.3913
   70MOL0     H 9421  14.049   1.554   5.733 -0.7275  2.2124 -1.6638
   70MOL0     H 9422  14.063   1.587   5.468 -1.0820  0.1138  0.4608
   70MOL0     H 9423  14.187   1.448   5.485  1.2343  1.8103 -0.5604
   70MOL0     H 9424  14.191   1.701   5.653  0.2033 -0.6402  1.0669
   70MOL0     H 9425  14.309   1.571   5.651 -1.9302 -2.4990 -0.6898
   70MOL0     H 9426  14.265   1.744   5.399  1.6684 -1.6020 -2.9525
   70MOL0     H 9427  14.373   1.603   5.419 -1.0641 -0.8655 -0.0399
   70MOL0     H 9428  14.503   1.706   5.585 -1.0638 -0.1192 -0.1556
   70MOL0     H 9429  14.491   1.807   5.444 -1.7638  2.7119  0.3802
   70MOL0     H 9430  13.442   1.587   5.599 -0.6176  0.1621  1.7876
   70MOL0     H 9431  13.245   1.585   5.465 -0.4249 -0.1430  0.0074
   70MOL0     H 9432  13.149   1.231   4.940  1.4636  2.5654  0.1779
   70MOL0     H 9433  12.936   1.219   4.802 -2.0514  1.9631 -1.1811
   70MOL0     H 9434  11.063   1.044   3.994 -0.3808  1.1441 -1.2049
   70MOL0     H 9435  10.834   1.144   3.962  0.5218  0.9588  0.4540
   70MOL0     H 9436  10.472   1.072   3.991 -1.2594 -0.6762  1.6323
   70MOL0     H 9437  10.256   1.078   3.854 -2.2812  2.0152 -1.1386
   70MOL0     H 9438  10.102   1.460   3.748  3.7883 -0.1221  3.3029
   70MOL0     H 9439   9.998   1.439   3.894  0.3133 -0.5497 -0.0772
   70MOL0     H 9440   9.841   1.303   3.768  1.0445  0.6832  1.3853
   70MOL0     H 9441   9.920   1.345   3.612 -2.1715  1.1965 -0.9682
   70MOL0     H 9442   9.861   1.595   3.668 -0.5543 -0.4741 -3.2915
   70MOL0     H 9443   9.773   1.510   3.801 -1.7918 -0.3529 -0.9361
   70MOL0     H 9444   9.745   1.451   3.502  2.3499  0.5808  0.7430
   70MOL0     H 9445   9.681   1.352   3.637  2.7396  0.1169  3.7306
   70MOL0     H 9446   9.394   1.645   3.631  2.2811  3.0666 -2.1845
   70MOL0     H 9447  10.186   1.468   4.001 -2.1157 -0.9157 -0.4648
   70MOL0     H 9448  10.452   1.567   4.125 -0.2901  0.0328  1.0606
   70MOL0     H 9449  10.292   1.547   4.191 -0.6890 -0.6190  1.8246
   70MOL0     H 9450  10.436   1.457   4.263  1.9309  1.1777 -0.6508
   71MOL0     O 9451   4.363   8.802   4.256 -0.1376 -0.6254 -0.7369
   71MOL0     C 9452   4.296   8.779   4.160 -0.8885  0.7009  0.1489
   71MOL0     O 9453   4.333   8.707   4.049 -0.0697  0.5119  0.5708
   71MOL0     C 9454   4.467   8.681   4.005 -0.7223 -0.0256 -0.5238
   71MOL0     C 9455   4.572   8.770   4.043  0.3106 -0.3505 -0.1252
   71MOL0     C 9456   4.694   8.749   3.986 -0.3295 -0.7287  0.1812
   71MOL0     C 9457   4.719   8.643   3.901  1.0579 -0.5940 -0.1269
   71MOL0     O 9458   4.852   8.620   3.865  0.3521  0.0128  0.0295
   71MOL0     C 9459   4.870   8.608   3.717  0.5231  1.2414 -0.3765
   71MOL0     C 9460   5.007   8.600   3.665  0.3363  0.1458 -0.3974
   71MOL0     C 9461   5.088   8.481   3.722  0.4002 -0.0677  0.3088
   71MOL0     C 9462   5.229   8.467   3.655 -0.0754 -0.4719  0.1214
   71MOL0     C 9463   5.238   8.378   3.535  0.0889 -0.1125  0.9081
   71MOL0     C 9464   5.381   8.391   3.480 -0.1903  0.2217  0.6606
   71MOL0     C 9465   5.384   8.299   3.358 -0.7135  0.4629  0.5277
   71MOL0     C 9466   5.393   8.144   3.382 -0.1699  0.5252  0.6317
   71MOL0     N 9467   5.536   8.114   3.417 -0.3124  0.5428  0.6303
   71MOL0     C 9468   5.636   8.109   3.323  0.2678 -0.2582 -0.6614
   71MOL0     C 9469   5.749   8.093   3.393 -0.1482 -0.4552  0.2145
   71MOL0     C 9470   5.886   8.082   3.345 -0.6286  0.3245 -0.4672
   71MOL0     C 9471   5.996   8.139   3.429  0.4456  0.9632 -0.7172
   71MOL0     C 9472   6.122   8.168   3.347 -0.4201  0.5478  0.0600
   71MOL0     C 9473   6.239   8.187   3.438  0.4185 -0.1260  0.4423
   71MOL0     O 9474   6.237   8.322   3.479  0.0947  0.6141  0.0785
   71MOL0     C 9475   6.320   8.361   3.581  0.0544  0.0397  0.7469
   71MOL0     C 9476   6.405   8.280   3.651 -0.6935  0.1363 -0.3803
   71MOL0     C 9477   6.504   8.328   3.747  0.6968  0.0752 -0.3036
   71MOL0     C 9478   6.496   8.464   3.783 -0.6926  0.0903  0.7840
   71MOL0     C 9479   6.578   8.517   3.893  0.2357 -0.0594 -0.0380
   71MOL0     O 9480   6.587   8.649   3.906 -0.5817 -0.3620  0.7326
   71MOL0     C 9481   6.667   8.689   4.005 -0.2908 -0.0909  0.4596
   71MOL0     C 9482   6.627   8.776   4.108  0.6985 -0.1677 -0.3476
   71MOL0     C 9483   6.721   8.837   4.201  0.1764  0.6338  0.2379
   71MOL0     C 9484   6.859   8.795   4.182  0.9970 -0.5386 -0.0866
   71MOL0     O 9485   6.954   8.841   4.271  0.0621  0.1708 -0.0743
   71MOL0     C 9486   7.093   8.805   4.259  1.2799  0.0144 -0.0952
   71MOL0     C 9487   7.182   8.868   4.365 -0.1856  0.4716 -0.0340
   71MOL0     C 9488   7.182   9.019   4.373  0.3708  0.9092 -0.2828
   71MOL0     C 9489   7.282   9.062   4.478  0.1048  0.7637  0.4015
   71MOL0     C 9490   7.289   9.203   4.488 -0.4747 -0.1034 -0.0812
   71MOL0     C 9491   7.165   9.275   4.560  0.0273  0.2302  0.0178
   71MOL0     C 9492   7.176   9.425   4.534 -0.2778 -0.4570  0.9311
   71MOL0     C 9493   7.053   9.506   4.578 -0.3724  0.5490 -1.0084
   71MOL0    Cl 9494   6.894   9.430   4.532  0.1713 -0.0633  0.2207
   71MOL0     C 9495   6.889   8.710   4.083 -0.3817 -0.2780  0.1720
   71MOL0     C 9496   6.802   8.662   3.991  0.5835 -0.4358 -0.0493
   71MOL0     O 9497   6.628   8.428   3.972  0.3277 -0.8504  0.2776
   71MOL0     C 9498   6.399   8.545   3.716  0.2221 -0.0034  0.0700
   71MOL0     C 9499   6.309   8.495   3.618 -0.2569 -0.0031 -0.4601
   71MOL0     N 9500   5.712   8.094   3.524 -0.5533 -0.5364 -0.2326
   71MOL0     N 9501   5.588   8.106   3.545 -0.0298 -0.1025  0.7962
   71MOL0     C 9502   4.609   8.562   3.858 -0.8576 -0.3240 -0.0942
   71MOL0     C 9503   4.485   8.581   3.914  0.0215 -0.0402 -0.3863
   71MOL0     C 9504   4.156   8.824   4.158  0.8111 -0.0964 -0.0041
   71MOL0     C 9505   4.076   8.795   4.267  1.1543 -0.6458 -0.4204
   71MOL0     C 9506   3.943   8.845   4.287  0.2768 -0.2645  0.8349
   71MOL0     C 9507   3.884   8.908   4.183  0.2079  0.0453 -0.0957
   71MOL0     O 9508   3.752   8.951   4.200  0.5594  0.1335 -0.2207
   71MOL0     C 9509   3.652   8.849   4.227  0.1003 -0.8677  0.8704
   71MOL0     C 9510   3.517   8.894   4.168 -0.5675  0.0190 -0.4153
   71MOL0     C 9511   3.416   8.780   4.194  0.6081 -0.1852 -1.2514
   71MOL0     C 9512   3.309   8.786   4.077  0.3410  0.4001 -0.9235
   71MOL0     C 9513   3.241   8.919   4.092 -0.1874  0.0425  0.2543
   71MOL0     C 9514   3.183   9.024   4.100  0.5559 -0.4090  0.0608
   71MOL0     C 9515   3.959   8.938   4.073  0.9907  0.0728 -0.2719
   71MOL0     C 9516   4.087   8.890   4.051 -0.0323  0.0187  0.1839
   71MOL0     C 9517   4.159   8.915   3.922  0.3016  0.2513  0.9125
   71MOL0     H 9518   4.549   8.855   4.105 -0.7396 -0.4544 -0.3504
   71MOL0     H 9519   4.779   8.814   4.003 -1.3036  0.9899 -1.1652
   71MOL0     H 9520   4.815   8.521   3.679 -0.9967  2.0199 -0.0393
   71MOL0     H 9521   4.817   8.695   3.677  0.4340  0.4198 -2.0937
   71MOL0     H 9522   5.053   8.689   3.709 -0.2494 -1.5844  4.3189
   71MOL0     H 9523   5.003   8.604   3.556  0.4370 -1.5693 -0.4850
   71MOL0     H 9524   5.033   8.388   3.709  0.4294  0.2269 -2.7480
   71MOL0     H 9525   5.095   8.488   3.831 -1.8788 -1.2139  0.5762
   71MOL0     H 9526   5.262   8.566   3.624  0.5765 -0.8684 -0.4896
   71MOL0     H 9527   5.296   8.426   3.731 -0.7154 -0.4561  0.7009
   71MOL0     H 9528   5.222   8.274   3.563 -1.2836  0.0026  0.6094
   71MOL0     H 9529   5.159   8.411   3.467 -0.2885 -1.1301  0.8453
   71MOL0     H 9530   5.418   8.490   3.453  1.9325 -0.3720  1.1694
   71MOL0     H 9531   5.448   8.347   3.555 -0.9739 -1.5560  0.3831
   71MOL0     H 9532   5.474   8.331   3.305 -1.0120  1.3589  0.5608
   71MOL0     H 9533   5.299   8.324   3.294  0.4362  0.9910 -0.8317
   71MOL0     H 9534   5.321   8.110   3.456  0.0143 -0.3804  0.4161
   71MOL0     H 9535   5.367   8.087   3.292 -2.8341 -0.4511  1.9100
   71MOL0     H 9536   5.627   8.100   3.215  0.2552 -0.4944 -0.6430
   71MOL0     H 9537   5.899   7.977   3.317 -2.6515  0.1199 -0.7730
   71MOL0     H 9538   5.885   8.138   3.251  0.0365  3.3629  1.1940
   71MOL0     H 9539   5.963   8.242   3.450 -0.4976  0.6685 -0.7198
   71MOL0     H 9540   6.008   8.084   3.522 -1.4250  1.0274 -0.3946
   71MOL0     H 9541   6.097   8.263   3.299  0.1478  0.9842  0.6213
   71MOL0     H 9542   6.142   8.085   3.278 -0.9821  2.6948 -2.8769
   71MOL0     H 9543   6.331   8.163   3.384  0.2227  0.8393 -0.3528
   71MOL0     H 9544   6.227   8.126   3.528  0.9422  0.6542  1.0638
   71MOL0     H 9545   6.416   8.176   3.622  2.5744  0.3741 -0.3077
   71MOL0     H 9546   6.561   8.254   3.803 -1.0907 -0.6355  0.6689
   71MOL0     H 9547   6.520   8.797   4.110  0.6373 -0.3232 -1.5222
   71MOL0     H 9548   6.705   8.900   4.287 -1.1372 -1.0446  1.2837
   71MOL0     H 9549   7.101   8.698   4.280 -2.9804 -0.5416 -0.3106
   71MOL0     H 9550   7.134   8.831   4.161  5.0109 -1.6329  0.8792
   71MOL0     H 9551   7.136   8.831   4.457 -1.0169 -1.3829 -1.1331
   71MOL0     H 9552   7.288   8.844   4.364  0.1367  1.7106 -2.3189
   71MOL0     H 9553   7.194   9.065   4.275 -2.4412  0.4676 -0.9395
   71MOL0     H 9554   7.088   9.068   4.400  0.2192 -0.2423  1.4456
   71MOL0     H 9555   7.381   9.033   4.441  0.2728  0.2103  1.2783
   71MOL0     H 9556   7.254   9.023   4.576 -2.7362 -2.1237 -1.3708
   71MOL0     H 9557   7.284   9.238   4.385 -1.6050 -1.9525 -0.6953
   71MOL0     H 9558   7.380   9.235   4.540 -0.7909  1.7832 -0.6178
   71MOL0     H 9559   7.072   9.230   4.524 -0.8932  1.4305  0.8000
   71MOL0     H 9560   7.156   9.261   4.668  0.5535  2.8433  0.4680
   71MOL0     H 9561   7.192   9.450   4.429 -1.2106 -1.3409  0.5608
   71MOL0     H 9562   7.255   9.465   4.599 -0.2201 -0.4284  0.8422
   71MOL0     H 9563   7.060   9.503   4.687  0.4775 -0.2848 -1.0692
   71MOL0     H 9564   7.073   9.608   4.544  2.2519 -0.1534 -1.8021
   71MOL0     H 9565   6.994   8.689   4.066  0.6993  2.6188  2.4665
   71MOL0     H 9566   6.834   8.598   3.909 -2.0427 -3.4234  1.0678
   71MOL0     H 9567   6.391   8.648   3.748  0.0245  0.4307 -1.2888
   71MOL0     H 9568   6.238   8.560   3.567  0.6060  0.6412 -0.8735
   71MOL0     H 9569   4.615   8.478   3.790 -3.2194 -2.6742  2.3522
   71MOL0     H 9570   4.402   8.512   3.904  0.5948 -0.7734 -0.1956
   71MOL0     H 9571   4.117   8.740   4.352  0.4156 -0.5670 -0.0062
   71MOL0     H 9572   3.894   8.816   4.380  1.7308  0.3640  1.8462
   71MOL0     H 9573   3.641   8.826   4.333 -1.0520 -1.5380  0.6213
   71MOL0     H 9574   3.681   8.758   4.175  3.1882  0.9431 -0.8919
   71MOL0     H 9575   3.528   8.917   4.061 -0.1553 -0.7424 -0.5476
   71MOL0     H 9576   3.485   8.981   4.226  0.7799 -0.0448  0.4788
   71MOL0     H 9577   3.372   8.787   4.294  1.6799  0.4907 -0.8059
   71MOL0     H 9578   3.465   8.682   4.194  1.0421  0.0144 -2.4853
   71MOL0     H 9579   3.355   8.774   3.978  3.2003 -0.8994  0.4561
   71MOL0     H 9580   3.221   8.723   4.089 -0.0790  1.2170  0.5471
   71MOL0     H 9581   3.137   9.117   4.125  2.4744  0.7828 -0.6220
   71MOL0     H 9582   3.908   8.989   3.992  0.5749 -1.5656 -1.0818
   71MOL0     H 9583   4.264   8.945   3.936  0.3886 -0.4142  1.7542
   71MOL0     H 9584   4.151   8.827   3.858  0.3453  0.8049  0.1294
   71MOL0     H 9585   4.116   8.990   3.854 -0.1662  0.2556  1.2131
   72MOL0     O 9586   8.658   3.078   0.676 -0.6703 -0.0331  0.0662
   72MOL0     C 9587   8.575   3.167   0.686  0.4136 -0.1562 -0.6079
   72MOL0     O 9588   8.592   3.288   0.749  0.3220  0.2437 -0.6237
   72MOL0     C 9589   8.706   3.298   0.826  0.0511  0.8437 -0.6533
   72MOL0     C 9590   8.836   3.287   0.774  0.6477 -0.1545  1.7948
   72MOL0     C 9591   8.943   3.277   0.861 -0.7292 -0.2836  0.7835
   72MOL0     C 9592   8.920   3.284   0.996 -0.0130 -0.1437 -0.0245
   72MOL0     O 9593   9.030   3.288   1.079  0.3780 -0.3665 -0.5356
   72MOL0     C 9594   9.080   3.168   1.145  0.7800 -0.6101  0.1313
   72MOL0     C 9595   9.194   3.213   1.224  0.6957 -0.5675 -0.3648
   72MOL0     C 9596   9.313   3.268   1.150  0.3811 -0.4496  0.3658
   72MOL0     C 9597   9.418   3.315   1.254  0.0464  0.1835 -0.2539
   72MOL0     C 9598   9.558   3.357   1.204 -0.7240  0.1040 -0.0357
   72MOL0     C 9599   9.627   3.242   1.148 -0.4267  0.0984  0.5358
   72MOL0     C 9600   9.774   3.262   1.159  0.8357  0.9713  0.2396
   72MOL0     C 9601   9.842   3.149   1.096 -0.2769  0.1729  0.1347
   72MOL0     N 9602   9.985   3.148   1.153 -0.2503  0.3493  0.2394
   72MOL0     C 9603  10.094   3.233   1.143  0.4893  1.2292 -0.1939
   72MOL0     C 9604  10.182   3.182   1.222  0.4937 -0.2635 -0.1167
   72MOL0     C 9605  10.314   3.255   1.254  0.1396 -0.3256  0.8150
   72MOL0     C 9606  10.302   3.341   1.379  0.9662 -0.0553 -0.1825
   72MOL0     C 9607  10.392   3.473   1.375  0.4839  0.3845 -0.6147
   72MOL0     C 9608  10.532   3.451   1.423  0.0775  0.3053 -0.4567
   72MOL0     O 9609  10.591   3.582   1.418  0.3794 -0.7943 -0.5744
   72MOL0     C 9610  10.729   3.591   1.438  0.2524  0.7265 -0.2785
   72MOL0     C 9611  10.800   3.501   1.524 -0.2274 -1.0059  0.4619
   72MOL0     C 9612  10.941   3.500   1.530 -0.1804 -0.3590 -0.0499
   72MOL0     C 9613  11.012   3.602   1.454  0.2924  0.2677  0.0804
   72MOL0     C 9614  11.155   3.614   1.461 -0.3478  0.0437  0.0962
   72MOL0     O 9615  11.208   3.581   1.579  0.1384  0.1871 -0.7824
   72MOL0     C 9616  11.343   3.580   1.604  0.1987 -1.1945  0.2110
   72MOL0     C 9617  11.443   3.538   1.514  0.0458  1.0719 -0.3300
   72MOL0     C 9618  11.580   3.529   1.560 -0.3924 -0.0199 -0.3535
   72MOL0     C 9619  11.614   3.584   1.688 -0.2183 -0.2341  0.1841
   72MOL0     O 9620  11.751   3.571   1.716  0.1132 -0.4473 -0.1115
   72MOL0     C 9621  11.789   3.562   1.853  0.6515 -0.3300 -0.2332
   72MOL0     C 9622  11.890   3.444   1.866  0.4522  0.4219 -0.6341
   72MOL0     C 9623  11.924   3.425   2.017 -0.3457  0.8082  0.3861
   72MOL0     C 9624  12.045   3.333   2.034 -0.3531  0.1345  0.7180
   72MOL0     C 9625  12.075   3.310   2.183  0.0804  0.0731 -0.0390
   72MOL0     C 9626  12.168   3.197   2.209 -0.8844  0.0478 -0.1909
   72MOL0     C 9627  12.297   3.190   2.121 -0.4284  0.1330  0.5578
   72MOL0     C 9628  12.379   3.057   2.137  0.1602  0.7055 -0.3925
   72MOL0    Cl 9629  12.502   3.038   2.003  0.1661 -0.2665  0.2107
   72MOL0     C 9630  11.520   3.633   1.772  0.2826 -0.4755  0.0249
   72MOL0     C 9631  11.384   3.629   1.734 -0.3053 -0.1425 -0.1882
   72MOL0     O 9632  11.217   3.639   1.358 -0.2593  0.6025 -0.3034
   72MOL0     C 9633  10.935   3.687   1.370  0.0949  0.4437 -0.3276
   72MOL0     C 9634  10.797   3.682   1.366  0.3049 -0.0947 -0.4085
   72MOL0     N 9635  10.135   3.068   1.282  0.5814 -0.4629  0.0073
   72MOL0     N 9636  10.014   3.046   1.236 -0.2012  0.3493 -0.0052
   72MOL0     C 9637   8.791   3.281   1.054 -0.4457  0.0803 -0.4285
   72MOL0     C 9638   8.687   3.283   0.964 -0.1913 -0.7589  0.0921
   72MOL0     C 9639   8.434   3.151   0.634 -0.8817 -0.1601  0.1624
   72MOL0     C 9640   8.374   3.272   0.593 -0.1699  0.1619 -0.3546
   72MOL0     C 9641   8.241   3.273   0.552  0.3942 -0.6814  0.3971
   72MOL0     C 9642   8.165   3.159   0.544  0.0687  0.1730  0.3090
   72MOL0     O 9643   8.030   3.150   0.518  0.0744  0.3559 -0.1285
   72MOL0     C 9644   7.949   3.268   0.496 -0.0370  0.4140 -0.5274
   72MOL0     C 9645   7.803   3.235   0.530 -0.0940 -0.8186 -1.2023
   72MOL0     C 9646   7.737   3.156   0.416 -0.2397 -0.4351 -0.1875
   72MOL0     C 9647   7.596   3.119   0.458 -0.1764  0.7610  0.5580
   72MOL0     C 9648   7.516   3.047   0.343 -0.9021  0.0031 -0.8194
   72MOL0     C 9649   7.459   2.996   0.247  0.7480 -0.0998 -0.5836
   72MOL0     C 9650   8.226   3.042   0.585 -0.8988  0.2451  0.8235
   72MOL0     C 9651   8.362   3.038   0.628 -0.8290  0.0605  0.4860
   72MOL0     C 9652   8.418   2.911   0.690  0.3250 -0.1178 -0.2240
   72MOL0     H 9653   8.851   3.303   0.668  2.6959  0.2968  2.1055
   72MOL0     H 9654   9.049   3.279   0.835 -0.8244  0.7351  0.4474
   72MOL0     H 9655   9.000   3.129   1.207 -0.6238  3.0346  0.8891
   72MOL0     H 9656   9.111   3.091   1.073  1.4828 -1.5882  1.4535
   72MOL0     H 9657   9.225   3.131   1.288  0.6783 -1.4064 -1.4006
   72MOL0     H 9658   9.155   3.276   1.305  0.2350 -5.1213  3.4094
   72MOL0     H 9659   9.282   3.358   1.097 -0.8476  0.5954  2.7067
   72MOL0     H 9660   9.340   3.186   1.083 -3.1322 -0.8987 -0.6462
   72MOL0     H 9661   9.368   3.397   1.308  0.6885 -1.1323  2.4991
   72MOL0     H 9662   9.433   3.241   1.333 -1.9756 -1.1554 -1.0200
   72MOL0     H 9663   9.538   3.428   1.122 -0.9787 -0.2519 -0.2873
   72MOL0     H 9664   9.613   3.413   1.280  1.6018  0.1953 -1.6771
   72MOL0     H 9665   9.594   3.153   1.204 -0.3484  0.2361  0.7997
   72MOL0     H 9666   9.603   3.229   1.042  0.0705 -1.6256  0.6072
   72MOL0     H 9667   9.793   3.263   1.267  2.0022 -2.9753  0.2341
   72MOL0     H 9668   9.797   3.354   1.105  1.3816  0.6650 -0.0559
   72MOL0     H 9669   9.807   3.049   1.122  1.0531 -0.0275  1.2740
   72MOL0     H 9670   9.833   3.162   0.988  2.5766 -0.3946 -0.2616
   72MOL0     H 9671  10.106   3.319   1.077 -0.9805  0.4032 -1.6033
   72MOL0     H 9672  10.398   3.185   1.267  0.5725 -0.5100 -2.2852
   72MOL0     H 9673  10.350   3.309   1.167  0.6185 -2.1625 -0.1840
   72MOL0     H 9674  10.199   3.376   1.386  1.7413  2.1415  1.7737
   72MOL0     H 9675  10.308   3.283   1.471 -3.4521  1.3006  1.1904
   72MOL0     H 9676  10.352   3.546   1.446  1.2880 -0.0302  0.2842
   72MOL0     H 9677  10.386   3.522   1.277  1.6498 -0.6283 -1.2258
   72MOL0     H 9678  10.588   3.382   1.360  2.3167  0.9723  0.6757
   72MOL0     H 9679  10.528   3.413   1.526  0.1488 -0.3154 -0.6786
   72MOL0     H 9680  10.754   3.429   1.592 -0.9494 -1.0067 -0.0131
   72MOL0     H 9681  11.000   3.426   1.583 -0.7313 -0.7360  0.0441
   72MOL0     H 9682  11.403   3.490   1.425 -1.2617 -2.4119  1.8866
   72MOL0     H 9683  11.659   3.482   1.502  0.1934  1.3805 -0.7610
   72MOL0     H 9684  11.839   3.654   1.884  0.0132 -0.1622  0.3315
   72MOL0     H 9685  11.702   3.539   1.916 -0.5928 -0.5332 -1.9576
   72MOL0     H 9686  11.846   3.351   1.827 -0.4156  0.7419 -0.4303
   72MOL0     H 9687  11.984   3.481   1.824  0.7087  0.4818 -0.0010
   72MOL0     H 9688  11.952   3.519   2.064  1.8917 -0.4724  1.8280
   72MOL0     H 9689  11.851   3.369   2.076  0.9229 -1.5654 -0.1561
   72MOL0     H 9690  12.131   3.380   1.985 -2.7533  1.3936 -2.7240
   72MOL0     H 9691  12.031   3.239   1.980 -0.6377  0.2867  0.5215
   72MOL0     H 9692  11.980   3.285   2.231 -0.3182 -0.2452 -0.9812
   72MOL0     H 9693  12.107   3.401   2.235 -1.8731 -0.8434  3.0056
   72MOL0     H 9694  12.195   3.191   2.315  1.9263  0.0724 -0.8205
   72MOL0     H 9695  12.110   3.106   2.188  0.4698 -1.4763  2.1557
   72MOL0     H 9696  12.355   3.281   2.139 -1.5035  1.3073 -1.5987
   72MOL0     H 9697  12.269   3.199   2.016 -0.3950 -0.3433  0.5081
   72MOL0     H 9698  12.442   3.067   2.227  0.2417  1.2873 -0.5057
   72MOL0     H 9699  12.306   2.977   2.138  1.2848 -0.4451  2.8954
   72MOL0     H 9700  11.547   3.676   1.868 -0.7130  0.3746 -0.0549
   72MOL0     H 9701  11.313   3.670   1.805  0.4679  0.0547  0.4978
   72MOL0     H 9702  10.983   3.759   1.304  1.6209  1.4309  1.7400
   72MOL0     H 9703  10.742   3.758   1.311  0.4668  0.8929  0.7518
   72MOL0     H 9704   8.790   3.282   1.162  1.0805 -0.6202 -0.3949
   72MOL0     H 9705   8.588   3.288   1.008 -0.0093 -2.3835  0.7579
   72MOL0     H 9706   8.434   3.362   0.595 -0.7553  0.5539  0.9972
   72MOL0     H 9707   8.191   3.367   0.530  1.4830  0.0512  0.9277
   72MOL0     H 9708   7.971   3.295   0.392  1.9742 -1.0399 -0.5396
   72MOL0     H 9709   7.974   3.343   0.571  0.9419  1.0348 -1.4468
   72MOL0     H 9710   7.742   3.324   0.549  0.0988 -0.4740 -2.1057
   72MOL0     H 9711   7.804   3.169   0.617  2.5752 -1.5919 -1.7084
   72MOL0     H 9712   7.787   3.063   0.390  0.7360  0.0787 -0.2203
   72MOL0     H 9713   7.742   3.219   0.327 -1.1422 -1.7661 -1.2075
   72MOL0     H 9714   7.616   3.046   0.537  0.9998 -0.5183 -0.8495
   72MOL0     H 9715   7.538   3.206   0.488  1.0234  1.5342  0.6636
   72MOL0     H 9716   7.412   2.956   0.160 -1.6516 -1.2610  1.1212
   72MOL0     H 9717   8.182   2.942   0.584  1.2257 -0.7391  0.4661
   72MOL0     H 9718   8.512   2.883   0.643  0.0577 -0.9158 -0.2994
   72MOL0     H 9719   8.435   2.926   0.797  3.2468 -2.4274 -0.2228
   72MOL0     H 9720   8.356   2.822   0.676 -2.4257  1.2126  2.3491
   73MOL0     O 9721  11.177  10.425   2.196  0.3169  0.0980 -0.0163
   73MOL0     C 9722  11.091  10.477   2.268  0.3929 -0.7461  0.1236
   73MOL0     O 9723  11.122  10.572   2.363  0.2916 -0.9435 -0.2460
   73MOL0     C 9724  11.251  10.623   2.376  1.2967 -0.4929  0.5015
   73MOL0     C 9725  11.248  10.755   2.356 -0.6392  0.5093  0.2035
   73MOL0     C 9726  11.363  10.834   2.361 -0.3496  1.1615  0.4459
   73MOL0     C 9727  11.484  10.769   2.394 -0.0147  0.1945 -0.6068
   73MOL0     O 9728  11.607  10.830   2.393  0.2540 -0.0967  0.6031
   73MOL0     C 9729  11.627  10.972   2.384 -0.2399 -0.1686 -0.4215
   73MOL0     C 9730  11.776  11.004   2.341  0.0130 -0.2471 -0.2368
   73MOL0     C 9731  11.882  10.952   2.436  0.7228 -0.0280 -1.3242
   73MOL0     C 9732  12.021  11.021   2.435  0.1681  0.3197  0.6475
   73MOL0     C 9733  12.106  10.987   2.311 -0.1533 -0.3102 -0.4083
   73MOL0     C 9734  12.231  11.075   2.309 -0.3795 -0.2064  0.8710
   73MOL0     C 9735  12.332  11.031   2.202  1.3105  1.1153 -0.2274
   73MOL0     C 9736  12.430  11.144   2.186 -0.0558 -0.4109  0.6552
   73MOL0     N 9737  12.550  11.115   2.106  0.0298 -0.5712  0.8617
   73MOL0     C 9738  12.667  11.042   2.141 -0.3003  0.4713  0.4502
   73MOL0     C 9739  12.756  11.061   2.036  0.5669 -0.0415  0.1703
   73MOL0     C 9740  12.884  10.989   1.999  0.2998  0.3936  0.1773
   73MOL0     C 9741  12.893  10.857   2.070 -0.4958 -0.0899  0.0341
   73MOL0     C 9742  13.008  10.783   1.996  0.4230  0.0406 -0.4467
   73MOL0     C 9743  13.141  10.809   2.076 -0.3093  0.9759  0.0992
   73MOL0     O 9744  13.156  10.708   2.177  0.3046 -0.4168  0.2051
   73MOL0     C 9745  13.281  10.677   2.229  0.4194 -1.1169 -0.0782
   73MOL0     C 9746  13.292  10.561   2.301 -0.0936  0.6713  0.2819
   73MOL0     C 9747  13.425  10.514   2.337  0.0150 -0.5433 -0.1709
   73MOL0     C 9748  13.543  10.592   2.302  1.0758  0.2891 -0.7351
   73MOL0     C 9749  13.673  10.572   2.363  0.4480 -0.0509 -0.4138
   73MOL0     O 9750  13.775  10.654   2.313  0.3154 -0.1198  0.0590
   73MOL0     C 9751  13.899  10.658   2.369  0.2500  0.7948  0.3327
   73MOL0     C 9752  13.927  10.734   2.486  0.8969  0.6338  0.4704
   73MOL0     C 9753  14.049  10.721   2.542  0.5382  0.2416 -0.0869
   73MOL0     C 9754  14.153  10.642   2.496  0.2658 -0.9064  0.0494
   73MOL0     O 9755  14.274  10.615   2.551  0.0466 -0.0929  0.1900
   73MOL0     C 9756  14.314  10.682   2.672  0.5935 -0.3190  1.5086
   73MOL0     C 9757  14.453  10.651   2.723  0.0991 -0.4716  0.3481
   73MOL0     C 9758  14.551  10.679   2.610  0.5510 -0.2308  0.3418
   73MOL0     C 9759  14.690  10.674   2.664  0.2969  0.3366 -0.1787
   73MOL0     C 9760  14.803  10.641   2.562 -0.4238  0.0905 -0.3805
   73MOL0     C 9761  14.853  10.740   2.460  0.9583  0.3308  0.0068
   73MOL0     C 9762  14.933  10.850   2.532 -0.1321  0.3793  1.1738
   73MOL0     C 9763  14.972  10.967   2.433  0.5097  0.1732  0.0876
   73MOL0    Cl 9764  14.833  11.040   2.362  0.0923  0.1208  0.0410
   73MOL0     C 9765  14.130  10.573   2.381  0.3477  0.2718 -0.3224
   73MOL0     C 9766  13.999  10.570   2.321 -0.9427  1.1453 -1.2445
   73MOL0     O 9767  13.688  10.484   2.445 -0.2324 -0.2461 -0.4966
   73MOL0     C 9768  13.524  10.711   2.232  0.8746 -0.2572 -0.1723
   73MOL0     C 9769  13.396  10.759   2.206  0.0052  0.3808 -1.2469
   73MOL0     N 9770  12.701  11.164   1.953  1.0426 -0.4141  0.1966
   73MOL0     N 9771  12.573  11.190   1.991 -0.1773  0.1564 -0.5178
   73MOL0     C 9772  11.474  10.637   2.427 -0.6700  0.1589  0.5578
   73MOL0     C 9773  11.363  10.557   2.414  0.5911  0.1613  0.4981
   73MOL0     C 9774  10.951  10.435   2.262  0.4139  0.6344  0.6023
   73MOL0     C 9775  10.850  10.529   2.295 -0.6126  0.3309  0.1647
   73MOL0     C 9776  10.717  10.495   2.279  0.1152 -0.2358  0.2343
   73MOL0     C 9777  10.675  10.371   2.239 -0.0831  0.5651  0.7994
   73MOL0     O 9778  10.536  10.350   2.236 -0.4567  0.0009  0.1052
   73MOL0     C 9779  10.458  10.421   2.142 -0.1689  0.4303 -0.2433
   73MOL0     C 9780  10.382  10.321   2.053 -0.2646 -0.1782 -0.0890
   73MOL0     C 9781  10.289  10.229   2.127  0.5840 -0.1306 -0.2111
   73MOL0     C 9782  10.163  10.298   2.177 -0.9708  0.7059 -0.0430
   73MOL0     C 9783  10.074  10.362   2.081 -0.1628 -0.5531 -0.8759
   73MOL0     C 9784  10.009  10.404   1.990  0.5417 -0.6444  0.6289
   73MOL0     C 9785  10.770  10.275   2.205 -0.0337  0.7451  0.1922
   73MOL0     C 9786  10.906  10.304   2.216 -0.3139 -0.4063  0.6699
   73MOL0     C 9787  11.001  10.196   2.196  0.4690  0.0824 -0.3519
   73MOL0     H 9788  11.149  10.798   2.338 -0.5718  0.8234  0.5867
   73MOL0     H 9789  11.363  10.939   2.331  0.9962  1.2219  0.6075
   73MOL0     H 9790  11.557  11.037   2.330  0.9434  1.5063 -0.0149
   73MOL0     H 9791  11.612  11.020   2.481 -1.1973  1.7079 -1.4432
   73MOL0     H 9792  11.775  11.113   2.346 -0.9081 -0.2745  0.4364
   73MOL0     H 9793  11.790  10.964   2.240  1.2559 -0.8029  0.1336
   73MOL0     H 9794  11.898  10.844   2.446  1.1306  0.2276  2.4802
   73MOL0     H 9795  11.844  10.978   2.536  2.3558 -2.4480  0.0388
   73MOL0     H 9796  12.010  11.128   2.452  2.5369  0.2526  3.4043
   73MOL0     H 9797  12.073  10.988   2.526  1.0086 -2.4952 -0.7301
   73MOL0     H 9798  12.132  10.881   2.322  0.7028 -0.0387  0.2290
   73MOL0     H 9799  12.052  11.009   2.218 -0.3223 -0.0386 -0.2452
   73MOL0     H 9800  12.187  11.173   2.286 -2.2010 -0.1792  3.9113
   73MOL0     H 9801  12.288  11.075   2.402  0.7589 -0.0152  0.1951
   73MOL0     H 9802  12.289  11.002   2.106  0.2866  1.0420  0.2486
   73MOL0     H 9803  12.387  10.943   2.237 -0.0507 -0.7549 -2.4577
   73MOL0     H 9804  12.386  11.238   2.151 -0.2551 -1.3873 -1.9366
   73MOL0     H 9805  12.483  11.160   2.280  0.7875  1.0473 -0.0270
   73MOL0     H 9806  12.666  10.969   2.222  0.8439  0.4686  0.4817
   73MOL0     H 9807  12.865  10.961   1.894  1.8807  1.0654 -0.3090
   73MOL0     H 9808  12.976  11.047   2.008 -1.3296  2.8241  2.9162
   73MOL0     H 9809  12.912  10.875   2.176 -0.5988 -0.1199  0.0580
   73MOL0     H 9810  12.797  10.807   2.082 -0.8676  0.2918 -1.2223
   73MOL0     H 9811  13.010  10.813   1.891 -0.9743 -0.4843 -0.6512
   73MOL0     H 9812  12.991  10.675   1.993  1.0551 -0.0301 -1.6046
   73MOL0     H 9813  13.147  10.911   2.114 -0.2104  1.7845 -1.9608
   73MOL0     H 9814  13.227  10.793   2.011 -1.9764 -0.4288 -1.9287
   73MOL0     H 9815  13.203  10.504   2.326  1.0601 -1.5137 -0.3259
   73MOL0     H 9816  13.433  10.415   2.380 -0.1314 -2.0702 -3.4203
   73MOL0     H 9817  13.849  10.800   2.522 -1.0164 -1.5976  0.6248
   73MOL0     H 9818  14.066  10.768   2.638  4.1010 -0.6118 -0.1787
   73MOL0     H 9819  14.307  10.790   2.653  0.3460 -0.5194  0.4199
   73MOL0     H 9820  14.247  10.648   2.751  0.6211 -1.4629  1.0454
   73MOL0     H 9821  14.473  10.716   2.808 -1.6233 -1.5069  1.6028
   73MOL0     H 9822  14.458  10.545   2.751  1.0197 -0.6550 -0.4457
   73MOL0     H 9823  14.533  10.602   2.535  2.7618  0.4082 -0.9609
   73MOL0     H 9824  14.526  10.772   2.559  0.0523 -0.0976  0.8153
   73MOL0     H 9825  14.689  10.594   2.739  1.0055  1.2476  0.8333
   73MOL0     H 9826  14.705  10.765   2.722 -0.9403 -0.9573  2.3603
   73MOL0     H 9827  14.770  10.549   2.512 -5.3402  0.9651  0.7025
   73MOL0     H 9828  14.886  10.608   2.626 -0.5818 -1.7755 -1.0558
   73MOL0     H 9829  14.909  10.702   2.374  0.9744 -0.8618  0.5208
   73MOL0     H 9830  14.759  10.787   2.429 -0.0204 -1.0174  0.7771
   73MOL0     H 9831  15.030  10.812   2.565 -0.8438 -0.3304  2.5374
   73MOL0     H 9832  14.878  10.910   2.605  0.2038  0.8827  1.0234
   73MOL0     H 9833  15.018  11.043   2.497 -2.2893  1.1719  1.0797
   73MOL0     H 9834  15.031  10.923   2.352 -0.8438  0.2297 -0.9649
   73MOL0     H 9835  14.202  10.502   2.341 -0.4123 -0.2822 -0.7243
   73MOL0     H 9836  13.974  10.506   2.238 -2.3014 -2.3436  1.5957
   73MOL0     H 9837  13.612  10.771   2.212  1.5897  0.1507  3.5032
   73MOL0     H 9838  13.380  10.863   2.179  2.5541  1.4271  0.7857
   73MOL0     H 9839  11.564  10.585   2.457 -1.4150 -0.2368  2.2499
   73MOL0     H 9840  11.375  10.451   2.432  1.1251 -0.3215 -2.2702
   73MOL0     H 9841  10.877  10.632   2.316  0.9710 -0.3983  1.9700
   73MOL0     H 9842  10.645  10.569   2.313  4.4028  3.9505  1.1952
   73MOL0     H 9843  10.513  10.481   2.069 -1.9828  1.5941 -0.7344
   73MOL0     H 9844  10.378  10.483   2.184 -1.8986 -2.2969  0.7340
   73MOL0     H 9845  10.465  10.274   2.001 -0.0882 -1.4099  1.2354
   73MOL0     H 9846  10.318  10.370   1.979  0.3022  1.1421  0.2558
   73MOL0     H 9847  10.332  10.175   2.212 -0.3714  0.8359  0.9142
   73MOL0     H 9848  10.266  10.148   2.056  1.0863 -0.7973  0.3686
   73MOL0     H 9849  10.111  10.221   2.236 -0.5838  0.2415 -0.3051
   73MOL0     H 9850  10.195  10.373   2.250  1.2347  0.5073 -0.7465
   73MOL0     H 9851   9.962  10.463   1.914  1.5506 -0.7675 -0.1149
   73MOL0     H 9852  10.739  10.173   2.184  0.7627  0.4651  0.3181
   73MOL0     H 9853  10.955  10.097   2.186  0.0094  0.3502 -0.9569
   73MOL0     H 9854  11.057  10.214   2.104  1.7775 -0.8694  0.2198
   73MOL0     H 9855  11.065  10.199   2.285  1.6690  0.9999 -1.2153
   74MOL0     O 9856   7.730   0.913   3.894  0.8926 -0.0841 -0.5173
   74MOL0     C 9857   7.722   0.849   4.004  0.2522  0.1429  0.3386
   74MOL0     O 9858   7.829   0.783   4.056  0.7353  0.2855  0.3653
   74MOL0     C 9859   7.948   0.802   3.994  0.2242 -0.2576  0.1390
   74MOL0     C 9860   7.992   0.711   3.898 -0.4502  0.3453 -0.1793
   74MOL0     C 9861   8.115   0.729   3.832  0.0751 -0.1721 -1.0282
   74MOL0     C 9862   8.196   0.838   3.873  0.2921 -0.1238 -0.6734
   74MOL0     O 9863   8.323   0.878   3.827 -0.3906 -0.7112  0.3279
   74MOL0     C 9864   8.398   0.781   3.756  0.1618  0.1518 -0.1117
   74MOL0     C 9865   8.527   0.845   3.712  0.5420  0.8251  0.3251
   74MOL0     C 9866   8.632   0.835   3.826 -1.0747 -0.1367 -0.5908
   74MOL0     C 9867   8.768   0.907   3.795  0.3112  0.6574  0.2028
   74MOL0     C 9868   8.859   0.911   3.916 -0.0060 -0.2320  0.6874
   74MOL0     C 9869   8.883   0.773   3.979  0.6450 -0.3100 -0.2305
   74MOL0     C 9870   8.990   0.769   4.086 -0.2167  0.0631 -0.3464
   74MOL0     C 9871   9.132   0.805   4.048 -0.1270  0.2837 -0.0981
   74MOL0     N 9872   9.228   0.798   4.164  0.1067  1.2200 -0.3524
   74MOL0     C 9873   9.219   0.849   4.288  0.4382  0.1677  0.9407
   74MOL0     C 9874   9.347   0.833   4.349  0.5551  0.0663  0.8655
   74MOL0     C 9875   9.380   0.874   4.485 -0.1644  0.3050  0.2923
   74MOL0     C 9876   9.479   0.986   4.498 -0.1546 -0.2419  0.6784
   74MOL0     C 9877   9.623   0.932   4.486 -0.0552 -0.0695 -0.3118
   74MOL0     C 9878   9.728   1.044   4.523 -0.4143 -0.1256  0.0728
   74MOL0     O 9879   9.728   1.058   4.663 -0.6903  0.3499 -0.5414
   74MOL0     C 9880   9.852   1.081   4.718 -0.3682  0.7246  0.2255
   74MOL0     C 9881   9.964   1.122   4.647  0.2329 -0.1201 -0.7687
   74MOL0     C 9882  10.080   1.141   4.717  1.0256  0.3794 -0.0203
   74MOL0     C 9883  10.091   1.106   4.857 -0.6577 -0.1492  0.0749
   74MOL0     C 9884  10.214   1.138   4.935  0.6985 -0.6148 -0.0569
   74MOL0     O 9885  10.222   1.139   5.064  0.2032 -0.1753 -0.0801
   74MOL0     C 9886  10.339   1.167   5.121 -0.0497 -0.6856  0.3827
   74MOL0     C 9887  10.422   1.063   5.156  0.2437 -0.0963 -0.9523
   74MOL0     C 9888  10.538   1.087   5.238 -1.3871 -1.0342  0.7272
   74MOL0     C 9889  10.581   1.220   5.264  0.1820 -0.5157  0.0984
   74MOL0     O 9890  10.696   1.249   5.330  0.1263 -0.5026  0.0838
   74MOL0     C 9891  10.698   1.188   5.457 -0.9256 -0.1845 -0.7528
   74MOL0     C 9892  10.745   1.291   5.566 -0.2233 -0.1757 -0.7557
   74MOL0     C 9893  10.902   1.322   5.567  0.0484 -0.5433  0.2690
   74MOL0     C 9894  10.999   1.199   5.573  0.7085 -0.6929  0.4227
   74MOL0     C 9895  11.139   1.248   5.578  0.4130 -0.8043 -0.5496
   74MOL0     C 9896  11.241   1.135   5.557 -0.2615 -0.0180  0.1011
   74MOL0     C 9897  11.301   1.089   5.701  0.3511  0.9441  0.7245
   74MOL0     C 9898  11.401   0.975   5.682 -0.2984  0.3197  0.2345
   74MOL0    Cl 9899  11.324   0.812   5.672 -0.4272 -0.1489 -0.0509
   74MOL0     C 9900  10.499   1.322   5.225 -0.0311  0.0482 -0.5424
   74MOL0     C 9901  10.377   1.296   5.161 -0.3532 -0.1197 -0.5806
   74MOL0     O 9902  10.306   1.168   4.865 -0.0016 -0.4015 -0.6903
   74MOL0     C 9903   9.978   1.069   4.922  0.2350 -0.0254  0.2282
   74MOL0     C 9904   9.855   1.063   4.856  0.4225  1.6203  0.7473
   74MOL0     N 9905   9.430   0.777   4.258  0.7408  0.1610 -0.4297
   74MOL0     N 9906   9.362   0.771   4.147 -1.0694 -0.1120  0.2697
   74MOL0     C 9907   8.147   0.934   3.962  0.3625 -0.1546  0.5352
   74MOL0     C 9908   8.019   0.919   4.020  0.2295  0.1909 -0.7908
   74MOL0     C 9909   7.583   0.817   4.051 -0.5544 -0.2619  0.3548
   74MOL0     C 9910   7.550   0.701   4.119 -0.1899 -0.5760  0.6490
   74MOL0     C 9911   7.422   0.683   4.164 -0.6133  0.0536  0.4232
   74MOL0     C 9912   7.324   0.785   4.155 -0.5265 -0.3357  0.1801
   74MOL0     O 9913   7.201   0.743   4.203 -0.8007  0.1972 -0.9396
   74MOL0     C 9914   7.096   0.837   4.206  0.7193 -0.2035  0.0083
   74MOL0     C 9915   7.119   0.946   4.307  0.4961 -0.0468 -0.5120
   74MOL0     C 9916   7.148   0.893   4.450  0.2014 -1.0828  0.2497
   74MOL0     C 9917   7.035   0.812   4.510 -0.7287  0.6102 -0.3547
   74MOL0     C 9918   7.047   0.815   4.655 -0.3300  0.3874 -1.1528
   74MOL0     C 9919   7.058   0.796   4.775  0.2527 -0.8513 -1.0802
   74MOL0     C 9920   7.356   0.909   4.098 -1.3368 -0.3814  0.1579
   74MOL0     C 9921   7.487   0.926   4.052 -0.3907  0.2058 -0.0603
   74MOL0     C 9922   7.522   1.071   4.020 -0.0882  0.6513 -0.3182
   74MOL0     H 9923   7.922   0.631   3.874  1.9175 -2.7480  2.2994
   74MOL0     H 9924   8.165   0.661   3.764  2.8560  2.0453 -1.4023
   74MOL0     H 9925   8.408   0.695   3.822 -3.0648  0.3782  0.8696
   74MOL0     H 9926   8.339   0.747   3.670  0.1241 -3.7927  1.2632
   74MOL0     H 9927   8.509   0.951   3.692  1.6569  1.4957  2.5622
   74MOL0     H 9928   8.564   0.799   3.620  1.8724  2.1061  0.1801
   74MOL0     H 9929   8.644   0.729   3.853  0.6487  0.3387  0.6684
   74MOL0     H 9930   8.589   0.892   3.909 -1.3913 -1.3500  0.1030
   74MOL0     H 9931   8.822   0.846   3.722  1.4165  0.0050  1.5188
   74MOL0     H 9932   8.752   1.009   3.759 -1.4491 -0.1240 -1.3836
   74MOL0     H 9933   8.955   0.960   3.898  0.7243 -1.7113  0.3941
   74MOL0     H 9934   8.815   0.986   3.982 -2.2359  0.6328 -1.6068
   74MOL0     H 9935   8.790   0.743   4.029  1.8556 -0.1240  2.2878
   74MOL0     H 9936   8.901   0.710   3.892 -0.9319  0.0622 -0.8687
   74MOL0     H 9937   9.003   0.667   4.125  2.6696  1.3534  2.5588
   74MOL0     H 9938   8.959   0.831   4.171  1.7822 -1.8374  1.9116
   74MOL0     H 9939   9.163   0.731   3.974 -2.8564  0.2016 -1.2576
   74MOL0     H 9940   9.147   0.905   4.006  1.2972 -0.7250 -2.1491
   74MOL0     H 9941   9.132   0.887   4.341  0.2536 -0.6855  1.2584
   74MOL0     H 9942   9.292   0.910   4.541  0.8793  0.2346  2.0653
   74MOL0     H 9943   9.407   0.782   4.538 -0.0600 -1.3110 -2.3968
   74MOL0     H 9944   9.458   1.066   4.426 -1.3642  1.8788  3.2092
   74MOL0     H 9945   9.463   1.021   4.601  2.4924 -1.7810  1.7323
   74MOL0     H 9946   9.631   0.905   4.380  0.1724  0.9466 -0.5635
   74MOL0     H 9947   9.633   0.844   4.550 -2.4803  0.6857  1.2555
   74MOL0     H 9948   9.699   1.142   4.485  0.2060  0.3482  0.8099
   74MOL0     H 9949   9.819   1.008   4.475 -0.0531  1.2342 -0.3008
   74MOL0     H 9950   9.965   1.154   4.543 -0.0731  0.1071 -0.7009
   74MOL0     H 9951  10.167   1.189   4.674  0.5813  1.5485  0.3569
   74MOL0     H 9952  10.392   0.958   5.148  1.3423 -0.4138 -1.0191
   74MOL0     H 9953  10.592   1.001   5.277 -1.9639 -1.6763  0.1317
   74MOL0     H 9954  10.599   1.146   5.477 -0.9633  0.9583  1.8625
   74MOL0     H 9955  10.770   1.106   5.459 -3.2162 -2.3240  1.3289
   74MOL0     H 9956  10.689   1.385   5.557 -3.0148 -1.8238 -1.7910
   74MOL0     H 9957  10.721   1.242   5.661  1.8321 -0.6186 -0.4184
   74MOL0     H 9958  10.927   1.374   5.474  1.6627 -1.5367  0.1183
   74MOL0     H 9959  10.935   1.383   5.651  3.8739  2.0387 -2.7398
   74MOL0     H 9960  10.979   1.136   5.486  1.6338  0.9736 -1.0537
   74MOL0     H 9961  10.980   1.139   5.662 -0.1020  0.8181  1.3067
   74MOL0     H 9962  11.152   1.293   5.677 -2.1462  0.3920 -0.6761
   74MOL0     H 9963  11.162   1.326   5.505 -1.8026  0.1091 -0.3677
   74MOL0     H 9964  11.192   1.045   5.521  0.4871 -0.4221  0.0747
   74MOL0     H 9965  11.316   1.173   5.487 -1.9527  3.3431 -0.1059
   74MOL0     H 9966  11.225   1.044   5.765 -0.0517 -1.2458 -1.1310
   74MOL0     H 9967  11.359   1.166   5.752  2.7572  0.1554 -0.6541
   74MOL0     H 9968  11.464   0.989   5.593  1.3130 -0.5628  1.1869
   74MOL0     H 9969  11.464   0.988   5.770 -1.3470 -0.9502  1.2131
   74MOL0     H 9970  10.531   1.418   5.265  2.1860 -1.5114  1.7714
   74MOL0     H 9971  10.305   1.375   5.141  0.9850  2.0000  2.3808
   74MOL0     H 9972   9.972   1.058   5.030 -1.3908  1.7870  0.3846
   74MOL0     H 9973   9.766   1.041   4.915  1.5929  0.7765  2.2775
   74MOL0     H 9974   8.190   1.032   3.979 -1.8653  1.5429 -2.5819
   74MOL0     H 9975   7.987   0.989   4.097  3.4563 -1.6416  2.4771
   74MOL0     H 9976   7.630   0.630   4.138  1.0679  0.5492 -0.2868
   74MOL0     H 9977   7.399   0.591   4.215 -5.0665  0.8534  0.2028
   74MOL0     H 9978   7.007   0.789   4.247  1.1279 -0.0240  1.1395
   74MOL0     H 9979   7.072   0.879   4.107  0.8465  0.3034  0.1886
   74MOL0     H 9980   7.032   1.009   4.330 -0.9745 -1.6350 -1.4653
   74MOL0     H 9981   7.197   1.012   4.267 -0.0990  1.1440  0.2389
   74MOL0     H 9982   7.169   0.974   4.520 -0.3702  0.5187 -1.3232
   74MOL0     H 9983   7.240   0.834   4.445  0.6848 -0.3927  0.8858
   74MOL0     H 9984   6.935   0.848   4.481 -0.6722 -1.2346 -3.3006
   74MOL0     H 9985   7.034   0.705   4.487 -0.9941  0.4672  0.3058
   74MOL0     H 9986   7.048   0.799   4.882 -1.1035  2.2354 -1.1822
   74MOL0     H 9987   7.276   0.979   4.079 -1.2807  0.3720  2.3913
   74MOL0     H 9988   7.438   1.137   4.041  0.6136  1.6997 -0.7113
   74MOL0     H 9989   7.611   1.112   4.068 -1.0083 -0.1461  2.2571
   74MOL0     H 9990   7.528   1.060   3.911 -1.2666 -0.9879 -0.2593
   75MOL0     O 9991   0.153   6.900   9.025  0.1459  1.0592 -0.6506
   75MOL0     C 9992   0.182   7.023   9.003  0.5612  0.2435 -0.0324
   75MOL0     O 9993   0.098   7.127   8.990 -0.3412  0.0088  0.1735
   75MOL0     C 9994  -0.032   7.119   8.987  0.4031  0.0470 -0.6944
   75MOL0     C 9995  -0.101   7.217   9.055  1.0620 -0.2856  0.1261
   75MOL0     C 9996  -0.238   7.209   9.055 -0.2332  0.4802  0.3157
   75MOL0     C 9997  -0.311   7.105   8.980  0.0976 -0.4450 -0.2749
   75MOL0     O 9998  -0.442   7.098   9.007  1.1580  0.9835  0.2655
   75MOL0     C 9999  -0.520   6.977   8.994 -0.3544  0.4963  0.1626
   75MOL0     C10000  -0.567   6.934   8.850  0.2070 -0.2067 -0.1823
   75MOL0     C10001  -0.657   7.044   8.789  0.4882  0.1973  0.0743
   75MOL0     C10002  -0.720   7.007   8.654  0.0469 -0.9155  0.0283
   75MOL0     C10003  -0.808   7.127   8.613 -0.4767 -0.1103  0.3421
   75MOL0     C10004  -0.880   7.109   8.482 -0.2627  1.0816  0.6675
   75MOL0     C10005  -0.995   7.010   8.489 -0.6356  0.7587 -0.3626
   75MOL0     C10006  -1.063   6.982   8.348  0.1966  0.0131 -0.5120
   75MOL0     N10007  -0.973   6.945   8.243  0.3672 -0.2328 -0.1090
   75MOL0     C10008  -0.897   7.039   8.164 -0.2313  0.4354 -0.0489
   75MOL0     C10009  -0.802   6.962   8.101  0.1254 -0.5985 -0.1362
   75MOL0     C10010  -0.683   6.997   8.025 -0.3376 -0.1089  0.6764
   75MOL0     C10011  -0.550   6.971   8.096  0.6820 -0.8628  0.3919
   75MOL0     C10012  -0.435   7.028   8.022 -0.2456  0.0180  0.2751
   75MOL0     C10013  -0.298   6.982   8.064 -0.5402  0.0397  0.1621
   75MOL0     O10014  -0.299   6.959   8.214  0.5954 -0.3354 -0.2608
   75MOL0     C10015  -0.180   6.954   8.282 -0.7738 -0.1833  0.6488
   75MOL0     C10016  -0.064   6.928   8.219  0.4850 -0.4753  0.8479
   75MOL0     C10017   0.054   6.923   8.291 -0.1524  0.2013 -0.4786
   75MOL0     C10018   0.059   6.926   8.435 -0.4877 -0.8753 -0.1398
   75MOL0     C10019   0.183   6.917   8.510  0.5478 -0.5026 -0.8410
   75MOL0     O10020   0.300   6.900   8.435 -0.0426  0.0895 -0.3588
   75MOL0     C10021   0.421   6.905   8.502 -0.1980 -0.2988 -0.1634
   75MOL0     C10022   0.498   6.792   8.520 -0.9127  0.1764 -0.0557
   75MOL0     C10023   0.614   6.792   8.596 -0.2502 -0.5479 -0.1513
   75MOL0     C10024   0.664   6.909   8.653  0.1328  0.5128  0.0119
   75MOL0     O10025   0.783   6.922   8.717  0.1920 -0.0312  0.3498
   75MOL0     C10026   0.841   6.799   8.769 -0.0625 -0.1090  0.1023
   75MOL0     C10027   0.959   6.832   8.852  0.6925  0.4973 -0.1734
   75MOL0     C10028   1.096   6.821   8.785  0.2196 -0.4010 -0.1010
   75MOL0     C10029   1.200   6.865   8.883 -0.2185  0.3264  0.9022
   75MOL0     C10030   1.342   6.866   8.817  0.3398 -0.2291 -0.4869
   75MOL0     C10031   1.400   6.723   8.820 -0.0078 -0.3576  0.4496
   75MOL0     C10032   1.528   6.716   8.733 -0.2706 -0.1993 -0.1445
   75MOL0     C10033   1.644   6.627   8.788  0.4513  0.5532  0.1404
   75MOL0    Cl10034   1.759   6.602   8.652 -0.4084 -0.1541 -0.3299
   75MOL0     C10035   0.587   7.020   8.629 -0.7957  0.5195 -0.3630
   75MOL0     C10036   0.467   7.022   8.560 -0.3839 -0.2919 -0.8065
   75MOL0     O10037   0.174   6.932   8.634  0.5543 -0.2438  0.4478
   75MOL0     C10038  -0.067   6.946   8.496 -0.0948 -0.2610 -0.2110
   75MOL0     C10039  -0.179   6.965   8.416 -0.4798  0.8678 -1.2221
   75MOL0     N10040  -0.812   6.835   8.149  0.1197 -0.3429 -0.6525
   75MOL0     N10041  -0.904   6.822   8.231  0.8345  0.1983 -0.4146
   75MOL0     C10042  -0.239   7.004   8.915  0.5262  0.3208 -0.2164
   75MOL0     C10043  -0.100   7.022   8.907 -0.4955 -0.4691 -0.4524
   75MOL0     C10044   0.323   7.062   8.999  0.0214 -0.3377 -0.4354
   75MOL0     C10045   0.348   7.200   9.020 -0.0068  0.2631  0.8345
   75MOL0     C10046   0.472   7.253   9.023  0.4274 -0.4411 -0.4114
   75MOL0     C10047   0.580   7.177   8.995 -0.8349 -0.2960  0.0982
   75MOL0     O10048   0.697   7.248   9.004  0.2876 -0.9977 -0.9192
   75MOL0     C10049   0.807   7.196   8.933 -0.3064  0.1556 -0.2822
   75MOL0     C10050   0.927   7.280   8.990 -0.4266 -0.1199  0.4598
   75MOL0     C10051   1.054   7.205   8.969  0.2574 -0.1077  0.0963
   75MOL0     C10052   1.161   7.284   9.045 -0.0922  0.9691 -1.0772
   75MOL0     C10053   1.291   7.216   9.035  0.4740  0.1214 -0.1645
   75MOL0     C10054   1.404   7.180   9.018  0.0710  0.5266 -0.2925
   75MOL0     C10055   0.563   7.038   8.972 -0.5429  0.7771 -0.5827
   75MOL0     C10056   0.437   6.977   8.976 -0.4201 -0.0536 -1.0591
   75MOL0     C10057   0.428   6.825   8.958 -0.5976 -0.2878  0.2872
   75MOL0     H10058  -0.049   7.272   9.133  0.0911 -1.2296  1.5111
   75MOL0     H10059  -0.296   7.275   9.118  0.8334  3.3038 -1.4873
   75MOL0     H10060  -0.455   6.899   9.036 -1.1974  0.3691  1.2940
   75MOL0     H10061  -0.608   6.963   9.058  1.3872 -0.1155  2.5943
   75MOL0     H10062  -0.624   6.841   8.859 -1.6403  0.5810 -2.5351
   75MOL0     H10063  -0.476   6.923   8.791  0.6915 -1.3348  0.7225
   75MOL0     H10064  -0.605   7.140   8.780 -0.8643  0.9175 -0.2256
   75MOL0     H10065  -0.745   7.071   8.848 -0.3631 -0.8455 -0.6822
   75MOL0     H10066  -0.641   6.987   8.582 -1.3406 -0.9305 -1.5424
   75MOL0     H10067  -0.775   6.912   8.664 -4.0157  1.0026 -1.8824
   75MOL0     H10068  -0.874   7.164   8.692  0.1942  1.0496  0.3851
   75MOL0     H10069  -0.746   7.216   8.599  0.4137 -0.6139  0.9538
   75MOL0     H10070  -0.923   7.200   8.438  0.3925  2.2220  2.3032
   75MOL0     H10071  -0.807   7.074   8.408 -1.4718  3.4813 -1.8709
   75MOL0     H10072  -1.057   7.047   8.570  1.9851  1.8840  1.2549
   75MOL0     H10073  -0.953   6.916   8.528  0.0036  0.4499 -1.7147
   75MOL0     H10074  -1.140   6.905   8.356 -0.2397  0.5063  0.1500
   75MOL0     H10075  -1.123   7.069   8.322 -0.9334 -0.4986  0.2907
   75MOL0     H10076  -0.907   7.147   8.168  0.4929  0.4795  2.6606
   75MOL0     H10077  -0.685   6.935   7.935  0.6963 -0.3556  0.8108
   75MOL0     H10078  -0.696   7.104   8.005  0.3012 -0.3672 -1.3614
   75MOL0     H10079  -0.555   7.023   8.192 -0.9763 -1.0846  0.4654
   75MOL0     H10080  -0.541   6.865   8.117 -0.9101 -0.7963  1.6259
   75MOL0     H10081  -0.441   7.136   8.037 -0.5486  0.3205 -1.7402
   75MOL0     H10082  -0.444   7.013   7.914 -0.2869  0.0840  0.2691
   75MOL0     H10083  -0.222   7.057   8.038  1.5092 -0.4545  3.9924
   75MOL0     H10084  -0.273   6.900   7.996 -2.5496 -0.8662  0.4446
   75MOL0     H10085  -0.067   6.908   8.112 -5.3780  1.0204  0.3761
   75MOL0     H10086   0.149   6.941   8.242 -0.6210  2.7899 -0.5734
   75MOL0     H10087   0.470   6.705   8.463 -1.6212  0.2408  0.1915
   75MOL0     H10088   0.678   6.706   8.578  0.6582  0.7109 -3.7515
   75MOL0     H10089   0.777   6.747   8.841  2.2349  0.2682  2.5761
   75MOL0     H10090   0.872   6.727   8.693  0.0099 -1.4731  1.3802
   75MOL0     H10091   0.958   6.937   8.884 -1.5881  0.1824  0.9664
   75MOL0     H10092   0.959   6.772   8.943 -0.3886 -1.8287 -1.6369
   75MOL0     H10093   1.117   6.714   8.772  0.3972 -0.4633  0.6706
   75MOL0     H10094   1.096   6.875   8.689  0.7284 -0.2948 -0.0463
   75MOL0     H10095   1.197   6.800   8.971 -2.8982 -1.5508 -0.4339
   75MOL0     H10096   1.169   6.967   8.907 -0.5170  0.5337 -0.2836
   75MOL0     H10097   1.406   6.935   8.872  0.2113 -0.6304  0.1810
   75MOL0     H10098   1.337   6.894   8.711 -2.1514 -0.1062 -0.3944
   75MOL0     H10099   1.433   6.704   8.923 -1.5308  0.5128  1.1174
   75MOL0     H10100   1.323   6.649   8.798  0.2938 -1.2018  2.0762
   75MOL0     H10101   1.562   6.820   8.724 -0.1253  0.1782  3.4498
   75MOL0     H10102   1.516   6.682   8.630  2.2282 -1.0010 -0.2472
   75MOL0     H10103   1.696   6.679   8.868  5.6990  0.5561 -2.8563
   75MOL0     H10104   1.627   6.528   8.830 -0.6860  1.3193  1.5605
   75MOL0     H10105   0.619   7.118   8.661 -0.7467 -0.0705  1.5560
   75MOL0     H10106   0.409   7.113   8.546 -1.5455 -0.9948 -0.6721
   75MOL0     H10107  -0.071   6.957   8.604  0.0272 -0.4680 -0.1843
   75MOL0     H10108  -0.277   6.975   8.462  0.9682 -0.1169  2.3584
   75MOL0     H10109  -0.283   6.919   8.863 -2.2715  0.4067  1.7986
   75MOL0     H10110  -0.047   6.941   8.856 -0.7194 -2.3974  2.1602
   75MOL0     H10111   0.267   7.265   9.053 -1.9560  0.0924 -3.0470
   75MOL0     H10112   0.479   7.355   9.059  0.1498 -0.8543  0.8643
   75MOL0     H10113   0.791   7.204   8.825  0.0638  0.1859 -0.3366
   75MOL0     H10114   0.836   7.091   8.944  2.6270  0.5795 -2.6996
   75MOL0     H10115   0.912   7.284   9.098 -0.8863 -1.0523  0.4438
   75MOL0     H10116   0.926   7.382   8.951 -2.2885 -1.3276 -3.1197
   75MOL0     H10117   1.081   7.211   8.863  0.2987  0.8015  0.1522
   75MOL0     H10118   1.047   7.101   9.002  1.0795 -0.7996 -1.7781
   75MOL0     H10119   1.155   7.382   8.996  0.5470  0.3275 -2.4940
   75MOL0     H10120   1.134   7.286   9.151  2.2459 -1.8070 -0.3141
   75MOL0     H10121   1.501   7.138   9.000  1.0438  0.6091  3.7663
   75MOL0     H10122   0.653   6.977   8.970 -0.9118  0.2257 -0.4053
   75MOL0     H10123   0.528   6.791   8.933 -0.4854 -0.0493  0.4017
   75MOL0     H10124   0.399   6.780   9.054 -0.8678 -1.5495 -0.3700
   75MOL0     H10125   0.348   6.806   8.886  0.2290  2.1129 -1.3701
   76MOL0     O10126   8.678   1.947   2.857 -0.0933  0.4048  0.0039
   76MOL0     C10127   8.658   1.824   2.872  0.2144  0.0895  0.7205
   76MOL0     O10128   8.751   1.731   2.910 -0.3865 -0.6884  0.3452
   76MOL0     C10129   8.863   1.778   2.969  0.4784  0.0227 -0.3676
   76MOL0     C10130   8.976   1.705   2.947 -0.2384  0.2635 -0.3320
   76MOL0     C10131   9.089   1.723   3.027 -0.1041  0.4774  0.7642
   76MOL0     C10132   9.105   1.830   3.110 -0.1067 -0.5820  0.0762
   76MOL0     O10133   9.225   1.864   3.170  0.0589  1.0354  0.1299
   76MOL0     C10134   9.234   1.837   3.314 -0.5868 -0.6595  0.6688
   76MOL0     C10135   9.243   1.686   3.356 -0.8934  0.0460  0.9083
   76MOL0     C10136   9.343   1.600   3.280  0.5039 -0.1020 -0.2212
   76MOL0     C10137   9.307   1.446   3.294 -0.2954 -1.2960  0.0363
   76MOL0     C10138   9.430   1.366   3.253  0.7975 -0.2686 -0.0199
   76MOL0     C10139   9.421   1.221   3.290  0.4894 -0.1631 -0.2246
   76MOL0     C10140   9.341   1.146   3.186 -0.4750  0.0845 -0.7390
   76MOL0     C10141   9.309   0.993   3.220  0.3695 -0.6664  0.9020
   76MOL0     N10142   9.269   0.931   3.098  0.2838  0.2591  0.6146
   76MOL0     C10143   9.142   0.930   3.055  0.0549 -0.2836  0.5525
   76MOL0     C10144   9.142   0.844   2.954  0.0184 -0.6029 -0.2053
   76MOL0     C10145   9.019   0.787   2.872  0.3893 -0.8702 -0.5873
   76MOL0     C10146   8.964   0.671   2.950  0.2503 -0.4054 -0.4389
   76MOL0     C10147   9.054   0.553   2.984  0.8956 -0.4177 -0.2574
   76MOL0     C10148   9.100   0.488   2.852 -0.1222  0.2188 -0.2239
   76MOL0     O10149   9.169   0.364   2.867  0.4208 -0.3623  0.1713
   76MOL0     C10150   9.296   0.374   2.906  0.6620  0.1849 -0.0221
   76MOL0     C10151   9.384   0.483   2.882 -0.6576 -0.0669  0.4457
   76MOL0     C10152   9.524   0.481   2.903 -0.0288  0.3523 -0.4393
   76MOL0     C10153   9.580   0.375   2.968  0.0143  0.0136  1.0784
   76MOL0     C10154   9.726   0.378   2.996 -0.1739 -0.3599  0.4309
   76MOL0     O10155   9.767   0.265   3.064  0.2306 -0.1906  0.5423
   76MOL0     C10156   9.898   0.263   3.094 -0.3156  0.0544 -0.2602
   76MOL0     C10157   9.942   0.301   3.225  0.4966 -0.1751 -0.3319
   76MOL0     C10158  10.076   0.306   3.247 -0.7045  1.4519  0.0102
   76MOL0     C10159  10.168   0.268   3.152  0.1752 -0.1593  0.2035
   76MOL0     O10160  10.307   0.275   3.173  0.9421 -0.0528 -0.1496
   76MOL0     C10161  10.343   0.247   3.315  0.4389 -0.6762 -0.0665
   76MOL0     C10162  10.469   0.171   3.313 -0.4015  0.1221 -0.2265
   76MOL0     C10163  10.585   0.261   3.280 -0.5861  0.0481 -0.2374
   76MOL0     C10164  10.726   0.198   3.306  0.0301 -0.6171 -0.0920
   76MOL0     C10165  10.841   0.306   3.272 -0.5818  0.1873 -0.8436
   76MOL0     C10166  10.977   0.256   3.306 -0.2122 -0.3733  0.3295
   76MOL0     C10167  11.081   0.367   3.333  0.5632  0.4495  0.1576
   76MOL0     C10168  11.215   0.311   3.383 -0.1722 -0.7600 -0.3442
   76MOL0    Cl10169  11.323   0.443   3.428  0.3045  0.4170 -0.6353
   76MOL0     C10170  10.122   0.215   3.030 -0.1099  0.4480  0.3756
   76MOL0     C10171   9.988   0.213   3.003  0.4627 -0.1633 -0.0037
   76MOL0     O10172   9.801   0.466   2.951 -0.4570 -0.5537  1.1439
   76MOL0     C10173   9.490   0.269   3.009 -0.4273  0.6806 -0.1758
   76MOL0     C10174   9.355   0.270   2.971 -0.4533  0.0769  0.3719
   76MOL0     N10175   9.267   0.789   2.940 -0.4436  0.4550 -0.0321
   76MOL0     N10176   9.349   0.851   3.020 -0.4471 -0.7846  0.5003
   76MOL0     C10177   8.999   1.918   3.125  0.8061  0.5668  0.2164
   76MOL0     C10178   8.879   1.879   3.065  0.4189 -0.1196  0.4385
   76MOL0     C10179   8.519   1.763   2.834  0.5251  0.4484 -0.2007
   76MOL0     C10180   8.504   1.625   2.825 -0.2068  0.8630  0.1825
   76MOL0     C10181   8.379   1.568   2.810  0.8540 -0.0669  0.4385
   76MOL0     C10182   8.265   1.642   2.784  0.6913 -0.1999  0.3438
   76MOL0     O10183   8.153   1.566   2.777  0.6045  0.1618  0.5651
   76MOL0     C10184   8.039   1.641   2.733  1.3503  0.3122  0.4260
   76MOL0     C10185   7.933   1.536   2.708 -0.3777  0.3439  1.2407
   76MOL0     C10186   7.797   1.593   2.654 -0.7735  0.7847 -0.1126
   76MOL0     C10187   7.700   1.490   2.599 -0.2124 -0.0053  0.1687
   76MOL0     C10188   7.667   1.396   2.704  0.6406  1.0713 -0.4335
   76MOL0     C10189   7.647   1.315   2.788 -0.1066  0.5115 -0.7409
   76MOL0     C10190   8.287   1.780   2.782  0.5924 -0.0489  0.3887
   76MOL0     C10191   8.409   1.840   2.803  0.4762  0.0800  1.6131
   76MOL0     C10192   8.398   1.987   2.793 -0.9458  0.2101 -0.1663
   76MOL0     H10193   8.975   1.620   2.880 -0.9693  0.4822 -0.6019
   76MOL0     H10194   9.170   1.651   3.022 -1.7610 -1.4754  0.5912
   76MOL0     H10195   9.330   1.877   3.348  0.7359 -1.0750 -2.3330
   76MOL0     H10196   9.150   1.885   3.366 -0.6925  0.6308 -0.6345
   76MOL0     H10197   9.150   1.637   3.326 -0.1582 -0.0470 -1.4664
   76MOL0     H10198   9.253   1.690   3.465 -2.3321  2.4096  1.0195
   76MOL0     H10199   9.444   1.616   3.319  0.6887 -0.0315 -0.7245
   76MOL0     H10200   9.345   1.627   3.174 -1.4708  1.6724  0.1242
   76MOL0     H10201   9.295   1.418   3.398 -2.6979  1.5476  0.6876
   76MOL0     H10202   9.220   1.418   3.233  1.5212 -4.0236 -1.5130
   76MOL0     H10203   9.441   1.376   3.144 -1.0101 -0.2466 -0.2256
   76MOL0     H10204   9.522   1.405   3.299  1.4819 -2.9452  1.0787
   76MOL0     H10205   9.521   1.177   3.292  1.2231  1.3507 -1.4446
   76MOL0     H10206   9.374   1.223   3.388 -0.2227  0.8493 -0.5678
   76MOL0     H10207   9.397   1.136   3.093 -0.1011 -3.4660 -0.2827
   76MOL0     H10208   9.246   1.198   3.176 -1.0230 -0.3595  1.5686
   76MOL0     H10209   9.399   0.943   3.255  2.0667 -0.5475 -2.7915
   76MOL0     H10210   9.231   0.971   3.294 -1.1469 -0.3591 -0.5567
   76MOL0     H10211   9.064   1.001   3.081 -0.7348 -0.9654  0.0914
   76MOL0     H10212   8.946   0.867   2.862  1.9613  0.6912 -0.1013
   76MOL0     H10213   9.058   0.750   2.777  2.3148 -0.5646  0.0455
   76MOL0     H10214   8.913   0.704   3.041  0.4740  1.8944 -1.0699
   76MOL0     H10215   8.883   0.631   2.889  2.0711 -2.0724 -1.8908
   76MOL0     H10216   9.001   0.481   3.046 -0.8463  1.4473  0.5302
   76MOL0     H10217   9.142   0.577   3.044  1.8896 -0.6082 -1.5849
   76MOL0     H10218   9.160   0.558   2.793  0.7518 -1.2737 -1.1735
   76MOL0     H10219   9.010   0.465   2.795 -0.3402 -0.6119  0.4326
   76MOL0     H10220   9.352   0.578   2.843 -3.3091 -1.0382  0.0598
   76MOL0     H10221   9.579   0.573   2.889 -0.0375  0.5382  0.6604
   76MOL0     H10222   9.870   0.330   3.301  1.3247 -1.2427  0.9022
   76MOL0     H10223  10.104   0.326   3.350 -1.9624  0.3624  0.5821
   76MOL0     H10224  10.354   0.339   3.373 -1.5382  0.4598 -1.3780
   76MOL0     H10225  10.269   0.186   3.368 -0.4818 -2.2197 -2.9229
   76MOL0     H10226  10.489   0.125   3.411  1.4827  4.2666  1.5503
   76MOL0     H10227  10.453   0.087   3.244  1.0494  1.0507 -1.7449
   76MOL0     H10228  10.577   0.292   3.175  2.5917 -0.9109 -0.8607
   76MOL0     H10229  10.584   0.352   3.340 -0.5808  0.0424 -0.2284
   76MOL0     H10230  10.727   0.112   3.238 -1.4346 -0.8540  0.1567
   76MOL0     H10231  10.734   0.159   3.408  0.6297 -0.0820  0.0756
   76MOL0     H10232  10.828   0.405   3.317  1.2952  0.7833 -1.5099
   76MOL0     H10233  10.844   0.334   3.166  0.1009 -0.0531 -0.8937
   76MOL0     H10234  10.975   0.194   3.397  2.0952  0.4606  1.0004
   76MOL0     H10235  11.006   0.188   3.226 -0.5280  0.4828 -0.5252
   76MOL0     H10236  11.050   0.447   3.401  2.2607  1.8644 -0.6169
   76MOL0     H10237  11.102   0.420   3.239  1.2048  0.4244  0.2765
   76MOL0     H10238  11.192   0.251   3.472 -1.5043  1.6378  1.0444
   76MOL0     H10239  11.266   0.250   3.309  1.9227  1.9381 -1.3007
   76MOL0     H10240  10.193   0.193   2.951 -0.2180  1.1410  0.0712
   76MOL0     H10241   9.947   0.180   2.908 -0.4195 -0.4822  0.4723
   76MOL0     H10242   9.536   0.191   3.069  5.1478  1.5052 -2.8105
   76MOL0     H10243   9.303   0.175   2.981  0.5074 -0.4807  0.2049
   76MOL0     H10244   9.010   2.008   3.184  0.5520  0.5148  0.3470
   76MOL0     H10245   8.797   1.947   3.089  0.5590 -0.3418  1.6067
   76MOL0     H10246   8.593   1.562   2.828  0.0044  1.0767 -1.2430
   76MOL0     H10247   8.373   1.459   2.815 -2.2612  0.0555  2.5453
   76MOL0     H10248   8.064   1.701   2.645 -1.6248  2.3766  0.8369
   76MOL0     H10249   8.001   1.719   2.799 -2.6085 -1.6095  0.7020
   76MOL0     H10250   7.914   1.480   2.800 -0.9826  0.2123  1.0418
   76MOL0     H10251   7.961   1.470   2.626  0.8089  0.4349  1.5513
   76MOL0     H10252   7.818   1.666   2.575  3.9458 -0.4871 -0.3702
   76MOL0     H10253   7.749   1.658   2.727 -1.2727 -1.1549  1.3682
   76MOL0     H10254   7.608   1.544   2.572  0.3556  1.0729  0.3436
   76MOL0     H10255   7.741   1.425   2.521  0.2732 -2.7010  2.4881
   76MOL0     H10256   7.644   1.231   2.855 -1.2668 -0.2771 -1.7355
   76MOL0     H10257   8.198   1.838   2.763  0.2371 -0.7545 -0.1497
   76MOL0     H10258   8.298   2.026   2.776 -2.4412 -3.6136 -1.3457
   76MOL0     H10259   8.432   2.028   2.889  0.6803  3.9233 -2.1298
   76MOL0     H10260   8.470   2.039   2.729 -0.8501 -0.0119 -0.2434
   77MOL0     O10261   2.891   0.186   1.418  0.2923  0.6362 -0.5226
   77MOL0     C10262   2.815   0.244   1.353  0.1746  0.1910  0.3473
   77MOL0     O10263   2.844   0.336   1.252 -0.2232  0.2725  0.1248
   77MOL0     C10264   2.967   0.337   1.200  0.2271 -1.0109 -0.0366
   77MOL0     C10265   2.981   0.329   1.063 -0.4781  0.5949 -0.5030
   77MOL0     C10266   3.099   0.360   1.008  0.1010  0.3552  0.9836
   77MOL0     C10267   3.219   0.384   1.080 -0.9611 -0.2513  0.5865
   77MOL0     O10268   3.336   0.396   1.012 -0.1409  0.0174  0.1327
   77MOL0     C10269   3.457   0.435   1.088 -0.8583 -0.4322  0.6069
   77MOL0     C10270   3.577   0.459   0.987  0.4865 -0.2092  0.6801
   77MOL0     C10271   3.601   0.344   0.883  0.5561  0.2184  0.1289
   77MOL0     C10272   3.507   0.339   0.763 -0.2410 -0.1505  0.3396
   77MOL0     C10273   3.539   0.220   0.659  0.2282 -0.7708  0.2866
   77MOL0     C10274   3.468   0.238   0.525 -0.8034 -1.0835  0.3723
   77MOL0     C10275   3.566   0.250   0.409  0.0278 -0.4115 -0.3464
   77MOL0     C10276   3.651   0.125   0.376  0.5670  0.5044  0.1459
   77MOL0     N10277   3.760   0.161   0.282  0.3181  0.3275  0.6000
   77MOL0     C10278   3.844   0.278   0.293 -0.3906  0.1102  0.5324
   77MOL0     C10279   3.897   0.291   0.169 -0.4072 -0.5567 -0.5991
   77MOL0     C10280   4.007   0.393   0.146  0.1663  0.5257 -0.2099
   77MOL0     C10281   4.147   0.316   0.142  0.3453 -0.4690  0.5496
   77MOL0     C10282   4.175   0.258   0.000  0.4926  1.0049  0.0199
   77MOL0     C10283   4.310   0.189  -0.011 -0.1884 -0.2570  0.7483
   77MOL0     O10284   4.420   0.279   0.016  0.2583 -0.1515 -0.1645
   77MOL0     C10285   4.548   0.231   0.009 -0.5605 -0.4054  0.3464
   77MOL0     C10286   4.659   0.317   0.002  0.1908 -0.6498 -0.3600
   77MOL0     C10287   4.791   0.267   0.000 -0.2914 -0.6514  0.1424
   77MOL0     C10288   4.817   0.131  -0.018 -0.7895 -0.3561  0.0875
   77MOL0     C10289   4.953   0.071  -0.021 -0.0426 -0.1733  0.1205
   77MOL0     O10290   5.054   0.147  -0.055 -0.6254 -0.2236 -0.3573
   77MOL0     C10291   5.174   0.088  -0.088  0.6449  0.5399  0.3454
   77MOL0     C10292   5.188  -0.028  -0.159  0.1744 -0.5094  0.9652
   77MOL0     C10293   5.311  -0.076  -0.183 -0.2151 -0.1449  0.0101
   77MOL0     C10294   5.425  -0.006  -0.136 -0.3980  0.5332 -0.5038
   77MOL0     O10295   5.544  -0.068  -0.164 -0.1213 -0.6975 -0.1226
   77MOL0     C10296   5.665   0.009  -0.145 -0.6564  0.2532  0.2851
   77MOL0     C10297   5.758  -0.039  -0.240  0.3864 -1.1558  0.3040
   77MOL0     C10298   5.876   0.061  -0.230 -0.4755 -0.3924  0.4681
   77MOL0     C10299   5.987   0.029  -0.324 -0.2326  0.1536  0.4497
   77MOL0     C10300   6.098   0.139  -0.315  0.0392  0.1107  0.1670
   77MOL0     C10301   6.075   0.284  -0.355  0.9437  0.1687  0.8231
   77MOL0     C10302   6.033   0.309  -0.497  0.0694  0.5977 -0.1954
   77MOL0     C10303   6.011   0.461  -0.523 -0.8986  0.2738 -0.5681
   77MOL0    Cl10304   6.184   0.538  -0.521 -0.0356  0.4065 -0.3400
   77MOL0     C10305   5.408   0.100  -0.063 -0.4016  0.2113 -1.0399
   77MOL0     C10306   5.283   0.155  -0.037  0.4291  0.8172  0.2055
   77MOL0     O10307   4.963  -0.045   0.010  0.1835 -0.2442  0.2358
   77MOL0     C10308   4.706   0.041  -0.028  0.5047  0.2864  0.7736
   77MOL0     C10309   4.579   0.090  -0.002 -0.6386 -0.4779  0.5513
   77MOL0     N10310   3.840   0.193   0.086 -0.3192 -0.9536 -0.1267
   77MOL0     N10311   3.771   0.121   0.157  0.5042  0.0951  0.1743
   77MOL0     C10312   3.208   0.384   1.219 -0.0442 -1.5211 -0.0575
   77MOL0     C10313   3.084   0.374   1.278 -0.7207  0.1823  0.8579
   77MOL0     C10314   2.676   0.239   1.396  0.3738 -0.0063 -0.5749
   77MOL0     C10315   2.639   0.130   1.474  0.4710  0.3655  0.5837
   77MOL0     C10316   2.511   0.110   1.523 -0.5503  0.1497  0.0906
   77MOL0     C10317   2.415   0.210   1.502 -0.5828 -0.7251 -0.5850
   77MOL0     O10318   2.293   0.213   1.560  0.5548  0.2268  0.5779
   77MOL0     C10319   2.245   0.083   1.594  0.7101  0.5807  0.3878
   77MOL0     C10320   2.098   0.061   1.613  0.2258  0.1963 -0.1058
   77MOL0     C10321   2.019   0.106   1.494 -0.0532 -0.2195  0.5483
   77MOL0     C10322   1.880   0.051   1.486  0.7872  0.6100 -0.5640
   77MOL0     C10323   1.820   0.002   1.614  0.0922 -0.3534  0.0170
   77MOL0     C10324   1.768  -0.054   1.711  0.7470  0.7258  0.1312
   77MOL0     C10325   2.448   0.326   1.421 -0.7075 -0.4945 -1.0261
   77MOL0     C10326   2.578   0.341   1.365 -0.4433  0.5540  0.3957
   77MOL0     C10327   2.588   0.446   1.256 -0.8228  0.6183  0.4177
   77MOL0     H10328   2.891   0.337   1.002  0.0683 -1.0383 -1.5651
   77MOL0     H10329   3.115   0.360   0.901 -2.4268 -0.6850  0.5304
   77MOL0     H10330   3.440   0.524   1.148 -1.5885  0.3360 -0.6934
   77MOL0     H10331   3.504   0.358   1.150  3.1657  0.6256 -0.8452
   77MOL0     H10332   3.670   0.469   1.043 -1.8307 -0.2379  4.9497
   77MOL0     H10333   3.557   0.549   0.929 -0.6645  0.4939  2.1144
   77MOL0     H10334   3.610   0.246   0.931 -0.2840 -0.5004 -1.1098
   77MOL0     H10335   3.703   0.357   0.845  0.4579  2.6106  0.5776
   77MOL0     H10336   3.409   0.313   0.805  0.1036 -0.3147  1.0580
   77MOL0     H10337   3.505   0.430   0.702  0.7348  0.3041  0.9609
   77MOL0     H10338   3.647   0.205   0.649  0.4180  1.0288 -0.6841
   77MOL0     H10339   3.507   0.125   0.702 -0.5644  0.4542  2.5618
   77MOL0     H10340   3.416   0.144   0.504  0.2879 -2.4324  3.2717
   77MOL0     H10341   3.400   0.323   0.538  0.1357 -0.3382  0.4596
   77MOL0     H10342   3.636   0.330   0.437  1.2230 -1.2809 -0.7823
   77MOL0     H10343   3.503   0.278   0.324 -1.6554 -1.6930  0.4201
   77MOL0     H10344   3.695   0.076   0.463 -0.6089 -0.6284  0.1423
   77MOL0     H10345   3.579   0.063   0.321  2.2135 -2.2972  0.9194
   77MOL0     H10346   3.868   0.334   0.382 -0.1862 -0.9941  1.1909
   77MOL0     H10347   3.983   0.451   0.056 -2.7671 -0.5482 -0.2139
   77MOL0     H10348   4.009   0.466   0.227 -1.1755 -0.3648  0.6596
   77MOL0     H10349   4.231   0.383   0.167 -1.2492  1.2509  1.5523
   77MOL0     H10350   4.128   0.229   0.206 -5.0756 -0.6668 -0.8521
   77MOL0     H10351   4.178   0.346  -0.065  0.7564  1.0354  0.0711
   77MOL0     H10352   4.096   0.189  -0.032 -0.2217  2.0186 -0.4613
   77MOL0     H10353   4.335   0.150  -0.110  0.9953  1.5198  0.2837
   77MOL0     H10354   4.315   0.110   0.064  2.1403 -0.6155  0.2974
   77MOL0     H10355   4.658   0.424   0.017  4.9271 -0.4677  0.1352
   77MOL0     H10356   4.879   0.330   0.006 -1.0613  0.3542  1.7109
   77MOL0     H10357   5.107  -0.094  -0.188 -2.2628  1.5479  2.6535
   77MOL0     H10358   5.318  -0.168  -0.240  0.6188  0.3262 -0.6763
   77MOL0     H10359   5.635   0.111  -0.170 -0.9423  0.2698  0.6861
   77MOL0     H10360   5.709  -0.003  -0.046 -0.5693 -2.9361 -0.0097
   77MOL0     H10361   5.798  -0.130  -0.196  1.4825  1.1330  4.5421
   77MOL0     H10362   5.727  -0.028  -0.345  1.1067  2.0756  0.3295
   77MOL0     H10363   5.842   0.163  -0.253  2.3524  0.5521 -0.0293
   77MOL0     H10364   5.908   0.059  -0.126  1.3168 -2.9384 -0.0501
   77MOL0     H10365   5.956   0.019  -0.428 -1.5047  1.4876  0.6614
   77MOL0     H10366   6.030  -0.065  -0.287  0.1499  0.3048  0.3918
   77MOL0     H10367   6.190   0.113  -0.368 -0.7752  1.7917 -2.2462
   77MOL0     H10368   6.117   0.145  -0.207 -0.9700 -2.0583  0.5287
   77MOL0     H10369   5.992   0.311  -0.289  1.2429 -0.8308  1.6272
   77MOL0     H10370   6.162   0.346  -0.331  0.3650  0.4971  2.1648
   77MOL0     H10371   5.944   0.251  -0.522  0.2260  0.1297  0.3054
   77MOL0     H10372   6.112   0.273  -0.563  1.2417  0.1203  1.4001
   77MOL0     H10373   5.970   0.480  -0.623  0.8721  0.4003 -1.3046
   77MOL0     H10374   5.950   0.497  -0.440  0.1458 -2.4744  1.5492
   77MOL0     H10375   5.487   0.138  -0.000 -2.4467 -0.4360  2.1711
   77MOL0     H10376   5.274   0.245   0.023  1.0585  0.1407  1.3534
   77MOL0     H10377   4.731  -0.063  -0.043  0.5034  0.5059 -0.9398
   77MOL0     H10378   4.509   0.007  -0.008 -0.7485 -0.4358  1.1521
   77MOL0     H10379   3.297   0.398   1.279  0.6419  2.9597 -1.7147
   77MOL0     H10380   3.075   0.379   1.386  0.3169  0.8561  0.9202
   77MOL0     H10381   2.706   0.047   1.496  0.6055  0.9125  2.3875
   77MOL0     H10382   2.482   0.022   1.580 -1.2713  0.4634  0.2269
   77MOL0     H10383   2.301   0.053   1.683  0.8510 -0.8475 -0.1467
   77MOL0     H10384   2.272   0.016   1.511 -0.7709 -0.4781  0.7273
   77MOL0     H10385   2.060   0.114   1.701 -0.5721  0.2983 -0.4984
   77MOL0     H10386   2.075  -0.044   1.631 -2.1256  1.0572  2.8238
   77MOL0     H10387   2.073   0.066   1.408  0.3396 -0.7393  1.0301
   77MOL0     H10388   2.016   0.215   1.491  2.3706 -0.0982 -1.8046
   77MOL0     H10389   1.801   0.117   1.450  0.4402  0.3751 -0.2375
   77MOL0     H10390   1.881  -0.036   1.419  1.6964 -0.1746  0.4271
   77MOL0     H10391   1.724  -0.104   1.794  2.6458 -0.0896  0.6895
   77MOL0     H10392   2.377   0.406   1.404  1.8803  1.7882 -1.8335
   77MOL0     H10393   2.669   0.515   1.281 -0.0679  0.3336 -1.1111
   77MOL0     H10394   2.617   0.408   1.158 -0.2946  0.7217  0.5296
   77MOL0     H10395   2.494   0.501   1.250 -0.1656  1.7948  0.6204
   78MOL0     O10396   3.238   6.537   7.297  0.1476 -0.4771 -0.0918
   78MOL0     C10397   3.242   6.464   7.396  0.3699 -0.5571  0.2081
   78MOL0     O10398   3.338   6.454   7.487  0.4370 -0.2397 -0.6002
   78MOL0     C10399   3.464   6.507   7.464  0.4939  0.6687 -0.0478
   78MOL0     C10400   3.558   6.444   7.392 -1.0491  0.1668 -0.2688
   78MOL0     C10401   3.688   6.493   7.366  0.0125  0.5211 -0.2007
   78MOL0     C10402   3.718   6.623   7.410 -0.0519 -0.4935  0.8029
   78MOL0     O10403   3.833   6.683   7.367 -0.1361 -0.4700  0.1380
   78MOL0     C10404   3.856   6.818   7.411  0.4045 -0.1291  0.9487
   78MOL0     C10405   4.008   6.841   7.377 -0.3839 -1.1765  0.4043
   78MOL0     C10406   4.038   6.838   7.232  0.2327  0.9820  0.3111
   78MOL0     C10407   4.158   6.929   7.196 -0.1349 -0.5505 -0.2198
   78MOL0     C10408   4.180   6.949   7.054 -0.0081  0.6218 -1.0792
   78MOL0     C10409   4.307   7.038   7.017 -0.1944 -0.6677 -0.0171
   78MOL0     C10410   4.446   6.994   7.077  0.1430 -0.1717 -0.8496
   78MOL0     C10411   4.502   6.855   7.045 -0.6867  0.0188  0.6309
   78MOL0     N10412   4.510   6.815   6.901  0.1261  0.2883 -0.0280
   78MOL0     C10413   4.437   6.730   6.832 -0.0320  0.4325  0.6517
   78MOL0     C10414   4.490   6.734   6.709 -0.6664 -0.2742 -0.5882
   78MOL0     C10415   4.452   6.638   6.599  0.0943  0.8282 -0.5646
   78MOL0     C10416   4.510   6.494   6.610  0.1252 -0.6082 -0.1926
   78MOL0     C10417   4.666   6.491   6.610 -0.3519 -1.1610 -0.0852
   78MOL0     C10418   4.719   6.493   6.461  0.3531 -0.0872 -0.1742
   78MOL0     O10419   4.866   6.505   6.479  0.0368  0.5325  0.1573
   78MOL0     C10420   4.959   6.486   6.379  0.3878  0.1738 -1.0432
   78MOL0     C10421   5.087   6.482   6.413  0.4367 -0.9816  0.5839
   78MOL0     C10422   5.186   6.487   6.320  0.0796  0.3808 -0.0126
   78MOL0     C10423   5.155   6.499   6.184  1.0375 -0.3664 -0.6080
   78MOL0     C10424   5.255   6.488   6.079  0.0138  0.8770  0.1087
   78MOL0     O10425   5.375   6.523   6.113  0.4018 -0.3970 -0.0781
   78MOL0     C10426   5.475   6.486   6.035 -1.1693  0.5880  0.1857
   78MOL0     C10427   5.524   6.576   5.936 -0.1375  0.4975 -0.5693
   78MOL0     C10428   5.633   6.544   5.857  0.4672  0.1925 -0.3548
   78MOL0     C10429   5.691   6.410   5.864 -0.1907 -0.1062 -0.8504
   78MOL0     O10430   5.802   6.369   5.796 -0.1770 -0.0600 -0.3766
   78MOL0     C10431   5.853   6.467   5.710 -0.3560  0.1465 -0.6973
   78MOL0     C10432   5.965   6.398   5.636  0.2498  0.0888 -0.4561
   78MOL0     C10433   5.914   6.293   5.540 -0.7319  0.1007  0.1321
   78MOL0     C10434   6.032   6.259   5.441  0.1170  0.7155 -0.2395
   78MOL0     C10435   5.968   6.154   5.343 -0.6740  0.6584  0.5516
   78MOL0     C10436   6.060   6.126   5.226  0.0851  0.1739  0.5680
   78MOL0     C10437   6.032   5.985   5.176  0.6537  0.9554  0.0984
   78MOL0     C10438   5.921   5.981   5.067  0.6201 -0.3784  0.0900
   78MOL0    Cl10439   5.903   5.808   5.003  0.1802 -0.2125 -0.0686
   78MOL0     C10440   5.635   6.320   5.954 -0.1943 -0.0063  0.1994
   78MOL0     C10441   5.536   6.363   6.045  0.2444  0.0836 -1.2033
   78MOL0     O10442   5.218   6.440   5.963  0.0832  0.0813 -0.2505
   78MOL0     C10443   5.017   6.507   6.149 -0.2581 -0.6662 -0.8206
   78MOL0     C10444   4.921   6.493   6.249 -0.3280 -0.5822  0.0076
   78MOL0     N10445   4.595   6.826   6.698  0.5840 -1.2830 -0.6756
   78MOL0     N10446   4.607   6.865   6.820 -0.8350 -0.2676  0.1035
   78MOL0     C10447   3.617   6.690   7.485 -0.0374 -0.5879 -0.2994
   78MOL0     C10448   3.495   6.622   7.519 -0.3825 -0.0882 -0.0975
   78MOL0     C10449   3.117   6.375   7.416 -0.0734 -0.3616 -0.1488
   78MOL0     C10450   3.000   6.393   7.343  0.2412  0.0410 -0.3888
   78MOL0     C10451   2.880   6.319   7.344  0.7178  0.1184  0.1071
   78MOL0     C10452   2.876   6.217   7.438 -0.4215 -1.2383 -0.1164
   78MOL0     O10453   2.768   6.139   7.448 -0.2467  0.0985  0.7955
   78MOL0     C10454   2.790   6.011   7.387  0.1818 -0.0257  0.8238
   78MOL0     C10455   2.648   5.971   7.339  0.0333  0.8225  0.0637
   78MOL0     C10456   2.551   5.919   7.443  1.0177  0.0751 -0.3870
   78MOL0     C10457   2.412   5.947   7.402 -0.2922  1.0206 -0.2916
   78MOL0     C10458   2.384   5.870   7.282 -0.1348 -0.2254  0.3170
   78MOL0     C10459   2.353   5.812   7.170  0.5051  0.1949  0.1891
   78MOL0     C10460   2.984   6.197   7.527  0.1260 -0.0152 -0.3975
   78MOL0     C10461   3.110   6.271   7.511 -0.1899 -0.3624  0.1001
   78MOL0     C10462   3.225   6.223   7.590  0.5175  0.3157 -0.4351
   78MOL0     H10463   3.533   6.346   7.352  2.7532 -1.2348  0.4176
   78MOL0     H10464   3.760   6.435   7.309 -0.8858 -1.9122  1.0065
   78MOL0     H10465   3.801   6.885   7.345  1.3498  0.2057  0.4780
   78MOL0     H10466   3.838   6.824   7.519  1.7463 -1.4233  1.2688
   78MOL0     H10467   4.064   6.758   7.421 -1.1305 -1.1774  1.4011
   78MOL0     H10468   4.033   6.933   7.431  3.0607 -3.2868  2.7467
   78MOL0     H10469   3.953   6.873   7.172 -1.2525 -2.5804  0.0635
   78MOL0     H10470   4.041   6.735   7.195 -0.2368  2.0263 -2.9283
   78MOL0     H10471   4.152   7.027   7.243 -1.6404 -0.8429  0.2617
   78MOL0     H10472   4.253   6.883   7.226 -0.2894 -1.2504 -0.7746
   78MOL0     H10473   4.201   6.849   7.016 -0.4186  0.8389 -1.9006
   78MOL0     H10474   4.091   6.998   7.012 -1.7552  0.0216  1.6787
   78MOL0     H10475   4.315   7.049   6.909 -0.3920 -1.4234 -0.1124
   78MOL0     H10476   4.285   7.137   7.059 -2.6428 -0.5823 -1.3381
   78MOL0     H10477   4.440   7.010   7.186 -0.3766  2.8947 -1.2182
   78MOL0     H10478   4.516   7.071   7.044  1.8697 -1.1235  0.4196
   78MOL0     H10479   4.604   6.850   7.083 -0.1984  0.3263 -0.5806
   78MOL0     H10480   4.439   6.781   7.095  0.5637  0.0118  2.2357
   78MOL0     H10481   4.360   6.661   6.863 -1.8100  1.0543 -2.0651
   78MOL0     H10482   4.343   6.631   6.597  0.1659 -0.7483 -2.5067
   78MOL0     H10483   4.485   6.681   6.503  0.4779  1.8549  0.0170
   78MOL0     H10484   4.478   6.444   6.701  0.6714 -2.8330 -1.1528
   78MOL0     H10485   4.474   6.427   6.532 -0.5050 -2.4241  1.5816
   78MOL0     H10486   4.700   6.401   6.661 -1.1959 -2.4018 -1.6443
   78MOL0     H10487   4.704   6.579   6.663 -1.3659  0.9725 -2.6819
   78MOL0     H10488   4.694   6.589   6.415 -1.8991 -0.2238  0.6430
   78MOL0     H10489   4.689   6.409   6.398 -1.2254 -0.4773  1.0467
   78MOL0     H10490   5.112   6.491   6.519  1.1445 -1.7093  0.4900
   78MOL0     H10491   5.287   6.471   6.356  0.1191 -1.7657 -0.9280
   78MOL0     H10492   5.476   6.673   5.933 -0.3520  0.4130  0.0784
   78MOL0     H10493   5.665   6.623   5.789  2.6325  0.7828  1.2320
   78MOL0     H10494   5.777   6.506   5.641  0.6862 -0.8410 -2.4759
   78MOL0     H10495   5.888   6.554   5.764 -0.6715 -0.5300  0.6414
   78MOL0     H10496   6.021   6.477   5.586  1.8251 -0.6654  0.0529
   78MOL0     H10497   6.038   6.353   5.704  0.7026 -1.9662 -2.2003
   78MOL0     H10498   5.888   6.198   5.588 -1.4105  0.6345  0.8467
   78MOL0     H10499   5.834   6.340   5.481 -0.3662  0.3275 -0.1917
   78MOL0     H10500   6.121   6.217   5.490  1.0348 -1.0614 -3.1235
   78MOL0     H10501   6.070   6.346   5.387 -0.4982 -0.1211 -2.1167
   78MOL0     H10502   5.872   6.191   5.306 -0.9445 -1.7199 -1.3917
   78MOL0     H10503   5.946   6.062   5.398 -1.8165 -0.4310 -1.5851
   78MOL0     H10504   6.056   6.190   5.137  0.2288 -0.4864  0.0807
   78MOL0     H10505   6.167   6.137   5.249  0.2129  0.8486 -0.2859
   78MOL0     H10506   6.012   5.918   5.259 -1.4885  0.7274 -0.5366
   78MOL0     H10507   6.122   5.953   5.123  0.2733 -1.2816  0.7098
   78MOL0     H10508   5.820   6.011   5.095 -0.1511  0.9381 -3.6062
   78MOL0     H10509   5.950   6.047   4.985  2.2123 -2.6172 -1.2913
   78MOL0     H10510   5.685   6.224   5.959  1.3986  0.7216 -0.8640
   78MOL0     H10511   5.502   6.300   6.127  0.1777  0.0325 -1.2713
   78MOL0     H10512   4.996   6.519   6.043 -2.1942 -1.1153 -0.5171
   78MOL0     H10513   4.815   6.493   6.225  0.0352  0.5269 -1.8388
   78MOL0     H10514   3.633   6.780   7.544  0.9191 -2.5293  2.6609
   78MOL0     H10515   3.421   6.672   7.581  0.0182 -0.5628  0.7902
   78MOL0     H10516   2.979   6.479   7.280 -1.0914  0.8413  1.0894
   78MOL0     H10517   2.792   6.347   7.286  0.9437 -1.5850 -1.1313
   78MOL0     H10518   2.831   5.946   7.464 -0.9489 -0.8789  0.7409
   78MOL0     H10519   2.862   6.008   7.304 -0.9593  1.9794 -0.3177
   78MOL0     H10520   2.657   5.901   7.255  0.5788  1.5720 -0.5192
   78MOL0     H10521   2.605   6.065   7.304 -2.1014  0.9019  2.6015
   78MOL0     H10522   2.559   5.966   7.542 -2.2708 -1.7512  0.9278
   78MOL0     H10523   2.566   5.813   7.467  1.4134  0.7543  2.9193
   78MOL0     H10524   2.331   5.922   7.472  0.4327 -3.7540 -0.8021
   78MOL0     H10525   2.398   6.054   7.381 -0.4842  1.6184  2.5320
   78MOL0     H10526   2.322   5.769   7.077 -1.6424  3.2746 -0.6794
   78MOL0     H10527   2.982   6.114   7.598 -0.0280  0.1126 -0.2516
   78MOL0     H10528   3.283   6.288   7.657  0.5153  0.8509 -0.9459
   78MOL0     H10529   3.193   6.133   7.644  5.4067 -1.6369 -0.2317
   78MOL0     H10530   3.298   6.183   7.519  0.2566 -0.1315 -0.4544
   79MOL0     O10531   5.854   8.554   5.730  0.0893  0.2289  0.0289
   79MOL0     C10532   5.785   8.631   5.671 -0.0571 -0.5940 -0.4852
   79MOL0     O10533   5.826   8.753   5.609  0.3495  0.0915 -0.4131
   79MOL0     C10534   5.957   8.789   5.638  0.3997 -0.0223  0.1279
   79MOL0     C10535   6.070   8.723   5.590 -0.2857  0.4210 -0.9276
   79MOL0     C10536   6.197   8.779   5.632  0.2885  0.0997  0.6216
   79MOL0     C10537   6.210   8.893   5.711 -0.9097  1.0868 -0.8384
   79MOL0     O10538   6.332   8.941   5.764  0.3062 -0.4875 -0.2662
   79MOL0     C10539   6.438   8.860   5.741 -1.0704  0.2365  0.1563
   79MOL0     C10540   6.562   8.948   5.774 -0.2385 -0.2119 -0.8015
   79MOL0     C10541   6.696   8.883   5.791  0.2653  0.2069  0.2855
   79MOL0     C10542   6.739   8.819   5.666 -0.3619 -0.0799 -0.3592
   79MOL0     C10543   6.877   8.765   5.665 -0.5067  0.5876 -1.0151
   79MOL0     C10544   6.907   8.718   5.524 -0.3908  1.3772  0.0075
   79MOL0     C10545   7.034   8.625   5.522 -0.7421  0.0740 -0.8133
   79MOL0     C10546   6.997   8.478   5.508 -0.6915 -0.9496 -0.0499
   79MOL0     N10547   7.114   8.393   5.486  0.0886  0.1748  1.0848
   79MOL0     C10548   7.180   8.385   5.366  0.1470 -0.1087  0.1473
   79MOL0     C10549   7.262   8.273   5.376  0.5830 -0.8248 -0.5260
   79MOL0     C10550   7.352   8.204   5.275  0.8965  0.7904 -0.8313
   79MOL0     C10551   7.305   8.210   5.136  0.3034 -0.2745  0.7080
   79MOL0     C10552   7.398   8.137   5.035  0.2579  0.3358  0.8446
   79MOL0     C10553   7.389   8.203   4.888  0.0571  0.1620 -0.3102
   79MOL0     O10554   7.263   8.267   4.866  0.8484 -0.2649 -0.4001
   79MOL0     C10555   7.153   8.192   4.833  0.0451  1.2607 -0.5880
   79MOL0     C10556   7.142   8.054   4.830  0.1942  0.1552 -0.1612
   79MOL0     C10557   7.017   7.995   4.807 -0.3491  0.6227  0.2738
   79MOL0     C10558   6.904   8.070   4.780  0.2631 -0.0863  0.3061
   79MOL0     C10559   6.774   8.017   4.740  0.7947 -0.1382 -0.0213
   79MOL0     O10560   6.682   8.113   4.706  0.4272  0.4376  0.4616
   79MOL0     C10561   6.554   8.071   4.675 -0.1503  0.0539  0.5481
   79MOL0     C10562   6.533   8.043   4.543 -0.1880 -0.5095 -0.1664
   79MOL0     C10563   6.400   8.025   4.496 -0.1764  0.2860 -0.2712
   79MOL0     C10564   6.288   8.017   4.588  0.6425  0.9795 -0.3922
   79MOL0     O10565   6.155   7.992   4.556  0.0762  0.4493 -0.2176
   79MOL0     C10566   6.136   7.985   4.412  0.9196  0.1778 -0.0255
   79MOL0     C10567   5.985   7.971   4.377 -0.9117 -0.6418  0.1143
   79MOL0     C10568   5.955   7.966   4.227 -0.8366 -0.0359 -0.3414
   79MOL0     C10569   5.808   7.915   4.225 -0.1600 -0.1242  0.1162
   79MOL0     C10570   5.747   7.921   4.081  0.0956 -0.9646  0.1142
   79MOL0     C10571   5.611   7.868   4.067  0.8430 -0.6299 -0.3373
   79MOL0     C10572   5.610   7.712   4.090 -0.5975 -0.2443  0.8159
   79MOL0     C10573   5.472   7.657   4.070 -0.1533 -0.0899  0.1489
   79MOL0    Cl10574   5.360   7.721   4.203  0.1517  0.3643 -0.0065
   79MOL0     C10575   6.313   8.030   4.727  0.1910 -0.0317 -0.0436
   79MOL0     C10576   6.451   8.051   4.768 -0.1756 -0.2517 -0.2005
   79MOL0     O10577   6.753   7.894   4.732  0.5861  0.0495  0.0475
   79MOL0     C10578   6.926   8.215   4.786  0.6760  0.1085  0.0787
   79MOL0     C10579   7.044   8.271   4.811 -0.6939 -0.0298  0.6468
   79MOL0     N10580   7.251   8.231   5.501 -1.3828  0.4073  0.1252
   79MOL0     N10581   7.172   8.305   5.569 -0.0776  0.0537 -0.5548
   79MOL0     C10582   6.093   8.968   5.747  0.5028  0.2719 -0.6128
   79MOL0     C10583   5.971   8.913   5.706 -0.4450 -0.0202  0.2969
   79MOL0     C10584   5.637   8.606   5.651 -0.3441  0.0285  0.1824
   79MOL0     C10585   5.551   8.715   5.632 -0.5790 -0.0486 -0.1553
   79MOL0     C10586   5.413   8.696   5.609  0.3562  0.1988  0.5225
   79MOL0     C10587   5.365   8.563   5.614  1.1743  0.6821  0.5203
   79MOL0     O10588   5.229   8.529   5.589  0.1447  0.0983 -0.6395
   79MOL0     C10589   5.124   8.621   5.610 -0.2357  0.0609 -0.0727
   79MOL0     C10590   4.999   8.531   5.617  0.1919  0.3607  0.2244
   79MOL0     C10591   4.881   8.620   5.593 -1.1552 -0.3878 -0.4763
   79MOL0     C10592   4.755   8.544   5.600  0.8907 -0.6112 -0.1390
   79MOL0     C10593   4.727   8.511   5.743 -0.2526 -0.6077  0.2350
   79MOL0     C10594   4.699   8.496   5.864  1.0166 -0.8564  0.7220
   79MOL0     C10595   5.451   8.461   5.623  0.1294  0.1205 -0.1249
   79MOL0     C10596   5.584   8.477   5.638 -0.5044 -0.0904  0.5600
   79MOL0     C10597   5.660   8.348   5.641  0.4398 -0.1672  0.0396
   79MOL0     H10598   6.065   8.643   5.517 -1.4282  0.1832 -0.6151
   79MOL0     H10599   6.279   8.717   5.598 -0.5944 -0.8237  0.1034
   79MOL0     H10600   6.444   8.769   5.801  0.6373  1.6280  2.2840
   79MOL0     H10601   6.448   8.828   5.637 -2.1338  1.2305 -0.2731
   79MOL0     H10602   6.543   8.992   5.873  0.7153 -0.5258 -0.4630
   79MOL0     H10603   6.561   9.027   5.699 -0.5752 -1.9919 -2.7416
   79MOL0     H10604   6.700   8.812   5.874  3.0579  0.8229  0.7675
   79MOL0     H10605   6.769   8.963   5.805  0.9409 -0.4884  0.7952
   79MOL0     H10606   6.682   8.728   5.643  1.2843 -1.0222 -0.8661
   79MOL0     H10607   6.744   8.886   5.580 -0.3581 -0.6923 -0.8474
   79MOL0     H10608   6.954   8.839   5.692  0.2789 -0.5496 -0.0614
   79MOL0     H10609   6.893   8.689   5.741  0.9841  1.1747 -0.7061
   79MOL0     H10610   6.820   8.673   5.476  0.6040 -0.7319  0.0781
   79MOL0     H10611   6.916   8.808   5.462 -0.7740  1.2888 -0.1761
   79MOL0     H10612   7.106   8.633   5.604 -2.2134  0.5252  0.4833
   79MOL0     H10613   7.083   8.663   5.431 -2.1467  2.5771 -0.6187
   79MOL0     H10614   6.961   8.438   5.603  2.6515 -2.1403  0.8390
   79MOL0     H10615   6.917   8.469   5.433 -1.7765  0.0705  0.9370
   79MOL0     H10616   7.166   8.451   5.281 -0.0436 -0.7383 -0.3151
   79MOL0     H10617   7.450   8.251   5.283  1.1966 -0.0215  0.8965
   79MOL0     H10618   7.355   8.097   5.300  1.3284  0.1618 -3.3570
   79MOL0     H10619   7.203   8.171   5.122  0.8021 -1.3609 -0.0751
   79MOL0     H10620   7.297   8.310   5.093  2.3538 -0.4371 -0.1459
   79MOL0     H10621   7.371   8.031   5.037  4.1838 -0.8566 -0.7429
   79MOL0     H10622   7.499   8.144   5.076  1.4513  2.7376 -2.1234
   79MOL0     H10623   7.413   8.133   4.808  1.2373  0.7052 -0.4588
   79MOL0     H10624   7.463   8.284   4.887 -0.5452  0.7161 -0.8130
   79MOL0     H10625   7.233   8.001   4.855 -0.8035 -1.5280 -0.0027
   79MOL0     H10626   6.998   7.890   4.826  3.0126  0.2104  2.1354
   79MOL0     H10627   6.606   8.042   4.463  0.5154 -0.3416  0.4555
   79MOL0     H10628   6.395   8.006   4.389  0.3434  2.7375 -0.7881
   79MOL0     H10629   6.175   8.077   4.369  2.6377  0.4790  2.0148
   79MOL0     H10630   6.195   7.903   4.371  1.6758  0.9829 -0.5841
   79MOL0     H10631   5.950   7.883   4.431 -3.5336  1.0893  1.4303
   79MOL0     H10632   5.927   8.049   4.427 -2.0750 -1.0656 -0.5193
   79MOL0     H10633   5.962   8.065   4.181  1.2323  1.2273  2.4330
   79MOL0     H10634   6.010   7.889   4.172 -2.5035 -2.0740  0.6925
   79MOL0     H10635   5.740   7.975   4.286 -2.1186 -0.7501 -1.3591
   79MOL0     H10636   5.812   7.812   4.262  2.2827  0.0019  0.4064
   79MOL0     H10637   5.822   7.867   4.023  0.6070 -0.8646  0.6787
   79MOL0     H10638   5.742   8.023   4.039 -1.3308  0.0355  2.5034
   79MOL0     H10639   5.550   7.917   4.143  2.0637  2.0279 -0.9605
   79MOL0     H10640   5.578   7.901   3.968  0.9997 -1.1709 -0.5756
   79MOL0     H10641   5.640   7.683   4.191 -2.2824  0.1345  1.4719
   79MOL0     H10642   5.677   7.659   4.023  0.2146 -2.3935  3.2080
   79MOL0     H10643   5.445   7.667   3.965  0.4869  0.9169  0.0651
   79MOL0     H10644   5.487   7.552   4.098  1.2248  0.1584  0.4195
   79MOL0     H10645   6.232   8.018   4.798 -0.7619  2.5263 -0.5931
   79MOL0     H10646   6.473   8.067   4.873 -0.8216  1.6475 -0.3153
   79MOL0     H10647   6.843   8.283   4.773  0.3258 -0.5702 -1.3908
   79MOL0     H10648   7.059   8.378   4.826  0.1964 -0.3257  2.1272
   79MOL0     H10649   6.112   9.051   5.815  0.8931  0.6233 -1.1389
   79MOL0     H10650   5.882   8.973   5.724  0.4731  1.4388  0.1424
   79MOL0     H10651   5.595   8.815   5.634 -1.0509  0.1574  0.0959
   79MOL0     H10652   5.360   8.790   5.593  1.7668  0.9065 -0.1665
   79MOL0     H10653   5.107   8.694   5.530 -1.8951 -0.2147  0.0076
   79MOL0     H10654   5.129   8.678   5.704 -0.5878 -1.1527  0.7041
   79MOL0     H10655   4.990   8.479   5.712  0.3518 -0.0652  0.0070
   79MOL0     H10656   5.005   8.461   5.533 -1.3812 -1.0960  1.2583
   79MOL0     H10657   4.887   8.678   5.501 -3.1339  1.9684  0.7333
   79MOL0     H10658   4.882   8.695   5.673  3.9660  0.3982 -0.9820
   79MOL0     H10659   4.684   8.614   5.556 -0.2934 -1.7707 -0.1579
   79MOL0     H10660   4.756   8.455   5.536 -1.5460 -1.0057  0.2592
   79MOL0     H10661   4.677   8.487   5.969 -0.8204  2.5204  0.7622
   79MOL0     H10662   5.408   8.365   5.599  1.6925 -0.1081 -2.4197
   79MOL0     H10663   5.597   8.267   5.605  0.5690 -1.9527  3.4761
   79MOL0     H10664   5.749   8.359   5.578  1.7477  1.2904  2.0366
   79MOL0     H10665   5.691   8.327   5.743  1.7500  1.9242  0.1378
   80MOL0     O10666   8.186   1.885   7.745 -0.6382 -0.0178 -0.2428
   80MOL0     C10667   8.223   1.858   7.862 -0.5322  0.4323 -0.2757
   80MOL0     O10668   8.354   1.865   7.909 -0.1657  0.5807  0.6189
   80MOL0     C10669   8.456   1.928   7.836  0.2984 -0.7968 -0.0514
   80MOL0     C10670   8.480   1.882   7.705 -0.2917 -0.4173 -0.5285
   80MOL0     C10671   8.592   1.920   7.632 -0.2828 -0.6103 -0.1896
   80MOL0     C10672   8.680   2.016   7.678 -0.5367 -0.3410 -0.3168
   80MOL0     O10673   8.789   2.047   7.602  0.2130  0.0930  0.5168
   80MOL0     C10674   8.857   2.167   7.637  0.4484 -0.2424 -1.0078
   80MOL0     C10675   8.981   2.180   7.544  0.0435 -0.1778 -0.3556
   80MOL0     C10676   9.055   2.309   7.560 -0.0536 -0.4494 -0.4141
   80MOL0     C10677   9.193   2.319   7.503 -0.3125  0.1586  0.5368
   80MOL0     C10678   9.289   2.230   7.578 -0.1945 -0.0793 -0.6483
   80MOL0     C10679   9.324   2.098   7.518 -0.0651  0.2898  0.2653
   80MOL0     C10680   9.438   2.037   7.602 -0.0336  0.2761  0.2701
   80MOL0     C10681   9.385   1.936   7.700 -0.4897 -0.3129 -0.0397
   80MOL0     N10682   9.469   1.821   7.728 -0.3557 -0.5509 -0.7659
   80MOL0     C10683   9.445   1.749   7.848  0.3125  0.3179 -0.0143
   80MOL0     C10684   9.506   1.634   7.820  0.1070  0.7820 -0.4142
   80MOL0     C10685   9.549   1.533   7.921  0.2850  0.5741 -0.1876
   80MOL0     C10686   9.672   1.551   8.005  0.7605  0.1933  0.4347
   80MOL0     C10687   9.795   1.506   7.923 -0.1046 -0.3398  0.0729
   80MOL0     C10688   9.926   1.518   7.993 -0.0387  0.0188 -0.9045
   80MOL0     O10689   9.930   1.433   8.112  0.1790 -0.0964 -0.4853
   80MOL0     C10690  10.054   1.386   8.148 -0.2028  0.3753  0.1352
   80MOL0     C10691  10.054   1.295   8.248 -0.1260  0.7769 -0.1382
   80MOL0     C10692  10.171   1.243   8.306 -0.5093 -0.3032  0.4888
   80MOL0     C10693  10.293   1.268   8.259 -0.4872 -0.1924 -0.4282
   80MOL0     C10694  10.417   1.208   8.319  0.1809  0.0883  0.0548
   80MOL0     O10695  10.527   1.219   8.236 -1.2373  0.0613 -0.1324
   80MOL0     C10696  10.644   1.175   8.285  0.1256 -0.3109 -0.2283
   80MOL0     C10697  10.704   1.246   8.393 -0.4950  0.4582  0.2196
   80MOL0     C10698  10.825   1.199   8.450 -0.0361  0.2643 -0.2142
   80MOL0     C10699  10.873   1.073   8.407  0.0832  0.5166 -1.0388
   80MOL0     O10700  10.996   1.046   8.470  1.0538 -0.8439 -0.0145
   80MOL0     C10701  11.094   0.989   8.382 -0.3187  1.1320 -0.1202
   80MOL0     C10702  11.076   0.840   8.393  0.6360  0.3861 -0.1776
   80MOL0     C10703  11.194   0.758   8.345 -0.4535  0.4295 -0.2388
   80MOL0     C10704  11.173   0.607   8.348 -0.7801 -0.1689 -0.5225
   80MOL0     C10705  11.284   0.537   8.267 -0.1607 -0.8324 -0.0366
   80MOL0     C10706  11.424   0.536   8.337 -0.4375 -0.2246 -0.4489
   80MOL0     C10707  11.518   0.454   8.234 -0.1193 -0.1079  0.0299
   80MOL0     C10708  11.656   0.510   8.253 -0.5852 -0.9138 -0.0597
   80MOL0    Cl10709  11.772   0.433   8.136  0.0301 -0.0063  0.5228
   80MOL0     C10710  10.813   0.996   8.300  0.6471 -0.1381 -0.1973
   80MOL0     C10711  10.702   1.053   8.243 -0.1307  0.0641  0.7619
   80MOL0     O10712  10.410   1.141   8.421 -0.0395 -0.2609  0.4325
   80MOL0     C10713  10.297   1.362   8.150  0.5505  0.2689  0.6407
   80MOL0     C10714  10.180   1.425   8.100  0.1554 -0.1256 -0.0043
   80MOL0     N10715   9.565   1.640   7.695  0.1966 -0.3381  0.0317
   80MOL0     N10716   9.533   1.746   7.636  0.1761 -0.4320 -0.3401
   80MOL0     C10717   8.656   2.073   7.811 -0.3808  0.6032  0.4261
   80MOL0     C10718   8.542   2.030   7.887  0.4675 -0.0733 -0.9090
   80MOL0     C10719   8.121   1.801   7.945  0.0736  0.9058  0.3100
   80MOL0     C10720   8.019   1.714   7.892  0.0748  0.8700 -0.2819
   80MOL0     C10721   7.923   1.653   7.973 -0.5755 -0.0106  0.0465
   80MOL0     C10722   7.923   1.699   8.104  0.4800 -0.1640 -0.7278
   80MOL0     O10723   7.819   1.657   8.180  0.7490 -0.1795  0.0570
   80MOL0     C10724   7.714   1.755   8.200  0.8389 -0.5763  0.0273
   80MOL0     C10725   7.598   1.721   8.294  0.2696 -0.9291 -0.6694
   80MOL0     C10726   7.648   1.742   8.432 -0.1832 -0.5312  0.2288
   80MOL0     C10727   7.534   1.695   8.530  0.2613 -0.5193  0.4099
   80MOL0     C10728   7.522   1.543   8.531 -0.5886  1.0814  0.2169
   80MOL0     C10729   7.529   1.422   8.540 -0.1295 -0.3686 -0.3166
   80MOL0     C10730   8.019   1.788   8.160 -0.5094  0.7691  0.2678
   80MOL0     C10731   8.109   1.842   8.080  0.0616 -0.4115 -0.5557
   80MOL0     C10732   8.208   1.953   8.133  0.3300 -0.2814  0.2986
   80MOL0     H10733   8.423   1.798   7.666  0.0114 -1.0814  0.4213
   80MOL0     H10734   8.614   1.880   7.534  0.3711  0.0357 -0.3145
   80MOL0     H10735   8.788   2.249   7.614  0.1115 -0.9670 -2.8091
   80MOL0     H10736   8.902   2.178   7.736  2.5311  2.3255 -2.1172
   80MOL0     H10737   8.946   2.169   7.441 -1.8971 -2.5994  0.4620
   80MOL0     H10738   9.046   2.096   7.567 -2.2431 -1.6051  1.3051
   80MOL0     H10739   9.058   2.333   7.667  1.4910  0.7930 -0.6974
   80MOL0     H10740   8.985   2.369   7.502 -0.1351 -0.1134  0.0221
   80MOL0     H10741   9.188   2.287   7.399 -0.0518 -0.8296  0.8158
   80MOL0     H10742   9.220   2.426   7.502 -0.5202  0.2299  1.6742
   80MOL0     H10743   9.384   2.284   7.577 -0.4911  0.7989  3.1432
   80MOL0     H10744   9.248   2.225   7.680  3.5440  1.1675  1.0999
   80MOL0     H10745   9.235   2.035   7.525  0.8367 -0.8619  2.1486
   80MOL0     H10746   9.350   2.110   7.413 -1.6192  0.5708 -0.1201
   80MOL0     H10747   9.510   2.107   7.645  2.4685 -0.6143 -2.1557
   80MOL0     H10748   9.505   1.980   7.538  1.7440  1.3563  1.0987
   80MOL0     H10749   9.360   1.989   7.792 -2.3670  2.5584 -2.0521
   80MOL0     H10750   9.283   1.904   7.677 -1.2059 -0.5714  3.0768
   80MOL0     H10751   9.409   1.774   7.947  0.7362  0.0667  0.2022
   80MOL0     H10752   9.467   1.508   7.989  1.2488 -4.0651 -0.4053
   80MOL0     H10753   9.557   1.444   7.857 -2.2705 -0.1279  0.3279
   80MOL0     H10754   9.676   1.657   8.033 -0.6676  0.6221 -0.8300
   80MOL0     H10755   9.664   1.495   8.098  0.3952  0.7305  0.7284
   80MOL0     H10756   9.806   1.583   7.846 -0.7821  0.6840  0.9617
   80MOL0     H10757   9.780   1.410   7.874 -0.0360  0.6388 -1.9797
   80MOL0     H10758   9.942   1.624   8.015 -3.2707  0.4131 -0.0010
   80MOL0     H10759  10.005   1.475   7.930  1.3012 -0.8000  1.1918
   80MOL0     H10760   9.958   1.279   8.296 -0.1199  1.5633  0.1492
   80MOL0     H10761  10.143   1.174   8.385  2.2001  0.5034  2.2759
   80MOL0     H10762  10.656   1.330   8.442 -2.9629  0.0191 -1.2929
   80MOL0     H10763  10.863   1.260   8.532  1.5960  0.2182 -0.9098
   80MOL0     H10764  11.088   1.014   8.276  1.7675  1.6607 -0.1587
   80MOL0     H10765  11.193   1.014   8.421 -0.7718  2.9759 -0.0624
   80MOL0     H10766  11.062   0.825   8.500  3.0391  1.4013  0.3265
   80MOL0     H10767  10.986   0.796   8.349 -1.1883  1.4812  2.2200
   80MOL0     H10768  11.233   0.797   8.250 -0.5132 -0.2921 -0.5693
   80MOL0     H10769  11.272   0.770   8.421  1.0312 -3.5938 -0.8657
   80MOL0     H10770  11.073   0.573   8.320 -0.7328 -1.1145  0.3949
   80MOL0     H10771  11.185   0.575   8.452  0.8342  1.8931 -0.0251
   80MOL0     H10772  11.293   0.572   8.164  0.1557  3.2677  1.2333
   80MOL0     H10773  11.256   0.431   8.263  1.4455 -1.3076  0.5595
   80MOL0     H10774  11.459   0.639   8.343 -4.9163  1.5395 -0.8478
   80MOL0     H10775  11.425   0.488   8.435  3.6295 -0.6145 -0.4847
   80MOL0     H10776  11.503   0.484   8.129 -1.1462 -2.9701 -0.7254
   80MOL0     H10777  11.523   0.347   8.254  1.2058 -0.1807 -0.5859
   80MOL0     H10778  11.661   0.620   8.251 -0.9330 -0.7190  3.6174
   80MOL0     H10779  11.694   0.492   8.354 -1.5117  0.7760  0.6492
   80MOL0     H10780  10.854   0.903   8.262 -1.9765 -2.6232  2.5538
   80MOL0     H10781  10.662   0.995   8.161  0.3881 -0.3562  0.8010
   80MOL0     H10782  10.391   1.386   8.101  0.1711 -0.5998 -0.5514
   80MOL0     H10783  10.192   1.504   8.027  1.2891 -0.3704 -0.1049
   80MOL0     H10784   8.719   2.155   7.845  0.0836  0.5077 -0.1906
   80MOL0     H10785   8.520   2.070   7.985 -0.6829  0.5446 -1.4071
   80MOL0     H10786   8.016   1.694   7.785 -1.4193  3.6650 -0.8692
   80MOL0     H10787   7.843   1.598   7.925 -1.8452  2.8551 -1.3753
   80MOL0     H10788   7.670   1.787   8.105  0.7389  0.1194  0.3013
   80MOL0     H10789   7.761   1.845   8.240 -0.1538  1.2657 -2.6644
   80MOL0     H10790   7.562   1.618   8.282  0.0860 -0.8751 -0.5685
   80MOL0     H10791   7.512   1.787   8.282  0.7402  0.3437  2.2719
   80MOL0     H10792   7.661   1.850   8.449 -1.6004  0.1807 -2.6872
   80MOL0     H10793   7.734   1.677   8.448 -0.7954 -1.0583  1.4803
   80MOL0     H10794   7.556   1.722   8.634 -0.3890  0.5622  0.2855
   80MOL0     H10795   7.446   1.741   8.484  2.3523  1.0281 -2.3435
   80MOL0     H10796   7.526   1.315   8.536  1.7827 -0.4329 -1.0217
   80MOL0     H10797   8.005   1.823   8.262 -1.4427  1.3429 -0.0488
   80MOL0     H10798   8.172   1.994   8.229  2.4771 -0.7128  1.3434
   80MOL0     H10799   8.313   1.923   8.131  0.2224 -0.6556  0.0772
   80MOL0     H10800   8.218   2.035   8.062  1.6503 -3.6036 -3.7078
   81MOL0     O10801   9.335   8.654   9.738  0.4597  0.7567  0.8295
   81MOL0     C10802   9.301   8.539   9.713  0.7063 -0.1063  0.0724
   81MOL0     O10803   9.378   8.441   9.659  0.0214  0.1183  0.0015
   81MOL0     C10804   9.504   8.458   9.610 -0.4125 -0.9276 -0.0270
   81MOL0     C10805   9.533   8.417   9.477  0.2008 -0.1344 -0.3588
   81MOL0     C10806   9.659   8.445   9.427  0.1080  0.1671  0.4503
   81MOL0     C10807   9.760   8.492   9.512  0.1980  0.7561 -0.0925
   81MOL0     O10808   9.875   8.486   9.445 -0.5697 -0.3800  0.3407
   81MOL0     C10809   9.975   8.567   9.505  0.6917  0.7643  0.4676
   81MOL0     C10810  10.090   8.605   9.408 -0.2051 -0.3157  1.1776
   81MOL0     C10811  10.221   8.636   9.461  0.5627 -0.5287 -0.5724
   81MOL0     C10812  10.337   8.655   9.368 -0.2050 -0.9102  0.3693
   81MOL0     C10813  10.469   8.670   9.452 -0.6897  1.0625 -0.1445
   81MOL0     C10814  10.583   8.739   9.386  0.4196 -0.1822 -0.3764
   81MOL0     C10815  10.719   8.732   9.455  0.4590  0.3997  0.5580
   81MOL0     C10816  10.821   8.806   9.374 -0.1613 -0.3971 -0.0635
   81MOL0     N10817  10.948   8.822   9.443 -0.2650 -0.2900  0.3449
   81MOL0     C10818  11.025   8.714   9.464  0.4531 -0.1988  0.4649
   81MOL0     C10819  11.126   8.756   9.541  0.0053 -0.4717  0.0187
   81MOL0     C10820  11.242   8.663   9.575 -0.3491 -0.9122 -0.9886
   81MOL0     C10821  11.377   8.751   9.571  0.8581  0.4364 -0.9218
   81MOL0     C10822  11.494   8.657   9.602  0.5303  0.5704 -0.2121
   81MOL0     C10823  11.620   8.736   9.576  0.5541 -0.2792  0.2497
   81MOL0     O10824  11.715   8.649   9.639 -0.0494  0.5514  0.1438
   81MOL0     C10825  11.845   8.697   9.640 -0.2586  0.5300  0.8821
   81MOL0     C10826  11.900   8.779   9.542 -0.1321  0.0045 -0.0221
   81MOL0     C10827  12.029   8.829   9.552  0.7560 -0.3339  0.5578
   81MOL0     C10828  12.112   8.793   9.658 -0.6078  0.2036  0.0992
   81MOL0     C10829  12.255   8.837   9.657  0.0961  0.4632  0.5989
   81MOL0     O10830  12.298   8.905   9.549 -0.4088  0.4921  0.0146
   81MOL0     C10831  12.432   8.941   9.556 -0.4010 -0.5215 -1.1329
   81MOL0     C10832  12.465   9.078   9.551 -0.7264  1.0558  0.3133
   81MOL0     C10833  12.596   9.122   9.532 -0.8561  0.4132 -0.8218
   81MOL0     C10834  12.700   9.032   9.512 -0.1225 -0.0976  0.2085
   81MOL0     O10835  12.820   9.084   9.477 -0.7283 -0.6303 -0.1804
   81MOL0     C10836  12.934   9.001   9.520 -0.0002 -0.6447 -0.3373
   81MOL0     C10837  13.057   9.074   9.476  0.5551  0.8642  0.3359
   81MOL0     C10838  13.182   8.997   9.520 -0.0979 -0.7265 -0.2145
   81MOL0     C10839  13.316   9.077   9.497  0.6030 -0.0096 -0.4902
   81MOL0     C10840  13.442   8.994   9.476  0.1169 -0.3019  0.0468
   81MOL0     C10841  13.537   9.039   9.365 -0.0165  0.2888 -0.2422
   81MOL0     C10842  13.587   9.180   9.352  0.6148 -0.2665  0.9509
   81MOL0     C10843  13.646   9.241   9.472 -1.1790  0.4547 -0.4177
   81MOL0    Cl10844  13.792   9.139   9.516 -0.3096  0.0734  0.1907
   81MOL0     C10845  12.671   8.897   9.531  0.1768 -0.8520  0.5440
   81MOL0     C10846  12.537   8.849   9.562 -0.4684 -0.2595 -0.1918
   81MOL0     O10847  12.325   8.795   9.752  0.0684  0.3014 -0.0907
   81MOL0     C10848  12.058   8.716   9.762  0.5819  0.0466 -0.1033
   81MOL0     C10849  11.925   8.669   9.749 -0.1645 -0.1804  0.5176
   81MOL0     N10850  11.109   8.894   9.567 -0.5779 -0.5812 -0.0363
   81MOL0     N10851  11.000   8.926   9.514  0.5478 -0.4576 -0.3343
   81MOL0     C10852   9.734   8.516   9.646 -0.3848 -0.6859 -0.0916
   81MOL0     C10853   9.604   8.509   9.690 -0.3007  0.2167 -0.2172
   81MOL0     C10854   9.161   8.497   9.742  0.1336 -0.4638  0.5827
   81MOL0     C10855   9.107   8.391   9.668 -0.0366 -0.0346  0.1395
   81MOL0     C10856   8.973   8.354   9.688 -0.1926  0.1986 -0.4484
   81MOL0     C10857   8.890   8.409   9.779  0.4994 -0.2404 -0.6246
   81MOL0     O10858   8.760   8.364   9.779  0.1145  0.0012 -0.1468
   81MOL0     C10859   8.689   8.366   9.905  0.8379 -0.4702  0.1623
   81MOL0     C10860   8.555   8.283   9.899  0.5728  0.0169  1.1096
   81MOL0     C10861   8.441   8.347   9.983 -0.7756 -0.2552 -0.6655
   81MOL0     C10862   8.311   8.264   9.953 -0.3666 -0.2018  1.0869
   81MOL0     C10863   8.185   8.296  10.023 -1.7285  0.3862 -0.8521
   81MOL0     C10864   8.102   8.329  10.100  0.0756  0.0763  0.2747
   81MOL0     C10865   8.945   8.516   9.856  0.7146  0.9948  0.5562
   81MOL0     C10866   9.081   8.558   9.840  0.2074  0.6543  0.0025
   81MOL0     C10867   9.125   8.680   9.919 -0.3726 -0.0618  0.1787
   81MOL0     H10868   9.449   8.378   9.420 -1.2801  0.5032  1.2690
   81MOL0     H10869   9.680   8.414   9.326 -4.6597 -0.3818 -0.6329
   81MOL0     H10870   9.927   8.661   9.533 -0.9891  0.1785 -0.3219
   81MOL0     H10871  10.019   8.511   9.587 -1.5495  0.7693  1.7521
   81MOL0     H10872  10.068   8.688   9.340 -0.9038  0.6533  2.5276
   81MOL0     H10873  10.105   8.522   9.339 -0.0305 -2.1183  3.2877
   81MOL0     H10874  10.245   8.549   9.523  0.6859 -0.6166 -0.7401
   81MOL0     H10875  10.212   8.719   9.532 -1.8626 -2.0176  1.0000
   81MOL0     H10876  10.346   8.575   9.294 -1.0284 -1.5637  0.9538
   81MOL0     H10877  10.314   8.747   9.313 -2.6542 -1.6957 -0.0768
   81MOL0     H10878  10.445   8.726   9.543 -1.8447  0.4915 -0.0696
   81MOL0     H10879  10.496   8.569   9.485  3.0292  2.3434  1.1659
   81MOL0     H10880  10.594   8.696   9.286 -0.7258  0.3047 -0.7226
   81MOL0     H10881  10.562   8.846   9.377  2.7319  0.2784 -1.0935
   81MOL0     H10882  10.753   8.628   9.460  1.1910  0.6143  0.0811
   81MOL0     H10883  10.720   8.784   9.552  2.5622 -2.2069  2.0718
   81MOL0     H10884  10.837   8.747   9.283  1.8185  0.4609 -0.3208
   81MOL0     H10885  10.800   8.905   9.333  1.2747  0.3770  0.9874
   81MOL0     H10886  11.003   8.615   9.425 -0.5766 -0.4023  1.4882
   81MOL0     H10887  11.240   8.623   9.677  4.0542  0.8055 -0.0153
   81MOL0     H10888  11.254   8.580   9.505 -1.3508 -1.9452  0.0157
   81MOL0     H10889  11.389   8.791   9.470  0.2586 -0.0988 -1.2089
   81MOL0     H10890  11.378   8.834   9.642 -0.4435 -0.3921  0.1049
   81MOL0     H10891  11.486   8.566   9.542  1.2543 -0.4476  1.1745
   81MOL0     H10892  11.491   8.636   9.710  0.4458 -0.5135 -0.4114
   81MOL0     H10893  11.605   8.834   9.622  1.7356 -1.5094  3.5740
   81MOL0     H10894  11.636   8.758   9.470  0.5608 -0.0389  0.3021
   81MOL0     H10895  11.840   8.826   9.464 -0.1473  0.3983  0.2258
   81MOL0     H10896  12.063   8.900   9.478 -0.8175 -0.0639  0.0465
   81MOL0     H10897  12.384   9.149   9.565 -1.3164  0.6637 -0.9118
   81MOL0     H10898  12.614   9.228   9.517  0.9800  0.8093  3.0155
   81MOL0     H10899  12.940   8.987   9.629 -3.6854 -0.8485 -0.0408
   81MOL0     H10900  12.931   8.902   9.472  0.2722 -0.4667 -0.7161
   81MOL0     H10901  13.051   9.091   9.368 -2.0168  0.8129  0.4128
   81MOL0     H10902  13.056   9.171   9.528 -1.0758  0.4733  1.1159
   81MOL0     H10903  13.175   8.965   9.624  1.4447 -2.5195 -0.6241
   81MOL0     H10904  13.187   8.897   9.476 -0.5627 -1.4498  1.3108
   81MOL0     H10905  13.324   9.147   9.581  0.9461  0.6541 -1.0666
   81MOL0     H10906  13.295   9.140   9.410 -3.0161 -1.2695 -0.7119
   81MOL0     H10907  13.419   8.889   9.458  2.3577 -1.5347  3.4528
   81MOL0     H10908  13.502   8.996   9.567 -1.1640 -0.5895  0.9185
   81MOL0     H10909  13.625   8.973   9.357  0.7154  1.2430 -0.2546
   81MOL0     H10910  13.483   9.020   9.272 -0.3769  1.0206 -0.1878
   81MOL0     H10911  13.497   9.237   9.326  1.7542  0.6355 -1.3441
   81MOL0     H10912  13.663   9.183   9.273  1.9390  0.1587  2.2046
   81MOL0     H10913  13.676   9.346   9.461 -0.9106  0.2687 -1.6800
   81MOL0     H10914  13.565   9.244   9.544 -0.4500  3.3444  0.4151
   81MOL0     H10915  12.749   8.822   9.523  3.0130  1.9371 -0.0522
   81MOL0     H10916  12.528   8.742   9.578  0.5150 -0.0414  2.2681
   81MOL0     H10917  12.111   8.681   9.850  0.9774 -2.3891 -1.2282
   81MOL0     H10918  11.886   8.610   9.832 -3.4978  1.2639  0.1510
   81MOL0     H10919   9.806   8.541   9.723  1.5451 -1.8013 -1.4520
   81MOL0     H10920   9.580   8.546   9.790 -0.9115 -0.1496 -0.2251
   81MOL0     H10921   9.169   8.349   9.590  0.2153  1.5947 -0.5694
   81MOL0     H10922   8.939   8.274   9.624 -0.9865 -1.0790  1.4929
   81MOL0     H10923   8.669   8.472   9.922  0.4576 -0.6986  1.2595
   81MOL0     H10924   8.759   8.347   9.987 -0.4760  1.1144  1.7337
   81MOL0     H10925   8.576   8.183   9.937  2.2310  0.1598  0.6505
   81MOL0     H10926   8.519   8.260   9.798 -1.8034 -1.1446  2.1472
   81MOL0     H10927   8.423   8.449   9.949  0.3445 -0.0737 -0.7554
   81MOL0     H10928   8.462   8.344  10.090  0.2814 -0.8225 -0.8776
   81MOL0     H10929   8.295   8.260   9.845  2.2639 -1.5879  0.6738
   81MOL0     H10930   8.327   8.158   9.975 -0.7557 -0.5763 -0.3293
   81MOL0     H10931   8.017   8.350  10.162  0.1186 -4.7910  2.4239
   81MOL0     H10932   8.879   8.566   9.925 -0.3657 -0.9297  0.9864
   81MOL0     H10933   9.111   8.766   9.853 -2.5827 -1.0169 -0.7239
   81MOL0     H10934   9.058   8.698  10.003 -1.8129  1.8513 -1.2932
   81MOL0     H10935   9.227   8.672   9.958 -1.9236 -0.3311  4.6665
   82MOL0     O10936   7.447   3.957  10.893  0.1505 -0.8085 -0.9787
   82MOL0     C10937   7.383   4.005  10.804 -0.6260  0.3305  0.7335
   82MOL0     O10938   7.437   4.071  10.694  0.6689  0.2130  0.3102
   82MOL0     C10939   7.572   4.104  10.687 -0.3710  0.1375 -0.3165
   82MOL0     C10940   7.602   4.234  10.651 -0.5294 -0.0165 -0.3478
   82MOL0     C10941   7.733   4.274  10.628 -0.3494  0.3731  1.0104
   82MOL0     C10942   7.842   4.183  10.640 -0.5630  0.1341 -0.2432
   82MOL0     O10943   7.973   4.221  10.631 -0.2341  0.0948 -0.0117
   82MOL0     C10944   7.999   4.364  10.628  0.4634  0.1488 -0.3003
   82MOL0     C10945   8.142   4.409  10.615 -0.3223  0.5453  0.1848
   82MOL0     C10946   8.189   4.359  10.474 -0.2717 -0.3115 -0.2314
   82MOL0     C10947   8.326   4.418  10.428  0.4123 -0.1439 -0.4119
   82MOL0     C10948   8.331   4.569  10.412  0.7645 -0.7038 -0.7060
   82MOL0     C10949   8.228   4.619  10.297 -0.1377 -0.5565 -0.6789
   82MOL0     C10950   8.212   4.771  10.299 -0.1037  0.4490 -0.1585
   82MOL0     C10951   8.127   4.815  10.174 -0.0454  0.3444  0.1769
   82MOL0     N10952   7.998   4.740  10.161 -0.1541  0.7924  0.0378
   82MOL0     C10953   7.902   4.715  10.249  0.7726 -0.6048 -0.9754
   82MOL0     C10954   7.802   4.646  10.194 -0.5168  0.5615  0.3223
   82MOL0     C10955   7.689   4.585  10.266 -0.4806  0.2804  0.0589
   82MOL0     C10956   7.578   4.684  10.270  0.5148  0.3900 -0.4287
   82MOL0     C10957   7.469   4.643  10.375  0.5580  0.2179 -0.0760
   82MOL0     C10958   7.359   4.749  10.386  0.2073 -0.7665  0.5818
   82MOL0     O10959   7.312   4.811  10.262 -0.0365 -0.2982  0.1959
   82MOL0     C10960   7.204   4.900  10.266 -0.7704  0.3107  0.0480
   82MOL0     C10961   7.183   4.963  10.140 -0.3441  0.6259  0.4563
   82MOL0     C10962   7.070   5.049  10.126  1.2346 -0.2802 -0.0766
   82MOL0     C10963   6.977   5.065  10.227 -0.1601 -0.4554  0.1183
   82MOL0     C10964   6.846   5.138  10.209  0.3250  0.5481 -0.6812
   82MOL0     O10965   6.782   5.167  10.328  0.7897 -0.6373 -0.9766
   82MOL0     C10966   6.661   5.229  10.322 -0.0040 -0.2300  0.4073
   82MOL0     C10967   6.560   5.189  10.416 -0.4148  0.3050  0.4398
   82MOL0     C10968   6.454   5.262  10.452  1.0730  0.3977  0.2865
   82MOL0     C10969   6.420   5.381  10.384  0.3776 -0.5325 -0.3397
   82MOL0     O10970   6.306   5.446  10.435 -0.5294 -0.1846 -0.6269
   82MOL0     C10971   6.307   5.589  10.430 -0.4743 -0.1566 -0.1139
   82MOL0     C10972   6.181   5.641  10.499  0.1128  0.3284 -0.1134
   82MOL0     C10973   6.038   5.614  10.453 -0.9111  0.5347 -0.7927
   82MOL0     C10974   5.951   5.655  10.574  0.6086  0.6228  0.0046
   82MOL0     C10975   5.798   5.643  10.536 -0.0042  0.2226  0.3585
   82MOL0     C10976   5.693   5.719  10.628 -0.0539  0.0259  0.4010
   82MOL0     C10977   5.711   5.685  10.778  0.3921  0.4736 -0.4307
   82MOL0     C10978   5.672   5.544  10.804 -0.3081  0.0627  0.9433
   82MOL0    Cl10979   5.494   5.522  10.777 -0.0402 -0.2002  0.2528
   82MOL0     C10980   6.510   5.428  10.283  0.2509  0.3201  1.2476
   82MOL0     C10981   6.631   5.348  10.253  0.0480  0.1462  0.3442
   82MOL0     O10982   6.791   5.133  10.102  0.3824  0.6961  0.7088
   82MOL0     C10983   6.998   4.996  10.348 -0.8720 -0.7533  0.4481
   82MOL0     C10984   7.113   4.921  10.374 -0.5786 -0.2109  0.1264
   82MOL0     N10985   7.851   4.606  10.072 -0.1311  0.0054  0.3900
   82MOL0     N10986   7.967   4.662  10.046  0.2352 -0.2578 -0.5695
   82MOL0     C10987   7.811   4.048  10.672  0.5082  1.0541  0.3503
   82MOL0     C10988   7.678   4.012  10.700  0.6129  0.7077 -0.8455
   82MOL0     C10989   7.235   4.008  10.807  0.1743  0.5569  0.1590
   82MOL0     C10990   7.154   3.941  10.711 -0.8383  0.1534 -1.3300
   82MOL0     C10991   7.020   3.912  10.737  0.5549 -0.0850 -1.5064
   82MOL0     C10992   6.959   3.956  10.855 -0.4331 -0.1395 -0.4079
   82MOL0     O10993   6.829   3.910  10.872 -0.2246 -0.8228 -0.8853
   82MOL0     C10994   6.789   3.882  11.008  0.0910 -0.5790 -0.7373
   82MOL0     C10995   6.666   3.788  11.024 -0.9421 -0.2534  0.4008
   82MOL0     C10996   6.549   3.835  10.933 -0.2790  0.1849  0.2904
   82MOL0     C10997   6.447   3.726  10.916  0.0140  0.2259  0.3016
   82MOL0     C10998   6.504   3.611  10.843 -0.2084 -0.6692  0.3093
   82MOL0     C10999   6.539   3.526  10.768 -0.0312  0.9470  0.3880
   82MOL0     C11000   7.036   4.021  10.956 -0.3240  0.0853  0.3471
   82MOL0     C11001   7.170   4.046  10.932  0.3955 -0.6488  0.0403
   82MOL0     C11002   7.239   4.096  11.052 -1.2631  0.0269 -0.1001
   82MOL0     H11003   7.516   4.295  10.627 -0.8916 -1.2656 -2.5547
   82MOL0     H11004   7.739   4.378  10.596 -2.7048  1.3742  3.4547
   82MOL0     H11005   7.946   4.421  10.552  0.1220 -1.6326 -1.4596
   82MOL0     H11006   7.968   4.402  10.726  0.3468 -0.7245  0.0143
   82MOL0     H11007   8.200   4.363  10.696 -1.2863  1.5790  1.5038
   82MOL0     H11008   8.150   4.517  10.631 -0.6718  0.7276 -0.7982
   82MOL0     H11009   8.111   4.380  10.400  1.1103 -3.5521 -2.8806
   82MOL0     H11010   8.201   4.251  10.477  0.3506 -0.2282  0.8334
   82MOL0     H11011   8.404   4.369  10.485  0.9851 -3.2439 -3.5254
   82MOL0     H11012   8.337   4.384  10.325  0.0199  1.4704 -1.0297
   82MOL0     H11013   8.304   4.617  10.506 -1.4927 -0.7808 -1.2557
   82MOL0     H11014   8.428   4.610  10.381  0.1728 -0.9483 -3.0521
   82MOL0     H11015   8.265   4.579  10.202  1.5769 -0.5056 -0.0604
   82MOL0     H11016   8.130   4.574  10.315 -0.2337  0.9471  3.6191
   82MOL0     H11017   8.313   4.810  10.287  1.6793 -4.2182 -2.7334
   82MOL0     H11018   8.154   4.801  10.387 -0.9921 -2.9089  0.5564
   82MOL0     H11019   8.105   4.922  10.176  0.1180  0.4173 -1.1220
   82MOL0     H11020   8.184   4.802  10.081  0.3318  1.4647  0.2273
   82MOL0     H11021   7.880   4.762  10.344 -2.2727 -3.4474 -0.0846
   82MOL0     H11022   7.667   4.492  10.211 -3.3818  0.0922  1.3475
   82MOL0     H11023   7.718   4.561  10.369  0.9514  0.1648 -0.3549
   82MOL0     H11024   7.613   4.784  10.295  1.9553  0.6301 -3.0112
   82MOL0     H11025   7.540   4.692  10.168 -1.3844 -0.4959  0.1775
   82MOL0     H11026   7.496   4.614  10.477 -0.2475  0.9169  0.3535
   82MOL0     H11027   7.427   4.554  10.327  2.9868 -0.6237 -0.8027
   82MOL0     H11028   7.384   4.833  10.451 -1.1452 -0.3430  0.5960
   82MOL0     H11029   7.278   4.697  10.439  1.3923 -3.1727  0.2105
   82MOL0     H11030   7.253   4.945  10.059 -0.8901 -0.5658  0.2266
   82MOL0     H11031   7.041   5.097  10.033 -4.2897 -1.0045  0.9111
   82MOL0     H11032   6.566   5.105  10.484  1.3128 -0.9398 -1.1382
   82MOL0     H11033   6.394   5.242  10.540 -0.1169  1.3755 -0.2692
   82MOL0     H11034   6.401   5.618  10.479 -1.6559  1.3044  1.4206
   82MOL0     H11035   6.309   5.627  10.327 -0.9064 -2.9563 -1.2428
   82MOL0     H11036   6.190   5.609  10.603 -0.3371  0.9532  0.1192
   82MOL0     H11037   6.199   5.749  10.506  2.9551 -0.0951  0.7707
   82MOL0     H11038   6.008   5.679  10.370 -2.5524  0.9855  0.1075
   82MOL0     H11039   6.016   5.514  10.417  0.1514  0.7123 -2.0111
   82MOL0     H11040   5.971   5.760  10.600 -4.3372  1.2564  2.4447
   82MOL0     H11041   5.978   5.596  10.662 -2.1147  2.1957  2.0502
   82MOL0     H11042   5.773   5.537  10.523 -0.1301  0.1801  0.9015
   82MOL0     H11043   5.784   5.686  10.437  3.9949 -1.7256 -1.2669
   82MOL0     H11044   5.713   5.825  10.614  2.8340 -0.6837 -1.6582
   82MOL0     H11045   5.591   5.697  10.594  0.6828 -2.1073 -0.6231
   82MOL0     H11046   5.646   5.754  10.832  0.3838  0.5793 -0.5740
   82MOL0     H11047   5.817   5.697  10.803  0.3071 -3.2142  2.5645
   82MOL0     H11048   5.728   5.480  10.736 -1.5979  1.0748 -1.1656
   82MOL0     H11049   5.695   5.511  10.906  1.5901  1.0122  0.8620
   82MOL0     H11050   6.497   5.525  10.235 -0.5459 -0.5936 -0.4708
   82MOL0     H11051   6.703   5.387  10.182  1.7982 -0.4831  1.7047
   82MOL0     H11052   6.930   4.999  10.433 -2.0075 -0.4904 -0.4402
   82MOL0     H11053   7.117   4.864  10.467 -6.3436 -0.5471  0.4845
   82MOL0     H11054   7.892   3.975  10.673 -0.2315  0.1833  2.7255
   82MOL0     H11055   7.640   3.913  10.723 -0.9864  1.9178  2.2611
   82MOL0     H11056   7.201   3.885  10.631 -0.1822 -3.9146  1.5708
   82MOL0     H11057   6.960   3.844  10.678 -0.1584  0.0649 -0.9633
   82MOL0     H11058   6.768   3.979  11.055 -2.4980 -2.1544  1.5852
   82MOL0     H11059   6.875   3.835  11.056  0.1610  0.1609 -0.1209
   82MOL0     H11060   6.640   3.782  11.130 -2.3850 -0.7080  0.0467
   82MOL0     H11061   6.707   3.688  11.006  3.0925  0.8788  2.1951
   82MOL0     H11062   6.581   3.866  10.833 -0.7762 -0.6472 -0.1347
   82MOL0     H11063   6.503   3.919  10.986 -0.3322 -0.1752  0.8296
   82MOL0     H11064   6.423   3.686  11.014 -0.4656 -1.0453 -0.3090
   82MOL0     H11065   6.352   3.758  10.871 -0.6710 -1.6913  0.2901
   82MOL0     H11066   6.559   3.458  10.687  0.3592  0.5435  0.8108
   82MOL0     H11067   6.998   4.042  11.055  0.6178 -1.4003  1.0658
   82MOL0     H11068   7.309   4.175  11.025 -2.3128 -0.4216 -5.0764
   82MOL0     H11069   7.170   4.141  11.124  1.3714  1.2163  1.8643
   82MOL0     H11070   7.293   4.027  11.118 -0.6891  0.8554  0.3208
   83MOL0     O11071   5.007   8.018   2.818  0.3235  0.4454  0.0367
   83MOL0     C11072   4.896   8.077   2.807  0.2449 -0.3207 -0.0603
   83MOL0     O11073   4.881   8.188   2.722  0.2993  0.0411 -0.7128
   83MOL0     C11074   4.995   8.242   2.669 -0.0460 -0.5453  0.0359
   83MOL0     C11075   5.092   8.311   2.745 -0.4488  0.8910 -0.1939
   83MOL0     C11076   5.201   8.376   2.687 -0.0130  0.6502  0.4114
   83MOL0     C11077   5.213   8.375   2.551  0.6512  0.6144  0.0583
   83MOL0     O11078   5.319   8.438   2.495  0.2861  0.8663 -0.5047
   83MOL0     C11079   5.378   8.386   2.371  0.2075  0.7136 -0.4545
   83MOL0     C11080   5.526   8.397   2.359 -0.4697  0.2863 -0.1695
   83MOL0     C11081   5.596   8.531   2.392  0.3886  0.8189  0.4577
   83MOL0     C11082   5.574   8.639   2.287 -0.0931  0.7465 -0.1500
   83MOL0     C11083   5.623   8.774   2.321 -0.1760  0.7280 -0.4797
   83MOL0     C11084   5.539   8.837   2.437  0.1277  0.6538  0.4874
   83MOL0     C11085   5.564   8.985   2.462  0.2380 -0.2863  0.3524
   83MOL0     C11086   5.489   9.080   2.369  0.3767  0.1287 -0.5106
   83MOL0     N11087   5.344   9.084   2.408  0.4755  1.4647 -0.1454
   83MOL0     C11088   5.293   9.170   2.505 -0.8001 -0.4011  1.1119
   83MOL0     C11089   5.163   9.146   2.508  0.1110  0.0685 -0.0283
   83MOL0     C11090   5.055   9.209   2.598 -0.6955 -0.0189 -0.0624
   83MOL0     C11091   5.057   9.363   2.595  0.2531 -1.3719 -1.1226
   83MOL0     C11092   5.041   9.431   2.455 -0.4956  0.7216 -0.3640
   83MOL0     C11093   5.058   9.581   2.463  0.6178 -0.9092  1.0276
   83MOL0     O11094   5.179   9.623   2.530  0.1311  0.1224  0.3948
   83MOL0     C11095   5.295   9.551   2.493  1.0471 -0.5250 -0.2074
   83MOL0     C11096   5.337   9.514   2.364 -0.0445  0.7763 -0.1425
   83MOL0     C11097   5.468   9.466   2.340 -0.0228  0.0907 -0.8313
   83MOL0     C11098   5.564   9.462   2.445  0.0972  0.4499 -0.1520
   83MOL0     C11099   5.706   9.418   2.432  0.3716 -0.2590 -0.4223
   83MOL0     O11100   5.802   9.461   2.517 -0.2259  0.6397 -0.1146
   83MOL0     C11101   5.913   9.381   2.518  0.4955  0.5071  0.7540
   83MOL0     C11102   6.042   9.440   2.490 -0.5655  0.0692 -0.1156
   83MOL0     C11103   6.164   9.373   2.497  0.5506 -0.6113 -0.0060
   83MOL0     C11104   6.162   9.228   2.521  0.4201 -0.0084  0.9014
   83MOL0     O11105   6.286   9.166   2.521  0.0387  0.2501  0.2606
   83MOL0     C11106   6.337   9.136   2.651 -0.3924  0.8530  0.0316
   83MOL0     C11107   6.492   9.121   2.653  0.1605  1.0557  0.0905
   83MOL0     C11108   6.552   9.260   2.623  0.6297  0.2855  0.3989
   83MOL0     C11109   6.700   9.251   2.609  0.4465  0.4176 -0.1336
   83MOL0     C11110   6.757   9.385   2.562  0.8597  0.3290  0.9652
   83MOL0     C11111   6.907   9.402   2.571  0.2166  0.8779  0.6495
   83MOL0     C11112   6.960   9.547   2.548  0.4538 -0.0879 -0.3586
   83MOL0     C11113   7.104   9.548   2.531 -0.1822 -0.1158  0.6611
   83MOL0    Cl11114   7.186   9.476   2.672  0.0565 -0.1141 -0.3760
   83MOL0     C11115   6.040   9.162   2.542  0.8391  0.3082 -0.6252
   83MOL0     C11116   5.916   9.238   2.531 -0.6461  0.4880 -0.5991
   83MOL0     O11117   5.726   9.346   2.331  0.0053 -0.3510 -0.3093
   83MOL0     C11118   5.530   9.501   2.572  0.2851 -0.3526  0.6514
   83MOL0     C11119   5.396   9.552   2.593  0.2721  0.5593 -0.4842
   83MOL0     N11120   5.135   9.054   2.406 -0.4500 -0.1337  0.6230
   83MOL0     N11121   5.243   9.009   2.347 -0.3031 -0.9302 -0.2250
   83MOL0     C11122   5.119   8.306   2.470  0.2755  0.5363  0.4544
   83MOL0     C11123   5.010   8.243   2.533 -0.1180  0.6078  0.1370
   83MOL0     C11124   4.778   8.040   2.891 -1.3694 -0.0946  0.5656
   83MOL0     C11125   4.796   8.023   3.026  0.2988 -0.3105  0.2087
   83MOL0     C11126   4.685   8.020   3.108  0.3898 -0.8907 -1.0215
   83MOL0     C11127   4.559   8.022   3.054  0.6953 -0.2085  0.2467
   83MOL0     O11128   4.448   8.018   3.131 -0.0732  0.4291 -0.3195
   83MOL0     C11129   4.366   7.900   3.119  0.7490  0.1696  0.2906
   83MOL0     C11130   4.427   7.763   3.162 -0.0073 -0.5619 -0.5742
   83MOL0     C11131   4.457   7.757   3.308  0.0846 -1.1453 -0.3459
   83MOL0     C11132   4.550   7.645   3.354 -0.4373  0.4862  0.1188
   83MOL0     C11133   4.676   7.637   3.286 -0.7803  0.5048 -0.0196
   83MOL0     C11134   4.783   7.624   3.237  0.7861 -0.1098  1.2253
   83MOL0     C11135   4.542   8.027   2.912  0.4282  0.1116 -0.0800
   83MOL0     C11136   4.652   8.026   2.833 -0.2515 -0.0660  0.2866
   83MOL0     C11137   4.640   8.028   2.672  0.1190 -0.1648  0.5486
   83MOL0     H11138   5.075   8.310   2.853 -1.1332 -2.9218 -0.2208
   83MOL0     H11139   5.264   8.440   2.748  1.4669  0.6530 -1.0256
   83MOL0     H11140   5.346   8.282   2.362  0.1352  0.7612 -0.7761
   83MOL0     H11141   5.325   8.439   2.291 -0.3593 -0.8024 -1.1236
   83MOL0     H11142   5.543   8.372   2.254 -0.2955  0.8080 -0.2667
   83MOL0     H11143   5.575   8.318   2.418  2.7787  4.8414  4.0806
   83MOL0     H11144   5.700   8.497   2.394 -0.8905 -3.7597  0.4571
   83MOL0     H11145   5.558   8.563   2.489 -1.4178 -0.3803  0.2038
   83MOL0     H11146   5.622   8.606   2.194 -1.5114  0.2039 -0.7320
   83MOL0     H11147   5.466   8.645   2.267 -0.0245  0.0186 -0.7849
   83MOL0     H11148   5.728   8.763   2.352 -0.8616  1.4807  2.2915
   83MOL0     H11149   5.616   8.824   2.224 -2.9060  0.8182 -0.3077
   83MOL0     H11150   5.433   8.817   2.415  0.0487 -2.1358  2.7469
   83MOL0     H11151   5.560   8.786   2.531  1.7387 -1.3441 -0.8479
   83MOL0     H11152   5.671   9.008   2.457  0.4731 -1.3840 -0.1196
   83MOL0     H11153   5.528   9.011   2.562  3.1681  0.3362  1.3365
   83MOL0     H11154   5.521   9.184   2.365 -1.8064  1.0209  2.2306
   83MOL0     H11155   5.501   9.041   2.268 -0.3432  2.0870 -1.3925
   83MOL0     H11156   5.350   9.238   2.567  1.1620 -1.0024  0.0312
   83MOL0     H11157   4.956   9.175   2.565 -0.6244  0.9117 -1.3043
   83MOL0     H11158   5.061   9.166   2.698 -1.0814 -0.4548 -0.2201
   83MOL0     H11159   4.985   9.411   2.662  1.7921  1.2452 -1.2224
   83MOL0     H11160   5.147   9.397   2.647 -0.2448 -1.7269 -0.0086
   83MOL0     H11161   4.940   9.405   2.421 -1.3012  1.6292  1.2441
   83MOL0     H11162   5.104   9.387   2.377 -0.3163 -0.2949  0.3292
   83MOL0     H11163   4.977   9.631   2.516  1.8310  0.2411  1.8407
   83MOL0     H11164   5.069   9.607   2.357 -0.8320 -1.0344  0.8205
   83MOL0     H11165   5.268   9.528   2.282 -0.0629  2.3284  0.1013
   83MOL0     H11166   5.500   9.439   2.240 -0.2301  1.6022 -1.3213
   83MOL0     H11167   6.054   9.546   2.470  1.8202  0.5470  3.0614
   83MOL0     H11168   6.257   9.425   2.477 -0.5997  0.9710 -1.4836
   83MOL0     H11169   6.312   9.215   2.722  0.7198  1.3491 -0.0927
   83MOL0     H11170   6.303   9.040   2.691 -0.3721  0.7714 -0.1457
   83MOL0     H11171   6.528   9.097   2.753  2.6374  0.7814 -0.7804
   83MOL0     H11172   6.528   9.044   2.584  1.8704  1.6371  0.2804
   83MOL0     H11173   6.522   9.299   2.525  2.5687  0.6934 -0.0865
   83MOL0     H11174   6.523   9.332   2.699 -0.1036 -0.1060  0.4956
   83MOL0     H11175   6.724   9.167   2.543 -1.6379 -1.9000  1.8389
   83MOL0     H11176   6.745   9.228   2.706  0.1211  1.8910  0.3830
   83MOL0     H11177   6.703   9.467   2.609 -0.5319  0.0030  0.0007
   83MOL0     H11178   6.730   9.389   2.456  0.5414 -3.0034  0.8062
   83MOL0     H11179   6.941   9.374   2.671 -0.0452 -1.4623  0.1427
   83MOL0     H11180   6.951   9.338   2.494 -0.3615 -0.0492  1.0754
   83MOL0     H11181   6.928   9.623   2.621  3.0941  1.1145 -0.3452
   83MOL0     H11182   6.923   9.584   2.453 -1.2331  1.3011  0.7831
   83MOL0     H11183   7.138   9.495   2.442  0.9177 -1.6240  1.9267
   83MOL0     H11184   7.151   9.648   2.527  3.4166 -1.5596  2.0979
   83MOL0     H11185   6.042   9.054   2.557 -1.9549  0.4147  1.1913
   83MOL0     H11186   5.829   9.178   2.555 -0.7432  1.5753  2.1599
   83MOL0     H11187   5.594   9.494   2.660 -1.1029  0.2772  1.7472
   83MOL0     H11188   5.355   9.572   2.692 -0.9663 -1.0036 -0.6379
   83MOL0     H11189   5.128   8.324   2.364 -2.2570  2.2546  0.4312
   83MOL0     H11190   4.926   8.200   2.479  2.3893 -3.8241 -0.7707
   83MOL0     H11191   4.896   8.031   3.068  0.5162 -1.6448 -0.0100
   83MOL0     H11192   4.705   8.000   3.213 -1.6877 -0.4158 -0.4951
   83MOL0     H11193   4.338   7.904   3.013  0.6377  0.6046  0.3353
   83MOL0     H11194   4.267   7.903   3.164  0.7546 -3.6168  0.8719
   83MOL0     H11195   4.519   7.744   3.106 -0.4277  0.0277 -1.5027
   83MOL0     H11196   4.356   7.682   3.139 -0.6235 -1.3025  3.2605
   83MOL0     H11197   4.364   7.765   3.365  0.7702 -0.3706  0.7025
   83MOL0     H11198   4.509   7.852   3.327 -1.2517 -0.6052  0.7189
   83MOL0     H11199   4.568   7.659   3.461  2.0269 -0.9138 -0.0212
   83MOL0     H11200   4.496   7.550   3.359  1.1633 -0.5608 -1.3339
   83MOL0     H11201   4.872   7.621   3.178 -0.4268 -0.5943 -0.6766
   83MOL0     H11202   4.445   8.021   2.865  1.0517 -1.6264 -1.2241
   83MOL0     H11203   4.551   7.976   2.635 -0.3725  1.6046 -0.8953
   83MOL0     H11204   4.629   8.135   2.653  0.6629  0.1308  1.7685
   83MOL0     H11205   4.730   7.986   2.626  1.6427  2.7126  0.6786
   84MOL0     O11206   8.165   9.802   1.369 -0.4318 -0.2211  0.8747
   84MOL0     C11207   8.103   9.794   1.479 -0.1737 -0.0567 -0.5671
   84MOL0     O11208   8.157   9.839   1.600  0.0262  0.1003  0.1007
   84MOL0     C11209   8.292   9.871   1.609  0.0328  0.0093 -0.1194
   84MOL0     C11210   8.320   9.989   1.671 -0.1194  0.0817 -0.2714
   84MOL0     C11211   8.449  10.029   1.701  0.0924  0.4202 -0.0921
   84MOL0     C11212   8.556   9.950   1.654  0.3423  0.4553 -0.1557
   84MOL0     O11213   8.686   9.963   1.679  0.2481 -0.3204 -0.4827
   84MOL0     C11214   8.723  10.093   1.731 -0.0704  0.4303  0.9426
   84MOL0     C11215   8.884  10.104   1.738  0.0678  0.7085 -0.3915
   84MOL0     C11216   8.933  10.254   1.747 -0.8080  0.2833 -0.2007
   84MOL0     C11217   8.870  10.327   1.868 -0.6335 -1.0797  0.5401
   84MOL0     C11218   8.941  10.466   1.911  0.2171 -0.3548  0.2545
   84MOL0     C11219   8.978  10.558   1.793  0.9545  0.2170  0.5287
   84MOL0     C11220   9.038  10.693   1.838 -0.1427 -0.3762  0.1038
   84MOL0     C11221   9.166  10.693   1.919 -0.3647  0.1100  0.0882
   84MOL0     N11222   9.272  10.606   1.872 -0.0374  0.2548  0.3587
   84MOL0     C11223   9.380  10.649   1.812  0.4473  0.5249  0.0915
   84MOL0     C11224   9.480  10.554   1.821 -0.5626 -0.4041 -0.4858
   84MOL0     C11225   9.619  10.575   1.764 -0.2633  0.8943 -0.4098
   84MOL0     C11226   9.736  10.595   1.873  0.2238 -0.2749  0.1486
   84MOL0     C11227   9.720  10.724   1.954 -0.2238 -0.2756 -0.1496
   84MOL0     C11228   9.846  10.756   2.038  0.4356  0.7297 -0.7170
   84MOL0     O11229   9.957  10.747   1.946 -0.3962 -0.6478 -0.0489
   84MOL0     C11230  10.082  10.753   1.994  0.2170  0.9872  0.1124
   84MOL0     C11231  10.113  10.789   2.125  0.5567 -0.1112 -0.8407
   84MOL0     C11232  10.250  10.788   2.165 -0.5689 -0.2941  0.1028
   84MOL0     C11233  10.352  10.770   2.073 -0.0192  0.6934  1.1264
   84MOL0     C11234  10.497  10.779   2.110  0.2992  0.0200 -0.8653
   84MOL0     O11235  10.589  10.800   2.005 -0.0292  0.0907 -0.2804
   84MOL0     C11236  10.724  10.832   2.021 -0.0786 -0.8957 -0.0410
   84MOL0     C11237  10.805  10.820   1.909 -0.3285  0.5630 -0.0990
   84MOL0     C11238  10.941  10.846   1.913 -0.3163  0.0198  0.2639
   84MOL0     C11239  11.002  10.897   2.028 -0.1035 -0.2252 -0.4626
   84MOL0     O11240  11.134  10.946   2.045  0.0081  0.5415 -0.5569
   84MOL0     C11241  11.212  10.976   1.936 -0.3415 -0.4751 -0.5029
   84MOL0     C11242  11.329  11.055   1.981 -1.1002 -0.0502  0.2854
   84MOL0     C11243  11.414  11.080   1.845 -0.2029 -0.0347  0.0880
   84MOL0     C11244  11.560  11.096   1.871  0.0835 -0.5255 -0.3851
   84MOL0     C11245  11.627  11.161   1.747  0.0100 -0.6467 -0.4671
   84MOL0     C11246  11.776  11.144   1.770 -0.4216 -0.0288  0.3011
   84MOL0     C11247  11.859  11.203   1.668 -0.4832 -0.4014  1.1761
   84MOL0     C11248  12.005  11.148   1.652  1.2625  0.3325  0.0555
   84MOL0    Cl11249  12.089  11.108   1.812  0.0953  0.0057 -0.0489
   84MOL0     C11250  10.926  10.915   2.139  0.1700  0.7184 -0.6564
   84MOL0     C11251  10.787  10.885   2.133 -0.9126  0.5995 -0.2098
   84MOL0     O11252  10.523  10.795   2.231  0.5408  0.0358  0.5100
   84MOL0     C11253  10.314  10.754   1.940 -0.2669 -0.5378 -0.1081
   84MOL0     C11254  10.190  10.738   1.899 -0.4154  0.5319 -0.1998
   84MOL0     N11255   9.424  10.444   1.888 -0.3163 -0.1645  0.2684
   84MOL0     N11256   9.305  10.479   1.914  0.8835 -0.7329 -1.1689
   84MOL0     C11257   8.527   9.828   1.599  0.6337 -0.3777 -0.1063
   84MOL0     C11258   8.398   9.788   1.580  0.3054 -0.3830  0.6173
   84MOL0     C11259   7.958   9.773   1.493 -1.1255 -0.1833 -0.2954
   84MOL0     C11260   7.897   9.812   1.612  0.2227 -0.3200 -0.2251
   84MOL0     C11261   7.758   9.801   1.628 -0.1198 -0.5441  0.5591
   84MOL0     C11262   7.677   9.766   1.525  0.3467 -0.3969  0.3419
   84MOL0     O11263   7.541   9.769   1.545  0.0653  0.0514  0.1635
   84MOL0     C11264   7.452   9.720   1.436  0.5500  0.1418 -0.3630
   84MOL0     C11265   7.311   9.678   1.481 -0.6908  0.1841  0.7842
   84MOL0     C11266   7.256   9.765   1.589 -0.2722  0.0570 -0.1352
   84MOL0     C11267   7.104   9.743   1.580 -0.9482 -0.1679 -0.1311
   84MOL0     C11268   7.071   9.619   1.646 -0.2644 -0.2053  0.2766
   84MOL0     C11269   7.037   9.508   1.689 -1.0903  0.4552 -0.1629
   84MOL0     C11270   7.734   9.731   1.402  0.3203  0.7495  0.3977
   84MOL0     C11271   7.875   9.731   1.388 -0.5186 -0.2857 -0.1381
   84MOL0     C11272   7.916   9.682   1.253 -0.9273  0.1162  0.6904
   84MOL0     H11273   8.235  10.050   1.702 -0.0805  0.8476 -1.5957
   84MOL0     H11274   8.466  10.123   1.752  0.9262  0.2719 -0.0933
   84MOL0     H11275   8.686  10.168   1.661 -3.6363 -1.4033  0.6349
   84MOL0     H11276   8.679  10.102   1.831 -0.4238  2.0460  0.6678
   84MOL0     H11277   8.921  10.052   1.649 -0.4072 -1.0286  0.3832
   84MOL0     H11278   8.926  10.055   1.827  0.1292  2.8272  0.8011
   84MOL0     H11279   8.904  10.302   1.653 -1.1569  3.0300  1.2141
   84MOL0     H11280   9.043  10.256   1.752 -0.5338 -4.3402  0.5946
   84MOL0     H11281   8.771  10.349   1.827  0.5628  1.4500 -1.2131
   84MOL0     H11282   8.858  10.262   1.955 -0.2435 -0.1638  1.2831
   84MOL0     H11283   8.889  10.519   1.991  1.4189 -0.8285  1.3945
   84MOL0     H11284   9.028  10.417   1.956 -0.4777 -1.5288  0.3609
   84MOL0     H11285   9.046  10.500   1.731  2.6876  2.1970  0.4613
   84MOL0     H11286   8.886  10.590   1.742  1.5937  1.4735  0.1155
   84MOL0     H11287   8.960  10.747   1.892 -0.2947 -0.3810 -0.1102
   84MOL0     H11288   9.066  10.746   1.747  1.0511 -2.0328 -0.5463
   84MOL0     H11289   9.206  10.795   1.920  2.2427 -0.8239  0.4632
   84MOL0     H11290   9.140  10.673   2.024  1.7979  1.3502  0.9386
   84MOL0     H11291   9.375  10.747   1.767 -0.2731  0.7981  0.7622
   84MOL0     H11292   9.651  10.495   1.696  1.4525  1.6643 -0.5586
   84MOL0     H11293   9.624  10.660   1.696 -2.4559  1.3289 -0.0897
   84MOL0     H11294   9.741  10.508   1.939 -2.2811  1.5298  2.9532
   84MOL0     H11295   9.829  10.603   1.815  0.3159  1.6076  0.4872
   84MOL0     H11296   9.629  10.719   2.015 -1.4949  0.9715 -1.8687
   84MOL0     H11297   9.703  10.811   1.890 -0.3172  1.0087  1.5383
   84MOL0     H11298   9.858  10.680   2.116 -1.9237  1.7646  0.7545
   84MOL0     H11299   9.843  10.852   2.091 -1.4074  1.7420 -2.5235
   84MOL0     H11300  10.034  10.800   2.199  1.0134  1.3519 -0.5171
   84MOL0     H11301  10.271  10.802   2.271 -0.8432 -1.1189  0.2763
   84MOL0     H11302  10.759  10.780   1.819 -1.0057 -3.6352  1.8917
   84MOL0     H11303  11.011  10.829   1.831  0.3685 -0.0794  0.8562
   84MOL0     H11304  11.247  10.878   1.901 -2.3335 -0.9471 -1.2922
   84MOL0     H11305  11.170  11.040   1.859  4.0048  3.4512 -0.0413
   84MOL0     H11306  11.301  11.151   2.024 -0.9391  0.5213 -0.8523
   84MOL0     H11307  11.379  11.003   2.064 -1.6866 -0.5007  0.3587
   84MOL0     H11308  11.409  10.996   1.776  1.7843  0.3324 -0.5888
   84MOL0     H11309  11.372  11.173   1.806 -1.6458 -0.3955  0.7397
   84MOL0     H11310  11.605  11.002   1.903 -1.1869 -1.9457 -2.4976
   84MOL0     H11311  11.554  11.157   1.961 -3.8241 -1.2401  0.0119
   84MOL0     H11312  11.598  11.263   1.723  2.5810 -0.2363 -2.2757
   84MOL0     H11313  11.605  11.101   1.658  0.1723 -2.3596  0.5980
   84MOL0     H11314  11.809  11.197   1.860 -0.0466 -0.1188  0.2206
   84MOL0     H11315  11.800  11.037   1.774  0.7989  0.2095 -0.0969
   84MOL0     H11316  11.865  11.312   1.682 -0.6790 -0.0726 -0.8872
   84MOL0     H11317  11.819  11.186   1.567  1.3856  0.8236  0.1558
   84MOL0     H11318  12.004  11.062   1.585  1.4233  1.2134 -1.1272
   84MOL0     H11319  12.065  11.224   1.600  1.0874  0.8390  0.5800
   84MOL0     H11320  10.982  10.960   2.220  0.8393  0.0784 -0.7562
   84MOL0     H11321  10.726  10.916   2.217  1.0006 -0.2261  1.5546
   84MOL0     H11322  10.386  10.762   1.860 -2.8547  0.8903 -2.4704
   84MOL0     H11323  10.173  10.724   1.793  1.0026  2.4086 -0.7215
   84MOL0     H11324   8.610   9.767   1.565  0.7084 -0.6553  0.5767
   84MOL0     H11325   8.390   9.694   1.527  1.3995 -0.3427  0.3544
   84MOL0     H11326   7.949   9.838   1.704  0.9747 -1.8572 -0.1821
   84MOL0     H11327   7.718   9.832   1.724  2.3974  2.2614  0.8737
   84MOL0     H11328   7.501   9.638   1.383  2.2352  0.2065  1.0317
   84MOL0     H11329   7.445   9.800   1.361 -0.1123  1.8962  1.4969
   84MOL0     H11330   7.309   9.579   1.527 -1.0251  0.3996  1.2454
   84MOL0     H11331   7.257   9.679   1.386 -1.2112  0.6450  1.0727
   84MOL0     H11332   7.276   9.870   1.565  0.4897 -0.1474 -0.4419
   84MOL0     H11333   7.305   9.746   1.685  0.4186  2.3334  0.0220
   84MOL0     H11334   7.060   9.831   1.629 -1.7926 -1.2802  1.1907
   84MOL0     H11335   7.056   9.747   1.482  2.1598  2.9988 -1.7741
   84MOL0     H11336   7.017   9.414   1.736  0.6575 -0.0390 -0.3455
   84MOL0     H11337   7.667   9.709   1.320 -0.4267 -0.1992  1.2386
   84MOL0     H11338   7.939   9.751   1.171 -3.3330 -3.3255 -3.2826
   84MOL0     H11339   7.996   9.608   1.261 -0.9988 -0.0807 -0.2200
   84MOL0     H11340   7.823   9.639   1.213 -1.6271  1.2267  1.0778
   85MOL0     O11341   1.611   3.182  10.353 -0.2677 -0.4122 -1.1543
   85MOL0     C11342   1.518   3.121  10.297  0.1461  0.1010  0.6298
   85MOL0     O11343   1.534   3.010  10.210 -0.3616  0.5703 -0.5637
   85MOL0     C11344   1.668   2.977  10.184 -0.4226  0.8138 -0.9721
   85MOL0     C11345   1.704   2.843  10.208 -0.3164  0.3303 -0.6070
   85MOL0     C11346   1.839   2.800  10.187  0.7255 -0.2762  0.1860
   85MOL0     C11347   1.934   2.894  10.140  0.2383  0.4635 -0.2995
   85MOL0     O11348   2.070   2.868  10.129  0.1312 -0.3509 -0.5400
   85MOL0     C11349   2.113   2.730  10.120  0.2365 -0.5716  0.5503
   85MOL0     C11350   2.251   2.715  10.077  0.2658  0.8546 -0.0126
   85MOL0     C11351   2.286   2.565  10.086  0.3801 -0.0173  0.3257
   85MOL0     C11352   2.433   2.547  10.069  0.3545  0.2299 -0.4786
   85MOL0     C11353   2.454   2.389  10.079  0.1578 -0.3877  0.2438
   85MOL0     C11354   2.601   2.364  10.092 -0.4166  0.1138 -0.3394
   85MOL0     C11355   2.644   2.226  10.048 -0.8813  0.0699  0.0959
   85MOL0     C11356   2.800   2.211  10.048 -0.4811  0.5400  0.4937
   85MOL0     N11357   2.853   2.103   9.961 -0.2332 -0.1034 -0.4578
   85MOL0     C11358   2.894   2.117   9.833 -0.4633 -0.6771  1.5091
   85MOL0     C11359   2.919   1.995   9.784 -0.2538  0.0752 -0.6502
   85MOL0     C11360   2.991   1.960   9.658 -0.7173  0.8819  0.2004
   85MOL0     C11361   3.045   1.821   9.644 -0.5295  0.0505 -0.7653
   85MOL0     C11362   3.106   1.788   9.511  1.5482 -0.1225 -0.0106
   85MOL0     C11363   3.159   1.652   9.514 -0.0464  0.4738 -0.4039
   85MOL0     O11364   3.192   1.612   9.380  0.2810  0.6353  0.2343
   85MOL0     C11365   3.303   1.674   9.313  0.3650 -0.6293  0.3177
   85MOL0     C11366   3.395   1.769   9.362  0.9070  0.3853 -0.1983
   85MOL0     C11367   3.494   1.813   9.283  0.9468  0.0685 -0.1038
   85MOL0     C11368   3.502   1.773   9.146 -0.4000 -0.2347 -0.0898
   85MOL0     C11369   3.606   1.827   9.060 -0.0813 -1.1398 -0.0439
   85MOL0     O11370   3.710   1.866   9.133 -0.1322  0.6796 -0.2362
   85MOL0     C11371   3.807   1.942   9.069  0.6567 -0.3258  0.3287
   85MOL0     C11372   3.936   1.886   9.038 -0.1432 -0.4775  0.2056
   85MOL0     C11373   4.042   1.961   8.981 -0.2437 -0.2309 -0.4800
   85MOL0     C11374   4.010   2.089   8.930  0.2929 -0.8467  0.1796
   85MOL0     O11375   4.093   2.166   8.864 -0.0436 -0.7085  0.5063
   85MOL0     C11376   4.175   2.094   8.766  0.2812 -0.0202  0.4502
   85MOL0     C11377   4.321   2.106   8.804  0.6212  0.3976 -0.0694
   85MOL0     C11378   4.421   2.034   8.715  0.0680 -0.3918  0.0081
   85MOL0     C11379   4.553   2.111   8.706  0.6834 -0.2797  0.4578
   85MOL0     C11380   4.668   2.018   8.667  0.6173 -0.6214 -0.1871
   85MOL0     C11381   4.794   2.090   8.678  0.2075  0.3693  0.4819
   85MOL0     C11382   4.919   2.003   8.640 -0.2162 -1.6721  0.2720
   85MOL0     C11383   5.057   2.070   8.676  0.7009  0.0435 -0.0993
   85MOL0    Cl11384   5.180   1.943   8.649  0.3046  0.3924 -0.4444
   85MOL0     C11385   3.877   2.146   8.963  0.6149  0.3541 -0.2205
   85MOL0     C11386   3.783   2.074   9.035 -1.2742 -0.1836  0.0139
   85MOL0     O11387   3.587   1.849   8.938 -0.0103  0.0899  0.0648
   85MOL0     C11388   3.410   1.683   9.100 -0.5914  0.6609 -0.4516
   85MOL0     C11389   3.317   1.632   9.183 -0.7089  0.0760  0.7768
   85MOL0     N11390   2.884   1.912   9.893 -0.5984  0.6716  0.4162
   85MOL0     N11391   2.842   1.972   9.990 -0.4715  0.5598 -1.2366
   85MOL0     C11392   1.895   3.028  10.118  1.3297  1.1986  0.1524
   85MOL0     C11393   1.762   3.065  10.143 -0.5418 -0.1987  0.0558
   85MOL0     C11394   1.387   3.173  10.304  0.1975  0.8731 -0.5773
   85MOL0     C11395   1.317   3.152  10.426 -0.8393  0.1751  0.6425
   85MOL0     C11396   1.181   3.200  10.433  0.1276 -0.3481  0.6118
   85MOL0     C11397   1.115   3.263  10.319 -0.4324  0.2763 -0.4942
   85MOL0     O11398   0.987   3.312  10.328 -0.8342  0.9930 -0.0181
   85MOL0     C11399   0.914   3.360  10.222 -0.2027 -0.0653 -1.0058
   85MOL0     C11400   0.960   3.506  10.186 -0.1058 -1.0182 -0.1069
   85MOL0     C11401   0.953   3.602  10.303  0.5436 -0.7647  0.3198
   85MOL0     C11402   0.813   3.634  10.341  0.2437  0.2092  0.0030
   85MOL0     C11403   0.729   3.700  10.241 -0.6491 -0.3623  0.3055
   85MOL0     C11404   0.681   3.754  10.153 -0.0282 -0.4222 -0.0179
   85MOL0     C11405   1.189   3.265  10.198 -0.5854 -0.3460 -0.0268
   85MOL0     C11406   1.321   3.223  10.190 -0.5362  1.1227  0.1184
   85MOL0     C11407   1.392   3.239  10.064 -0.3982  0.0914  0.5048
   85MOL0     H11408   1.625   2.775  10.236 -0.8908  1.2080 -0.0788
   85MOL0     H11409   1.857   2.696  10.213 -0.3663 -0.2755  1.0206
   85MOL0     H11410   2.088   2.675  10.212 -1.6206  1.3231  1.2463
   85MOL0     H11411   2.044   2.690  10.046 -1.6714 -0.4535  2.1908
   85MOL0     H11412   2.322   2.770  10.139  0.8704  0.0912 -0.0116
   85MOL0     H11413   2.268   2.755   9.977 -0.3403 -0.9527 -0.8905
   85MOL0     H11414   2.231   2.521  10.002  0.7737  1.1375 -0.5700
   85MOL0     H11415   2.254   2.515  10.178  1.3699  0.4020  0.9077
   85MOL0     H11416   2.472   2.573   9.970  0.5221 -0.5289 -0.6231
   85MOL0     H11417   2.492   2.598  10.146 -0.8762  0.0846  0.5760
   85MOL0     H11418   2.398   2.347  10.163 -1.1095 -0.6476 -0.7074
   85MOL0     H11419   2.414   2.342   9.988  1.0231 -0.9074  0.1217
   85MOL0     H11420   2.659   2.439  10.038  1.5211  0.2069  1.7160
   85MOL0     H11421   2.627   2.377  10.197 -1.0124  0.8250 -0.2691
   85MOL0     H11422   2.610   2.220   9.944  0.3188  1.4742 -0.4161
   85MOL0     H11423   2.604   2.142  10.105 -0.7893 -0.9604 -1.2850
   85MOL0     H11424   2.844   2.308  10.023  2.5959 -0.2067  2.4139
   85MOL0     H11425   2.831   2.183  10.149 -2.5423 -3.3996  0.2054
   85MOL0     H11426   2.906   2.207   9.773  2.0392 -2.4092 -0.8723
   85MOL0     H11427   2.910   1.980   9.587 -0.4997  0.7647 -0.0810
   85MOL0     H11428   3.070   2.034   9.643 -0.7212  0.4919 -2.2365
   85MOL0     H11429   3.124   1.811   9.720 -1.6340  6.5333  1.9147
   85MOL0     H11430   2.966   1.747   9.659 -0.7648  0.5625  0.6713
   85MOL0     H11431   3.180   1.861   9.479  2.8582 -0.8560  1.2287
   85MOL0     H11432   3.017   1.792   9.448  0.9121 -0.6432  0.8161
   85MOL0     H11433   3.081   1.585   9.554 -1.2592  1.3163 -1.2772
   85MOL0     H11434   3.245   1.644   9.581 -0.2483 -0.7636 -0.2517
   85MOL0     H11435   3.390   1.788   9.468  1.4593 -3.6245  0.6750
   85MOL0     H11436   3.561   1.887   9.324 -0.2086  2.1353 -1.7696
   85MOL0     H11437   3.963   1.781   9.050  2.6884  0.1615  0.2840
   85MOL0     H11438   4.144   1.926   8.975  0.1516  0.3856  1.7697
   85MOL0     H11439   4.149   1.988   8.755  0.8049 -0.9902  5.6973
   85MOL0     H11440   4.158   2.141   8.669  2.1535  0.1839  0.1777
   85MOL0     H11441   4.344   2.213   8.809  0.2092  0.5159 -0.5947
   85MOL0     H11442   4.335   2.058   8.902  1.8077  1.5014  0.3257
   85MOL0     H11443   4.445   1.938   8.762 -2.6765  0.0380  2.6639
   85MOL0     H11444   4.374   2.028   8.617  0.9242  0.6690 -0.4841
   85MOL0     H11445   4.580   2.151   8.804 -0.1555  1.9534 -0.1578
   85MOL0     H11446   4.543   2.196   8.637  0.7804  0.4141  1.2684
   85MOL0     H11447   4.672   1.987   8.563  1.1642  0.3479 -0.4699
   85MOL0     H11448   4.668   1.935   8.738  0.0779  1.8665  3.0099
   85MOL0     H11449   4.791   2.167   8.601 -2.6297 -1.5564 -1.5772
   85MOL0     H11450   4.792   2.130   8.780 -2.6906  1.2656  0.1770
   85MOL0     H11451   4.918   1.983   8.532 -2.9338  0.1281 -0.1392
   85MOL0     H11452   4.923   1.911   8.699  0.2674 -0.7120  1.7909
   85MOL0     H11453   5.081   2.153   8.609  0.9107 -0.8885 -1.2183
   85MOL0     H11454   5.054   2.113   8.776 -3.4420 -0.5377  0.1942
   85MOL0     H11455   3.864   2.251   8.938  0.6451 -0.1088 -2.3734
   85MOL0     H11456   3.684   2.107   9.064 -2.0153 -2.4768  0.3277
   85MOL0     H11457   3.424   1.641   9.001  1.0976  1.3866 -0.5515
   85MOL0     H11458   3.253   1.551   9.150  1.0970 -1.0161 -0.2061
   85MOL0     H11459   1.955   3.100  10.063 -1.2812  2.0017 -1.8731
   85MOL0     H11460   1.732   3.167  10.122 -0.2863 -0.5314 -2.1219
   85MOL0     H11461   1.357   3.098  10.510 -1.1215  1.5197  1.6763
   85MOL0     H11462   1.140   3.205  10.534 -0.2257  3.2445  0.4056
   85MOL0     H11463   0.807   3.370  10.241 -0.5236 -1.3278 -2.0539
   85MOL0     H11464   0.925   3.294  10.136  2.3621  2.3532 -2.7215
   85MOL0     H11465   0.904   3.540  10.098  0.9103  1.5865  0.1529
   85MOL0     H11466   1.063   3.511  10.149 -0.5489  0.5332 -1.2146
   85MOL0     H11467   1.011   3.692  10.282 -1.9488  1.1416  1.1018
   85MOL0     H11468   1.001   3.557  10.391  1.2886 -0.4195  0.1010
   85MOL0     H11469   0.761   3.553  10.393  0.9073 -0.8420 -0.9398
   85MOL0     H11470   0.811   3.717  10.412 -0.7908  1.1432 -1.0737
   85MOL0     H11471   0.642   3.825  10.083 -2.3483  0.1858  1.7782
   85MOL0     H11472   1.135   3.292  10.107  0.5479 -1.8162 -1.1986
   85MOL0     H11473   1.497   3.208  10.063 -0.8103 -1.4389 -0.9607
   85MOL0     H11474   1.348   3.185   9.979  1.3569  1.3183 -1.2944
   85MOL0     H11475   1.399   3.346  10.042  0.1322 -0.1617 -0.6495
   86MOL0     O11476   4.493   2.470   9.964  0.3548  0.1492  0.3854
   86MOL0     C11477   4.398   2.432   9.900  0.6063 -0.8874  0.1039
   86MOL0     O11478   4.402   2.366   9.777  0.7243  0.0968 -0.9178
   86MOL0     C11479   4.526   2.326   9.733  0.0478  0.1042 -0.4588
   86MOL0     C11480   4.615   2.261   9.819  0.2157 -1.1742  0.3077
   86MOL0     C11481   4.736   2.208   9.762  0.0258  1.0018 -0.4074
   86MOL0     C11482   4.768   2.219   9.614 -0.0901 -0.1787 -1.2856
   86MOL0     O11483   4.885   2.161   9.572  0.6100 -0.4914 -0.3483
   86MOL0     C11484   4.938   2.207   9.447  0.7843  0.3147 -0.1484
   86MOL0     C11485   5.078   2.160   9.439 -0.5040 -0.1043 -0.2005
   86MOL0     C11486   5.169   2.249   9.346  0.2215 -1.2119 -0.4730
   86MOL0     C11487   5.300   2.188   9.325 -0.4175 -0.1196  0.5798
   86MOL0     C11488   5.300   2.094   9.209 -0.5091  0.9284 -0.2328
   86MOL0     C11489   5.441   2.037   9.201  0.0301  0.0751  0.1910
   86MOL0     C11490   5.452   1.899   9.124 -0.1829  0.5043  0.8309
   86MOL0     C11491   5.600   1.859   9.096  0.1695 -0.2683  0.1587
   86MOL0     N11492   5.609   1.726   9.028  0.7134 -0.4025  0.6038
   86MOL0     C11493   5.567   1.710   8.891  1.0685 -0.6467 -0.2047
   86MOL0     C11494   5.617   1.591   8.856  0.0063  0.2699  0.3888
   86MOL0     C11495   5.589   1.512   8.730 -1.4261 -0.1022  0.6122
   86MOL0     C11496   5.642   1.570   8.598  0.2389 -0.0080 -0.1699
   86MOL0     C11497   5.568   1.700   8.550 -0.1480 -0.6941 -0.2448
   86MOL0     C11498   5.627   1.769   8.438 -0.2829 -0.5278  0.5363
   86MOL0     O11499   5.760   1.822   8.469  0.8357  0.4138  0.0209
   86MOL0     C11500   5.760   1.917   8.569 -0.7260  0.3254 -0.2100
   86MOL0     C11501   5.687   2.038   8.559  0.1523 -0.5303  0.5111
   86MOL0     C11502   5.687   2.138   8.658  0.4487 -0.7697  0.1387
   86MOL0     C11503   5.747   2.106   8.781 -1.1384 -0.9056 -1.1673
   86MOL0     C11504   5.741   2.207   8.885  0.4767  1.5287  0.2347
   86MOL0     O11505   5.810   2.179   8.998 -0.8091  0.4191  0.1796
   86MOL0     C11506   5.803   2.238   9.121 -0.1575  1.0201  0.2946
   86MOL0     C11507   5.693   2.315   9.169 -0.0397  0.1885  0.7023
   86MOL0     C11508   5.688   2.347   9.303  0.2539 -0.3324  0.2207
   86MOL0     C11509   5.787   2.327   9.391 -0.1944  0.3813  1.0955
   86MOL0     O11510   5.780   2.358   9.527 -0.1227  0.0699  0.1374
   86MOL0     C11511   5.713   2.479   9.565  0.7411  0.2076  0.3406
   86MOL0     C11512   5.753   2.519   9.710  0.5880  0.0692  0.0724
   86MOL0     C11513   5.709   2.423   9.820 -0.3603  0.0446  1.3197
   86MOL0     C11514   5.676   2.501   9.930 -0.3004  0.1769 -0.0598
   86MOL0     C11515   5.597   2.417  10.021 -0.0485 -0.7465 -0.2420
   86MOL0     C11516   5.537   2.504  10.134  0.2019 -0.0870  0.2169
   86MOL0     C11517   5.450   2.424  10.216 -0.2603 -0.4498 -0.4007
   86MOL0     C11518   5.370   2.493  10.330 -0.0538  0.1362  0.3974
   86MOL0    Cl11519   5.479   2.527  10.463 -0.3224  0.1987 -0.2006
   86MOL0     C11520   5.901   2.251   9.344  0.2541  0.1769  0.3111
   86MOL0     C11521   5.904   2.204   9.213 -0.0725  0.1629  0.4121
   86MOL0     O11522   5.686   2.311   8.862  0.6866 -0.2547 -0.2984
   86MOL0     C11523   5.828   1.986   8.796  0.3492  0.5694 -0.4589
   86MOL0     C11524   5.831   1.894   8.690 -0.4095 -0.6482 -0.3384
   86MOL0     N11525   5.687   1.537   8.965  0.0923 -0.2023 -0.4701
   86MOL0     N11526   5.686   1.620   9.063  0.0202 -0.3889  0.5543
   86MOL0     C11527   4.675   2.290   9.538 -0.5565  0.0393 -1.0257
   86MOL0     C11528   4.561   2.343   9.602 -0.7159  0.0882 -0.2962
   86MOL0     C11529   4.255   2.486   9.933  0.1646  0.1764  0.2717
   86MOL0     C11530   4.150   2.416   9.867 -0.0567 -0.6365 -0.8626
   86MOL0     C11531   4.017   2.444   9.906 -0.1937 -0.3673  0.0325
   86MOL0     C11532   3.988   2.537  10.002  0.2440 -0.6911  0.1410
   86MOL0     O11533   3.855   2.553  10.022  0.3254  0.7277 -0.6187
   86MOL0     C11534   3.810   2.659  10.107 -0.2908 -0.1329 -0.1370
   86MOL0     C11535   3.655   2.663  10.095 -0.2585 -0.8898  0.0674
   86MOL0     C11536   3.588   2.753  10.209 -0.0226  0.1497 -0.2057
   86MOL0     C11537   3.442   2.762  10.177  0.2038 -0.1466 -0.5547
   86MOL0     C11538   3.387   2.860  10.271 -0.5772  0.0062 -0.5782
   86MOL0     C11539   3.344   2.933  10.363 -0.8044  0.7554 -0.1889
   86MOL0     C11540   4.091   2.617  10.047  0.2828 -0.3101  0.7808
   86MOL0     C11541   4.220   2.590  10.014 -0.8525 -0.2217  0.5377
   86MOL0     C11542   4.331   2.662  10.092  0.4686  0.3149  0.6282
   86MOL0     H11543   4.588   2.241   9.922  3.6067  1.0206  1.7698
   86MOL0     H11544   4.800   2.145   9.824  0.4916 -0.1264 -1.9828
   86MOL0     H11545   4.879   2.144   9.380  1.9916 -1.9959  0.8433
   86MOL0     H11546   4.926   2.315   9.432 -0.0263 -0.0012 -2.0720
   86MOL0     H11547   5.061   2.060   9.397 -0.0685 -0.3030  0.0903
   86MOL0     H11548   5.123   2.139   9.537 -0.3078 -2.3667 -0.7059
   86MOL0     H11549   5.182   2.349   9.387 -0.0290 -1.0929 -0.6829
   86MOL0     H11550   5.115   2.258   9.251  0.1094 -0.3580 -0.3350
   86MOL0     H11551   5.378   2.262   9.302  2.0479 -3.2458 -2.0909
   86MOL0     H11552   5.326   2.131   9.415 -0.6165 -0.4348  0.4348
   86MOL0     H11553   5.229   2.015   9.232  0.4488 -1.1011 -3.6075
   86MOL0     H11554   5.271   2.147   9.118 -1.8479  0.0418 -0.3439
   86MOL0     H11555   5.486   2.115   9.139  0.5314  0.9004  1.5574
   86MOL0     H11556   5.495   2.047   9.295 -1.5014  1.6892  0.9471
   86MOL0     H11557   5.406   1.906   9.025 -0.8880 -0.3070  1.0895
   86MOL0     H11558   5.404   1.823   9.186 -2.4751  1.8687  0.8491
   86MOL0     H11559   5.655   1.933   9.037  1.9455 -0.3176  1.6586
   86MOL0     H11560   5.651   1.853   9.193  1.5671 -0.8623 -0.5806
   86MOL0     H11561   5.497   1.775   8.839  0.9663 -0.2717  0.3932
   86MOL0     H11562   5.642   1.419   8.750 -2.3617 -1.4553 -2.5892
   86MOL0     H11563   5.480   1.503   8.731 -1.2965 -2.0667  0.6938
   86MOL0     H11564   5.748   1.597   8.607 -0.0243  0.5709  1.5389
   86MOL0     H11565   5.627   1.488   8.527 -2.2697  0.5836 -0.4057
   86MOL0     H11566   5.548   1.782   8.620  1.5140 -0.8981  0.5035
   86MOL0     H11567   5.469   1.678   8.509 -0.3028  1.9045 -1.4554
   86MOL0     H11568   5.557   1.841   8.394  1.4939  0.5035 -0.7117
   86MOL0     H11569   5.637   1.693   8.360 -0.2443  0.9041 -0.9044
   86MOL0     H11570   5.619   2.049   8.476  1.5377 -2.6067 -1.0038
   86MOL0     H11571   5.631   2.230   8.647 -0.8399 -1.5793 -0.2857
   86MOL0     H11572   5.625   2.368   9.103 -0.4365 -1.5431 -0.3219
   86MOL0     H11573   5.593   2.388   9.335 -0.7748  0.2466 -3.1561
   86MOL0     H11574   5.733   2.559   9.493  0.5474  0.1819  0.2557
   86MOL0     H11575   5.604   2.471   9.558  0.6286  2.4980 -2.7339
   86MOL0     H11576   5.858   2.543   9.729  0.4099  0.7355  0.2245
   86MOL0     H11577   5.704   2.617   9.717 -0.8932 -0.5345 -1.2316
   86MOL0     H11578   5.623   2.372   9.776 -0.2728  0.5353  0.5568
   86MOL0     H11579   5.784   2.349   9.850  0.7552  0.6783  0.2221
   86MOL0     H11580   5.610   2.581   9.897 -2.3310 -2.1983 -2.2008
   86MOL0     H11581   5.761   2.528   9.993  0.9247 -2.8754 -0.2357
   86MOL0     H11582   5.647   2.325  10.052  0.4192 -2.4630 -5.2436
   86MOL0     H11583   5.514   2.377   9.962  0.4055  1.4875 -2.5646
   86MOL0     H11584   5.612   2.548  10.201  0.2484 -0.1394  0.1983
   86MOL0     H11585   5.472   2.578  10.087  0.3799 -1.0864 -1.7152
   86MOL0     H11586   5.498   2.333  10.253  0.3953  0.3586  0.8236
   86MOL0     H11587   5.370   2.393  10.148 -0.8253 -1.8591  0.8691
   86MOL0     H11588   5.326   2.580  10.282  1.0878  1.0496  0.9650
   86MOL0     H11589   5.287   2.434  10.371 -0.2760 -0.3293 -0.6816
   86MOL0     H11590   5.976   2.214   9.413  2.0392 -0.2746 -1.7627
   86MOL0     H11591   5.985   2.140   9.180 -1.5295 -1.4588 -0.1755
   86MOL0     H11592   5.875   1.940   8.883 -1.2113 -0.1787  0.0332
   86MOL0     H11593   5.882   1.798   8.696 -1.5470 -1.2670 -0.2592
   86MOL0     H11594   4.689   2.305   9.432  0.7345  0.0698 -0.8673
   86MOL0     H11595   4.491   2.391   9.533 -1.7274  0.8176  1.1954
   86MOL0     H11596   4.162   2.336   9.796 -0.8144 -0.4333 -1.2302
   86MOL0     H11597   3.930   2.392   9.867 -0.3232  1.6894 -2.7466
   86MOL0     H11598   3.857   2.747  10.063  0.7484 -1.6612 -2.2995
   86MOL0     H11599   3.841   2.644  10.211  1.3668  2.5112 -0.1632
   86MOL0     H11600   3.616   2.563  10.111 -0.0698 -1.1215 -0.8801
   86MOL0     H11601   3.624   2.707   9.999  1.4668  2.0287  0.7105
   86MOL0     H11602   3.632   2.849  10.237  0.0927 -0.1509  0.6781
   86MOL0     H11603   3.586   2.692  10.300  0.0742 -3.4698 -2.4305
   86MOL0     H11604   3.438   2.805  10.077  2.4481  0.9511 -0.2353
   86MOL0     H11605   3.386   2.668  10.183 -0.1734  0.1149  0.0565
   86MOL0     H11606   3.318   2.972  10.460 -0.2710  1.5230 -0.3538
   86MOL0     H11607   4.078   2.707  10.106  1.7599  0.8762 -0.6035
   86MOL0     H11608   4.303   2.750  10.151  2.4729  3.4741 -2.7143
   86MOL0     H11609   4.388   2.593  10.155  0.9668 -0.5663 -0.7392
   86MOL0     H11610   4.403   2.697  10.017  2.0100 -0.6239  1.5975
   87MOL0     O11611   7.387   8.717   9.139  0.6611  0.1523  0.7764
   87MOL0     C11612   7.310   8.726   9.232  1.0190  0.1679 -0.7159
   87MOL0     O11613   7.347   8.747   9.358  0.0753  0.6510 -0.4144
   87MOL0     C11614   7.481   8.760   9.374  0.4882  0.7412 -0.1698
   87MOL0     C11615   7.553   8.869   9.322 -0.2638 -0.4499  0.6952
   87MOL0     C11616   7.695   8.876   9.338 -0.3384  0.3154 -0.9694
   87MOL0     C11617   7.764   8.766   9.406 -0.5446 -0.0848  0.6242
   87MOL0     O11618   7.905   8.761   9.432  0.4027  0.5910  0.0325
   87MOL0     C11619   7.982   8.798   9.317 -0.7448  0.3884 -0.5098
   87MOL0     C11620   8.129   8.770   9.341 -0.3160 -0.4452  0.2933
   87MOL0     C11621   8.203   8.784   9.208  0.4712 -0.7058  0.2007
   87MOL0     C11622   8.357   8.778   9.251  0.1887  0.1542 -0.0173
   87MOL0     C11623   8.435   8.804   9.124 -0.0166  0.6715 -0.0881
   87MOL0     C11624   8.578   8.841   9.169  0.0993  0.3776 -0.1344
   87MOL0     C11625   8.660   8.856   9.044 -0.1189  1.2174  0.6520
   87MOL0     C11626   8.811   8.876   9.074 -0.3718 -0.1716  0.7173
   87MOL0     N11627   8.881   8.907   8.952 -0.0244 -0.1362  0.0244
   87MOL0     C11628   8.862   9.026   8.888  0.5783 -0.3889  0.0744
   87MOL0     C11629   8.928   9.012   8.774  0.1005  0.0454  1.1802
   87MOL0     C11630   8.960   9.132   8.689 -0.3680  0.0458  1.0326
   87MOL0     C11631   9.111   9.133   8.668 -0.3719  0.0518 -0.2643
   87MOL0     C11632   9.164   9.262   8.608 -0.1663  0.3665 -0.0581
   87MOL0     C11633   9.314   9.273   8.590  0.3816 -0.4359  0.1018
   87MOL0     O11634   9.373   9.363   8.700 -0.5532 -0.1520  0.2000
   87MOL0     C11635   9.512   9.371   8.699 -0.1225  0.1703 -0.7043
   87MOL0     C11636   9.600   9.348   8.591 -0.3835  0.0318 -0.2709
   87MOL0     C11637   9.740   9.371   8.605  0.5519  0.8271  0.7386
   87MOL0     C11638   9.799   9.393   8.727  0.3848 -0.2213 -0.2294
   87MOL0     C11639   9.948   9.397   8.748 -0.6776  0.0533  0.1593
   87MOL0     O11640  10.014   9.411   8.627  0.0981  0.0617 -0.0810
   87MOL0     C11641  10.150   9.425   8.597 -0.1319  0.8225  0.5014
   87MOL0     C11642  10.183   9.479   8.480  0.6588 -0.3797 -0.2193
   87MOL0     C11643  10.315   9.486   8.437  0.3248  0.2781 -0.1414
   87MOL0     C11644  10.420   9.438   8.516  0.6553 -0.7017 -0.2120
   87MOL0     O11645  10.549   9.434   8.468 -0.7634 -0.3116  0.1394
   87MOL0     C11646  10.564   9.359   8.345  0.0377 -0.5427 -0.1882
   87MOL0     C11647  10.695   9.289   8.358  0.8374 -0.5890 -0.6810
   87MOL0     C11648  10.799   9.390   8.309  0.0192  0.5427 -0.1611
   87MOL0     C11649  10.939   9.334   8.347  0.5804 -1.4361  0.2783
   87MOL0     C11650  10.978   9.216   8.251  0.6970 -0.2158 -0.7102
   87MOL0     C11651  11.130   9.190   8.234  0.6183 -0.6949 -0.3998
   87MOL0     C11652  11.192   9.136   8.364 -0.8100 -0.7002  1.0977
   87MOL0     C11653  11.339   9.099   8.342  0.6064 -0.1525 -0.6176
   87MOL0    Cl11654  11.428   9.249   8.302  0.1990 -0.1899  0.5693
   87MOL0     C11655  10.378   9.386   8.641 -0.6889 -0.8549  0.3093
   87MOL0     C11656  10.247   9.379   8.681  0.2989 -0.0182  0.0971
   87MOL0     O11657  10.005   9.373   8.856 -0.5074 -0.2373  0.0042
   87MOL0     C11658   9.715   9.405   8.838  0.9232 -0.0819 -0.3000
   87MOL0     C11659   9.573   9.392   8.822  0.1647 -0.1425 -0.7767
   87MOL0     N11660   8.985   8.885   8.767  0.1541 -0.4221 -0.2545
   87MOL0     N11661   8.966   8.830   8.879  0.2185  0.1090  0.1706
   87MOL0     C11662   7.681   8.668   9.463 -0.2375  0.6539  0.5072
   87MOL0     C11663   7.545   8.660   9.459 -0.1059 -0.2894  0.0406
   87MOL0     C11664   7.160   8.711   9.217  0.5572  0.6401  1.1405
   87MOL0     C11665   7.080   8.706   9.331  0.2558  0.7983 -1.5853
   87MOL0     C11666   6.939   8.692   9.333 -0.4608 -0.3717 -0.8742
   87MOL0     C11667   6.870   8.662   9.212 -0.3912 -0.4552  0.0401
   87MOL0     O11668   6.737   8.680   9.207  0.3859 -0.1118 -0.1524
   87MOL0     C11669   6.671   8.555   9.160  1.0035  0.4337 -0.8360
   87MOL0     C11670   6.523   8.569   9.127  0.0551 -0.1138 -0.2666
   87MOL0     C11671   6.441   8.640   9.240  0.5675 -0.6115 -0.4003
   87MOL0     C11672   6.298   8.662   9.195 -1.2694 -0.0390  0.6603
   87MOL0     C11673   6.207   8.659   9.309  0.4055 -0.1089  0.3570
   87MOL0     C11674   6.126   8.665   9.398 -0.2936  0.0481 -0.1216
   87MOL0     C11675   6.952   8.656   9.097  0.0713 -0.3819  0.3205
   87MOL0     C11676   7.091   8.676   9.089  0.2971 -0.0804  0.2140
   87MOL0     C11677   7.157   8.686   8.958  0.5664 -0.6133 -0.2820
   87MOL0     H11678   7.505   8.952   9.271  0.7179 -1.3295 -1.8181
   87MOL0     H11679   7.728   8.971   9.298 -3.4196  2.0294  0.1994
   87MOL0     H11680   7.963   8.727   9.235 -0.8480  0.8646 -0.8981
   87MOL0     H11681   7.971   8.901   9.281  1.6244  0.2810 -1.7827
   87MOL0     H11682   8.140   8.675   9.396  2.1253  0.0539  0.7544
   87MOL0     H11683   8.166   8.846   9.411 -0.0498  0.8612 -1.2235
   87MOL0     H11684   8.183   8.876   9.153  0.4421 -1.0526 -0.3824
   87MOL0     H11685   8.182   8.694   9.150 -0.5204 -1.4763  1.7004
   87MOL0     H11686   8.380   8.864   9.315 -0.5465 -0.1811  0.7075
   87MOL0     H11687   8.382   8.684   9.301  0.3250 -0.4683 -1.2255
   87MOL0     H11688   8.434   8.708   9.071  3.1549  0.6243 -0.2480
   87MOL0     H11689   8.385   8.874   9.057 -1.0379  1.6842  1.6822
   87MOL0     H11690   8.585   8.932   9.230  1.7226  0.3887 -0.2912
   87MOL0     H11691   8.622   8.755   9.220  1.8635  2.1541  1.5191
   87MOL0     H11692   8.618   8.930   8.976  1.2371  0.0177 -1.6316
   87MOL0     H11693   8.650   8.761   8.991 -0.0687  0.2367  2.3170
   87MOL0     H11694   8.827   8.957   9.144  0.7112  0.0364  0.2475
   87MOL0     H11695   8.863   8.793   9.123 -1.1644  0.3664  2.5422
   87MOL0     H11696   8.824   9.121   8.924  0.3550 -0.0044 -1.1363
   87MOL0     H11697   8.909   9.117   8.593 -0.8642 -1.0239  1.4472
   87MOL0     H11698   8.916   9.222   8.732  0.3453  1.6245 -1.3493
   87MOL0     H11699   9.168   9.114   8.760 -1.2148  0.1494  0.2922
   87MOL0     H11700   9.128   9.051   8.597 -0.5145 -0.4079  0.2219
   87MOL0     H11701   9.132   9.346   8.671  0.0028  1.8692 -1.8886
   87MOL0     H11702   9.113   9.271   8.512  1.2837  0.4922 -0.8339
   87MOL0     H11703   9.342   9.321   8.496 -0.4861  1.6799  0.8460
   87MOL0     H11704   9.353   9.172   8.605  1.0338  0.1638  3.0158
   87MOL0     H11705   9.573   9.320   8.490  0.7908 -2.3455  0.0010
   87MOL0     H11706   9.805   9.373   8.518  1.4645  1.8261  1.4227
   87MOL0     H11707  10.099   9.506   8.417 -1.3044 -2.2938  1.4201
   87MOL0     H11708  10.345   9.525   8.340  0.3795  1.1200  0.2054
   87MOL0     H11709  10.480   9.288   8.340 -1.4839  0.8279  2.9919
   87MOL0     H11710  10.566   9.429   8.261  1.3379 -1.2414 -0.7698
   87MOL0     H11711  10.721   9.250   8.457 -1.4257  1.5019  0.8798
   87MOL0     H11712  10.684   9.205   8.290 -1.4505 -0.1941 -0.8552
   87MOL0     H11713  10.778   9.407   8.203 -0.2650  1.5958  0.0524
   87MOL0     H11714  10.785   9.487   8.357 -1.4272 -0.1039  0.8044
   87MOL0     H11715  10.948   9.296   8.450 -0.0814 -1.5896  0.2845
   87MOL0     H11716  11.009   9.416   8.332  0.5793 -1.4883 -0.0108
   87MOL0     H11717  10.938   9.239   8.152 -1.5489 -0.1704  0.1484
   87MOL0     H11718  10.923   9.126   8.279  0.7551 -0.8886 -2.6364
   87MOL0     H11719  11.158   9.129   8.148  1.3363 -1.1686  0.1570
   87MOL0     H11720  11.176   9.287   8.215  0.1650 -0.4096 -0.0555
   87MOL0     H11721  11.138   9.055   8.413  0.2517 -2.0935  0.0389
   87MOL0     H11722  11.204   9.217   8.437 -1.2900 -0.4502  0.9055
   87MOL0     H11723  11.378   9.062   8.437 -5.0602 -0.6819  1.8964
   87MOL0     H11724  11.349   9.020   8.266 -1.4741 -0.5528 -0.5181
   87MOL0     H11725  10.453   9.353   8.712 -2.6890 -1.0555  2.4554
   87MOL0     H11726  10.231   9.330   8.777 -0.0849  1.4804  0.8397
   87MOL0     H11727   9.754   9.419   8.939  0.2832 -4.7452  0.8297
   87MOL0     H11728   9.508   9.409   8.908  0.7194  1.8737 -0.6984
   87MOL0     H11729   7.731   8.594   9.524 -1.4840 -0.0986  0.6498
   87MOL0     H11730   7.493   8.584   9.517  0.8339 -2.1798 -1.4450
   87MOL0     H11731   7.119   8.709   9.432 -0.2001  0.8282 -1.4103
   87MOL0     H11732   6.892   8.704   9.430  0.4029 -0.2585 -0.4628
   87MOL0     H11733   6.679   8.486   9.244 -0.5023  1.8360  0.5320
   87MOL0     H11734   6.711   8.511   9.068 -1.6474 -0.5251 -1.6303
   87MOL0     H11735   6.482   8.469   9.113 -2.0784  0.5929  0.4939
   87MOL0     H11736   6.509   8.631   9.038 -4.3718  0.7276  0.7718
   87MOL0     H11737   6.481   8.742   9.243 -0.9741  0.0902 -2.0985
   87MOL0     H11738   6.442   8.583   9.334 -3.0395 -0.6019 -0.2001
   87MOL0     H11739   6.292   8.754   9.136  0.3292  0.1205  0.7047
   87MOL0     H11740   6.267   8.574   9.138 -0.5838  0.5703 -0.7160
   87MOL0     H11741   6.058   8.676   9.481  0.4166 -1.8597  0.7792
   87MOL0     H11742   6.890   8.650   9.008 -1.4918  1.9632  1.1463
   87MOL0     H11743   7.184   8.790   8.938 -1.5838 -0.0142 -0.3758
   87MOL0     H11744   7.249   8.627   8.957  1.9013  1.3119  1.2534
   87MOL0     H11745   7.088   8.656   8.878  1.9580 -0.0421 -1.7588
   88MOL0     O11746   6.457   1.809   8.081  0.1146 -0.0858  0.5291
   88MOL0     C11747   6.494   1.716   8.152 -1.0125 -0.0651 -0.4615
   88MOL0     O11748   6.594   1.731   8.238 -0.5880 -0.9418 -0.0694
   88MOL0     C11749   6.655   1.853   8.250 -0.3621  0.0617  0.3180
   88MOL0     C11750   6.596   1.969   8.319  0.7948  0.3202 -0.0836
   88MOL0     C11751   6.673   2.084   8.336  0.1463 -0.3042 -0.2314
   88MOL0     C11752   6.814   2.076   8.315 -0.7739  0.1915  0.2007
   88MOL0     O11753   6.888   2.184   8.340 -0.0563 -0.2821  0.2722
   88MOL0     C11754   6.848   2.289   8.433 -0.1967  0.1867 -0.3238
   88MOL0     C11755   6.974   2.336   8.509 -0.1140  0.4110  0.0777
   88MOL0     C11756   7.076   2.387   8.412 -0.5033 -0.8097 -0.3972
   88MOL0     C11757   7.188   2.462   8.487 -0.2438  0.3031 -0.3218
   88MOL0     C11758   7.320   2.458   8.414  0.6427  0.3281  0.3432
   88MOL0     C11759   7.310   2.522   8.275 -0.0037 -0.0545  0.0689
   88MOL0     C11760   7.450   2.557   8.223 -0.4450 -0.9771  0.4654
   88MOL0     C11761   7.566   2.462   8.243 -0.2889  0.2889  0.6133
   88MOL0     N11762   7.681   2.509   8.163 -0.0955 -1.1485 -0.0325
   88MOL0     C11763   7.731   2.639   8.166 -0.3402 -0.7623 -0.0818
   88MOL0     C11764   7.817   2.644   8.064  0.0044 -0.5807 -1.1135
   88MOL0     C11765   7.887   2.762   8.021  0.2632 -1.0728 -0.7692
   88MOL0     C11766   8.017   2.734   7.950 -0.3999  0.6607 -0.6753
   88MOL0     C11767   8.101   2.855   7.919  0.2179  0.0382  0.1072
   88MOL0     C11768   8.223   2.827   7.821  0.1385  0.7999  0.1422
   88MOL0     O11769   8.313   2.934   7.821  0.1346  0.0537 -0.3238
   88MOL0     C11770   8.445   2.898   7.833 -0.4492  0.6465 -0.2371
   88MOL0     C11771   8.495   2.864   7.955 -0.3490 -0.1472  0.6156
   88MOL0     C11772   8.627   2.841   7.970 -0.3070 -0.2517 -0.1585
   88MOL0     C11773   8.715   2.845   7.856  0.1675 -0.5986  0.4462
   88MOL0     C11774   8.857   2.810   7.873 -0.2455  0.8889 -0.5777
   88MOL0     O11775   8.932   2.829   7.766 -0.4514 -0.6194 -0.0743
   88MOL0     C11776   9.062   2.776   7.772  0.6815  1.1300 -0.1362
   88MOL0     C11777   9.088   2.635   7.760 -0.2748  0.5224 -1.0218
   88MOL0     C11778   9.218   2.581   7.747 -0.4854  0.2940  0.1644
   88MOL0     C11779   9.328   2.658   7.746  0.4274 -0.0127  0.2886
   88MOL0     O11780   9.447   2.588   7.718  0.2091  0.4519  0.4600
   88MOL0     C11781   9.574   2.651   7.746 -0.9071  0.3742  0.6200
   88MOL0     C11782   9.693   2.567   7.693  0.2797 -0.2979 -0.5732
   88MOL0     C11783   9.685   2.538   7.546  0.4811 -0.0151  0.3870
   88MOL0     C11784   9.798   2.447   7.501  0.3859  0.3411 -0.4054
   88MOL0     C11785   9.794   2.300   7.553 -0.4198  0.1408 -0.7555
   88MOL0     C11786   9.885   2.206   7.469 -0.0485 -0.1475 -0.8677
   88MOL0     C11787  10.029   2.238   7.512  0.4681 -0.4727 -0.3132
   88MOL0     C11788  10.135   2.142   7.451 -0.6455 -0.3009  0.2478
   88MOL0    Cl11789  10.293   2.230   7.474  0.3351  0.4242  0.2379
   88MOL0     C11790   9.308   2.797   7.768 -0.3729  0.9805  0.2698
   88MOL0     C11791   9.178   2.849   7.781 -0.2288  0.5040 -0.6044
   88MOL0     O11792   8.908   2.771   7.982  0.8156  0.1749  0.1422
   88MOL0     C11793   8.663   2.869   7.730  0.2792  0.5476 -0.5462
   88MOL0     C11794   8.528   2.902   7.722 -0.3937  0.0808  0.1673
   88MOL0     N11795   7.821   2.522   8.001  0.4509  0.0300 -0.2368
   88MOL0     N11796   7.738   2.443   8.059  0.1672 -0.9906  0.3771
   88MOL0     C11797   6.875   1.957   8.265 -0.6272  0.7523  0.3478
   88MOL0     C11798   6.793   1.853   8.228 -0.2103 -0.1143  0.0413
   88MOL0     C11799   6.424   1.588   8.150  0.2112 -0.1176 -0.2972
   88MOL0     C11800   6.465   1.491   8.244  0.2192  0.1594  0.5296
   88MOL0     C11801   6.409   1.364   8.242 -0.2387  0.0204  0.5852
   88MOL0     C11802   6.304   1.333   8.151 -0.2309  0.3013 -0.1222
   88MOL0     O11803   6.240   1.214   8.135  0.0496 -0.0483  0.0762
   88MOL0     C11804   6.250   1.124   8.238 -0.5807  0.3168  0.4631
   88MOL0     C11805   6.363   1.015   8.204 -1.1286  0.6379 -0.3147
   88MOL0     C11806   6.310   0.913   8.098  0.1183 -0.3114 -0.6025
   88MOL0     C11807   6.425   0.827   8.039 -0.0289 -0.8093 -0.5989
   88MOL0     C11808   6.373   0.706   7.974 -0.5594  0.1611 -0.7353
   88MOL0     C11809   6.348   0.597   7.923 -0.4697 -0.1261  0.2554
   88MOL0     C11810   6.257   1.433   8.066 -0.4686  0.7097 -0.5860
   88MOL0     C11811   6.314   1.556   8.072  0.8193 -0.0548  0.5414
   88MOL0     C11812   6.248   1.655   7.979  0.1849 -0.0613 -0.6416
   88MOL0     H11813   6.492   1.946   8.342  0.2004 -2.3349 -4.4219
   88MOL0     H11814   6.641   2.186   8.354 -0.9003 -0.2953 -1.9813
   88MOL0     H11815   6.799   2.371   8.378 -0.3024 -0.1535 -0.7403
   88MOL0     H11816   6.767   2.264   8.503  0.2321  0.2970  0.2164
   88MOL0     H11817   7.012   2.266   8.583 -0.2645  1.1186  0.8427
   88MOL0     H11818   6.938   2.420   8.569 -0.1266 -0.1930  0.9296
   88MOL0     H11819   7.031   2.448   8.334  0.3523 -1.2586 -1.2683
   88MOL0     H11820   7.115   2.304   8.353 -0.0676  0.5558 -2.0961
   88MOL0     H11821   7.157   2.563   8.515  1.2349  0.1631  2.1108
   88MOL0     H11822   7.216   2.415   8.582  3.8419  1.0327 -0.9750
   88MOL0     H11823   7.399   2.502   8.475  1.4273  1.7397 -1.5722
   88MOL0     H11824   7.341   2.350   8.415 -1.2038 -0.1521  4.1716
   88MOL0     H11825   7.255   2.462   8.202 -2.8252 -0.1271  2.0896
   88MOL0     H11826   7.247   2.611   8.284 -2.0105 -0.8172 -3.9311
   88MOL0     H11827   7.468   2.659   8.260 -0.4435 -0.4703 -0.8798
   88MOL0     H11828   7.435   2.572   8.116 -1.4594 -0.0447  0.7167
   88MOL0     H11829   7.590   2.456   8.349  2.0244  1.5531  0.2195
   88MOL0     H11830   7.530   2.364   8.211 -0.3729  0.9606 -1.5274
   88MOL0     H11831   7.718   2.728   8.226 -1.1877 -1.2961  0.5567
   88MOL0     H11832   7.817   2.823   7.963  0.0843  0.2998  0.8156
   88MOL0     H11833   7.898   2.819   8.114 -0.2906  0.7564 -1.7731
   88MOL0     H11834   8.075   2.670   8.017  0.1189 -0.1922 -1.8878
   88MOL0     H11835   7.995   2.680   7.857 -0.6234  0.0026 -0.2529
   88MOL0     H11836   8.149   2.883   8.013 -0.4615  0.4667  0.3329
   88MOL0     H11837   8.051   2.942   7.876  0.7164 -0.3873 -1.3913
   88MOL0     H11838   8.183   2.813   7.720 -0.4627 -0.5452  0.5469
   88MOL0     H11839   8.270   2.737   7.862 -3.2138 -0.1132  2.5118
   88MOL0     H11840   8.426   2.869   8.038 -1.4782  0.3677 -0.3261
   88MOL0     H11841   8.667   2.819   8.069 -1.5430 -0.3439  0.3301
   88MOL0     H11842   9.004   2.567   7.772  1.4227 -1.1492  4.3640
   88MOL0     H11843   9.221   2.474   7.724  0.4525  0.3159  0.1249
   88MOL0     H11844   9.585   2.751   7.703  2.3004  0.0166  0.3806
   88MOL0     H11845   9.580   2.658   7.855 -0.5575  1.3174  0.5414
   88MOL0     H11846   9.785   2.621   7.718 -1.1365  2.1767 -0.3378
   88MOL0     H11847   9.690   2.474   7.752  0.9104  0.9577  1.5661
   88MOL0     H11848   9.588   2.499   7.512  0.9854  1.4700 -3.1689
   88MOL0     H11849   9.692   2.633   7.491  0.9195 -0.9608 -1.2594
   88MOL0     H11850   9.892   2.484   7.543 -0.1714 -1.5254  2.8172
   88MOL0     H11851   9.802   2.433   7.393 -0.3373 -1.6110 -0.2304
   88MOL0     H11852   9.694   2.257   7.538 -1.5790  1.9370  1.1743
   88MOL0     H11853   9.827   2.291   7.657  1.1361  1.5715 -1.0809
   88MOL0     H11854   9.868   2.100   7.491  1.3863 -0.0390  0.9636
   88MOL0     H11855   9.866   2.230   7.364 -1.8783  1.7994 -0.1577
   88MOL0     H11856  10.036   2.234   7.621  1.4357 -0.8283 -0.3855
   88MOL0     H11857  10.059   2.338   7.480 -0.6835  0.6911  1.9595
   88MOL0     H11858  10.135   2.047   7.506 -0.1932  0.0563  0.8849
   88MOL0     H11859  10.106   2.118   7.349  1.1789  1.2991 -0.7113
   88MOL0     H11860   9.393   2.864   7.776  0.6942 -0.5216  3.1421
   88MOL0     H11861   9.171   2.954   7.807  1.0916  0.5193 -0.2650
   88MOL0     H11862   8.728   2.868   7.643 -1.3249  0.7752 -1.7963
   88MOL0     H11863   8.491   2.941   7.627 -1.4956  1.3371  1.0583
   88MOL0     H11864   6.981   1.971   8.243 -1.3794  2.0728 -3.2859
   88MOL0     H11865   6.850   1.764   8.203 -0.8402 -0.7123  0.6934
   88MOL0     H11866   6.555   1.503   8.304  0.1933  2.6074  0.1660
   88MOL0     H11867   6.446   1.295   8.317 -1.7479 -0.4097  0.9599
   88MOL0     H11868   6.158   1.065   8.244 -1.3803  1.0141 -2.7907
   88MOL0     H11869   6.269   1.171   8.335  1.5785  3.6190 -1.3681
   88MOL0     H11870   6.387   0.964   8.298 -0.3743 -0.5184 -1.1133
   88MOL0     H11871   6.447   1.066   8.157  1.4283 -2.3463  0.6779
   88MOL0     H11872   6.258   0.969   8.019 -0.5710  1.2144  0.8556
   88MOL0     H11873   6.236   0.856   8.155  1.6449 -0.1901  1.6219
   88MOL0     H11874   6.483   0.890   7.971 -0.2272 -2.4272 -2.3704
   88MOL0     H11875   6.494   0.792   8.115 -1.6684 -0.5562  1.0865
   88MOL0     H11876   6.309   0.507   7.878  2.7811 -1.1659 -0.7402
   88MOL0     H11877   6.179   1.412   7.993  0.6402  0.3582 -1.6972
   88MOL0     H11878   6.216   1.746   8.030  1.3639 -0.8681  1.6885
   88MOL0     H11879   6.304   1.696   7.894  0.4109 -0.1590 -0.5421
   88MOL0     H11880   6.162   1.608   7.930  0.0915  0.2247 -0.7569
   89MOL0     O11881   6.747   5.066   2.683  0.2907 -0.0410  0.4199
   89MOL0     C11882   6.748   5.020   2.564  0.3564 -1.5374 -0.3470
   89MOL0     O11883   6.807   5.078   2.456  0.2567  0.1354  0.4418
   89MOL0     C11884   6.902   5.178   2.471  0.2114  0.0359  0.2278
   89MOL0     C11885   6.879   5.319   2.456  0.2564  0.9851  0.4818
   89MOL0     C11886   6.994   5.407   2.451  0.3190 -0.1866 -0.4573
   89MOL0     C11887   7.122   5.360   2.468 -0.8539  0.6298 -0.1573
   89MOL0     O11888   7.225   5.455   2.474  0.5130 -0.4927  0.2563
   89MOL0     C11889   7.353   5.420   2.424  0.2595 -0.2364 -0.7870
   89MOL0     C11890   7.441   5.386   2.548 -0.9202  0.6893 -1.0724
   89MOL0     C11891   7.588   5.370   2.524  0.0581 -0.1852 -0.2306
   89MOL0     C11892   7.616   5.270   2.401 -0.2289 -1.0388 -0.2522
   89MOL0     C11893   7.768   5.269   2.363 -0.0183  0.8268 -0.2505
   89MOL0     C11894   7.820   5.408   2.315  0.1316  0.5879 -0.4652
   89MOL0     C11895   7.956   5.391   2.256 -0.1114 -0.1355  0.6946
   89MOL0     C11896   7.989   5.495   2.145  0.4314 -0.2077 -0.1682
   89MOL0     N11897   8.135   5.514   2.136 -0.2038  0.1793 -0.6009
   89MOL0     C11898   8.241   5.418   2.142 -0.3355  0.0484 -0.5585
   89MOL0     C11899   8.355   5.488   2.123  0.0436 -0.3937 -0.2170
   89MOL0     C11900   8.496   5.451   2.103  0.4511  0.3935 -0.5144
   89MOL0     C11901   8.600   5.548   2.126 -0.1993 -0.4213  0.2369
   89MOL0     C11902   8.737   5.487   2.097 -0.1135 -0.0673  0.2066
   89MOL0     C11903   8.842   5.583   2.147  0.8275 -0.3766 -0.3845
   89MOL0     O11904   8.967   5.509   2.134  0.3752 -0.1234  0.0931
   89MOL0     C11905   9.048   5.514   2.024  0.0576  0.2695 -0.1833
   89MOL0     C11906   9.173   5.458   2.039 -0.2415 -0.1734  0.0501
   89MOL0     C11907   9.268   5.452   1.930  0.0402 -0.0263 -0.8596
   89MOL0     C11908   9.227   5.496   1.804 -0.1700 -0.9514  1.6383
   89MOL0     C11909   9.328   5.510   1.696 -0.2388  0.2483  0.5493
   89MOL0     O11910   9.461   5.489   1.725 -0.5191 -0.2592  0.7445
   89MOL0     C11911   9.533   5.490   1.610  0.0194  0.7881  1.4605
   89MOL0     C11912   9.575   5.371   1.552 -0.1453 -0.3614 -0.6454
   89MOL0     C11913   9.677   5.372   1.452  0.3942 -0.3490  0.1554
   89MOL0     C11914   9.727   5.493   1.404 -0.0354  0.6817 -0.3875
   89MOL0     O11915   9.834   5.509   1.319  0.5397 -0.0708  0.4569
   89MOL0     C11916   9.880   5.391   1.244 -0.7171  0.1376  0.8806
   89MOL0     C11917   9.979   5.445   1.147 -0.5609  0.1102  0.4786
   89MOL0     C11918   9.922   5.554   1.057  0.5926  0.1897  0.3125
   89MOL0     C11919   9.990   5.576   0.923 -0.7823  1.2960 -0.2782
   89MOL0     C11920   9.938   5.696   0.852 -0.1146 -0.4660  0.4063
   89MOL0     C11921   9.954   5.687   0.698 -0.3101 -0.1649  0.1369
   89MOL0     C11922   9.881   5.815   0.637 -0.7308  0.6749  0.4427
   89MOL0     C11923   9.900   5.817   0.482 -0.8908  0.7409 -0.2641
   89MOL0    Cl11924   9.903   5.989   0.429 -0.2816  0.4993  0.3147
   89MOL0     C11925   9.663   5.608   1.438 -0.3627 -0.4975  0.1846
   89MOL0     C11926   9.563   5.604   1.532 -0.0479 -0.2100  0.0321
   89MOL0     O11927   9.284   5.555   1.585 -0.6686 -0.5665  0.5097
   89MOL0     C11928   9.095   5.540   1.794  0.1947 -0.4258 -0.2241
   89MOL0     C11929   9.008   5.563   1.902 -0.7329  0.7187 -0.5360
   89MOL0     N11930   8.316   5.616   2.095 -0.0525 -0.0589 -0.2894
   89MOL0     N11931   8.189   5.630   2.096  0.3006  0.0568 -0.6991
   89MOL0     C11932   7.142   5.212   2.490  0.9186  0.3232 -0.1841
   89MOL0     C11933   7.029   5.132   2.491 -0.1240  0.0736  0.8893
   89MOL0     C11934   6.667   4.902   2.555  0.7629 -0.7167 -1.0045
   89MOL0     C11935   6.561   4.885   2.651 -0.6767 -0.5813  0.1918
   89MOL0     C11936   6.468   4.776   2.627  0.2568 -0.2352  0.2492
   89MOL0     C11937   6.478   4.687   2.517  0.1627 -0.4991  0.3689
   89MOL0     O11938   6.395   4.589   2.486 -0.6974  0.1141 -0.0344
   89MOL0     C11939   6.365   4.496   2.590 -0.1337  0.0252  0.3115
   89MOL0     C11940   6.208   4.507   2.618 -0.2601  0.4337 -0.0219
   89MOL0     C11941   6.130   4.464   2.498 -1.2122 -0.6523 -0.0563
   89MOL0     C11942   5.984   4.434   2.535  0.0211  0.5805  0.1040
   89MOL0     C11943   5.973   4.291   2.573  0.3828 -0.0219 -0.3362
   89MOL0     C11944   5.963   4.170   2.593  0.4463 -0.7758 -0.3178
   89MOL0     C11945   6.584   4.707   2.429 -0.1712 -0.0922 -0.7717
   89MOL0     C11946   6.675   4.814   2.448 -0.0791  1.0249  0.2570
   89MOL0     C11947   6.783   4.830   2.343 -0.0409  0.0081 -0.1352
   89MOL0     H11948   6.777   5.356   2.455 -1.1916 -2.1125  4.4664
   89MOL0     H11949   6.971   5.514   2.449  1.5968  0.1054 -0.0870
   89MOL0     H11950   7.328   5.336   2.359  1.0675  0.1117 -1.5691
   89MOL0     H11951   7.389   5.509   2.371 -1.4497  1.0006  0.0278
   89MOL0     H11952   7.412   5.289   2.589  1.0303 -0.6412 -2.6526
   89MOL0     H11953   7.422   5.465   2.621  0.1914 -1.0292  1.1763
   89MOL0     H11954   7.641   5.328   2.610  0.8310 -0.0401 -0.6286
   89MOL0     H11955   7.648   5.461   2.524  0.2123 -0.2802  0.4897
   89MOL0     H11956   7.578   5.169   2.419  0.4424 -1.1113  0.8464
   89MOL0     H11957   7.569   5.306   2.309 -0.5977 -1.0866 -0.0862
   89MOL0     H11958   7.827   5.233   2.448 -1.2362 -0.0989  0.2181
   89MOL0     H11959   7.770   5.198   2.280  0.1762 -1.3448  1.5059
   89MOL0     H11960   7.756   5.443   2.234 -0.6681 -1.8048 -0.9260
   89MOL0     H11961   7.831   5.478   2.399  2.8622 -0.8053  0.4655
   89MOL0     H11962   7.960   5.290   2.215 -0.9609  1.0744 -2.7732
   89MOL0     H11963   8.024   5.406   2.340  0.1253  1.1843  0.2955
   89MOL0     H11964   7.950   5.463   2.048 -0.2838  2.5612 -0.8885
   89MOL0     H11965   7.946   5.590   2.178  4.1917  1.1267  1.4707
   89MOL0     H11966   8.234   5.313   2.168 -0.6802 -0.3419 -2.1196
   89MOL0     H11967   8.516   5.371   2.175  0.2462 -0.2798 -1.1933
   89MOL0     H11968   8.502   5.400   2.007 -0.0351 -2.4889  0.8722
   89MOL0     H11969   8.584   5.637   2.064 -1.9266 -1.8012 -1.4474
   89MOL0     H11970   8.583   5.587   2.227  0.7930  3.0637 -0.8089
   89MOL0     H11971   8.740   5.475   1.988 -0.6135  2.8214 -0.2134
   89MOL0     H11972   8.751   5.391   2.146 -1.3273 -0.4208 -0.1096
   89MOL0     H11973   8.829   5.601   2.254  0.2659 -1.1095 -0.3134
   89MOL0     H11974   8.849   5.684   2.106  0.1547  0.6003  1.7394
   89MOL0     H11975   9.202   5.423   2.137  1.7926  0.8956 -0.1140
   89MOL0     H11976   9.368   5.418   1.954  0.2608  1.2856  0.2079
   89MOL0     H11977   9.549   5.276   1.598 -0.7857  0.0618 -0.1237
   89MOL0     H11978   9.714   5.273   1.426 -3.0466 -1.7304  0.0822
   89MOL0     H11979   9.902   5.310   1.314  0.6280 -0.0838  0.2288
   89MOL0     H11980   9.791   5.357   1.190  1.0561 -2.1832 -0.8023
   89MOL0     H11981  10.065   5.482   1.202 -0.3533  0.5868 -0.1559
   89MOL0     H11982  10.023   5.367   1.084 -1.2976 -0.1009  0.2087
   89MOL0     H11983   9.815   5.544   1.037  0.3641 -0.5855  1.7658
   89MOL0     H11984   9.923   5.648   1.113  0.7598 -0.3067  1.1548
   89MOL0     H11985   9.974   5.487   0.861  3.8358  0.5485 -0.8243
   89MOL0     H11986  10.098   5.585   0.941 -0.2227 -0.2077 -2.4621
   89MOL0     H11987   9.990   5.788   0.882 -2.8733  0.8939  1.3411
   89MOL0     H11988   9.836   5.720   0.881  0.3612  1.9210  0.2773
   89MOL0     H11989  10.058   5.712   0.676 -0.9701  3.3622  0.3768
   89MOL0     H11990   9.912   5.593   0.663 -1.8156 -0.3718  2.2713
   89MOL0     H11991   9.926   5.908   0.674 -2.6150  2.0260 -0.5112
   89MOL0     H11992   9.777   5.824   0.668 -0.6137 -0.1483  1.1299
   89MOL0     H11993   9.993   5.773   0.444 -2.1127 -0.2923 -2.2163
   89MOL0     H11994   9.813   5.764   0.443 -1.5007  0.3095  1.5841
   89MOL0     H11995   9.684   5.702   1.388  1.4923  0.0843  1.9255
   89MOL0     H11996   9.513   5.696   1.561 -2.0325 -1.9738  2.6767
   89MOL0     H11997   9.052   5.592   1.709 -0.0949  1.1515  0.8419
   89MOL0     H11998   8.914   5.615   1.884  0.1354  2.3243 -0.6299
   89MOL0     H11999   7.238   5.165   2.508 -0.6794 -2.1891  2.7825
   89MOL0     H12000   7.035   5.027   2.515 -0.9963  0.0433  1.0253
   89MOL0     H12001   6.551   4.949   2.738  2.6531  1.6586 -0.8574
   89MOL0     H12002   6.396   4.765   2.707  0.8489 -0.0654  0.8158
   89MOL0     H12003   6.421   4.511   2.683  0.4972 -2.1756  0.3359
   89MOL0     H12004   6.385   4.391   2.567  2.6697  0.2079  1.5501
   89MOL0     H12005   6.193   4.612   2.646 -1.0384  0.0984  0.8702
   89MOL0     H12006   6.187   4.443   2.705  2.3527 -0.0108  0.3591
   89MOL0     H12007   6.173   4.372   2.458 -0.1814 -0.5350  0.7353
   89MOL0     H12008   6.128   4.538   2.418 -4.7846 -0.4851  0.0411
   89MOL0     H12009   5.962   4.494   2.624 -0.0134 -0.2955  0.6995
   89MOL0     H12010   5.911   4.458   2.457  1.6516  0.4299 -1.5480
   89MOL0     H12011   5.966   4.065   2.615 -0.0181 -0.7314 -0.0401
   89MOL0     H12012   6.589   4.629   2.354 -2.3912 -1.4451  0.3702
   89MOL0     H12013   6.792   4.739   2.282  1.6860  1.0285 -1.4754
   89MOL0     H12014   6.761   4.907   2.269  4.9540 -0.0191 -2.0752
   89MOL0     H12015   6.880   4.852   2.389  0.8267 -0.6555 -1.5574
   90MOL0     O12016   1.341   7.515   6.100  0.3764  0.1845  0.0442
   90MOL0     C12017   1.268   7.418   6.107  1.6784 -0.6724 -1.5794
   90MOL0     O12018   1.320   7.295   6.104  0.6194 -0.1354  0.2598
   90MOL0     C12019   1.456   7.265   6.087  0.0677 -0.7140  0.0991
   90MOL0     C12020   1.536   7.236   6.197  0.3384  0.4901 -0.4460
   90MOL0     C12021   1.678   7.215   6.183 -0.4785  0.4623  0.3260
   90MOL0     C12022   1.736   7.248   6.056 -0.4712 -0.3432  0.1018
   90MOL0     O12023   1.870   7.253   6.024  0.4654  0.1936 -0.5823
   90MOL0     C12024   1.972   7.250   6.132 -0.0315 -0.2725 -0.7915
   90MOL0     C12025   2.113   7.269   6.079 -0.4915 -0.1575  0.1897
   90MOL0     C12026   2.209   7.280   6.190 -0.8816  0.5997 -0.5573
   90MOL0     C12027   2.361   7.311   6.153  0.2280 -0.6780  0.1219
   90MOL0     C12028   2.438   7.190   6.096 -0.0082 -0.3327 -0.3895
   90MOL0     C12029   2.581   7.209   6.052 -0.6695  0.3726  0.9221
   90MOL0     C12030   2.693   7.201   6.158  0.3565 -0.5928 -0.3045
   90MOL0     C12031   2.836   7.180   6.087  0.6617 -0.4258 -0.2746
   90MOL0     N12032   2.934   7.193   6.188 -1.1101 -0.3574  0.5951
   90MOL0     C12033   2.962   7.102   6.290 -0.1037  1.2274  0.0983
   90MOL0     C12034   3.056   7.156   6.370 -0.8938 -0.3725 -0.0894
   90MOL0     C12035   3.127   7.089   6.483 -0.2523  0.0876 -0.6057
   90MOL0     C12036   3.211   6.970   6.446 -0.0548  0.4478 -0.2855
   90MOL0     C12037   3.291   6.999   6.327 -0.2234 -0.3416 -0.1077
   90MOL0     C12038   3.380   6.874   6.299 -0.9360  0.4123  1.2988
   90MOL0     O12039   3.455   6.818   6.413  0.0264 -0.3472  0.0086
   90MOL0     C12040   3.579   6.865   6.448  0.1523  0.5983  0.7941
   90MOL0     C12041   3.634   6.983   6.393  0.7258 -0.3505  0.3843
   90MOL0     C12042   3.755   7.039   6.430 -1.2853 -0.0162 -0.3659
   90MOL0     C12043   3.838   6.962   6.518  0.8382  0.1756  0.1282
   90MOL0     C12044   3.980   7.001   6.528 -0.4642  0.8416 -0.6907
   90MOL0     O12045   4.018   7.123   6.481 -0.2512 -0.7333  0.6758
   90MOL0     C12046   4.147   7.169   6.496  0.1957  0.1772 -0.1090
   90MOL0     C12047   4.171   7.288   6.436 -0.1136  0.2880 -0.2577
   90MOL0     C12048   4.288   7.354   6.462 -0.7764  0.5320  0.3450
   90MOL0     C12049   4.385   7.291   6.535  0.3738 -0.4295 -0.5541
   90MOL0     O12050   4.499   7.357   6.584  0.0138  0.6709  0.0316
   90MOL0     C12051   4.563   7.440   6.484 -0.5982  0.0383  0.2753
   90MOL0     C12052   4.712   7.470   6.528  0.7395  0.0206 -0.6474
   90MOL0     C12053   4.798   7.345   6.562  0.1009 -0.6160 -0.4299
   90MOL0     C12054   4.945   7.381   6.580 -1.0978 -0.0055  0.0019
   90MOL0     C12055   5.003   7.437   6.451 -0.8024  0.3233  0.0105
   90MOL0     C12056   5.155   7.433   6.458  0.4600 -0.5688  0.1062
   90MOL0     C12057   5.219   7.299   6.433 -0.2156 -0.1446 -0.8060
   90MOL0     C12058   5.372   7.315   6.436  0.0442  0.1739  0.7311
   90MOL0    Cl12059   5.465   7.170   6.397 -0.0339 -0.5922 -0.4859
   90MOL0     C12060   4.367   7.175   6.592 -0.3306 -0.0278  0.0563
   90MOL0     C12061   4.250   7.110   6.578  0.7543  0.4272 -0.0486
   90MOL0     O12062   4.049   6.915   6.584  0.2304 -0.5145 -0.5136
   90MOL0     C12063   3.788   6.847   6.572  0.0245  0.0159 -0.3746
   90MOL0     C12064   3.659   6.807   6.543 -0.0324  0.1862 -0.3367
   90MOL0     N12065   3.083   7.277   6.313  0.0773 -0.5180  0.0106
   90MOL0     N12066   3.012   7.305   6.214  1.4124 -0.1795  0.6293
   90MOL0     C12067   1.654   7.266   5.946  0.0424 -0.5299 -0.2056
   90MOL0     C12068   1.514   7.275   5.966 -0.0193 -0.8386  0.2676
   90MOL0     C12069   1.116   7.442   6.117 -0.0312  0.4329  0.0052
   90MOL0     C12070   1.035   7.325   6.109 -0.0586  0.3164 -0.6421
   90MOL0     C12071   0.897   7.328   6.119  1.4125  0.8279 -0.7044
   90MOL0     C12072   0.826   7.448   6.136  0.4910 -0.5037 -0.1408
   90MOL0     O12073   0.690   7.443   6.157  0.2123  1.2352  0.2675
   90MOL0     C12074   0.620   7.564   6.186 -0.1155  0.0495 -0.3834
   90MOL0     C12075   0.606   7.570   6.337  0.2010 -0.4942  0.4122
   90MOL0     C12076   0.457   7.585   6.379  0.4288  0.5684 -0.2788
   90MOL0     C12077   0.398   7.719   6.341 -0.2621 -0.3319  0.3009
   90MOL0     C12078   0.260   7.735   6.381 -0.1252 -0.6565  0.5725
   90MOL0     C12079   0.140   7.756   6.402  0.4246  1.1955 -0.5418
   90MOL0     C12080   0.908   7.563   6.143  0.4113 -0.8300  0.2078
   90MOL0     C12081   1.049   7.561   6.147 -0.2629  0.7285 -0.1450
   90MOL0     C12082   1.118   7.691   6.172 -1.1967 -0.2349 -0.7877
   90MOL0     H12083   1.495   7.223   6.297  1.4712 -3.0552 -0.3101
   90MOL0     H12084   1.733   7.206   6.277 -1.9745  1.0715  1.2963
   90MOL0     H12085   1.958   7.336   6.199  2.7480 -0.2965 -0.0878
   90MOL0     H12086   1.968   7.157   6.190  1.4463 -0.4821 -0.9897
   90MOL0     H12087   2.120   7.361   6.021  2.5801 -0.3361  0.1445
   90MOL0     H12088   2.147   7.180   6.024 -1.5790 -1.5285  1.6199
   90MOL0     H12089   2.211   7.185   6.244 -0.5774  0.1449 -1.3556
   90MOL0     H12090   2.177   7.366   6.251 -2.4156  0.6323 -1.3620
   90MOL0     H12091   2.359   7.381   6.068 -0.0711 -1.1084 -0.2330
   90MOL0     H12092   2.412   7.356   6.238 -1.6004  3.8028 -0.8748
   90MOL0     H12093   2.424   7.097   6.152  0.7037  0.5501  1.3159
   90MOL0     H12094   2.384   7.157   6.006  0.6818 -1.8090 -0.2956
   90MOL0     H12095   2.597   7.134   5.974 -1.7956  1.8862 -0.8809
   90MOL0     H12096   2.592   7.306   6.001  1.0405 -0.7081 -0.9225
   90MOL0     H12097   2.683   7.126   6.237  2.1214  0.4391  0.9806
   90MOL0     H12098   2.703   7.294   6.216  0.2307 -0.3149 -0.7207
   90MOL0     H12099   2.830   7.081   6.041  1.0749  0.0220 -1.3363
   90MOL0     H12100   2.859   7.253   6.008 -1.0620 -0.4500 -0.8449
   90MOL0     H12101   2.916   7.006   6.312  1.0011 -0.5706 -4.3372
   90MOL0     H12102   3.203   7.163   6.511  0.3723  0.1008 -2.2174
   90MOL0     H12103   3.065   7.057   6.568  1.4987 -1.5197  0.1612
   90MOL0     H12104   3.276   6.942   6.530  1.2504  1.0199 -1.0619
   90MOL0     H12105   3.143   6.887   6.429  1.1368 -0.5230 -0.4726
   90MOL0     H12106   3.358   7.084   6.341  1.0959 -0.8363 -2.8496
   90MOL0     H12107   3.225   7.021   6.243 -1.4144  1.6182  1.2754
   90MOL0     H12108   3.449   6.888   6.215 -0.1571 -0.9423  1.6668
   90MOL0     H12109   3.311   6.796   6.266  0.0773  0.7961 -2.0643
   90MOL0     H12110   3.583   7.043   6.319  2.5179 -2.4960 -2.8498
   90MOL0     H12111   3.795   7.131   6.388  0.4311 -0.8098 -0.5765
   90MOL0     H12112   4.098   7.328   6.366 -0.2760  4.7814  2.1016
   90MOL0     H12113   4.303   7.457   6.432 -1.7638  0.7652  0.6032
   90MOL0     H12114   4.568   7.390   6.387  1.8696  0.8563 -0.0772
   90MOL0     H12115   4.503   7.531   6.478 -1.8848 -0.8367 -0.6429
   90MOL0     H12116   4.754   7.509   6.435  1.3838 -1.3496 -0.9515
   90MOL0     H12117   4.720   7.550   6.602 -0.1772 -0.0843 -0.4167
   90MOL0     H12118   4.758   7.309   6.657 -1.4236  4.3888  1.1244
   90MOL0     H12119   4.791   7.269   6.483  3.7266  0.3530 -1.9028
   90MOL0     H12120   5.008   7.300   6.615  2.1236  1.8551 -1.0230
   90MOL0     H12121   4.956   7.462   6.653 -1.4579  1.8641 -1.8937
   90MOL0     H12122   4.974   7.541   6.434 -2.7038 -0.4486 -1.9155
   90MOL0     H12123   4.981   7.386   6.356  2.2379  0.8785 -1.1236
   90MOL0     H12124   5.198   7.512   6.396 -1.5803 -0.2178 -0.9605
   90MOL0     H12125   5.182   7.462   6.560  0.3049 -1.0549  0.2908
   90MOL0     H12126   5.184   7.241   6.347  3.2100 -0.8982 -1.8319
   90MOL0     H12127   5.189   7.237   6.519 -2.2065  1.9480  0.0993
   90MOL0     H12128   5.396   7.388   6.358  0.4150 -1.2955 -0.5684
   90MOL0     H12129   5.406   7.355   6.533 -0.8670  2.6478  0.1223
   90MOL0     H12130   4.436   7.143   6.670  1.1253  1.6866 -0.4633
   90MOL0     H12131   4.235   7.019   6.634  1.3869  0.9277  0.9878
   90MOL0     H12132   3.847   6.790   6.643 -1.7910 -1.4499  0.0237
   90MOL0     H12133   3.631   6.709   6.579  2.7555 -0.2643  0.9491
   90MOL0     H12134   1.692   7.291   5.847  1.4856  1.7478  0.8293
   90MOL0     H12135   1.450   7.297   5.881 -3.6018 -1.2347  2.6378
   90MOL0     H12136   1.080   7.228   6.096  0.1303  0.4808 -1.2365
   90MOL0     H12137   0.850   7.231   6.134  3.1234  0.1616  0.7722
   90MOL0     H12138   0.528   7.540   6.132  1.0489 -1.0338 -1.9908
   90MOL0     H12139   0.651   7.661   6.147 -1.3351  0.2094 -0.9917
   90MOL0     H12140   0.655   7.664   6.366 -0.6298  0.7273 -1.9137
   90MOL0     H12141   0.663   7.491   6.388  1.9406  1.6193  1.9661
   90MOL0     H12142   0.449   7.574   6.488  0.6499  1.2625 -0.1849
   90MOL0     H12143   0.393   7.506   6.339  1.9759 -1.5522  1.2017
   90MOL0     H12144   0.457   7.803   6.380 -1.8878  1.8647 -1.6721
   90MOL0     H12145   0.414   7.729   6.233  0.5483 -1.4262  0.3070
   90MOL0     H12146   0.037   7.771   6.429  0.8863  1.5521  1.1826
   90MOL0     H12147   0.866   7.659   6.170  0.1169 -1.0841  0.6577
   90MOL0     H12148   1.058   7.780   6.188 -1.4558 -0.8410  2.1514
   90MOL0     H12149   1.187   7.676   6.256 -0.3082 -0.9118 -1.6099
   90MOL0     H12150   1.179   7.710   6.083 -0.0395 -2.3469 -0.5164
   91MOL0     O12151   9.598   0.994   1.842  0.8031  0.4512 -0.4582
   91MOL0     C12152   9.552   0.933   1.939  0.7673  0.6223  0.4600
   91MOL0     O12153   9.625   0.867   2.029 -0.5356 -0.5375  0.3614
   91MOL0     C12154   9.761   0.846   2.018  0.9316 -0.1990 -0.6006
   91MOL0     C12155   9.827   0.865   2.133 -0.6143  0.4497  1.2215
   91MOL0     C12156   9.963   0.834   2.136 -0.3273  0.9064  0.3793
   91MOL0     C12157  10.038   0.791   2.027 -0.0203  0.1546  0.1574
   91MOL0     O12158  10.171   0.762   2.036 -0.0446  0.1692 -1.1274
   91MOL0     C12159  10.246   0.749   2.162  0.7393  0.1597 -0.1754
   91MOL0     C12160  10.216   0.632   2.255  0.6672  0.8490  0.4648
   91MOL0     C12161  10.226   0.494   2.188  0.0714 -0.0966 -0.2031
   91MOL0     C12162  10.241   0.374   2.278 -0.0403  0.0011 -0.1820
   91MOL0     C12163  10.120   0.351   2.369 -0.5081 -0.1489 -0.4027
   91MOL0     C12164  10.133   0.222   2.451 -1.1076 -0.2354  0.2946
   91MOL0     C12165  10.272   0.217   2.525 -0.1349  0.1616 -0.3327
   91MOL0     C12166  10.288   0.313   2.638 -0.6018  0.1013 -0.7795
   91MOL0     N12167  10.401   0.276   2.727  0.2608 -0.1797  0.9791
   91MOL0     C12168  10.524   0.343   2.750  0.5693  0.0846  0.2744
   91MOL0     C12169  10.596   0.270   2.837  0.8598  0.2193  0.5018
   91MOL0     C12170  10.738   0.296   2.885 -0.1504  0.2319 -0.4309
   91MOL0     C12171  10.845   0.286   2.774 -0.2211 -0.2505  0.1953
   91MOL0     C12172  10.982   0.313   2.838 -0.4656 -0.4461 -0.7868
   91MOL0     C12173  11.097   0.318   2.743  0.2861 -0.0990  0.0372
   91MOL0     O12174  11.087   0.454   2.688 -0.1786 -0.2940 -0.1053
   91MOL0     C12175  11.190   0.497   2.610 -0.4357  0.4201  0.0304
   91MOL0     C12176  11.168   0.624   2.546  0.4506  0.0494 -0.6482
   91MOL0     C12177  11.257   0.672   2.452 -0.1357 -0.4146  0.2310
   91MOL0     C12178  11.377   0.614   2.422  0.4577 -0.1956 -0.4437
   91MOL0     C12179  11.481   0.667   2.335  0.0526  0.4233 -0.0320
   91MOL0     O12180  11.456   0.771   2.253 -0.0092 -0.0790  0.1544
   91MOL0     C12181  11.504   0.764   2.129 -0.7004 -0.4011  0.4771
   91MOL0     C12182  11.589   0.867   2.096 -0.5948 -0.5282 -0.8118
   91MOL0     C12183  11.660   0.863   1.972  0.1092  0.4819  0.2658
   91MOL0     C12184  11.644   0.762   1.876 -0.5334  0.0230  0.1278
   91MOL0     O12185  11.722   0.776   1.765 -0.3293  0.0738 -0.3911
   91MOL0     C12186  11.723   0.667   1.668  0.3456  0.3253  0.1385
   91MOL0     C12187  11.865   0.659   1.610 -0.5762  0.4588  0.5876
   91MOL0     C12188  11.845   0.602   1.473 -0.5674 -1.3370 -0.6252
   91MOL0     C12189  11.799   0.451   1.471  0.1087 -0.3168 -0.2068
   91MOL0     C12190  11.748   0.410   1.332  0.1974 -0.5659 -0.3112
   91MOL0     C12191  11.675   0.275   1.344  1.1586 -0.1155 -0.2838
   91MOL0     C12192  11.739   0.154   1.395 -0.2291  0.1097  0.2445
   91MOL0     C12193  11.848   0.110   1.304  0.3829 -0.3002  1.5904
   91MOL0    Cl12194  11.929  -0.041   1.351 -0.3285  0.2809 -0.1542
   91MOL0     C12195  11.544   0.672   1.898  0.2801  0.2677 -0.5354
   91MOL0     C12196  11.482   0.665   2.026  0.3195 -0.5608 -0.2262
   91MOL0     O12197  11.584   0.595   2.335 -0.4216  0.2264  0.6094
   91MOL0     C12198  11.394   0.485   2.484 -0.1682 -0.9051  0.5823
   91MOL0     C12199  11.305   0.426   2.573  0.1292  0.0372 -0.1341
   91MOL0     N12200  10.519   0.166   2.868  0.6098 -0.1818 -0.3484
   91MOL0     N12201  10.408   0.160   2.793 -0.4540 -0.9662 -0.3721
   91MOL0     C12202   9.968   0.777   1.904 -0.8829 -0.4117 -0.1011
   91MOL0     C12203   9.835   0.808   1.899  0.5867 -0.5024  0.7685
   91MOL0     C12204   9.405   0.924   1.954  0.8578 -0.2694  0.1406
   91MOL0     C12205   9.331   1.042   1.914 -0.1376 -0.1979 -0.4186
   91MOL0     C12206   9.187   1.039   1.915  0.1242  0.0721  0.2047
   91MOL0     C12207   9.111   0.925   1.955  0.1345  0.1406 -0.4959
   91MOL0     O12208   8.975   0.923   1.945 -0.0734  0.0212 -0.4201
   91MOL0     C12209   8.916   1.042   1.905  0.0636  0.0665  0.0102
   91MOL0     C12210   8.768   1.007   1.891  0.7976  0.2804 -0.3712
   91MOL0     C12211   8.737   0.869   1.820  0.5867  0.4568 -0.4751
   91MOL0     C12212   8.790   0.850   1.678  0.4319 -0.4403  0.1171
   91MOL0     C12213   8.693   0.894   1.576  0.2195 -0.3099  0.7055
   91MOL0     C12214   8.619   0.942   1.485  0.5082 -1.0493  0.4029
   91MOL0     C12215   9.185   0.818   2.005  0.6464 -0.3651 -0.6995
   91MOL0     C12216   9.325   0.817   2.005  0.6507 -0.2676  0.8700
   91MOL0     C12217   9.383   0.686   2.054  0.1201 -0.0513  0.6852
   91MOL0     H12218   9.773   0.909   2.216 -0.9915  2.1177  0.1304
   91MOL0     H12219   9.996   0.837   2.239  0.1925  0.9778  0.2100
   91MOL0     H12220  10.350   0.735   2.130  0.6962 -0.6760  0.0272
   91MOL0     H12221  10.250   0.841   2.221 -2.9551  1.4110 -1.5589
   91MOL0     H12222  10.120   0.649   2.304 -0.5250  0.1087 -1.4762
   91MOL0     H12223  10.288   0.629   2.338 -0.6976 -0.0494  1.6765
   91MOL0     H12224  10.316   0.502   2.127  1.4960  0.7954  1.8970
   91MOL0     H12225  10.137   0.468   2.129  1.0568 -1.7559 -1.0126
   91MOL0     H12226  10.256   0.289   2.211 -0.1265 -0.6218  0.5596
   91MOL0     H12227  10.330   0.388   2.340 -0.6266 -0.3642  0.7751
   91MOL0     H12228  10.132   0.434   2.439  0.3499  0.2023 -0.9550
   91MOL0     H12229  10.018   0.353   2.329 -0.0617  0.2159 -1.5509
   91MOL0     H12230  10.064   0.230   2.536 -0.0300  2.2700  1.0381
   91MOL0     H12231  10.112   0.134   2.389 -0.3660  0.2050 -0.5911
   91MOL0     H12232  10.360   0.197   2.464  0.7972  0.6667  0.7887
   91MOL0     H12233  10.267   0.120   2.576 -0.3626  1.3831  2.1448
   91MOL0     H12234  10.306   0.414   2.601  1.7307  0.2819  0.6300
   91MOL0     H12235  10.190   0.304   2.686 -1.2475 -0.4074 -2.1410
   91MOL0     H12236  10.566   0.424   2.692  1.9635 -1.8075 -1.4600
   91MOL0     H12237  10.741   0.398   2.924 -1.7700 -0.5994  2.0640
   91MOL0     H12238  10.769   0.225   2.961 -1.0709 -0.5732 -0.7826
   91MOL0     H12239  10.851   0.189   2.723  1.8662  0.6062 -1.3604
   91MOL0     H12240  10.819   0.364   2.702 -1.2761  0.8810  1.7728
   91MOL0     H12241  11.001   0.224   2.899  0.6796 -0.5577 -1.2641
   91MOL0     H12242  10.975   0.402   2.901 -0.2951 -0.8488 -0.1962
   91MOL0     H12243  11.068   0.243   2.669  0.1325  0.2786 -0.2967
   91MOL0     H12244  11.196   0.286   2.776 -0.2600 -0.1137  1.7459
   91MOL0     H12245  11.068   0.665   2.561  1.3006  2.9205 -1.9248
   91MOL0     H12246  11.235   0.767   2.403  1.8158  0.0416  0.1303
   91MOL0     H12247  11.610   0.934   2.178  0.1685 -0.1231 -1.3223
   91MOL0     H12248  11.741   0.934   1.966  0.9936 -0.4813  0.4822
   91MOL0     H12249  11.703   0.573   1.720  0.0203  0.8448  0.9784
   91MOL0     H12250  11.643   0.678   1.595 -0.0763 -2.6023  0.0279
   91MOL0     H12251  11.910   0.758   1.599 -0.1323  0.2139  0.1519
   91MOL0     H12252  11.929   0.596   1.673  3.5997  3.5363 -0.1797
   91MOL0     H12253  11.782   0.670   1.414 -0.1737  0.0098  0.4320
   91MOL0     H12254  11.945   0.589   1.431  0.3613  0.8712  0.6941
   91MOL0     H12255  11.715   0.431   1.538 -1.2504  0.4745 -1.5849
   91MOL0     H12256  11.874   0.375   1.492  0.0946 -0.0114  1.0053
   91MOL0     H12257  11.841   0.399   1.276  1.9171 -0.5470  2.3366
   91MOL0     H12258  11.684   0.485   1.284 -0.4832  0.8567  2.5780
   91MOL0     H12259  11.573   0.286   1.380  1.3719  1.3664 -0.0476
   91MOL0     H12260  11.651   0.256   1.239 -2.4404  2.5869 -0.1477
   91MOL0     H12261  11.664   0.074   1.395 -0.2654  0.1025  1.9600
   91MOL0     H12262  11.763   0.165   1.501 -1.1790  2.2162  0.2800
   91MOL0     H12263  11.822   0.107   1.198  1.4823  0.4332  1.2886
   91MOL0     H12264  11.929   0.183   1.308  0.2883 -0.1168  0.4296
   91MOL0     H12265  11.511   0.603   1.820  2.8340 -0.6173 -0.9160
   91MOL0     H12266  11.412   0.585   2.047  1.9542 -2.0860 -0.3447
   91MOL0     H12267  11.475   0.419   2.456 -0.1897 -2.2788  3.3720
   91MOL0     H12268  11.335   0.326   2.603  0.3018 -0.1953 -1.0458
   91MOL0     H12269  10.012   0.746   1.809 -1.0555 -1.1776  0.0661
   91MOL0     H12270   9.790   0.797   1.801 -0.0863 -2.1921  1.2252
   91MOL0     H12271   9.393   1.123   1.879 -0.2606  0.1909  0.2444
   91MOL0     H12272   9.149   1.126   1.861 -0.4632 -0.3067 -0.0029
   91MOL0     H12273   8.949   1.068   1.804 -0.1820  0.5242  0.0432
   91MOL0     H12274   8.930   1.125   1.974  2.3018  0.7499 -1.1695
   91MOL0     H12275   8.708   1.080   1.836 -0.2930 -1.7004 -1.9767
   91MOL0     H12276   8.728   1.007   1.993  1.2800 -0.3370 -0.1739
   91MOL0     H12277   8.628   0.860   1.820  0.2608  3.3286  0.5079
   91MOL0     H12278   8.776   0.787   1.882 -0.1630  0.1876 -0.3509
   91MOL0     H12279   8.883   0.907   1.675  0.1254  0.1644 -3.7920
   91MOL0     H12280   8.807   0.743   1.664 -2.8259 -1.5026  3.0140
   91MOL0     H12281   8.556   0.980   1.407  1.8320  1.2664  0.4061
   91MOL0     H12282   9.126   0.740   2.052  1.9876 -1.4281 -0.7175
   91MOL0     H12283   9.466   0.698   2.124 -1.5144  2.8834  2.3072
   91MOL0     H12284   9.300   0.640   2.109 -0.0359  0.4089  0.8398
   91MOL0     H12285   9.406   0.623   1.967 -1.4223 -2.0100  1.6243
   92MOL0     O12286   8.784   3.371   5.528 -0.1548  0.5710 -0.0102
   92MOL0     C12287   8.705   3.406   5.448  0.6158 -0.0614 -0.2604
   92MOL0     O12288   8.741   3.489   5.333 -0.3759  0.6819  0.0447
   92MOL0     C12289   8.879   3.479   5.305  0.3070 -0.1161 -0.6246
   92MOL0     C12290   8.967   3.540   5.395  0.1728 -0.6458  0.6900
   92MOL0     C12291   9.104   3.544   5.372 -0.7235  0.5514 -0.1942
   92MOL0     C12292   9.157   3.497   5.255  0.2976 -0.2388  0.2469
   92MOL0     O12293   9.286   3.521   5.221  0.0122  0.1439 -0.6719
   92MOL0     C12294   9.337   3.653   5.245  0.0658 -0.2586 -0.1622
   92MOL0     C12295   9.287   3.758   5.143 -0.3405 -0.0656  0.2982
   92MOL0     C12296   9.298   3.714   4.995  0.4152  1.2372  0.1958
   92MOL0     C12297   9.278   3.841   4.913  0.3433  0.8411  0.1991
   92MOL0     C12298   9.284   3.807   4.764  0.6281  0.7213 -0.1187
   92MOL0     C12299   9.289   3.925   4.672  0.0176  0.0062 -0.5457
   92MOL0     C12300   9.271   3.903   4.520 -0.0513 -1.0520 -0.8673
   92MOL0     C12301   9.391   3.832   4.454  0.2535 -0.1105 -0.5287
   92MOL0     N12302   9.499   3.924   4.418 -0.2756 -0.3519 -0.5643
   92MOL0     C12303   9.623   3.927   4.459 -0.1731 -0.0355  0.3253
   92MOL0     C12304   9.685   4.030   4.383  0.4443  0.2826 -0.4458
   92MOL0     C12305   9.826   4.064   4.382  0.1320 -0.1782  1.0584
   92MOL0     C12306   9.878   4.052   4.231  0.5295 -0.0068  0.1241
   92MOL0     C12307  10.018   4.115   4.227 -0.0532  0.4747 -1.3393
   92MOL0     C12308  10.119   4.063   4.330  0.4071 -0.4461 -0.5588
   92MOL0     O12309  10.232   4.157   4.321 -0.1736  0.9383 -0.4308
   92MOL0     C12310  10.331   4.136   4.417 -0.2140  0.0416  0.1172
   92MOL0     C12311  10.362   4.012   4.465  0.8238 -0.0428  0.0331
   92MOL0     C12312  10.480   3.993   4.546 -0.1579 -0.5495  0.2867
   92MOL0     C12313  10.560   4.106   4.579 -0.1323 -0.4460  0.3128
   92MOL0     C12314  10.694   4.080   4.643  0.5757  0.2112  0.5774
   92MOL0     O12315  10.744   3.954   4.644  0.1151 -0.5601  0.0349
   92MOL0     C12316  10.879   3.923   4.671 -0.3573  0.3354  0.1579
   92MOL0     C12317  10.991   4.008   4.687  1.1777  0.4343  0.3522
   92MOL0     C12318  11.107   3.957   4.752  0.0249 -0.1612  0.4455
   92MOL0     C12319  11.130   3.817   4.759 -0.1033  0.3965  0.2601
   92MOL0     O12320  11.241   3.752   4.802  0.1983  0.2906 -0.4114
   92MOL0     C12321  11.304   3.798   4.919  0.7441 -0.3088 -0.2585
   92MOL0     C12322  11.417   3.716   4.947 -0.1812  0.3309  0.8071
   92MOL0     C12323  11.486   3.766   5.077  0.3263 -0.0666 -0.2573
   92MOL0     C12324  11.604   3.681   5.120 -0.2273  0.2248 -0.1973
   92MOL0     C12325  11.701   3.756   5.221  0.1984 -0.3251 -0.0845
   92MOL0     C12326  11.631   3.801   5.351  0.1676 -0.6437 -0.0610
   92MOL0     C12327  11.720   3.877   5.444  0.2189 -0.4226  0.0118
   92MOL0     C12328  11.641   3.928   5.567 -0.5073  0.5970  0.6350
   92MOL0    Cl12329  11.708   4.081   5.651  0.0683  0.0680  0.6836
   92MOL0     C12330  11.031   3.736   4.721  1.1127  0.7626  0.7487
   92MOL0     C12331  10.904   3.786   4.680 -0.3647 -0.0335 -0.3417
   92MOL0     O12332  10.757   4.184   4.675 -0.7834 -0.6808  0.8817
   92MOL0     C12333  10.517   4.232   4.533 -0.3403  0.0868 -0.1532
   92MOL0     C12334  10.398   4.248   4.457 -0.3254 -0.1211  0.4591
   92MOL0     N12335   9.592   4.078   4.297 -0.9052  0.1200 -0.6595
   92MOL0     N12336   9.484   4.016   4.322 -0.0866 -0.1737 -0.3440
   92MOL0     C12337   9.072   3.444   5.158  0.1434  0.4711  0.1746
   92MOL0     C12338   8.935   3.434   5.185 -0.0341 -0.0366 -1.1711
   92MOL0     C12339   8.560   3.370   5.465 -0.5827 -1.1509 -0.7512
   92MOL0     C12340   8.528   3.271   5.555  0.5782 -0.2396  0.9010
   92MOL0     C12341   8.389   3.243   5.573  0.2272  0.1897  0.0105
   92MOL0     C12342   8.288   3.305   5.501 -0.2405  0.1145 -0.3869
   92MOL0     O12343   8.159   3.255   5.517 -0.3622 -0.1492 -0.4866
   92MOL0     C12344   8.058   3.354   5.522  0.4077  0.3526  1.1248
   92MOL0     C12345   7.933   3.298   5.584 -0.3933 -0.5232  0.1193
   92MOL0     C12346   7.827   3.391   5.624 -0.0888 -0.0005 -0.6395
   92MOL0     C12347   7.696   3.309   5.654 -0.5639  0.8598  0.2790
   92MOL0     C12348   7.580   3.390   5.689  0.1734  0.4409 -0.4137
   92MOL0     C12349   7.468   3.445   5.707  0.6471  0.7825  0.4194
   92MOL0     C12350   8.320   3.407   5.412  0.0154 -0.8853  0.1293
   92MOL0     C12351   8.452   3.438   5.391  0.2609  0.9200 -0.2706
   92MOL0     C12352   8.472   3.544   5.278 -0.0241  0.1113  0.1187
   92MOL0     H12353   8.926   3.592   5.481 -0.3801  1.0957 -0.5725
   92MOL0     H12354   9.168   3.581   5.451 -1.8760  0.5920  0.7453
   92MOL0     H12355   9.311   3.682   5.347 -0.0821 -1.5689  0.1926
   92MOL0     H12356   9.445   3.645   5.232  0.2141  0.4770  0.6172
   92MOL0     H12357   9.346   3.849   5.162 -1.9545  0.6841  1.9933
   92MOL0     H12358   9.182   3.781   5.165 -0.3770  1.0322 -0.8909
   92MOL0     H12359   9.218   3.644   4.969  1.3810  0.2188 -0.1641
   92MOL0     H12360   9.396   3.668   4.977 -0.5192 -1.1078  0.6595
   92MOL0     H12361   9.179   3.886   4.924 -0.3523 -0.4575 -0.5595
   92MOL0     H12362   9.359   3.913   4.929  0.0395  0.9765  1.2239
   92MOL0     H12363   9.374   3.750   4.741  0.2868  0.2447 -0.2850
   92MOL0     H12364   9.194   3.752   4.735 -0.6888  0.4583  3.7980
   92MOL0     H12365   9.216   3.997   4.708  2.3044  2.6414 -0.8419
   92MOL0     H12366   9.379   3.986   4.690  1.2637 -1.0705 -2.7162
   92MOL0     H12367   9.251   3.999   4.471  1.0835 -1.3910 -2.0424
   92MOL0     H12368   9.185   3.839   4.501 -0.9301 -1.2386  2.9475
   92MOL0     H12369   9.435   3.758   4.521 -1.2565 -0.2802  0.3243
   92MOL0     H12370   9.353   3.777   4.367  0.0741 -1.9352  0.6555
   92MOL0     H12371   9.676   3.868   4.533  0.4824  0.7644  0.5037
   92MOL0     H12372   9.830   4.163   4.427  0.0328 -0.2595  1.2485
   92MOL0     H12373   9.874   3.991   4.448 -1.5367 -0.7584  1.6896
   92MOL0     H12374   9.870   3.952   4.188 -2.3682  1.1927 -2.6049
   92MOL0     H12375   9.814   4.110   4.163  1.5542  1.5725  0.4438
   92MOL0     H12376  10.013   4.224   4.229  3.5102  0.7744 -0.8858
   92MOL0     H12377  10.041   4.094   4.122  4.7856 -0.8733 -0.2689
   92MOL0     H12378  10.167   3.970   4.296  1.3853 -1.1935  2.5068
   92MOL0     H12379  10.079   4.042   4.430  1.7382 -0.4056  0.0135
   92MOL0     H12380  10.295   3.928   4.446 -0.9579  0.3968  3.5750
   92MOL0     H12381  10.516   3.901   4.590  0.7207  0.8604  2.7325
   92MOL0     H12382  10.996   4.115   4.667 -0.6443  0.8958  1.9980
   92MOL0     H12383  11.191   4.019   4.781 -0.4694 -0.0840  1.7372
   92MOL0     H12384  11.347   3.898   4.917 -0.8800  0.4628  0.9737
   92MOL0     H12385  11.236   3.793   5.004 -0.5830 -0.3992 -1.2876
   92MOL0     H12386  11.373   3.616   4.952 -2.9690  1.3247 -1.1946
   92MOL0     H12387  11.482   3.728   4.859 -2.0983 -1.1667 -0.8957
   92MOL0     H12388  11.529   3.864   5.052  2.7494 -1.3662 -1.5304
   92MOL0     H12389  11.416   3.766   5.161  0.6634  2.3699  0.1054
   92MOL0     H12390  11.663   3.653   5.032 -0.2001  1.4608 -0.5888
   92MOL0     H12391  11.562   3.591   5.166 -0.0074 -0.0685 -0.5656
   92MOL0     H12392  11.748   3.841   5.170 -0.3322  0.7256  1.1341
   92MOL0     H12393  11.780   3.683   5.244 -0.8365 -1.6345 -0.5514
   92MOL0     H12394  11.544   3.855   5.314  2.0121  1.0768 -2.1547
   92MOL0     H12395  11.597   3.711   5.402  0.5288 -1.0241 -0.4899
   92MOL0     H12396  11.774   3.961   5.400  1.5481 -0.3588  1.6563
   92MOL0     H12397  11.801   3.818   5.488  2.0395  2.4212  0.7064
   92MOL0     H12398  11.546   3.953   5.519  1.0252  1.8706 -1.9506
   92MOL0     H12399  11.625   3.843   5.633 -1.0930 -1.6898 -2.2649
   92MOL0     H12400  11.056   3.630   4.717 -0.4018  0.2391  3.1744
   92MOL0     H12401  10.826   3.715   4.653  0.9142 -1.7937  0.4476
   92MOL0     H12402  10.567   4.328   4.544 -1.2895  0.3856  2.2930
   92MOL0     H12403  10.354   4.344   4.435 -1.5788 -0.9694 -0.8500
   92MOL0     H12404   9.120   3.409   5.067  2.5657 -0.7583  1.8024
   92MOL0     H12405   8.868   3.396   5.109 -0.5428  1.2261 -1.3816
   92MOL0     H12406   8.596   3.204   5.607  0.2735  0.2015  1.8871
   92MOL0     H12407   8.373   3.156   5.635  2.6394  0.3706  1.0272
   92MOL0     H12408   8.027   3.388   5.423 -3.0325  1.8977  2.5630
   92MOL0     H12409   8.098   3.446   5.565 -1.4248  1.3770  0.7564
   92MOL0     H12410   7.977   3.251   5.672  1.6326  1.0017 -0.0275
   92MOL0     H12411   7.901   3.218   5.517 -1.0816  0.7299 -1.0946
   92MOL0     H12412   7.800   3.465   5.548 -2.9745  0.5168  0.7550
   92MOL0     H12413   7.849   3.442   5.719 -0.1045 -1.7589  0.3596
   92MOL0     H12414   7.671   3.243   5.571  2.2997 -0.3974  0.2975
   92MOL0     H12415   7.714   3.248   5.743  0.2275  0.3560 -0.2188
   92MOL0     H12416   7.370   3.486   5.715 -0.2617 -1.5831  3.1949
   92MOL0     H12417   8.245   3.467   5.363  1.2831 -0.2353 -1.0919
   92MOL0     H12418   8.381   3.574   5.225  0.1485 -1.8654 -1.4169
   92MOL0     H12419   8.521   3.633   5.319 -1.6320  0.7173  0.7969
   92MOL0     H12420   8.541   3.500   5.205  0.4203  0.7452  0.1462
   93MOL0     O12421   1.516   6.680   4.056  0.7158  0.4190  0.8648
   93MOL0     C12422   1.517   6.744   4.161 -0.0193  0.1040 -0.9258
   93MOL0     O12423   1.621   6.798   4.219 -0.4041  0.1398  0.8164
   93MOL0     C12424   1.751   6.755   4.202 -0.7777 -0.2238 -0.1455
   93MOL0     C12425   1.786   6.634   4.158 -0.2169  0.0805 -0.3773
   93MOL0     C12426   1.925   6.595   4.143  0.2136 -0.5549  0.0332
   93MOL0     C12427   2.030   6.675   4.177  0.3320 -0.3474  0.3423
   93MOL0     O12428   2.147   6.618   4.165  0.0335  0.2066 -0.3307
   93MOL0     C12429   2.265   6.690   4.207 -0.1440 -0.4056 -0.4710
   93MOL0     C12430   2.388   6.613   4.165  0.2669 -0.7934 -0.4114
   93MOL0     C12431   2.515   6.663   4.247 -0.2349 -0.1555 -0.2584
   93MOL0     C12432   2.636   6.585   4.202  0.9891 -0.4875 -0.3592
   93MOL0     C12433   2.697   6.631   4.071  0.3950  0.0320 -0.2680
   93MOL0     C12434   2.839   6.562   4.054 -0.4621  0.6708  0.3635
   93MOL0     C12435   2.908   6.585   3.913 -1.1045  0.0046  0.2076
   93MOL0     C12436   2.985   6.723   3.889 -0.1522 -0.7471 -0.3846
   93MOL0     N12437   3.089   6.749   3.981 -0.5169 -0.3489  0.0159
   93MOL0     C12438   3.074   6.808   4.103  0.1044  0.2816  0.3382
   93MOL0     C12439   3.200   6.849   4.141 -0.7209 -0.0863  0.5918
   93MOL0     C12440   3.231   6.934   4.263  0.1020 -0.1598  0.0599
   93MOL0     C12441   3.123   7.041   4.287  0.1729  0.5227  0.7569
   93MOL0     C12442   3.148   7.112   4.423  1.0217  0.3193  0.4514
   93MOL0     C12443   3.293   7.143   4.461  0.2030  0.0373 -0.4414
   93MOL0     O12444   3.353   7.224   4.346 -0.9133  0.8401  0.3510
   93MOL0     C12445   3.487   7.258   4.359  0.0075 -0.8495  0.4434
   93MOL0     C12446   3.564   7.254   4.473 -0.1213  0.3967  0.2297
   93MOL0     C12447   3.696   7.295   4.481 -0.5080 -0.1409 -0.0576
   93MOL0     C12448   3.762   7.337   4.362  0.1594 -0.1630  0.0683
   93MOL0     C12449   3.905   7.374   4.358 -0.4219 -0.2591  0.7649
   93MOL0     O12450   3.987   7.296   4.426 -0.3833  0.1906  0.3181
   93MOL0     C12451   4.120   7.338   4.443 -0.1774  0.3816 -0.1018
   93MOL0     C12452   4.159   7.468   4.478  0.2727 -0.4239 -0.2158
   93MOL0     C12453   4.299   7.484   4.494  0.1191  0.1263  0.8298
   93MOL0     C12454   4.398   7.381   4.483 -0.2060 -0.1891 -0.0504
   93MOL0     O12455   4.530   7.402   4.522 -0.2894  0.6388 -0.4426
   93MOL0     C12456   4.633   7.304   4.496 -0.5315 -0.3167 -0.3304
   93MOL0     C12457   4.658   7.219   4.624 -0.4042 -0.5603  0.1418
   93MOL0     C12458   4.762   7.118   4.599 -0.4206  0.3778  0.4566
   93MOL0     C12459   4.898   7.171   4.624  0.3664 -0.3979  0.3918
   93MOL0     C12460   4.927   7.164   4.777  0.4505  0.3000 -0.3211
   93MOL0     C12461   5.060   7.236   4.804  0.2990 -0.0043 -1.0479
   93MOL0     C12462   5.113   7.189   4.942  0.8306 -0.5837 -0.1010
   93MOL0     C12463   5.066   7.276   5.065  0.0695  0.3469 -0.0261
   93MOL0    Cl12464   4.925   7.208   5.125  0.4685 -0.0825  0.5333
   93MOL0     C12465   4.347   7.259   4.442  0.4678  0.1788  0.4204
   93MOL0     C12466   4.214   7.236   4.416  0.2633 -0.6229  0.0242
   93MOL0     O12467   3.936   7.480   4.299 -0.0192  0.3160 -0.5517
   93MOL0     C12468   3.689   7.347   4.246 -0.3259 -0.1176 -0.2573
   93MOL0     C12469   3.547   7.320   4.250  0.7694  0.0030 -1.4032
   93MOL0     N12470   3.289   6.791   4.045 -0.5399 -0.9572  0.6353
   93MOL0     N12471   3.222   6.743   3.943 -0.1785  0.3407 -0.3201
   93MOL0     C12472   1.998   6.804   4.229 -0.3271 -0.5810  0.2262
   93MOL0     C12473   1.859   6.841   4.243 -0.0917 -0.4838  0.5999
   93MOL0     C12474   1.376   6.790   4.212  0.0187 -0.3206 -0.0360
   93MOL0     C12475   1.263   6.746   4.136  0.6714  0.3660 -0.8187
   93MOL0     C12476   1.130   6.774   4.167 -0.2960  0.1374  0.2625
   93MOL0     C12477   1.102   6.850   4.272  0.9080 -1.0951  0.4380
   93MOL0     O12478   0.974   6.884   4.287  0.2154  0.5459  1.0082
   93MOL0     C12479   0.933   7.015   4.242  0.2041  0.3627  0.2451
   93MOL0     C12480   0.791   7.053   4.286  0.2722  0.1944  0.6254
   93MOL0     C12481   0.681   6.944   4.281 -0.5944  0.5250  0.3007
   93MOL0     C12482   0.544   7.003   4.269  0.3043 -0.5807 -0.4677
   93MOL0     C12483   0.452   6.898   4.307 -0.0522 -0.5748 -1.1989
   93MOL0     C12484   0.382   6.814   4.352 -0.3008  0.3159 -0.3749
   93MOL0     C12485   1.207   6.891   4.358 -0.2676  1.1245 -0.3406
   93MOL0     C12486   1.348   6.870   4.327  0.1103 -0.1046 -0.6561
   93MOL0     C12487   1.449   6.945   4.403  0.0956  0.4544  1.0753
   93MOL0     H12488   1.715   6.560   4.121 -1.6459  1.9573 -1.5428
   93MOL0     H12489   1.946   6.499   4.096  2.8937 -0.3577  0.6902
   93MOL0     H12490   2.269   6.790   4.164  0.9442 -1.2458 -2.4879
   93MOL0     H12491   2.266   6.701   4.316 -2.6584  0.2315 -0.4636
   93MOL0     H12492   2.403   6.629   4.058  1.1136  1.0546 -0.0658
   93MOL0     H12493   2.361   6.508   4.182 -3.9976 -0.0074 -1.0942
   93MOL0     H12494   2.515   6.647   4.355  0.0378 -0.8367 -0.3522
   93MOL0     H12495   2.536   6.769   4.231  4.0553 -0.4784  1.7682
   93MOL0     H12496   2.717   6.591   4.275  2.2289 -4.6215 -1.1116
   93MOL0     H12497   2.620   6.477   4.194 -1.1715 -0.1511 -1.2459
   93MOL0     H12498   2.630   6.604   3.989 -2.9562 -0.8157  2.5167
   93MOL0     H12499   2.717   6.738   4.080  1.8451 -0.2240 -0.1568
   93MOL0     H12500   2.911   6.589   4.131  1.6710  1.5202 -1.8009
   93MOL0     H12501   2.836   6.453   4.063 -0.2795  0.6168 -0.1797
   93MOL0     H12502   2.838   6.585   3.829  0.0927 -0.9023 -0.8518
   93MOL0     H12503   2.973   6.500   3.887 -2.1638 -0.6146 -0.4683
   93MOL0     H12504   3.042   6.715   3.797  1.2064 -0.2398  0.3889
   93MOL0     H12505   2.914   6.806   3.882  1.4346  0.7177  0.2834
   93MOL0     H12506   2.988   6.836   4.163 -1.0786 -2.8888  0.2618
   93MOL0     H12507   3.235   6.863   4.346  0.1613  0.5291  0.6491
   93MOL0     H12508   3.327   6.985   4.256  0.2839 -0.3105  1.3297
   93MOL0     H12509   3.130   7.122   4.214 -0.1309 -0.7412 -0.7237
   93MOL0     H12510   3.022   7.000   4.280 -0.4691  2.2659 -1.2303
   93MOL0     H12511   3.112   7.040   4.496  0.3462 -0.0786 -0.2582
   93MOL0     H12512   3.082   7.198   4.414 -1.6487 -1.8119 -2.7200
   93MOL0     H12513   3.350   7.053   4.482  0.5578  0.3929  0.1418
   93MOL0     H12514   3.280   7.202   4.552  1.5312  0.2235 -0.3485
   93MOL0     H12515   3.524   7.215   4.566  0.9383  1.6480  1.2485
   93MOL0     H12516   3.753   7.323   4.569  0.1091  2.3116 -1.1294
   93MOL0     H12517   4.093   7.552   4.491  0.5864  0.0390 -1.4986
   93MOL0     H12518   4.323   7.586   4.523  1.2929 -0.1772  1.0070
   93MOL0     H12519   4.616   7.239   4.410 -3.8915  1.7507 -1.4662
   93MOL0     H12520   4.721   7.362   4.466 -0.8291  1.1460  1.3956
   93MOL0     H12521   4.703   7.291   4.693  1.0743  0.6007 -1.9573
   93MOL0     H12522   4.567   7.172   4.664 -0.6604 -0.3473 -0.1877
   93MOL0     H12523   4.747   7.030   4.662 -3.6096  0.0767 -0.5187
   93MOL0     H12524   4.755   7.089   4.493  1.8240 -0.5242  0.5069
   93MOL0     H12525   4.921   7.275   4.600 -0.4624 -0.0589  0.9965
   93MOL0     H12526   4.970   7.108   4.572  1.5996  0.8808  0.4901
   93MOL0     H12527   4.932   7.057   4.800 -3.5058 -0.1516 -0.9386
   93MOL0     H12528   4.848   7.204   4.842  1.3169 -0.8037  1.4950
   93MOL0     H12529   5.133   7.216   4.725  1.3527  0.5811 -0.2421
   93MOL0     H12530   5.043   7.344   4.801  1.6416  0.2337 -0.5280
   93MOL0     H12531   5.222   7.185   4.929  0.9501 -0.6918  0.8305
   93MOL0     H12532   5.075   7.089   4.962 -2.2671  0.2067 -1.3612
   93MOL0     H12533   5.137   7.286   5.147  0.3803  1.2606 -0.3902
   93MOL0     H12534   5.036   7.374   5.027  2.3452 -0.1775 -3.7407
   93MOL0     H12535   4.418   7.178   4.432  0.8236  0.5144  0.2073
   93MOL0     H12536   4.178   7.139   4.385 -1.4486 -1.2098  3.3841
   93MOL0     H12537   3.736   7.374   4.152  1.4986  0.2222  0.7027
   93MOL0     H12538   3.488   7.326   4.159  0.4481 -2.9971 -1.5060
   93MOL0     H12539   2.072   6.873   4.268  0.8355 -0.3500 -2.2280
   93MOL0     H12540   1.845   6.942   4.281  1.8461  0.1884 -0.2973
   93MOL0     H12541   1.279   6.671   4.058  3.1826 -0.8398  0.7427
   93MOL0     H12542   1.048   6.726   4.114 -0.8169  0.4439  0.7823
   93MOL0     H12543   0.933   7.024   4.133 -2.8557 -4.0338 -0.4103
   93MOL0     H12544   1.010   7.082   4.279 -1.5020  1.6712  1.5749
   93MOL0     H12545   0.764   7.146   4.235  1.4624  1.2117  1.7728
   93MOL0     H12546   0.795   7.083   4.391  1.8893 -2.0646  1.2900
   93MOL0     H12547   0.691   6.894   4.377  0.5711  0.6880  0.2815
   93MOL0     H12548   0.710   6.878   4.198 -0.3933  1.6270 -0.5354
   93MOL0     H12549   0.521   7.083   4.340 -2.4670 -1.2719 -0.4711
   93MOL0     H12550   0.518   7.043   4.170  0.6537  1.9335  0.3835
   93MOL0     H12551   0.322   6.737   4.396 -0.8799  1.0720  0.1770
   93MOL0     H12552   1.194   6.949   4.449  2.1555  1.1948  0.0188
   93MOL0     H12553   1.485   7.026   4.337  0.5587  0.2864  1.1175
   93MOL0     H12554   1.399   7.001   4.483 -2.4937 -1.1646  0.7035
   93MOL0     H12555   1.534   6.885   4.435  2.3165  1.4573 -2.3153
   94MOL0     O12556   8.565   2.649   3.850 -0.0790 -0.0951 -0.0992
   94MOL0     C12557   8.553   2.750   3.914 -0.4366 -0.8455 -0.2340
   94MOL0     O12558   8.646   2.848   3.925  0.0829  0.3938 -0.9414
   94MOL0     C12559   8.782   2.833   3.919 -0.0260  0.2041  0.0359
   94MOL0     C12560   8.859   2.772   3.822 -0.0562  0.1140 -0.1848
   94MOL0     C12561   9.000   2.766   3.828  0.9361 -0.0326 -0.1585
   94MOL0     C12562   9.061   2.831   3.929 -0.2363  0.7322  0.4620
   94MOL0     O12563   9.200   2.828   3.928  0.2113 -0.4625 -0.1931
   94MOL0     C12564   9.269   2.930   4.000 -0.2266 -0.5409  0.6603
   94MOL0     C12565   9.417   2.913   3.988  0.6336  0.2204 -0.5457
   94MOL0     C12566   9.501   3.032   4.036 -0.9040 -0.0178 -0.0557
   94MOL0     C12567   9.535   3.010   4.188  0.1937 -0.6783 -0.2736
   94MOL0     C12568   9.646   3.106   4.233  0.7280 -0.1275 -0.3671
   94MOL0     C12569   9.674   3.108   4.387 -0.0166 -0.4451 -0.4479
   94MOL0     C12570   9.797   3.183   4.436  0.3190  0.0039 -0.1342
   94MOL0     C12571   9.923   3.107   4.398 -0.5688 -0.3136  0.3549
   94MOL0     N12572  10.045   3.151   4.468 -0.3399  0.8325 -0.2436
   94MOL0     C12573  10.169   3.138   4.416  0.6226  0.6779 -0.5885
   94MOL0     C12574  10.241   3.213   4.508  0.6782 -0.3192 -0.2659
   94MOL0     C12575  10.387   3.214   4.498  0.3071  1.1819  0.7596
   94MOL0     C12576  10.464   3.298   4.608  0.9342 -0.3138 -0.7349
   94MOL0     C12577  10.608   3.333   4.555 -0.4239  0.3494  0.4565
   94MOL0     C12578  10.681   3.404   4.668 -0.9085  0.5146 -0.3351
   94MOL0     O12579  10.827   3.430   4.644 -0.0501  0.4270  0.5414
   94MOL0     C12580  10.927   3.331   4.652 -0.5828 -0.1298  0.7017
   94MOL0     C12581  10.896   3.202   4.692 -0.5809 -0.5251  0.3269
   94MOL0     C12582  11.005   3.110   4.674  0.1839  0.3754 -0.3549
   94MOL0     C12583  11.127   3.137   4.615  0.3250 -0.4246 -0.1446
   94MOL0     C12584  11.231   3.045   4.616  0.1842  0.0691 -0.0949
   94MOL0     O12585  11.342   3.085   4.553  0.2382 -0.2760  0.3695
   94MOL0     C12586  11.462   3.016   4.578  1.0893  0.3581  0.3416
   94MOL0     C12587  11.490   2.898   4.508  0.7249  0.1525 -0.7273
   94MOL0     C12588  11.603   2.819   4.539  0.5805  0.9953 -0.8085
   94MOL0     C12589  11.692   2.855   4.647 -0.5760 -0.3153 -0.0584
   94MOL0     O12590  11.809   2.787   4.687  0.4663 -0.6075  0.2146
   94MOL0     C12591  11.859   2.686   4.599  0.2033  0.2080  0.1761
   94MOL0     C12592  12.011   2.658   4.622  0.8038 -0.6676  0.2742
   94MOL0     C12593  12.038   2.585   4.755  0.6099 -0.2380 -0.5392
   94MOL0     C12594  12.184   2.623   4.794 -0.2940  0.5095  0.3388
   94MOL0     C12595  12.237   2.550   4.911  0.5372  0.8165 -0.7549
   94MOL0     C12596  12.373   2.604   4.958  0.4888 -0.1786 -0.1378
   94MOL0     C12597  12.415   2.523   5.083 -0.6774  0.6739  0.2959
   94MOL0     C12598  12.523   2.595   5.158 -0.5662  0.4370  0.6276
   94MOL0    Cl12599  12.442   2.740   5.222  0.0957 -0.3020  0.2828
   94MOL0     C12600  11.665   2.975   4.713 -1.3741  0.2337  0.0885
   94MOL0     C12601  11.552   3.051   4.680 -0.1180 -0.0546  0.0216
   94MOL0     O12602  11.228   2.953   4.701 -0.5533  0.1136 -0.0074
   94MOL0     C12603  11.158   3.278   4.588  0.7674 -0.4361 -0.8681
   94MOL0     C12604  11.056   3.369   4.606 -0.1959 -0.9259  0.3980
   94MOL0     N12605  10.161   3.253   4.613 -0.6089 -0.1550 -0.2971
   94MOL0     N12606  10.038   3.210   4.585 -0.1512  0.6012  0.0834
   94MOL0     C12607   8.990   2.894   4.038  0.1103 -0.1347  0.0193
   94MOL0     C12608   8.848   2.899   4.020 -0.8812  0.0919  0.6073
   94MOL0     C12609   8.421   2.788   3.980  0.3282 -1.0573 -0.7075
   94MOL0     C12610   8.394   2.918   4.023  0.7104 -0.2132  0.2369
   94MOL0     C12611   8.269   2.948   4.085  0.7517  0.6768  0.9624
   94MOL0     C12612   8.174   2.845   4.113 -0.1723  0.1789 -0.6222
   94MOL0     O12613   8.067   2.870   4.185 -0.4451 -0.1960  0.1617
   94MOL0     C12614   7.946   2.805   4.179  0.1377  0.1127  0.4026
   94MOL0     C12615   7.881   2.810   4.046  0.0790 -0.4922  0.4977
   94MOL0     C12616   7.738   2.757   4.054 -0.5927 -0.2450  0.4889
   94MOL0     C12617   7.735   2.602   4.074 -0.5111 -0.4490 -0.2253
   94MOL0     C12618   7.807   2.535   3.970 -0.5892  0.4354 -0.0088
   94MOL0     C12619   7.881   2.464   3.893  1.0236 -0.1227  0.9519
   94MOL0     C12620   8.206   2.719   4.074  0.0210  0.9185 -0.0438
   94MOL0     C12621   8.320   2.692   4.002  0.3956  0.3375 -0.5464
   94MOL0     C12622   8.331   2.541   3.966 -0.0447 -0.1717  0.0521
   94MOL0     H12623   8.812   2.726   3.736  0.5675 -1.1682  0.1356
   94MOL0     H12624   9.053   2.710   3.752  0.4360 -0.5935 -0.1040
   94MOL0     H12625   9.242   3.028   3.960 -2.8795 -1.4754 -0.0347
   94MOL0     H12626   9.239   2.935   4.105 -1.1242  1.0155  0.3638
   94MOL0     H12627   9.443   2.904   3.882  0.3464  1.0925 -0.7046
   94MOL0     H12628   9.447   2.818   4.032 -2.7148  0.0599  1.7648
   94MOL0     H12629   9.455   3.129   4.017  1.2461  0.7158 -1.9094
   94MOL0     H12630   9.597   3.028   3.986 -0.8481 -1.4073  0.1370
   94MOL0     H12631   9.442   3.033   4.241  0.3644 -2.6673  0.9588
   94MOL0     H12632   9.552   2.905   4.211 -2.9938 -1.0515  0.8848
   94MOL0     H12633   9.738   3.071   4.184  0.2522 -2.0376  0.0290
   94MOL0     H12634   9.616   3.204   4.194 -2.1784 -0.9809 -0.5469
   94MOL0     H12635   9.592   3.150   4.447  0.1114 -0.2249 -0.4253
   94MOL0     H12636   9.688   3.004   4.418  4.3542  0.5727  1.8694
   94MOL0     H12637   9.786   3.205   4.542 -0.9868  2.0438 -0.6357
   94MOL0     H12638   9.806   3.275   4.378 -1.0760  0.2032 -0.0725
   94MOL0     H12639   9.916   2.999   4.416 -2.0164 -0.3431 -0.2223
   94MOL0     H12640   9.939   3.117   4.290  0.3075 -0.8941  0.4188
   94MOL0     H12641  10.210   3.100   4.323 -0.3922  2.0639 -1.6422
   94MOL0     H12642  10.426   3.111   4.501 -1.4840  0.3825 -1.0079
   94MOL0     H12643  10.414   3.241   4.395  0.1516  1.5394  0.8122
   94MOL0     H12644  10.408   3.391   4.619 -1.2697 -1.6651  0.0554
   94MOL0     H12645  10.472   3.242   4.701 -0.0411  0.4089 -0.2045
   94MOL0     H12646  10.625   3.383   4.459  2.1403 -1.9106 -0.3859
   94MOL0     H12647  10.659   3.241   4.526  0.1395  1.0228 -0.7682
   94MOL0     H12648  10.663   3.362   4.767  1.6576  1.2790  0.5369
   94MOL0     H12649  10.630   3.500   4.683 -0.8068  0.3639  1.0925
   94MOL0     H12650  10.803   3.170   4.737 -2.5985  0.2937 -2.9690
   94MOL0     H12651  10.981   3.010   4.711  0.3170  0.3302 -0.3920
   94MOL0     H12652  11.405   2.877   4.444 -1.7913  0.6747  2.1878
   94MOL0     H12653  11.611   2.726   4.485 -0.4726  0.1689  0.4024
   94MOL0     H12654  11.803   2.595   4.623  1.9593 -0.4095  2.2257
   94MOL0     H12655  11.839   2.711   4.495  0.5260  1.8721  0.4766
   94MOL0     H12656  12.055   2.613   4.533  0.8643  0.9225 -0.5421
   94MOL0     H12657  12.057   2.757   4.629  2.4658 -1.1324 -2.5734
   94MOL0     H12658  11.970   2.618   4.834  1.1929 -0.1801 -0.0521
   94MOL0     H12659  12.036   2.477   4.736 -1.3872 -0.5524  1.1237
   94MOL0     H12660  12.171   2.728   4.822 -0.1569 -0.1573  3.3433
   94MOL0     H12661  12.246   2.611   4.705 -0.0928  2.0255  0.2543
   94MOL0     H12662  12.241   2.442   4.898 -0.0705  0.5943  0.7227
   94MOL0     H12663  12.163   2.567   4.990 -0.0681  0.4118 -1.2311
   94MOL0     H12664  12.445   2.579   4.879 -0.7296 -0.0069 -1.3405
   94MOL0     H12665  12.377   2.709   4.986  0.4917 -0.0411 -0.6517
   94MOL0     H12666  12.461   2.428   5.055  0.2204  1.5041 -1.1642
   94MOL0     H12667  12.333   2.499   5.152  0.9062  1.8220  2.7267
   94MOL0     H12668  12.558   2.535   5.243  2.1732 -0.8700 -1.2670
   94MOL0     H12669  12.608   2.607   5.091 -0.0665 -0.1388  1.1472
   94MOL0     H12670  11.732   2.991   4.798 -2.1755 -3.2911  1.5400
   94MOL0     H12671  11.513   3.137   4.732 -2.2223 -0.6053 -0.5458
   94MOL0     H12672  11.253   3.311   4.546  1.9710  0.0304  1.9789
   94MOL0     H12673  11.059   3.471   4.568 -0.3363 -1.3756 -0.8634
   94MOL0     H12674   9.035   2.940   4.125  0.5876 -1.7131  0.6459
   94MOL0     H12675   8.789   2.961   4.086  0.8504 -0.2545  2.5765
   94MOL0     H12676   8.473   2.991   4.010 -0.9331  1.6299  0.1548
   94MOL0     H12677   8.249   3.049   4.120  0.1347  1.4876 -1.4736
   94MOL0     H12678   7.876   2.860   4.242 -0.9488 -0.3026 -0.4059
   94MOL0     H12679   7.953   2.704   4.220 -0.5855  0.3765  1.1950
   94MOL0     H12680   7.940   2.757   3.971 -2.2308 -1.9186 -0.4006
   94MOL0     H12681   7.883   2.912   4.006 -1.2958  0.1018  1.8456
   94MOL0     H12682   7.681   2.784   3.965  0.8775  0.8640 -0.1462
   94MOL0     H12683   7.684   2.817   4.128  2.9552  2.6271  1.0520
   94MOL0     H12684   7.792   2.580   4.165  0.1179  0.5068 -0.3714
   94MOL0     H12685   7.636   2.557   4.081  0.3167 -2.3005  0.5062
   94MOL0     H12686   7.940   2.389   3.845  1.4348 -0.2057  1.5712
   94MOL0     H12687   8.150   2.629   4.096  1.6442 -0.4543 -1.2221
   94MOL0     H12688   8.348   2.529   3.858  0.4048  1.2097 -0.0464
   94MOL0     H12689   8.411   2.492   4.022  1.9936  1.8751 -0.9143
   94MOL0     H12690   8.240   2.482   3.978  0.4485 -0.6727  1.5434
   95MOL0     O12691   4.299   9.810  10.077  0.2375  0.1392  0.1966
   95MOL0     C12692   4.224   9.877  10.008  0.2935 -0.5127  0.1455
   95MOL0     O12693   4.260   9.952   9.900 -0.1892  0.1808 -0.0877
   95MOL0     C12694   4.383   9.921   9.834 -0.1098 -0.1027 -0.2166
   95MOL0     C12695   4.498   9.940   9.891 -0.1214 -0.2000 -1.3665
   95MOL0     C12696   4.622   9.928   9.818 -0.0491  0.3511 -0.6863
   95MOL0     C12697   4.622   9.903   9.680  0.8127 -0.5766 -0.2839
   95MOL0     O12698   4.721   9.864   9.603 -1.3253 -0.3003  0.5320
   95MOL0     C12699   4.818   9.970   9.578  0.9864 -0.3948 -0.3901
   95MOL0     C12700   4.933   9.909   9.502  1.2591 -0.2656 -0.2118
   95MOL0     C12701   5.069   9.978   9.504  0.2303 -0.7729  0.1194
   95MOL0     C12702   5.168   9.903   9.419 -0.6409  0.0424 -0.2541
   95MOL0     C12703   5.302   9.970   9.394 -0.3774 -0.0937 -0.0831
   95MOL0     C12704   5.397   9.880   9.309 -0.1673 -0.0678 -0.2360
   95MOL0     C12705   5.540   9.946   9.301  0.9398 -0.3428 -0.4093
   95MOL0     C12706   5.536  10.082   9.214 -0.3800  0.3348 -0.2376
   95MOL0     N12707   5.667  10.128   9.171 -0.0394 -0.5812  0.0087
   95MOL0     C12708   5.683  10.206   9.059 -0.4398 -0.8893  0.1498
   95MOL0     C12709   5.812  10.240   9.050 -0.8325 -0.2301 -0.5528
   95MOL0     C12710   5.862  10.328   8.937 -1.1645  0.1389 -0.1540
   95MOL0     C12711   6.019  10.333   8.934  1.1030 -0.0917  0.2158
   95MOL0     C12712   6.071  10.422   9.059 -0.1111  0.0480  0.4361
   95MOL0     C12713   6.215  10.469   9.035  0.2398  0.4136 -0.1887
   95MOL0     O12714   6.290  10.348   9.065 -0.0112 -0.0375  0.4476
   95MOL0     C12715   6.420  10.355   9.026 -0.4655 -0.1974  0.0612
   95MOL0     C12716   6.498  10.237   8.993 -0.1358 -0.2935 -0.0114
   95MOL0     C12717   6.626  10.251   8.936 -0.0928 -0.4474  1.0300
   95MOL0     C12718   6.690  10.371   8.927 -0.1613  0.0398 -0.7465
   95MOL0     C12719   6.823  10.381   8.866  0.4555  0.3113 -0.0968
   95MOL0     O12720   6.883  10.271   8.811  0.6427 -0.5697 -0.2016
   95MOL0     C12721   7.007  10.269   8.780  0.2680 -0.2627  0.8155
   95MOL0     C12722   7.043  10.245   8.650  0.0726 -0.0801 -0.3817
   95MOL0     C12723   7.179  10.247   8.614 -0.3652 -0.0208 -0.0305
   95MOL0     C12724   7.282  10.288   8.696  0.5373  0.0461 -0.2908
   95MOL0     O12725   7.417  10.274   8.664 -0.0470  0.0567  0.3574
   95MOL0     C12726   7.453  10.227   8.536 -0.6377  0.4687  0.3447
   95MOL0     C12727   7.601  10.241   8.528  0.3343 -0.0740 -0.2959
   95MOL0     C12728   7.653  10.384   8.525 -0.0747 -0.1604 -0.3255
   95MOL0     C12729   7.813  10.380   8.557  0.6615  0.5526  1.0588
   95MOL0     C12730   7.871  10.509   8.521 -0.0133 -0.0323  0.3567
   95MOL0     C12731   8.016  10.538   8.569  0.0157  0.1472 -0.1639
   95MOL0     C12732   8.062  10.683   8.543  0.5450  0.4264 -0.0979
   95MOL0     C12733   8.208  10.709   8.574 -0.2454  0.3048  0.1169
   95MOL0    Cl12734   8.308  10.674   8.430  0.2281 -0.6008 -0.0502
   95MOL0     C12735   7.245  10.304   8.831  0.1118  0.7840  0.3918
   95MOL0     C12736   7.109  10.283   8.873 -0.4997  0.1656  0.0576
   95MOL0     O12737   6.876  10.493   8.882  0.3719  0.2278 -0.0311
   95MOL0     C12738   6.614  10.481   8.969  0.5590  0.6012  0.6376
   95MOL0     C12739   6.489  10.470   9.023  0.6188  0.3208  1.2184
   95MOL0     N12740   5.877  10.177   9.161 -0.6928  0.1146  0.2238
   95MOL0     N12741   5.789  10.114   9.243  0.2667  0.0252  0.1228
   95MOL0     C12742   4.496   9.880   9.625 -0.1442 -0.7005 -0.1774
   95MOL0     C12743   4.380   9.902   9.700  0.0624  0.6731  0.1889
   95MOL0     C12744   4.079   9.881  10.053 -0.1800  1.0895  0.3594
   95MOL0     C12745   4.044   9.822  10.177  0.3562 -0.2623 -0.4888
   95MOL0     C12746   3.908   9.834  10.232 -0.6539 -0.0912 -0.2591
   95MOL0     C12747   3.809   9.899  10.157 -0.1114  0.2422 -0.1714
   95MOL0     O12748   3.686   9.922  10.212 -1.0229 -0.2316 -0.2533
   95MOL0     C12749   3.660   9.886  10.350  0.2307 -0.7103 -0.5954
   95MOL0     C12750   3.614   9.745  10.366 -1.0591  0.5481  0.6712
   95MOL0     C12751   3.576   9.691  10.505 -0.0440  0.1058 -0.2291
   95MOL0     C12752   3.419   9.686  10.542  0.2922  0.4458  0.1725
   95MOL0     C12753   3.360   9.818  10.536 -1.1645  0.3056 -0.5046
   95MOL0     C12754   3.337   9.938  10.546 -0.1069  0.0069  0.2509
   95MOL0     C12755   3.837   9.931  10.025 -0.2913 -0.4236 -0.3612
   95MOL0     C12756   3.971   9.929   9.978 -0.2662 -0.0528 -0.3874
   95MOL0     C12757   3.985   9.968   9.836 -0.0305  0.4014 -0.1481
   95MOL0     H12758   4.498   9.938  10.000  0.6065  0.5016 -1.3462
   95MOL0     H12759   4.714   9.935   9.876  0.6217 -1.5924 -1.4287
   95MOL0     H12760   4.767  10.051   9.525  1.0584  0.6348  1.0835
   95MOL0     H12761   4.846  10.019   9.672 -0.9592  0.6880 -0.3266
   95MOL0     H12762   4.888   9.894   9.404 -1.1877  2.3849  0.3427
   95MOL0     H12763   4.951   9.809   9.543 -0.0932 -0.4098  0.0939
   95MOL0     H12764   5.101   9.976   9.609  1.2242 -0.2814 -0.1683
   95MOL0     H12765   5.057  10.080   9.468  2.2848 -0.3695  0.4300
   95MOL0     H12766   5.184   9.805   9.463 -2.2630 -0.3900 -0.5541
   95MOL0     H12767   5.131   9.877   9.319 -0.1017 -0.3058 -0.3717
   95MOL0     H12768   5.288  10.071   9.356 -0.8016 -0.0349  0.2248
   95MOL0     H12769   5.347   9.978   9.493 -1.3451 -1.8500  0.5342
   95MOL0     H12770   5.410   9.786   9.363  1.3898 -0.4005 -1.1140
   95MOL0     H12771   5.352   9.856   9.212 -1.4696 -1.3589  0.6540
   95MOL0     H12772   5.599   9.867   9.254  1.4232  0.7993 -1.7666
   95MOL0     H12773   5.583   9.952   9.402 -0.0502 -3.7571  0.3526
   95MOL0     H12774   5.480  10.063   9.122  2.0657  2.1039 -2.2304
   95MOL0     H12775   5.494  10.160   9.278 -1.1391 -0.4795  0.2832
   95MOL0     H12776   5.608  10.230   8.984 -0.4902 -0.8340  0.2174
   95MOL0     H12777   5.826  10.295   8.839  1.4604 -3.5491 -0.0691
   95MOL0     H12778   5.824  10.426   8.966  0.2368  0.8992 -0.7994
   95MOL0     H12779   6.063  10.233   8.936  0.1014 -0.5727 -0.8497
   95MOL0     H12780   6.033  10.383   8.838 -0.6783 -1.0084 -0.5826
   95MOL0     H12781   6.059  10.377   9.158  2.3632 -2.3793 -0.2656
   95MOL0     H12782   6.014  10.515   9.046 -0.7430 -0.3456  0.3322
   95MOL0     H12783   6.238  10.554   9.100 -1.9677  0.3293  0.7822
   95MOL0     H12784   6.242  10.503   8.935  1.7206  0.8311  0.3325
   95MOL0     H12785   6.453  10.140   9.011  1.2716 -0.8128  0.8351
   95MOL0     H12786   6.678  10.157   8.916  2.7161  0.8634  1.7058
   95MOL0     H12787   6.965  10.228   8.577 -1.1918 -1.5829  1.2156
   95MOL0     H12788   7.200  10.200   8.518 -2.3208  0.2851 -0.6525
   95MOL0     H12789   7.422  10.124   8.521  0.6911 -0.0024  0.7638
   95MOL0     H12790   7.415  10.296   8.460  1.1830  0.6008 -0.4903
   95MOL0     H12791   7.642  10.203   8.622 -0.2224  0.4974  0.1905
   95MOL0     H12792   7.636  10.191   8.437  1.5181  1.1518 -0.5583
   95MOL0     H12793   7.644  10.429   8.426  2.5229  1.0019 -0.1232
   95MOL0     H12794   7.598  10.446   8.597  2.6453  0.2220  1.5997
   95MOL0     H12795   7.866  10.299   8.507 -3.1907 -0.7609 -1.4150
   95MOL0     H12796   7.822  10.368   8.665  3.7896  3.0353  1.2277
   95MOL0     H12797   7.808  10.589   8.561 -0.8200 -2.2649  4.0655
   95MOL0     H12798   7.887  10.510   8.413  0.6592  1.8595  0.4447
   95MOL0     H12799   8.024  10.517   8.677  1.7029  1.0195 -0.0910
   95MOL0     H12800   8.086  10.475   8.515 -0.5000 -1.2760  0.7490
   95MOL0     H12801   8.006  10.749   8.610 -1.9870 -2.7988  1.2310
   95MOL0     H12802   8.034  10.706   8.440 -1.5180 -0.4025  0.2306
   95MOL0     H12803   8.212  10.816   8.594 -0.9070  0.5571 -1.0033
   95MOL0     H12804   8.247  10.641   8.651 -2.9934 -3.7083 -1.6382
   95MOL0     H12805   7.312  10.345   8.905 -1.6362 -0.3793  2.7600
   95MOL0     H12806   7.092  10.307   8.977 -1.1557  2.6254 -0.5429
   95MOL0     H12807   6.656  10.581   8.965  0.8649  0.5032  1.3181
   95MOL0     H12808   6.443  10.560   9.062  1.4895  0.3805  2.1582
   95MOL0     H12809   4.494   9.859   9.519 -3.3752  0.7249 -0.5328
   95MOL0     H12810   4.283   9.902   9.653 -0.8576 -0.7201  1.9534
   95MOL0     H12811   4.125   9.791  10.242  1.7992  0.6576 -1.7744
   95MOL0     H12812   3.896   9.813  10.338 -0.9608  3.2188  0.4754
   95MOL0     H12813   3.576   9.952  10.374  1.4339  0.6832 -0.0901
   95MOL0     H12814   3.734   9.930  10.417 -0.4736  2.4018 -1.6614
   95MOL0     H12815   3.699   9.684  10.333 -0.1037  2.6447 -1.0560
   95MOL0     H12816   3.540   9.734  10.286 -1.7186 -0.6379  1.4309
   95MOL0     H12817   3.631   9.747  10.582  1.2679 -0.6978 -0.5466
   95MOL0     H12818   3.609   9.588  10.520 -0.9527 -0.3435 -1.2150
   95MOL0     H12819   3.372   9.620  10.467  1.4315  0.0599 -0.2258
   95MOL0     H12820   3.408   9.639  10.640 -2.4384  0.2488 -0.1601
   95MOL0     H12821   3.310  10.041  10.551  0.5362  0.2489 -0.8135
   95MOL0     H12822   3.747   9.957   9.969  0.4401 -1.7847 -2.2389
   95MOL0     H12823   4.037   9.888   9.783 -0.7869 -1.6126  1.9606
   95MOL0     H12824   3.889   9.978   9.784 -0.3625  0.1123  0.3970
   95MOL0     H12825   4.051  10.052   9.811  1.0525 -0.9420 -2.0932
   96MOL0     O12826   1.463   6.218   1.143 -0.0639  0.3464  0.4660
   96MOL0     C12827   1.478   6.139   1.236 -0.1946  0.8179  0.2100
   96MOL0     O12828   1.603   6.083   1.265 -0.2295 -0.5699 -0.3440
   96MOL0     C12829   1.715   6.117   1.196  0.2827  0.5482  0.4896
   96MOL0     C12830   1.835   6.116   1.271  0.4471  0.0292  0.5620
   96MOL0     C12831   1.958   6.125   1.214 -0.7336  0.6957 -0.0921
   96MOL0     C12832   1.977   6.145   1.078 -0.2154  0.8037 -0.2349
   96MOL0     O12833   2.092   6.164   1.011  0.1014  0.4257 -0.1626
   96MOL0     C12834   2.211   6.185   1.088 -0.3906 -0.2622 -0.3437
   96MOL0     C12835   2.322   6.213   0.995 -0.0367  0.2610 -0.0633
   96MOL0     C12836   2.447   6.162   1.067 -0.7556 -0.1484  0.3592
   96MOL0     C12837   2.573   6.197   0.990 -0.3797  0.1501  0.3706
   96MOL0     C12838   2.700   6.133   1.044  1.2059 -0.0126 -0.3719
   96MOL0     C12839   2.806   6.159   0.947  0.3406 -0.0707 -0.0012
   96MOL0     C12840   2.946   6.140   1.008  0.0972  0.3995 -0.4856
   96MOL0     C12841   3.054   6.197   0.931 -0.9566 -0.0614 -0.0057
   96MOL0     N12842   3.189   6.142   0.971 -0.3004 -0.0933 -0.2096
   96MOL0     C12843   3.242   6.026   0.931 -0.7347  0.1729 -0.3262
   96MOL0     C12844   3.363   6.019   0.988  0.8125  0.5511 -0.2548
   96MOL0     C12845   3.468   5.918   0.948  0.4862 -0.6003 -0.2997
   96MOL0     C12846   3.598   5.922   1.030  1.3861  0.1950  0.1083
   96MOL0     C12847   3.698   5.805   1.018  0.5060  0.2299 -0.1328
   96MOL0     C12848   3.811   5.824   1.116  0.8113  0.9103  0.3726
   96MOL0     O12849   3.879   5.702   1.125 -0.5180 -0.4614  0.1677
   96MOL0     C12850   4.010   5.708   1.168  0.3917  0.2314  0.1926
   96MOL0     C12851   4.080   5.592   1.131 -0.4509 -0.0944 -0.4473
   96MOL0     C12852   4.220   5.582   1.150  0.2657  0.8616 -0.5197
   96MOL0     C12853   4.289   5.682   1.206 -0.4547 -0.1723  0.4471
   96MOL0     C12854   4.438   5.661   1.242  0.5148 -0.1580 -0.0964
   96MOL0     O12855   4.500   5.558   1.181 -0.7294 -0.2187 -0.1228
   96MOL0     C12856   4.625   5.514   1.209  0.4183 -0.4016 -0.4057
   96MOL0     C12857   4.667   5.396   1.151  0.4889  0.2337  0.3410
   96MOL0     C12858   4.780   5.327   1.193  0.2950  0.2080 -0.0596
   96MOL0     C12859   4.864   5.377   1.293 -0.8529 -0.1934 -0.2853
   96MOL0     O12860   4.987   5.325   1.340 -0.0325  0.3690  0.5619
   96MOL0     C12861   5.012   5.183   1.327 -0.7399  0.2169  1.4385
   96MOL0     C12862   5.141   5.157   1.409  1.1679 -0.6022  1.0033
   96MOL0     C12863   5.264   5.179   1.323 -0.3863 -0.5630 -0.2698
   96MOL0     C12864   5.395   5.128   1.389  0.3855 -0.2735  0.2735
   96MOL0     C12865   5.502   5.122   1.281 -0.7709  0.3503  0.6444
   96MOL0     C12866   5.638   5.101   1.339  0.4907 -0.5144 -0.3944
   96MOL0     C12867   5.750   5.129   1.238  0.1395 -1.0746  0.5944
   96MOL0     C12868   5.885   5.123   1.311  0.8744  0.0173  0.1446
   96MOL0    Cl12869   5.922   4.949   1.332  0.4029  0.2840 -0.0424
   96MOL0     C12870   4.820   5.494   1.353 -0.4600 -0.1095  0.6866
   96MOL0     C12871   4.710   5.567   1.308 -1.0426  1.0421  1.0982
   96MOL0     O12872   4.482   5.735   1.334  0.2695 -0.6061  0.0285
   96MOL0     C12873   4.219   5.804   1.234 -0.1764  0.6783 -0.4624
   96MOL0     C12874   4.073   5.813   1.231  0.1832  0.6671 -0.1940
   96MOL0     N12875   3.379   6.131   1.064  0.4053  0.8221 -0.5673
   96MOL0     N12876   3.272   6.202   1.065 -0.5675  1.0896  0.8232
   96MOL0     C12877   1.860   6.156   1.000  0.8464 -0.1149 -0.2123
   96MOL0     C12878   1.730   6.135   1.054 -0.5846 -0.0481 -0.4756
   96MOL0     C12879   1.370   6.089   1.327  0.2015 -0.6178  0.6092
   96MOL0     C12880   1.402   6.002   1.436 -0.3669 -0.1693  0.7497
   96MOL0     C12881   1.300   5.944   1.512 -0.1047  0.6465 -0.0190
   96MOL0     C12882   1.164   5.971   1.492 -0.4358 -0.2177  0.3307
   96MOL0     O12883   1.060   5.913   1.562 -0.0481 -0.1924  0.1412
   96MOL0     C12884   1.079   5.814   1.659 -0.0977 -0.4704 -0.0328
   96MOL0     C12885   1.088   5.673   1.584  0.5739 -0.2623  0.2010
   96MOL0     C12886   0.973   5.651   1.483 -0.3979  0.3159  0.1373
   96MOL0     C12887   0.839   5.675   1.558  0.1497  0.4850 -0.7206
   96MOL0     C12888   0.727   5.603   1.491  0.1265 -0.1788  0.1791
   96MOL0     C12889   0.644   5.539   1.432 -0.0791  0.1556 -0.1645
   96MOL0     C12890   1.135   6.077   1.404  0.5054  0.4363 -0.0851
   96MOL0     C12891   1.226   6.134   1.318 -0.1126  0.3638 -0.4977
   96MOL0     C12892   1.180   6.245   1.236  0.0141  0.5204  0.2683
   96MOL0     H12893   1.831   6.091   1.377 -1.6254 -2.4395 -0.0036
   96MOL0     H12894   2.042   6.128   1.283 -0.9007  0.9832  0.0992
   96MOL0     H12895   2.201   6.270   1.157  1.0208 -1.1923  1.0611
   96MOL0     H12896   2.235   6.098   1.150 -3.7526 -2.5651 -1.9642
   96MOL0     H12897   2.334   6.319   0.970 -0.3319  0.4634  0.6319
   96MOL0     H12898   2.309   6.157   0.902 -0.8480 -0.8092  0.6713
   96MOL0     H12899   2.450   6.053   1.077  2.3702 -0.4897 -2.4984
   96MOL0     H12900   2.454   6.203   1.168  1.2097  0.1435  0.1456
   96MOL0     H12901   2.555   6.159   0.889 -0.5204  0.2416  0.3609
   96MOL0     H12902   2.576   6.306   0.986  0.8509  0.1072 -0.4649
   96MOL0     H12903   2.727   6.166   1.145 -2.3619  1.2187  0.3448
   96MOL0     H12904   2.678   6.026   1.050 -0.3810  0.1007 -2.8844
   96MOL0     H12905   2.804   6.097   0.857 -1.7430  3.2634 -2.4800
   96MOL0     H12906   2.798   6.264   0.918  0.0027  1.0381  3.5495
   96MOL0     H12907   2.959   6.035   1.035 -3.9087  0.1508  1.2934
   96MOL0     H12908   2.950   6.193   1.104 -2.7733 -1.1891  0.6454
   96MOL0     H12909   3.018   6.179   0.829 -0.5993  4.8543 -1.2156
   96MOL0     H12910   3.051   6.306   0.936  0.4702  0.0028 -0.0766
   96MOL0     H12911   3.192   5.965   0.856 -0.9184  0.1548 -0.1914
   96MOL0     H12912   3.428   5.816   0.939 -0.5547 -0.0911 -1.9776
   96MOL0     H12913   3.479   5.951   0.844 -2.2446  2.0833  0.1322
   96MOL0     H12914   3.655   6.011   1.002  1.2540 -0.1019 -1.1593
   96MOL0     H12915   3.566   5.925   1.135 -1.2937 -0.2367 -0.6449
   96MOL0     H12916   3.745   5.795   0.920  2.0748  4.1226  0.0530
   96MOL0     H12917   3.637   5.717   1.043 -3.0266  1.7677 -2.4591
   96MOL0     H12918   3.776   5.865   1.211 -2.5992  1.4750 -0.9808
   96MOL0     H12919   3.881   5.900   1.078 -0.0440  1.0293 -1.0162
   96MOL0     H12920   4.026   5.511   1.084  0.4424 -0.4441 -0.8993
   96MOL0     H12921   4.268   5.490   1.117 -1.5822  0.0921 -1.1820
   96MOL0     H12922   4.603   5.346   1.079  0.8271 -0.3003  0.4087
   96MOL0     H12923   4.801   5.230   1.148  1.6718 -0.1582  1.2727
   96MOL0     H12924   4.926   5.127   1.365 -0.5175 -0.6416  0.7047
   96MOL0     H12925   5.006   5.150   1.223 -2.9681 -0.9864  1.9018
   96MOL0     H12926   5.151   5.234   1.486  0.8016  0.9503 -0.4172
   96MOL0     H12927   5.147   5.058   1.454 -2.7831 -3.0922 -3.0678
   96MOL0     H12928   5.248   5.126   1.229 -0.2203 -1.2147  0.0667
   96MOL0     H12929   5.278   5.286   1.307 -0.2053 -0.6366 -0.5995
   96MOL0     H12930   5.377   5.026   1.425  0.3778 -0.0882  0.7953
   96MOL0     H12931   5.416   5.192   1.475 -2.8997  2.4408 -0.7069
   96MOL0     H12932   5.495   5.216   1.227  3.7402  0.8633  0.5903
   96MOL0     H12933   5.479   5.046   1.206 -0.2608 -0.2812  1.1144
   96MOL0     H12934   5.652   5.165   1.427 -0.4469 -1.1887  0.2610
   96MOL0     H12935   5.651   5.003   1.386 -3.6593  0.5218  3.6627
   96MOL0     H12936   5.745   5.227   1.190 -0.0832 -0.5711  1.6030
   96MOL0     H12937   5.742   5.052   1.160  1.8749 -2.5000  1.7260
   96MOL0     H12938   5.951   5.169   1.237  0.5476 -0.0836 -0.2088
   96MOL0     H12939   5.877   5.175   1.407 -1.5564 -0.0625  0.0470
   96MOL0     H12940   4.871   5.528   1.442 -0.6161 -1.0476  1.1441
   96MOL0     H12941   4.692   5.655   1.370  1.2567  0.3232  2.9139
   96MOL0     H12942   4.263   5.887   1.287  2.5569 -0.1491 -1.2639
   96MOL0     H12943   4.034   5.905   1.274  1.9969  0.9362  0.9907
   96MOL0     H12944   1.864   6.175   0.893  0.9944  2.3047  0.1812
   96MOL0     H12945   1.643   6.130   0.989 -0.7311 -1.9803 -0.1754
   96MOL0     H12946   1.505   5.975   1.457 -0.3780  0.1350  1.2029
   96MOL0     H12947   1.330   5.878   1.593 -2.2723  0.0963  0.3849
   96MOL0     H12948   0.999   5.812   1.733  0.3921 -1.9410  0.5053
   96MOL0     H12949   1.169   5.824   1.720  0.1188 -0.8810 -0.2774
   96MOL0     H12950   1.097   5.607   1.672 -0.0512 -0.4700  0.1118
   96MOL0     H12951   1.178   5.659   1.523 -1.0965 -1.3442 -2.1781
   96MOL0     H12952   0.978   5.543   1.464 -2.7613  0.0796  0.5858
   96MOL0     H12953   0.983   5.711   1.392  1.5225 -0.8216 -0.4541
   96MOL0     H12954   0.845   5.638   1.661  0.6914  1.7721 -0.2647
   96MOL0     H12955   0.804   5.778   1.572 -2.9397 -0.7607  1.7265
   96MOL0     H12956   0.570   5.485   1.376 -1.4228 -0.2712  1.9088
   96MOL0     H12957   1.030   6.105   1.405  1.0436  2.7074  0.4458
   96MOL0     H12958   1.188   6.210   1.132  0.6401 -0.5218  0.6541
   96MOL0     H12959   1.081   6.282   1.264  0.6402  0.1251  3.3454
   96MOL0     H12960   1.248   6.330   1.236  0.5345  0.1295 -0.8114
   97MOL0     O12961   1.973   6.531   7.488  0.1127 -0.7450  0.9425
   97MOL0     C12962   1.966   6.590   7.598 -0.3754  0.6332 -0.1290
   97MOL0     O12963   1.871   6.565   7.688 -0.2128  0.4177 -0.1251
   97MOL0     C12964   1.765   6.486   7.651 -0.0194  0.0743  0.6565
   97MOL0     C12965   1.734   6.383   7.732 -0.2330 -1.1391 -0.3302
   97MOL0     C12966   1.615   6.320   7.710  0.8929  0.1476 -0.4337
   97MOL0     C12967   1.516   6.365   7.618  0.3356 -0.9295 -0.2898
   97MOL0     O12968   1.393   6.297   7.602 -0.0729  0.1390  0.3336
   97MOL0     C12969   1.344   6.200   7.703 -0.5261 -0.2654  1.0285
   97MOL0     C12970   1.208   6.138   7.664  0.3145 -0.5473  0.3281
   97MOL0     C12971   1.109   6.252   7.621 -0.0854 -0.1950  0.7373
   97MOL0     C12972   0.973   6.184   7.604 -1.1598 -0.1145 -0.1910
   97MOL0     C12973   0.867   6.292   7.573  0.1875 -0.0840  0.5713
   97MOL0     C12974   0.728   6.236   7.559 -0.3000 -0.4159 -0.1368
   97MOL0     C12975   0.624   6.341   7.522 -0.2416 -0.5111  0.4052
   97MOL0     C12976   0.633   6.372   7.370 -0.7176 -1.1783 -0.3760
   97MOL0     N12977   0.661   6.513   7.333  0.4744 -0.2797  0.1868
   97MOL0     C12978   0.788   6.551   7.289  0.7341  0.3107  0.1398
   97MOL0     C12979   0.767   6.666   7.221  0.6846 -0.2559 -0.7300
   97MOL0     C12980   0.863   6.717   7.114  1.1365 -0.6162  0.0187
   97MOL0     C12981   0.882   6.868   7.112  0.1977 -0.1764  0.1042
   97MOL0     C12982   0.953   6.919   6.986 -1.0718 -0.4544 -0.5424
   97MOL0     C12983   1.085   6.847   6.957 -0.3977  0.5166 -0.0162
   97MOL0     O12984   1.142   6.939   6.861 -0.8455  0.6500 -0.3121
   97MOL0     C12985   1.267   6.914   6.819 -0.3767 -0.1248 -0.8157
   97MOL0     C12986   1.334   7.024   6.782  0.9357 -0.4019 -1.2734
   97MOL0     C12987   1.464   7.022   6.740 -0.4360  0.5372 -0.4577
   97MOL0     C12988   1.539   6.901   6.731 -0.4324  0.8695  0.5220
   97MOL0     C12989   1.679   6.899   6.691 -0.8423 -0.0582  0.1597
   97MOL0     O12990   1.732   7.020   6.661 -0.0142  0.1899  0.3117
   97MOL0     C12991   1.870   7.040   6.627 -0.1366  0.4480  0.7163
   97MOL0     C12992   1.981   6.952   6.650  0.0419  0.7029 -0.6544
   97MOL0     C12993   2.112   6.980   6.615  0.1323  0.5354  0.0006
   97MOL0     C12994   2.136   7.104   6.547  0.3397  0.5548  0.0452
   97MOL0     O12995   2.260   7.138   6.496 -0.4826  0.0084 -0.6740
   97MOL0     C12996   2.357   7.114   6.591 -1.4729  0.0715 -0.1415
   97MOL0     C12997   2.495   7.201   6.565  0.4184  0.5089  0.4231
   97MOL0     C12998   2.550   7.242   6.705  0.0777  0.6837  0.9404
   97MOL0     C12999   2.693   7.282   6.698 -0.8085  0.8846 -0.0182
   97MOL0     C13000   2.726   7.401   6.614 -0.0843 -0.3033  0.2537
   97MOL0     C13001   2.879   7.422   6.621  0.2638 -0.0597  1.1945
   97MOL0     C13002   2.906   7.540   6.524 -0.2316  0.1190 -0.1974
   97MOL0     C13003   3.055   7.563   6.516  0.1605  0.3360 -0.2188
   97MOL0    Cl13004   3.112   7.621   6.673 -0.2186 -0.1242  0.0698
   97MOL0     C13005   2.025   7.183   6.509 -1.4412 -0.4471 -0.2850
   97MOL0     C13006   1.896   7.157   6.557  1.1039  0.1227  0.0768
   97MOL0     O13007   1.740   6.790   6.691 -0.0803 -0.3078 -0.3642
   97MOL0     C13008   1.467   6.786   6.775 -0.1903 -0.3577 -0.1034
   97MOL0     C13009   1.333   6.790   6.815 -0.0703  0.1518 -0.3721
   97MOL0     N13010   0.635   6.708   7.238 -0.0018  0.1647 -0.3735
   97MOL0     N13011   0.573   6.610   7.306 -0.6309  0.1508  0.7211
   97MOL0     C13012   1.543   6.468   7.530 -0.3836 -0.0247  0.3663
   97MOL0     C13013   1.675   6.526   7.546  1.6429 -0.9285 -0.0307
   97MOL0     C13014   2.086   6.663   7.646 -0.4722  0.1993 -1.5875
   97MOL0     C13015   2.104   6.670   7.786 -0.1595  0.5608  0.7994
   97MOL0     C13016   2.197   6.750   7.837 -0.3167 -0.4005  1.1412
   97MOL0     C13017   2.283   6.829   7.760  0.1508 -0.5587  0.2348
   97MOL0     O13018   2.386   6.903   7.821  0.3054  0.5850 -0.3122
   97MOL0     C13019   2.465   6.990   7.753  0.1428 -0.2091  0.4454
   97MOL0     C13020   2.571   7.056   7.846  0.2018 -1.0009  0.5259
   97MOL0     C13021   2.698   6.963   7.861  0.2040 -0.3611  0.0248
   97MOL0     C13022   2.811   7.040   7.929  0.7896  0.2898 -0.7674
   97MOL0     C13023   2.938   6.973   7.911  0.1642  0.2575  0.5402
   97MOL0     C13024   3.034   6.903   7.896  0.2081  0.2615 -0.6610
   97MOL0     C13025   2.266   6.828   7.622  0.4644 -0.7872  0.2076
   97MOL0     C13026   2.171   6.746   7.566  0.8056 -1.2918  0.2585
   97MOL0     C13027   2.165   6.758   7.408  0.1520  0.0267 -0.1950
   97MOL0     H13028   1.803   6.345   7.807 -0.5314 -2.6789 -0.8084
   97MOL0     H13029   1.592   6.229   7.765 -0.9063  0.5183 -0.5070
   97MOL0     H13030   1.416   6.119   7.693  0.3236  0.3575  1.9420
   97MOL0     H13031   1.339   6.237   7.805  2.4066 -2.3809  2.0558
   97MOL0     H13032   1.153   6.088   7.744 -0.3268 -3.8199 -1.9354
   97MOL0     H13033   1.225   6.068   7.582 -0.4544  0.5260 -0.7926
   97MOL0     H13034   1.134   6.294   7.523 -0.2034 -0.0884  0.7517
   97MOL0     H13035   1.102   6.345   7.678 -1.4367  2.3056 -3.0946
   97MOL0     H13036   0.974   6.114   7.520 -0.4931 -1.8287  1.1896
   97MOL0     H13037   0.950   6.136   7.699 -0.4835  2.8367  1.6235
   97MOL0     H13038   0.861   6.359   7.659 -0.3738  0.4630  0.1217
   97MOL0     H13039   0.895   6.349   7.484  0.4561  1.0506  1.3590
   97MOL0     H13040   0.731   6.150   7.492 -0.3110 -0.6207  0.1214
   97MOL0     H13041   0.699   6.194   7.656  1.5426 -0.3530  0.4903
   97MOL0     H13042   0.640   6.439   7.567 -0.6291  0.1246 -0.7749
   97MOL0     H13043   0.526   6.307   7.555 -0.3735 -0.4332  0.1031
   97MOL0     H13044   0.705   6.309   7.317  0.3915 -1.8291  1.7893
   97MOL0     H13045   0.542   6.348   7.315  0.0744  0.2776 -2.4262
   97MOL0     H13046   0.879   6.492   7.285 -0.4459 -1.5290 -1.6195
   97MOL0     H13047   0.957   6.673   7.148  1.0649 -0.0363  1.0059
   97MOL0     H13048   0.845   6.686   7.010  2.2199  0.3726 -0.4783
   97MOL0     H13049   0.786   6.917   7.128 -0.2014 -0.9941  0.2688
   97MOL0     H13050   0.949   6.889   7.196 -0.3300 -0.8653  0.7084
   97MOL0     H13051   0.969   7.024   7.008  1.0745 -0.8919  0.2141
   97MOL0     H13052   0.878   6.911   6.906 -1.0345  2.8480 -1.0155
   97MOL0     H13053   1.065   6.754   6.902 -1.0499 -0.2593  1.4618
   97MOL0     H13054   1.153   6.824   7.040 -0.7460  0.8250  0.3564
   97MOL0     H13055   1.280   7.117   6.794 -3.4025 -2.6812 -1.2629
   97MOL0     H13056   1.509   7.118   6.717 -0.9472  0.2975 -2.6177
   97MOL0     H13057   1.962   6.862   6.707  2.3528  1.5621  1.6875
   97MOL0     H13058   2.176   6.899   6.650 -1.0961  0.9738  3.7570
   97MOL0     H13059   2.322   7.165   6.681 -2.0720 -0.4105 -0.0946
   97MOL0     H13060   2.379   7.007   6.604  1.8530  0.7440  0.5158
   97MOL0     H13061   2.567   7.144   6.506 -1.0001 -0.2374 -0.6467
   97MOL0     H13062   2.461   7.285   6.504 -1.2038 -0.0008  0.5897
   97MOL0     H13063   2.495   7.320   6.758  2.4318  1.7661  1.9475
   97MOL0     H13064   2.527   7.163   6.776 -2.1725  0.5392  0.1328
   97MOL0     H13065   2.745   7.207   6.638  2.3896  3.5293 -0.8657
   97MOL0     H13066   2.740   7.283   6.797 -0.8681 -0.8586  0.0536
   97MOL0     H13067   2.665   7.488   6.637  1.1287  0.5598  0.3048
   97MOL0     H13068   2.704   7.389   6.508 -1.2861 -0.7222  0.5322
   97MOL0     H13069   2.915   7.441   6.723 -0.4734  1.0577  1.2540
   97MOL0     H13070   2.925   7.332   6.577  1.2705  1.6858 -1.6126
   97MOL0     H13071   2.852   7.627   6.564 -2.1058 -1.9885  2.2270
   97MOL0     H13072   2.874   7.529   6.420 -0.8091 -0.8574  0.0632
   97MOL0     H13073   3.104   7.467   6.496 -1.2167 -0.7015  1.1008
   97MOL0     H13074   3.082   7.637   6.441  3.6029  2.4369  2.7770
   97MOL0     H13075   2.062   7.261   6.444  1.1880 -0.4115  1.1100
   97MOL0     H13076   1.811   7.214   6.521 -0.3834 -1.5999  0.6510
   97MOL0     H13077   1.523   6.694   6.769 -0.9897 -0.9721  1.3976
   97MOL0     H13078   1.286   6.697   6.846 -2.3675  1.7121  1.1593
   97MOL0     H13079   1.476   6.501   7.451 -1.9708  0.3299  1.8127
   97MOL0     H13080   1.700   6.608   7.479  1.0211 -2.7583 -2.6871
   97MOL0     H13081   2.060   6.597   7.853  2.5482 -2.0219  0.0142
   97MOL0     H13082   2.207   6.769   7.944  0.8431 -1.3306  1.2124
   97MOL0     H13083   2.406   7.066   7.703 -1.7517 -2.6452 -1.2505
   97MOL0     H13084   2.517   6.943   7.669 -0.7646  1.0016 -0.8397
   97MOL0     H13085   2.528   7.076   7.945  1.6030 -2.7445  1.5439
   97MOL0     H13086   2.614   7.142   7.795  2.5846 -3.1756 -1.3641
   97MOL0     H13087   2.724   6.912   7.767  1.5691  0.9148 -0.3237
   97MOL0     H13088   2.673   6.886   7.935  0.0292 -0.6943 -0.3767
   97MOL0     H13089   2.820   7.141   7.889  2.4180  0.9320  1.0051
   97MOL0     H13090   2.783   7.046   8.035 -0.4285 -0.0675 -1.0575
   97MOL0     H13091   3.119   6.838   7.902 -0.7108 -1.0409 -1.4520
   97MOL0     H13092   2.324   6.895   7.559 -1.5211  1.6181  0.8252
   97MOL0     H13093   2.226   6.840   7.369 -2.3107  0.6404 -3.1057
   97MOL0     H13094   2.197   6.663   7.365  1.4523 -0.3095  1.4125
   97MOL0     H13095   2.063   6.770   7.370 -0.0612 -2.3620 -0.5546
   98MOL0     O13096  10.278   2.661   3.371 -0.1996  0.5666 -0.7028
   98MOL0     C13097  10.175   2.630   3.435  0.6811  0.5025  0.1331
   98MOL0     O13098  10.168   2.604   3.569  0.0310  0.1865 -0.2961
   98MOL0     C13099  10.283   2.611   3.644  0.2596 -0.3501 -0.0040
   98MOL0     C13100  10.393   2.524   3.631 -0.7026  0.5808 -0.3809
   98MOL0     C13101  10.503   2.533   3.714  0.1427  1.0100  0.6739
   98MOL0     C13102  10.505   2.629   3.812  0.5593 -0.8686 -0.5073
   98MOL0     O13103  10.611   2.631   3.894  0.1179 -0.2237 -0.5873
   98MOL0     C13104  10.681   2.510   3.910 -0.1972 -0.6434  0.1695
   98MOL0     C13105  10.774   2.510   4.037  0.0722  0.2575  0.5109
   98MOL0     C13106  10.899   2.591   4.003  0.0346 -0.1113  0.4460
   98MOL0     C13107  11.008   2.597   4.114  0.3365  0.4209  0.0363
   98MOL0     C13108  11.147   2.635   4.066 -0.7185 -0.3983 -0.6178
   98MOL0     C13109  11.240   2.659   4.190 -0.4740  0.2392  0.3299
   98MOL0     C13110  11.376   2.735   4.163 -0.6584 -0.6608 -0.3384
   98MOL0     C13111  11.475   2.641   4.091 -0.3581 -0.8116  0.0697
   98MOL0     N13112  11.617   2.682   4.123  0.0353  0.4980 -0.3106
   98MOL0     C13113  11.680   2.798   4.093  0.7561  0.8985 -0.1729
   98MOL0     C13114  11.799   2.781   4.157 -0.0953  0.3682  0.2036
   98MOL0     C13115  11.918   2.875   4.168 -0.7826  0.5080  0.4020
   98MOL0     C13116  11.929   2.958   4.291  0.6214 -0.5728 -0.6560
   98MOL0     C13117  12.046   3.059   4.266 -0.9068  0.1333  1.1549
   98MOL0     C13118  12.123   3.047   4.397  0.3010  0.6185  0.2183
   98MOL0     O13119  12.189   2.917   4.405 -0.1708 -0.0032 -0.3319
   98MOL0     C13120  12.292   2.904   4.493  0.3627  0.0473  0.0519
   98MOL0     C13121  12.390   2.804   4.473 -0.7572 -0.3146 -0.0583
   98MOL0     C13122  12.488   2.787   4.577  0.0272  0.2049  0.2097
   98MOL0     C13123  12.503   2.872   4.682 -0.2334  0.2010 -0.1773
   98MOL0     C13124  12.618   2.865   4.776 -0.9254 -0.5166  0.0706
   98MOL0     O13125  12.597   2.898   4.908  0.5053  0.4367 -0.0734
   98MOL0     C13126  12.691   2.893   5.010 -0.2582 -0.5057 -0.7629
   98MOL0     C13127  12.651   2.941   5.143 -0.7937  0.5730 -0.5769
   98MOL0     C13128  12.751   2.968   5.240 -0.1398  0.2470 -0.1048
   98MOL0     C13129  12.885   2.926   5.219 -0.2328 -0.1191 -0.3421
   98MOL0     O13130  12.991   2.945   5.301 -0.0857 -0.5145  0.0232
   98MOL0     C13131  12.973   2.890   5.433  0.3204 -0.8905 -0.2941
   98MOL0     C13132  13.002   2.733   5.438  0.5889 -0.3667  0.5056
   98MOL0     C13133  13.147   2.691   5.402 -0.1672  0.3120 -0.7830
   98MOL0     C13134  13.191   2.552   5.451 -0.4278 -0.0872 -0.5623
   98MOL0     C13135  13.322   2.506   5.383  0.9963 -0.1200 -0.8142
   98MOL0     C13136  13.461   2.570   5.419  0.4978  0.7763 -0.3910
   98MOL0     C13137  13.581   2.498   5.359 -0.7282 -0.5344 -0.2604
   98MOL0     C13138  13.595   2.352   5.398 -0.2059  0.2931  0.1520
   98MOL0    Cl13139  13.765   2.297   5.378  0.5473 -0.4448  0.0500
   98MOL0     C13140  12.919   2.878   5.094 -0.4501  0.1993  0.4287
   98MOL0     C13141  12.826   2.856   4.995 -0.2158  0.4348 -0.3999
   98MOL0     O13142  12.725   2.828   4.733 -0.3303 -0.2887 -0.3941
   98MOL0     C13143  12.403   2.965   4.703  0.4214 -0.1414 -0.5113
   98MOL0     C13144  12.300   2.985   4.609  0.0962  0.4287 -0.3650
   98MOL0     N13145  11.804   2.661   4.216  0.1533 -0.1796 -0.4076
   98MOL0     N13146  11.695   2.599   4.196 -0.4066 -0.1521  0.0564
   98MOL0     C13147  10.398   2.714   3.834 -0.4363 -0.8119 -0.3457
   98MOL0     C13148  10.282   2.701   3.751 -0.2943  0.3920  0.5778
   98MOL0     C13149  10.037   2.608   3.366 -0.4787  0.2703 -0.4341
   98MOL0     C13150   9.918   2.585   3.443 -0.2316  0.0633 -0.3850
   98MOL0     C13151   9.797   2.587   3.387  0.2731 -0.7119 -0.1691
   98MOL0     C13152   9.782   2.593   3.248  0.0285  0.3509  0.3252
   98MOL0     O13153   9.648   2.582   3.201  0.2617 -0.3948  1.1320
   98MOL0     C13154   9.633   2.603   3.056 -0.3173  1.1847  0.3572
   98MOL0     C13155   9.482   2.638   3.042 -0.1553  0.7642  0.2285
   98MOL0     C13156   9.445   2.697   2.908 -0.0364 -0.2456  0.2741
   98MOL0     C13157   9.298   2.736   2.895 -0.6703 -0.0793 -0.0681
   98MOL0     C13158   9.270   2.848   2.989 -1.0984  0.1678  0.1305
   98MOL0     C13159   9.249   2.950   3.052  0.4878  0.8858  0.6710
   98MOL0     C13160   9.894   2.611   3.173 -0.3882  0.3494  0.3146
   98MOL0     C13161  10.020   2.619   3.235  0.6185 -0.5060  0.1197
   98MOL0     C13162  10.131   2.645   3.132 -1.3780 -1.0888 -0.0200
   98MOL0     H13163  10.396   2.448   3.554  1.4356  0.1083  0.1061
   98MOL0     H13164  10.590   2.471   3.698 -0.5463  0.2479 -0.2717
   98MOL0     H13165  10.613   2.426   3.924 -0.5619 -0.2771  0.6348
   98MOL0     H13166  10.748   2.497   3.824 -0.6162 -1.4758 -0.0393
   98MOL0     H13167  10.799   2.411   4.075  0.0670  0.6605  1.5941
   98MOL0     H13168  10.727   2.562   4.121  0.5096  2.9627 -0.8126
   98MOL0     H13169  10.871   2.696   3.985 -0.6782 -0.7830 -2.9947
   98MOL0     H13170  10.943   2.557   3.909 -0.2981  0.1499  0.1942
   98MOL0     H13171  10.978   2.654   4.203 -0.3780 -0.2633  0.2508
   98MOL0     H13172  11.010   2.492   4.145 -0.1562  0.2711 -0.4382
   98MOL0     H13173  11.181   2.559   3.996  0.4520 -3.1170  2.6064
   98MOL0     H13174  11.133   2.729   4.011  2.4119  1.3872  1.2902
   98MOL0     H13175  11.196   2.729   4.261  1.3707  0.3649  1.4122
   98MOL0     H13176  11.251   2.565   4.246  3.7139  0.3971  0.0842
   98MOL0     H13177  11.438   2.763   4.248 -1.5124 -1.3950  0.5414
   98MOL0     H13178  11.353   2.818   4.095 -2.8709  0.1986  1.3534
   98MOL0     H13179  11.459   2.534   4.107 -0.1402 -0.5902  1.9385
   98MOL0     H13180  11.465   2.654   3.983 -1.9403  0.5268  0.3304
   98MOL0     H13181  11.650   2.884   4.034  0.3624  0.8023 -0.1164
   98MOL0     H13182  12.009   2.816   4.174 -0.5806  0.7039 -0.6049
   98MOL0     H13183  11.924   2.941   4.081  1.2684 -0.2642 -0.1033
   98MOL0     H13184  11.836   3.009   4.319  1.5023  0.7179  0.0348
   98MOL0     H13185  11.955   2.894   4.376 -0.0527  0.3595  0.2730
   98MOL0     H13186  12.010   3.161   4.244 -2.4435 -0.5442  0.3266
   98MOL0     H13187  12.119   3.024   4.192 -1.5829 -0.6155  0.8315
   98MOL0     H13188  12.052   3.055   4.480 -1.5166  0.5520 -1.2515
   98MOL0     H13189  12.204   3.119   4.407  0.0375  0.9451  0.0435
   98MOL0     H13190  12.391   2.736   4.388 -0.2601 -1.0252  0.5019
   98MOL0     H13191  12.564   2.710   4.571  0.0354  0.2211  0.1006
   98MOL0     H13192  12.550   2.967   5.175  0.2975  1.3869  2.5158
   98MOL0     H13193  12.719   3.019   5.330 -0.7302  1.8756 -1.1991
   98MOL0     H13194  13.042   2.946   5.497 -3.1525 -2.2883  5.4318
   98MOL0     H13195  12.875   2.915   5.474 -0.7058 -2.1349 -1.8437
   98MOL0     H13196  12.972   2.704   5.539  2.9247 -0.6950  1.1630
   98MOL0     H13197  12.939   2.678   5.367  0.1033 -1.6714  1.8930
   98MOL0     H13198  13.159   2.709   5.294  0.1038  2.2880 -0.4664
   98MOL0     H13199  13.213   2.764   5.449 -0.5673  0.0274  0.2330
   98MOL0     H13200  13.114   2.477   5.431 -0.3086 -0.7807  1.3822
   98MOL0     H13201  13.206   2.559   5.559  0.9579  0.7137 -0.7797
   98MOL0     H13202  13.313   2.511   5.275 -0.0367 -1.4327 -0.8107
   98MOL0     H13203  13.315   2.400   5.409 -1.0369  0.1363 -0.1292
   98MOL0     H13204  13.467   2.674   5.385 -0.3498  0.6857 -0.8508
   98MOL0     H13205  13.477   2.583   5.526 -0.5895 -0.0029 -0.1159
   98MOL0     H13206  13.677   2.539   5.394  0.5559 -1.4701 -2.4359
   98MOL0     H13207  13.570   2.510   5.250  0.0490 -0.6586 -0.3589
   98MOL0     H13208  13.564   2.333   5.501 -0.1475 -0.3315  0.0597
   98MOL0     H13209  13.527   2.293   5.336 -4.0157  2.0885  2.2358
   98MOL0     H13210  13.024   2.852   5.087 -1.1305 -2.8547  0.4348
   98MOL0     H13211  12.880   2.826   4.906  1.3594 -0.5726  0.8182
   98MOL0     H13212  12.407   3.029   4.791 -1.2737 -1.4237  0.5507
   98MOL0     H13213  12.226   3.051   4.653 -0.1048 -0.6400  0.9563
   98MOL0     H13214  10.395   2.772   3.926  1.6681  0.9481 -1.3122
   98MOL0     H13215  10.188   2.749   3.776 -1.3304 -1.5595  0.6660
   98MOL0     H13216   9.925   2.578   3.551  1.7293 -0.6873 -0.5283
   98MOL0     H13217   9.714   2.581   3.456 -0.2711  0.4099 -0.7079
   98MOL0     H13218   9.655   2.507   3.009  0.0875  0.0063  2.8018
   98MOL0     H13219   9.697   2.680   3.012 -3.6138  1.7173 -4.2008
   98MOL0     H13220   9.455   2.705   3.125  1.3759  2.4930 -0.5933
   98MOL0     H13221   9.422   2.547   3.052 -0.4152  1.0055  1.0035
   98MOL0     H13222   9.466   2.621   2.832  2.7835  1.0012 -0.3223
   98MOL0     H13223   9.506   2.781   2.873 -2.0361 -0.0139 -3.1433
   98MOL0     H13224   9.283   2.762   2.790 -0.8271 -3.3613 -0.9815
   98MOL0     H13225   9.232   2.652   2.917 -1.9829  0.9098 -0.0948
   98MOL0     H13226   9.233   3.040   3.109  0.2465 -0.0754  2.1507
   98MOL0     H13227   9.892   2.630   3.067 -1.1673 -0.6928  0.1227
   98MOL0     H13228  10.096   2.661   3.030  0.8521  4.0236 -0.3089
   98MOL0     H13229  10.186   2.735   3.162 -0.4065 -0.9803 -1.9785
   98MOL0     H13230  10.199   2.559   3.128  0.5533  0.1986  2.2159
   99MOL0     O13231   4.645   0.964   1.056 -0.1140 -0.1994 -0.0371
   99MOL0     C13232   4.537   0.924   1.020 -0.9826  0.2259 -0.0580
   99MOL0     O13233   4.492   0.923   0.895 -0.5417  0.5572 -0.4360
   99MOL0     C13234   4.569   0.894   0.782  0.3644  0.2546 -0.0151
   99MOL0     C13235   4.530   0.944   0.656  0.3490 -0.1457 -0.1651
   99MOL0     C13236   4.608   0.925   0.545  0.4928 -0.1020 -0.5113
   99MOL0     C13237   4.708   0.842   0.545 -0.1919  0.8644 -0.9085
   99MOL0     O13238   4.757   0.796   0.429  0.3137 -0.2649 -0.3698
   99MOL0     C13239   4.850   0.689   0.421 -0.6951  0.5170  0.2550
   99MOL0     C13240   4.901   0.701   0.270  0.6769  0.3185 -0.2000
   99MOL0     C13241   5.015   0.598   0.226 -0.1122 -0.0777 -0.4474
   99MOL0     C13242   5.102   0.563   0.342 -0.2419  0.0218 -0.2285
   99MOL0     C13243   5.223   0.476   0.305 -0.0588 -0.3652 -0.6621
   99MOL0     C13244   5.312   0.533   0.195  0.1098 -0.2384  0.6043
   99MOL0     C13245   5.447   0.462   0.188  0.3010  0.3878 -0.3986
   99MOL0     C13246   5.528   0.522   0.074 -0.1926 -0.3873  0.3066
   99MOL0     N13247   5.650   0.448   0.069 -0.2596 -0.4350  0.2003
   99MOL0     C13248   5.756   0.439   0.159 -0.8550  0.7240  0.4404
   99MOL0     C13249   5.850   0.358   0.102  0.4748  0.0045  0.3355
   99MOL0     C13250   5.987   0.308   0.159  0.2983  0.4145 -0.4684
   99MOL0     C13251   6.100   0.362   0.077 -1.1119 -0.4072  0.3597
   99MOL0     C13252   6.235   0.350   0.154  0.8069  0.1153  0.7302
   99MOL0     C13253   6.297   0.216   0.135  0.9428 -0.2096 -0.2528
   99MOL0     O13254   6.341   0.193   0.002  0.7311 -0.0571 -0.4754
   99MOL0     C13255   6.451   0.254  -0.053  0.3174 -0.2128  0.1419
   99MOL0     C13256   6.521   0.347   0.021  0.2119 -0.5583 -1.0685
   99MOL0     C13257   6.636   0.400  -0.034 -0.3937  0.3006  0.1461
   99MOL0     C13258   6.669   0.371  -0.166  0.0326 -0.7097  0.4402
   99MOL0     C13259   6.781   0.432  -0.236  0.1158 -0.3099  0.8002
   99MOL0     O13260   6.813   0.401  -0.366  0.1681  0.8045 -0.1449
   99MOL0     C13261   6.917   0.461  -0.430  0.0581 -0.2750  0.3839
   99MOL0     C13262   6.911   0.528  -0.554 -0.4885  0.1900 -0.3304
   99MOL0     C13263   7.023   0.606  -0.595  0.5594 -0.0850 -0.0394
   99MOL0     C13264   7.150   0.599  -0.527  0.8768  0.2387 -0.1162
   99MOL0     O13265   7.267   0.674  -0.558  1.1713 -0.4552  0.2002
   99MOL0     C13266   7.269   0.707  -0.696  0.2664 -0.1413 -0.4679
   99MOL0     C13267   7.406   0.753  -0.740  0.8311 -0.0235  0.3252
   99MOL0     C13268   7.455   0.877  -0.676  0.5208  0.4325 -0.2707
   99MOL0     C13269   7.607   0.880  -0.688 -0.4102  0.1240  0.0421
   99MOL0     C13270   7.650   1.017  -0.638  0.3215  0.0550  0.6288
   99MOL0     C13271   7.791   1.054  -0.654 -0.0150 -0.2186  0.4564
   99MOL0     C13272   7.875   1.004  -0.536  0.7230  0.5051 -0.5312
   99MOL0     C13273   8.005   1.083  -0.520  0.0526  0.3548 -0.3385
   99MOL0    Cl13274   8.096   1.065  -0.673 -0.0919 -0.2970  0.1097
   99MOL0     C13275   7.145   0.522  -0.416  0.1727 -0.5445  0.2090
   99MOL0     C13276   7.036   0.456  -0.366  1.0114 -0.7971 -0.3116
   99MOL0     O13277   6.846   0.516  -0.166 -0.3088  0.3054 -0.3120
   99MOL0     C13278   6.593   0.285  -0.236  0.5418 -0.0642  0.8223
   99MOL0     C13279   6.483   0.220  -0.182  0.2043 -0.4661 -0.9381
   99MOL0     N13280   5.789   0.309  -0.017 -0.1161 -0.2015  1.1824
   99MOL0     N13281   5.677   0.369  -0.044 -0.1363  0.2484 -0.4708
   99MOL0     C13282   4.752   0.791   0.664 -0.4419  0.2114  0.4285
   99MOL0     C13283   4.695   0.833   0.782 -0.0476 -0.1775  0.6848
   99MOL0     C13284   4.444   0.866   1.123  0.5449  0.7728 -0.6601
   99MOL0     C13285   4.485   0.750   1.191  0.0080 -0.1798 -0.6957
   99MOL0     C13286   4.399   0.689   1.281 -0.0572  0.5710  0.2603
   99MOL0     C13287   4.270   0.743   1.307 -0.3220  0.1259 -0.3245
   99MOL0     O13288   4.192   0.671   1.394 -0.3602  0.8030  0.0059
   99MOL0     C13289   4.067   0.734   1.446 -0.9282  0.0477  0.9355
   99MOL0     C13290   3.958   0.661   1.364 -0.3508 -0.2185  0.7369
   99MOL0     C13291   3.818   0.723   1.374 -0.5229 -0.2740  0.0329
   99MOL0     C13292   3.721   0.649   1.280 -0.3994 -0.0213 -0.8418
   99MOL0     C13293   3.677   0.537   1.357 -0.4068  0.5187 -0.3449
   99MOL0     C13294   3.639   0.451   1.427  0.3222  0.2927 -0.4414
   99MOL0     C13295   4.228   0.851   1.229 -0.1217  0.2400 -0.1150
   99MOL0     C13296   4.315   0.917   1.145 -0.2570 -0.4859 -0.5116
   99MOL0     C13297   4.272   1.054   1.088 -1.0248 -1.0099 -0.6070
   99MOL0     H13298   4.435   0.995   0.645  0.1796 -0.6732 -1.1752
   99MOL0     H13299   4.575   0.962   0.448  4.2065  0.9505 -1.5083
   99MOL0     H13300   4.939   0.705   0.482  0.4866 -0.5265 -1.1272
   99MOL0     H13301   4.800   0.593   0.433 -6.1088  2.9302 -0.1997
   99MOL0     H13302   4.945   0.800   0.254  0.8778  0.4327  1.0099
   99MOL0     H13303   4.816   0.690   0.202  2.4007  0.6196 -2.5276
   99MOL0     H13304   5.064   0.643   0.139 -0.1251 -1.3681 -1.1564
   99MOL0     H13305   4.967   0.507   0.187 -0.9640  0.4618 -0.6784
   99MOL0     H13306   5.126   0.656   0.395 -0.9480  0.1868 -0.1886
   99MOL0     H13307   5.035   0.505   0.407  0.3787 -1.6063 -0.9829
   99MOL0     H13308   5.276   0.458   0.398  0.6908  2.1975 -0.5095
   99MOL0     H13309   5.191   0.376   0.278 -3.6214  0.2552  0.7536
   99MOL0     H13310   5.256   0.537   0.101  0.6562  3.7119  0.2471
   99MOL0     H13311   5.328   0.639   0.220 -2.0957  0.0011  1.1723
   99MOL0     H13312   5.424   0.356   0.171  0.1313  0.6202 -1.7644
   99MOL0     H13313   5.498   0.472   0.284  2.6363 -2.7200 -1.1535
   99MOL0     H13314   5.469   0.504  -0.017 -0.5685 -0.4522  0.5622
   99MOL0     H13315   5.559   0.624   0.099  2.1792 -1.0769  0.4215
   99MOL0     H13316   5.774   0.486   0.255  0.1534  0.4130  0.4213
   99MOL0     H13317   6.007   0.349   0.259  2.2348  3.5848 -2.0070
   99MOL0     H13318   5.991   0.199   0.169 -1.9571 -0.0503 -3.3327
   99MOL0     H13319   6.123   0.324  -0.023 -0.1566 -2.5366  1.3021
   99MOL0     H13320   6.090   0.471   0.078  1.4273 -0.1037 -0.6602
   99MOL0     H13321   6.223   0.368   0.261 -3.6439 -3.0661  1.0760
   99MOL0     H13322   6.304   0.426   0.116  0.0921  0.0122 -0.8345
   99MOL0     H13323   6.225   0.136   0.153 -1.6284  2.0756  0.3847
   99MOL0     H13324   6.374   0.196   0.210  3.2559  0.1422 -2.4183
   99MOL0     H13325   6.512   0.357   0.129  0.9841  0.2627 -1.0647
   99MOL0     H13326   6.695   0.465   0.029 -0.3348 -1.3479  1.8527
   99MOL0     H13327   6.820   0.526  -0.614 -0.5078 -1.2310 -0.2963
   99MOL0     H13328   7.010   0.680  -0.673  1.7207  1.0582  0.8095
   99MOL0     H13329   7.242   0.620  -0.756  0.3326  0.5682 -1.5497
   99MOL0     H13330   7.190   0.782  -0.710 -0.3915 -0.8275 -0.4859
   99MOL0     H13331   7.479   0.681  -0.701 -0.2929 -1.1697  0.3788
   99MOL0     H13332   7.409   0.761  -0.849  0.8768 -0.6780  0.2741
   99MOL0     H13333   7.403   0.963  -0.720 -3.3505 -0.6273  1.7890
   99MOL0     H13334   7.432   0.878  -0.569 -0.0259 -0.3412 -0.3701
   99MOL0     H13335   7.638   0.862  -0.791  2.4418 -2.6072  1.1907
   99MOL0     H13336   7.653   0.799  -0.629 -2.2050 -0.5823  0.5250
   99MOL0     H13337   7.615   1.037  -0.537  1.9107 -0.0121  1.2154
   99MOL0     H13338   7.612   1.089  -0.712  1.0970 -0.6243 -0.4701
   99MOL0     H13339   7.823   1.014  -0.750 -0.7524  2.2446 -0.9085
   99MOL0     H13340   7.807   1.162  -0.658 -0.1645 -0.1334  1.7982
   99MOL0     H13341   7.907   0.900  -0.543  1.4616  0.6865 -0.0189
   99MOL0     H13342   7.821   1.027  -0.444  1.5559 -2.1531  0.7010
   99MOL0     H13343   7.973   1.184  -0.492  0.4898 -0.1366  2.1820
   99MOL0     H13344   8.060   1.035  -0.439 -1.1931 -0.0263  0.3005
   99MOL0     H13345   7.235   0.514  -0.356 -2.2519  1.3060  4.5868
   99MOL0     H13346   7.042   0.386  -0.283  4.6143  0.8374  1.0273
   99MOL0     H13347   6.615   0.245  -0.334  0.6041  1.3573  0.2245
   99MOL0     H13348   6.441   0.143  -0.247 -0.1277  1.5209 -3.2374
   99MOL0     H13349   4.845   0.735   0.674 -0.6603 -0.4868 -1.1466
   99MOL0     H13350   4.734   0.810   0.881  1.4719 -0.1283  0.1294
   99MOL0     H13351   4.583   0.709   1.170 -1.0023 -2.5455 -1.1919
   99MOL0     H13352   4.420   0.591   1.321  0.7887  0.3024 -0.7955
   99MOL0     H13353   4.076   0.842   1.428 -1.7540 -0.2445 -1.5412
   99MOL0     H13354   4.055   0.709   1.552 -3.1404 -1.4741  0.3904
   99MOL0     H13355   3.951   0.558   1.398 -2.1593 -0.2110  0.4919
   99MOL0     H13356   3.996   0.642   1.263  0.3912 -0.9920  1.1511
   99MOL0     H13357   3.825   0.826   1.338 -1.5889 -0.4331 -0.6624
   99MOL0     H13358   3.783   0.717   1.478 -1.3059  0.0204 -0.2071
   99MOL0     H13359   3.630   0.709   1.266 -2.6740 -2.5893  1.5156
   99MOL0     H13360   3.768   0.619   1.186  2.0529  1.7183 -0.2697
   99MOL0     H13361   3.602   0.367   1.482  2.3397 -1.2919 -1.3762
   99MOL0     H13362   4.128   0.892   1.231 -0.1391  0.1864  0.1486
   99MOL0     H13363   4.200   1.040   1.007 -0.0665  0.9922 -1.8715
   99MOL0     H13364   4.223   1.126   1.154  0.2166  0.7694 -1.5537
   99MOL0     H13365   4.360   1.110   1.056 -1.4885  0.2009  0.1442
  100MOL0     O13366   4.960   7.760   6.602 -0.5918  0.3344 -0.1316
  100MOL0     C13367   4.877   7.855   6.604 -0.6325  0.2110 -0.1665
  100MOL0     O13368   4.895   7.972   6.564  0.2322 -0.1442  0.7988
  100MOL0     C13369   5.020   8.017   6.519  0.0637  0.3197 -0.4193
  100MOL0     C13370   5.123   8.039   6.610 -0.9412  0.3952 -0.2597
  100MOL0     C13371   5.255   8.063   6.571 -0.7838 -0.2758 -0.4312
  100MOL0     C13372   5.284   8.093   6.438  0.2441 -1.0040 -0.3956
  100MOL0     O13373   5.412   8.132   6.387 -0.1578  0.0952  1.0952
  100MOL0     C13374   5.518   8.150   6.482  0.8426  0.1192 -0.1817
  100MOL0     C13375   5.660   8.165   6.426  0.3471  0.2066  0.5611
  100MOL0     C13376   5.769   8.200   6.522  0.2817  0.3372  0.5118
  100MOL0     C13377   5.882   8.252   6.437  0.5433  0.7456 -0.0078
  100MOL0     C13378   6.020   8.282   6.511 -0.6762  0.2278 -0.5592
  100MOL0     C13379   6.089   8.158   6.573 -1.0797  0.1727 -0.0309
  100MOL0     C13380   6.142   8.058   6.469 -0.4056  0.0868  0.5026
  100MOL0     C13381   6.234   7.951   6.517  0.1380 -0.4570  0.8378
  100MOL0     N13382   6.370   7.998   6.547 -0.7380  0.0382 -0.6287
  100MOL0     C13383   6.477   7.964   6.474  0.4978  0.1397  0.1847
  100MOL0     C13384   6.581   8.028   6.524  0.0798 -0.5823  0.3441
  100MOL0     C13385   6.702   8.041   6.445 -0.4339  0.1339  1.0189
  100MOL0     C13386   6.830   8.041   6.521 -1.1985 -0.2362  0.0375
  100MOL0     C13387   6.959   8.020   6.439  0.2960 -0.8263 -0.0698
  100MOL0     C13388   7.085   8.042   6.524  0.0117  0.6964  0.5688
  100MOL0     O13389   7.099   8.185   6.532 -0.0488 -0.2196  0.4358
  100MOL0     C13390   7.220   8.237   6.504 -0.2975 -0.1797 -0.5796
  100MOL0     C13391   7.258   8.343   6.588  0.3199  0.0655  0.1691
  100MOL0     C13392   7.384   8.411   6.569  0.2796  0.2929  0.6743
  100MOL0     C13393   7.477   8.371   6.468 -0.3331 -0.5455 -0.1434
  100MOL0     C13394   7.611   8.434   6.447  0.3547  0.3953 -0.6281
  100MOL0     O13395   7.662   8.517   6.539  0.3813 -0.1144  0.2251
  100MOL0     C13396   7.797   8.562   6.538 -0.1850  0.3980  0.3121
  100MOL0     C13397   7.886   8.570   6.424  0.1874  0.3055 -0.4293
  100MOL0     C13398   8.007   8.630   6.430  0.4803  0.0160  0.4304
  100MOL0     C13399   8.057   8.670   6.554 -0.0560 -0.2000 -0.3523
  100MOL0     O13400   8.184   8.714   6.565 -0.4482 -0.4670 -1.1387
  100MOL0     C13401   8.279   8.684   6.468 -1.1161 -0.4866 -0.7232
  100MOL0     C13402   8.332   8.794   6.384 -0.0746 -0.1240 -0.5280
  100MOL0     C13403   8.409   8.897   6.466 -0.0050  0.2173  0.1047
  100MOL0     C13404   8.488   8.998   6.376  0.4402  0.1756  0.2740
  100MOL0     C13405   8.570   9.105   6.453  0.2181  0.0481 -0.0834
  100MOL0     C13406   8.703   9.061   6.515  0.7346  0.6975  0.1603
  100MOL0     C13407   8.775   9.177   6.581  0.5900 -0.1238 -0.0225
  100MOL0     C13408   8.889   9.125   6.664 -0.9188  0.1139  0.5554
  100MOL0    Cl13409   8.932   9.261   6.767 -0.1379  0.6367  0.4051
  100MOL0     C13410   7.980   8.655   6.665 -0.0904  0.6814  0.3934
  100MOL0     C13411   7.850   8.604   6.656  0.0203 -0.0595  0.8831
  100MOL0     O13412   7.659   8.411   6.340 -0.4339  0.0579 -0.1606
  100MOL0     C13413   7.431   8.264   6.393 -0.8930  0.4671 -0.6097
  100MOL0     C13414   7.309   8.196   6.405  0.3417 -0.0789 -0.0231
  100MOL0     N13415   6.532   8.114   6.626 -0.8597  0.8531  0.4473
  100MOL0     N13416   6.411   8.078   6.648  1.0913 -0.4748 -0.1094
  100MOL0     C13417   5.177   8.089   6.354  0.2024  0.5646  0.0010
  100MOL0     C13418   5.043   8.033   6.387 -1.0663  0.2255  0.1078
  100MOL0     C13419   4.739   7.823   6.640  0.9677 -0.5475 -0.8040
  100MOL0     C13420   4.630   7.849   6.552 -0.1149  0.0241 -0.9643
  100MOL0     C13421   4.499   7.827   6.599  0.2436  0.2171  0.2910
  100MOL0     C13422   4.470   7.794   6.737  0.5231 -0.0877  1.1847
  100MOL0     O13423   4.343   7.773   6.783 -0.3975  0.3195 -0.6421
  100MOL0     C13424   4.229   7.770   6.696  0.3524  0.2978  0.4407
  100MOL0     C13425   4.098   7.720   6.763 -0.0453  0.2392 -0.1639
  100MOL0     C13426   4.078   7.568   6.764 -1.2878  0.0207  0.8860
  100MOL0     C13427   3.935   7.507   6.755 -0.4502  0.4110 -0.1432
  100MOL0     C13428   3.862   7.505   6.885 -0.1201  0.1699 -0.6817
  100MOL0     C13429   3.795   7.486   6.984  0.5324 -0.3502 -0.5025
  100MOL0     C13430   4.580   7.768   6.811 -0.2202  0.3705 -0.0978
  100MOL0     C13431   4.714   7.795   6.775  0.5931  0.6467  0.3383
  100MOL0     C13432   4.823   7.785   6.878 -1.2501 -0.3274  0.3648
  100MOL0     H13433   5.110   8.006   6.712  3.4403 -1.8547 -0.1929
  100MOL0     H13434   5.331   8.053   6.648 -1.3405 -1.0740  0.0308
  100MOL0     H13435   5.492   8.237   6.543  0.6806 -0.8079  1.1016
  100MOL0     H13436   5.540   8.070   6.553  0.2645  1.7168  1.8994
  100MOL0     H13437   5.650   8.249   6.357 -1.0120  2.6373  3.5135
  100MOL0     H13438   5.693   8.071   6.381  2.2011  1.3839 -0.6941
  100MOL0     H13439   5.796   8.118   6.589 -1.2417  0.4447  1.2970
  100MOL0     H13440   5.741   8.281   6.589 -0.9274 -0.4422  0.9847
  100MOL0     H13441   5.907   8.175   6.363  2.3504  0.7946  0.4866
  100MOL0     H13442   5.859   8.340   6.376 -2.6560 -0.3608 -0.5759
  100MOL0     H13443   6.097   8.319   6.443  0.4488  1.6331  1.3685
  100MOL0     H13444   5.994   8.353   6.590 -0.9601 -0.5380  0.0512
  100MOL0     H13445   6.182   8.196   6.614  0.0262 -1.1510 -1.2159
  100MOL0     H13446   6.032   8.104   6.649 -0.9404 -1.4295 -1.0243
  100MOL0     H13447   6.197   8.123   6.400 -1.1932 -0.7117 -0.9452
  100MOL0     H13448   6.063   8.017   6.405 -0.3318  1.9932 -0.9003
  100MOL0     H13449   6.182   7.915   6.607 -1.9651 -1.6894 -0.7746
  100MOL0     H13450   6.230   7.862   6.455 -2.1029 -0.2221  0.5551
  100MOL0     H13451   6.476   7.895   6.391 -1.7361 -1.2813  1.3225
  100MOL0     H13452   6.696   7.958   6.375 -0.8990  0.2259  0.9506
  100MOL0     H13453   6.702   8.133   6.386  2.1234  1.4541  2.8489
  100MOL0     H13454   6.840   8.131   6.583  0.5426 -0.1086 -0.3874
  100MOL0     H13455   6.820   7.965   6.600 -0.1327  0.2565  0.6676
  100MOL0     H13456   6.974   8.081   6.350 -0.4982 -1.5891 -0.7466
  100MOL0     H13457   6.954   7.916   6.406  1.0760 -1.1326  0.7324
  100MOL0     H13458   7.175   7.996   6.482 -1.5233 -1.6598 -0.3197
  100MOL0     H13459   7.066   8.005   6.624  1.0901  2.4298  1.4709
  100MOL0     H13460   7.204   8.392   6.668 -0.6651  0.9372 -0.9808
  100MOL0     H13461   7.404   8.495   6.635 -2.4037 -1.7493  4.4729
  100MOL0     H13462   7.848   8.557   6.323 -0.4019 -0.1000 -0.1615
  100MOL0     H13463   8.060   8.642   6.337 -2.0291  1.6981 -0.8966
  100MOL0     H13464   8.368   8.654   6.525  1.1244  0.1026 -3.6737
  100MOL0     H13465   8.238   8.602   6.410 -1.7941 -1.2245  0.7351
  100MOL0     H13466   8.388   8.746   6.304 -1.2889  1.2013 -2.2630
  100MOL0     H13467   8.245   8.843   6.338 -1.0161 -0.7292  0.5411
  100MOL0     H13468   8.338   8.944   6.534 -1.1956 -0.3156 -0.7445
  100MOL0     H13469   8.490   8.852   6.525 -0.6652  0.2622  1.0610
  100MOL0     H13470   8.419   9.045   6.306  0.6690 -0.4105 -0.3493
  100MOL0     H13471   8.562   8.935   6.326  1.3290  0.3110  1.3794
  100MOL0     H13472   8.506   9.139   6.535  0.8994  0.9693  0.0841
  100MOL0     H13473   8.593   9.191   6.388 -4.5445  2.9302  1.5371
  100MOL0     H13474   8.671   8.991   6.592  0.0930  1.4383  0.5859
  100MOL0     H13475   8.779   9.025   6.445  2.2233  3.1288  0.4044
  100MOL0     H13476   8.715   9.236   6.651  1.7136  0.9502  0.0574
  100MOL0     H13477   8.807   9.246   6.502  1.0468  1.2257  1.3018
  100MOL0     H13478   8.855   9.043   6.728 -0.7577 -1.4241 -1.2284
  100MOL0     H13479   8.976   9.095   6.605  0.0598  0.9358  1.5384
  100MOL0     H13480   8.027   8.691   6.757  0.1385  3.5994 -0.7534
  100MOL0     H13481   7.786   8.604   6.744 -2.2548  0.8130 -0.6557
  100MOL0     H13482   7.491   8.220   6.313 -0.8223 -0.9844  0.1959
  100MOL0     H13483   7.276   8.131   6.325 -3.3839  1.8382 -0.2631
  100MOL0     H13484   5.180   8.141   6.259  1.2208 -1.7749 -1.3361
  100MOL0     H13485   4.968   8.015   6.311  1.2794 -0.4819 -2.1782
  100MOL0     H13486   4.649   7.881   6.450  2.3990 -1.2599 -0.9843
  100MOL0     H13487   4.418   7.837   6.528  2.6248  1.6612 -2.4335
  100MOL0     H13488   4.257   7.715   6.606  0.0411 -0.3244  0.7165
  100MOL0     H13489   4.206   7.871   6.661 -0.4537 -0.0812 -0.1477
  100MOL0     H13490   4.005   7.755   6.717 -0.0599  0.0750 -0.2574
  100MOL0     H13491   4.101   7.759   6.866 -3.2727  0.6733 -0.1476
  100MOL0     H13492   4.126   7.521   6.850  2.3724  1.8518  0.0675
  100MOL0     H13493   4.130   7.535   6.673  1.6806 -1.1681  2.8520
  100MOL0     H13494   3.880   7.565   6.681  0.7566  0.7301 -0.8057
  100MOL0     H13495   3.938   7.402   6.725 -0.1138 -0.0297  1.3202
  100MOL0     H13496   3.733   7.466   7.069  0.8550  4.6751  1.2248
  100MOL0     H13497   4.566   7.729   6.911 -2.6410 -1.2462 -0.9686
  100MOL0     H13498   4.869   7.687   6.861 -1.3722 -0.1355 -1.3174
  100MOL0     H13499   4.891   7.866   6.852 -0.0772 -1.8766 -1.7030
  100MOL0     H13500   4.787   7.800   6.980 -0.2710 -1.0527  0.8272
  101MOL0     O13501   6.441   4.722   9.419  0.6640 -0.1542  0.1430
  101MOL0     C13502   6.478   4.625   9.481  0.6118  0.7507 -0.2016
  101MOL0     O13503   6.586   4.554   9.440 -0.3823 -0.3751 -0.0333
  101MOL0     C13504   6.695   4.607   9.368 -0.0955  0.6396  0.4415
  101MOL0     C13505   6.803   4.524   9.327  0.4213  0.1582  0.5957
  101MOL0     C13506   6.920   4.566   9.260  0.0483 -0.0305  0.8525
  101MOL0     C13507   6.939   4.697   9.236 -0.6683  0.3686 -0.6897
  101MOL0     O13508   7.042   4.740   9.154  0.3715  0.0379 -0.0729
  101MOL0     C13509   7.166   4.746   9.219  0.4373 -0.1536  0.4704
  101MOL0     C13510   7.276   4.770   9.126 -0.9212 -0.0811 -0.1075
  101MOL0     C13511   7.398   4.702   9.193  0.0193 -0.1654  0.2581
  101MOL0     C13512   7.537   4.776   9.148  0.8574 -0.3197 -0.5737
  101MOL0     C13513   7.656   4.681   9.154 -0.1669 -0.2974  0.3567
  101MOL0     C13514   7.798   4.750   9.134 -0.0292 -0.1269  0.2176
  101MOL0     C13515   7.881   4.675   9.026  1.2035 -0.9563 -0.2132
  101MOL0     C13516   8.006   4.758   8.979 -0.2340  0.0932  0.4393
  101MOL0     N13517   8.102   4.677   8.903  0.1000  0.2575  0.2295
  101MOL0     C13518   8.190   4.586   8.950  0.7082 -0.4795  0.1767
  101MOL0     C13519   8.245   4.530   8.839  0.1535  0.7657  0.2241
  101MOL0     C13520   8.338   4.418   8.832 -0.3062 -0.9756  0.9964
  101MOL0     C13521   8.309   4.302   8.925  0.1558 -1.0938 -0.0161
  101MOL0     C13522   8.165   4.259   8.922  0.4637 -0.3769 -0.0621
  101MOL0     C13523   8.125   4.221   8.786  0.4049 -0.5869 -1.2215
  101MOL0     O13524   8.013   4.144   8.770  0.2249  0.2663 -0.6552
  101MOL0     C13525   7.890   4.210   8.776 -0.2695  0.2094  0.3946
  101MOL0     C13526   7.869   4.342   8.788 -0.1366  0.7317 -0.3370
  101MOL0     C13527   7.741   4.394   8.812  1.1293  0.3325 -0.0222
  101MOL0     C13528   7.633   4.310   8.811  0.3193  1.1654  0.4666
  101MOL0     C13529   7.491   4.369   8.833 -0.8770  0.6531 -0.5776
  101MOL0     O13530   7.390   4.290   8.795  0.3132 -0.4043  0.2988
  101MOL0     C13531   7.263   4.316   8.840  0.1287 -0.2203  0.2850
  101MOL0     C13532   7.194   4.197   8.859  0.8056 -0.6253 -0.4515
  101MOL0     C13533   7.065   4.196   8.904  0.0482 -0.5711  0.0654
  101MOL0     C13534   7.001   4.325   8.925  0.5487  0.2837  0.4593
  101MOL0     O13535   6.878   4.334   8.978  0.6071 -0.3906 -0.3619
  101MOL0     C13536   6.785   4.427   8.922 -0.1712 -0.5810  0.4635
  101MOL0     C13537   6.643   4.373   8.935  0.2790 -0.5463  0.7339
  101MOL0     C13538   6.604   4.350   9.088 -0.7881 -0.5266  0.6539
  101MOL0     C13539   6.475   4.266   9.102  1.2635 -0.3821  0.2016
  101MOL0     C13540   6.402   4.295   9.236  0.1316 -0.5239 -0.7386
  101MOL0     C13541   6.301   4.184   9.247  0.2577  0.1545 -0.0354
  101MOL0     C13542   6.213   4.199   9.376 -0.2225  0.7518 -0.2661
  101MOL0     C13543   6.119   4.317   9.379 -0.0853 -0.0082  0.5129
  101MOL0    Cl13544   6.045   4.344   9.542  0.3092 -0.0586  0.5965
  101MOL0     C13545   7.076   4.444   8.910 -0.0471 -0.8470  0.0405
  101MOL0     C13546   7.207   4.436   8.871 -0.3300  0.3418 -0.0172
  101MOL0     O13547   7.482   4.468   8.910 -0.3103  0.3353  0.0354
  101MOL0     C13548   7.655   4.171   8.789  0.3360 -0.2652  0.1371
  101MOL0     C13549   7.784   4.123   8.774  0.8088 -0.9408 -0.1569
  101MOL0     N13550   8.193   4.590   8.733  0.1890  0.7695  0.1216
  101MOL0     N13551   8.099   4.672   8.766 -0.9292  0.6553 -0.3769
  101MOL0     C13552   6.842   4.783   9.280  0.2262 -0.4735 -0.0273
  101MOL0     C13553   6.713   4.747   9.336  0.2409  0.4795 -0.0637
  101MOL0     C13554   6.398   4.571   9.605  0.0386  0.2517  0.4334
  101MOL0     C13555   6.453   4.470   9.680 -0.0737 -0.3485  0.3471
  101MOL0     C13556   6.383   4.406   9.784  0.1273 -0.2739  0.0853
  101MOL0     C13557   6.262   4.456   9.833 -0.2989 -1.0120  0.4570
  101MOL0     O13558   6.209   4.393   9.944  0.2641  0.1199  0.4395
  101MOL0     C13559   6.102   4.466  10.010 -0.1318 -0.4744 -0.1193
  101MOL0     C13560   5.957   4.426   9.957 -0.5127  0.0399 -0.7565
  101MOL0     C13561   5.865   4.421  10.083 -0.7005 -0.2461 -0.4029
  101MOL0     C13562   5.716   4.409  10.053  0.3392 -0.9094  0.3777
  101MOL0     C13563   5.656   4.530   9.996 -0.5006 -0.2560 -0.6013
  101MOL0     C13564   5.634   4.635   9.937 -0.3662  0.2224 -1.3495
  101MOL0     C13565   6.209   4.572   9.768  0.2041 -0.1453  0.5202
  101MOL0     C13566   6.270   4.625   9.654  0.3837 -0.1532  0.1427
  101MOL0     C13567   6.209   4.754   9.602 -0.1640 -0.1906  1.1455
  101MOL0     H13568   6.801   4.416   9.338  3.1942  0.0980  1.1443
  101MOL0     H13569   6.986   4.491   9.218 -2.1124 -1.7260  0.2539
  101MOL0     H13570   7.167   4.826   9.294  1.6975 -0.5318  0.8834
  101MOL0     H13571   7.179   4.656   9.280 -1.5242  0.2845  1.6346
  101MOL0     H13572   7.298   4.875   9.108  1.1746 -0.7228 -1.7141
  101MOL0     H13573   7.251   4.721   9.032  2.0271  0.1764 -1.1325
  101MOL0     H13574   7.402   4.600   9.152 -1.3451 -0.1985  0.1571
  101MOL0     H13575   7.390   4.707   9.302 -2.1008 -1.1165  0.1927
  101MOL0     H13576   7.527   4.815   9.046  2.0379 -0.8259 -0.9009
  101MOL0     H13577   7.553   4.860   9.216 -0.3004  0.8297 -1.6738
  101MOL0     H13578   7.651   4.652   9.259 -0.7245  3.1531  1.4076
  101MOL0     H13579   7.637   4.600   9.082 -0.9323 -0.7879  1.0961
  101MOL0     H13580   7.774   4.850   9.099  1.6877 -0.6973 -2.9422
  101MOL0     H13581   7.854   4.754   9.229 -0.7204  1.0034  0.6007
  101MOL0     H13582   7.815   4.676   8.939  3.3155 -0.1181 -1.9172
  101MOL0     H13583   7.906   4.573   9.054 -1.2638 -1.9299 -1.3146
  101MOL0     H13584   7.975   4.843   8.917 -2.0305 -2.0607 -1.8239
  101MOL0     H13585   8.062   4.796   9.064  2.5903  0.4848 -1.4546
  101MOL0     H13586   8.212   4.558   9.052  0.4993  1.1722  0.6975
  101MOL0     H13587   8.337   4.373   8.733  0.5610 -0.9779  0.9808
  101MOL0     H13588   8.437   4.465   8.839 -1.0413  1.1120 -1.3417
  101MOL0     H13589   8.365   4.213   8.895 -1.3967 -1.4598 -2.0619
  101MOL0     H13590   8.331   4.342   9.024 -0.7494  3.4013 -1.3996
  101MOL0     H13591   8.112   4.352   8.944  0.6999  0.1888 -1.7633
  101MOL0     H13592   8.155   4.181   8.997  1.4066  0.1119  0.5999
  101MOL0     H13593   8.199   4.142   8.770  1.4248 -0.4317  1.9375
  101MOL0     H13594   8.135   4.305   8.717 -0.8299 -0.7607 -1.6274
  101MOL0     H13595   7.947   4.417   8.789 -0.9549  1.6221 -1.2517
  101MOL0     H13596   7.733   4.495   8.850  0.0012 -0.0278  0.7631
  101MOL0     H13597   7.250   4.106   8.839 -1.1589 -1.8008 -0.9243
  101MOL0     H13598   7.011   4.102   8.909 -2.6750  0.8648 -0.3102
  101MOL0     H13599   6.784   4.529   8.964 -0.4074  1.6478 -4.3351
  101MOL0     H13600   6.818   4.440   8.819  0.9697  2.0541  1.0757
  101MOL0     H13601   6.580   4.443   8.880  1.0862  1.3665  2.1575
  101MOL0     H13602   6.642   4.275   8.886  3.6203 -0.0435 -0.5823
  101MOL0     H13603   6.687   4.300   9.138  1.3273  2.0803 -0.0187
  101MOL0     H13604   6.591   4.448   9.135 -3.4126 -0.3363 -0.3101
  101MOL0     H13605   6.507   4.162   9.093 -0.8535 -0.9476 -1.4687
  101MOL0     H13606   6.406   4.295   9.022 -0.5835 -1.3541  1.3708
  101MOL0     H13607   6.364   4.397   9.243  0.6354 -0.4586  3.8225
  101MOL0     H13608   6.470   4.278   9.319 -0.3408  0.1788 -0.1971
  101MOL0     H13609   6.240   4.190   9.156  1.7819 -0.7760 -1.1785
  101MOL0     H13610   6.340   4.082   9.256  1.8765  0.7095 -0.4027
  101MOL0     H13611   6.284   4.218   9.456  0.2757  0.3637 -0.6153
  101MOL0     H13612   6.154   4.109   9.394  1.8797 -1.0283 -1.7230
  101MOL0     H13613   6.169   4.411   9.352 -0.5691  0.3083  0.6911
  101MOL0     H13614   6.048   4.303   9.298  1.6250  0.4932 -1.1358
  101MOL0     H13615   7.028   4.537   8.937 -0.7661 -1.5624  1.3257
  101MOL0     H13616   7.267   4.524   8.848  0.5996 -0.6235 -1.5308
  101MOL0     H13617   7.572   4.101   8.786  0.7314 -0.9724  2.7121
  101MOL0     H13618   7.785   4.014   8.768 -2.8822 -1.0214 -3.7659
  101MOL0     H13619   6.849   4.886   9.245 -0.7916 -1.2865 -2.9028
  101MOL0     H13620   6.644   4.827   9.359  3.8630  4.5250 -1.8844
  101MOL0     H13621   6.549   4.430   9.647  0.1839 -0.2084  0.9114
  101MOL0     H13622   6.418   4.316   9.834  0.9276 -0.1976 -0.3244
  101MOL0     H13623   6.109   4.575  10.005 -1.4374 -0.3542  0.2587
  101MOL0     H13624   6.105   4.440  10.116 -3.3174 -0.8280 -0.0266
  101MOL0     H13625   5.967   4.323   9.923  2.8790 -1.0102  2.6915
  101MOL0     H13626   5.917   4.492   9.880  0.1985  0.1604 -1.0336
  101MOL0     H13627   5.883   4.507  10.149 -1.9192  0.6967 -1.2458
  101MOL0     H13628   5.898   4.333  10.138 -2.4344 -0.5210  0.2513
  101MOL0     H13629   5.694   4.333   9.978  0.1796 -0.9479  0.4639
  101MOL0     H13630   5.665   4.387  10.147  0.0845 -2.4805 -0.1030
  101MOL0     H13631   5.604   4.727   9.890  0.7328  0.8830 -0.8329
  101MOL0     H13632   6.114   4.619   9.794  1.0239  1.9082  0.0538
  101MOL0     H13633   6.267   4.842   9.629  0.3016 -0.0674 -0.1837
  101MOL0     H13634   6.196   4.730   9.496 -1.0358 -0.6024  1.3350
  101MOL0     H13635   6.109   4.776   9.640 -0.9329 -1.3084 -0.1317
  102MOL0     O13636  10.625   7.877  10.923  0.3879 -0.5403 -0.9223
  102MOL0     C13637  10.547   7.880  11.027 -0.6832  0.2779  0.2505
  102MOL0     O13638  10.534   7.988  11.111  0.0239  0.0921 -0.2950
  102MOL0     C13639  10.576   8.112  11.064  0.2611  0.2720  0.3668
  102MOL0     C13640  10.708   8.127  11.018  0.9266 -0.3166  0.0649
  102MOL0     C13641  10.766   8.256  10.992 -0.3809 -0.0527  0.0376
  102MOL0     C13642  10.690   8.373  11.016 -0.0646 -0.3543  0.2500
  102MOL0     O13643  10.748   8.497  10.990 -0.2394  0.7081 -0.1223
  102MOL0     C13644  10.674   8.597  10.912  0.7405 -0.3251 -0.4923
  102MOL0     C13645  10.774   8.709  10.859 -0.0005  0.9843  0.3145
  102MOL0     C13646  10.869   8.667  10.748  0.7187 -0.4053 -0.3655
  102MOL0     C13647  10.964   8.784  10.705 -0.8474  0.2571 -0.5250
  102MOL0     C13648  11.078   8.729  10.611  0.1618 -1.3859  0.7633
  102MOL0     C13649  11.145   8.856  10.560 -0.1275 -0.5060  1.0695
  102MOL0     C13650  11.273   8.817  10.476  0.2012  0.8336  1.0021
  102MOL0     C13651  11.378   8.736  10.558  0.1051  0.0606  0.7885
  102MOL0     N13652  11.525   8.751  10.520  0.0415  0.9864 -0.4097
  102MOL0     C13653  11.586   8.874  10.526 -0.6576 -0.3656  0.3670
  102MOL0     C13654  11.708   8.854  10.464  0.8338  0.1521 -0.3994
  102MOL0     C13655  11.804   8.965  10.454  0.4795  0.0698 -0.3674
  102MOL0     C13656  11.948   8.921  10.407  0.3008  1.2102  0.2648
  102MOL0     C13657  12.027   9.046  10.418  0.3012  0.1050  0.0042
  102MOL0     C13658  12.177   9.018  10.413 -0.6088  0.0818 -0.2054
  102MOL0     O13659  12.211   8.955  10.531  0.2472  0.9984  0.8288
  102MOL0     C13660  12.339   8.978  10.572  0.3876  0.6803  0.1715
  102MOL0     C13661  12.447   9.020  10.504 -0.2522  0.3106  0.2889
  102MOL0     C13662  12.572   9.033  10.562  0.7237 -0.1533 -0.3589
  102MOL0     C13663  12.594   9.006  10.699 -0.5389  0.0636 -0.4492
  102MOL0     C13664  12.722   9.027  10.768 -0.2913 -0.2448 -0.1902
  102MOL0     O13665  12.817   9.103  10.694  0.0231  0.5705 -0.4313
  102MOL0     C13666  12.945   9.111  10.746 -0.6952  1.0884 -0.0170
  102MOL0     C13667  12.984   9.124  10.878 -0.2951 -0.3103  1.5896
  102MOL0     C13668  13.121   9.129  10.910 -0.4795  0.6137 -0.2215
  102MOL0     C13669  13.228   9.109  10.814  0.1629 -1.6491 -0.5907
  102MOL0     O13670  13.366   9.114  10.843  0.3765  0.3631 -0.5650
  102MOL0     C13671  13.412   9.121  10.982  0.0595 -0.4319  0.2701
  102MOL0     C13672  13.558   9.135  10.999 -0.6871 -0.5895  0.1637
  102MOL0     C13673  13.591   9.196  11.135  0.6806  0.4367 -1.0244
  102MOL0     C13674  13.571   9.096  11.257  0.3711  1.0467  0.3122
  102MOL0     C13675  13.550   9.159  11.394  0.3451  1.0179  1.6077
  102MOL0     C13676  13.535   9.056  11.502 -0.3509  0.0210 -0.7065
  102MOL0     C13677  13.469   8.918  11.486 -0.4315 -0.6280 -0.6422
  102MOL0     C13678  13.466   8.845  11.625 -0.1240 -0.6732 -0.7181
  102MOL0    Cl13679  13.357   8.927  11.755 -0.1014  0.0952  0.4821
  102MOL0     C13680  13.191   9.103  10.679 -0.5514 -0.5647  0.1074
  102MOL0     C13681  13.055   9.096  10.646  0.1013 -0.2782 -0.3244
  102MOL0     O13682  12.731   8.992  10.883  0.5968 -0.2463  0.0161
  102MOL0     C13683  12.477   8.970  10.774  0.1321 -0.0859 -0.3692
  102MOL0     C13684  12.356   8.947  10.707  0.4748  1.1199  0.4472
  102MOL0     N13685  11.716   8.722  10.432 -0.0475  0.0265  0.5617
  102MOL0     N13686  11.605   8.658  10.461 -0.8470 -0.1824 -0.2296
  102MOL0     C13687  10.555   8.364  11.038 -0.3001 -0.2314  0.2618
  102MOL0     C13688  10.502   8.232  11.077 -0.4772 -0.1614  0.8413
  102MOL0     C13689  10.462   7.762  11.055  0.8987  0.1154  0.9088
  102MOL0     C13690  10.396   7.749  11.179 -0.2600 -0.3075  0.0516
  102MOL0     C13691  10.319   7.637  11.199 -0.8579 -0.9256 -0.6139
  102MOL0     C13692  10.307   7.535  11.110  0.4116  0.4605  0.6768
  102MOL0     O13693  10.235   7.417  11.134 -0.2690 -0.3134 -0.6325
  102MOL0     C13694  10.096   7.418  11.118 -0.5175 -0.3146  0.7036
  102MOL0     C13695  10.041   7.344  10.990 -0.0869 -1.0563 -1.0307
  102MOL0     C13696  10.125   7.215  10.954 -0.2721  0.7869  0.7528
  102MOL0     C13697  10.104   7.102  11.058  0.4656  0.0658 -0.7225
  102MOL0     C13698  10.176   6.982  11.035 -0.6925  0.5947 -0.2988
  102MOL0     C13699  10.259   6.889  11.039 -0.6422  0.3573  0.0661
  102MOL0     C13700  10.364   7.553  10.984  0.0528 -0.1185  0.3590
  102MOL0     C13701  10.430   7.670  10.947  0.4064  0.1582  0.4917
  102MOL0     C13702  10.468   7.677  10.797  0.2152 -1.0157  0.4210
  102MOL0     H13703  10.771   8.039  11.020 -2.2851 -2.7800  0.9511
  102MOL0     H13704  10.871   8.262  10.963  0.4381  1.2245  2.8880
  102MOL0     H13705  10.616   8.535  10.842  3.6217 -3.8151 -0.0873
  102MOL0     H13706  10.612   8.645  10.989 -1.0827 -3.9325  0.5500
  102MOL0     H13707  10.836   8.738  10.944 -1.3979  1.2440  1.2827
  102MOL0     H13708  10.722   8.802  10.835  0.9879  0.9639 -2.1236
  102MOL0     H13709  10.819   8.628  10.659  3.2717  0.2942 -2.2564
  102MOL0     H13710  10.941   8.593  10.784 -0.5623 -1.9379 -0.8445
  102MOL0     H13711  10.908   8.864  10.654  1.6469  2.3785 -0.1506
  102MOL0     H13712  10.994   8.820  10.804 -2.7356 -1.3588  0.7023
  102MOL0     H13713  11.144   8.667  10.672 -0.0920 -0.2039  2.3104
  102MOL0     H13714  11.040   8.674  10.525  0.1629 -0.8699  0.4303
  102MOL0     H13715  11.084   8.915  10.492  1.8661  0.2593 -0.1299
  102MOL0     H13716  11.178   8.927  10.637  0.0757  2.6310 -1.6861
  102MOL0     H13717  11.324   8.904  10.433 -0.3519 -0.4140 -2.5293
  102MOL0     H13718  11.241   8.766  10.384  2.7472  1.7807 -0.5118
  102MOL0     H13719  11.373   8.774  10.660 -0.3375 -0.5036  0.9819
  102MOL0     H13720  11.351   8.630  10.550  2.6421 -0.5363 -1.2813
  102MOL0     H13721  11.547   8.969  10.558  1.4976  0.2262  1.4283
  102MOL0     H13722  11.762   9.040  10.386 -0.9973 -1.0305 -0.7206
  102MOL0     H13723  11.805   9.011  10.553 -3.3740  0.6498 -0.4361
  102MOL0     H13724  11.975   8.848  10.485 -2.4598  0.5521  0.7215
  102MOL0     H13725  11.960   8.881  10.306 -2.8587 -1.1546  0.6701
  102MOL0     H13726  12.015   9.101  10.512  0.7761  0.1237  0.0572
  102MOL0     H13727  11.992   9.116  10.341  0.7601 -0.6302 -0.8891
  102MOL0     H13728  12.243   9.104  10.405  2.4376 -2.1805 -1.5765
  102MOL0     H13729  12.202   8.954  10.327 -0.9193 -0.4147  0.0698
  102MOL0     H13730  12.450   9.044  10.398  0.1268 -2.0291 -0.2803
  102MOL0     H13731  12.653   9.071  10.499  1.7044  2.4325  2.2295
  102MOL0     H13732  12.906   9.145  10.951 -2.5510 -1.6179 -0.3179
  102MOL0     H13733  13.143   9.154  11.014 -0.4055  0.2002 -0.1390
  102MOL0     H13734  13.364   9.212  11.019  0.8739  1.0395 -2.0454
  102MOL0     H13735  13.375   9.037  11.041 -0.2954 -1.2706 -1.1161
  102MOL0     H13736  13.607   9.041  10.972 -3.1688 -1.8163 -0.3794
  102MOL0     H13737  13.597   9.211  10.931  3.1162 -3.2242 -0.8919
  102MOL0     H13738  13.688   9.246  11.136  1.2732 -0.6849 -0.6659
  102MOL0     H13739  13.521   9.279  11.152 -0.3562 -0.6504  0.3284
  102MOL0     H13740  13.659   9.031  11.259  0.3497  1.0120  0.1254
  102MOL0     H13741  13.478   9.041  11.242  1.0908  0.2431 -1.3895
  102MOL0     H13742  13.455   9.212  11.384 -0.4452 -0.4734  0.9473
  102MOL0     H13743  13.633   9.229  11.412  0.5834  1.3809 -0.6208
  102MOL0     H13744  13.637   9.039  11.536  0.9513  1.3520 -3.5786
  102MOL0     H13745  13.483   9.111  11.581  0.0221 -1.3668  0.5409
  102MOL0     H13746  13.527   8.855  11.417  2.3834  0.4978  0.5538
  102MOL0     H13747  13.372   8.933  11.439 -0.7929  0.4939  0.4363
  102MOL0     H13748  13.436   8.740  11.613 -0.1777 -0.6649 -0.6590
  102MOL0     H13749  13.564   8.840  11.673 -0.3891 -0.1777 -0.1210
  102MOL0     H13750  13.274   9.103  10.609  0.3990 -0.8084  1.2083
  102MOL0     H13751  13.035   9.074  10.542 -1.2377  3.3997 -0.9855
  102MOL0     H13752  12.479   8.961  10.882  0.1553 -0.1185 -0.3726
  102MOL0     H13753  12.271   8.917  10.767  0.8744  1.6373  1.2832
  102MOL0     H13754  10.503   8.458  11.052  1.3519  0.4178  2.5658
  102MOL0     H13755  10.397   8.225  11.103 -0.6324  1.3047  0.7354
  102MOL0     H13756  10.411   7.812  11.266 -0.8720 -0.0091 -0.0541
  102MOL0     H13757  10.271   7.640  11.295 -0.8393  0.1798 -0.6195
  102MOL0     H13758  10.056   7.520  11.115 -2.2393 -0.9127  2.2506
  102MOL0     H13759  10.050   7.386  11.211 -1.0570 -2.6461 -0.2789
  102MOL0     H13760  10.045   7.423  10.914  1.0058  0.9509  0.9866
  102MOL0     H13761   9.938   7.311  11.008 -0.3352 -1.4508 -2.9776
  102MOL0     H13762  10.232   7.236  10.944 -0.9315  4.9486  0.4685
  102MOL0     H13763  10.096   7.182  10.854 -0.8735  0.4378  1.0434
  102MOL0     H13764  10.128   7.142  11.157  0.7703  1.8199 -1.4646
  102MOL0     H13765   9.997   7.080  11.068  0.8137 -1.0182  1.2079
  102MOL0     H13766  10.336   6.815  11.048 -0.8655 -0.1275 -1.6408
  102MOL0     H13767  10.347   7.476  10.909 -0.5735  0.6968 -0.3536
  102MOL0     H13768  10.450   7.778  10.759  0.0191 -1.1228  0.2307
  102MOL0     H13769  10.576   7.662  10.789 -0.0173 -1.8617 -1.7395
  102MOL0     H13770  10.409   7.603  10.742 -0.4744  0.0326 -0.2645
  103MOL0     O13771   5.529   4.608   1.768 -0.0523  0.3005 -0.0176
  103MOL0     C13772   5.513   4.488   1.756 -0.3902  0.0838  0.0818
  103MOL0     O13773   5.614   4.395   1.762  0.1746 -0.0054  0.5140
  103MOL0     C13774   5.731   4.447   1.819 -0.4734  0.6727  0.1808
  103MOL0     C13775   5.837   4.458   1.741  0.3779  0.2023 -0.1001
  103MOL0     C13776   5.958   4.480   1.802 -1.1987 -0.2987 -0.1133
  103MOL0     C13777   5.976   4.502   1.941  0.9383  0.4466 -0.2748
  103MOL0     O13778   6.090   4.530   2.012  0.2054 -1.3129  0.2604
  103MOL0     C13779   6.213   4.474   1.971 -0.3477  0.2386 -0.0404
  103MOL0     C13780   6.324   4.504   2.070 -0.1597  0.6515 -0.0821
  103MOL0     C13781   6.313   4.642   2.135  0.5983  0.0786 -0.1936
  103MOL0     C13782   6.331   4.759   2.026 -0.7216  0.2538 -0.7700
  103MOL0     C13783   6.467   4.829   2.055 -0.7852 -0.1975  0.6040
  103MOL0     C13784   6.497   4.936   1.943  0.3419  0.9175  0.0435
  103MOL0     C13785   6.647   4.961   1.944  0.2642 -0.8371  0.4191
  103MOL0     C13786   6.683   5.075   1.846  0.7930 -0.2755 -0.1620
  103MOL0     N13787   6.818   5.120   1.851 -0.3823  0.0728 -0.1579
  103MOL0     C13788   6.874   5.198   1.944 -0.9317  0.0902  0.3367
  103MOL0     C13789   7.006   5.215   1.912  0.1416  0.4729  0.1760
  103MOL0     C13790   7.115   5.304   1.970 -0.3329 -0.6955 -0.6086
  103MOL0     C13791   7.147   5.278   2.115  0.6311 -0.3957 -0.3095
  103MOL0     C13792   7.258   5.176   2.136  0.1374  0.6301  0.7285
  103MOL0     C13793   7.219   5.044   2.067  0.2908  0.0422  0.0066
  103MOL0     O13794   7.315   4.963   2.136  0.5243 -0.6794  0.2391
  103MOL0     C13795   7.451   4.970   2.101 -1.0536  0.6818  0.3976
  103MOL0     C13796   7.500   5.015   1.984  0.2677 -0.7568  0.0087
  103MOL0     C13797   7.642   5.023   1.964  0.1402  0.4872  0.2627
  103MOL0     C13798   7.737   4.997   2.073 -0.6900  0.9110  0.1402
  103MOL0     C13799   7.885   5.024   2.068 -0.5285 -0.9291  0.2116
  103MOL0     O13800   7.935   5.082   1.954 -0.5678 -0.2038 -0.3325
  103MOL0     C13801   8.071   5.103   1.926  0.2118  0.2518 -0.0128
  103MOL0     C13802   8.092   5.181   1.815 -1.0357 -0.8376 -0.1508
  103MOL0     C13803   8.213   5.193   1.754  0.1123  0.5353 -0.3924
  103MOL0     C13804   8.331   5.138   1.814 -0.4994  0.7721  0.8333
  103MOL0     O13805   8.447   5.154   1.739 -0.1336  1.0176 -0.2350
  103MOL0     C13806   8.533   5.040   1.740  0.0401  0.0449  0.7389
  103MOL0     C13807   8.638   5.037   1.846  0.4350  0.3749  0.0409
  103MOL0     C13808   8.683   4.893   1.873 -0.4348 -0.6771 -0.0899
  103MOL0     C13809   8.811   4.887   1.952  0.0955 -0.2647  0.4100
  103MOL0     C13810   8.858   4.740   1.964  0.7953  0.4419  0.4777
  103MOL0     C13811   8.997   4.749   2.004 -0.0064 -0.1256  0.1975
  103MOL0     C13812   9.059   4.615   2.030 -0.1692  0.1634  0.2786
  103MOL0     C13813   9.210   4.624   2.055 -0.5851 -0.5127  0.0356
  103MOL0    Cl13814   9.264   4.467   2.114  0.6109  0.8043 -0.1903
  103MOL0     C13815   8.307   5.048   1.918  0.3041  0.3500  0.4263
  103MOL0     C13816   8.174   5.026   1.977 -0.7082  0.3903  0.1812
  103MOL0     O13817   7.952   5.001   2.170 -0.3675 -0.2106  0.3136
  103MOL0     C13818   7.682   4.940   2.192 -0.3854  0.2154  0.2587
  103MOL0     C13819   7.542   4.935   2.206  0.7841 -0.0436  0.5163
  103MOL0     N13820   7.025   5.127   1.809 -0.7715 -0.3910  0.1625
  103MOL0     N13821   6.915   5.075   1.768 -0.5413 -0.3980 -0.3891
  103MOL0     C13822   5.863   4.488   2.021 -0.7863  0.8280 -0.7971
  103MOL0     C13823   5.739   4.469   1.959  0.3532 -0.3592 -0.3320
  103MOL0     C13824   5.374   4.453   1.707 -0.4100  0.2914  0.7659
  103MOL0     C13825   5.275   4.546   1.684 -0.8997 -0.3915 -0.2453
  103MOL0     C13826   5.152   4.517   1.632 -0.1906  0.3763 -0.5441
  103MOL0     C13827   5.110   4.384   1.608 -0.0284 -0.3557  0.6153
  103MOL0     O13828   4.989   4.346   1.555 -0.1198 -0.1257  0.0009
  103MOL0     C13829   4.928   4.435   1.470 -0.5997  0.4433  0.5852
  103MOL0     C13830   4.826   4.363   1.370  0.1857  0.1671  0.0273
  103MOL0     C13831   4.740   4.470   1.302  0.2708 -0.2893  0.0936
  103MOL0     C13832   4.642   4.405   1.206  0.2600 -0.6301  0.9224
  103MOL0     C13833   4.527   4.351   1.279  0.0484 -1.3565 -0.1852
  103MOL0     C13834   4.436   4.306   1.346  0.2964 -0.1195 -0.3062
  103MOL0     C13835   5.209   4.291   1.630  0.3092  0.2041 -0.0811
  103MOL0     C13836   5.336   4.314   1.684  0.4930 -0.9452  0.3016
  103MOL0     C13837   5.426   4.193   1.700  0.7649 -0.1976 -0.0152
  103MOL0     H13838   5.836   4.437   1.635  1.4239  0.3085 -0.1418
  103MOL0     H13839   6.053   4.476   1.751  1.0714  1.7209  3.5204
  103MOL0     H13840   6.200   4.365   1.971 -0.4206  0.2017  2.5039
  103MOL0     H13841   6.249   4.507   1.873 -1.3773  0.0495 -0.4949
  103MOL0     H13842   6.418   4.493   2.014 -0.2637 -2.3850  0.1467
  103MOL0     H13843   6.311   4.438   2.156  1.1383  0.3781 -0.0761
  103MOL0     H13844   6.374   4.654   2.225 -0.0422  4.0317 -0.1142
  103MOL0     H13845   6.210   4.650   2.173  0.4217 -1.2293 -0.3604
  103MOL0     H13846   6.325   4.719   1.925  0.1628 -0.7857 -0.4313
  103MOL0     H13847   6.250   4.831   2.036 -0.3629  0.8016 -1.6658
  103MOL0     H13848   6.452   4.868   2.156 -1.4549 -2.6506  1.5313
  103MOL0     H13849   6.549   4.757   2.047  0.6056  1.5273 -1.5836
  103MOL0     H13850   6.480   4.885   1.848 -2.6159 -1.9198  1.9135
  103MOL0     H13851   6.422   5.015   1.947  0.7411  1.4664 -2.0770
  103MOL0     H13852   6.694   4.867   1.915  1.1157  0.2283 -1.9258
  103MOL0     H13853   6.684   4.983   2.045 -2.7248  1.6056  1.1253
  103MOL0     H13854   6.665   5.047   1.741 -1.0277  2.4188 -0.6575
  103MOL0     H13855   6.611   5.156   1.856  1.4983  0.7165 -2.4110
  103MOL0     H13856   6.813   5.244   2.021  0.0101 -0.1536  1.2482
  103MOL0     H13857   7.213   5.301   1.923  1.0095  2.7990  1.5965
  103MOL0     H13858   7.081   5.407   1.955 -1.0594 -0.9898 -1.0610
  103MOL0     H13859   7.163   5.370   2.172  1.2097 -0.1379 -0.8803
  103MOL0     H13860   7.057   5.243   2.167  0.8198  0.8895  0.9590
  103MOL0     H13861   7.268   5.168   2.245 -1.7255  2.8695  1.1601
  103MOL0     H13862   7.343   5.222   2.086 -1.4157 -0.0422 -2.8072
  103MOL0     H13863   7.248   5.053   1.962  2.3413  1.6165  0.6374
  103MOL0     H13864   7.116   5.009   2.081 -0.2953  1.2032 -1.1247
  103MOL0     H13865   7.443   5.049   1.898  0.2609 -1.1358 -0.1391
  103MOL0     H13866   7.680   5.059   1.870  0.2872  0.6882  0.3982
  103MOL0     H13867   8.007   5.235   1.775 -1.7182 -0.1327  2.1115
  103MOL0     H13868   8.231   5.264   1.674  1.8580  1.5514  0.8134
  103MOL0     H13869   8.468   4.952   1.739  0.9621 -0.7429 -2.6024
  103MOL0     H13870   8.586   5.043   1.644  0.2951  0.9399  0.8960
  103MOL0     H13871   8.724   5.093   1.807 -0.0056 -0.2538 -1.9312
  103MOL0     H13872   8.614   5.084   1.941  1.0294 -0.2194  0.4978
  103MOL0     H13873   8.606   4.845   1.934  1.0993 -1.7726  1.0596
  103MOL0     H13874   8.696   4.837   1.781  0.5633 -0.0785 -0.3196
  103MOL0     H13875   8.803   4.928   2.053 -1.9734  0.2624  0.0711
  103MOL0     H13876   8.889   4.952   1.911  0.1365 -0.0765  0.7874
  103MOL0     H13877   8.855   4.681   1.872  1.0748 -0.2656  0.9136
  103MOL0     H13878   8.793   4.693   2.039  0.2744 -1.2997 -0.9750
  103MOL0     H13879   9.051   4.803   1.926 -2.1061 -1.4559 -2.3705
  103MOL0     H13880   8.998   4.809   2.095  0.7253  1.7975 -1.0204
  103MOL0     H13881   9.050   4.552   1.941  0.5128 -1.2388  1.1744
  103MOL0     H13882   9.007   4.568   2.113 -0.8140  0.0861 -0.1634
  103MOL0     H13883   9.265   4.631   1.961  0.6852 -1.3137  0.6749
  103MOL0     H13884   9.242   4.702   2.125 -1.8541 -0.5676  0.7067
  103MOL0     H13885   8.389   4.986   1.954  0.2857 -1.3562 -2.2054
  103MOL0     H13886   8.155   4.974   2.071  4.6602  0.1553  1.4674
  103MOL0     H13887   7.742   4.917   2.279  2.4681  3.3329 -0.6440
  103MOL0     H13888   7.494   4.887   2.290 -2.4818  2.2936  0.1928
  103MOL0     H13889   5.865   4.524   2.123 -1.1726 -0.0191 -0.4869
  103MOL0     H13890   5.656   4.460   2.029  1.4181 -0.9802  0.8835
  103MOL0     H13891   5.284   4.652   1.707 -2.7575 -0.8332  3.2536
  103MOL0     H13892   5.087   4.604   1.623  0.7828  1.1722 -0.1467
  103MOL0     H13893   5.006   4.495   1.423 -0.3755 -1.3772 -1.5237
  103MOL0     H13894   4.865   4.503   1.529 -1.9723 -0.7297  0.5562
  103MOL0     H13895   4.778   4.288   1.434  0.5256  1.2086  1.5662
  103MOL0     H13896   4.878   4.313   1.289 -0.8765 -1.1829  0.1456
  103MOL0     H13897   4.801   4.542   1.248 -1.1642  0.1873 -0.9558
  103MOL0     H13898   4.695   4.515   1.390 -1.0230 -0.1248 -0.6294
  103MOL0     H13899   4.614   4.491   1.144  3.1949  0.5629  1.1002
  103MOL0     H13900   4.680   4.329   1.138 -2.0963 -0.2061 -1.0397
  103MOL0     H13901   4.343   4.271   1.385 -0.7126  1.3772 -1.2560
  103MOL0     H13902   5.171   4.192   1.606 -0.0509 -0.6528  3.4999
  103MOL0     H13903   5.514   4.189   1.634 -0.9479 -0.2415 -2.4049
  103MOL0     H13904   5.451   4.185   1.807 -1.3486 -0.5288  0.4890
  103MOL0     H13905   5.360   4.109   1.679 -2.6008  3.0785 -4.1310
  104MOL0     O13906   0.813   3.593   8.017 -0.8881 -0.4042 -0.4818
  104MOL0     C13907   0.710   3.603   8.086  0.0324  1.1387 -0.0024
  104MOL0     O13908   0.700   3.612   8.224 -0.1437  0.4551  0.9356
  104MOL0     C13909   0.815   3.629   8.294 -0.3735  0.5519 -0.3126
  104MOL0     C13910   0.898   3.517   8.298 -0.2009  0.0402  0.0980
  104MOL0     C13911   1.026   3.512   8.365  0.4234  0.4725  0.1360
  104MOL0     C13912   1.069   3.641   8.417  0.7556 -0.0413 -0.2448
  104MOL0     O13913   1.197   3.655   8.467  0.6744 -0.8311  0.5148
  104MOL0     C13914   1.286   3.542   8.454 -0.0860 -0.7918 -0.6830
  104MOL0     C13915   1.421   3.606   8.478 -0.3990 -0.0176 -0.7379
  104MOL0     C13916   1.528   3.493   8.474  0.3348 -0.7595 -0.9805
  104MOL0     C13917   1.664   3.561   8.470  0.5471  0.1973 -0.1325
  104MOL0     C13918   1.769   3.452   8.482 -0.1933  0.6028 -0.1161
  104MOL0     C13919   1.907   3.516   8.496  0.1443  0.2650  0.5951
  104MOL0     C13920   2.022   3.416   8.516  0.3483  0.7476 -0.2249
  104MOL0     C13921   2.012   3.356   8.651  0.1457  0.0935  0.2814
  104MOL0     N13922   2.141   3.292   8.700  0.1990  0.1961  0.3201
  104MOL0     C13923   2.231   3.203   8.649  0.2391 -0.3214 -0.4471
  104MOL0     C13924   2.337   3.204   8.727  0.2614  0.0474  0.0780
  104MOL0     C13925   2.479   3.141   8.696  0.8633  1.2177  0.2859
  104MOL0     C13926   2.484   3.000   8.768 -0.5791  0.5645  0.1803
  104MOL0     C13927   2.521   3.018   8.910 -0.3232  0.7642 -0.7435
  104MOL0     C13928   2.521   2.884   8.984 -0.0825  0.0384 -0.1424
  104MOL0     O13929   2.601   2.791   8.911  0.6459  0.0392  0.1994
  104MOL0     C13930   2.738   2.796   8.925 -0.6330  0.6184  0.0757
  104MOL0     C13931   2.788   2.685   8.857  0.4941 -0.3712 -1.1578
  104MOL0     C13932   2.924   2.663   8.856  0.7908  0.4592 -0.3246
  104MOL0     C13933   3.010   2.751   8.925 -0.1621 -0.2041  0.2486
  104MOL0     C13934   3.153   2.721   8.931 -0.7984 -0.0741 -0.0652
  104MOL0     O13935   3.238   2.810   8.989 -0.5530 -0.1688  0.1607
  104MOL0     C13936   3.368   2.772   9.002 -0.3164 -0.2868 -0.1669
  104MOL0     C13937   3.400   2.669   9.088 -0.0025 -0.1717 -0.5581
  104MOL0     C13938   3.530   2.620   9.104 -0.1528 -0.7500  0.4110
  104MOL0     C13939   3.639   2.667   9.023  0.3355  0.1434 -0.2778
  104MOL0     O13940   3.763   2.615   9.052  0.1288 -0.9977 -0.0954
  104MOL0     C13941   3.881   2.688   9.011 -0.6679 -0.0222  0.6570
  104MOL0     C13942   4.000   2.629   9.080 -0.1269 -0.4958  0.0137
  104MOL0     C13943   4.131   2.703   9.036 -0.4101  0.9307  1.0634
  104MOL0     C13944   4.250   2.606   9.052 -0.2221  0.3628  0.3382
  104MOL0     C13945   4.391   2.665   8.999 -0.1402  0.0280 -0.9563
  104MOL0     C13946   4.510   2.570   9.026 -0.5164  0.2461 -0.6323
  104MOL0     C13947   4.647   2.625   9.016  0.5501 -0.0459  0.4376
  104MOL0     C13948   4.751   2.520   9.052 -0.5327  0.1325 -0.0945
  104MOL0    Cl13949   4.725   2.428   9.201  0.2158 -0.1973  0.5085
  104MOL0     C13950   3.609   2.770   8.932  0.3027 -0.0448 -0.2419
  104MOL0     C13951   3.474   2.819   8.925  0.2401 -0.0517 -0.3442
  104MOL0     O13952   3.191   2.618   8.875 -0.1817 -0.2057  0.1069
  104MOL0     C13953   2.963   2.864   8.985  0.3239 -0.2667 -0.2362
  104MOL0     C13954   2.822   2.887   8.990  0.0061  0.5280  0.1917
  104MOL0     N13955   2.310   3.283   8.831  0.4013 -0.3954  0.5089
  104MOL0     N13956   2.201   3.343   8.806 -0.5455  0.3201 -0.2881
  104MOL0     C13957   0.988   3.754   8.401  0.7668  0.1772 -0.7089
  104MOL0     C13958   0.859   3.749   8.351  0.4606  0.0630 -0.6440
  104MOL0     C13959   0.577   3.613   8.026 -0.1948  0.4550  0.7092
  104MOL0     C13960   0.455   3.580   8.104 -0.0538 -0.6629 -0.0460
  104MOL0     C13961   0.331   3.572   8.040  0.6659 -0.7003  0.4404
  104MOL0     C13962   0.317   3.608   7.907 -0.5086  0.5040 -0.1290
  104MOL0     O13963   0.188   3.605   7.865  0.2200 -0.7818  0.0197
  104MOL0     C13964   0.167   3.561   7.730  0.2889 -0.4001  0.4523
  104MOL0     C13965   0.020   3.570   7.687  0.6656  0.0864 -0.1357
  104MOL0     C13966  -0.019   3.719   7.660  0.8113 -0.8393  0.1564
  104MOL0     C13967  -0.170   3.751   7.644 -0.1333 -0.0428  0.4943
  104MOL0     C13968  -0.218   3.695   7.524  0.5421 -0.2000  0.6357
  104MOL0     C13969  -0.245   3.640   7.421 -0.3170  0.4420  0.0278
  104MOL0     C13970   0.431   3.650   7.832 -1.3305 -0.6291  0.0749
  104MOL0     C13971   0.560   3.651   7.888 -0.0365  0.2916  0.3292
  104MOL0     C13972   0.675   3.707   7.796  1.3272 -0.2326 -0.4045
  104MOL0     H13973   0.874   3.425   8.248 -2.6867  0.4377  0.4290
  104MOL0     H13974   1.072   3.414   8.368 -0.8516 -0.1759 -0.6164
  104MOL0     H13975   1.281   3.465   8.532 -0.0184  0.5162  0.6553
  104MOL0     H13976   1.275   3.493   8.357 -2.0566  1.0957 -1.4928
  104MOL0     H13977   1.421   3.662   8.572  4.6299  1.1366 -1.1312
  104MOL0     H13978   1.432   3.669   8.390  0.7546 -0.8469 -1.2243
  104MOL0     H13979   1.511   3.439   8.380 -1.6116  1.6948 -2.1467
  104MOL0     H13980   1.511   3.428   8.560 -0.8876  1.3178  0.4418
  104MOL0     H13981   1.680   3.616   8.377 -2.8647  0.3872 -0.7458
  104MOL0     H13982   1.669   3.628   8.555 -1.8636  0.8660 -0.4468
  104MOL0     H13983   1.743   3.380   8.560  2.1587 -2.0001 -1.5600
  104MOL0     H13984   1.767   3.403   8.385  0.4856 -0.2596  0.2910
  104MOL0     H13985   1.917   3.568   8.400 -3.5954 -1.7131 -1.0832
  104MOL0     H13986   1.916   3.585   8.580 -0.3470 -0.7416  1.4986
  104MOL0     H13987   2.114   3.472   8.501 -0.8175  2.7143 -0.3618
  104MOL0     H13988   2.015   3.342   8.436  1.0409  0.6283 -0.1802
  104MOL0     H13989   2.003   3.440   8.721 -0.7328  2.4867 -2.4880
  104MOL0     H13990   1.928   3.287   8.659 -0.1337  0.2465 -1.0261
  104MOL0     H13991   2.225   3.156   8.551  2.0178 -0.9953 -0.2582
  104MOL0     H13992   2.498   3.130   8.589  0.6483  0.6277  0.3030
  104MOL0     H13993   2.560   3.202   8.736 -0.6868  2.3514  1.8695
  104MOL0     H13994   2.386   2.952   8.759  0.1131 -0.6157 -1.9515
  104MOL0     H13995   2.556   2.929   8.724 -0.4578 -0.1697  1.5035
  104MOL0     H13996   2.467   3.097   8.964  4.0897  2.0284  2.4252
  104MOL0     H13997   2.623   3.057   8.911 -0.1189  0.3107  1.0828
  104MOL0     H13998   2.414   2.861   8.994 -0.1717  1.4495  3.7975
  104MOL0     H13999   2.562   2.900   9.084 -0.5556  3.0484 -0.3108
  104MOL0     H14000   2.724   2.617   8.801 -0.6576 -0.4661  0.2193
  104MOL0     H14001   2.968   2.576   8.808 -1.3085  0.0905 -1.7299
  104MOL0     H14002   3.322   2.613   9.138  2.3151 -1.0039  2.4114
  104MOL0     H14003   3.546   2.548   9.183  1.1483 -0.0884  0.7770
  104MOL0     H14004   3.890   2.683   8.902  1.5190  0.4892  0.7710
  104MOL0     H14005   3.871   2.793   9.041  0.3858 -0.2191  1.7825
  104MOL0     H14006   3.992   2.632   9.189  0.0706 -3.0510  0.1630
  104MOL0     H14007   3.998   2.521   9.060 -0.8988 -0.9927  2.4287
  104MOL0     H14008   4.120   2.715   8.927 -1.6790  0.9438  1.1678
  104MOL0     H14009   4.148   2.795   9.092 -2.5956  1.5593  0.8154
  104MOL0     H14010   4.229   2.512   9.000  1.4167  0.4564 -0.5443
  104MOL0     H14011   4.256   2.588   9.160  0.2871  0.9864  0.4131
  104MOL0     H14012   4.419   2.755   9.054  1.9302 -1.4651  0.6244
  104MOL0     H14013   4.379   2.687   8.892 -2.6847 -0.5521 -0.8496
  104MOL0     H14014   4.485   2.547   9.130 -0.6880  0.8832 -0.5257
  104MOL0     H14015   4.491   2.476   8.974 -4.0739 -1.1999  2.7288
  104MOL0     H14016   4.669   2.712   9.078  3.5904  0.3716 -1.0304
  104MOL0     H14017   4.666   2.660   8.914 -0.0986  0.7878  0.5900
  104MOL0     H14018   4.763   2.450   8.969  1.9628  1.5825 -1.0488
  104MOL0     H14019   4.846   2.574   9.053 -0.2616 -0.3178 -0.6038
  104MOL0     H14020   3.683   2.801   8.860  0.9588 -0.6936  0.1307
  104MOL0     H14021   3.454   2.904   8.860  0.2210  2.0688  2.2682
  104MOL0     H14022   3.037   2.930   9.030 -2.0537  3.8977 -1.8588
  104MOL0     H14023   2.784   2.970   9.049 -1.2320 -2.1659  3.5418
  104MOL0     H14024   1.025   3.853   8.424 -2.5874  1.3119  0.3083
  104MOL0     H14025   0.793   3.835   8.361  0.0628 -0.4421  1.6277
  104MOL0     H14026   0.468   3.554   8.208  1.0047 -0.9615 -0.2388
  104MOL0     H14027   0.240   3.548   8.095 -1.4550  2.4117 -1.3572
  104MOL0     H14028   0.209   3.460   7.719 -1.7344 -1.2257 -0.0883
  104MOL0     H14029   0.224   3.617   7.655  1.4586 -0.7092  1.0813
  104MOL0     H14030  -0.036   3.530   7.772 -0.9774  0.4309 -1.0189
  104MOL0     H14031  -0.002   3.511   7.597 -0.0309  1.0620 -0.6298
  104MOL0     H14032   0.044   3.752   7.576  1.8772 -1.4367  0.6980
  104MOL0     H14033   0.005   3.768   7.755 -2.7051 -1.1655  1.3244
  104MOL0     H14034  -0.223   3.706   7.728  1.5559 -2.3822  0.4108
  104MOL0     H14035  -0.195   3.858   7.647  0.3199  0.2284 -2.2269
  104MOL0     H14036  -0.275   3.599   7.326  1.8866  0.8605 -0.8990
  104MOL0     H14037   0.422   3.685   7.729  0.7548  2.0763  0.6658
  104MOL0     H14038   0.764   3.743   7.849  1.2015  0.2695 -0.5266
  104MOL0     H14039   0.697   3.622   7.731  0.3744  0.3047 -1.4615
  104MOL0     H14040   0.635   3.786   7.732  0.7363  0.2318  0.5153
  105MOL0     O14041   3.953   3.750   2.322  0.2057 -0.2723 -0.6648
  105MOL0     C14042   4.009   3.823   2.246 -0.2387 -0.0472 -0.0710
  105MOL0     O14043   4.135   3.866   2.259  0.0599 -0.1076 -0.6329
  105MOL0     C14044   4.200   3.860   2.377 -0.5758  0.7725 -0.4916
  105MOL0     C14045   4.321   3.787   2.390 -0.3974  0.0207 -0.4262
  105MOL0     C14046   4.389   3.790   2.517 -0.1391 -0.5860  0.0809
  105MOL0     C14047   4.324   3.851   2.630 -0.1287  0.1787  0.1887
  105MOL0     O14048   4.367   3.846   2.758  0.4156 -0.5161 -0.6741
  105MOL0     C14049   4.498   3.806   2.785  0.2600 -0.2364 -0.1325
  105MOL0     C14050   4.529   3.832   2.935  0.3670  0.0755 -0.2498
  105MOL0     C14051   4.675   3.825   2.974 -0.4999 -0.3144  0.3336
  105MOL0     C14052   4.693   3.853   3.127  0.3760 -0.8996 -0.0817
  105MOL0     C14053   4.835   3.813   3.173  0.3483  0.0646 -0.2434
  105MOL0     C14054   4.852   3.833   3.321 -0.1955 -0.5037 -0.4834
  105MOL0     C14055   4.994   3.807   3.374 -0.1437  0.3121 -0.0640
  105MOL0     C14056   5.100   3.866   3.286 -0.4045 -0.1495  0.8449
  105MOL0     N14057   5.217   3.904   3.368 -0.6487 -0.4105 -0.6886
  105MOL0     C14058   5.231   4.016   3.447 -0.7963  0.0690 -0.3961
  105MOL0     C14059   5.360   4.011   3.493 -0.6981  0.1440  0.4843
  105MOL0     C14060   5.431   4.112   3.576  0.8150 -0.7466  0.6678
  105MOL0     C14061   5.562   4.053   3.639  0.4622 -0.0470 -0.0962
  105MOL0     C14062   5.633   4.160   3.712 -1.1226 -0.7907  0.1943
  105MOL0     C14063   5.775   4.118   3.759 -0.5401  0.1440  0.6689
  105MOL0     O14064   5.857   4.077   3.645  0.4552 -0.2698  0.4009
  105MOL0     C14065   5.986   4.076   3.652 -0.3495  0.4552 -0.1949
  105MOL0     C14066   6.056   4.080   3.534  0.5804  0.0865 -0.0322
  105MOL0     C14067   6.192   4.071   3.525  0.5465 -0.4972  0.6285
  105MOL0     C14068   6.275   4.042   3.634 -0.5767  0.3746 -0.3830
  105MOL0     C14069   6.424   4.027   3.617  0.0300 -0.3104 -0.2703
  105MOL0     O14070   6.456   4.065   3.491  0.7334  0.1091  0.1369
  105MOL0     C14071   6.586   4.064   3.451  1.4967 -0.3972 -0.5075
  105MOL0     C14072   6.618   4.038   3.319  0.1545 -0.3614  0.2815
  105MOL0     C14073   6.750   4.059   3.275 -0.0318  0.8233 -0.0090
  105MOL0     C14074   6.856   4.102   3.360 -0.1332 -0.1601 -0.3447
  105MOL0     O14075   6.993   4.118   3.321  0.0789 -0.2725 -0.1712
  105MOL0     C14076   7.032   4.076   3.186  0.5623 -0.0865  0.3130
  105MOL0     C14077   7.174   4.057   3.161  0.0849  0.2016  0.8700
  105MOL0     C14078   7.250   4.196   3.141  0.2958  0.3071 -0.2322
  105MOL0     C14079   7.386   4.171   3.089  0.0968 -0.9624  0.2015
  105MOL0     C14080   7.458   4.299   3.042 -0.4081 -0.6389  0.0095
  105MOL0     C14081   7.595   4.277   2.984  0.0270  0.6882  0.5313
  105MOL0     C14082   7.669   4.402   2.947  0.2879  0.0452 -0.3503
  105MOL0     C14083   7.811   4.368   2.913  0.0362  0.1580 -0.9959
  105MOL0    Cl14084   7.900   4.514   2.873 -0.1419  0.0940  0.0704
  105MOL0     C14085   6.817   4.132   3.492 -0.6068  0.3503  0.7521
  105MOL0     C14086   6.687   4.113   3.533 -0.5781  0.0239 -0.1632
  105MOL0     O14087   6.493   3.992   3.714 -0.1224 -0.3138  0.0440
  105MOL0     C14088   6.207   4.023   3.762 -0.4182 -0.3951 -0.9893
  105MOL0     C14089   6.064   4.051   3.770  0.5576 -0.5623 -0.3598
  105MOL0     N14090   5.408   3.890   3.456  0.2498  0.8140 -0.0801
  105MOL0     N14091   5.328   3.829   3.383 -0.4907  0.7172 -0.5089
  105MOL0     C14092   4.214   3.932   2.614 -0.5386 -0.5132 -0.2226
  105MOL0     C14093   4.159   3.938   2.485 -0.0339  0.3948 -0.2444
  105MOL0     C14094   3.947   3.883   2.122  0.3434  0.0817  0.1211
  105MOL0     C14095   4.020   3.958   2.033 -0.3186  0.6674  0.4156
  105MOL0     C14096   3.961   4.017   1.920 -0.2183 -0.6509  0.0406
  105MOL0     C14097   3.831   3.993   1.887  1.2713  0.7326 -0.1361
  105MOL0     O14098   3.776   4.054   1.777 -0.1848 -0.1986 -0.0285
  105MOL0     C14099   3.633   4.042   1.755  1.1271  0.3789  0.3059
  105MOL0     C14100   3.599   4.129   1.638 -0.6679  0.7264  0.4171
  105MOL0     C14101   3.600   4.272   1.679  0.0909 -0.7138 -0.0038
  105MOL0     C14102   3.558   4.367   1.569  0.1855  0.7465 -0.6750
  105MOL0     C14103   3.632   4.356   1.447 -0.5104 -0.2450 -1.0505
  105MOL0     C14104   3.707   4.335   1.362 -0.4628 -0.2751 -0.6184
  105MOL0     C14105   3.757   3.912   1.976 -0.3827  0.1218  1.3826
  105MOL0     C14106   3.808   3.870   2.095 -0.1812  0.3486  0.1440
  105MOL0     C14107   3.704   3.806   2.187 -0.2071  0.2350  0.5328
  105MOL0     H14108   4.371   3.731   2.311 -2.4578 -0.4556 -1.4593
  105MOL0     H14109   4.471   3.724   2.541  0.8497  0.7139  0.4082
  105MOL0     H14110   4.517   3.700   2.762  1.1783 -0.3308  0.9363
  105MOL0     H14111   4.567   3.862   2.722  0.5199 -0.3564  0.0420
  105MOL0     H14112   4.455   3.783   2.999 -0.8831  0.9428 -0.9641
  105MOL0     H14113   4.499   3.935   2.957 -3.0986 -0.7186 -0.5586
  105MOL0     H14114   4.735   3.895   2.916 -0.5961  0.8014  1.5280
  105MOL0     H14115   4.709   3.723   2.954 -0.7234  0.0712 -2.2606
  105MOL0     H14116   4.673   3.959   3.147 -2.3480 -1.3565 -0.0416
  105MOL0     H14117   4.618   3.799   3.185 -1.0431  0.6821 -0.3625
  105MOL0     H14118   4.859   3.710   3.146  2.2899  0.1128  1.0864
  105MOL0     H14119   4.893   3.888   3.117 -0.7757  1.1726  0.0274
  105MOL0     H14120   4.804   3.929   3.343  0.3598 -0.6640  1.6536
  105MOL0     H14121   4.788   3.764   3.376  0.1887 -0.5292 -0.0588
  105MOL0     H14122   5.023   3.702   3.391 -2.1272 -0.0596  1.3738
  105MOL0     H14123   4.998   3.869   3.464 -0.7143  0.9911 -0.4974
  105MOL0     H14124   5.135   3.799   3.207  1.9932 -0.7189  2.2614
  105MOL0     H14125   5.061   3.954   3.236 -0.7949 -0.9787 -0.3542
  105MOL0     H14126   5.174   4.106   3.463  1.9979  1.8564  0.3521
  105MOL0     H14127   5.462   4.203   3.525 -0.5668 -0.4404  0.3348
  105MOL0     H14128   5.363   4.146   3.655 -1.7402  1.0565 -2.1207
  105MOL0     H14129   5.544   3.965   3.701 -1.0266 -0.4078 -0.9683
  105MOL0     H14130   5.617   4.016   3.552 -0.6922 -2.0955 -0.0346
  105MOL0     H14131   5.572   4.201   3.794  0.9752  1.1243  0.8986
  105MOL0     H14132   5.651   4.241   3.641  0.4581 -2.6120 -1.5684
  105MOL0     H14133   5.752   4.034   3.825 -0.5746 -0.1074  0.3391
  105MOL0     H14134   5.816   4.202   3.815 -1.0151  1.6898 -1.1741
  105MOL0     H14135   6.007   4.125   3.448  3.1474  3.1781 -0.0459
  105MOL0     H14136   6.240   4.079   3.428  1.1090  1.7143  1.0513
  105MOL0     H14137   6.541   4.008   3.249 -0.5961  0.3233  0.7941
  105MOL0     H14138   6.765   4.030   3.171 -0.9631 -0.9980  0.3269
  105MOL0     H14139   6.980   3.982   3.162 -0.4247  0.7449 -0.9402
  105MOL0     H14140   6.998   4.149   3.112 -0.9418 -2.2978 -1.3239
  105MOL0     H14141   7.212   4.007   3.250  2.3394  0.9629  0.4024
  105MOL0     H14142   7.177   3.988   3.076  0.7536  2.3024 -0.9234
  105MOL0     H14143   7.192   4.261   3.074 -1.9751  0.4543  1.7244
  105MOL0     H14144   7.263   4.236   3.242 -2.2752 -3.3545  1.8212
  105MOL0     H14145   7.384   4.114   2.996  2.8317  1.0651 -1.2093
  105MOL0     H14146   7.452   4.125   3.164  0.7603 -2.4424 -1.2247
  105MOL0     H14147   7.457   4.360   3.133  0.8731 -3.2753  1.9130
  105MOL0     H14148   7.394   4.343   2.964  0.4140 -2.2773 -1.6473
  105MOL0     H14149   7.649   4.229   3.066 -1.3279 -2.1425 -0.0897
  105MOL0     H14150   7.575   4.214   2.897  0.2603 -3.2247  3.0682
  105MOL0     H14151   7.674   4.470   3.033 -1.8373  0.9896 -0.8946
  105MOL0     H14152   7.616   4.458   2.869  0.8329  0.3433 -0.5143
  105MOL0     H14153   7.854   4.325   3.004  0.4495  1.4179 -0.5847
  105MOL0     H14154   7.811   4.287   2.839 -0.0182 -1.5313  0.7688
  105MOL0     H14155   6.885   4.172   3.567  1.3689 -1.7319  0.1785
  105MOL0     H14156   6.655   4.156   3.627  1.4823  0.2638  0.4700
  105MOL0     H14157   6.267   4.008   3.850  1.2069  0.0220 -1.9868
  105MOL0     H14158   6.017   4.051   3.868 -0.2026 -1.4363 -0.7148
  105MOL0     H14159   4.172   3.993   2.693  0.0967 -2.7700  2.0043
  105MOL0     H14160   4.068   3.997   2.484 -2.3252 -2.8594 -0.0065
  105MOL0     H14161   4.125   3.972   2.057 -0.0803 -0.7427  0.2562
  105MOL0     H14162   4.022   4.073   1.849  1.1287  1.8926  2.9343
  105MOL0     H14163   3.569   4.079   1.836 -1.9599  0.6391 -2.0579
  105MOL0     H14164   3.597   3.942   1.729 -1.7869  1.2891  0.4469
  105MOL0     H14165   3.501   4.116   1.591  0.5664 -2.0131 -1.6244
  105MOL0     H14166   3.679   4.112   1.565 -0.0642  2.9364  0.4957
  105MOL0     H14167   3.703   4.296   1.708 -0.8442  0.4308  2.6958
  105MOL0     H14168   3.541   4.292   1.769  1.4791 -0.1277  0.8215
  105MOL0     H14169   3.453   4.348   1.545  0.1687  0.3702 -0.3087
  105MOL0     H14170   3.562   4.467   1.614 -1.6846 -0.2909  2.1261
  105MOL0     H14171   3.775   4.317   1.281  1.5643  1.2068  0.6762
  105MOL0     H14172   3.653   3.887   1.954  0.1245 -2.0149  1.2145
  105MOL0     H14173   3.605   3.792   2.142 -1.1240  1.6967  1.9765
  105MOL0     H14174   3.734   3.711   2.232 -0.1506 -0.0195 -0.0393
  105MOL0     H14175   3.687   3.876   2.269 -3.2098 -1.8667  1.9321
  106MOL0     O14176  10.010  11.187   1.061  0.3582 -0.0600  0.4006
  106MOL0     C14177   9.991  11.073   1.012  0.2481  0.3160 -0.0647
  106MOL0     O14178  10.090  10.993   0.952  0.9319 -0.2227  0.1216
  106MOL0     C14179  10.212  11.051   0.955 -0.4047  0.0717  1.1315
  106MOL0     C14180  10.291  11.078   1.072 -0.3848 -0.8369  0.2190
  106MOL0     C14181  10.416  11.144   1.053 -1.2988  0.0106  0.4085
  106MOL0     C14182  10.463  11.182   0.924 -0.0566 -1.0241  0.6480
  106MOL0     O14183  10.585  11.245   0.896  0.3227  0.0197 -0.2293
  106MOL0     C14184  10.699  11.209   0.976  0.7393  0.5005 -0.2357
  106MOL0     C14185  10.828  11.252   0.911  1.0711 -0.5388  0.6178
  106MOL0     C14186  10.835  11.208   0.758 -0.6631  0.5617  0.5725
  106MOL0     C14187  10.946  11.280   0.687 -0.2567  0.2133  0.1070
  106MOL0     C14188  10.963  11.239   0.538  0.8216  0.1632  0.2664
  106MOL0     C14189  11.023  11.354   0.457 -0.0655  0.7024  0.0423
  106MOL0     C14190  11.086  11.304   0.326 -0.3983 -0.2587 -0.0802
  106MOL0     C14191  10.986  11.251   0.226 -0.1380 -0.4787 -0.5274
  106MOL0     N14192  11.044  11.224   0.094  0.0132  0.2804 -0.2477
  106MOL0     C14193  11.140  11.137   0.062  0.2303  1.1830 -0.0389
  106MOL0     C14194  11.148  11.146  -0.072  0.3246  0.2225  0.2371
  106MOL0     C14195  11.231  11.060  -0.161  0.4635 -0.6040 -0.1433
  106MOL0     C14196  11.369  11.117  -0.196 -0.1229  0.4341  0.2605
  106MOL0     C14197  11.438  11.012  -0.293  0.2711 -0.0680 -0.4420
  106MOL0     C14198  11.590  11.048  -0.323 -0.1533 -0.2241  0.0749
  106MOL0     O14199  11.660  10.935  -0.382  0.0794  0.4717 -0.5167
  106MOL0     C14200  11.797  10.932  -0.391 -0.5853  0.2492  0.6028
  106MOL0     C14201  11.860  10.807  -0.424  0.4656 -0.2252  0.7154
  106MOL0     C14202  11.991  10.794  -0.428 -0.1160 -0.2820  0.2588
  106MOL0     C14203  12.072  10.894  -0.377 -0.1842 -0.1933 -0.0443
  106MOL0     C14204  12.210  10.863  -0.354  0.4540 -0.2297 -1.1351
  106MOL0     O14205  12.240  10.737  -0.306 -0.4935 -0.0218  0.2427
  106MOL0     C14206  12.368  10.703  -0.290 -0.6721  0.0164  0.0329
  106MOL0     C14207  12.471  10.713  -0.394 -0.5485 -0.1969  0.5827
  106MOL0     C14208  12.607  10.686  -0.374 -0.2262  0.7413 -0.2739
  106MOL0     C14209  12.642  10.647  -0.244 -0.9053 -0.0715 -0.0393
  106MOL0     O14210  12.781  10.622  -0.234  0.1096 -0.0892 -0.7309
  106MOL0     C14211  12.831  10.566  -0.104 -0.2319 -0.6528  0.4323
  106MOL0     C14212  12.977  10.566  -0.116 -0.8003  0.3582 -0.3057
  106MOL0     C14213  13.038  10.527   0.017  0.1744  0.7109  0.2653
  106MOL0     C14214  13.193  10.535   0.006  0.3038 -0.1957 -0.0306
  106MOL0     C14215  13.265  10.531   0.139 -0.8708  0.1141 -0.2824
  106MOL0     C14216  13.266  10.676   0.208 -0.4032  0.5445 -0.5980
  106MOL0     C14217  13.364  10.679   0.332  0.6762  0.8088  0.2479
  106MOL0     C14218  13.321  10.577   0.435  0.2190  0.4133 -0.5331
  106MOL0    Cl14219  13.357  10.403   0.402 -0.0610 -0.1444 -0.0987
  106MOL0     C14220  12.551  10.645  -0.139  0.0094 -0.2886  0.6836
  106MOL0     C14221  12.418  10.668  -0.166  0.0258  0.7413 -0.2484
  106MOL0     O14222  12.288  10.943  -0.394  0.4498  0.1460  0.1068
  106MOL0     C14223  12.019  11.023  -0.349 -0.7598  0.7532 -0.6112
  106MOL0     C14224  11.884  11.037  -0.363  0.2304  0.9412  0.3713
  106MOL0     N14225  11.070  11.245  -0.119 -0.1233 -0.3788 -0.5182
  106MOL0     N14226  11.011  11.293  -0.015  0.6022 -0.5961 -0.2043
  106MOL0     C14227  10.384  11.158   0.810  0.6465 -0.0032 -1.1966
  106MOL0     C14228  10.261  11.099   0.828 -0.1088 -0.8025 -0.2644
  106MOL0     C14229   9.847  11.007   1.008 -0.2683  0.3810  0.1493
  106MOL0     C14230   9.788  10.961   0.888  0.5945 -0.5505  0.6606
  106MOL0     C14231   9.656  10.921   0.889 -0.8430 -0.4501 -0.4038
  106MOL0     C14232   9.582  10.914   1.012  0.4572  0.6374  0.2362
  106MOL0     O14233   9.457  10.864   1.011  0.5359  0.4586  0.4612
  106MOL0     C14234   9.424  10.788   1.118  0.6061 -0.0171  0.6533
  106MOL0     C14235   9.308  10.689   1.086  0.5895 -0.1137 -0.1384
  106MOL0     C14236   9.333  10.586   0.971  0.3626  0.4845  0.2704
  106MOL0     C14237   9.221  10.482   0.963  0.2551  0.1108 -0.5811
  106MOL0     C14238   9.222  10.389   0.850  0.6329 -1.4562 -1.0864
  106MOL0     C14239   9.209  10.303   0.769  0.4074  0.4217 -0.6937
  106MOL0     C14240   9.633  10.963   1.128 -1.1753 -1.0050  0.2813
  106MOL0     C14241   9.769  11.014   1.125 -0.0550  0.1940  0.4059
  106MOL0     C14242   9.841  11.045   1.259  0.1888  0.7839 -0.3792
  106MOL0     H14243  10.270  11.048   1.175 -0.4380  0.2450  0.5341
  106MOL0     H14244  10.488  11.146   1.134  3.0171 -4.5879 -2.6635
  106MOL0     H14245  10.692  11.252   1.077 -1.8941  2.4175 -1.1330
  106MOL0     H14246  10.688  11.101   0.990 -2.7358  0.5491 -1.5819
  106MOL0     H14247  10.914  11.219   0.969  1.2025  0.6845  1.1429
  106MOL0     H14248  10.816  11.361   0.917 -4.0514 -0.8927  1.2826
  106MOL0     H14249  10.740  11.219   0.706 -0.2309  0.2178 -0.3081
  106MOL0     H14250  10.855  11.102   0.739  0.5285  0.9975 -0.8079
  106MOL0     H14251  10.930  11.388   0.682  1.4017  0.4717 -0.2762
  106MOL0     H14252  11.041  11.254   0.735 -0.3293  0.4619  0.3841
  106MOL0     H14253  11.017  11.144   0.531 -0.3028 -0.4244 -0.6864
  106MOL0     H14254  10.864  11.218   0.496 -0.7482  0.4876  3.4802
  106MOL0     H14255  10.944  11.428   0.439 -2.1488 -1.2971  0.5294
  106MOL0     H14256  11.101  11.403   0.516  2.4354  1.5164 -3.6145
  106MOL0     H14257  11.165  11.231   0.346  1.7864  2.1256  0.5980
  106MOL0     H14258  11.141  11.390   0.285  0.1000  0.2944  1.6454
  106MOL0     H14259  10.940  11.161   0.267 -0.0225 -0.6061 -0.6746
  106MOL0     H14260  10.899  11.316   0.214 -0.7206 -1.3147 -0.9083
  106MOL0     H14261  11.189  11.069   0.131  0.4683  2.0015  0.6096
  106MOL0     H14262  11.253  10.958  -0.129  1.1392 -0.0760  1.1950
  106MOL0     H14263  11.176  11.053  -0.255 -0.9203 -0.2104  0.6018
  106MOL0     H14264  11.368  11.220  -0.234 -0.1166 -0.0505 -1.1284
  106MOL0     H14265  11.425  11.122  -0.102 -0.1312 -0.4686  0.3279
  106MOL0     H14266  11.387  10.995  -0.388 -0.2602  1.5441 -0.4854
  106MOL0     H14267  11.449  10.916  -0.242  1.1272 -0.4415 -1.3011
  106MOL0     H14268  11.651  11.090  -0.243  2.0485 -1.4099 -0.9113
  106MOL0     H14269  11.588  11.119  -0.406 -3.7506 -0.6015 -0.3356
  106MOL0     H14270  11.795  10.721  -0.431 -2.0926  1.6209  0.2992
  106MOL0     H14271  12.033  10.698  -0.457  0.2831 -0.1174  0.2834
  106MOL0     H14272  12.434  10.732  -0.494 -1.7141 -2.3912  0.5409
  106MOL0     H14273  12.676  10.682  -0.459 -0.7188 -1.2630 -0.6214
  106MOL0     H14274  12.795  10.630  -0.024 -3.6673  1.8014 -2.7498
  106MOL0     H14275  12.796  10.463  -0.091  0.7735 -1.6994 -3.6645
  106MOL0     H14276  13.003  10.498  -0.198 -2.9717  2.0540 -2.5750
  106MOL0     H14277  13.004  10.668  -0.144 -0.3937  1.0943  2.4219
  106MOL0     H14278  13.001  10.589   0.099  0.3649  1.6613 -0.3573
  106MOL0     H14279  13.009  10.430   0.058  0.8155  1.1688  1.8934
  106MOL0     H14280  13.218  10.630  -0.042 -0.9775 -0.6471 -1.6589
  106MOL0     H14281  13.235  10.453  -0.051  2.1760  2.3018 -2.5281
  106MOL0     H14282  13.368  10.501   0.114 -0.3444 -0.0444  1.8742
  106MOL0     H14283  13.214  10.464   0.208 -1.0280 -0.7993 -1.2685
  106MOL0     H14284  13.298  10.751   0.134 -1.3320  1.7667  0.1925
  106MOL0     H14285  13.161  10.694   0.232 -0.6189 -0.6252 -0.6172
  106MOL0     H14286  13.373  10.780   0.374 -0.3362  0.7575  0.6147
  106MOL0     H14287  13.464  10.658   0.291  0.4971  2.1887 -0.9795
  106MOL0     H14288  13.351  10.602   0.537  0.1225  0.3886 -0.4987
  106MOL0     H14289  13.214  10.592   0.448  0.6146  2.0380  1.1638
  106MOL0     H14290  12.580  10.632  -0.035  1.5412 -0.4619  0.2602
  106MOL0     H14291  12.348  10.666  -0.084 -1.0441  0.3003 -1.1446
  106MOL0     H14292  12.089  11.102  -0.324  0.5377 -0.1860 -1.2099
  106MOL0     H14293  11.838  11.132  -0.341 -1.6693  0.0678  0.3503
  106MOL0     H14294  10.408  11.184   0.708  0.2098  0.6575 -1.1427
  106MOL0     H14295  10.202  11.091   0.737  0.1306  0.1877 -0.5182
  106MOL0     H14296   9.830  10.970   0.788 -2.1721 -0.8751 -0.6446
  106MOL0     H14297   9.608  10.893   0.795 -0.6154 -3.2094  0.2246
  106MOL0     H14298   9.380  10.854   1.194  0.3137  0.4555  0.0797
  106MOL0     H14299   9.503  10.729   1.165  1.7724  0.7799 -0.2509
  106MOL0     H14300   9.215  10.745   1.072  0.7406 -0.1032 -1.2420
  106MOL0     H14301   9.300  10.634   1.180  0.3824 -0.3144 -0.2731
  106MOL0     H14302   9.424  10.537   1.004  0.2088  0.8167  1.2381
  106MOL0     H14303   9.342  10.641   0.876 -1.1171 -1.3085 -0.9913
  106MOL0     H14304   9.222  10.427   1.057  1.8836 -0.8787 -1.1381
  106MOL0     H14305   9.118  10.518   0.973 -0.3808 -0.8261 -3.0160
  106MOL0     H14306   9.206  10.227   0.694 -0.6612  0.8039 -1.0547
  106MOL0     H14307   9.589  10.972   1.227  1.1943  2.3185  1.2071
  106MOL0     H14308   9.785  11.003   1.343  0.2364 -3.3568 -2.1434
  106MOL0     H14309   9.938  10.993   1.262 -1.0990 -1.7803 -0.3213
  106MOL0     H14310   9.862  11.152   1.264 -1.1925  1.1708 -1.9459
  107MOL0     O14311   4.152   0.601  10.895  0.4451  0.1915  0.2110
  107MOL0     C14312   4.109   0.508  10.967  0.3185 -0.5724  0.1488
  107MOL0     O14313   4.178   0.400  10.989  0.7131  0.0767  0.0163
  107MOL0     C14314   4.314   0.427  10.995  0.1579  0.2530 -0.7506
  107MOL0     C14315   4.369   0.504  11.099 -0.4406  0.0326 -1.0457
  107MOL0     C14316   4.506   0.525  11.114 -1.4592 -0.5533 -0.6655
  107MOL0     C14317   4.594   0.485  11.021  0.1298  0.8963  0.4193
  107MOL0     O14318   4.724   0.526  11.037 -0.6227  0.2589  0.2610
  107MOL0     C14319   4.822   0.437  10.980  0.5363 -0.2206  0.0820
  107MOL0     C14320   4.965   0.480  11.029 -0.4801  0.3925  0.3279
  107MOL0     C14321   5.067   0.382  10.978 -0.4851 -0.0312 -0.0385
  107MOL0     C14322   5.208   0.413  11.036  0.1454  0.6814 -0.6251
  107MOL0     C14323   5.303   0.323  10.963 -0.6168  0.6031  0.7889
  107MOL0     C14324   5.450   0.352  10.996 -0.7767  0.6067  0.0180
  107MOL0     C14325   5.538   0.248  10.925 -0.4191 -0.3668  0.1489
  107MOL0     C14326   5.684   0.307  10.926  0.2567 -0.3150 -0.3854
  107MOL0     N14327   5.691   0.411  10.830  0.3185  0.6185  0.0204
  107MOL0     C14328   5.688   0.552  10.852 -1.1780  0.5294 -0.0025
  107MOL0     C14329   5.710   0.604  10.725  0.1772  0.2915  0.2258
  107MOL0     C14330   5.707   0.745  10.685  0.2476  0.0350 -0.3330
  107MOL0     C14331   5.849   0.803  10.673 -0.1331  0.0901  1.2052
  107MOL0     C14332   5.924   0.810  10.806 -0.1347 -0.4197 -0.1439
  107MOL0     C14333   6.062   0.865  10.781 -0.3423  0.1405  0.1483
  107MOL0     O14334   6.066   1.001  10.836  0.1379 -0.1780 -1.8630
  107MOL0     C14335   6.191   1.048  10.850  0.3658 -0.2152 -0.1829
  107MOL0     C14336   6.210   1.187  10.863 -0.5362 -0.0273  0.9698
  107MOL0     C14337   6.339   1.240  10.850  0.1360 -0.5696 -0.6602
  107MOL0     C14338   6.454   1.159  10.846  1.0805 -0.2939  0.3290
  107MOL0     C14339   6.593   1.205  10.830  0.5356 -0.8899  0.3084
  107MOL0     O14340   6.600   1.340  10.824  0.1807  0.0822 -0.2342
  107MOL0     C14341   6.730   1.392  10.830  0.2173 -0.0658  0.4732
  107MOL0     C14342   6.827   1.369  10.728 -0.2277  0.3503 -0.2003
  107MOL0     C14343   6.963   1.415  10.740 -0.0205  0.7137 -0.2446
  107MOL0     C14344   6.999   1.486  10.858 -0.7246  0.1230  0.0335
  107MOL0     O14345   7.128   1.529  10.897 -0.4060 -0.6345  0.2680
  107MOL0     C14346   7.242   1.514  10.807 -0.7984 -0.8938 -0.6695
  107MOL0     C14347   7.315   1.383  10.809  0.2614  0.5758  0.3579
  107MOL0     C14348   7.360   1.351  10.952 -0.1612  0.0524 -0.0621
  107MOL0     C14349   7.440   1.227  10.967 -0.2118  0.4366  0.4873
  107MOL0     C14350   7.487   1.193  11.115  0.1147 -0.9435 -0.0031
  107MOL0     C14351   7.620   1.120  11.100 -0.3656  0.4394 -0.3869
  107MOL0     C14352   7.681   1.085  11.235  0.5298  0.2049  0.3948
  107MOL0     C14353   7.749   1.202  11.303 -0.0810 -0.2285  0.3617
  107MOL0    Cl14354   7.841   1.153  11.450  0.1601  0.0785  0.1840
  107MOL0     C14355   6.899   1.510  10.953 -0.7303 -0.1180 -0.0112
  107MOL0     C14356   6.767   1.468  10.937  0.2138 -0.1237 -0.4755
  107MOL0     O14357   6.682   1.123  10.812 -0.7867  0.1985  0.0658
  107MOL0     C14358   6.435   1.021  10.851 -0.5135 -0.2295  0.2365
  107MOL0     C14359   6.307   0.970  10.854  0.1216  0.6465 -0.3630
  107MOL0     N14360   5.716   0.496  10.633 -0.0332  0.0458  0.2138
  107MOL0     N14361   5.699   0.391  10.694  0.4708 -0.1722 -0.4808
  107MOL0     C14362   4.544   0.405  10.915 -0.0916 -0.1113 -0.8518
  107MOL0     C14363   4.407   0.378  10.907 -0.6283  0.6488 -0.2791
  107MOL0     C14364   3.967   0.527  11.017 -0.1443  0.4753  0.9141
  107MOL0     C14365   3.915   0.431  11.106  0.2959 -0.2643 -0.2939
  107MOL0     C14366   3.794   0.444  11.175  0.1467  0.2968  1.2034
  107MOL0     C14367   3.707   0.555  11.147  0.2512  0.2305  0.3233
  107MOL0     O14368   3.581   0.575  11.205 -0.6760  0.2151  0.5887
  107MOL0     C14369   3.529   0.476  11.300 -0.1375 -0.2730  0.3349
  107MOL0     C14370   3.574   0.515  11.442  0.1086  0.3284 -0.2014
  107MOL0     C14371   3.488   0.615  11.518 -0.2615 -0.1457 -0.5592
  107MOL0     C14372   3.529   0.617  11.666 -0.2755 -0.1056  0.5461
  107MOL0     C14373   3.664   0.681  11.700  0.7900  0.4329  0.2002
  107MOL0     C14374   3.771   0.731  11.724  0.3087  0.4756  0.0620
  107MOL0     C14375   3.758   0.647  11.059  0.6435  0.3801  1.1485
  107MOL0     C14376   3.883   0.635  10.988  0.9351 -0.3268  0.1678
  107MOL0     C14377   3.915   0.754  10.903 -0.3047  0.5585  0.7302
  107MOL0     H14378   4.296   0.543  11.170  1.9078 -1.5304  2.4900
  107MOL0     H14379   4.540   0.586  11.197  1.3411 -0.6879 -1.6006
  107MOL0     H14380   4.799   0.333  11.005 -0.6585  0.6267  2.9672
  107MOL0     H14381   4.802   0.446  10.873 -0.8640  0.3890  0.3705
  107MOL0     H14382   4.963   0.473  11.139  0.2269  0.5734  0.3577
  107MOL0     H14383   4.987   0.584  11.001 -1.4379  0.8569  1.2144
  107MOL0     H14384   5.059   0.394  10.870 -0.2381  1.2272  0.0674
  107MOL0     H14385   5.042   0.278  11.001 -0.1635 -0.1677 -0.2951
  107MOL0     H14386   5.238   0.517  11.023 -1.0933  1.1428 -0.0072
  107MOL0     H14387   5.202   0.397  11.144 -0.3327 -2.0383 -0.9663
  107MOL0     H14388   5.282   0.218  10.984 -1.6925  0.2662 -1.6555
  107MOL0     H14389   5.288   0.338  10.855 -2.3464 -0.4451  0.8593
  107MOL0     H14390   5.460   0.451  10.950  1.4640 -0.5570 -2.2821
  107MOL0     H14391   5.462   0.359  11.105 -1.3381  1.4043  0.0362
  107MOL0     H14392   5.491   0.236  10.828 -1.7630 -2.3933  0.9859
  107MOL0     H14393   5.532   0.155  10.982  3.8022  1.2240  3.9134
  107MOL0     H14394   5.708   0.345  11.026 -1.6189 -2.7493  1.0962
  107MOL0     H14395   5.750   0.226  10.894  1.3814  1.2253 -2.2147
  107MOL0     H14396   5.671   0.610  10.942 -1.4975  2.1302 -1.0428
  107MOL0     H14397   5.650   0.747  10.592  2.2441  0.4058 -1.6123
  107MOL0     H14398   5.650   0.795  10.764 -0.8547 -2.8901  0.8437
  107MOL0     H14399   5.901   0.740  10.600 -1.8796 -0.4411  0.3703
  107MOL0     H14400   5.846   0.906  10.637 -2.3440  0.0293  1.1069
  107MOL0     H14401   5.935   0.711  10.850  0.8601  0.1823  1.0001
  107MOL0     H14402   5.883   0.884  10.875  2.2314 -1.5227  2.6513
  107MOL0     H14403   6.103   0.866  10.680 -0.2578  1.1907  0.1810
  107MOL0     H14404   6.132   0.802  10.837  1.2478  0.6631 -1.1809
  107MOL0     H14405   6.125   1.249  10.887 -1.6237 -1.3646  0.7110
  107MOL0     H14406   6.355   1.345  10.873 -1.1742 -0.5588  0.3065
  107MOL0     H14407   6.797   1.301  10.648  2.5988 -1.1542 -0.1126
  107MOL0     H14408   7.046   1.387  10.676  0.3409  1.6092 -0.1808
  107MOL0     H14409   7.218   1.550  10.706 -0.3820 -0.6920 -0.6966
  107MOL0     H14410   7.311   1.586  10.851 -3.0429  1.3406 -0.5767
  107MOL0     H14411   7.261   1.295  10.771  3.8860 -1.1670 -1.2381
  107MOL0     H14412   7.411   1.386  10.756  2.4462 -2.0200  3.7266
  107MOL0     H14413   7.391   1.442  11.004 -1.1360 -0.0473  0.7294
  107MOL0     H14414   7.271   1.325  11.009  0.7663 -0.4326  1.2192
  107MOL0     H14415   7.522   1.234  10.896 -1.2469 -1.6595 -1.0176
  107MOL0     H14416   7.367   1.149  10.942 -1.2438  0.7611  2.2539
  107MOL0     H14417   7.414   1.136  11.173 -2.6306  2.3764  0.1220
  107MOL0     H14418   7.511   1.288  11.165  1.3778 -0.3033 -1.7374
  107MOL0     H14419   7.604   1.028  11.044 -1.1946  0.8016 -0.7766
  107MOL0     H14420   7.689   1.184  11.044 -0.5884  1.7667  0.7624
  107MOL0     H14421   7.758   1.010  11.214 -0.7286  0.0576 -5.3143
  107MOL0     H14422   7.606   1.034  11.296  1.2534 -2.2656 -0.6244
  107MOL0     H14423   7.819   1.255  11.238 -1.1627 -0.6114 -1.1813
  107MOL0     H14424   7.671   1.268  11.341 -1.2264 -2.8854  3.0164
  107MOL0     H14425   6.931   1.558  11.045 -0.2137  1.7116 -1.0892
  107MOL0     H14426   6.702   1.490  11.021  3.6159  2.2050  1.8329
  107MOL0     H14427   6.518   0.952  10.852 -0.8646 -0.7362 -1.8294
  107MOL0     H14428   6.307   0.861  10.855  1.3439  0.6071  1.8464
  107MOL0     H14429   4.616   0.369  10.842  2.7635  0.1576  1.6213
  107MOL0     H14430   4.372   0.326  10.818 -0.9680  0.5497 -0.0897
  107MOL0     H14431   3.977   0.348  11.139  1.0002  1.2177  2.4843
  107MOL0     H14432   3.778   0.364  11.246 -1.0191  0.8891  1.6357
  107MOL0     H14433   3.565   0.379  11.266  3.4113  0.4435  1.6038
  107MOL0     H14434   3.419   0.471  11.296 -0.1839 -4.4689  1.8614
  107MOL0     H14435   3.678   0.546  11.427  0.8481 -1.8116  0.0862
  107MOL0     H14436   3.586   0.423  11.501  1.5678  0.2910 -0.5224
  107MOL0     H14437   3.392   0.563  11.504  1.7291 -3.8062 -1.8657
  107MOL0     H14438   3.495   0.714  11.472  2.0519  0.2494  0.5236
  107MOL0     H14439   3.455   0.676  11.721 -2.5514 -2.8503  0.6421
  107MOL0     H14440   3.521   0.514  11.703  6.0021 -1.3527 -0.4176
  107MOL0     H14441   3.864   0.778  11.746  0.8830  0.3129 -1.8251
  107MOL0     H14442   3.714   0.746  11.052  0.0727  0.0744  0.2804
  107MOL0     H14443   3.975   0.731  10.815 -2.6782 -2.0316 -0.3220
  107MOL0     H14444   3.827   0.804  10.861  1.0987  3.4199  0.9262
  107MOL0     H14445   3.950   0.834  10.969 -2.2440  0.0566  2.4872
  108MOL0     O14446   0.311   8.353   0.499 -0.7381 -0.2475 -0.3255
  108MOL0     C14447   0.410   8.372   0.423  0.2174  0.3099  0.1851
  108MOL0     O14448   0.411   8.388   0.284 -0.5056  0.4425  0.1160
  108MOL0     C14449   0.304   8.347   0.212  0.6586  0.1543  0.3662
  108MOL0     C14450   0.294   8.403   0.086  0.0184 -0.5484 -0.5009
  108MOL0     C14451   0.211   8.342  -0.013  0.5403 -0.8707 -0.4379
  108MOL0     C14452   0.120   8.239   0.022 -0.0242 -0.5016  0.0314
  108MOL0     O14453   0.035   8.205  -0.076 -0.3397 -0.7200 -0.2087
  108MOL0     C14454  -0.105   8.182  -0.045  0.5819 -0.6730  0.0925
  108MOL0     C14455  -0.204   8.145  -0.152 -0.7405  0.1034  0.1486
  108MOL0     C14456  -0.326   8.075  -0.090  0.4242  0.0815 -0.3857
  108MOL0     C14457  -0.340   7.925  -0.126  0.5517 -0.2724 -0.3752
  108MOL0     C14458  -0.464   7.867  -0.057 -1.4982 -0.7408 -0.3716
  108MOL0     C14459  -0.494   7.723  -0.084 -0.1988 -0.3976 -0.3667
  108MOL0     C14460  -0.407   7.620  -0.002 -0.2850 -0.2173  0.1297
  108MOL0     C14461  -0.463   7.595   0.142 -0.2737  0.2514  0.8028
  108MOL0     N14462  -0.372   7.516   0.224 -0.0754 -0.1956 -0.0310
  108MOL0     C14463  -0.292   7.570   0.312 -0.5915 -0.1546  0.0602
  108MOL0     C14464  -0.246   7.468   0.386 -0.5799  0.1661 -0.0761
  108MOL0     C14465  -0.150   7.480   0.509  0.4174  0.8452  0.4996
  108MOL0     C14466  -0.001   7.460   0.492  0.1155  1.2497  0.3340
  108MOL0     C14467   0.074   7.583   0.493  0.5961  0.3529 -0.6156
  108MOL0     C14468   0.225   7.579   0.457 -0.4489 -0.1727  0.1888
  108MOL0     O14469   0.287   7.468   0.514  0.1738 -0.4282  0.2239
  108MOL0     C14470   0.426   7.458   0.511 -0.0911  0.0291  0.7524
  108MOL0     C14471   0.489   7.348   0.578 -0.5587 -0.0534 -0.5032
  108MOL0     C14472   0.621   7.339   0.592  0.1497  0.2649  1.4377
  108MOL0     C14473   0.696   7.424   0.510 -0.3277  0.3547 -1.1973
  108MOL0     C14474   0.842   7.401   0.508 -0.3735  0.3361 -0.1657
  108MOL0     O14475   0.914   7.519   0.474  0.0084 -0.5172 -0.4751
  108MOL0     C14476   1.052   7.522   0.479 -0.4499 -0.7233  0.2135
  108MOL0     C14477   1.102   7.647   0.522  0.1260 -0.1957  0.4326
  108MOL0     C14478   1.241   7.666   0.532 -0.2295 -0.1941 -0.0946
  108MOL0     C14479   1.331   7.567   0.502  0.0921 -0.1595 -0.2089
  108MOL0     O14480   1.471   7.578   0.510  0.0614 -0.7997  0.3102
  108MOL0     C14481   1.518   7.685   0.426 -0.5696  0.2512  0.2542
  108MOL0     C14482   1.653   7.645   0.365  0.4756  0.3928 -0.6256
  108MOL0     C14483   1.646   7.535   0.262 -1.1661  0.1634 -0.5514
  108MOL0     C14484   1.790   7.497   0.217  0.2977  0.2814  0.0119
  108MOL0     C14485   1.874   7.609   0.158  0.2177 -0.6313  0.5623
  108MOL0     C14486   2.022   7.569   0.166 -0.2932  0.7402 -1.4534
  108MOL0     C14487   2.118   7.674   0.096 -0.2602  0.2955 -0.2032
  108MOL0     C14488   2.125   7.665  -0.051  0.1946  0.4047  0.5375
  108MOL0    Cl14489   2.214   7.809  -0.109 -0.0483 -0.3014 -0.5337
  108MOL0     C14490   1.283   7.446   0.454  0.5486 -0.2057  0.6158
  108MOL0     C14491   1.147   7.425   0.436 -0.7181 -0.4594 -0.1155
  108MOL0     O14492   0.887   7.283   0.536 -0.0682  0.0497 -0.1181
  108MOL0     C14493   0.640   7.529   0.436  0.6101 -1.6522  0.4905
  108MOL0     C14494   0.506   7.543   0.436  0.2174 -0.3491 -0.3821
  108MOL0     N14495  -0.298   7.359   0.341 -0.4619  0.3734  0.2793
  108MOL0     N14496  -0.381   7.379   0.246  0.3361 -0.6884  0.3158
  108MOL0     C14497   0.114   8.191   0.150  0.3456 -0.0683 -0.3176
  108MOL0     C14498   0.215   8.242   0.243 -0.4861 -0.7435  0.0076
  108MOL0     C14499   0.545   8.371   0.486  0.1012 -0.4692 -0.1690
  108MOL0     C14500   0.649   8.320   0.409 -0.1161  0.0665  0.4948
  108MOL0     C14501   0.778   8.316   0.456  0.5448  0.3916  0.1914
  108MOL0     C14502   0.804   8.355   0.583 -0.8478 -0.0584  0.5042
  108MOL0     O14503   0.943   8.364   0.609 -0.5111 -0.3302  0.3690
  108MOL0     C14504   0.984   8.411   0.736  0.5905 -0.3817 -0.4176
  108MOL0     C14505   1.122   8.473   0.739  0.0328 -0.4470 -0.5255
  108MOL0     C14506   1.185   8.476   0.883  0.2704 -0.2417 -0.0123
  108MOL0     C14507   1.262   8.347   0.921 -0.0087 -0.3840 -0.1077
  108MOL0     C14508   1.360   8.363   1.030 -0.3385 -0.0243 -0.4433
  108MOL0     C14509   1.455   8.391   1.102  0.0916 -0.5116  0.3949
  108MOL0     C14510   0.706   8.414   0.663  0.2141 -0.0389 -1.0081
  108MOL0     C14511   0.581   8.421   0.611  0.1464 -0.0447  0.3870
  108MOL0     C14512   0.489   8.503   0.691 -0.0282  0.0303  0.4382
  108MOL0     H14513   0.373   8.468   0.050 -0.4782 -0.4723 -1.5115
  108MOL0     H14514   0.222   8.387  -0.111 -1.1252 -0.9309 -0.6853
  108MOL0     H14515  -0.096   8.108   0.035 -0.0817  0.6702  1.4801
  108MOL0     H14516  -0.137   8.276   0.002  0.5686 -1.4629  1.7243
  108MOL0     H14517  -0.158   8.077  -0.224 -0.2378  1.7403 -1.1188
  108MOL0     H14518  -0.254   8.226  -0.206 -3.7853 -1.3372  0.6134
  108MOL0     H14519  -0.418   8.120  -0.129 -0.0763  0.4713  1.1699
  108MOL0     H14520  -0.320   8.092   0.018  3.6921  0.1427 -0.4727
  108MOL0     H14521  -0.366   7.920  -0.232  1.8619  0.9184 -0.7748
  108MOL0     H14522  -0.253   7.866  -0.095 -1.2629 -1.9554  1.9848
  108MOL0     H14523  -0.460   7.893   0.049 -0.3054  0.6576 -0.7359
  108MOL0     H14524  -0.550   7.923  -0.094 -0.4058  0.0434 -1.8128
  108MOL0     H14525  -0.602   7.705  -0.080 -0.2248 -0.3078 -0.6711
  108MOL0     H14526  -0.485   7.707  -0.191  0.1320  2.5249 -0.8501
  108MOL0     H14527  -0.303   7.650   0.013 -0.4732  2.4165 -2.7566
  108MOL0     H14528  -0.394   7.526  -0.055 -3.1899 -1.7423  1.8950
  108MOL0     H14529  -0.485   7.689   0.193 -3.2472  0.5243 -0.7634
  108MOL0     H14530  -0.559   7.545   0.122  0.0884  0.9184 -3.4992
  108MOL0     H14531  -0.273   7.677   0.318 -1.2915 -0.0612  0.7627
  108MOL0     H14532  -0.177   7.576   0.554  0.0574  0.5465  0.9294
  108MOL0     H14533  -0.194   7.410   0.581 -0.4613  1.3429  0.4576
  108MOL0     H14534   0.033   7.378   0.556 -1.1241 -0.6552 -1.3365
  108MOL0     H14535   0.020   7.419   0.393  1.5594 -1.3783  1.6145
  108MOL0     H14536   0.063   7.613   0.598  3.5387  2.7589 -0.8536
  108MOL0     H14537   0.024   7.669   0.447 -0.0471  0.1286 -0.3532
  108MOL0     H14538   0.282   7.665   0.492  0.0612 -0.8878  1.1503
  108MOL0     H14539   0.233   7.569   0.348 -0.0466  0.2025  0.1803
  108MOL0     H14540   0.421   7.290   0.640 -0.4387  0.7849  0.4555
  108MOL0     H14541   0.653   7.255   0.653 -0.8419  0.8629  2.8325
  108MOL0     H14542   1.039   7.733   0.545  1.8515  0.5873  2.5800
  108MOL0     H14543   1.282   7.754   0.580  4.7763 -3.0616  1.6669
  108MOL0     H14544   1.447   7.716   0.349  1.6083  0.4708 -1.7569
  108MOL0     H14545   1.539   7.773   0.487 -0.5628  0.7973 -0.5235
  108MOL0     H14546   1.667   7.742   0.318 -2.9378  1.4650  0.2934
  108MOL0     H14547   1.724   7.621   0.445 -2.4376  0.6180  2.2222
  108MOL0     H14548   1.599   7.443   0.299 -1.5424 -0.0464 -1.5268
  108MOL0     H14549   1.597   7.576   0.173  0.0658 -2.4926 -2.5613
  108MOL0     H14550   1.780   7.415   0.145  1.3505  0.6239 -0.5455
  108MOL0     H14551   1.846   7.450   0.298 -0.7937 -1.2248 -0.0434
  108MOL0     H14552   1.849   7.698   0.216 -0.9283 -1.0463  0.7463
  108MOL0     H14553   1.846   7.626   0.054 -0.7070  1.6083  1.1255
  108MOL0     H14554   2.049   7.561   0.272 -3.4371 -0.3817 -0.6189
  108MOL0     H14555   2.028   7.469   0.121  0.0417 -0.0673  0.2806
  108MOL0     H14556   2.219   7.669   0.138  0.7558 -0.6942 -2.6029
  108MOL0     H14557   2.076   7.771   0.126 -2.4948 -0.8053  0.3371
  108MOL0     H14558   2.189   7.579  -0.074 -0.8076 -0.6916  1.6956
  108MOL0     H14559   2.023   7.650  -0.088 -0.8597 -1.0753  3.6587
  108MOL0     H14560   1.347   7.367   0.417  0.5646 -0.5551  1.3675
  108MOL0     H14561   1.119   7.342   0.372  3.4815 -0.5471 -2.1410
  108MOL0     H14562   0.696   7.592   0.368  2.9823 -4.8005 -0.7490
  108MOL0     H14563   0.463   7.620   0.373  1.3510  1.3899  0.8730
  108MOL0     H14564   0.042   8.119   0.188 -1.3450  1.5599 -0.2711
  108MOL0     H14565   0.217   8.191   0.339 -4.0698 -0.3252  0.4321
  108MOL0     H14566   0.628   8.286   0.307 -2.1681  0.3995  0.7729
  108MOL0     H14567   0.865   8.283   0.401  0.0798 -0.9815  0.2332
  108MOL0     H14568   0.995   8.323   0.801 -0.6088  0.1964  0.6107
  108MOL0     H14569   0.916   8.479   0.788  3.1478 -1.0943  4.4449
  108MOL0     H14570   1.114   8.569   0.688 -1.9356 -1.2174 -1.7652
  108MOL0     H14571   1.192   8.414   0.678 -1.4080 -0.5909 -2.0962
  108MOL0     H14572   1.101   8.496   0.950 -1.4767  0.6605 -2.3581
  108MOL0     H14573   1.256   8.559   0.882  2.0889 -1.7278 -0.6154
  108MOL0     H14574   1.187   8.268   0.934 -0.9405  0.3288 -0.9896
  108MOL0     H14575   1.332   8.338   0.837  1.7035  0.7038  1.1206
  108MOL0     H14576   1.531   8.435   1.164 -0.0081 -0.9976  0.8666
  108MOL0     H14577   0.720   8.455   0.763  1.4040 -1.6367 -0.4750
  108MOL0     H14578   0.438   8.432   0.757 -0.5857  0.4561  0.4726
  108MOL0     H14579   0.536   8.582   0.750 -0.9962  0.2371  0.9456
  108MOL0     H14580   0.411   8.545   0.628 -0.6592 -0.3242  0.9629
  109MOL0     O14581   3.103   9.564  10.592 -0.9389 -0.0840  0.5185
  109MOL0     C14582   3.055   9.456  10.613  0.3192  0.0999  0.8186
  109MOL0     O14583   3.118   9.339  10.632  0.1451 -0.0124 -0.4227
  109MOL0     C14584   3.256   9.341  10.624  0.8096 -0.2739  1.1742
  109MOL0     C14585   3.328   9.338  10.739  0.6968 -0.1654 -0.3700
  109MOL0     C14586   3.467   9.343  10.724  0.2878  1.1580 -0.9723
  109MOL0     C14587   3.529   9.336  10.598 -0.0106 -0.5527 -0.1758
  109MOL0     O14588   3.666   9.340  10.589  0.1118  0.2754  0.4327
  109MOL0     C14589   3.716   9.209  10.602 -0.5133  0.3778 -0.1060
  109MOL0     C14590   3.864   9.238  10.592 -0.3468 -0.5925  0.6222
  109MOL0     C14591   3.962   9.122  10.589 -0.0603  0.1122  0.2904
  109MOL0     C14592   4.101   9.171  10.618  0.5687 -0.2292 -0.3707
  109MOL0     C14593   4.211   9.064  10.603 -0.5610  0.7096 -0.5070
  109MOL0     C14594   4.351   9.111  10.657  0.4240  0.0146 -0.3463
  109MOL0     C14595   4.456   9.003  10.624 -0.8517  0.4123 -0.3644
  109MOL0     C14596   4.591   9.046  10.672 -0.1175 -0.8288  0.3164
  109MOL0     N14597   4.641   9.177  10.617  0.4288 -0.8924 -0.5378
  109MOL0     C14598   4.645   9.217  10.489  0.0825 -0.1386  0.5448
  109MOL0     C14599   4.707   9.338  10.488 -0.0541 -0.8227 -0.0298
  109MOL0     C14600   4.724   9.426  10.378  0.5885 -0.0088  0.3960
  109MOL0     C14601   4.838   9.537  10.408  0.5185 -0.1233 -0.2125
  109MOL0     C14602   4.981   9.477  10.432  1.0170 -0.3073  0.8611
  109MOL0     C14603   5.029   9.418  10.301  0.2642 -0.2661 -0.0018
  109MOL0     O14604   5.170   9.426  10.289 -0.8020  0.0730 -0.5656
  109MOL0     C14605   5.238   9.386  10.187  0.2081 -0.0449  0.7458
  109MOL0     C14606   5.185   9.312  10.082  0.7621  0.4915 -0.4937
  109MOL0     C14607   5.267   9.271   9.976  0.0715 -0.2016  0.5230
  109MOL0     C14608   5.413   9.287   9.979  1.0724  0.8937 -1.1750
  109MOL0     C14609   5.497   9.242   9.875 -0.2230  0.1558 -0.2632
  109MOL0     O14610   5.631   9.233   9.891 -0.4871  0.1796  0.3479
  109MOL0     C14611   5.725   9.198   9.803 -0.1448  0.8748  0.3290
  109MOL0     C14612   5.857   9.184   9.857  0.7879 -0.7709  1.0866
  109MOL0     C14613   5.962   9.151   9.777 -0.7009 -0.8319 -0.4748
  109MOL0     C14614   5.950   9.132   9.639  0.4968 -0.0340 -0.4514
  109MOL0     O14615   6.042   9.098   9.548  0.3988 -0.0816  0.2378
  109MOL0     C14616   6.177   9.088   9.592  0.4544 -0.1759 -0.5580
  109MOL0     C14617   6.275   9.040   9.478  0.1996  0.0034 -0.4031
  109MOL0     C14618   6.414   9.087   9.512  0.0581  0.4863 -0.2959
  109MOL0     C14619   6.510   9.025   9.409  0.4526  1.1334  0.1462
  109MOL0     C14620   6.657   9.055   9.428  0.0312  1.1082 -0.7410
  109MOL0     C14621   6.737   9.076   9.295 -0.0575 -0.2910  0.2506
  109MOL0     C14622   6.885   9.078   9.318 -0.5681  0.2090 -0.5800
  109MOL0     C14623   6.957   9.078   9.185 -0.3461  0.6537  0.7997
  109MOL0    Cl14624   7.142   9.103   9.196 -0.2789 -0.2330  0.1570
  109MOL0     C14625   5.821   9.141   9.582  0.7672 -0.1847 -0.1959
  109MOL0     C14626   5.707   9.179   9.663 -0.2525  0.1937 -0.0966
  109MOL0     O14627   5.436   9.226   9.774  0.1661  0.1644  0.1917
  109MOL0     C14628   5.461   9.359  10.090 -0.4718 -0.4713  0.5302
  109MOL0     C14629   5.376   9.408  10.188 -0.2207  0.3167 -0.0568
  109MOL0     N14630   4.758   9.357  10.624 -0.1450 -1.0313  0.0385
  109MOL0     N14631   4.722   9.262  10.694  0.6943 -0.2882 -0.6788
  109MOL0     C14632   3.450   9.332  10.481  0.0682 -0.7656 -0.7057
  109MOL0     C14633   3.309   9.318  10.495 -0.5574 -0.6643 -0.6592
  109MOL0     C14634   2.903   9.457  10.623 -0.2682 -0.3838 -0.3805
  109MOL0     C14635   2.848   9.566  10.687  0.5584 -0.0989 -0.9406
  109MOL0     C14636   2.714   9.570  10.711 -0.4950 -0.7490 -0.0785
  109MOL0     C14637   2.632   9.464  10.681  0.1039  0.6925  0.6471
  109MOL0     O14638   2.502   9.466  10.724 -0.0275 -0.0629  0.4034
  109MOL0     C14639   2.425   9.346  10.702  0.5308 -0.4687  0.6632
  109MOL0     C14640   2.349   9.352  10.564  0.0130  0.4157 -0.5079
  109MOL0     C14641   2.260   9.229  10.547 -0.4631  0.8846  0.6975
  109MOL0     C14642   2.158   9.252  10.439  0.3378 -0.0147 -0.6037
  109MOL0     C14643   2.105   9.133  10.379  0.1558 -0.0230  0.2686
  109MOL0     C14644   2.057   9.030  10.339  0.1750 -0.2842  0.2539
  109MOL0     C14645   2.696   9.348  10.627 -0.3876 -0.3997  0.2153
  109MOL0     C14646   2.828   9.344  10.591  0.3343  0.4070  0.7654
  109MOL0     C14647   2.878   9.212  10.519 -0.5748 -0.5413  0.3092
  109MOL0     H14648   3.267   9.343  10.829  0.9742  1.9711 -0.2370
  109MOL0     H14649   3.526   9.343  10.815 -1.1240  1.9148 -0.0141
  109MOL0     H14650   3.709   9.164  10.702  3.1528  0.9332  0.5602
  109MOL0     H14651   3.670   9.144  10.527 -3.3768  2.4962 -0.3577
  109MOL0     H14652   3.880   9.316  10.667 -2.3679 -1.0488  1.5930
  109MOL0     H14653   3.876   9.280  10.492  3.0041 -2.0901  0.2686
  109MOL0     H14654   3.951   9.082  10.489 -2.7888  0.9674  0.1634
  109MOL0     H14655   3.933   9.045  10.662  0.7487  0.3066  0.8255
  109MOL0     H14656   4.128   9.245  10.543  0.3687  0.0554 -0.1652
  109MOL0     H14657   4.110   9.205  10.722  0.8258  0.3370 -0.5770
  109MOL0     H14658   4.171   8.980  10.660 -0.5728  1.6330  0.8964
  109MOL0     H14659   4.222   9.045  10.495 -2.3713  0.3588 -0.6569
  109MOL0     H14660   4.382   9.200  10.603 -0.6219 -0.6700 -2.1807
  109MOL0     H14661   4.352   9.130  10.765  2.0478 -0.0158 -0.3314
  109MOL0     H14662   4.464   8.986  10.517  1.2557 -1.5751  0.0362
  109MOL0     H14663   4.428   8.908  10.671 -1.5223  1.3797  1.3009
  109MOL0     H14664   4.591   9.052  10.782 -0.6815  1.0791  0.2471
  109MOL0     H14665   4.668   8.972  10.648  0.5048  0.2073 -0.9630
  109MOL0     H14666   4.598   9.163  10.408  2.6012 -0.0784 -1.0660
  109MOL0     H14667   4.739   9.368  10.286 -1.0156 -0.4157  0.3685
  109MOL0     H14668   4.632   9.482  10.360  1.1522  0.8338  0.0499
  109MOL0     H14669   4.839   9.604  10.321 -3.4927 -1.4017 -1.4970
  109MOL0     H14670   4.810   9.603  10.490  2.4967 -0.7531  1.0231
  109MOL0     H14671   4.991   9.414  10.521 -2.3565  0.9964  2.3265
  109MOL0     H14672   5.041   9.567  10.452 -1.9670  1.4918  2.3993
  109MOL0     H14673   4.992   9.483  10.221  3.9843  1.8360 -0.2616
  109MOL0     H14674   4.988   9.318  10.284 -1.8988  0.6351 -0.5525
  109MOL0     H14675   5.082   9.276  10.077  1.8549 -2.8257 -3.3239
  109MOL0     H14676   5.225   9.204   9.902  0.3871 -0.0331  0.1891
  109MOL0     H14677   5.876   9.205   9.962  2.3455 -0.8724  0.8517
  109MOL0     H14678   6.060   9.151   9.824 -0.2116  1.0626 -1.4139
  109MOL0     H14679   6.212   9.186   9.626  0.3986 -1.1595  2.6647
  109MOL0     H14680   6.171   9.024   9.681 -0.9577  1.3439  0.5152
  109MOL0     H14681   6.275   8.931   9.481 -1.0422 -0.0068  2.4281
  109MOL0     H14682   6.239   9.083   9.384 -1.6696  1.9166  1.0876
  109MOL0     H14683   6.419   9.196   9.516 -0.9102  0.5207  2.9938
  109MOL0     H14684   6.448   9.054   9.611  2.9129  2.1359 -0.6108
  109MOL0     H14685   6.474   9.063   9.312  0.0344  0.4741  0.0376
  109MOL0     H14686   6.489   8.918   9.416 -2.8398  1.6673  0.1303
  109MOL0     H14687   6.703   8.979   9.491 -4.4666 -3.7891 -2.6310
  109MOL0     H14688   6.669   9.147   9.486 -1.5590 -0.3719  2.1609
  109MOL0     H14689   6.710   8.995   9.227 -1.8513  0.4715  0.0111
  109MOL0     H14690   6.708   9.168   9.244 -3.0821 -0.2004  1.9282
  109MOL0     H14691   6.913   8.997   9.384 -0.4370  1.9352  1.6024
  109MOL0     H14692   6.904   9.171   9.373  0.1248 -0.8071  0.9512
  109MOL0     H14693   6.935   8.982   9.138  0.2264  0.3621  1.1207
  109MOL0     H14694   6.909   9.158   9.126 -2.6448  0.2976  2.0741
  109MOL0     H14695   5.812   9.138   9.474 -0.4524  2.1404 -0.2224
  109MOL0     H14696   5.613   9.202   9.612 -0.5950 -1.5289 -0.3170
  109MOL0     H14697   5.566   9.387  10.089 -0.8584  1.0807  0.5133
  109MOL0     H14698   5.415   9.460  10.275 -2.8610  1.9542  0.2464
  109MOL0     H14699   3.502   9.351  10.388 -0.4530 -0.3945 -0.9259
  109MOL0     H14700   3.254   9.303  10.403  1.5536  0.6430 -2.2015
  109MOL0     H14701   2.910   9.641  10.735  1.8625 -1.8265  0.2224
  109MOL0     H14702   2.668   9.645  10.775 -2.9160 -1.7038 -0.5787
  109MOL0     H14703   2.347   9.347  10.779 -1.1430 -0.6373 -0.9633
  109MOL0     H14704   2.468   9.247  10.721 -2.4248 -2.0007 -0.0383
  109MOL0     H14705   2.424   9.361  10.485 -0.6266  0.9028 -1.0737
  109MOL0     H14706   2.282   9.438  10.566  0.5657  0.8540 -0.5054
  109MOL0     H14707   2.213   9.189  10.637  0.6548 -0.8113  0.5819
  109MOL0     H14708   2.321   9.144  10.515 -1.0382  0.0998  1.6243
  109MOL0     H14709   2.071   9.293  10.492  0.3338 -0.4140 -0.2939
  109MOL0     H14710   2.190   9.312  10.354  0.1265 -1.0931 -1.4631
  109MOL0     H14711   2.030   8.936  10.296 -0.7605  0.3958 -0.7037
  109MOL0     H14712   2.646   9.255  10.603 -1.1589 -0.1846  0.9474
  109MOL0     H14713   2.924   9.151  10.597 -0.1207  0.6358  0.9911
  109MOL0     H14714   2.802   9.153  10.466  1.8240 -2.4173 -1.2625
  109MOL0     H14715   2.958   9.247  10.454 -0.9098 -2.2232 -1.0604
  110MOL0     O14716   5.912   1.582   2.664 -0.6972  0.0414  0.7654
  110MOL0     C14717   5.864   1.673   2.600 -1.0217 -0.0922  0.1708
  110MOL0     O14718   5.933   1.782   2.547  0.1069  0.0914 -0.1312
  110MOL0     C14719   6.068   1.773   2.540 -0.1280 -0.4925  0.6813
  110MOL0     C14720   6.137   1.881   2.586 -0.5334 -0.4506  0.3584
  110MOL0     C14721   6.274   1.899   2.560 -0.1297 -0.5987 -0.1537
  110MOL0     C14722   6.351   1.793   2.509 -0.1599 -0.1099  0.0224
  110MOL0     O14723   6.484   1.801   2.479  0.0853 -1.2351 -0.1811
  110MOL0     C14724   6.513   1.825   2.339 -0.9458 -0.0732 -0.2312
  110MOL0     C14725   6.661   1.830   2.288 -0.8663 -0.4507 -1.0693
  110MOL0     C14726   6.734   1.940   2.374  0.4215 -1.1092  0.0732
  110MOL0     C14727   6.877   1.959   2.314  1.0675  1.2570 -0.7220
  110MOL0     C14728   6.967   2.075   2.379 -0.4303  0.4324  0.1616
  110MOL0     C14729   7.085   2.101   2.300  0.2411 -0.5053  0.5128
  110MOL0     C14730   7.184   2.195   2.383  0.6937  0.6083  0.4475
  110MOL0     C14731   7.136   2.332   2.343 -0.6556  0.6797  0.7274
  110MOL0     N14732   7.198   2.428   2.442  0.3314  0.0571 -0.3533
  110MOL0     C14733   7.141   2.442   2.566  0.5873  0.5868  0.5312
  110MOL0     C14734   7.221   2.521   2.638  0.7506 -0.2711 -0.0171
  110MOL0     C14735   7.206   2.558   2.786  0.0946  0.4306  0.1148
  110MOL0     C14736   7.320   2.640   2.831 -0.0391 -0.4164 -0.4662
  110MOL0     C14737   7.289   2.783   2.804 -0.7129  0.2679  0.4029
  110MOL0     C14738   7.413   2.865   2.807 -0.0951 -0.0858 -0.2017
  110MOL0     O14739   7.467   2.880   2.939  0.3841  0.4172 -0.2307
  110MOL0     C14740   7.601   2.893   2.956 -0.1956  0.4692 -0.8496
  110MOL0     C14741   7.686   2.947   2.865 -0.0502 -0.0661  0.4764
  110MOL0     C14742   7.819   2.978   2.890  0.6134  0.3942  0.3443
  110MOL0     C14743   7.872   2.945   3.016  0.2831 -0.1927  0.1775
  110MOL0     C14744   8.009   2.964   3.044 -0.6898  0.6798 -0.3746
  110MOL0     O14745   8.079   3.032   2.961 -0.0345 -0.3947 -0.5075
  110MOL0     C14746   8.208   3.078   2.985  0.1777 -1.3576  0.7680
  110MOL0     C14747   8.306   3.083   2.883 -0.5601 -1.9614 -0.0977
  110MOL0     C14748   8.431   3.140   2.902 -0.1707  0.3533 -0.3186
  110MOL0     C14749   8.460   3.213   3.018 -0.6988 -0.1343 -1.0665
  110MOL0     O14750   8.584   3.279   3.048  0.1368  0.9060  0.0503
  110MOL0     C14751   8.678   3.279   2.947 -0.7323  0.4470 -0.2243
  110MOL0     C14752   8.660   3.391   2.851 -0.6430 -0.5195  0.7717
  110MOL0     C14753   8.765   3.400   2.735 -0.2552 -0.2149 -0.1652
  110MOL0     C14754   8.884   3.495   2.758  0.2613  0.1623 -0.4284
  110MOL0     C14755   8.946   3.555   2.633  0.2233  0.1156  0.5773
  110MOL0     C14756   9.081   3.623   2.664  0.5442 -0.6970  0.3905
  110MOL0     C14757   9.133   3.675   2.533  0.4349  0.0527  0.0272
  110MOL0     C14758   9.257   3.750   2.555 -0.1603  0.1969  0.3713
  110MOL0    Cl14759   9.301   3.841   2.404  0.0741  0.2435  0.1660
  110MOL0     C14760   8.372   3.195   3.129 -1.0858  0.7511 -0.6613
  110MOL0     C14761   8.249   3.125   3.112 -0.9079  0.5147  0.5127
  110MOL0     O14762   8.051   2.907   3.150 -0.0832 -0.0769 -0.1818
  110MOL0     C14763   7.780   2.894   3.113  0.0336 -0.2536  0.3783
  110MOL0     C14764   7.648   2.871   3.086  0.1423 -0.0542 -0.5391
  110MOL0     N14765   7.340   2.536   2.560  0.1072  0.5716 -0.3171
  110MOL0     N14766   7.323   2.479   2.443  0.5114 -0.9248  0.3045
  110MOL0     C14767   6.281   1.671   2.472  0.2753  0.0030  0.4311
  110MOL0     C14768   6.140   1.670   2.481 -0.1825  0.1901 -0.2570
  110MOL0     C14769   5.714   1.667   2.585 -0.1687 -0.4574 -0.4941
  110MOL0     C14770   5.639   1.583   2.659 -0.0370  0.0288 -0.0201
  110MOL0     C14771   5.500   1.577   2.659 -0.4223 -0.0890  0.0160
  110MOL0     C14772   5.426   1.672   2.585  0.6670 -1.0782 -0.5821
  110MOL0     O14773   5.288   1.690   2.584 -0.4759 -0.4567  0.3590
  110MOL0     C14774   5.200   1.582   2.605 -0.1308  0.9411  0.4927
  110MOL0     C14775   5.063   1.621   2.550  0.2085 -0.2031  0.6803
  110MOL0     C14776   4.950   1.533   2.591  0.3678  0.3796 -0.0608
  110MOL0     C14777   4.843   1.545   2.491 -0.1091 -0.5682  0.6547
  110MOL0     C14778   4.719   1.480   2.511  0.9638 -0.0119  0.1988
  110MOL0     C14779   4.608   1.420   2.512  0.6150  0.4330 -0.0883
  110MOL0     C14780   5.501   1.769   2.506 -0.6075  0.6372 -0.7493
  110MOL0     C14781   5.642   1.763   2.507  0.4101  0.3716  0.2946
  110MOL0     C14782   5.721   1.854   2.412  0.3824 -0.3204 -0.2920
  110MOL0     H14783   6.081   1.968   2.621 -0.4811 -1.3787  2.9286
  110MOL0     H14784   6.317   1.996   2.582 -1.5706 -0.1900  1.0448
  110MOL0     H14785   6.467   1.739   2.290  3.1906 -1.1520 -2.7013
  110MOL0     H14786   6.468   1.920   2.309  1.1657 -0.0470 -3.9663
  110MOL0     H14787   6.678   1.845   2.181 -0.2342  0.5750 -0.8432
  110MOL0     H14788   6.708   1.734   2.309  0.1008  0.4227  1.1922
  110MOL0     H14789   6.733   1.895   2.473 -1.5401  0.3309  0.7713
  110MOL0     H14790   6.684   2.037   2.384 -0.2575 -1.2756 -1.4172
  110MOL0     H14791   6.925   1.861   2.317  1.7673  1.5879  1.5486
  110MOL0     H14792   6.854   1.989   2.211 -2.0768  2.4452  0.1895
  110MOL0     H14793   6.908   2.167   2.387  2.9228  2.7180  0.8856
  110MOL0     H14794   6.990   2.054   2.484 -1.9618 -0.4203  0.3657
  110MOL0     H14795   7.133   2.003   2.290  1.8276  0.4005 -1.1817
  110MOL0     H14796   7.059   2.143   2.203  1.9010  2.0291  1.0790
  110MOL0     H14797   7.287   2.186   2.346  0.3842  0.2104 -0.3416
  110MOL0     H14798   7.188   2.183   2.492 -1.0019 -2.1278  0.3082
  110MOL0     H14799   7.165   2.356   2.240  0.2723 -3.4219 -0.1224
  110MOL0     H14800   7.027   2.347   2.342 -0.5540  1.5855 -1.0909
  110MOL0     H14801   7.051   2.390   2.597  0.1593 -0.1847 -1.7586
  110MOL0     H14802   7.103   2.596   2.788 -1.7115 -3.7526 -1.2201
  110MOL0     H14803   7.216   2.457   2.829  0.8822  0.5887  0.3089
  110MOL0     H14804   7.334   2.629   2.939 -4.6848  3.7067  0.9199
  110MOL0     H14805   7.414   2.607   2.786 -0.7224 -0.2458 -2.0790
  110MOL0     H14806   7.217   2.820   2.878  0.2643  1.6684  0.6920
  110MOL0     H14807   7.245   2.789   2.704 -1.0431 -1.3297  0.4211
  110MOL0     H14808   7.380   2.961   2.766 -0.5478 -0.8268 -1.6566
  110MOL0     H14809   7.488   2.823   2.739 -2.2684 -1.5863 -1.7843
  110MOL0     H14810   7.635   2.975   2.773 -1.8332 -5.3609 -0.5127
  110MOL0     H14811   7.877   3.022   2.809 -0.7567  0.0661 -0.8729
  110MOL0     H14812   8.281   3.045   2.785 -3.5893 -0.1510 -0.1530
  110MOL0     H14813   8.495   3.141   2.815 -0.5651 -1.9057 -0.6955
  110MOL0     H14814   8.772   3.313   2.992 -1.6774  3.0630 -0.0219
  110MOL0     H14815   8.688   3.182   2.896 -0.5322  2.0706 -3.5940
  110MOL0     H14816   8.558   3.380   2.812 -0.4412  0.1930  0.0312
  110MOL0     H14817   8.669   3.486   2.903  2.1569 -0.5872  0.5625
  110MOL0     H14818   8.806   3.301   2.711  4.8607  1.4984  0.2318
  110MOL0     H14819   8.715   3.440   2.647  0.5762 -0.2518 -0.6732
  110MOL0     H14820   8.955   3.425   2.804 -0.6602  0.1668  1.0911
  110MOL0     H14821   8.849   3.575   2.824 -0.3040 -2.4018  2.6629
  110MOL0     H14822   8.871   3.619   2.588 -0.7934  1.0892  3.4368
  110MOL0     H14823   8.979   3.478   2.562  0.1096 -1.6845  2.3604
  110MOL0     H14824   9.059   3.701   2.738  3.4519  1.2312 -0.6358
  110MOL0     H14825   9.145   3.548   2.712  2.0184 -0.2686 -0.8468
  110MOL0     H14826   9.054   3.740   2.495 -0.8668 -2.6565 -2.2596
  110MOL0     H14827   9.142   3.597   2.457 -1.5794  0.4494 -0.6843
  110MOL0     H14828   9.241   3.823   2.635 -0.1428  0.5111  0.0913
  110MOL0     H14829   9.337   3.681   2.584  0.6717  0.3447 -1.4289
  110MOL0     H14830   8.406   3.244   3.219  0.1938  1.5829 -1.5760
  110MOL0     H14831   8.191   3.116   3.203 -1.3905  1.8438  0.3612
  110MOL0     H14832   7.814   2.865   3.212 -0.5695  2.0039  1.3130
  110MOL0     H14833   7.585   2.820   3.158  0.1672  1.9804  1.0153
  110MOL0     H14834   6.346   1.599   2.423  3.7348  1.9118  1.8827
  110MOL0     H14835   6.095   1.582   2.436 -1.8641 -0.1515  1.9019
  110MOL0     H14836   5.690   1.509   2.720 -0.6806 -0.8671 -0.5452
  110MOL0     H14837   5.462   1.493   2.716  1.1588  0.0240  1.3163
  110MOL0     H14838   5.176   1.565   2.710 -2.8091  1.8478  0.1261
  110MOL0     H14839   5.229   1.491   2.553 -2.3454  0.3677  0.1450
  110MOL0     H14840   5.059   1.642   2.443  2.7656  2.0621  0.9364
  110MOL0     H14841   5.044   1.719   2.594 -1.1435  0.5464 -1.4006
  110MOL0     H14842   4.915   1.559   2.691  3.8141 -1.3703  1.7665
  110MOL0     H14843   4.985   1.429   2.593  0.1681  0.3034  2.8594
  110MOL0     H14844   4.820   1.652   2.481 -0.9082 -0.7624  0.3669
  110MOL0     H14845   4.875   1.496   2.399 -0.7134 -1.0334  0.6865
  110MOL0     H14846   4.514   1.371   2.527  1.2620 -0.8651 -0.1237
  110MOL0     H14847   5.439   1.840   2.452 -5.6467 -1.3512  1.7000
  110MOL0     H14848   5.767   1.935   2.471 -2.3805  1.7216 -0.7616
  110MOL0     H14849   5.792   1.793   2.356 -0.1324 -0.4145 -0.8505
  110MOL0     H14850   5.657   1.910   2.344  0.6475 -0.8220 -0.9559
  111MOL0     O14851   1.600   0.927   0.424  0.8403  0.3993  0.8381
  111MOL0     C14852   1.584   0.861   0.525  0.2050 -0.2018  0.1047
  111MOL0     O14853   1.678   0.790   0.594  0.3848 -0.1198  0.6824
  111MOL0     C14854   1.810   0.798   0.559  0.3824 -0.4798 -0.1743
  111MOL0     C14855   1.870   0.696   0.492  0.3780 -0.0252  1.2534
  111MOL0     C14856   2.009   0.711   0.458  0.3541  0.8428 -0.7956
  111MOL0     C14857   2.083   0.824   0.496 -0.0948  1.0015  0.0062
  111MOL0     O14858   2.216   0.837   0.480  0.3744 -0.3732  0.6733
  111MOL0     C14859   2.298   0.725   0.435 -0.1139 -0.5274  0.0120
  111MOL0     C14860   2.446   0.763   0.444 -0.4509  1.0490  0.3380
  111MOL0     C14861   2.533   0.644   0.368 -0.1070 -0.5212  0.2786
  111MOL0     C14862   2.685   0.666   0.393  0.2477  0.1628  0.2367
  111MOL0     C14863   2.769   0.566   0.311  0.6508 -0.0963  0.1174
  111MOL0     C14864   2.786   0.589   0.158  0.2417 -0.6756 -0.4267
  111MOL0     C14865   2.909   0.519   0.104  0.8667 -0.3315 -0.1427
  111MOL0     C14866   2.903   0.368   0.105 -1.2264  1.0631  0.6180
  111MOL0     N14867   3.027   0.300   0.057  0.0113  0.5772  0.4652
  111MOL0     C14868   3.059   0.296  -0.079 -0.5546 -0.0007  0.1851
  111MOL0     C14869   3.190   0.257  -0.079  0.1214  0.4578  0.1931
  111MOL0     C14870   3.286   0.238  -0.201  0.2979  0.5124  0.2435
  111MOL0     C14871   3.393   0.135  -0.179 -0.3023 -0.0222  0.0035
  111MOL0     C14872   3.503   0.147  -0.294  0.8106  0.5576  0.1276
  111MOL0     C14873   3.619   0.069  -0.264 -0.4593  0.1604 -0.6497
  111MOL0     O14874   3.687   0.067  -0.388 -0.2087  0.0963  0.1123
  111MOL0     C14875   3.812   0.042  -0.385 -0.9862  0.0748  0.3949
  111MOL0     C14876   3.861   0.072  -0.517  0.5057  0.0699  0.0682
  111MOL0     C14877   3.996   0.061  -0.546 -0.1793  0.2547 -0.0987
  111MOL0     C14878   4.087   0.046  -0.441  0.2136  0.0437 -0.3739
  111MOL0     C14879   4.236   0.063  -0.465  0.3151 -0.4794  0.9714
  111MOL0     O14880   4.319   0.005  -0.373  0.4095 -0.3853 -0.3709
  111MOL0     C14881   4.453  -0.016  -0.423  0.4009  0.2440 -0.0572
  111MOL0     C14882   4.553   0.055  -0.357 -0.2707 -0.0227  0.2200
  111MOL0     C14883   4.686   0.051  -0.406 -0.6067  0.2119 -0.4896
  111MOL0     C14884   4.726  -0.022  -0.514 -0.2628  0.1609  0.9049
  111MOL0     O14885   4.854  -0.001  -0.566  1.0918  0.5535  0.1745
  111MOL0     C14886   4.885  -0.046  -0.695 -0.3176  0.5173  0.0743
  111MOL0     C14887   5.009   0.024  -0.745  0.0317  0.1199  0.0346
  111MOL0     C14888   5.125   0.003  -0.656  0.1356 -0.9551 -0.1286
  111MOL0     C14889   5.245   0.027  -0.740 -0.0592 -0.2977 -0.2371
  111MOL0     C14890   5.379   0.021  -0.663  1.0973 -0.0904  0.1264
  111MOL0     C14891   5.498   0.034  -0.760  1.2954 -0.5240  0.6629
  111MOL0     C14892   5.628   0.018  -0.685 -0.3079 -0.8980 -0.0439
  111MOL0     C14893   5.746   0.068  -0.766 -0.4483 -0.0453 -0.3114
  111MOL0    Cl14894   5.897   0.007  -0.687 -0.0263  0.5599  0.1626
  111MOL0     C14895   4.630  -0.098  -0.578  1.0381 -0.9156  0.6311
  111MOL0     C14896   4.496  -0.094  -0.534  0.1748  0.0187 -0.5631
  111MOL0     O14897   4.267   0.124  -0.565  0.0026 -0.4901 -1.4884
  111MOL0     C14898   4.040   0.019  -0.312 -0.3217  0.3315 -0.3741
  111MOL0     C14899   3.900   0.021  -0.280 -0.2760 -0.1899 -0.3221
  111MOL0     N14900   3.224   0.230   0.051 -1.3240  0.3636  0.0555
  111MOL0     N14901   3.129   0.260   0.133  0.2454  0.0278 -0.0284
  111MOL0     C14902   2.016   0.929   0.564 -0.6703  0.5111 -0.2407
  111MOL0     C14903   1.878   0.918   0.594 -0.2862  1.2515  0.4699
  111MOL0     C14904   1.449   0.837   0.561  0.2496  0.4966 -0.4796
  111MOL0     C14905   1.365   0.776   0.458 -0.2916  0.3128  0.5991
  111MOL0     C14906   1.233   0.755   0.472  0.2723  0.3769 -0.6168
  111MOL0     C14907   1.171   0.785   0.599  0.5155 -0.9739  0.2045
  111MOL0     O14908   1.034   0.769   0.619  0.4128  0.1097 -0.1845
  111MOL0     C14909   0.950   0.724   0.510  0.2563  0.1325 -0.3126
  111MOL0     C14910   0.802   0.698   0.574 -0.6294  0.5801  0.7289
  111MOL0     C14911   0.707   0.651   0.468 -0.3275  0.2205 -0.6049
  111MOL0     C14912   0.564   0.643   0.530  0.2134  0.0374  0.0875
  111MOL0     C14913   0.548   0.519   0.609  1.7038  0.1890  0.0388
  111MOL0     C14914   0.533   0.419   0.675  0.0898  0.2938  0.9203
  111MOL0     C14915   1.247   0.842   0.702 -0.4086 -1.0288 -1.1730
  111MOL0     C14916   1.388   0.865   0.683 -0.4515 -0.5718  1.5874
  111MOL0     C14917   1.461   0.938   0.800  0.9062  1.8075  0.6274
  111MOL0     H14918   1.817   0.603   0.474 -1.1870  1.0223  0.1953
  111MOL0     H14919   2.060   0.628   0.410  0.9553  0.3251  0.6770
  111MOL0     H14920   2.281   0.636   0.495  1.4004 -0.4511  0.6013
  111MOL0     H14921   2.271   0.697   0.333 -0.9461  1.5684 -0.3887
  111MOL0     H14922   2.485   0.774   0.546  2.6991 -0.9347 -0.5224
  111MOL0     H14923   2.458   0.859   0.393  0.3228  1.5251  1.3825
  111MOL0     H14924   2.512   0.651   0.261  2.0165 -0.3539 -0.1648
  111MOL0     H14925   2.496   0.546   0.400  2.4181 -1.1003  1.6526
  111MOL0     H14926   2.710   0.768   0.362 -0.6986  0.4609  0.4171
  111MOL0     H14927   2.704   0.666   0.501  1.5125 -0.9005  0.0414
  111MOL0     H14928   2.871   0.582   0.349  0.8629 -0.5584 -0.2512
  111MOL0     H14929   2.742   0.461   0.322 -1.0925  0.4282  1.1809
  111MOL0     H14930   2.696   0.571   0.099 -0.6759  1.0415  0.3676
  111MOL0     H14931   2.807   0.693   0.132  1.0169 -1.0892 -1.5537
  111MOL0     H14932   2.997   0.557   0.156  0.7552  2.8712 -2.0363
  111MOL0     H14933   2.908   0.558   0.002  0.8595  0.3259  0.1043
  111MOL0     H14934   2.889   0.330   0.206  2.8786  0.3633  1.0895
  111MOL0     H14935   2.822   0.331   0.041  1.6935  0.1595 -2.8714
  111MOL0     H14936   2.997   0.325  -0.163  2.2800  0.1709 -2.0106
  111MOL0     H14937   3.220   0.206  -0.282  0.3874  3.1597 -0.9819
  111MOL0     H14938   3.331   0.334  -0.230  0.2018  0.9646  1.5427
  111MOL0     H14939   3.442   0.154  -0.083  0.4120 -1.9708  0.0608
  111MOL0     H14940   3.350   0.035  -0.170 -3.4154  1.2884  0.9017
  111MOL0     H14941   3.539   0.250  -0.308  1.2908  0.2855 -0.6706
  111MOL0     H14942   3.463   0.122  -0.392  0.9646  2.9788 -0.6263
  111MOL0     H14943   3.598  -0.029  -0.221 -1.6445  1.4030  1.8248
  111MOL0     H14944   3.671   0.117  -0.181  1.9640 -1.9389 -0.8201
  111MOL0     H14945   3.784   0.098  -0.589  1.3246  2.7811  0.0461
  111MOL0     H14946   4.024   0.085  -0.648  0.8492 -0.4999  0.0043
  111MOL0     H14947   4.525   0.122  -0.276 -1.8708  0.7944 -0.9475
  111MOL0     H14948   4.754   0.122  -0.360  1.3698 -0.2805 -2.5100
  111MOL0     H14949   4.917  -0.150  -0.686 -1.4257  0.1109 -0.5917
  111MOL0     H14950   4.799  -0.033  -0.761 -0.8621 -0.0598  0.6642
  111MOL0     H14951   5.025  -0.009  -0.848 -2.6988 -0.3561 -0.3218
  111MOL0     H14952   4.993   0.132  -0.740  4.4833  0.9414  0.2017
  111MOL0     H14953   5.124   0.070  -0.569  0.9355 -1.7886  0.5341
  111MOL0     H14954   5.141  -0.100  -0.624 -2.9656 -1.6402 -0.4960
  111MOL0     H14955   5.227   0.121  -0.794 -0.0264 -1.6539 -2.7763
  111MOL0     H14956   5.250  -0.038  -0.828 -1.4564 -0.1095 -0.4779
  111MOL0     H14957   5.393  -0.076  -0.615 -2.0463 -1.0814 -0.7649
  111MOL0     H14958   5.376   0.099  -0.586 -1.3997  0.3945 -0.3650
  111MOL0     H14959   5.484  -0.034  -0.844 -1.9021  1.0475 -0.2606
  111MOL0     H14960   5.496   0.137  -0.799 -1.4938 -0.3015  1.1714
  111MOL0     H14961   5.647  -0.087  -0.660 -0.5815 -1.0524 -0.4865
  111MOL0     H14962   5.632   0.076  -0.592  1.9409 -0.8162 -0.1407
  111MOL0     H14963   5.750   0.028  -0.868  1.9052  1.1303 -0.7672
  111MOL0     H14964   5.754   0.177  -0.764  2.2510 -0.0752 -2.4812
  111MOL0     H14965   4.654  -0.156  -0.666  2.4930  0.1820  0.2655
  111MOL0     H14966   4.417  -0.148  -0.586 -1.8207  3.2212 -1.1558
  111MOL0     H14967   4.111   0.001  -0.232 -1.2041  0.6290  0.4982
  111MOL0     H14968   3.872   0.022  -0.175  2.8335  1.0212  0.5998
  111MOL0     H14969   2.058   1.023   0.598 -1.6866  0.6340  0.7370
  111MOL0     H14970   1.824   0.999   0.642 -2.1157 -0.9420  2.4172
  111MOL0     H14971   1.423   0.736   0.376  0.0397  1.8980  0.0375
  111MOL0     H14972   1.189   0.714   0.382  1.8474 -0.5952 -0.9837
  111MOL0     H14973   0.976   0.626   0.470 -0.5518 -0.1654 -0.1251
  111MOL0     H14974   0.950   0.795   0.427  0.4061  1.5667  0.8612
  111MOL0     H14975   0.773   0.798   0.609  0.6701  0.5264  2.0911
  111MOL0     H14976   0.807   0.632   0.661  1.6870  1.5512  1.3957
  111MOL0     H14977   0.732   0.553   0.427  0.2322  0.1662 -0.1410
  111MOL0     H14978   0.708   0.720   0.382  1.0975  0.9586 -0.0201
  111MOL0     H14979   0.543   0.727   0.597  0.4356 -0.3974  0.7162
  111MOL0     H14980   0.490   0.657   0.451  0.1231  0.7536  0.2920
  111MOL0     H14981   0.513   0.336   0.741  3.4323  0.0391  1.7874
  111MOL0     H14982   1.186   0.854   0.791  1.3961  1.0826 -0.1342
  111MOL0     H14983   1.525   0.869   0.855  0.6686 -0.0772 -1.2919
  111MOL0     H14984   1.519   1.012   0.744  0.6578 -1.4330 -4.6414
  111MOL0     H14985   1.395   0.995   0.866 -0.1347  0.5569  0.7214
  112MOL0     O14986   3.486   9.510   1.361 -0.5688  0.4970 -1.0773
  112MOL0     C14987   3.416   9.426   1.305 -0.3222 -0.8232  0.3101
  112MOL0     O14988   3.444   9.368   1.185 -0.0224 -0.1933 -0.3300
  112MOL0     C14989   3.567   9.386   1.120  0.7346  0.2151  0.0873
  112MOL0     C14990   3.574   9.386   0.981  0.4162 -0.4040 -1.0511
  112MOL0     C14991   3.692   9.388   0.906  0.0490  0.7868  0.4279
  112MOL0     C14992   3.811   9.407   0.981 -0.0515 -0.9878 -0.2510
  112MOL0     O14993   3.932   9.431   0.922  0.1460 -0.0439  0.2246
  112MOL0     C14994   3.994   9.558   0.954 -0.3546 -0.4496  0.6018
  112MOL0     C14995   4.140   9.522   0.957 -0.5896 -0.9427 -0.3714
  112MOL0     C14996   4.234   9.640   0.946 -0.5019 -0.4623 -0.4680
  112MOL0     C14997   4.392   9.610   0.961 -0.1692  1.0283 -0.0316
  112MOL0     C14998   4.454   9.749   0.926  0.2682 -0.6324  0.5292
  112MOL0     C14999   4.595   9.737   0.976 -0.3860 -0.3101 -0.1612
  112MOL0     C15000   4.678   9.870   0.965  0.5235 -0.2101 -0.0080
  112MOL0     C15001   4.748   9.884   0.827 -0.1881  0.0550  0.3270
  112MOL0     N15002   4.813  10.014   0.813  0.1154  0.5249  0.0633
  112MOL0     C15003   4.938  10.042   0.858  0.6297 -0.4518 -0.4461
  112MOL0     C15004   4.938  10.179   0.852  0.1511 -0.3983 -0.4656
  112MOL0     C15005   5.035  10.270   0.927 -0.3357 -0.2324 -0.0293
  112MOL0     C15006   5.179  10.276   0.886  0.5555 -0.3942 -0.0650
  112MOL0     C15007   5.249  10.403   0.946 -0.1247  0.3789 -0.1126
  112MOL0     C15008   5.397  10.418   0.926 -0.0808 -0.1325  0.0122
  112MOL0     O15009   5.478  10.323   1.003 -0.4365 -0.2670  0.7815
  112MOL0     C15010   5.606  10.311   0.971 -0.5014  0.3506  0.4046
  112MOL0     C15011   5.664  10.197   1.023 -0.9555  0.0076 -0.0877
  112MOL0     C15012   5.805  10.168   0.996 -0.1635  0.4035  0.4225
  112MOL0     C15013   5.873  10.270   0.923 -0.5411  0.4449  0.6200
  112MOL0     C15014   6.022  10.259   0.900 -0.0017  0.4370  0.2443
  112MOL0     O15015   6.083  10.139   0.904  0.2664  0.2982  0.1057
  112MOL0     C15016   6.217  10.143   0.890 -0.3896 -0.2810  0.8342
  112MOL0     C15017   6.306  10.204   0.980 -1.2513 -1.0883  0.3524
  112MOL0     C15018   6.441  10.193   0.954 -0.8584 -0.7283 -0.0489
  112MOL0     C15019   6.490  10.139   0.835 -0.1343  0.5243  0.6043
  112MOL0     O15020   6.625  10.127   0.815 -0.4405 -0.4336  0.4139
  112MOL0     C15021   6.714  10.120   0.925 -0.0328 -0.7341 -0.1579
  112MOL0     C15022   6.859  10.072   0.884  1.0290 -0.2473  0.1303
  112MOL0     C15023   6.932  10.187   0.825  0.5703 -0.2747 -0.3782
  112MOL0     C15024   7.067  10.152   0.760 -0.4019 -0.6862  0.0831
  112MOL0     C15025   7.122  10.281   0.711  0.1319  0.7291  0.7282
  112MOL0     C15026   7.239  10.260   0.614 -0.0454  0.1222 -0.8434
  112MOL0     C15027   7.363  10.189   0.687  0.1805 -0.9169 -0.0870
  112MOL0     C15028   7.493  10.180   0.600  0.6273  0.6545 -0.6139
  112MOL0    Cl15029   7.466  10.046   0.491  0.1564  0.0236  0.2259
  112MOL0     C15030   6.401  10.081   0.747 -0.2509  0.1736  0.3000
  112MOL0     C15031   6.268  10.081   0.778  0.0310 -0.5057  0.4316
  112MOL0     O15032   6.074  10.367   0.882 -0.3425  0.6131 -0.3578
  112MOL0     C15033   5.806  10.380   0.871  0.2474  0.0762  0.9972
  112MOL0     C15034   5.673  10.403   0.893  0.1158 -0.3253 -0.0222
  112MOL0     N15035   4.820  10.221   0.798 -0.0178 -0.0036  0.5475
  112MOL0     N15036   4.743  10.121   0.781  0.1093  1.1243  0.8812
  112MOL0     C15037   3.807   9.406   1.120 -0.4124 -0.4371 -0.7533
  112MOL0     C15038   3.687   9.390   1.185  0.0879  0.1311  0.1236
  112MOL0     C15039   3.287   9.402   1.369  0.1218  0.5818  0.7407
  112MOL0     C15040   3.175   9.349   1.301  0.0474  0.6328  0.9055
  112MOL0     C15041   3.046   9.340   1.350  0.8675 -0.4589  0.7237
  112MOL0     C15042   3.018   9.374   1.481  0.2697 -0.9410  1.2216
  112MOL0     O15043   2.885   9.356   1.522  0.8453  0.0744  0.1162
  112MOL0     C15044   2.853   9.401   1.655  0.0001  0.6302 -0.0399
  112MOL0     C15045   2.707   9.364   1.701  0.1169 -0.4669 -0.3816
  112MOL0     C15046   2.607   9.465   1.643  0.0922 -0.1454 -0.3995
  112MOL0     C15047   2.465   9.445   1.699 -0.1837 -0.3377  0.7488
  112MOL0     C15048   2.381   9.562   1.658 -1.6147 -0.2364  0.8709
  112MOL0     C15049   2.318   9.666   1.647 -0.2711  0.0348 -0.0490
  112MOL0     C15050   3.127   9.414   1.557  0.4489  0.1857  0.9274
  112MOL0     C15051   3.259   9.427   1.506 -0.1988  0.8861 -0.3134
  112MOL0     C15052   3.360   9.472   1.607 -0.3015 -0.1828  0.1195
  112MOL0     H15053   3.480   9.396   0.927 -1.1257 -0.7763  1.3834
  112MOL0     H15054   3.695   9.397   0.798  1.5483  2.9392  0.5772
  112MOL0     H15055   3.974   9.627   0.872  0.4664 -0.2450  0.5583
  112MOL0     H15056   3.964   9.596   1.052  0.2414  2.8259 -0.3752
  112MOL0     H15057   4.159   9.450   0.877 -0.0042 -2.6759  1.2425
  112MOL0     H15058   4.162   9.466   1.049  2.7972 -2.3355 -1.8415
  112MOL0     H15059   4.215   9.722   1.016 -2.0645 -1.0270 -0.1895
  112MOL0     H15060   4.219   9.686   0.847 -0.8062  0.1710 -0.1316
  112MOL0     H15061   4.398   9.594   1.069 -1.2745 -1.0211 -0.2253
  112MOL0     H15062   4.415   9.526   0.894 -2.6031 -1.2757  1.7961
  112MOL0     H15063   4.467   9.751   0.818  3.3851 -0.4138  0.8130
  112MOL0     H15064   4.398   9.832   0.970  0.8636 -0.4890  1.0256
  112MOL0     H15065   4.600   9.706   1.081  2.3552  1.1682  0.2489
  112MOL0     H15066   4.655   9.667   0.917 -1.1412  0.3174 -1.7146
  112MOL0     H15067   4.765   9.865   1.031 -1.2620 -0.9384  2.4599
  112MOL0     H15068   4.620   9.959   0.992 -2.2264 -2.4382  2.1042
  112MOL0     H15069   4.827   9.810   0.808  0.1177  0.2666  0.7529
  112MOL0     H15070   4.674   9.871   0.747  0.1351  4.5402 -0.9692
  112MOL0     H15071   5.002   9.972   0.911  0.4003  1.9218  3.3458
  112MOL0     H15072   5.000  10.373   0.917  0.8024  0.2245  0.5348
  112MOL0     H15073   5.029  10.247   1.034  1.5511  2.3952  0.7409
  112MOL0     H15074   5.233  10.185   0.916 -1.3532 -1.0897  1.5262
  112MOL0     H15075   5.176  10.278   0.777  3.3934  1.5208 -0.2020
  112MOL0     H15076   5.224  10.408   1.053  2.1863 -0.7598  0.5517
  112MOL0     H15077   5.207  10.492   0.899 -0.3758 -0.2942 -1.1931
  112MOL0     H15078   5.424  10.513   0.974 -2.3175  0.8120 -0.4862
  112MOL0     H15079   5.428  10.422   0.821 -0.1339 -1.6906 -0.0871
  112MOL0     H15080   5.607  10.131   1.087 -1.0152 -0.1410 -0.2932
  112MOL0     H15081   5.862  10.082   1.028  2.1219  1.5922 -0.2596
  112MOL0     H15082   6.271  10.266   1.062 -1.8879 -1.1994  0.1683
  112MOL0     H15083   6.512  10.233   1.026 -2.2112 -0.0114  0.9231
  112MOL0     H15084   6.709  10.218   0.974 -1.4363 -1.2868  0.8875
  112MOL0     H15085   6.673  10.062   1.007 -1.4026  0.1801 -0.1658
  112MOL0     H15086   6.914  10.041   0.974 -1.5870 -2.3307  1.1654
  112MOL0     H15087   6.845   9.987   0.817 -1.2979  0.7799 -0.7968
  112MOL0     H15088   6.862  10.237   0.757 -0.7914 -0.8138  0.6034
  112MOL0     H15089   6.947  10.261   0.905  0.3654  0.0653 -0.6495
  112MOL0     H15090   7.066  10.070   0.688 -1.4282 -0.0538 -0.6291
  112MOL0     H15091   7.133  10.129   0.845  2.4156  0.7744 -1.5610
  112MOL0     H15092   7.150  10.358   0.783  0.4529  0.6272  0.7135
  112MOL0     H15093   7.038  10.317   0.650  0.9366 -1.6446 -1.9688
  112MOL0     H15094   7.206  10.204   0.526  2.2777  0.0134 -1.7088
  112MOL0     H15095   7.269  10.353   0.566 -1.5115  0.9273 -0.2688
  112MOL0     H15096   7.335  10.091   0.724  1.7814 -1.2825  0.2162
  112MOL0     H15097   7.382  10.253   0.773 -4.2600  0.1784  0.3621
  112MOL0     H15098   7.516  10.270   0.543  0.1563  1.9415  1.1549
  112MOL0     H15099   7.580  10.157   0.663  0.3798  0.4196 -0.3526
  112MOL0     H15100   6.433  10.028   0.659  0.0212 -0.0684  0.5446
  112MOL0     H15101   6.198  10.036   0.708  1.3655 -0.7184 -0.8147
  112MOL0     H15102   5.855  10.451   0.806 -0.8291 -0.1316 -0.0785
  112MOL0     H15103   5.632  10.492   0.847 -2.1197 -1.2018  0.1130
  112MOL0     H15104   3.902   9.399   1.171 -0.0739 -1.7721 -1.5167
  112MOL0     H15105   3.677   9.375   1.292  0.9788  2.6639  0.6257
  112MOL0     H15106   3.193   9.323   1.197  1.1985  0.5184  1.1111
  112MOL0     H15107   2.965   9.294   1.295 -0.3471  0.6630  1.5018
  112MOL0     H15108   2.859   9.510   1.666  1.2347  0.3891  2.3833
  112MOL0     H15109   2.929   9.354   1.719 -0.1972 -0.2280 -0.4222
  112MOL0     H15110   2.686   9.368   1.809 -0.3499  2.4750 -0.4986
  112MOL0     H15111   2.686   9.264   1.662 -1.6061  1.0309 -3.6411
  112MOL0     H15112   2.613   9.441   1.537 -2.7536 -4.2430  0.1162
  112MOL0     H15113   2.649   9.561   1.675 -0.9434 -0.7094  3.1021
  112MOL0     H15114   2.438   9.349   1.653 -1.3572 -0.1956  1.1230
  112MOL0     H15115   2.471   9.440   1.808  1.2209  0.3035  0.7191
  112MOL0     H15116   2.255   9.752   1.640 -0.1558  0.1817  0.6950
  112MOL0     H15117   3.127   9.433   1.664  2.6907  1.7387  0.7248
  112MOL0     H15118   3.318   9.450   1.705 -2.9005  1.1217 -0.6289
  112MOL0     H15119   3.459   9.426   1.594 -0.8811 -1.3292 -0.3573
  112MOL0     H15120   3.376   9.580   1.605  3.2678 -0.6075 -1.0917
  113MOL0     O15121   3.988   8.730   9.805  0.1212 -0.3568 -0.4896
  113MOL0     C15122   3.898   8.786   9.737 -0.7472 -0.9634  0.2457
  113MOL0     O15123   3.918   8.905   9.658 -0.3060  0.1386 -0.5967
  113MOL0     C15124   4.037   8.979   9.660 -0.1380  0.8482  0.0744
  113MOL0     C15125   4.085   9.055   9.775  0.6832 -0.4560  1.2614
  113MOL0     C15126   4.193   9.140   9.773 -0.1872 -0.7269 -0.1394
  113MOL0     C15127   4.266   9.155   9.658 -0.4830  0.0802  0.6398
  113MOL0     O15128   4.375   9.242   9.657 -0.2353 -0.0823 -0.3956
  113MOL0     C15129   4.416   9.284   9.528  0.4837  0.4044  0.0918
  113MOL0     C15130   4.543   9.376   9.537 -0.5478  1.0158 -0.1097
  113MOL0     C15131   4.620   9.422   9.409  0.0247 -0.3948 -0.3516
  113MOL0     C15132   4.752   9.487   9.445 -0.1191  0.0438 -0.6704
  113MOL0     C15133   4.858   9.474   9.348 -0.8632  0.4717  0.0919
  113MOL0     C15134   4.830   9.545   9.216 -0.2423 -0.4231  0.5618
  113MOL0     C15135   4.947   9.548   9.117 -0.5372  0.7660 -0.0135
  113MOL0     C15136   5.038   9.668   9.131 -0.4892 -0.5808 -0.3513
  113MOL0     N15137   5.159   9.646   9.062 -0.6218  0.3780 -0.3615
  113MOL0     C15138   5.266   9.580   9.114  1.5034 -0.5895  0.7489
  113MOL0     C15139   5.369   9.593   9.027 -0.0407  0.3058  0.0592
  113MOL0     C15140   5.492   9.514   9.017 -0.1469 -0.3291 -0.0790
  113MOL0     C15141   5.616   9.599   9.061  0.7711  0.5095 -0.4158
  113MOL0     C15142   5.639   9.724   8.984  0.3804 -0.6139  0.1061
  113MOL0     C15143   5.793   9.767   9.001 -0.2315 -0.5617  0.0369
  113MOL0     O15144   5.861   9.712   8.895  0.2648  0.2058  0.2999
  113MOL0     C15145   5.997   9.701   8.906 -0.7337  0.1681  0.2600
  113MOL0     C15146   6.065   9.602   8.835  0.7400 -0.2679  0.3243
  113MOL0     C15147   6.213   9.602   8.813  0.2690 -0.4564  0.2483
  113MOL0     C15148   6.291   9.697   8.897 -0.0552 -0.2708 -0.0314
  113MOL0     C15149   6.434   9.699   8.911 -0.4460 -0.2749 -0.1845
  113MOL0     O15150   6.493   9.798   8.984  0.6672  0.3195 -0.0627
  113MOL0     C15151   6.630   9.813   9.004  0.0036  0.2816  0.1419
  113MOL0     C15152   6.666   9.852   9.134 -0.6115 -0.0263 -0.3842
  113MOL0     C15153   6.795   9.899   9.154  0.0742 -0.0153 -0.7513
  113MOL0     C15154   6.903   9.877   9.065 -0.3749 -0.1810  0.1528
  113MOL0     O15155   7.031   9.901   9.117  0.4210 -0.5038  0.8620
  113MOL0     C15156   7.120   9.952   9.012 -0.4635  0.1430 -0.5135
  113MOL0     C15157   7.242  10.019   9.085 -0.1384  0.0317  0.0536
  113MOL0     C15158   7.365  10.005   8.999  0.4733  0.0913  0.7759
  113MOL0     C15159   7.473  10.069   9.076 -0.0716  0.3510 -0.2632
  113MOL0     C15160   7.581  10.093   8.974 -0.4531 -0.9588 -0.1100
  113MOL0     C15161   7.708  10.151   9.048  0.3296 -0.4994 -0.0682
  113MOL0     C15162   7.820  10.188   8.944 -0.7709 -0.3233  0.4064
  113MOL0     C15163   7.926  10.078   8.920  0.1561 -0.6206 -0.4981
  113MOL0    Cl15164   7.993  10.018   9.069 -0.2725  0.0870  0.2554
  113MOL0     C15165   6.866   9.826   8.940  0.3525  0.2399 -0.4020
  113MOL0     C15166   6.730   9.800   8.909 -0.0731  0.3469  0.9946
  113MOL0     O15167   6.488   9.603   8.862 -0.0936 -0.4436 -0.2560
  113MOL0     C15168   6.217   9.787   8.980 -0.3843 -0.9883 -0.3805
  113MOL0     C15169   6.079   9.792   8.974 -1.4322 -0.0694  0.6593
  113MOL0     N15170   5.339   9.697   8.952 -0.0442  0.0873  0.6354
  113MOL0     N15171   5.208   9.727   8.966 -0.4926 -0.1228  0.4481
  113MOL0     C15172   4.227   9.076   9.545 -0.9284 -0.1469  0.4684
  113MOL0     C15173   4.114   8.982   9.546 -0.9660  0.0309 -0.3903
  113MOL0     C15174   3.770   8.721   9.726 -1.2341  0.9287 -0.3135
  113MOL0     C15175   3.679   8.779   9.633 -0.1296 -0.8315 -1.2530
  113MOL0     C15176   3.553   8.718   9.614  0.0662  0.1437 -1.2118
  113MOL0     C15177   3.510   8.599   9.690  0.0302  0.1934 -0.1252
  113MOL0     O15178   3.397   8.533   9.672  0.0602 -0.2615  0.3113
  113MOL0     C15179   3.308   8.579   9.570  0.2682  0.8116  0.1912
  113MOL0     C15180   3.197   8.480   9.565  0.0516  0.2048 -1.0114
  113MOL0     C15181   3.128   8.474   9.706 -0.4620  0.7387  0.6024
  113MOL0     C15182   3.001   8.390   9.714  0.9478 -0.2641 -1.1017
  113MOL0     C15183   2.884   8.441   9.640  0.5042  0.6337  0.1636
  113MOL0     C15184   2.773   8.441   9.593  0.0114 -0.1956  0.3403
  113MOL0     C15185   3.608   8.548   9.779  0.7204  0.6131  0.6583
  113MOL0     C15186   3.736   8.605   9.799  1.0292  0.6690  0.4144
  113MOL0     C15187   3.802   8.529   9.915  0.4530 -0.1907  0.5236
  113MOL0     H15188   4.029   9.045   9.868  0.6385 -0.6935  1.2093
  113MOL0     H15189   4.210   9.209   9.854  0.6348 -1.2300  0.1228
  113MOL0     H15190   4.432   9.200   9.459  0.0046 -1.2169  1.8837
  113MOL0     H15191   4.348   9.342   9.464  1.3777  0.0908 -1.1915
  113MOL0     H15192   4.615   9.312   9.589  0.2908  0.8671 -1.3959
  113MOL0     H15193   4.516   9.472   9.582  0.2129 -0.1888  3.1861
  113MOL0     H15194   4.563   9.492   9.347 -0.8669 -1.3021 -0.5968
  113MOL0     H15195   4.632   9.337   9.341  0.0788 -0.0033 -0.8334
  113MOL0     H15196   4.741   9.592   9.473  1.1551  0.5168 -1.9019
  113MOL0     H15197   4.779   9.426   9.532 -1.4923  1.4188  0.8214
  113MOL0     H15198   4.957   9.501   9.386 -1.1973  0.6859  0.8321
  113MOL0     H15199   4.865   9.369   9.317  1.9169  0.6228 -0.0315
  113MOL0     H15200   4.749   9.486   9.172 -0.9891  1.0657 -0.1285
  113MOL0     H15201   4.801   9.649   9.231 -0.0932 -0.4541  1.1041
  113MOL0     H15202   4.923   9.539   9.010  2.3571  2.2175 -0.9034
  113MOL0     H15203   5.017   9.467   9.139 -0.7201  1.1120  1.9709
  113MOL0     H15204   4.992   9.757   9.087  0.9533  0.8375  0.8582
  113MOL0     H15205   5.057   9.696   9.236 -0.5846  2.9342 -1.1443
  113MOL0     H15206   5.266   9.509   9.196 -0.9712  0.5952  1.9025
  113MOL0     H15207   5.504   9.426   9.081  2.3036 -1.8658 -2.3869
  113MOL0     H15208   5.512   9.488   8.912 -1.5857  2.3395 -1.1046
  113MOL0     H15209   5.608   9.620   9.168 -0.3912  0.8259 -0.5457
  113MOL0     H15210   5.695   9.527   9.039  0.5433  0.0195  0.3086
  113MOL0     H15211   5.572   9.801   9.023 -2.4481 -2.0259 -1.6770
  113MOL0     H15212   5.619   9.702   8.879 -0.4307  1.3726 -0.1994
  113MOL0     H15213   5.834   9.736   9.097 -1.3962 -1.5551  0.2418
  113MOL0     H15214   5.786   9.876   8.998  0.0342 -0.5234  0.7471
  113MOL0     H15215   5.995   9.534   8.787 -2.7558  1.3860  2.6567
  113MOL0     H15216   6.275   9.525   8.769  1.1984  0.1144  0.5475
  113MOL0     H15217   6.594   9.865   9.215  0.9769 -0.9248  1.2378
  113MOL0     H15218   6.815   9.933   9.255  0.7290  0.0862 -0.9102
  113MOL0     H15219   7.155   9.865   8.956  0.0050  1.1322 -1.7943
  113MOL0     H15220   7.071  10.017   8.939 -2.3807 -1.3863 -0.6771
  113MOL0     H15221   7.213  10.122   9.107 -1.6342  0.0656 -1.8179
  113MOL0     H15222   7.271   9.984   9.184 -1.2050  2.6675  1.4095
  113MOL0     H15223   7.396   9.903   8.975  2.6425  0.8296  0.1844
  113MOL0     H15224   7.351  10.068   8.910  1.0067  0.4975  0.9777
  113MOL0     H15225   7.519  10.000   9.148 -0.5791  0.2770 -0.0052
  113MOL0     H15226   7.438  10.159   9.128 -1.4618 -1.4964  2.2399
  113MOL0     H15227   7.539  10.166   8.904 -1.3378 -2.3989 -1.1588
  113MOL0     H15228   7.615   9.999   8.929 -2.3779 -1.4894 -0.5304
  113MOL0     H15229   7.674  10.243   9.096  4.6975  1.7481 -0.7238
  113MOL0     H15230   7.741  10.074   9.119 -0.1463 -2.8777 -2.2951
  113MOL0     H15231   7.869  10.279   8.981  2.3089 -1.3883 -0.7257
  113MOL0     H15232   7.775  10.208   8.846  0.4507 -4.0599 -1.0893
  113MOL0     H15233   7.891  10.003   8.848 -0.5123  0.2612 -1.0982
  113MOL0     H15234   7.999  10.133   8.860  0.5183 -1.1650 -0.5661
  113MOL0     H15235   6.936   9.829   8.857 -0.4516  3.1876 -1.1242
  113MOL0     H15236   6.701   9.776   8.807 -1.9348  1.8318  1.1174
  113MOL0     H15237   6.267   9.845   9.057 -0.1798 -0.1999 -1.0970
  113MOL0     H15238   6.034   9.866   9.038  1.4376  0.7315  1.9078
  113MOL0     H15239   4.288   9.075   9.455  0.1178 -0.8572  1.1667
  113MOL0     H15240   4.089   8.912   9.467 -1.1659 -0.1275 -0.1880
  113MOL0     H15241   3.698   8.869   9.576 -2.7458 -0.1885 -1.2224
  113MOL0     H15242   3.482   8.756   9.542  0.2416  1.3729 -0.7618
  113MOL0     H15243   3.353   8.578   9.470 -0.6675 -1.0886 -0.2534
  113MOL0     H15244   3.265   8.677   9.591 -2.5184 -0.5930  1.5186
  113MOL0     H15245   3.244   8.384   9.542  1.1143  0.8672 -1.6558
  113MOL0     H15246   3.119   8.501   9.491  0.7330  0.9591 -1.5295
  113MOL0     H15247   3.102   8.575   9.741  0.5689  1.1216  0.3015
  113MOL0     H15248   3.198   8.432   9.779 -2.4960 -2.0951  1.0809
  113MOL0     H15249   3.032   8.291   9.679 -0.4720 -1.0419 -0.2547
  113MOL0     H15250   2.977   8.392   9.821 -1.3337  1.0465 -1.5693
  113MOL0     H15251   2.675   8.442   9.551  1.0553  1.4204 -2.2833
  113MOL0     H15252   3.583   8.464   9.843  1.3805 -0.3302 -0.2861
  113MOL0     H15253   3.896   8.570   9.953  0.0923  0.7922  0.3788
  113MOL0     H15254   3.739   8.507  10.001 -1.1349 -1.7625 -0.9729
  113MOL0     H15255   3.819   8.434   9.864  1.9489  1.6789 -2.8158
  114MOL0     O15256   4.033   6.196   4.684  0.3182  0.1359  0.3715
  114MOL0     C15257   4.135   6.125   4.687 -0.4914 -0.2879 -0.3756
  114MOL0     O15258   4.261   6.165   4.718  0.3040  0.5564  0.4674
  114MOL0     C15259   4.291   6.282   4.763 -0.1240 -0.2324  0.7444
  114MOL0     C15260   4.231   6.411   4.719  0.0004  0.5760  0.2261
  114MOL0     C15261   4.270   6.531   4.779 -0.1978 -0.5370 -0.2110
  114MOL0     C15262   4.361   6.533   4.887  0.1419  1.6855  1.1116
  114MOL0     O15263   4.390   6.651   4.946  0.0752 -0.0140 -0.4345
  114MOL0     C15264   4.525   6.665   4.984 -0.6698  0.1415  0.5405
  114MOL0     C15265   4.549   6.811   5.028  0.5362  0.2341  0.1526
  114MOL0     C15266   4.586   6.893   4.906  0.1185 -1.2008 -0.6410
  114MOL0     C15267   4.588   7.043   4.950  0.1030  0.2709  0.6187
  114MOL0     C15268   4.448   7.099   4.960  0.0518  0.5446 -0.2970
  114MOL0     C15269   4.459   7.255   4.971 -0.4337  0.2408 -0.2729
  114MOL0     C15270   4.321   7.313   4.985  0.3021  0.1172 -0.1071
  114MOL0     C15271   4.267   7.355   4.844 -0.0725  0.1248 -0.3116
  114MOL0     N15272   4.132   7.410   4.844  0.0069 -0.1540  0.1767
  114MOL0     C15273   4.010   7.352   4.879 -0.1472  0.7623 -0.1329
  114MOL0     C15274   3.920   7.457   4.872 -1.1047  0.4768 -0.6551
  114MOL0     C15275   3.774   7.444   4.897 -0.0826  0.6442  1.2030
  114MOL0     C15276   3.715   7.500   5.016  0.4893 -0.3370 -1.0741
  114MOL0     C15277   3.774   7.448   5.154 -0.5860 -0.1672  0.2745
  114MOL0     C15278   3.746   7.552   5.258  0.1256  0.3357  0.0227
  114MOL0     O15279   3.822   7.670   5.227 -0.0018  0.4378  0.1086
  114MOL0     C15280   3.955   7.663   5.221 -0.6375 -0.8327  0.7207
  114MOL0     C15281   4.036   7.598   5.313  0.0918  0.4925  0.1262
  114MOL0     C15282   4.172   7.606   5.313  0.7255  0.5765 -1.1447
  114MOL0     C15283   4.247   7.661   5.211  0.1814 -0.4929  0.0977
  114MOL0     C15284   4.391   7.663   5.206  0.2931  0.2782  0.4733
  114MOL0     O15285   4.452   7.754   5.120 -0.1719 -0.6728  0.3050
  114MOL0     C15286   4.588   7.751   5.083 -0.3488 -0.6193  0.0553
  114MOL0     C15287   4.658   7.880   5.069 -0.9734  0.0573  0.2950
  114MOL0     C15288   4.799   7.875   5.034 -0.0278 -0.0390  0.5268
  114MOL0     C15289   4.856   7.749   5.007  0.2364 -0.0318 -0.1351
  114MOL0     O15290   4.977   7.737   4.962 -0.4109  0.5947 -0.2491
  114MOL0     C15291   5.086   7.767   5.066  0.2380 -0.1339 -0.2337
  114MOL0     C15292   5.178   7.892   5.032  0.3189 -0.0052  0.1584
  114MOL0     C15293   5.309   7.881   5.113 -0.6700  0.7327 -0.8007
  114MOL0     C15294   5.417   7.979   5.051 -0.0217 -0.1404 -0.2729
  114MOL0     C15295   5.543   7.895   5.013 -0.8489 -0.3150 -0.3996
  114MOL0     C15296   5.670   7.984   4.982  0.4787  0.3990 -0.4334
  114MOL0     C15297   5.775   7.888   4.940  0.3504 -0.2736 -0.1682
  114MOL0     C15298   5.910   7.956   4.937  0.2162  0.1883 -0.2151
  114MOL0    Cl15299   6.032   7.852   4.863 -0.0623  0.2029 -0.3161
  114MOL0     C15300   4.782   7.633   5.020 -0.7211  0.3601  0.3748
  114MOL0     C15301   4.651   7.628   5.060  0.0140 -0.2874  0.0479
  114MOL0     O15302   4.446   7.574   5.268 -0.6046 -0.1640 -0.0094
  114MOL0     C15303   4.170   7.722   5.111 -0.1054 -0.9379 -0.1235
  114MOL0     C15304   4.035   7.736   5.128 -0.3253 -0.5870 -0.4736
  114MOL0     N15305   3.989   7.568   4.826 -0.2226 -0.5534  0.1742
  114MOL0     N15306   4.107   7.537   4.800  0.3417 -0.1076  0.5312
  114MOL0     C15307   4.424   6.410   4.922  0.2109  0.2207 -0.1045
  114MOL0     C15308   4.385   6.288   4.863  0.2859 -0.8882 -0.0384
  114MOL0     C15309   4.121   5.983   4.656 -0.2820  0.1780 -0.1317
  114MOL0     C15310   4.230   5.901   4.671 -0.7718 -0.3311  0.0880
  114MOL0     C15311   4.239   5.770   4.622 -0.7985 -0.3551  1.2411
  114MOL0     C15312   4.127   5.711   4.570 -0.3753  0.0420  0.9280
  114MOL0     O15313   4.136   5.576   4.547  0.4029 -0.1047  0.2588
  114MOL0     C15314   4.046   5.517   4.443  0.1994  1.0177  0.5367
  114MOL0     C15315   4.099   5.380   4.396 -0.3165 -0.1233 -0.2505
  114MOL0     C15316   4.207   5.403   4.290  0.6285  0.2667 -0.5649
  114MOL0     C15317   4.268   5.280   4.238 -0.6903  0.5101  0.5187
  114MOL0     C15318   4.181   5.175   4.183  0.0592  0.6572 -0.3405
  114MOL0     C15319   4.097   5.103   4.138  0.6587  0.1317  0.3297
  114MOL0     C15320   4.012   5.788   4.551  0.6682 -0.3865  0.0737
  114MOL0     C15321   4.003   5.919   4.604 -0.1591 -0.3135 -0.5005
  114MOL0     C15322   3.881   5.994   4.553 -0.2331  0.0853  0.3879
  114MOL0     H15323   4.156   6.411   4.641  1.6898  0.1815 -1.4842
  114MOL0     H15324   4.223   6.621   4.743 -1.6877 -0.9512  0.5782
  114MOL0     H15325   4.557   6.595   5.062  0.0617  0.6041  0.6701
  114MOL0     H15326   4.582   6.635   4.896 -0.7004 -2.6603  1.3891
  114MOL0     H15327   4.635   6.810   5.096 -0.6099  0.8486  1.6723
  114MOL0     H15328   4.464   6.851   5.084  0.7334 -0.0101  0.6351
  114MOL0     H15329   4.524   6.871   4.819  0.3517 -3.9283 -0.2032
  114MOL0     H15330   4.692   6.875   4.882  0.8190  0.0474  1.2118
  114MOL0     H15331   4.642   7.056   5.044  1.1455  1.3345 -0.1066
  114MOL0     H15332   4.643   7.094   4.870  0.9267 -2.3341 -0.5902
  114MOL0     H15333   4.384   7.067   4.878  0.7268  2.5046 -1.6507
  114MOL0     H15334   4.407   7.040   5.043  1.4876 -0.2127 -0.0858
  114MOL0     H15335   4.523   7.293   5.051 -0.8312  1.0249 -0.3129
  114MOL0     H15336   4.505   7.306   4.885 -0.4041  1.1077  0.2474
  114MOL0     H15337   4.335   7.404   5.044  1.7527 -0.4249  0.4346
  114MOL0     H15338   4.243   7.251   5.031 -1.4611  1.2002 -1.4600
  114MOL0     H15339   4.338   7.426   4.801  0.6919 -1.1232 -1.1725
  114MOL0     H15340   4.258   7.266   4.781 -3.7968  0.0094  0.1601
  114MOL0     H15341   3.991   7.247   4.899  0.8850  0.4760 -0.5917
  114MOL0     H15342   3.730   7.494   4.810  1.4247  0.1915  0.1535
  114MOL0     H15343   3.734   7.344   4.877 -0.8698  0.8201  1.8133
  114MOL0     H15344   3.728   7.608   5.012 -0.3108 -0.2332 -1.0985
  114MOL0     H15345   3.606   7.493   5.021  0.2084  3.2245  0.3188
  114MOL0     H15346   3.882   7.437   5.143 -0.7322  0.6070 -2.9308
  114MOL0     H15347   3.726   7.351   5.172 -1.3717  0.1454 -0.0807
  114MOL0     H15348   3.778   7.506   5.353 -1.6759  1.3501  1.1618
  114MOL0     H15349   3.637   7.560   5.259  0.1171  0.3780 -0.6670
  114MOL0     H15350   3.994   7.542   5.396 -0.6181 -1.1726 -1.2778
  114MOL0     H15351   4.214   7.557   5.401 -0.7312 -0.6015 -1.0679
  114MOL0     H15352   4.602   7.972   5.071 -2.0963 -0.1875 -5.0613
  114MOL0     H15353   4.855   7.967   5.021  0.6106 -0.5045 -0.0636
  114MOL0     H15354   5.028   7.791   5.156 -1.5704 -2.8235 -0.5575
  114MOL0     H15355   5.140   7.673   5.080 -1.7202 -1.5952 -1.8920
  114MOL0     H15356   5.204   7.901   4.926 -2.5502  1.7212 -0.5160
  114MOL0     H15357   5.127   7.979   5.074  2.1931  0.5739  1.3478
  114MOL0     H15358   5.277   7.909   5.214 -0.4079 -0.4809 -0.3628
  114MOL0     H15359   5.342   7.777   5.120  0.6722  1.1606 -0.6452
  114MOL0     H15360   5.440   8.050   5.131 -2.1340  1.3300 -0.9142
  114MOL0     H15361   5.385   8.041   4.968 -0.6498  3.6289  2.5242
  114MOL0     H15362   5.528   7.825   4.930  0.5087 -2.4926  1.0843
  114MOL0     H15363   5.581   7.839   5.099 -0.0397  1.6872  0.5844
  114MOL0     H15364   5.652   8.056   4.901  2.1536 -1.4749 -2.6025
  114MOL0     H15365   5.696   8.045   5.068  0.6884  0.0085 -0.2180
  114MOL0     H15366   5.741   7.848   4.844 -0.5456 -1.4953  0.6236
  114MOL0     H15367   5.782   7.807   5.014 -0.1027  1.5072  1.9390
  114MOL0     H15368   5.900   8.054   4.889 -0.4870 -0.0945 -0.6605
  114MOL0     H15369   5.939   7.960   5.043  1.6881  2.3947 -0.6356
  114MOL0     H15370   4.827   7.536   5.002 -1.3024  0.6187 -3.2442
  114MOL0     H15371   4.607   7.530   5.076  2.1660 -1.9979 -3.3159
  114MOL0     H15372   4.211   7.786   5.033  0.0577 -0.2871  0.4819
  114MOL0     H15373   3.985   7.797   5.053 -1.9107 -0.7765  0.3952
  114MOL0     H15374   4.484   6.397   5.011  0.3832 -0.6311 -0.3354
  114MOL0     H15375   4.425   6.194   4.902  0.1313 -0.8094  0.3158
  114MOL0     H15376   4.317   5.936   4.725 -1.5480  2.1132 -0.1460
  114MOL0     H15377   4.323   5.704   4.643 -1.1069 -1.1842 -0.0481
  114MOL0     H15378   4.048   5.585   4.358 -0.5114  2.0537  1.3183
  114MOL0     H15379   3.942   5.517   4.478  0.0409  2.0444  0.0990
  114MOL0     H15380   4.018   5.326   4.346 -2.8005  1.4289  1.8274
  114MOL0     H15381   4.145   5.318   4.474  1.6151 -1.1945 -2.1369
  114MOL0     H15382   4.292   5.462   4.326 -1.5868  2.3135  1.7379
  114MOL0     H15383   4.170   5.468   4.210  3.0057  4.7302  1.5691
  114MOL0     H15384   4.337   5.305   4.157 -0.1111 -1.1888  0.4548
  114MOL0     H15385   4.326   5.242   4.322 -1.6817  1.3166  1.5872
  114MOL0     H15386   4.031   5.027   4.101  1.3170 -0.0138 -0.5681
  114MOL0     H15387   3.930   5.738   4.502  0.1938  0.2231  0.2318
  114MOL0     H15388   3.829   6.043   4.636 -1.5042  1.6849 -1.2685
  114MOL0     H15389   3.900   6.063   4.471  0.5991  1.2064  1.4792
  114MOL0     H15390   3.806   5.922   4.519  0.8616 -0.9329  0.0564
  115MOL0     O15391   6.093   2.790   9.834  0.1124 -0.1515 -0.0664
  115MOL0     C15392   6.047   2.905   9.830  0.5992  0.5826  0.0466
  115MOL0     O15393   6.069   3.001   9.740  0.0283 -0.4906  0.3121
  115MOL0     C15394   6.174   2.991   9.646  0.4847 -0.7625 -0.0132
  115MOL0     C15395   6.151   2.908   9.538 -0.6228  0.4336 -0.0271
  115MOL0     C15396   6.251   2.881   9.447 -0.3721 -0.4326  0.8958
  115MOL0     C15397   6.374   2.942   9.457  0.1838  0.9026 -0.8511
  115MOL0     O15398   6.460   2.908   9.354  0.2374  1.0980 -0.0404
  115MOL0     C15399   6.587   2.978   9.358  0.1263 -0.0182  0.2677
  115MOL0     C15400   6.666   2.931   9.226 -0.4563 -0.2650 -0.5388
  115MOL0     C15401   6.781   3.020   9.219 -0.2531  0.3563 -0.5293
  115MOL0     C15402   6.874   2.992   9.102  0.7058  0.6494  0.6151
  115MOL0     C15403   7.004   3.073   9.101  0.3985  0.3760 -0.5253
  115MOL0     C15404   7.111   3.054   9.219  1.0958 -0.1493  0.0392
  115MOL0     C15405   7.142   2.903   9.230  0.5058  0.6906 -0.4201
  115MOL0     C15406   7.245   2.870   9.342 -0.0318  0.4870  0.5168
  115MOL0     N15407   7.378   2.935   9.320  0.3347  0.6619 -0.0027
  115MOL0     C15408   7.433   3.044   9.382 -1.0522  0.2449  0.3528
  115MOL0     C15409   7.540   3.068   9.311  0.0984  0.0099 -0.1435
  115MOL0     C15410   7.622   3.182   9.326 -0.3718  0.6629 -0.0569
  115MOL0     C15411   7.772   3.158   9.283  0.9944 -1.0927 -0.4204
  115MOL0     C15412   7.836   3.061   9.373 -0.3297 -0.0762 -0.1512
  115MOL0     C15413   7.986   3.042   9.335  1.3521  0.3951  0.1574
  115MOL0     O15414   8.069   3.146   9.383 -0.4740  0.6318 -0.0459
  115MOL0     C15415   8.196   3.150   9.335 -0.2600  0.2686  0.4829
  115MOL0     C15416   8.247   3.053   9.239 -0.5392  0.3262  0.3124
  115MOL0     C15417   8.377   3.055   9.197 -0.2573  0.3710  0.2824
  115MOL0     C15418   8.470   3.143   9.266 -0.3783  0.2817  0.1410
  115MOL0     C15419   8.617   3.142   9.239 -0.1045  0.0395  1.4342
  115MOL0     O15420   8.703   3.222   9.317  0.1764  1.0375 -0.4356
  115MOL0     C15421   8.839   3.234   9.299 -0.5317  0.5495  0.5464
  115MOL0     C15422   8.927   3.131   9.250  0.0687 -0.6746  0.1409
  115MOL0     C15423   9.059   3.165   9.230  0.0907  0.3814 -0.0093
  115MOL0     C15424   9.116   3.292   9.249  0.4033 -0.3906 -0.3926
  115MOL0     O15425   9.250   3.321   9.247  0.0765  0.0248  0.3843
  115MOL0     C15426   9.350   3.216   9.273 -0.7740  0.0857 -0.8241
  115MOL0     C15427   9.485   3.291   9.272  1.1030  0.5574  0.1484
  115MOL0     C15428   9.610   3.209   9.276 -0.2638 -0.5013 -0.4706
  115MOL0     C15429   9.618   3.130   9.143  0.1479  0.2079 -0.2501
  115MOL0     C15430   9.748   3.065   9.121 -1.0417 -0.2780  0.0434
  115MOL0     C15431   9.786   2.952   9.221  0.6400  0.2598 -0.3955
  115MOL0     C15432   9.895   2.857   9.171 -0.1443  0.0799  0.1747
  115MOL0     C15433   9.927   2.739   9.272  0.4829  0.2588  0.3615
  115MOL0    Cl15434  10.066   2.662   9.212 -0.4567  0.0972 -0.3684
  115MOL0     C15435   9.032   3.392   9.303  0.0237  0.2011  1.0405
  115MOL0     C15436   8.892   3.362   9.314  1.1125 -0.3367 -0.8501
  115MOL0     O15437   8.650   3.060   9.152  0.1205  0.1268 -0.4020
  115MOL0     C15438   8.413   3.244   9.351  0.1745  0.4111  0.0594
  115MOL0     C15439   8.277   3.253   9.374 -0.0304  0.4226  1.3218
  115MOL0     N15440   7.561   2.974   9.218 -0.3179  0.6355  0.2746
  115MOL0     N15441   7.464   2.897   9.223 -0.3072  0.7148 -0.0215
  115MOL0     C15442   6.396   3.025   9.568 -0.5979  0.6860 -0.6288
  115MOL0     C15443   6.296   3.049   9.667 -0.2885 -0.4612  0.4357
  115MOL0     C15444   5.927   2.932   9.930 -1.1410  0.5151  0.1418
  115MOL0     C15445   5.854   2.822   9.960 -0.7328  0.1494  0.8649
  115MOL0     C15446   5.735   2.831  10.037 -1.0649  0.2195 -0.2248
  115MOL0     C15447   5.699   2.950  10.102  0.3211 -0.1628  0.6831
  115MOL0     O15448   5.594   2.966  10.186  0.3481  0.4037 -0.9336
  115MOL0     C15449   5.506   2.854  10.207 -0.2168  0.2063 -0.2684
  115MOL0     C15450   5.376   2.889  10.268  0.4530  0.2999 -0.2290
  115MOL0     C15451   5.384   2.975  10.401  0.0247 -0.0762 -0.1050
  115MOL0     C15452   5.249   2.992  10.456 -0.4869  0.1528 -0.3185
  115MOL0     C15453   5.190   2.863  10.490 -0.3315  0.8917 -0.0653
  115MOL0     C15454   5.149   2.747  10.503  0.2377 -0.3135 -0.6051
  115MOL0     C15455   5.780   3.063  10.079 -0.1243 -0.3460 -0.2660
  115MOL0     C15456   5.882   3.058   9.978 -0.4399  0.6099 -1.2923
  115MOL0     C15457   5.946   3.179   9.933  0.2255  0.4301 -0.3435
  115MOL0     H15458   6.051   2.866   9.529 -0.2251 -0.2609 -1.5753
  115MOL0     H15459   6.228   2.819   9.361 -0.8061 -0.6205  1.1391
  115MOL0     H15460   6.571   3.086   9.363 -0.0842  0.1331 -2.4489
  115MOL0     H15461   6.651   2.955   9.444  1.9962 -0.3485 -1.1504
  115MOL0     H15462   6.605   2.938   9.135  0.6911  1.5588 -1.2245
  115MOL0     H15463   6.699   2.828   9.247  1.4723  0.2608 -0.7539
  115MOL0     H15464   6.846   2.997   9.305  1.8877 -2.5818 -2.6740
  115MOL0     H15465   6.761   3.127   9.209  0.3075  0.2645 -3.5526
  115MOL0     H15466   6.886   2.883   9.107 -1.3917  0.4005  1.5113
  115MOL0     H15467   6.827   3.012   9.005  0.4940 -2.3619  0.0051
  115MOL0     H15468   7.060   3.059   9.008  0.3929 -0.2373 -0.4361
  115MOL0     H15469   6.977   3.179   9.101  1.4825  0.6560 -0.1793
  115MOL0     H15470   7.204   3.108   9.201  0.6928 -0.0597 -2.0963
  115MOL0     H15471   7.079   3.095   9.315  1.0904  1.6626 -0.7026
  115MOL0     H15472   7.165   2.860   9.132  0.6452 -1.9896  0.7140
  115MOL0     H15473   7.048   2.851   9.253  1.6443 -0.5810  1.6667
  115MOL0     H15474   7.206   2.900   9.440 -2.5152 -1.5803  0.2491
  115MOL0     H15475   7.260   2.762   9.349  1.1680  0.6157  0.0788
  115MOL0     H15476   7.389   3.110   9.457 -0.2212  1.9327 -0.5802
  115MOL0     H15477   7.579   3.265   9.268 -0.4683 -0.3715 -1.5169
  115MOL0     H15478   7.630   3.194   9.434  0.8678 -0.7813  0.0392
  115MOL0     H15479   7.770   3.120   9.181 -0.1797 -1.6046 -0.2214
  115MOL0     H15480   7.818   3.257   9.288 -0.6372  0.0174 -4.3163
  115MOL0     H15481   7.793   2.961   9.366  0.4930 -0.5069  0.7934
  115MOL0     H15482   7.825   3.088   9.478 -0.8929 -1.5246  0.1785
  115MOL0     H15483   8.000   3.027   9.227  5.3184  0.9976  0.4162
  115MOL0     H15484   8.016   2.945   9.375  3.2147  1.3819  1.3009
  115MOL0     H15485   8.182   2.980   9.193 -0.1352  0.9848 -1.3638
  115MOL0     H15486   8.411   3.001   9.109  0.5310  2.5230 -0.7965
  115MOL0     H15487   8.884   3.033   9.236 -1.0273  0.1049 -2.7264
  115MOL0     H15488   9.134   3.095   9.196 -1.1818  0.3637 -3.1079
  115MOL0     H15489   9.336   3.161   9.366  0.3997  0.7253 -0.2516
  115MOL0     H15490   9.352   3.147   9.188  2.3024 -0.7584 -0.1834
  115MOL0     H15491   9.492   3.345   9.178 -1.8757 -0.7059 -0.9168
  115MOL0     H15492   9.491   3.358   9.358  2.3584  0.7683 -0.0805
  115MOL0     H15493   9.701   3.265   9.297  0.7359 -2.2350  0.0021
  115MOL0     H15494   9.594   3.144   9.362 -2.2630 -0.7464 -0.9739
  115MOL0     H15495   9.609   3.201   9.060  1.5408 -0.4208 -0.9689
  115MOL0     H15496   9.546   3.048   9.138 -1.1223  1.3277 -1.0593
  115MOL0     H15497   9.831   3.137   9.117 -3.7298  3.0085 -0.9644
  115MOL0     H15498   9.743   3.018   9.023 -1.8443 -1.4390  0.6211
  115MOL0     H15499   9.804   2.994   9.320  0.0778 -0.4269  0.0028
  115MOL0     H15500   9.700   2.886   9.231  1.6144 -1.0980 -0.7629
  115MOL0     H15501   9.987   2.906   9.138  0.4095 -1.8747 -1.3845
  115MOL0     H15502   9.860   2.817   9.076 -0.2436  0.2080  0.1564
  115MOL0     H15503   9.958   2.770   9.371  0.5160 -3.5288  1.7268
  115MOL0     H15504   9.840   2.672   9.279 -1.2008  2.2535 -0.5144
  115MOL0     H15505   9.067   3.489   9.338 -0.7379  0.9488 -0.1512
  115MOL0     H15506   8.828   3.434   9.363 -1.1949 -0.7569 -3.0455
  115MOL0     H15507   8.481   3.320   9.388 -1.8412  2.0651  0.5285
  115MOL0     H15508   8.243   3.338   9.431  2.8889  2.1877  0.6481
  115MOL0     H15509   6.495   3.058   9.597 -1.0402  1.2790  0.2709
  115MOL0     H15510   6.310   3.110   9.756 -0.7368  0.4051 -0.0803
  115MOL0     H15511   5.889   2.728   9.918 -1.0577 -0.3751  1.7444
  115MOL0     H15512   5.695   2.731  10.051  2.1620 -0.9382  2.0955
  115MOL0     H15513   5.566   2.789  10.271 -1.0805  0.8030  1.2062
  115MOL0     H15514   5.485   2.800  10.114 -0.7474 -0.7917  0.4024
  115MOL0     H15515   5.316   2.798  10.282 -1.0386  1.0301 -1.6365
  115MOL0     H15516   5.309   2.944  10.202 -2.0704 -0.0089  1.8774
  115MOL0     H15517   5.427   3.071  10.374  0.9819 -0.6489 -0.6766
  115MOL0     H15518   5.451   2.934  10.477  1.7129  1.2018 -0.8393
  115MOL0     H15519   5.257   3.060  10.542 -2.6841 -1.3011  1.1297
  115MOL0     H15520   5.181   3.048  10.392  0.2320 -0.4025 -1.5880
  115MOL0     H15521   5.116   2.648  10.530  3.0425 -1.1160  0.2028
  115MOL0     H15522   5.762   3.158  10.129  2.6960  1.2638 -2.0522
  115MOL0     H15523   6.051   3.149   9.932 -0.3560 -1.7043 -0.9484
  115MOL0     H15524   5.921   3.208   9.830 -2.7960 -1.7751 -0.3748
  115MOL0     H15525   5.945   3.259  10.008 -1.6405 -1.4733  1.8073
  116MOL0     O15526   7.770   9.795   5.710 -0.6631 -0.3579  0.1888
  116MOL0     C15527   7.676   9.738   5.659 -0.7706 -0.7138  0.4576
  116MOL0     O15528   7.656   9.729   5.522 -0.2247  0.2347  0.1430
  116MOL0     C15529   7.754   9.784   5.447 -0.6276  0.1418  1.1038
  116MOL0     C15530   7.797   9.915   5.447  0.6445  0.2883 -1.0346
  116MOL0     C15531   7.899   9.958   5.363  0.1095 -0.7090 -0.6450
  116MOL0     C15532   7.962   9.865   5.276 -0.2773  0.3416  0.1648
  116MOL0     O15533   8.067   9.905   5.192 -0.4324  0.4380 -0.1522
  116MOL0     C15534   8.149  10.000   5.251 -0.4512 -0.1449  0.4827
  116MOL0     C15535   8.259  10.005   5.148 -1.3766  0.2788  0.5512
  116MOL0     C15536   8.362  10.106   5.176 -0.2325 -0.0377  1.1331
  116MOL0     C15537   8.437  10.093   5.311  0.0333 -0.3045 -0.5044
  116MOL0     C15538   8.377  10.185   5.414 -0.1219 -0.4459 -0.0611
  116MOL0     C15539   8.462  10.196   5.545  1.1133 -0.7579  0.1375
  116MOL0     C15540   8.374  10.294   5.642 -0.1306 -0.2838  0.9392
  116MOL0     C15541   8.426  10.303   5.785  0.0862 -0.9580 -0.4949
  116MOL0     N15542   8.345  10.398   5.869  0.0006 -0.0605  0.0647
  116MOL0     C15543   8.367  10.538   5.865  0.7887  0.6275  0.6601
  116MOL0     C15544   8.274  10.581   5.953  0.1683  0.6617 -0.4280
  116MOL0     C15545   8.228  10.719   5.998  0.2202 -0.2011  0.4342
  116MOL0     C15546   8.075  10.731   6.045 -0.5312 -0.1941 -0.7332
  116MOL0     C15547   8.047  10.665   6.184 -0.3614 -0.2283  0.1027
  116MOL0     C15548   7.898  10.688   6.211  0.6320  0.2020  0.3008
  116MOL0     O15549   7.860  10.633   6.341  0.2465 -0.2113  0.5857
  116MOL0     C15550   7.917  10.676   6.454 -0.4474 -0.2745 -0.3853
  116MOL0     C15551   7.902  10.587   6.564  0.2982  0.0702 -0.0038
  116MOL0     C15552   7.931  10.635   6.690 -0.3581  0.9256 -0.0300
  116MOL0     C15553   7.984  10.762   6.718 -0.4281 -0.4463  0.2459
  116MOL0     C15554   8.030  10.797   6.863 -0.6339  0.5424 -0.0992
  116MOL0     O15555   8.003  10.712   6.968  0.3334  0.4670  0.7034
  116MOL0     C15556   8.041  10.752   7.096  0.4344 -0.9223  0.1965
  116MOL0     C15557   8.173  10.750   7.143 -0.6277  0.3615 -0.2282
  116MOL0     C15558   8.199  10.803   7.271  0.2950  0.5683  0.6679
  116MOL0     C15559   8.101  10.855   7.346 -0.5587 -0.2941 -0.6161
  116MOL0     O15560   8.145  10.925   7.458  0.2852 -0.0989 -0.8185
  116MOL0     C15561   8.044  11.007   7.521  0.0931 -0.5224  0.1197
  116MOL0     C15562   8.099  11.107   7.625 -0.3634  0.2798 -0.0429
  116MOL0     C15563   8.199  11.049   7.714  0.8730  0.0488  0.5128
  116MOL0     C15564   8.135  10.959   7.826 -0.0540  0.3954  0.1209
  116MOL0     C15565   8.248  10.877   7.911  0.0190  0.0972 -0.2694
  116MOL0     C15566   8.192  10.814   8.042  0.7526 -1.1044 -0.3468
  116MOL0     C15567   8.065  10.731   8.026 -0.1467  0.2568 -0.5598
  116MOL0     C15568   8.037  10.676   8.161  0.1090  0.2553  0.1055
  116MOL0    Cl15569   7.878  10.588   8.134 -0.4530 -0.5248 -0.1226
  116MOL0     C15570   7.965  10.841   7.302  0.1307  0.6146  0.3616
  116MOL0     C15571   7.935  10.780   7.183 -0.0944 -0.5116  0.3842
  116MOL0     O15572   8.078  10.915   6.871 -0.2529  0.1872 -0.1696
  116MOL0     C15573   7.997  10.847   6.609 -0.1996  0.7277 -0.0666
  116MOL0     C15574   7.960  10.807   6.484 -0.6564  0.6526  0.3969
  116MOL0     N15575   8.229  10.466   6.023 -0.7425 -0.7332 -0.1008
  116MOL0     N15576   8.264  10.362   5.968 -0.5227 -0.4099  0.0255
  116MOL0     C15577   7.924   9.734   5.284 -0.4918  0.0610 -0.5338
  116MOL0     C15578   7.819   9.694   5.369 -0.0729  0.7076 -0.5448
  116MOL0     C15579   7.575   9.686   5.751  0.4930 -0.7899  0.9649
  116MOL0     C15580   7.496   9.582   5.713 -0.7976  0.1939  0.5597
  116MOL0     C15581   7.435   9.507   5.807  0.0063 -0.1130 -0.5302
  116MOL0     C15582   7.436   9.531   5.948 -0.1788 -0.0543 -0.8651
  116MOL0     O15583   7.378   9.465   6.046  0.6285 -0.2075 -0.2611
  116MOL0     C15584   7.309   9.340   6.021 -0.9034  0.5512 -0.4709
  116MOL0     C15585   7.165   9.354   5.976  0.1589 -0.5415  0.0943
  116MOL0     C15586   7.069   9.423   6.075  0.8673  0.5783  0.5252
  116MOL0     C15587   6.927   9.430   6.007 -1.2607 -0.4530 -0.4479
  116MOL0     C15588   6.858   9.306   6.009  0.4967 -0.0466 -1.7059
  116MOL0     C15589   6.770   9.223   6.016 -0.4118  0.5268 -0.1248
  116MOL0     C15590   7.497   9.647   5.977 -1.1011 -0.1158 -1.4927
  116MOL0     C15591   7.561   9.730   5.883 -0.0610  0.1635 -0.4130
  116MOL0     C15592   7.611   9.861   5.946  0.6824 -0.4358 -0.1046
  116MOL0     H15593   7.739   9.980   5.513  0.0453 -1.3413  0.1146
  116MOL0     H15594   7.920  10.064   5.373 -0.8344 -0.6166  0.5785
  116MOL0     H15595   8.098  10.097   5.252  2.1576  1.3962 -1.8715
  116MOL0     H15596   8.172   9.958   5.349 -0.6477 -1.5734 -0.0574
  116MOL0     H15597   8.219  10.023   5.047 -1.2366  3.7373  0.9794
  116MOL0     H15598   8.312   9.909   5.156  2.6017  2.1631 -0.3880
  116MOL0     H15599   8.304  10.199   5.172 -1.3145 -0.4749 -5.5580
  116MOL0     H15600   8.424  10.105   5.086 -3.4067  0.4419 -1.2333
  116MOL0     H15601   8.426   9.991   5.351 -2.0281 -0.1582 -0.5879
  116MOL0     H15602   8.544  10.111   5.300  0.4805 -1.5200  1.3415
  116MOL0     H15603   8.350  10.282   5.373  1.1042  0.3392  0.9090
  116MOL0     H15604   8.284  10.137   5.444  0.4563  0.3006  3.4670
  116MOL0     H15605   8.462  10.094   5.584 -0.8679 -0.9671 -0.3334
  116MOL0     H15606   8.568  10.222   5.533  1.2498 -1.5697 -0.5096
  116MOL0     H15607   8.270  10.259   5.638 -0.3469  0.4173 -1.4242
  116MOL0     H15608   8.371  10.391   5.591 -0.4618 -1.0084 -0.4741
  116MOL0     H15609   8.419  10.203   5.829  0.4816 -0.8134 -0.0985
  116MOL0     H15610   8.531  10.333   5.778  0.4025 -1.7264  0.6652
  116MOL0     H15611   8.433  10.583   5.792  0.5390 -2.8564 -1.9283
  116MOL0     H15612   8.298  10.762   6.069  0.3082  2.9408 -1.3631
  116MOL0     H15613   8.254  10.783   5.913  0.8295  0.3288  1.0165
  116MOL0     H15614   8.062  10.840   6.051 -1.9427 -0.4092  0.9223
  116MOL0     H15615   8.007  10.690   5.970 -1.2563 -1.7025  0.6829
  116MOL0     H15616   8.105  10.720   6.258  0.7955 -0.2963 -0.7242
  116MOL0     H15617   8.061  10.556   6.193  0.8449  0.0868  4.2091
  116MOL0     H15618   7.839  10.639   6.132 -3.0426  0.7447  2.4550
  116MOL0     H15619   7.876  10.795   6.216  1.1283  0.2545  3.3869
  116MOL0     H15620   7.857  10.488   6.556 -1.2029  0.7727 -0.7619
  116MOL0     H15621   7.917  10.556   6.762  1.1463  1.3003  0.7231
  116MOL0     H15622   8.251  10.714   7.078  0.5145  1.5513  0.4494
  116MOL0     H15623   8.301  10.826   7.301  0.6798  0.1811 -0.2894
  116MOL0     H15624   8.001  11.067   7.440  0.4481 -1.5899 -0.8880
  116MOL0     H15625   7.961  10.952   7.565  0.6367 -2.3378 -1.0106
  116MOL0     H15626   8.148  11.191   7.576 -0.6283  0.5911  0.2229
  116MOL0     H15627   8.009  11.145   7.674  0.1331  0.1360  1.0140
  116MOL0     H15628   8.277  10.983   7.674  1.0898 -0.3493  1.5434
  116MOL0     H15629   8.258  11.133   7.751 -0.0782  2.3647 -2.7895
  116MOL0     H15630   8.070  10.889   7.773  1.7067 -0.4146 -1.0660
  116MOL0     H15631   8.069  11.016   7.893 -0.7045  0.9389 -0.9514
  116MOL0     H15632   8.344  10.927   7.925 -0.5435  1.4333 -1.0096
  116MOL0     H15633   8.273  10.790   7.850 -1.0966  1.0091 -2.1155
  116MOL0     H15634   8.270  10.746   8.076  0.6862  0.4059  3.2424
  116MOL0     H15635   8.178  10.890   8.119  1.6870  0.6476 -1.8302
  116MOL0     H15636   8.087  10.657   7.948  0.6432  1.8474 -1.9297
  116MOL0     H15637   7.980  10.792   7.995  0.8248  0.9421 -2.0549
  116MOL0     H15638   8.116  10.603   8.181  0.8375  0.7061 -1.0300
  116MOL0     H15639   8.044  10.752   8.239  4.0384 -1.9254  2.2656
  116MOL0     H15640   7.884  10.880   7.361 -0.7567 -0.6827  0.0611
  116MOL0     H15641   7.838  10.787   7.134  0.3309  0.2910 -0.3766
  116MOL0     H15642   8.032  10.949   6.621  0.9127  0.4660 -0.8832
  116MOL0     H15643   7.979  10.877   6.403  0.2516  1.3190  1.1591
  116MOL0     H15644   7.985   9.667   5.224  0.7701 -1.0965  1.9082
  116MOL0     H15645   7.779   9.593   5.364  0.5641  0.4684 -1.0600
  116MOL0     H15646   7.511   9.544   5.613  2.4276  0.1049  0.9678
  116MOL0     H15647   7.381   9.425   5.762  2.4298  0.4972 -5.1183
  116MOL0     H15648   7.300   9.292   6.119 -0.9853 -0.7415 -1.0997
  116MOL0     H15649   7.358   9.270   5.953 -1.7508 -3.3397  2.5559
  116MOL0     H15650   7.129   9.251   5.964 -0.7618  0.0096 -2.4339
  116MOL0     H15651   7.174   9.397   5.876 -1.6371 -0.2694  0.0262
  116MOL0     H15652   7.106   9.525   6.087 -1.5733  1.3793  1.8784
  116MOL0     H15653   7.050   9.382   6.175 -2.0273 -2.3726 -1.0295
  116MOL0     H15654   6.869   9.516   6.041 -0.2634  1.7025 -3.7004
  116MOL0     H15655   6.943   9.441   5.899 -1.2087  1.0997 -0.3006
  116MOL0     H15656   6.687   9.156   6.028 -1.0147  1.1984 -0.4268
  116MOL0     H15657   7.506   9.682   6.079 -1.4562 -1.3177 -1.0416
  116MOL0     H15658   7.568   9.944   5.891 -0.0599  0.3600  1.5867
  116MOL0     H15659   7.582   9.878   6.050 -0.9401  1.6214 -0.8431
  116MOL0     H15660   7.720   9.865   5.939  0.7237 -2.1636 -1.0608
  117MOL0     O15661   0.464   9.905   8.861  0.2439 -0.6363  0.0141
  117MOL0     C15662   0.406   9.993   8.797  0.5062  0.4422  1.1989
  117MOL0     O15663   0.458  10.104   8.732  0.0000  0.2992  0.1818
  117MOL0     C15664   0.593  10.110   8.729  0.3839  0.3948 -0.4089
  117MOL0     C15665   0.670  10.145   8.843  0.0116  0.1623  0.3611
  117MOL0     C15666   0.812  10.144   8.840 -0.5724  0.9932 -0.1202
  117MOL0     C15667   0.879  10.080   8.736  1.1141  0.6265  0.7859
  117MOL0     O15668   1.017  10.077   8.739 -0.7965 -0.0297  0.6054
  117MOL0     C15669   1.073   9.975   8.654 -0.5571  0.1188  0.2185
  117MOL0     C15670   1.233   9.985   8.676 -0.1306  0.5906  0.9356
  117MOL0     C15671   1.299  10.086   8.579 -0.4322 -0.5713 -0.3764
  117MOL0     C15672   1.450  10.084   8.587 -0.2646  0.3346  0.5280
  117MOL0     C15673   1.507  10.189   8.487  0.9732  0.6187 -0.2830
  117MOL0     C15674   1.659  10.183   8.467  0.0674 -0.6867  0.0688
  117MOL0     C15675   1.687  10.293   8.360  0.8354 -0.2005  0.1183
  117MOL0     C15676   1.835  10.338   8.356 -0.8038  0.0981  1.2076
  117MOL0     N15677   1.918  10.254   8.271  0.3033 -1.0016  0.3117
  117MOL0     C15678   1.939  10.122   8.288 -0.2761 -0.1068 -0.1066
  117MOL0     C15679   1.990  10.084   8.160 -0.5912 -0.9599 -0.2726
  117MOL0     C15680   2.047   9.949   8.144 -0.4373  0.5964 -0.0779
  117MOL0     C15681   1.999   9.869   8.022 -0.6621 -0.9922  0.8451
  117MOL0     C15682   1.847   9.846   8.038 -0.2723  0.2975  0.0710
  117MOL0     C15683   1.769   9.951   7.957 -0.3846 -0.0128  0.6095
  117MOL0     O15684   1.646   9.894   7.907  0.6819  0.1400 -0.2527
  117MOL0     C15685   1.546   9.867   7.998  0.1535  0.0092 -1.0332
  117MOL0     C15686   1.516   9.947   8.104  0.4075 -0.0105  0.2865
  117MOL0     C15687   1.401   9.929   8.185 -0.3685  0.3519  0.3213
  117MOL0     C15688   1.313   9.826   8.144  0.4718  0.1117 -0.1248
  117MOL0     C15689   1.182   9.800   8.223  0.1742 -0.5425  0.3540
  117MOL0     O15690   1.092   9.720   8.144  0.5583  0.2531 -0.2184
  117MOL0     C15691   0.979   9.672   8.209  0.6895 -0.8905  0.5184
  117MOL0     C15692   0.881   9.764   8.264 -0.6603  0.8932  0.2086
  117MOL0     C15693   0.767   9.717   8.332  0.3518  0.5522  0.3903
  117MOL0     C15694   0.751   9.579   8.345  0.2669  0.0027 -0.0897
  117MOL0     O15695   0.636   9.526   8.403  0.1142 -0.0336  0.0102
  117MOL0     C15696   0.520   9.607   8.436  0.4771 -0.0856 -0.1520
  117MOL0     C15697   0.438   9.532   8.550 -0.5706 -0.1462 -0.5927
  117MOL0     C15698   0.358   9.627   8.630  0.2767  0.0166 -0.3533
  117MOL0     C15699   0.251   9.555   8.718  0.1681 -0.5468  0.6714
  117MOL0     C15700   0.153   9.646   8.796  0.2095 -0.1578 -0.5465
  117MOL0     C15701   0.052   9.566   8.881 -0.8674  0.9801 -0.6436
  117MOL0     C15702  -0.049   9.661   8.951 -0.0484  0.9897  0.7369
  117MOL0     C15703  -0.169   9.580   9.003 -0.4044  0.9833  0.2532
  117MOL0    Cl15704  -0.307   9.682   9.087 -0.2737 -0.0580  0.1788
  117MOL0     C15705   0.847   9.499   8.297  0.6041  0.2791  0.2972
  117MOL0     C15706   0.968   9.543   8.247  0.0642 -0.2368  1.0847
  117MOL0     O15707   1.174   9.850   8.332  0.2387  0.6621 -0.4958
  117MOL0     C15708   1.342   9.755   8.026  0.1491  0.1212 -0.0642
  117MOL0     C15709   1.463   9.769   7.961 -0.0131 -0.0444  0.0983
  117MOL0     N15710   1.993  10.195   8.072 -0.3569  1.4160  0.1858
  117MOL0     N15711   1.945  10.293   8.145  0.6811 -0.1761  0.6007
  117MOL0     C15712   0.798  10.037   8.619 -0.3366 -0.2306 -0.1677
  117MOL0     C15713   0.662  10.054   8.620 -0.0882  0.2117  0.2175
  117MOL0     C15714   0.257   9.985   8.817 -0.4593 -0.5159 -0.2699
  117MOL0     C15715   0.208  10.005   8.947  0.1363  0.2321  0.0898
  117MOL0     C15716   0.070  10.021   8.978  0.0090 -0.2928 -0.2936
  117MOL0     C15717  -0.023  10.012   8.878  0.0307  0.3725  0.6741
  117MOL0     O15718  -0.162  10.012   8.881  0.2463  0.0400 -0.4846
  117MOL0     C15719  -0.239  10.036   9.008 -0.7978  0.1928  0.2546
  117MOL0     C15720  -0.386  10.002   8.990 -0.0032 -0.0191 -0.5480
  117MOL0     C15721  -0.459  10.008   9.125 -0.1722 -0.2189  0.8663
  117MOL0     C15722  -0.608   9.979   9.122  0.5998 -0.5939  0.4558
  117MOL0     C15723  -0.644   9.912   9.245  0.0102  0.4033 -0.3022
  117MOL0     C15724  -0.676   9.857   9.350 -0.2936  0.4362  1.4233
  117MOL0     C15725   0.019   9.988   8.747  0.4926  0.2759 -0.7177
  117MOL0     C15726   0.157   9.978   8.712 -0.1172  0.0529 -0.0839
  117MOL0     C15727   0.201   9.958   8.569 -0.1520  0.3489  0.3914
  117MOL0     H15728   0.617  10.191   8.925  2.6294  2.7312  0.7617
  117MOL0     H15729   0.864  10.163   8.933 -1.6296  0.7985  0.5302
  117MOL0     H15730   1.037   9.874   8.675  0.3418 -0.5328 -1.2517
  117MOL0     H15731   1.054  10.005   8.551 -0.4491 -3.0149 -0.8155
  117MOL0     H15732   1.255   9.884   8.641 -0.5920  1.0444 -0.7775
  117MOL0     H15733   1.267   9.997   8.779  1.6380  1.1986  0.3363
  117MOL0     H15734   1.268  10.190   8.592 -0.4243 -0.5495 -0.5394
  117MOL0     H15735   1.257  10.063   8.481 -1.7581 -1.5856  0.3784
  117MOL0     H15736   1.486  10.108   8.688 -1.8614 -0.8768  1.4329
  117MOL0     H15737   1.485   9.982   8.568  2.0148  1.1628 -0.0980
  117MOL0     H15738   1.459  10.174   8.390 -1.1858 -1.4294  0.9942
  117MOL0     H15739   1.492  10.287   8.533 -0.9228 -0.3724  1.3362
  117MOL0     H15740   1.706  10.214   8.561 -0.2198 -0.5956  0.1844
  117MOL0     H15741   1.696  10.084   8.441 -1.2304 -1.6333  1.6559
  117MOL0     H15742   1.626  10.382   8.378 -0.4640 -1.3742  1.8897
  117MOL0     H15743   1.653  10.257   8.262  0.4324  0.8224 -0.1269
  117MOL0     H15744   1.825  10.431   8.300 -0.5532 -1.6430 -1.9085
  117MOL0     H15745   1.868  10.358   8.459 -1.1242  3.4409  0.7768
  117MOL0     H15746   1.919  10.057   8.372  0.8541  2.9911  2.7835
  117MOL0     H15747   2.156   9.951   8.145 -0.3361 -1.8023  0.1563
  117MOL0     H15748   2.026   9.888   8.232  0.2192 -2.0104 -1.6228
  117MOL0     H15749   2.029   9.925   7.933 -0.6270 -2.4010 -0.0423
  117MOL0     H15750   2.050   9.773   8.029 -0.9186 -1.0648  1.9029
  117MOL0     H15751   1.825   9.845   8.145 -0.1225 -2.2226  0.1362
  117MOL0     H15752   1.836   9.742   8.009  2.1065 -1.2951  4.0738
  117MOL0     H15753   1.826   9.979   7.868  1.5413  1.5729  2.2618
  117MOL0     H15754   1.758  10.041   8.017 -2.9259 -0.6724  1.2722
  117MOL0     H15755   1.570  10.040   8.116  2.7878 -0.9620 -2.1561
  117MOL0     H15756   1.377   9.995   8.268  1.5230  0.0334  1.1748
  117MOL0     H15757   0.886   9.870   8.243  0.1590  0.6932 -0.6521
  117MOL0     H15758   0.694   9.790   8.363 -0.3305 -0.5367  1.4048
  117MOL0     H15759   0.553   9.702   8.479 -0.2869  1.6133 -3.0464
  117MOL0     H15760   0.455   9.610   8.348  0.0110  0.2142  0.1992
  117MOL0     H15761   0.382   9.445   8.515 -0.6622  0.3319 -1.6863
  117MOL0     H15762   0.509   9.493   8.624  0.2605 -1.2062 -1.8876
  117MOL0     H15763   0.421   9.685   8.698 -0.6633  0.8331 -0.1501
  117MOL0     H15764   0.309   9.693   8.557  1.4327 -0.0208 -1.1882
  117MOL0     H15765   0.303   9.508   8.801 -0.0733  0.4642  1.4072
  117MOL0     H15766   0.190   9.492   8.652 -0.7900  1.8938 -0.9098
  117MOL0     H15767   0.094   9.699   8.720  3.8203  1.8913 -2.1830
  117MOL0     H15768   0.202   9.722   8.858 -0.7700 -0.2371  0.3424
  117MOL0     H15769   0.004   9.494   8.814  2.6840  0.0810 -2.5053
  117MOL0     H15770   0.107   9.504   8.952  0.5124  2.5264 -0.2926
  117MOL0     H15771  -0.096   9.722   8.872  1.9256  0.3571 -1.0267
  117MOL0     H15772  -0.008   9.726   9.029  1.0367  0.8516  0.2906
  117MOL0     H15773  -0.204   9.509   8.928  0.6263  0.7834 -0.0573
  117MOL0     H15774  -0.134   9.523   9.090  0.6866  1.0767 -0.1133
  117MOL0     H15775   0.831   9.394   8.315  1.5163 -0.0612 -0.7828
  117MOL0     H15776   1.046   9.475   8.215 -0.4411 -0.8306  1.0990
  117MOL0     H15777   1.271   9.684   7.986 -0.9428  0.9748  0.3039
  117MOL0     H15778   1.464   9.709   7.870 -0.1886  2.9852 -2.0605
  117MOL0     H15779   0.842   9.990   8.532 -1.3493 -3.3787  0.8739
  117MOL0     H15780   0.620  10.027   8.524 -0.4054  1.4214  0.0011
  117MOL0     H15781   0.281  10.015   9.027 -1.3723 -2.2723  1.9569
  117MOL0     H15782   0.031  10.047   9.076  1.5105  1.3684 -0.0834
  117MOL0     H15783  -0.230  10.142   9.034 -3.6253  0.2184  1.5328
  117MOL0     H15784  -0.203   9.981   9.095 -2.9134  2.0774  2.4642
  117MOL0     H15785  -0.395   9.900   8.951 -0.0165  0.5524 -2.1048
  117MOL0     H15786  -0.421  10.072   8.914 -2.0026 -0.2937  0.0755
  117MOL0     H15787  -0.445  10.107   9.170 -2.6699  0.8484 -0.5181
  117MOL0     H15788  -0.403   9.938   9.189  0.8770  0.5562  0.8297
  117MOL0     H15789  -0.666  10.071   9.117  3.2681  1.1746 -0.0888
  117MOL0     H15790  -0.633   9.910   9.041 -1.7695  0.2994  0.3672
  117MOL0     H15791  -0.679   9.802   9.441  0.1579 -0.1304  1.1014
  117MOL0     H15792  -0.053   9.986   8.665  1.6545  1.2533 -1.8105
  117MOL0     H15793   0.307   9.982   8.553  0.1311 -2.1326 -2.1408
  117MOL0     H15794   0.189   9.856   8.531  2.0032 -0.1368  0.8587
  117MOL0     H15795   0.138  10.023   8.507 -2.0847 -0.6814  1.2093
  118MOL0     O15796   7.014   2.964  10.358  0.2458 -0.4413 -0.6445
  118MOL0     C15797   6.982   3.022  10.465 -0.7278  0.1895 -0.3560
  118MOL0     O15798   7.067   3.079  10.551 -0.1826  0.0065  0.1227
  118MOL0     C15799   7.194   3.118  10.514 -0.0309  0.1841 -1.0306
  118MOL0     C15800   7.291   3.136  10.615  0.4894 -0.0973 -0.0120
  118MOL0     C15801   7.421   3.182  10.585 -1.0491 -0.1652  0.7139
  118MOL0     C15802   7.449   3.221  10.452  0.5326  0.5416 -0.4448
  118MOL0     O15803   7.572   3.269  10.416 -0.0812 -0.7881  0.2397
  118MOL0     C15804   7.617   3.383  10.479 -0.3231 -0.5523 -0.1590
  118MOL0     C15805   7.632   3.501  10.381 -0.2348  0.2813 -0.4042
  118MOL0     C15806   7.709   3.616  10.451  0.0662 -0.3646  0.1105
  118MOL0     C15807   7.745   3.727  10.348 -0.6413  0.3720 -0.1145
  118MOL0     C15808   7.830   3.839  10.399 -0.0123 -0.4627 -0.7807
  118MOL0     C15809   7.897   3.915  10.288  0.0574  0.3810  0.0180
  118MOL0     C15810   7.969   4.041  10.338  0.3218 -0.5283 -0.4035
  118MOL0     C15811   8.076   4.084  10.236 -0.1754 -0.3395  0.6316
  118MOL0     N15812   8.200   4.000  10.254  0.1896 -0.2042  0.9094
  118MOL0     C15813   8.280   3.977  10.361  0.3355 -0.0156  0.6290
  118MOL0     C15814   8.374   3.894  10.314  0.4236 -0.2443 -0.2899
  118MOL0     C15815   8.492   3.844  10.386 -0.1093  0.1720 -0.0333
  118MOL0     C15816   8.618   3.878  10.302  0.1040  0.1524 -0.2707
  118MOL0     C15817   8.630   4.029  10.286 -0.5288 -0.3440  1.0966
  118MOL0     C15818   8.752   4.078  10.211 -0.4167 -0.9612  0.1947
  118MOL0     O15819   8.870   4.105  10.288  0.2258  0.0895 -0.2537
  118MOL0     C15820   8.965   4.185  10.240 -0.3096 -0.1559 -0.1170
  118MOL0     C15821   9.064   4.240  10.324 -0.8889 -0.7868 -0.0852
  118MOL0     C15822   9.150   4.348  10.284 -0.2355  0.1518  0.0637
  118MOL0     C15823   9.145   4.390  10.152 -0.0199  0.1317  0.1034
  118MOL0     C15824   9.248   4.483  10.101  0.4648  0.1236 -0.2103
  118MOL0     O15825   9.351   4.531  10.188  0.0129  0.5600 -0.2520
  118MOL0     C15826   9.445   4.606  10.131 -0.1993 -0.4484 -0.3273
  118MOL0     C15827   9.578   4.566  10.110 -0.1029 -0.2853 -0.9968
  118MOL0     C15828   9.679   4.651  10.056  0.0352 -0.5018  0.0184
  118MOL0     C15829   9.647   4.779  10.009 -0.8985  0.5991  0.6858
  118MOL0     O15830   9.737   4.865   9.943 -0.1590 -1.1408 -0.6302
  118MOL0     C15831   9.879   4.845   9.950 -0.4253  0.1711  0.1520
  118MOL0     C15832   9.940   4.953   9.858  1.2558  0.1176 -0.0321
  118MOL0     C15833  10.092   4.933   9.835  0.3161 -0.0183  0.1179
  118MOL0     C15834  10.132   5.008   9.712 -0.4396  0.1479  0.3648
  118MOL0     C15835  10.277   4.978   9.668 -0.2168  0.8211  0.2769
  118MOL0     C15836  10.294   4.845   9.604  0.6062 -0.1194  0.0494
  118MOL0     C15837  10.436   4.804   9.543 -0.3585  0.0324  0.1791
  118MOL0     C15838  10.416   4.716   9.422 -0.4764  0.4580  0.2212
  118MOL0    Cl15839  10.339   4.559   9.462 -0.0913 -0.1777 -0.0300
  118MOL0     C15840   9.519   4.826  10.036 -0.0460  0.5251 -0.3126
  118MOL0     C15841   9.420   4.737  10.099 -1.2469 -0.4199  0.5268
  118MOL0     O15842   9.246   4.513   9.982 -0.1135 -0.1671  0.5417
  118MOL0     C15843   9.048   4.336  10.069  0.3836  0.2344 -0.2114
  118MOL0     C15844   8.961   4.241  10.107  1.1514 -0.2321 -0.6505
  118MOL0     N15845   8.346   3.861  10.178 -0.6576 -0.7460  0.8164
  118MOL0     N15846   8.241   3.933  10.148 -0.3091 -0.1735  0.5364
  118MOL0     C15847   7.362   3.190  10.350  0.0992 -0.3451  0.6852
  118MOL0     C15848   7.228   3.141  10.382 -0.2746 -0.5998  0.9641
  118MOL0     C15849   6.844   3.002  10.515  0.5096 -0.5459 -0.4321
  118MOL0     C15850   6.806   3.070  10.634 -0.2165  0.0009 -0.8171
  118MOL0     C15851   6.687   3.048  10.695 -0.2644 -0.4505 -0.3034
  118MOL0     C15852   6.597   2.956  10.653  0.1475  0.1024 -0.8797
  118MOL0     O15853   6.480   2.942  10.717 -0.0976  0.0693  0.0325
  118MOL0     C15854   6.397   2.831  10.696  0.6832  0.0564  0.1681
  118MOL0     C15855   6.288   2.817  10.803 -0.2387  0.1119  0.0790
  118MOL0     C15856   6.174   2.921  10.798 -1.4512 -0.4146  0.2368
  118MOL0     C15857   6.219   3.066  10.839 -0.0225  0.6481 -0.4623
  118MOL0     C15858   6.108   3.155  10.863  0.6647  0.3241  0.4061
  118MOL0     C15859   6.012   3.225  10.859 -0.1184 -0.1775  0.0453
  118MOL0     C15860   6.627   2.885  10.544  0.0374 -0.5414  1.1919
  118MOL0     C15861   6.750   2.901  10.472 -0.0833 -0.7760 -0.5589
  118MOL0     C15862   6.781   2.818  10.352 -0.4475 -0.0702 -0.5964
  118MOL0     H15863   7.275   3.123  10.721 -2.2648  2.5598  0.0591
  118MOL0     H15864   7.498   3.201  10.658  1.5333  0.7522 -2.0357
  118MOL0     H15865   7.550   3.415  10.560  1.5373 -1.0390  1.6495
  118MOL0     H15866   7.713   3.360  10.525 -0.5298  0.7870  1.0233
  118MOL0     H15867   7.531   3.530  10.351  0.9060  2.0887 -2.8617
  118MOL0     H15868   7.684   3.460  10.295  0.1302 -5.0125  1.9485
  118MOL0     H15869   7.803   3.578  10.492  0.0782  1.6516  2.1528
  118MOL0     H15870   7.653   3.652  10.537  0.7711 -2.4837  1.5414
  118MOL0     H15871   7.795   3.679  10.264 -0.8598 -2.4612  1.2397
  118MOL0     H15872   7.655   3.777  10.313 -0.2865  1.5486  0.5899
  118MOL0     H15873   7.767   3.907  10.457 -0.7343  0.4648 -2.5749
  118MOL0     H15874   7.915   3.799  10.456  1.3423  1.8059 -1.0925
  118MOL0     H15875   7.974   3.844  10.256  0.4362 -0.4683  2.5780
  118MOL0     H15876   7.831   3.924  10.201  0.1723  1.2279  0.0095
  118MOL0     H15877   8.025   4.012  10.426  0.3346 -1.5744 -0.7474
  118MOL0     H15878   7.901   4.125  10.355 -1.1575 -0.5398 -4.8350
  118MOL0     H15879   8.040   4.086  10.132  1.0710  0.8697  0.1850
  118MOL0     H15880   8.100   4.186  10.267 -2.0679  0.6245 -0.8138
  118MOL0     H15881   8.265   4.006  10.465 -1.9114 -0.2246  0.4059
  118MOL0     H15882   8.506   3.886  10.486 -0.8289 -0.5822  0.3907
  118MOL0     H15883   8.480   3.736  10.400 -1.8627  0.5277  1.5009
  118MOL0     H15884   8.709   3.834  10.344 -0.0214 -1.2578 -1.4178
  118MOL0     H15885   8.602   3.834  10.204 -2.3439 -0.2119  0.2245
  118MOL0     H15886   8.613   4.088  10.376  2.2876  2.1811  0.1636
  118MOL0     H15887   8.552   4.059  10.215  1.5867 -0.2668 -1.3814
  118MOL0     H15888   8.725   4.173  10.162 -0.1835 -0.9208  0.1460
  118MOL0     H15889   8.768   4.003  10.134 -1.8187  0.5506 -1.6830
  118MOL0     H15890   9.083   4.203  10.424 -1.7447 -0.1130  0.3458
  118MOL0     H15891   9.228   4.378  10.353  0.0768 -0.7456  0.1171
  118MOL0     H15892   9.607   4.468  10.148 -0.2273 -0.0837 -0.3694
  118MOL0     H15893   9.782   4.618  10.058 -0.0333 -0.6957  0.7755
  118MOL0     H15894   9.926   4.860  10.048  0.1070 -3.0278  0.4945
  118MOL0     H15895   9.911   4.741   9.934 -0.7720 -0.2426  1.9376
  118MOL0     H15896   9.884   4.958   9.765 -1.7665  0.6602  1.6761
  118MOL0     H15897   9.927   5.049   9.910  1.1467 -0.7690  1.6526
  118MOL0     H15898  10.138   4.983   9.921  2.0742  2.8819 -2.2790
  118MOL0     H15899  10.119   4.828   9.824  4.7155  0.9658 -0.3716
  118MOL0     H15900  10.132   5.116   9.731  2.2079  0.4853 -1.0105
  118MOL0     H15901  10.068   4.988   9.626  1.0808 -0.0820 -0.7618
  118MOL0     H15902  10.353   4.993   9.745  0.7823  1.1806 -0.7514
  118MOL0     H15903  10.303   5.060   9.600  0.4807  2.1498  2.0464
  118MOL0     H15904  10.262   4.767   9.673 -1.2832 -1.0949 -1.8035
  118MOL0     H15905  10.226   4.831   9.519  0.6506 -0.1203  0.0132
  118MOL0     H15906  10.494   4.752   9.619 -0.3326 -0.0719  0.0883
  118MOL0     H15907  10.486   4.899   9.522 -1.0209  0.6934  1.4456
  118MOL0     H15908  10.356   4.773   9.350  0.0973 -0.6291 -1.1562
  118MOL0     H15909  10.517   4.711   9.382 -1.3391 -2.5880 -1.8905
  118MOL0     H15910   9.493   4.932  10.033 -3.2614  0.0540  3.1878
  118MOL0     H15911   9.318   4.774  10.100 -0.6738  1.2738  1.2798
  118MOL0     H15912   9.038   4.362   9.964 -3.2828 -1.2117 -0.3767
  118MOL0     H15913   8.889   4.194  10.041  1.2729 -2.9657  0.9793
  118MOL0     H15914   7.393   3.213  10.248  1.9528  1.0938  1.5246
  118MOL0     H15915   7.160   3.127  10.299 -0.3363 -3.8683  1.4520
  118MOL0     H15916   6.874   3.149  10.665  0.1207 -0.4495 -0.3762
  118MOL0     H15917   6.659   3.104  10.784  0.3395  1.3919 -1.2072
  118MOL0     H15918   6.446   2.733  10.702  0.5717  0.0176  0.4705
  118MOL0     H15919   6.349   2.833  10.598  0.0455 -2.1419  0.3818
  118MOL0     H15920   6.329   2.814  10.905  0.1145 -0.5725 -0.0798
  118MOL0     H15921   6.242   2.719  10.789 -0.0693  0.1740 -1.0267
  118MOL0     H15922   6.092   2.889  10.863 -0.1356 -2.4682  0.9798
  118MOL0     H15923   6.133   2.914  10.697  0.8246 -1.1512 -0.7006
  118MOL0     H15924   6.283   3.048  10.926  0.2384 -3.7707 -1.3207
  118MOL0     H15925   6.289   3.117  10.772  0.6001  0.7565  0.2535
  118MOL0     H15926   5.925   3.284  10.837 -0.5565 -0.8660 -0.1061
  118MOL0     H15927   6.565   2.813  10.492 -1.5630  2.5062 -1.4867
  118MOL0     H15928   6.804   2.885  10.269 -1.7426  0.4815 -0.5320
  118MOL0     H15929   6.864   2.748  10.372  0.1535  0.4782 -1.1469
  118MOL0     H15930   6.692   2.762  10.322  0.2165 -0.0929 -2.6649
  119MOL0     O15931   7.349   1.436   3.327 -0.3251  0.2104  0.0928
  119MOL0     C15932   7.275   1.389   3.409 -0.6528  1.4238 -0.0294
  119MOL0     O15933   7.306   1.293   3.499 -0.0393 -0.7248  0.0914
  119MOL0     C15934   7.410   1.204   3.470 -0.1298 -0.7306 -0.5990
  119MOL0     C15935   7.497   1.160   3.576  1.0284 -0.3248  0.8828
  119MOL0     C15936   7.606   1.064   3.564 -0.7939  0.2498  0.3771
  119MOL0     C15937   7.629   1.017   3.434 -1.1725 -0.8943 -0.8319
  119MOL0     O15938   7.727   0.936   3.392 -0.1997 -0.6330 -0.2272
  119MOL0     C15939   7.804   0.870   3.498  0.5534  0.0908  0.3150
  119MOL0     C15940   7.919   0.778   3.450 -0.7769  0.0614 -0.3312
  119MOL0     C15941   8.042   0.849   3.399 -0.9935  0.4755  0.0145
  119MOL0     C15942   8.100   0.957   3.495 -0.0273  0.4701  0.2637
  119MOL0     C15943   8.243   0.994   3.440  0.8417 -0.1414 -0.2399
  119MOL0     C15944   8.278   1.131   3.487 -0.7531 -0.4535 -0.1097
  119MOL0     C15945   8.420   1.186   3.430 -0.6768  0.7182  0.0442
  119MOL0     C15946   8.462   1.321   3.496  0.2611 -0.1825  0.3814
  119MOL0     N15947   8.541   1.317   3.613 -0.0765 -0.4737  0.6530
  119MOL0     C15948   8.504   1.275   3.736 -0.0068 -1.1910  0.2691
  119MOL0     C15949   8.616   1.282   3.814 -0.4346 -0.0939  1.7654
  119MOL0     C15950   8.614   1.219   3.939  0.3312 -0.5602 -0.8059
  119MOL0     C15951   8.690   1.295   4.051  0.0011  0.7112  0.0137
  119MOL0     C15952   8.840   1.297   4.016  0.5128 -0.4171 -0.4098
  119MOL0     C15953   8.923   1.348   4.126 -0.0800  1.1910 -0.4039
  119MOL0     O15954   8.997   1.243   4.193  0.1615 -0.2175  0.4134
  119MOL0     C15955   9.117   1.286   4.248  0.2845  0.5362 -0.5516
  119MOL0     C15956   9.240   1.223   4.214 -0.0588  0.2263 -0.0338
  119MOL0     C15957   9.366   1.271   4.263 -0.4476  0.7193  0.4769
  119MOL0     C15958   9.375   1.376   4.350  0.3746  0.5177  0.2822
  119MOL0     C15959   9.504   1.430   4.388  0.0404  1.0112 -0.0263
  119MOL0     O15960   9.499   1.498   4.502  0.0350 -0.1280  0.3677
  119MOL0     C15961   9.610   1.519   4.581  0.6461  0.1515  0.1814
  119MOL0     C15962   9.725   1.448   4.582 -0.0690  0.3609 -0.4902
  119MOL0     C15963   9.835   1.477   4.663 -0.4446 -0.4045 -0.6898
  119MOL0     C15964   9.836   1.589   4.741  0.2234 -0.2650 -0.4440
  119MOL0     O15965   9.950   1.619   4.813  0.6663 -0.0416 -0.0253
  119MOL0     C15966   9.955   1.744   4.883 -0.0308  0.5137 -0.3448
  119MOL0     C15967  10.089   1.751   4.961  1.0728  0.9595  0.4872
  119MOL0     C15968  10.093   1.650   5.078  0.3109 -0.1842 -0.4374
  119MOL0     C15969  10.212   1.686   5.174  0.7280 -0.0484 -0.3043
  119MOL0     C15970  10.178   1.637   5.313 -1.3578 -0.1397  1.4699
  119MOL0     C15971  10.310   1.652   5.400 -0.0112 -0.3034  0.1129
  119MOL0     C15972  10.290   1.601   5.539  0.0549  0.3422 -0.0690
  119MOL0     C15973  10.414   1.529   5.586  0.1031  0.1464  0.5848
  119MOL0    Cl15974  10.556   1.630   5.621  0.1480  0.4864  0.4955
  119MOL0     C15975   9.716   1.673   4.732  0.1442  0.2050 -0.1085
  119MOL0     C15976   9.602   1.632   4.666 -0.8251 -0.2076  0.4681
  119MOL0     O15977   9.606   1.394   4.326  0.1561 -0.3145  0.1671
  119MOL0     C15978   9.253   1.434   4.394 -0.2456  0.1078 -0.3790
  119MOL0     C15979   9.130   1.386   4.341 -0.1053  0.9402  0.2345
  119MOL0     N15980   8.705   1.370   3.747 -0.6817 -0.3861  0.9138
  119MOL0     N15981   8.656   1.381   3.626  0.2586  1.3518  0.7043
  119MOL0     C15982   7.555   1.064   3.328 -0.7088  0.3823 -0.8115
  119MOL0     C15983   7.446   1.155   3.347 -0.4163  1.5507  0.1539
  119MOL0     C15984   7.136   1.440   3.414  0.2126 -0.8954  0.2330
  119MOL0     C15985   7.032   1.368   3.489 -0.5174 -0.0967  1.1638
  119MOL0     C15986   6.907   1.404   3.494  1.2896  0.3160  0.4963
  119MOL0     C15987   6.863   1.517   3.425  0.1085 -0.2595 -0.3257
  119MOL0     O15988   6.740   1.570   3.422 -0.6927  0.6663 -0.3631
  119MOL0     C15989   6.629   1.491   3.459  0.5693  0.3914 -0.3504
  119MOL0     C15990   6.505   1.518   3.376  0.3773 -0.4115 -0.2672
  119MOL0     C15991   6.388   1.458   3.471  0.2523 -0.1285  0.1479
  119MOL0     C15992   6.258   1.508   3.408  0.1899 -0.1583 -0.1372
  119MOL0     C15993   6.142   1.454   3.482 -0.7518 -0.6546  0.3802
  119MOL0     C15994   6.050   1.416   3.548 -0.0217 -0.3366 -0.2806
  119MOL0     C15995   6.964   1.600   3.366 -0.1931 -0.2093 -0.2285
  119MOL0     C15996   7.095   1.568   3.356  0.2306 -0.4549 -0.2428
  119MOL0     C15997   7.181   1.671   3.282  0.0456 -0.3912 -0.1015
  119MOL0     H15998   7.472   1.197   3.675  1.0046 -0.5309  0.9538
  119MOL0     H15999   7.660   1.025   3.650 -0.6114  2.2521  1.2219
  119MOL0     H16000   7.844   0.940   3.573  0.7471 -0.3276  0.6056
  119MOL0     H16001   7.735   0.815   3.563 -0.5062 -1.2012 -1.7834
  119MOL0     H16002   7.889   0.727   3.358 -0.0993  0.8654 -1.0244
  119MOL0     H16003   7.944   0.703   3.526  0.5035 -0.1771 -0.9584
  119MOL0     H16004   8.018   0.893   3.302  2.4602  2.8249  0.0524
  119MOL0     H16005   8.121   0.775   3.380 -0.6161  1.0388 -0.6835
  119MOL0     H16006   8.031   1.041   3.487 -0.2702  0.1511 -1.5193
  119MOL0     H16007   8.104   0.932   3.601  0.9546  1.2021  0.4187
  119MOL0     H16008   8.312   0.920   3.479  0.1951 -0.6726 -0.0828
  119MOL0     H16009   8.237   1.007   3.331  1.4860  0.8447 -0.1688
  119MOL0     H16010   8.208   1.213   3.466  0.5262  0.7567  0.2164
  119MOL0     H16011   8.297   1.126   3.595  1.2492 -3.0541 -0.5005
  119MOL0     H16012   8.427   1.194   3.321  2.3696  1.9238  0.2285
  119MOL0     H16013   8.496   1.118   3.470 -0.6470  1.0769  0.6081
  119MOL0     H16014   8.511   1.372   3.414  1.9084 -1.7970  0.2783
  119MOL0     H16015   8.378   1.386   3.518 -0.3990 -0.3942 -1.3961
  119MOL0     H16016   8.411   1.222   3.755  0.0192 -1.8182 -1.1415
  119MOL0     H16017   8.514   1.204   3.981  1.0870 -0.3203  1.1992
  119MOL0     H16018   8.643   1.114   3.928  0.5682 -0.7625  1.3404
  119MOL0     H16019   8.653   1.397   4.070  1.5739  1.3989 -0.4429
  119MOL0     H16020   8.679   1.235   4.142 -0.1228  1.1074  0.2645
  119MOL0     H16021   8.856   1.363   3.930  2.7510 -0.8118 -0.3555
  119MOL0     H16022   8.874   1.195   3.995 -0.9926 -0.8972 -0.6956
  119MOL0     H16023   8.861   1.394   4.203 -0.1319 -0.0197  0.3118
  119MOL0     H16024   8.997   1.416   4.084  0.1100  0.9582 -0.4501
  119MOL0     H16025   9.255   1.152   4.134  1.3186  0.2224  0.2087
  119MOL0     H16026   9.456   1.223   4.226  0.0441  3.6714 -2.6701
  119MOL0     H16027   9.729   1.361   4.517  1.3992 -0.0999  0.1800
  119MOL0     H16028   9.924   1.415   4.666 -0.8630 -0.9937 -0.2236
  119MOL0     H16029   9.941   1.830   4.817 -1.3489  0.7542  0.2217
  119MOL0     H16030   9.865   1.742   4.946  0.4214  0.2419  0.3073
  119MOL0     H16031  10.176   1.724   4.900  0.5755 -0.2871  0.2880
  119MOL0     H16032  10.110   1.853   4.994 -1.1343  1.2458  1.2028
  119MOL0     H16033  10.001   1.667   5.134 -0.1375 -1.1249 -0.8687
  119MOL0     H16034  10.101   1.547   5.042  1.3504  0.6445 -2.7541
  119MOL0     H16035  10.232   1.793   5.179  1.5991 -0.2634  2.9589
  119MOL0     H16036  10.300   1.645   5.125  3.0662  2.7218  1.2465
  119MOL0     H16037  10.155   1.530   5.307  0.0800 -0.3835 -1.5852
  119MOL0     H16038  10.085   1.683   5.348 -1.8704  0.0726 -0.0912
  119MOL0     H16039  10.388   1.591   5.353 -0.4455 -1.5615  0.9582
  119MOL0     H16040  10.343   1.756   5.402 -1.3950  0.1511  0.0623
  119MOL0     H16041  10.205   1.532   5.547  1.1575 -1.0098  0.5768
  119MOL0     H16042  10.268   1.688   5.602  0.9105  0.1420  0.5372
  119MOL0     H16043  10.381   1.465   5.669  0.8409 -1.8283 -0.5626
  119MOL0     H16044  10.451   1.458   5.512  2.7840  0.4095  1.5551
  119MOL0     H16045   9.698   1.762   4.791 -1.5748  0.1081 -0.4354
  119MOL0     H16046   9.518   1.700   4.662 -0.1193  0.6569 -0.2232
  119MOL0     H16047   9.258   1.526   4.452  5.1536 -0.1664  0.0265
  119MOL0     H16048   9.035   1.431   4.368  0.6895  2.4650  0.5832
  119MOL0     H16049   7.602   1.033   3.235 -1.5406 -0.1229 -1.0695
  119MOL0     H16050   7.386   1.187   3.263  0.8923  0.1278 -1.4035
  119MOL0     H16051   7.058   1.280   3.547  1.2370 -0.1398  0.3514
  119MOL0     H16052   6.834   1.355   3.558 -2.1144  1.7815 -1.9393
  119MOL0     H16053   6.615   1.534   3.559  3.3786  0.5753  0.0733
  119MOL0     H16054   6.656   1.385   3.466  1.5053  0.6675  0.7343
  119MOL0     H16055   6.512   1.469   3.279  2.6778 -0.1258 -0.3041
  119MOL0     H16056   6.488   1.626   3.371  0.4237 -0.4435 -1.1573
  119MOL0     H16057   6.395   1.490   3.576  0.7821  0.4991 -0.0692
  119MOL0     H16058   6.390   1.349   3.469 -1.1108 -0.1739  0.3048
  119MOL0     H16059   6.247   1.617   3.409 -2.1465 -0.3278  2.3221
  119MOL0     H16060   6.253   1.469   3.305  0.5515 -2.4483  0.6578
  119MOL0     H16061   5.964   1.390   3.606  0.7128 -2.6340 -0.1327
  119MOL0     H16062   6.931   1.695   3.325  2.1209  0.9755  0.4673
  119MOL0     H16063   7.281   1.688   3.325  0.1745  0.3828 -0.6837
  119MOL0     H16064   7.183   1.638   3.178 -3.6142  3.7816 -1.8396
  119MOL0     H16065   7.139   1.772   3.279 -0.5158 -0.4952  2.0670
  120MOL0     O16066   4.607   1.555   9.536 -0.3135 -0.3229  0.7403
  120MOL0     C16067   4.628   1.665   9.586  1.0149  0.3203 -0.5398
  120MOL0     O16068   4.728   1.741   9.555 -0.0985 -0.0545  0.0556
  120MOL0     C16069   4.860   1.696   9.541  0.2826  0.9404  0.0740
  120MOL0     C16070   4.898   1.561   9.544 -0.0700 -0.1190 -0.1459
  120MOL0     C16071   5.035   1.529   9.548 -0.3949 -0.0752 -0.2430
  120MOL0     C16072   5.140   1.624   9.544 -0.4614  0.1844  0.5395
  120MOL0     O16073   5.264   1.575   9.535 -0.9565  1.2506  0.5278
  120MOL0     C16074   5.366   1.646   9.467  0.1251  0.6671  0.2695
  120MOL0     C16075   5.483   1.562   9.434 -0.2594 -0.6477 -0.0920
  120MOL0     C16076   5.580   1.551   9.551 -0.8220  0.4575  0.3701
  120MOL0     C16077   5.717   1.504   9.494 -0.2821 -0.0420 -1.3444
  120MOL0     C16078   5.821   1.471   9.600  1.3354 -0.4432 -0.2665
  120MOL0     C16079   5.874   1.601   9.673 -0.2386  0.1145 -0.1047
  120MOL0     C16080   5.946   1.567   9.802 -0.3250 -0.0127 -0.2235
  120MOL0     C16081   6.007   1.702   9.854  0.3068  0.0034 -1.0193
  120MOL0     N16082   6.101   1.666   9.958 -1.1960 -0.0776 -0.2940
  120MOL0     C16083   6.229   1.616   9.932 -0.2881  0.0193 -0.2480
  120MOL0     C16084   6.293   1.632  10.054 -0.0745 -0.2380  0.1191
  120MOL0     C16085   6.438   1.602  10.090  0.0009 -0.5985  0.1566
  120MOL0     C16086   6.539   1.711  10.058  0.6534 -0.0889  0.2133
  120MOL0     C16087   6.676   1.692  10.132  0.6172  0.1048  0.2947
  120MOL0     C16088   6.781   1.810  10.131  0.4344  0.1934  0.3555
  120MOL0     O16089   6.849   1.830  10.002  0.2978 -0.2748  0.4101
  120MOL0     C16090   6.982   1.874  10.022  0.4347 -0.1981  0.0970
  120MOL0     C16091   7.085   1.822   9.956  0.2740 -0.4987 -0.5465
  120MOL0     C16092   7.209   1.873   9.973  0.1970 -0.2054  0.6012
  120MOL0     C16093   7.237   1.978  10.059 -0.3838 -0.0643 -0.3058
  120MOL0     C16094   7.369   2.041  10.058  0.0129 -0.1862  0.0876
  120MOL0     O16095   7.466   1.948  10.015  0.4419 -0.7712 -0.1322
  120MOL0     C16096   7.571   2.011   9.950  0.3788  0.9712  0.1463
  120MOL0     C16097   7.702   1.985   9.993 -0.6930 -0.6498  0.6192
  120MOL0     C16098   7.803   2.040   9.915  0.1994  0.6808  0.4467
  120MOL0     C16099   7.775   2.128   9.806 -1.0464  0.1421  0.9284
  120MOL0     O16100   7.886   2.170   9.737  0.2928 -0.3780  0.7907
  120MOL0     C16101   7.857   2.223   9.603 -0.8654 -0.6691 -0.1556
  120MOL0     C16102   7.974   2.177   9.510 -0.5550 -0.2476 -0.2873
  120MOL0     C16103   7.965   2.243   9.374 -0.4728  0.4524 -0.7018
  120MOL0     C16104   8.091   2.210   9.300  0.1320  0.8128  0.0174
  120MOL0     C16105   8.083   2.253   9.150  0.5912  0.5936 -0.8660
  120MOL0     C16106   8.226   2.292   9.096 -0.5264 -0.0164 -0.7838
  120MOL0     C16107   8.326   2.173   9.097 -0.1860 -0.8510  0.1879
  120MOL0     C16108   8.272   2.042   9.051  0.6793  0.0505  0.6952
  120MOL0    Cl16109   8.406   1.912   9.079  0.1299  0.3497  0.1588
  120MOL0     C16110   7.642   2.161   9.775  0.5109  0.2434 -0.5698
  120MOL0     C16111   7.537   2.095   9.845 -0.3898  0.1309  0.4063
  120MOL0     O16112   7.387   2.156  10.097  0.0799  0.0641  0.8126
  120MOL0     C16113   7.131   2.030  10.137  0.1990  1.0247  0.4635
  120MOL0     C16114   7.007   1.976  10.116 -0.0932  0.0972  0.2537
  120MOL0     N16115   6.203   1.688  10.144 -0.4677  0.1305 -0.5180
  120MOL0     N16116   6.092   1.703  10.088 -0.1476  0.8116 -0.6878
  120MOL0     C16117   5.095   1.757   9.534 -0.0187  0.5183  0.7934
  120MOL0     C16118   4.960   1.790   9.527 -0.6420  0.0878  0.6815
  120MOL0     C16119   4.510   1.737   9.649  0.0385  0.0205 -0.7546
  120MOL0     C16120   4.529   1.875   9.674 -0.0668 -0.1912  0.0916
  120MOL0     C16121   4.419   1.954   9.720 -0.4234 -0.7293  0.5359
  120MOL0     C16122   4.292   1.898   9.736 -0.5148 -0.4912 -0.3938
  120MOL0     O16123   4.192   1.979   9.788 -0.5564  0.0280  0.1899
  120MOL0     C16124   4.065   1.922   9.832 -0.1096 -0.8648  0.0963
  120MOL0     C16125   3.970   2.025   9.896 -1.5279 -0.0495 -0.5299
  120MOL0     C16126   3.833   1.954   9.911 -0.7132 -0.1352 -0.4900
  120MOL0     C16127   3.721   2.060   9.940  0.1676 -0.1486  0.3363
  120MOL0     C16128   3.743   2.138  10.068 -0.5957 -0.0412  0.7895
  120MOL0     C16129   3.752   2.215  10.159 -0.1963 -0.5342 -0.4976
  120MOL0     C16130   4.282   1.764   9.737  0.8540 -0.7322  0.0986
  120MOL0     C16131   4.385   1.677   9.693  0.3913 -0.4571  0.8430
  120MOL0     C16132   4.358   1.527   9.705  0.4720 -0.2356  0.3960
  120MOL0     H16133   4.826   1.480   9.556 -1.5423  1.3103  1.2545
  120MOL0     H16134   5.062   1.426   9.567  3.6223  0.9676  0.5977
  120MOL0     H16135   5.327   1.681   9.371  1.3382 -0.3143 -0.6258
  120MOL0     H16136   5.404   1.730   9.525 -0.1773  0.9631  0.0386
  120MOL0     H16137   5.532   1.602   9.344 -2.4832 -3.4742 -2.7849
  120MOL0     H16138   5.459   1.460   9.403 -0.4647 -1.1672  1.6859
  120MOL0     H16139   5.528   1.483   9.620 -2.4158  1.3020  0.0418
  120MOL0     H16140   5.595   1.642   9.609  0.5311  0.1868  0.4874
  120MOL0     H16141   5.695   1.413   9.438 -1.6827 -1.0210  0.6659
  120MOL0     H16142   5.770   1.578   9.432 -0.1680  1.3573  0.3543
  120MOL0     H16143   5.783   1.396   9.671  0.0619 -0.2345 -0.7183
  120MOL0     H16144   5.904   1.414   9.556  2.9464  1.1113  0.6192
  120MOL0     H16145   5.942   1.646   9.600  1.8252 -1.8512  0.4894
  120MOL0     H16146   5.791   1.668   9.698  1.0651  0.6307  3.3916
  120MOL0     H16147   6.029   1.496   9.790 -0.6955 -0.3258 -0.9636
  120MOL0     H16148   5.868   1.531   9.869 -0.6570  1.5529  0.2832
  120MOL0     H16149   6.069   1.750   9.778  1.2070  0.2168 -0.1773
  120MOL0     H16150   5.929   1.772   9.885  0.9097 -0.7070  2.4853
  120MOL0     H16151   6.270   1.566   9.844 -2.1830 -0.6865 -0.7662
  120MOL0     H16152   6.432   1.566  10.193  0.9302 -0.8143  0.1385
  120MOL0     H16153   6.474   1.517  10.032 -3.1067 -2.2081  0.3854
  120MOL0     H16154   6.547   1.704   9.949 -0.4346 -0.9921  0.1715
  120MOL0     H16155   6.500   1.813  10.060 -4.1946 -1.6753 -0.0851
  120MOL0     H16156   6.722   1.610  10.075 -2.4150  0.4103 -2.9374
  120MOL0     H16157   6.655   1.647  10.229  1.0096 -3.2128 -1.0257
  120MOL0     H16158   6.845   1.807  10.220 -0.8413 -1.7926  1.2621
  120MOL0     H16159   6.718   1.899  10.133  1.4804  0.9390  0.9047
  120MOL0     H16160   7.074   1.730   9.901  2.0417 -1.4381  0.5657
  120MOL0     H16161   7.281   1.816   9.915 -0.6798  0.1088 -0.8596
  120MOL0     H16162   7.720   1.904  10.063 -1.0321 -1.2728  0.0147
  120MOL0     H16163   7.906   2.012   9.938 -0.7146 -1.7787  2.0182
  120MOL0     H16164   7.768   2.186   9.551 -0.1607 -0.4108 -1.6140
  120MOL0     H16165   7.852   2.333   9.604 -2.1747 -0.6849 -1.2560
  120MOL0     H16166   8.075   2.197   9.548 -0.0045  2.3956 -2.8468
  120MOL0     H16167   7.952   2.070   9.505  1.5972 -0.7144 -0.9191
  120MOL0     H16168   7.878   2.191   9.333  0.5061 -1.1974 -0.7785
  120MOL0     H16169   7.950   2.351   9.373  0.3550  0.5669 -1.5343
  120MOL0     H16170   8.112   2.103   9.307 -0.3573  0.7569  0.7882
  120MOL0     H16171   8.167   2.273   9.347  0.1188  2.0331 -1.5188
  120MOL0     H16172   8.026   2.346   9.145  1.4338  1.0462 -3.1694
  120MOL0     H16173   8.028   2.176   9.095 -2.0186 -0.2750  2.6120
  120MOL0     H16174   8.221   2.336   8.996 -0.5639 -0.7018 -1.0867
  120MOL0     H16175   8.269   2.371   9.159 -0.1862  0.4051 -1.5398
  120MOL0     H16176   8.387   2.159   9.186  0.2898 -0.1375 -0.0155
  120MOL0     H16177   8.400   2.189   9.018 -0.7867  2.9550  0.1967
  120MOL0     H16178   8.173   2.011   9.087  1.0229 -1.2989  0.5517
  120MOL0     H16179   8.251   2.047   8.944 -0.0489 -0.1759  0.8174
  120MOL0     H16180   7.612   2.243   9.710 -0.2382  0.3506 -0.0950
  120MOL0     H16181   7.436   2.123   9.819 -0.3953  0.3549  0.6599
  120MOL0     H16182   7.134   2.117  10.201 -2.7183  0.9661  0.7877
  120MOL0     H16183   6.926   2.012  10.178 -0.2077 -0.3441  0.3630
  120MOL0     H16184   5.158   1.845   9.531 -1.5512  1.6769  0.9845
  120MOL0     H16185   4.950   1.898   9.527  2.5302  0.4555  0.2273
  120MOL0     H16186   4.620   1.931   9.652 -0.5242  1.5883  2.4284
  120MOL0     H16187   4.422   2.061   9.741  2.1012 -0.9866  1.9058
  120MOL0     H16188   4.072   1.839   9.903 -1.1235  0.2384  1.5415
  120MOL0     H16189   4.023   1.876   9.742  1.5799 -1.1992 -0.5513
  120MOL0     H16190   3.968   2.113   9.831  1.0393  0.2291 -0.3098
  120MOL0     H16191   4.009   2.065   9.990 -3.1440 -2.6021  1.3574
  120MOL0     H16192   3.841   1.885   9.995 -0.0668 -0.7883 -1.0695
  120MOL0     H16193   3.811   1.895   9.822 -1.8170  0.1210 -0.4020
  120MOL0     H16194   3.732   2.131   9.858  1.8279  1.2260  1.6787
  120MOL0     H16195   3.623   2.013   9.940 -0.0331  0.0688 -2.6772
  120MOL0     H16196   3.776   2.292  10.229  0.6635 -0.3300 -0.9986
  120MOL0     H16197   4.196   1.720   9.788 -0.1664 -0.1840 -1.0829
  120MOL0     H16198   4.445   1.480   9.751  0.7995  0.3919  0.4365
  120MOL0     H16199   4.265   1.505   9.758 -0.5593  0.6311 -0.9670
  120MOL0     H16200   4.340   1.484   9.606 -1.9154 -0.0147  0.6709
  121MOL0     O16201   4.080   2.311   3.203  0.6916 -0.0926  0.3634
  121MOL0     C16202   4.041   2.357   3.096 -0.4877 -0.7133  0.1309
  121MOL0     O16203   4.103   2.463   3.027  0.3425  0.0761  0.1990
  121MOL0     C16204   4.232   2.497   3.051 -0.0749  0.5553  0.4046
  121MOL0     C16205   4.233   2.637   3.057 -1.0028 -0.2404  0.7182
  121MOL0     C16206   4.347   2.701   3.095 -0.0742  0.0255 -0.1657
  121MOL0     C16207   4.468   2.634   3.116  0.4617  0.3398 -0.3809
  121MOL0     O16208   4.578   2.712   3.137  0.2943 -0.1086 -0.1170
  121MOL0     C16209   4.690   2.687   3.054 -0.5901 -0.5693  0.0986
  121MOL0     C16210   4.771   2.818   3.031 -0.1048  0.2937 -0.2501
  121MOL0     C16211   4.902   2.785   2.961 -0.6556 -0.4416 -0.4169
  121MOL0     C16212   5.001   2.905   2.972 -0.6347 -0.7355 -0.3115
  121MOL0     C16213   5.148   2.869   3.001 -0.5423  0.3589 -0.1416
  121MOL0     C16214   5.242   2.980   2.961  0.2575  0.3095 -0.0079
  121MOL0     C16215   5.388   2.962   3.014  1.3731 -0.5505  0.1624
  121MOL0     C16216   5.446   2.819   3.009  0.1962  0.0546  0.2094
  121MOL0     N16217   5.585   2.821   3.051 -0.3790  0.0889  0.1507
  121MOL0     C16218   5.707   2.823   2.985  0.6247  0.8077  0.9656
  121MOL0     C16219   5.800   2.808   3.084  0.3361  0.3647  0.4947
  121MOL0     C16220   5.955   2.817   3.071 -0.3505  0.8682  0.4934
  121MOL0     C16221   6.019   2.680   3.051 -0.1376  1.1285 -0.0642
  121MOL0     C16222   6.164   2.680   2.998  0.0303 -0.2073  0.0690
  121MOL0     C16223   6.255   2.773   3.072 -0.1571  0.3456  1.8721
  121MOL0     O16224   6.391   2.725   3.052 -0.0708 -0.3878  0.4980
  121MOL0     C16225   6.487   2.805   3.004  0.0426  0.8812  0.1012
  121MOL0     C16226   6.470   2.939   2.969 -0.4373 -0.3251  0.0480
  121MOL0     C16227   6.582   3.017   2.933 -0.2674  0.4575  0.1148
  121MOL0     C16228   6.716   2.969   2.938  0.5759  0.0531  0.4855
  121MOL0     C16229   6.826   3.047   2.886 -0.8116 -0.3397  0.3475
  121MOL0     O16230   6.936   2.983   2.845  0.1023  0.7510 -0.7422
  121MOL0     C16231   7.050   3.057   2.820 -0.2053 -1.2938  0.3478
  121MOL0     C16232   7.121   3.131   2.916 -0.3083 -0.2026 -0.5883
  121MOL0     C16233   7.237   3.213   2.868  0.4645  0.3838  0.1031
  121MOL0     C16234   7.281   3.203   2.733 -0.0009  0.4511  0.8308
  121MOL0     O16235   7.397   3.253   2.685 -0.7532 -1.2330  0.2866
  121MOL0     C16236   7.491   3.322   2.776  0.7511  0.1461  0.1691
  121MOL0     C16237   7.600   3.380   2.689 -0.4722  0.2970 -0.6913
  121MOL0     C16238   7.551   3.461   2.571  0.7022  0.1342 -1.0454
  121MOL0     C16239   7.665   3.510   2.483  0.4511 -0.0442  0.8221
  121MOL0     C16240   7.766   3.617   2.540  0.1856 -0.0914  0.4030
  121MOL0     C16241   7.885   3.645   2.453 -1.1821 -0.1950 -0.3299
  121MOL0     C16242   7.985   3.735   2.525  0.1660  0.4643 -0.0795
  121MOL0     C16243   8.103   3.776   2.438 -0.6725 -0.4799  0.1855
  121MOL0    Cl16244   8.231   3.894   2.531  0.1261 -0.0241  0.1268
  121MOL0     C16245   7.196   3.128   2.642  0.3121 -0.5353  0.9741
  121MOL0     C16246   7.087   3.057   2.686  0.0426  0.9167  1.1303
  121MOL0     O16247   6.818   3.172   2.888  0.3361 -0.1054  0.0852
  121MOL0     C16248   6.728   2.836   2.969  0.6550 -0.0690  0.6258
  121MOL0     C16249   6.615   2.757   3.015  0.1816  0.8840  0.5991
  121MOL0     N16250   5.730   2.791   3.204 -0.0342  0.4747 -0.1293
  121MOL0     N16251   5.608   2.811   3.190  0.2469  0.0534 -0.6209
  121MOL0     C16252   4.476   2.494   3.113  0.7407  0.5642  0.1432
  121MOL0     C16253   4.351   2.420   3.075  0.3436 -0.5343 -0.1251
  121MOL0     C16254   3.916   2.322   3.025  0.0983  1.1357  1.2838
  121MOL0     C16255   3.891   2.386   2.900 -0.2850 -0.2930 -0.6808
  121MOL0     C16256   3.774   2.362   2.835  0.6195 -0.0677  0.0725
  121MOL0     C16257   3.677   2.270   2.869  0.4477  0.9423  0.1347
  121MOL0     O16258   3.580   2.249   2.774  0.4711  0.1912 -0.2212
  121MOL0     C16259   3.467   2.177   2.835 -0.2883 -0.0842 -0.2827
  121MOL0     C16260   3.359   2.152   2.728  0.2824 -0.0204  0.2570
  121MOL0     C16261   3.222   2.107   2.781  0.5481  0.6460 -0.6897
  121MOL0     C16262   3.107   2.126   2.675 -0.6064 -0.3673 -0.8523
  121MOL0     C16263   2.982   2.086   2.729 -0.4233  0.2193 -0.5728
  121MOL0     C16264   2.880   2.047   2.783  0.2021 -0.1469 -0.5455
  121MOL0     C16265   3.702   2.209   2.994 -0.3123  0.1221 -0.3393
  121MOL0     C16266   3.816   2.230   3.078 -0.6872 -0.6236  0.1190
  121MOL0     C16267   3.828   2.164   3.214 -0.6381  0.2911  0.3363
  121MOL0     H16268   4.144   2.698   3.048 -1.1868 -0.5272  0.5769
  121MOL0     H16269   4.343   2.808   3.113 -0.5992  0.2047 -1.2597
  121MOL0     H16270   4.754   2.608   3.094  1.1828 -0.8332 -2.9193
  121MOL0     H16271   4.650   2.657   2.956 -1.0677  2.3666 -0.7076
  121MOL0     H16272   4.789   2.868   3.126  0.9450  0.1593 -0.3705
  121MOL0     H16273   4.718   2.887   2.964  0.6389  0.1912 -0.9625
  121MOL0     H16274   4.888   2.765   2.854 -3.2295 -0.0211 -0.2135
  121MOL0     H16275   4.947   2.694   3.002 -0.7331  0.0523  0.8125
  121MOL0     H16276   4.993   2.966   2.881 -0.5820  0.5602  0.5225
  121MOL0     H16277   4.968   2.976   3.048  0.7814  1.1662 -1.3805
  121MOL0     H16278   5.178   2.839   3.102  1.4023 -2.8195 -1.4978
  121MOL0     H16279   5.179   2.779   2.947  2.4178  0.2893  1.4463
  121MOL0     H16280   5.254   2.995   2.853 -1.7316  1.5865 -0.0949
  121MOL0     H16281   5.199   3.076   2.992 -0.5018 -0.1328  0.3234
  121MOL0     H16282   5.388   2.993   3.119 -0.7851  2.2370 -0.5447
  121MOL0     H16283   5.453   3.037   2.968 -2.1002  3.1280  0.6294
  121MOL0     H16284   5.396   2.744   3.071 -0.5274  0.7364  0.4730
  121MOL0     H16285   5.446   2.783   2.905 -0.0806  0.6455  0.0009
  121MOL0     H16286   5.718   2.830   2.877  0.5383 -3.5483  0.5001
  121MOL0     H16287   5.984   2.875   2.983  3.2710 -1.5637 -0.1069
  121MOL0     H16288   6.000   2.871   3.154  1.5078 -1.3423  1.0112
  121MOL0     H16289   6.007   2.626   3.146 -0.9233 -1.2672 -1.4426
  121MOL0     H16290   5.963   2.627   2.974  1.3459 -4.9951  2.4623
  121MOL0     H16291   6.157   2.717   2.895 -1.3498  2.6673  1.1063
  121MOL0     H16292   6.210   2.580   2.994  1.9259  0.5506  1.3492
  121MOL0     H16293   6.244   2.756   3.180  2.4539 -1.2727  1.9682
  121MOL0     H16294   6.241   2.880   3.054  1.9766  0.3500 -0.1737
  121MOL0     H16295   6.380   2.999   2.978  0.0800  0.4562  0.0675
  121MOL0     H16296   6.567   3.121   2.904 -0.2651  0.8412  1.4495
  121MOL0     H16297   7.100   3.141   3.022  0.0985 -0.1871 -0.5074
  121MOL0     H16298   7.303   3.270   2.932 -1.2945  3.2423 -0.4194
  121MOL0     H16299   7.435   3.405   2.820  1.2460  0.6054 -0.0504
  121MOL0     H16300   7.532   3.264   2.858  1.2486  0.1506 -0.0750
  121MOL0     H16301   7.656   3.441   2.760 -1.6677 -1.0279  1.5073
  121MOL0     H16302   7.666   3.299   2.657 -1.7326 -0.4433 -1.5186
  121MOL0     H16303   7.489   3.404   2.501  0.6180  0.1982 -1.0227
  121MOL0     H16304   7.511   3.557   2.603  2.3477 -0.2126  2.6362
  121MOL0     H16305   7.609   3.555   2.400 -1.1897 -1.4243  1.1240
  121MOL0     H16306   7.719   3.422   2.449 -0.7021 -0.2366 -0.6081
  121MOL0     H16307   7.798   3.582   2.639 -1.2696 -0.1982  0.8590
  121MOL0     H16308   7.724   3.716   2.564  0.5765  0.1220  0.2193
  121MOL0     H16309   7.937   3.553   2.422  1.6674  1.5626 -1.1639
  121MOL0     H16310   7.854   3.694   2.360  1.4769  1.8282 -0.2692
  121MOL0     H16311   8.024   3.694   2.619 -0.1492  0.6441  0.1316
  121MOL0     H16312   7.938   3.832   2.545 -0.7319  0.5363 -2.2956
  121MOL0     H16313   8.150   3.685   2.399  1.1354 -0.0690  1.2916
  121MOL0     H16314   8.053   3.836   2.361 -2.1333 -2.6493 -0.6636
  121MOL0     H16315   7.228   3.128   2.538 -3.4474  0.6019 -0.3510
  121MOL0     H16316   7.042   2.976   2.629  0.5018  0.0893  1.9238
  121MOL0     H16317   6.828   2.794   2.974 -0.0504 -2.0834 -0.9091
  121MOL0     H16318   6.634   2.654   3.043  1.1353  0.6344 -0.8418
  121MOL0     H16319   4.573   2.457   3.145  0.2453  0.8511  2.0699
  121MOL0     H16320   4.348   2.311   3.069 -1.5900 -0.7441  2.7863
  121MOL0     H16321   3.952   2.460   2.849 -1.3909  1.0059 -0.2042
  121MOL0     H16322   3.756   2.416   2.742 -0.0332  1.9831  1.3348
  121MOL0     H16323   3.420   2.240   2.911  1.1354  0.2360  0.3660
  121MOL0     H16324   3.499   2.080   2.873  1.4524  0.9745  1.0810
  121MOL0     H16325   3.392   2.090   2.644 -1.9240 -0.0219 -0.6693
  121MOL0     H16326   3.348   2.250   2.680  2.3825 -0.3935 -1.1281
  121MOL0     H16327   3.197   2.163   2.872  2.3442 -2.5192  1.9752
  121MOL0     H16328   3.218   2.002   2.812  0.2655  1.0832  0.8362
  121MOL0     H16329   3.109   2.233   2.653 -0.9598 -0.6633 -2.4495
  121MOL0     H16330   3.125   2.085   2.575 -0.8075  0.5150 -1.2692
  121MOL0     H16331   2.788   1.994   2.795  0.7946 -1.1942 -0.4688
  121MOL0     H16332   3.624   2.142   3.028 -0.6126 -0.2075 -1.6189
  121MOL0     H16333   3.917   2.102   3.202 -0.3196  1.0431 -1.4805
  121MOL0     H16334   3.836   2.247   3.286 -2.1604  2.8354 -2.2281
  121MOL0     H16335   3.739   2.103   3.231  1.0642 -2.6854 -0.7427
  122MOL0     O16336   9.800   0.846  10.006  0.1809  0.2241 -0.0246
  122MOL0     C16337   9.775   0.772   9.910 -0.8297 -0.1669 -0.0488
  122MOL0     O16338   9.872   0.723   9.828 -0.0455  0.9220  0.2107
  122MOL0     C16339  10.002   0.728   9.871  0.3028 -0.7586 -0.9145
  122MOL0     C16340  10.066   0.844   9.871  0.5231 -0.1203  1.0698
  122MOL0     C16341  10.192   0.860   9.928 -0.1346  0.0786  0.2264
  122MOL0     C16342  10.257   0.757   9.983 -0.5277  0.0268 -0.7866
  122MOL0     O16343  10.364   0.768  10.069  0.1901 -0.5994 -0.1872
  122MOL0     C16344  10.461   0.880  10.064 -0.9185 -0.7291  0.6038
  122MOL0     C16345  10.553   0.863  10.180 -0.0220  0.4356  0.2637
  122MOL0     C16346  10.670   0.949  10.174  0.0129  0.9321  0.2423
  122MOL0     C16347  10.777   0.887  10.262  0.1759  0.8979  0.5254
  122MOL0     C16348  10.924   0.955  10.247 -0.1621 -0.0453 -0.1827
  122MOL0     C16349  11.018   0.871  10.329 -0.0903 -0.6910 -0.1417
  122MOL0     C16350  11.150   0.933  10.355 -0.9494  0.4912 -0.4744
  122MOL0     C16351  11.257   0.833  10.379 -0.0198 -1.0082  0.3778
  122MOL0     N16352  11.397   0.892  10.381 -0.5415 -0.6523 -0.5743
  122MOL0     C16353  11.453   0.996  10.318  0.0664 -0.3615  0.1296
  122MOL0     C16354  11.569   1.018  10.378  0.3460  1.5276 -0.1879
  122MOL0     C16355  11.670   1.118  10.336  0.3589  0.5031 -0.1434
  122MOL0     C16356  11.641   1.245  10.413  0.3282  0.6400  0.3674
  122MOL0     C16357  11.745   1.346  10.382 -0.0799  0.2577  0.2672
  122MOL0     C16358  11.744   1.469  10.458  0.5540 -0.6519  0.0624
  122MOL0     O16359  11.870   1.531  10.433  0.1723 -0.2153  0.6206
  122MOL0     C16360  11.986   1.499  10.495  0.4458 -0.1771 -0.4637
  122MOL0     C16361  12.099   1.479  10.422  0.9371  1.0949  0.0208
  122MOL0     C16362  12.219   1.452  10.482 -0.2767  0.7254 -0.3102
  122MOL0     C16363  12.234   1.453  10.623  0.3828 -0.2545 -0.3462
  122MOL0     C16364  12.369   1.433  10.675 -0.0761  0.2086 -0.0723
  122MOL0     O16365  12.472   1.493  10.606 -0.2183 -0.6646 -0.6080
  122MOL0     C16366  12.604   1.468  10.650  0.2044 -0.0343 -0.1622
  122MOL0     C16367  12.651   1.335  10.665  0.0073 -0.3451 -0.7686
  122MOL0     C16368  12.782   1.312  10.707  0.2498 -0.0581 -0.1832
  122MOL0     C16369  12.872   1.418  10.732 -0.3329 -0.7996  0.0858
  122MOL0     O16370  12.999   1.398  10.777 -0.4510 -0.0866  0.1146
  122MOL0     C16371  13.107   1.432  10.689 -0.1159 -0.1498  0.5795
  122MOL0     C16372  13.236   1.410  10.770  0.6704  0.3891  0.9492
  122MOL0     C16373  13.347   1.463  10.673 -0.1358  0.0619 -0.7463
  122MOL0     C16374  13.488   1.414  10.721 -0.0447 -0.1922  0.0319
  122MOL0     C16375  13.602   1.477  10.628 -1.3601  0.2020 -0.4582
  122MOL0     C16376  13.734   1.472  10.705 -0.4380  0.3987  0.0780
  122MOL0     C16377  13.851   1.506  10.614 -0.2028  0.5136  0.3772
  122MOL0     C16378  13.982   1.526  10.687 -0.4426  0.1317  0.6164
  122MOL0    Cl16379  14.049   1.378  10.752 -0.5545  0.0819 -0.4405
  122MOL0     C16380  12.826   1.554  10.708 -0.0006  0.8150 -0.5861
  122MOL0     C16381  12.694   1.568  10.661 -0.2702 -0.1309  0.8939
  122MOL0     O16382  12.378   1.384  10.782  0.5204 -0.6075 -0.4580
  122MOL0     C16383  12.114   1.468  10.704  0.0578 -0.1081  0.1709
  122MOL0     C16384  11.993   1.488  10.636 -0.8712 -1.0785 -0.0344
  122MOL0     N16385  11.589   0.920  10.475 -0.9229 -0.8963 -0.3838
  122MOL0     N16386  11.485   0.853  10.480  0.2353  0.1261  0.7726
  122MOL0     C16387  10.192   0.633   9.990  0.0497  0.0588 -0.6766
  122MOL0     C16388  10.067   0.616   9.930  0.5600  0.1316  0.1755
  122MOL0     C16389   9.626   0.750   9.875 -0.2210  1.2652 -0.1404
  122MOL0     C16390   9.543   0.844   9.942 -0.5820  0.1531 -0.2688
  122MOL0     C16391   9.413   0.815   9.961 -0.2452  0.1107  0.5540
  122MOL0     C16392   9.348   0.705   9.885 -0.2927  0.0281 -0.2129
  122MOL0     O16393   9.213   0.695   9.898  0.3604 -0.3990  0.2700
  122MOL0     C16394   9.160   0.565   9.914  0.2055  1.0446 -0.1688
  122MOL0     C16395   9.096   0.501   9.790 -0.1377 -0.1125 -0.3512
  122MOL0     C16396   9.141   0.354   9.759  0.1716  0.4912 -0.3919
  122MOL0     C16397   9.159   0.337   9.607  0.5093 -0.6622 -0.0610
  122MOL0     C16398   9.304   0.361   9.565  0.1468  0.8987  0.3971
  122MOL0     C16399   9.412   0.407   9.550 -0.2072 -0.3291  0.6936
  122MOL0     C16400   9.432   0.630   9.810  0.1026  0.3002  0.3617
  122MOL0     C16401   9.566   0.647   9.806 -0.8436 -0.0785 -0.3999
  122MOL0     C16402   9.645   0.540   9.735 -0.1159 -0.0998 -0.2728
  122MOL0     H16403  10.018   0.933   9.832  0.7469  0.3289  1.7992
  122MOL0     H16404  10.238   0.958   9.930  1.3359 -0.5767  2.5578
  122MOL0     H16405  10.514   0.862   9.970  1.1158 -2.7457  2.0115
  122MOL0     H16406  10.422   0.982  10.069  0.7978  0.0794 -1.0366
  122MOL0     H16407  10.579   0.757  10.171  0.4303  0.6313 -0.9326
  122MOL0     H16408  10.499   0.883  10.273 -0.0349  3.8829 -0.3521
  122MOL0     H16409  10.646   1.049  10.213 -3.7416  0.2487  0.0510
  122MOL0     H16410  10.698   0.963  10.070  4.1272  3.5816  1.4691
  122MOL0     H16411  10.745   0.894  10.367  0.0088 -0.1076  0.5571
  122MOL0     H16412  10.789   0.781  10.239  0.2874  1.5313 -2.8166
  122MOL0     H16413  10.934   0.946  10.139  0.2441  0.8619 -0.2290
  122MOL0     H16414  10.928   1.063  10.265  1.1635  0.2075 -1.7311
  122MOL0     H16415  10.964   0.854  10.422 -0.8856 -0.9069 -0.6338
  122MOL0     H16416  11.039   0.775  10.281 -1.6199 -1.3198  0.3827
  122MOL0     H16417  11.147   1.013  10.430  1.9392  1.3246 -1.0815
  122MOL0     H16418  11.173   0.981  10.259 -0.1623 -1.1535 -1.1489
  122MOL0     H16419  11.244   0.768  10.466  1.8812 -0.5682  1.0435
  122MOL0     H16420  11.260   0.769  10.289  0.7230 -1.7936  0.9373
  122MOL0     H16421  11.405   1.053  10.240  1.7692 -1.5483 -1.8821
  122MOL0     H16422  11.765   1.081  10.376 -0.4921 -0.2004  1.2881
  122MOL0     H16423  11.673   1.139  10.228 -1.4476 -0.6974 -0.4750
  122MOL0     H16424  11.540   1.283  10.395  0.0830  0.0368  0.4794
  122MOL0     H16425  11.654   1.219  10.518 -2.4461  1.6851  1.0692
  122MOL0     H16426  11.742   1.369  10.276 -2.5960  0.5019  0.3265
  122MOL0     H16427  11.842   1.298  10.395  1.4364  1.5252 -4.4507
  122MOL0     H16428  11.733   1.463  10.567  3.1617  2.1043  0.6086
  122MOL0     H16429  11.670   1.541  10.420  0.3652  0.3151  2.0956
  122MOL0     H16430  12.107   1.483  10.314  2.5521  0.0528  0.0715
  122MOL0     H16431  12.304   1.425  10.420  0.6117  2.6545 -0.0085
  122MOL0     H16432  12.579   1.256  10.644 -2.3726  1.1639  1.2991
  122MOL0     H16433  12.808   1.208  10.728  0.8985  0.5615  2.4616
  122MOL0     H16434  13.106   1.369  10.599  0.5206  4.0972 -2.7301
  122MOL0     H16435  13.104   1.537  10.659  0.3115 -0.5125 -0.7896
  122MOL0     H16436  13.229   1.447  10.872  1.5116  0.1719  1.0966
  122MOL0     H16437  13.240   1.301  10.779 -0.6760 -0.0550 -2.2916
  122MOL0     H16438  13.326   1.425  10.572 -2.3287  1.0869 -0.7104
  122MOL0     H16439  13.347   1.572  10.677  0.6956  0.1098 -1.4982
  122MOL0     H16440  13.500   1.306  10.737 -1.8219 -0.4767 -0.3783
  122MOL0     H16441  13.501   1.450  10.823  0.8642 -1.2224  0.3002
  122MOL0     H16442  13.583   1.582  10.603  1.2608  0.8014 -0.1968
  122MOL0     H16443  13.595   1.414  10.539  1.1111 -0.9925  0.0954
  122MOL0     H16444  13.732   1.535  10.794  2.2902 -2.0212  2.0731
  122MOL0     H16445  13.747   1.376  10.756  0.4888  0.9610  0.9494
  122MOL0     H16446  13.816   1.606  10.587  0.4229  0.4452 -0.7378
  122MOL0     H16447  13.863   1.453  10.519  1.5408  3.6207 -1.2893
  122MOL0     H16448  14.055   1.568  10.618  0.7704 -2.1824  0.4044
  122MOL0     H16449  13.964   1.601  10.765 -0.1453  1.9863 -1.0301
  122MOL0     H16450  12.891   1.640  10.722  1.3236 -0.2359 -0.0547
  122MOL0     H16451  12.662   1.670  10.639  0.0331 -0.2749 -0.2606
  122MOL0     H16452  12.109   1.466  10.813  1.4923  0.1305  0.2506
  122MOL0     H16453  11.907   1.507  10.699 -1.0257  2.6324 -1.0871
  122MOL0     H16454  10.233   0.552  10.050  0.7371  1.4244  0.7678
  122MOL0     H16455  10.009   0.525   9.932  0.0745  0.3715 -1.3471
  122MOL0     H16456   9.582   0.937   9.982 -2.5690  0.6619  0.6093
  122MOL0     H16457   9.351   0.889  10.011 -0.3194 -0.6820  1.6568
  122MOL0     H16458   9.079   0.579   9.986 -2.1095 -0.4280 -2.3124
  122MOL0     H16459   9.227   0.494   9.961 -2.2103  0.4530  2.6716
  122MOL0     H16460   9.123   0.565   9.706  0.9432  0.9220  0.7407
  122MOL0     H16461   8.987   0.501   9.788 -0.1646 -1.8878 -1.1274
  122MOL0     H16462   9.053   0.292   9.777  0.3117 -0.0906 -1.5851
  122MOL0     H16463   9.228   0.330   9.821 -0.8914  2.6554  2.1639
  122MOL0     H16464   9.123   0.237   9.581 -2.7021  0.7501 -1.4551
  122MOL0     H16465   9.095   0.403   9.549  2.2692  0.1258 -1.1942
  122MOL0     H16466   9.511   0.441   9.527 -0.9533  1.4385 -0.1503
  122MOL0     H16467   9.393   0.544   9.757 -0.9726  0.2700  1.1631
  122MOL0     H16468   9.597   0.442   9.722 -0.5530 -0.2698  2.1147
  122MOL0     H16469   9.683   0.582   9.642 -0.8277  1.1869  0.0019
  122MOL0     H16470   9.735   0.526   9.797 -0.7087 -1.6102  0.3024
  123MOL0     O16471   1.498   7.820  10.277 -0.0769  0.2587  0.9904
  123MOL0     C16472   1.462   7.898  10.365 -0.8780  0.5501  0.1891
  123MOL0     O16473   1.538   7.997  10.433 -0.9071  0.7505 -0.2338
  123MOL0     C16474   1.671   7.978  10.412 -0.5539  0.0521  0.0311
  123MOL0     C16475   1.727   8.062  10.322  0.0543 -0.1314 -0.9710
  123MOL0     C16476   1.862   8.058  10.282  0.5111  0.9396  0.4424
  123MOL0     C16477   1.943   7.949  10.325  0.4108 -0.1715  0.2612
  123MOL0     O16478   2.073   7.941  10.291  1.0360 -0.5921  0.2148
  123MOL0     C16479   2.102   7.990  10.159  0.1462 -0.7482  0.1328
  123MOL0     C16480   2.236   7.940  10.117 -0.4792 -0.1824 -0.2204
  123MOL0     C16481   2.350   7.964  10.199  0.4220  0.2627  0.8229
  123MOL0     C16482   2.469   7.885  10.143 -0.4972 -0.5695 -0.7866
  123MOL0     C16483   2.598   7.906  10.229  0.1562  0.7096  0.9487
  123MOL0     C16484   2.695   7.792  10.205  0.1783 -0.7143 -0.2253
  123MOL0     C16485   2.729   7.782  10.054 -0.0900  0.2371 -0.1340
  123MOL0     C16486   2.844   7.676  10.029  0.7194 -0.3034  0.3156
  123MOL0     N16487   2.951   7.705  10.120 -0.3120 -0.7027 -0.4674
  123MOL0     C16488   3.013   7.822  10.137 -0.0241  0.1168 -0.7425
  123MOL0     C16489   3.127   7.814  10.211 -0.0158 -0.4600 -0.1913
  123MOL0     C16490   3.225   7.928  10.254 -0.2136 -0.5658  0.2531
  123MOL0     C16491   3.363   7.913  10.197  0.2852  0.0670  0.3697
  123MOL0     C16492   3.438   7.789  10.247 -0.4106 -0.0162 -0.6714
  123MOL0     C16493   3.585   7.815  10.254  1.2237 -1.0000 -0.3256
  123MOL0     O16494   3.646   7.781  10.132  0.2240 -0.1539 -0.2733
  123MOL0     C16495   3.787   7.798  10.129  0.2078 -0.0265  1.1577
  123MOL0     C16496   3.860   7.710  10.055 -0.1015  0.1491  0.7567
  123MOL0     C16497   3.995   7.723  10.042  0.1163 -1.2239  0.7530
  123MOL0     C16498   4.058   7.844  10.086  0.0492  0.1750  0.4098
  123MOL0     C16499   4.199   7.867  10.055  1.2140 -0.5053  1.3097
  123MOL0     O16500   4.247   7.792   9.956 -0.0880  0.2381 -0.4123
  123MOL0     C16501   4.386   7.788   9.948 -0.2090  0.6340 -1.1428
  123MOL0     C16502   4.461   7.690  10.024 -0.6556 -0.9500  0.2842
  123MOL0     C16503   4.593   7.665   9.996  0.6494  0.0652  0.1182
  123MOL0     C16504   4.657   7.738   9.889  0.5267  0.9664  0.0716
  123MOL0     O16505   4.783   7.709   9.845 -0.2397  0.6586  0.1386
  123MOL0     C16506   4.852   7.605   9.911  0.9697  0.1451  0.4479
  123MOL0     C16507   5.001   7.630   9.893  0.4395  0.1544 -0.0056
  123MOL0     C16508   5.078   7.498   9.916  0.4185  0.0504 -0.2162
  123MOL0     C16509   5.211   7.499   9.849 -1.7465  0.2900  0.0703
  123MOL0     C16510   5.283   7.365   9.863  0.0617  0.2658 -0.8241
  123MOL0     C16511   5.422   7.369   9.805 -0.2293 -0.3993 -0.0728
  123MOL0     C16512   5.513   7.260   9.853  1.0338 -1.3628  0.9754
  123MOL0     C16513   5.653   7.280   9.796 -0.1236 -0.3982 -1.0030
  123MOL0    Cl16514   5.628   7.268   9.624 -0.0859 -0.1355 -0.1804
  123MOL0     C16515   4.586   7.839   9.818 -0.5506  0.4250 -0.6682
  123MOL0     C16516   4.449   7.861   9.850 -0.2356 -0.4206  0.3070
  123MOL0     O16517   4.262   7.961  10.101  0.2091 -0.8978 -0.0352
  123MOL0     C16518   3.988   7.925  10.172 -0.1803 -0.2646  0.0076
  123MOL0     C16519   3.852   7.904  10.189 -0.2695 -1.0650 -0.3690
  123MOL0     N16520   3.121   7.681  10.252 -0.2056 -0.0396 -1.1652
  123MOL0     N16521   3.012   7.621  10.204  0.3498 -0.5219 -0.0889
  123MOL0     C16522   1.883   7.857  10.423 -0.3692 -0.7880 -0.1748
  123MOL0     C16523   1.747   7.865  10.458 -0.2866 -0.6921 -0.7564
  123MOL0     C16524   1.317   7.875  10.409  0.4403  0.6974  0.3036
  123MOL0     C16525   1.252   7.755  10.370 -0.6851  1.4405 -0.7500
  123MOL0     C16526   1.122   7.725  10.416  0.2136 -0.1996  0.4327
  123MOL0     C16527   1.048   7.809  10.495 -1.3580  0.6823 -1.5681
  123MOL0     O16528   0.932   7.770  10.545  0.4604 -0.4748 -0.4152
  123MOL0     C16529   0.821   7.825  10.474 -0.3352 -0.6102  1.3234
  123MOL0     C16530   0.801   7.746  10.348 -0.4843 -1.0765  0.2068
  123MOL0     C16531   0.749   7.610  10.380  0.0227  0.0637 -0.3866
  123MOL0     C16532   0.727   7.525  10.257 -0.3255 -0.5410 -0.1878
  123MOL0     C16533   0.714   7.383  10.287  0.0503 -0.1041  0.2909
  123MOL0     C16534   0.697   7.273  10.328  0.1929 -0.0689  0.8634
  123MOL0     C16535   1.105   7.935  10.527 -0.1874  0.4295  0.1147
  123MOL0     C16536   1.231   7.966  10.483  1.1965 -0.3038 -0.3484
  123MOL0     C16537   1.264   8.111  10.513 -0.1366  0.7751 -0.4807
  123MOL0     H16538   1.659   8.138  10.283  0.2695 -0.2070 -1.5047
  123MOL0     H16539   1.893   8.139  10.216  0.3558 -0.7142 -1.7872
  123MOL0     H16540   2.032   7.948  10.087  1.7590  0.3314 -2.1993
  123MOL0     H16541   2.092   8.099  10.151  0.2987 -0.6549  1.0967
  123MOL0     H16542   2.256   7.974  10.015 -2.9011 -2.7590 -1.6970
  123MOL0     H16543   2.222   7.832  10.117 -1.4862 -0.0779  0.7034
  123MOL0     H16544   2.334   7.932  10.303 -2.6886  1.5387  0.8607
  123MOL0     H16545   2.377   8.070  10.194  0.7501  0.1089 -1.1390
  123MOL0     H16546   2.452   7.777  10.143  0.8573 -0.8951  2.3344
  123MOL0     H16547   2.491   7.926  10.044  1.1931 -2.6415 -1.3496
  123MOL0     H16548   2.637   7.997  10.183  1.0540 -1.0796 -2.1279
  123MOL0     H16549   2.568   7.918  10.333 -1.2692 -1.8333  0.9230
  123MOL0     H16550   2.781   7.808  10.270  0.2633 -1.8298 -0.0309
  123MOL0     H16551   2.655   7.699  10.247 -0.6153 -0.8762 -1.2880
  123MOL0     H16552   2.770   7.877  10.018  0.0079  0.1404 -0.2829
  123MOL0     H16553   2.641   7.762   9.992  1.0550  0.8614 -2.0462
  123MOL0     H16554   2.802   7.576  10.036  2.6115 -1.1364  0.2953
  123MOL0     H16555   2.880   7.694   9.928  2.2552  2.1560  1.1959
  123MOL0     H16556   2.990   7.917  10.091  0.8819  0.0997 -1.2653
  123MOL0     H16557   3.181   8.023  10.223  0.4722  0.5236  2.3861
  123MOL0     H16558   3.223   7.929  10.364 -0.8801  2.5280  0.2915
  123MOL0     H16559   3.349   7.903  10.089 -1.1121 -3.5326  0.7518
  123MOL0     H16560   3.416   8.006  10.219  0.7099 -0.1705  0.3716
  123MOL0     H16561   3.407   7.698  10.195 -2.3541  0.2177 -0.0054
  123MOL0     H16562   3.404   7.759  10.347  2.2869 -2.8994 -0.4535
  123MOL0     H16563   3.624   7.750  10.332 -0.0822 -0.1714  1.0754
  123MOL0     H16564   3.598   7.922  10.274  0.0254 -0.5513 -1.7739
  123MOL0     H16565   3.816   7.622  10.008  0.7214  0.0695  0.1073
  123MOL0     H16566   4.049   7.642   9.994 -1.2955 -0.3122 -2.6935
  123MOL0     H16567   4.407   7.635  10.100 -2.4251 -0.9955 -0.9216
  123MOL0     H16568   4.635   7.584  10.055 -1.4389 -0.8164  0.4976
  123MOL0     H16569   4.844   7.594  10.019  0.6434 -4.0769  0.1654
  123MOL0     H16570   4.816   7.512   9.865 -3.8222  2.0608 -0.2043
  123MOL0     H16571   5.024   7.664   9.791 -1.4059 -0.3388 -0.6229
  123MOL0     H16572   5.024   7.703   9.971  0.0389 -1.2942  1.5122
  123MOL0     H16573   5.085   7.469  10.021 -0.9051 -3.5194 -0.9550
  123MOL0     H16574   5.018   7.415   9.877 -0.3015 -0.8197  2.5317
  123MOL0     H16575   5.269   7.582   9.889 -0.2058 -1.8912  2.6942
  123MOL0     H16576   5.191   7.511   9.742  1.1118 -2.0149 -0.8570
  123MOL0     H16577   5.225   7.281   9.824  2.1383 -0.7708 -1.8188
  123MOL0     H16578   5.300   7.346   9.969 -1.3558 -3.0273 -1.0534
  123MOL0     H16579   5.409   7.369   9.696 -0.5557 -0.3909 -0.0333
  123MOL0     H16580   5.475   7.458   9.841  1.6373 -1.8579  1.0259
  123MOL0     H16581   5.471   7.164   9.820 -4.5454  1.5352 -1.8028
  123MOL0     H16582   5.534   7.276   9.959  0.1128  3.4482  0.6823
  123MOL0     H16583   5.692   7.378   9.825 -2.1924  0.2721 -0.3361
  123MOL0     H16584   5.704   7.191   9.833 -1.1319 -0.0909  1.2634
  123MOL0     H16585   4.640   7.880   9.734  1.0565  0.5016  0.3410
  123MOL0     H16586   4.385   7.918   9.783  0.7375 -0.2894 -0.5445
  123MOL0     H16587   4.033   8.015  10.212 -0.3325 -0.2280  0.0980
  123MOL0     H16588   3.802   7.983  10.243  1.5617 -1.1501  1.6235
  123MOL0     H16589   1.953   7.781  10.455  1.6046  0.1953 -1.8822
  123MOL0     H16590   1.706   7.793  10.529  0.9049 -1.0847 -0.4530
  123MOL0     H16591   1.294   7.678  10.306 -0.9178 -0.2682  1.0404
  123MOL0     H16592   1.069   7.633  10.395 -1.6488  1.3040 -2.0940
  123MOL0     H16593   0.834   7.932  10.452  4.5392 -1.2975 -0.4040
  123MOL0     H16594   0.732   7.809  10.535 -0.8474 -2.1955  0.2242
  123MOL0     H16595   0.897   7.744  10.296  0.5055  1.0304  1.8021
  123MOL0     H16596   0.723   7.791  10.285 -1.3601 -0.2185  1.8527
  123MOL0     H16597   0.657   7.626  10.437  0.9866  0.4113  1.1383
  123MOL0     H16598   0.817   7.553  10.445 -3.1533 -1.7379  1.5882
  123MOL0     H16599   0.635   7.561  10.211  0.4116 -0.7410 -1.9055
  123MOL0     H16600   0.805   7.531  10.180  1.0153 -0.5642  1.1084
  123MOL0     H16601   0.695   7.170  10.360  2.9803 -1.0009 -1.5563
  123MOL0     H16602   1.036   8.001  10.579 -0.9353 -0.2711  0.0277
  123MOL0     H16603   1.181   8.163  10.561  0.0594  1.3716 -0.7689
  123MOL0     H16604   1.350   8.123  10.579 -2.6367  0.9510  2.9732
  123MOL0     H16605   1.275   8.160  10.415 -3.2647 -0.6497 -1.6750
  124MOL0     O16606   4.533  10.302   4.821  0.1583  0.6156  0.5314
  124MOL0     C16607   4.478  10.338   4.928 -0.1762 -0.8043 -0.1792
  124MOL0     O16608   4.531  10.425   5.027 -0.1503 -0.0003  0.1567
  124MOL0     C16609   4.669  10.453   5.032  0.8660 -0.8124 -0.1328
  124MOL0     C16610   4.757  10.463   4.919  0.2725 -0.2029 -0.9222
  124MOL0     C16611   4.886  10.509   4.938  0.2652 -0.0820 -0.0241
  124MOL0     C16612   4.931  10.541   5.063  0.5429 -0.1421 -1.0582
  124MOL0     O16613   5.055  10.592   5.104 -0.3522 -0.2318 -1.0719
  124MOL0     C16614   5.153  10.630   5.004 -1.6609 -0.1043 -0.3289
  124MOL0     C16615   5.276  10.707   5.070  0.0116 -0.1404  0.2258
  124MOL0     C16616   5.405  10.708   4.981  0.1181 -0.2619 -0.2760
  124MOL0     C16617   5.387  10.781   4.849 -0.2147 -0.3615 -0.3723
  124MOL0     C16618   5.525  10.801   4.781 -0.1569 -0.6458  0.1228
  124MOL0     C16619   5.590  10.674   4.724 -0.0415 -0.2017 -0.0236
  124MOL0     C16620   5.693  10.694   4.613  0.4873 -0.1152  0.0332
  124MOL0     C16621   5.818  10.760   4.651  0.1410 -0.5544 -0.4171
  124MOL0     N16622   5.904  10.657   4.717 -0.2289 -0.8630 -0.4563
  124MOL0     C16623   6.040  10.636   4.682  0.9017  0.0538  0.3120
  124MOL0     C16624   6.084  10.540   4.764 -0.2044 -0.2949  0.8340
  124MOL0     C16625   6.223  10.479   4.765  0.0532 -0.0111  0.1982
  124MOL0     C16626   6.331  10.538   4.678  0.0701 -0.2283 -0.4369
  124MOL0     C16627   6.424  10.629   4.757 -0.1770  0.5450 -0.4124
  124MOL0     C16628   6.365  10.737   4.838  0.0430  0.1562 -1.4508
  124MOL0     O16629   6.261  10.808   4.769  0.1808 -0.2196 -0.4031
  124MOL0     C16630   6.272  10.939   4.778  0.3553 -0.2718  0.2469
  124MOL0     C16631   6.379  11.011   4.726 -0.3681  0.7530 -0.3543
  124MOL0     C16632   6.393  11.146   4.743  0.6709  0.0382  0.6524
  124MOL0     C16633   6.295  11.221   4.807  0.0256  0.5079  1.0043
  124MOL0     C16634   6.315  11.358   4.829 -0.4430 -0.0184  0.3600
  124MOL0     O16635   6.448  11.388   4.823  0.0685 -0.3437  0.5939
  124MOL0     C16636   6.481  11.521   4.831  0.0600  0.0321  0.1447
  124MOL0     C16637   6.423  11.624   4.757 -0.4131  0.3125 -0.1187
  124MOL0     C16638   6.482  11.754   4.766 -0.2222 -0.3759  0.1825
  124MOL0     C16639   6.590  11.772   4.850 -0.1376 -0.5757 -0.5922
  124MOL0     O16640   6.651  11.896   4.840 -0.0936 -0.5043  0.6222
  124MOL0     C16641   6.770  11.922   4.909 -0.2705 -1.1089  0.1879
  124MOL0     C16642   6.749  11.959   5.062 -0.5248  0.4552  0.8544
  124MOL0     C16643   6.885  11.981   5.127 -0.3855 -0.7445  0.6451
  124MOL0     C16644   6.855  12.028   5.275  0.3972  0.2973 -0.3427
  124MOL0     C16645   6.877  11.917   5.379  0.7746 -1.2926 -0.2279
  124MOL0     C16646   6.775  11.805   5.397 -0.5366 -0.7621 -0.2718
  124MOL0     C16647   6.817  11.705   5.499  0.3130 -0.5230  0.2255
  124MOL0     C16648   6.697  11.604   5.496 -0.1227 -0.2945  0.6546
  124MOL0    Cl16649   6.570  11.662   5.599 -0.0654  0.2401  0.4456
  124MOL0     C16650   6.647  11.667   4.931  0.6460 -0.1156  0.6190
  124MOL0     C16651   6.591  11.537   4.915 -0.1785 -1.6865  0.4685
  124MOL0     O16652   6.224  11.437   4.861 -0.2577 -0.2481  0.5823
  124MOL0     C16653   6.186  11.147   4.854 -0.9781  0.0149 -0.6828
  124MOL0     C16654   6.173  11.012   4.840  0.2571 -0.0103  0.4763
  124MOL0     N16655   5.987  10.503   4.850 -0.4652  0.6304 -0.6015
  124MOL0     N16656   5.882  10.571   4.820  0.0493 -0.2270  0.5148
  124MOL0     C16657   4.844  10.531   5.171 -0.9457  0.3443 -0.2031
  124MOL0     C16658   4.715  10.491   5.153  0.3196 -0.2189 -0.8311
  124MOL0     C16659   4.338  10.309   4.947  0.0646 -0.0100  0.1167
  124MOL0     C16660   4.310  10.263   5.081 -0.0042 -1.0247  0.5077
  124MOL0     C16661   4.179  10.219   5.112 -0.3312  0.0452 -0.3097
  124MOL0     C16662   4.076  10.215   5.014 -0.3918  0.7929  0.2420
  124MOL0     O16663   3.962  10.147   5.056  0.2668 -0.0417  0.1029
  124MOL0     C16664   3.846  10.171   4.977  0.0902  0.2738 -0.1501
  124MOL0     C16665   3.733  10.141   5.081  0.2501 -0.3274  0.6716
  124MOL0     C16666   3.592  10.141   5.011  0.0305  0.6824 -0.2222
  124MOL0     C16667   3.561  10.003   4.947 -0.0054  0.2007  0.8366
  124MOL0     C16668   3.420   9.981   4.893 -0.3608  0.1567 -0.1198
  124MOL0     C16669   3.315   9.973   4.835 -0.6074  0.0872  0.0016
  124MOL0     C16670   4.100  10.263   4.880  0.0684  0.1241 -0.3442
  124MOL0     C16671   4.233  10.305   4.846 -0.6182 -0.9302  0.5293
  124MOL0     C16672   4.255  10.343   4.701  0.5164 -0.4043 -0.9050
  124MOL0     H16673   4.720  10.442   4.819 -0.6428 -2.3121 -0.2072
  124MOL0     H16674   4.953  10.519   4.854 -1.7535 -1.4255 -1.9320
  124MOL0     H16675   5.190  10.537   4.959  0.7560  0.0079  1.2632
  124MOL0     H16676   5.102  10.696   4.933 -0.2288  3.9344  2.0493
  124MOL0     H16677   5.305  10.672   5.169  0.9380 -1.2578 -0.4097
  124MOL0     H16678   5.250  10.811   5.088  0.3451  0.2350 -1.2639
  124MOL0     H16679   5.439  10.606   4.962  0.4103 -0.4244  1.0311
  124MOL0     H16680   5.480  10.762   5.039  1.1242 -1.0103 -0.8551
  124MOL0     H16681   5.322  10.727   4.780  2.5109 -1.3226 -2.3312
  124MOL0     H16682   5.347  10.882   4.860  1.6545  0.2185  1.6370
  124MOL0     H16683   5.496  10.862   4.695 -0.0985 -2.8146 -1.5227
  124MOL0     H16684   5.598  10.849   4.847  0.0594 -0.7283 -0.0518
  124MOL0     H16685   5.642  10.619   4.802  3.8179 -1.6557 -3.2737
  124MOL0     H16686   5.514  10.611   4.677  1.7063 -1.8676 -0.7353
  124MOL0     H16687   5.645  10.749   4.532 -0.1062  0.5262  0.7964
  124MOL0     H16688   5.705  10.589   4.582 -0.5730 -1.2735  3.1298
  124MOL0     H16689   5.866  10.802   4.562  1.4042  1.8445  1.2824
  124MOL0     H16690   5.786  10.840   4.718 -1.6817 -0.4912 -1.3067
  124MOL0     H16691   6.091  10.683   4.598  1.7583 -2.9147 -0.9584
  124MOL0     H16692   6.260  10.474   4.868 -0.3971  0.0849  0.3664
  124MOL0     H16693   6.206  10.372   4.745  1.3539 -0.5804  1.9074
  124MOL0     H16694   6.384  10.447   4.647 -1.3863 -1.4411  0.5003
  124MOL0     H16695   6.300  10.593   4.588  3.5806  1.3791 -0.8116
  124MOL0     H16696   6.485  10.671   4.677  1.0703  2.1858  1.3148
  124MOL0     H16697   6.483  10.566   4.823 -1.9719  1.1701  1.9086
  124MOL0     H16698   6.448  10.799   4.873 -1.1059  0.0921  1.7705
  124MOL0     H16699   6.320  10.690   4.926 -0.8173  0.8245 -1.5202
  124MOL0     H16700   6.464  10.970   4.672  1.8361 -0.3239  3.4812
  124MOL0     H16701   6.467  11.200   4.686 -1.5313  2.0494 -0.5055
  124MOL0     H16702   6.333  11.614   4.696  1.2553  0.7565 -2.8497
  124MOL0     H16703   6.447  11.831   4.698  0.1190  2.0357  2.5609
  124MOL0     H16704   6.845  11.843   4.913  1.1016  0.2158  2.7621
  124MOL0     H16705   6.813  12.010   4.861 -1.9856 -0.5923 -0.4707
  124MOL0     H16706   6.676  12.038   5.079 -0.6279  1.3999 -3.0145
  124MOL0     H16707   6.708  11.869   5.109 -1.3961  2.3142  3.8741
  124MOL0     H16708   6.961  11.903   5.119  1.7737  1.3558 -0.9698
  124MOL0     H16709   6.928  12.072   5.082  1.8358 -0.9564  2.1825
  124MOL0     H16710   6.750  12.057   5.290  0.4546 -1.0547  4.3888
  124MOL0     H16711   6.914  12.116   5.303 -0.1203  0.7843 -0.7462
  124MOL0     H16712   6.879  11.980   5.468  0.5204  0.7175 -1.5961
  124MOL0     H16713   6.978  11.876   5.367  1.4127  0.4370 -0.9751
  124MOL0     H16714   6.677  11.848   5.418  0.1871  1.7328 -1.6118
  124MOL0     H16715   6.766  11.759   5.298  1.7678 -1.7695 -0.0874
  124MOL0     H16716   6.839  11.744   5.599  2.2378  0.7000 -0.5962
  124MOL0     H16717   6.907  11.668   5.449  0.5418  1.9469 -1.3506
  124MOL0     H16718   6.650  11.597   5.398  1.2150 -0.3855 -0.0015
  124MOL0     H16719   6.722  11.502   5.524 -0.8049 -0.6970 -0.1624
  124MOL0     H16720   6.745  11.677   4.977  1.2143 -0.3125 -0.4940
  124MOL0     H16721   6.640  11.460   4.973 -1.5989 -2.6287  0.4641
  124MOL0     H16722   6.109  11.197   4.911  0.4336 -1.8559  3.1832
  124MOL0     H16723   6.086  10.960   4.878  1.9376 -1.4591  2.5479
  124MOL0     H16724   4.885  10.533   5.272  1.8262 -1.4578 -1.1689
  124MOL0     H16725   4.654  10.483   5.242  0.1507  0.8151 -0.8448
  124MOL0     H16726   4.396  10.264   5.147 -0.9800 -0.4170  1.8147
  124MOL0     H16727   4.157  10.194   5.215 -0.3417 -1.0100 -0.5592
  124MOL0     H16728   3.850  10.109   4.888  2.1866  1.1817 -0.7627
  124MOL0     H16729   3.837  10.276   4.946 -0.7956 -0.5682 -2.9712
  124MOL0     H16730   3.735  10.203   5.171  1.1610 -0.0021  0.4370
  124MOL0     H16731   3.750  10.039   5.117  0.5886 -0.6979 -0.4766
  124MOL0     H16732   3.584  10.213   4.929 -5.6080  1.8945  0.9740
  124MOL0     H16733   3.514  10.157   5.086  2.7242 -0.6840  3.1534
  124MOL0     H16734   3.626   9.987   4.860 -0.8254  1.3549 -0.0140
  124MOL0     H16735   3.582   9.920   5.016 -1.8628 -0.8402  0.2363
  124MOL0     H16736   3.223   9.970   4.782  0.4123 -1.6060 -1.7854
  124MOL0     H16737   4.040  10.254   4.789  4.3344  0.5062 -3.5168
  124MOL0     H16738   4.356  10.383   4.684  0.3098  0.9384  0.7596
  124MOL0     H16739   4.233  10.253   4.643 -1.0292 -2.9177  3.1327
  124MOL0     H16740   4.186  10.420   4.665 -0.4999  0.9695  3.4253
  125MOL0     O16741   2.306   8.878   2.804 -0.4893 -0.3271  0.2219
  125MOL0     C16742   2.250   8.773   2.832 -0.2820  0.5741  0.0587
  125MOL0     O16743   2.304   8.649   2.846 -0.6528 -0.2729 -0.7129
  125MOL0     C16744   2.431   8.603   2.807  0.0725  0.5175  0.7231
  125MOL0     C16745   2.555   8.681   2.815  0.1367  1.2728  0.4872
  125MOL0     C16746   2.667   8.624   2.752  0.6076  0.0389  0.1648
  125MOL0     C16747   2.661   8.504   2.679  0.2143 -0.7428  0.4714
  125MOL0     O16748   2.774   8.459   2.622  0.1183 -0.4456 -0.6547
  125MOL0     C16749   2.775   8.356   2.530  1.0931  0.5144 -0.0252
  125MOL0     C16750   2.911   8.355   2.472 -0.3812  0.1407  1.0094
  125MOL0     C16751   3.028   8.349   2.582 -0.1043  0.1130 -0.1797
  125MOL0     C16752   3.094   8.478   2.624  0.1371  0.1053 -0.0173
  125MOL0     C16753   3.240   8.450   2.676 -0.3351 -0.0706 -0.0242
  125MOL0     C16754   3.337   8.407   2.569  0.0914 -0.2148  0.2456
  125MOL0     C16755   3.488   8.402   2.613 -0.1238  0.4592 -1.0753
  125MOL0     C16756   3.555   8.310   2.506  0.4390  0.5738 -0.1773
  125MOL0     N16757   3.683   8.251   2.551  0.6857  0.5869 -0.7520
  125MOL0     C16758   3.782   8.311   2.629  0.6276 -0.1150  0.2093
  125MOL0     C16759   3.880   8.218   2.635 -0.0816 -0.4412  0.1126
  125MOL0     C16760   4.023   8.225   2.690  0.3378  0.5297 -0.0599
  125MOL0     C16761   4.106   8.244   2.557  0.5943  0.2549 -0.2262
  125MOL0     C16762   4.257   8.222   2.577  0.4555  0.2045  0.0424
  125MOL0     C16763   4.335   8.257   2.453  0.3216  0.1299 -0.0310
  125MOL0     O16764   4.451   8.175   2.452  0.1375 -0.0230 -0.7475
  125MOL0     C16765   4.543   8.185   2.352 -0.4645  0.2251  0.1568
  125MOL0     C16766   4.574   8.300   2.283  0.3393 -0.6673  0.4345
  125MOL0     C16767   4.653   8.296   2.170 -0.4745 -0.0003 -0.0954
  125MOL0     C16768   4.709   8.178   2.127  1.0382 -0.4074  0.1043
  125MOL0     C16769   4.801   8.184   2.019  0.0001  0.4828  1.1640
  125MOL0     O16770   4.845   8.306   1.977 -0.3149  0.6290  0.7566
  125MOL0     C16771   4.947   8.308   1.888 -0.3538 -0.7497  0.3877
  125MOL0     C16772   4.935   8.316   1.752  0.2963 -0.0198 -0.0191
  125MOL0     C16773   5.052   8.324   1.681 -0.6277 -0.1367  0.2030
  125MOL0     C16774   5.180   8.338   1.735 -0.3619  0.5580  0.7236
  125MOL0     O16775   5.278   8.347   1.644  0.4253 -0.2509 -0.0375
  125MOL0     C16776   5.354   8.469   1.652 -0.9613 -0.7302  0.4545
  125MOL0     C16777   5.510   8.448   1.652 -0.1379  0.2702  0.0249
  125MOL0     C16778   5.562   8.349   1.544 -0.3934 -0.8326 -0.4227
  125MOL0     C16779   5.709   8.312   1.556  0.0460  0.0569  0.1706
  125MOL0     C16780   5.760   8.197   1.463 -0.0861 -0.3065 -0.1492
  125MOL0     C16781   5.852   8.248   1.349 -0.6152 -0.0303  0.4773
  125MOL0     C16782   5.926   8.126   1.283  0.4398 -0.2466 -0.0188
  125MOL0     C16783   6.041   8.174   1.187 -0.5389  0.0009  0.5117
  125MOL0    Cl16784   6.132   8.042   1.120 -0.0771  0.2738  0.0466
  125MOL0     C16785   5.189   8.322   1.871  0.1137 -0.2800 -0.1111
  125MOL0     C16786   5.080   8.306   1.948  0.6653 -0.1181 -0.3529
  125MOL0     O16787   4.827   8.074   1.967  0.0243 -0.3061 -0.1525
  125MOL0     C16788   4.687   8.054   2.201 -0.2907 -0.2850 -0.0906
  125MOL0     C16789   4.597   8.061   2.316 -0.4913 -0.4574  0.2649
  125MOL0     N16790   3.836   8.099   2.587  0.5966  0.4427  0.3291
  125MOL0     N16791   3.716   8.124   2.535 -1.0595  0.7148 -0.1085
  125MOL0     C16792   2.543   8.431   2.684 -0.4729  0.3038  0.8309
  125MOL0     C16793   2.427   8.478   2.734 -0.4898  0.2348  0.5948
  125MOL0     C16794   2.099   8.781   2.845 -0.5736  0.5967  0.9946
  125MOL0     C16795   2.038   8.670   2.905  0.1247 -0.1040 -0.0798
  125MOL0     C16796   1.901   8.669   2.924 -0.5614  0.3245 -0.4395
  125MOL0     C16797   1.826   8.772   2.874  0.0915  0.1020  0.8355
  125MOL0     O16798   1.691   8.766   2.875 -0.0216 -0.4899  0.6758
  125MOL0     C16799   1.631   8.667   2.794  0.0534  0.8652  1.2470
  125MOL0     C16800   1.504   8.719   2.720 -0.4063 -0.3203  1.1132
  125MOL0     C16801   1.431   8.623   2.620 -0.4487  0.3829 -0.0499
  125MOL0     C16802   1.337   8.521   2.685 -1.0632  0.1268  0.6147
  125MOL0     C16803   1.227   8.503   2.584  0.0180 -0.0439 -0.2618
  125MOL0     C16804   1.133   8.477   2.519 -0.1757  0.2724  0.5977
  125MOL0     C16805   1.880   8.885   2.824 -0.0264 -0.5550  0.0545
  125MOL0     C16806   2.020   8.891   2.803  0.9208 -0.5465 -0.0624
  125MOL0     C16807   2.080   9.018   2.743  0.2066  0.1991  0.0429
  125MOL0     H16808   2.553   8.770   2.877 -4.4452  1.6911  0.0808
  125MOL0     H16809   2.765   8.669   2.765  1.4833 -2.0275  1.2348
  125MOL0     H16810   2.757   8.258   2.575 -1.5458  1.7066  1.7167
  125MOL0     H16811   2.702   8.369   2.449 -0.8758 -1.5932  1.2969
  125MOL0     H16812   2.928   8.447   2.416 -5.1469  0.7836  0.1803
  125MOL0     H16813   2.917   8.276   2.397 -2.7401  0.7588  0.0676
  125MOL0     H16814   3.103   8.283   2.539  1.1254  1.7297 -0.6320
  125MOL0     H16815   2.985   8.316   2.677 -1.4409  1.2822 -0.3455
  125MOL0     H16816   3.086   8.560   2.551  1.2364 -0.4983 -0.8418
  125MOL0     H16817   3.026   8.518   2.700 -1.3593 -0.8919 -0.7950
  125MOL0     H16818   3.284   8.538   2.725  0.3215 -0.0358 -0.6558
  125MOL0     H16819   3.236   8.367   2.747  0.3409  0.1050  0.2282
  125MOL0     H16820   3.300   8.306   2.548  1.4439 -0.3007 -2.0737
  125MOL0     H16821   3.323   8.469   2.481  2.5503 -1.3198 -1.0328
  125MOL0     H16822   3.497   8.359   2.713 -0.8420  0.4884 -0.9938
  125MOL0     H16823   3.525   8.505   2.608  1.0971  0.1376  0.5165
  125MOL0     H16824   3.483   8.228   2.494 -1.6331  2.2721 -0.0151
  125MOL0     H16825   3.564   8.359   2.409 -2.2018  0.8700 -0.3701
  125MOL0     H16826   3.800   8.411   2.669  1.4246 -1.1393  2.5986
  125MOL0     H16827   4.032   8.305   2.764 -2.3928 -0.0687  1.0259
  125MOL0     H16828   4.061   8.135   2.740  0.6398  1.4171  1.3723
  125MOL0     H16829   4.070   8.177   2.478  1.1688 -0.0453 -0.2439
  125MOL0     H16830   4.079   8.345   2.525 -1.7924 -0.3809 -0.3466
  125MOL0     H16831   4.267   8.116   2.600 -2.3788 -0.1817 -0.1139
  125MOL0     H16832   4.283   8.282   2.665  0.7498 -1.0888  0.8520
  125MOL0     H16833   4.358   8.364   2.461  0.7876 -0.0833  1.9374
  125MOL0     H16834   4.283   8.241   2.358  0.5388 -0.2463 -0.0860
  125MOL0     H16835   4.525   8.387   2.325 -3.4244 -1.6863 -1.4814
  125MOL0     H16836   4.667   8.388   2.113  1.3494  0.7618  1.4888
  125MOL0     H16837   4.837   8.325   1.706  0.3610  3.5361  0.2367
  125MOL0     H16838   5.055   8.334   1.573  0.4239 -1.7318  0.0452
  125MOL0     H16839   5.325   8.532   1.568  0.7454  0.1804  0.5106
  125MOL0     H16840   5.324   8.518   1.745  1.0920 -2.0695  1.9116
  125MOL0     H16841   5.551   8.549   1.644 -1.2056  0.6344 -1.2695
  125MOL0     H16842   5.544   8.409   1.749  0.0031 -0.3829 -0.2831
  125MOL0     H16843   5.506   8.256   1.549 -2.4670  0.2662 -1.7715
  125MOL0     H16844   5.535   8.409   1.456  0.4719  1.8422  1.0281
  125MOL0     H16845   5.726   8.276   1.658  3.0868 -2.2111 -0.9559
  125MOL0     H16846   5.775   8.397   1.540 -0.8711  0.7008 -0.2400
  125MOL0     H16847   5.674   8.151   1.413  0.2306 -0.6281 -0.3965
  125MOL0     H16848   5.811   8.118   1.519  0.6623 -0.0161 -0.4152
  125MOL0     H16849   5.809   8.306   1.267  0.7286 -0.3310 -0.4852
  125MOL0     H16850   5.932   8.315   1.384  2.1705 -0.8790 -3.5106
  125MOL0     H16851   5.859   8.071   1.215  1.8562 -0.9319 -0.9307
  125MOL0     H16852   5.969   8.067   1.364  0.4005 -0.0474  0.1453
  125MOL0     H16853   5.983   8.223   1.109 -1.1103  0.8337  1.4354
  125MOL0     H16854   6.112   8.242   1.235  2.6576 -1.3893 -1.9205
  125MOL0     H16855   5.287   8.316   1.917 -0.0378 -0.4967  0.1865
  125MOL0     H16856   5.094   8.294   2.055 -3.5481  1.3731  0.5842
  125MOL0     H16857   4.729   7.962   2.161  0.1995 -0.6394  1.2080
  125MOL0     H16858   4.563   7.974   2.372  1.8694 -0.6075  1.6129
  125MOL0     H16859   2.548   8.335   2.635  0.0560  1.2203 -1.0051
  125MOL0     H16860   2.331   8.428   2.732 -0.4750  0.2028  0.6716
  125MOL0     H16861   2.090   8.584   2.947  0.3210 -1.6739 -3.2683
  125MOL0     H16862   1.855   8.582   2.970  2.2643 -0.8853  0.3372
  125MOL0     H16863   1.610   8.574   2.847  0.4957  0.6494  1.0540
  125MOL0     H16864   1.696   8.634   2.712  1.5135 -2.5692  3.5567
  125MOL0     H16865   1.534   8.806   2.661  0.0891 -0.3578  1.3073
  125MOL0     H16866   1.442   8.762   2.799 -0.1087  1.1439  0.5740
  125MOL0     H16867   1.503   8.567   2.560 -0.8970  0.6153 -0.8221
  125MOL0     H16868   1.381   8.678   2.540  0.7955 -0.0337 -1.1506
  125MOL0     H16869   1.367   8.418   2.704  1.1655  0.4142 -0.9624
  125MOL0     H16870   1.310   8.574   2.778  4.1753  2.8130  1.0095
  125MOL0     H16871   1.046   8.455   2.461 -1.1395 -0.7338  2.3386
  125MOL0     H16872   1.809   8.965   2.802  0.3994 -0.9266 -2.9728
  125MOL0     H16873   2.110   8.998   2.640  0.2837  0.3066  0.0434
  125MOL0     H16874   2.010   9.097   2.714  0.2591 -1.1303 -4.5291
  125MOL0     H16875   2.164   9.052   2.804  2.4458 -3.8019 -0.4345
  126MOL0     O16876   6.746   2.039   6.273  0.8470  0.4878 -0.7924
  126MOL0     C16877   6.797   2.055   6.165  0.2202  0.4480  0.1953
  126MOL0     O16878   6.746   2.013   6.044  0.2069 -0.2618 -0.5259
  126MOL0     C16879   6.611   2.007   6.035 -0.4285 -0.3072  0.0844
  126MOL0     C16880   6.522   2.112   6.048 -0.5693 -0.0385  0.1618
  126MOL0     C16881   6.389   2.091   6.029  0.4926  1.1296  0.6482
  126MOL0     C16882   6.330   1.960   6.011 -0.2433  0.5547  0.3027
  126MOL0     O16883   6.192   1.954   6.009 -0.1350  0.6985 -0.1115
  126MOL0     C16884   6.146   1.823   6.021  0.0240  0.2051 -0.3922
  126MOL0     C16885   5.999   1.819   6.032  0.6796  0.6475  0.1194
  126MOL0     C16886   5.948   1.684   6.079 -0.4328 -0.2896  0.3280
  126MOL0     C16887   5.791   1.676   6.093  0.2637  1.0630  0.0959
  126MOL0     C16888   5.755   1.527   6.120  0.2766 -0.1842  0.9264
  126MOL0     C16889   5.612   1.478   6.096 -0.5086 -1.2390 -0.0135
  126MOL0     C16890   5.573   1.491   5.947  0.0038 -0.0566  0.4211
  126MOL0     C16891   5.423   1.469   5.943  0.2833 -0.1104  1.5474
  126MOL0     N16892   5.339   1.571   6.011 -0.2221  0.1315 -0.3809
  126MOL0     C16893   5.324   1.705   5.975 -0.2172  0.6469  0.0801
  126MOL0     C16894   5.274   1.763   6.084  0.2539  0.0370  0.4621
  126MOL0     C16895   5.250   1.908   6.094 -0.0412 -0.2931 -0.3500
  126MOL0     C16896   5.361   1.980   6.159  0.5500  0.3571  0.4473
  126MOL0     C16897   5.485   1.989   6.074  0.0822 -0.5317  0.4134
  126MOL0     C16898   5.588   2.087   6.137 -0.3007 -0.2688  0.2691
  126MOL0     O16899   5.702   2.096   6.054 -0.3571  0.4641  0.3557
  126MOL0     C16900   5.811   2.177   6.089  0.5553  0.4039  0.1521
  126MOL0     C16901   5.908   2.188   6.002 -0.7249  0.2475  1.0729
  126MOL0     C16902   6.023   2.256   6.038  0.0620  0.3119 -0.1892
  126MOL0     C16903   6.031   2.340   6.143  0.7084  0.2792 -0.9858
  126MOL0     C16904   6.147   2.418   6.179  0.4326 -0.1995 -0.5528
  126MOL0     O16905   6.251   2.430   6.083  0.5505  0.2037  0.0336
  126MOL0     C16906   6.375   2.483   6.100 -0.3629  0.1159 -0.6978
  126MOL0     C16907   6.464   2.468   5.984 -0.6231 -1.0332 -0.0971
  126MOL0     C16908   6.597   2.519   5.989 -0.3955  0.3352 -0.2927
  126MOL0     C16909   6.643   2.576   6.110 -0.3110  0.3163  0.2644
  126MOL0     O16910   6.777   2.611   6.106  0.1749  0.9034 -0.3412
  126MOL0     C16911   6.849   2.672   6.213  0.5648 -0.5386 -0.3606
  126MOL0     C16912   6.913   2.587   6.323 -0.0652  0.2768 -0.8860
  126MOL0     C16913   6.819   2.490   6.394  1.0507 -0.7546  0.1720
  126MOL0     C16914   6.905   2.378   6.450  0.1655 -0.9016 -0.8509
  126MOL0     C16915   6.829   2.273   6.534  0.3480  0.5216  0.5461
  126MOL0     C16916   6.926   2.165   6.587 -0.5346  1.0706 -0.0173
  126MOL0     C16917   6.863   2.057   6.682 -0.5759 -0.2083 -0.8883
  126MOL0     C16918   6.938   2.043   6.811 -0.6076  0.4457  0.0094
  126MOL0    Cl16919   6.951   2.187   6.905  0.2864 -0.0065 -0.2624
  126MOL0     C16920   6.555   2.585   6.216  0.1725 -0.5664  0.1984
  126MOL0     C16921   6.425   2.545   6.217  0.1697  0.3373  1.0350
  126MOL0     O16922   6.144   2.464   6.290 -0.1511 -0.3757  0.5707
  126MOL0     C16923   5.917   2.346   6.219  0.1896  0.4719 -0.0152
  126MOL0     C16924   5.811   2.255   6.205 -0.4149  0.0896  0.6805
  126MOL0     N16925   5.238   1.673   6.178  0.1440  0.1075  0.1776
  126MOL0     N16926   5.282   1.563   6.139 -0.3880 -0.6140  0.1080
  126MOL0     C16927   6.427   1.851   6.006 -0.4326 -0.2945  0.0564
  126MOL0     C16928   6.567   1.879   6.015 -0.6850 -0.1503 -0.2820
  126MOL0     C16929   6.940   2.082   6.170 -0.0461 -0.3687 -0.3989
  126MOL0     C16930   7.024   1.996   6.240  0.5110  0.2759 -0.0447
  126MOL0     C16931   7.160   2.011   6.251 -0.6641 -0.3434 -0.2156
  126MOL0     C16932   7.229   2.121   6.192 -0.9418  0.3639  0.9637
  126MOL0     O16933   7.363   2.149   6.202 -0.3924  0.8343  0.6554
  126MOL0     C16934   7.449   2.036   6.238 -0.3098 -0.2521  0.2816
  126MOL0     C16935   7.602   2.063   6.229 -0.0921 -0.1602  1.0528
  126MOL0     C16936   7.649   2.069   6.071  0.5737  0.3927  0.2502
  126MOL0     C16937   7.800   2.114   6.046 -1.1429  0.1993 -0.1346
  126MOL0     C16938   7.822   2.243   6.083 -1.2774  0.6054 -0.1322
  126MOL0     C16939   7.866   2.353   6.090 -0.4422  0.0071 -0.1437
  126MOL0     C16940   7.151   2.212   6.116 -0.1219 -0.3275  0.0877
  126MOL0     C16941   7.010   2.186   6.091  0.5742 -0.6741 -0.5763
  126MOL0     C16942   6.925   2.294   6.023 -0.9359 -0.0961  0.0518
  126MOL0     H16943   6.544   2.218   6.058 -4.4635  1.2059 -2.3415
  126MOL0     H16944   6.320   2.175   6.035 -1.1271 -0.1934  1.1640
  126MOL0     H16945   6.180   1.764   5.936  1.6537  0.5128  0.0076
  126MOL0     H16946   6.190   1.775   6.110  0.9434  1.3426 -0.2022
  126MOL0     H16947   5.958   1.845   5.934  1.6104 -0.7247 -0.6692
  126MOL0     H16948   5.963   1.898   6.098  0.3584  2.1738 -1.7878
  126MOL0     H16949   6.010   1.655   6.164 -3.4944  2.7694  3.9477
  126MOL0     H16950   5.970   1.613   5.998 -1.6107  0.9676 -1.1652
  126MOL0     H16951   5.742   1.743   6.165 -0.9593  2.5713 -2.0142
  126MOL0     H16952   5.752   1.695   5.993  1.2290 -0.9510 -0.7034
  126MOL0     H16953   5.818   1.471   6.050  2.2326  1.2883  1.3942
  126MOL0     H16954   5.783   1.485   6.217 -0.4144  0.9404  1.6407
  126MOL0     H16955   5.628   1.371   6.111  1.9437 -0.8366  0.6596
  126MOL0     H16956   5.552   1.525   6.175  0.0448  1.0420 -0.8543
  126MOL0     H16957   5.619   1.414   5.885  2.6062  0.3263  1.7505
  126MOL0     H16958   5.582   1.589   5.899 -2.5084  0.1958  0.3199
  126MOL0     H16959   5.396   1.486   5.838  3.6106  2.4489  0.9143
  126MOL0     H16960   5.397   1.368   5.973  0.3662 -0.7118 -0.2603
  126MOL0     H16961   5.377   1.757   5.896  1.5862  1.2568  1.5881
  126MOL0     H16962   5.238   1.960   5.999  3.9038  0.3173 -0.6427
  126MOL0     H16963   5.154   1.918   6.147 -0.4238 -1.4728 -0.7891
  126MOL0     H16964   5.325   2.083   6.167 -0.7528 -0.1715  1.8336
  126MOL0     H16965   5.384   1.929   6.253 -0.7749  0.1555  0.6765
  126MOL0     H16966   5.469   2.027   5.972 -1.5613 -0.9671  0.4732
  126MOL0     H16967   5.521   1.886   6.074  1.2417 -0.1425  1.4856
  126MOL0     H16968   5.614   2.053   6.238 -1.4088  1.5102  1.2072
  126MOL0     H16969   5.548   2.188   6.152  0.8567 -0.1970  4.0296
  126MOL0     H16970   5.898   2.132   5.910 -1.4276  0.7195  0.8512
  126MOL0     H16971   6.111   2.252   5.975 -1.8496  2.0230 -3.2027
  126MOL0     H16972   6.430   2.425   5.890 -0.2649 -1.0180 -0.2375
  126MOL0     H16973   6.663   2.498   5.905 -0.1933  0.5270 -0.1833
  126MOL0     H16974   6.924   2.728   6.156  1.3064  1.9992  2.7887
  126MOL0     H16975   6.773   2.736   6.259  2.6322  1.0328  1.1016
  126MOL0     H16976   6.990   2.522   6.281 -1.5078 -1.8568 -0.4271
  126MOL0     H16977   6.953   2.650   6.403 -0.3245  2.7977 -2.6515
  126MOL0     H16978   6.765   2.547   6.471  0.5477 -0.3304 -0.4778
  126MOL0     H16979   6.743   2.447   6.328  2.0026  0.0120 -1.4744
  126MOL0     H16980   6.972   2.429   6.520  0.9332 -1.0557 -1.4652
  126MOL0     H16981   6.971   2.332   6.376 -0.3603 -2.9453 -0.1234
  126MOL0     H16982   6.758   2.225   6.466  1.0847  2.8330 -2.0499
  126MOL0     H16983   6.786   2.325   6.620 -0.7227  0.9660 -0.2402
  126MOL0     H16984   6.979   2.113   6.507 -1.6805 -0.3578  0.1145
  126MOL0     H16985   7.011   2.214   6.636  0.5641 -1.4668  0.8198
  126MOL0     H16986   6.871   1.956   6.641  0.4046  0.0956 -1.4821
  126MOL0     H16987   6.759   2.083   6.705 -0.3563 -2.4029  3.4422
  126MOL0     H16988   6.885   1.973   6.877 -1.1132  1.2910  0.5280
  126MOL0     H16989   7.037   2.000   6.796 -1.1940 -1.5767  1.4970
  126MOL0     H16990   6.585   2.626   6.311 -1.4156  4.5567 -1.1928
  126MOL0     H16991   6.364   2.568   6.304  1.0731 -0.3954  1.8937
  126MOL0     H16992   5.909   2.402   6.312  1.3560 -1.1155  1.0983
  126MOL0     H16993   5.736   2.256   6.283 -0.0374 -3.3034  1.2551
  126MOL0     H16994   6.384   1.751   5.996 -0.0816 -0.7144  2.1993
  126MOL0     H16995   6.637   1.797   6.006  0.5034  0.7064  0.8493
  126MOL0     H16996   6.969   1.917   6.290 -1.1681  1.6617  0.3848
  126MOL0     H16997   7.211   1.938   6.313  1.1892 -1.8206 -3.2042
  126MOL0     H16998   7.430   1.950   6.173 -3.7038 -0.1029  0.9244
  126MOL0     H16999   7.423   1.993   6.335 -0.0666 -0.6768  0.1618
  126MOL0     H17000   7.647   1.983   6.289  1.6365 -4.0178 -4.5692
  126MOL0     H17001   7.628   2.156   6.282 -0.0589  0.2280  0.3743
  126MOL0     H17002   7.584   2.141   6.022 -0.6975  0.1010  1.4484
  126MOL0     H17003   7.632   1.974   6.018  0.5871  0.5874 -0.1029
  126MOL0     H17004   7.859   2.041   6.103 -1.8630 -1.2840 -1.1925
  126MOL0     H17005   7.829   2.108   5.940 -0.5929 -2.7199  0.0975
  126MOL0     H17006   7.896   2.456   6.092 -2.1273  0.6097 -1.9729
  126MOL0     H17007   7.197   2.296   6.066  1.6697 -1.9424 -1.1239
  126MOL0     H17008   6.988   2.352   5.955 -2.5297 -0.4620 -1.8338
  126MOL0     H17009   6.853   2.245   5.956 -0.9358  1.1454 -0.8843
  126MOL0     H17010   6.883   2.353   6.104  4.4885  3.3236  0.8919
  127MOL0     O17011   1.039   3.935   1.367 -0.4690 -0.2255  0.2665
  127MOL0     C17012   0.997   3.841   1.435  0.7010 -0.3402  0.4433
  127MOL0     O17013   1.052   3.789   1.549 -0.2041 -0.1461  0.2590
  127MOL0     C17014   1.174   3.850   1.587  0.7566  0.7985 -0.7559
  127MOL0     C17015   1.293   3.865   1.506 -1.6832 -0.3122 -0.2936
  127MOL0     C17016   1.412   3.920   1.563 -0.7508  0.2413 -0.6285
  127MOL0     C17017   1.422   3.951   1.696 -0.4778  0.1494 -0.2018
  127MOL0     O17018   1.541   3.979   1.765 -0.3352  0.6101 -0.5091
  127MOL0     C17019   1.672   3.953   1.714 -0.2354  0.9161 -1.0858
  127MOL0     C17020   1.768   4.060   1.761  0.2399  0.1055  0.4607
  127MOL0     C17021   1.884   4.096   1.660 -0.0991  1.0610  0.0779
  127MOL0     C17022   1.972   4.215   1.710 -0.7561 -0.1610 -0.2793
  127MOL0     C17023   2.089   4.247   1.613 -0.4373 -0.3892 -0.2154
  127MOL0     C17024   2.153   4.391   1.647 -0.3289 -0.1765  0.6810
  127MOL0     C17025   2.269   4.377   1.750 -0.0911 -0.2112  0.3814
  127MOL0     C17026   2.398   4.301   1.717 -0.0976  0.7415 -0.8041
  127MOL0     N17027   2.439   4.324   1.579  0.3886 -0.0529  1.1282
  127MOL0     C17028   2.492   4.438   1.515  0.3772 -0.4420 -0.0366
  127MOL0     C17029   2.482   4.405   1.384 -0.1958  0.1173 -0.4616
  127MOL0     C17030   2.519   4.500   1.274 -0.4172  0.2755 -0.4245
  127MOL0     C17031   2.665   4.460   1.227  0.6925 -0.4633  0.1625
  127MOL0     C17032   2.711   4.550   1.115 -0.0970 -0.5490 -1.1796
  127MOL0     C17033   2.832   4.494   1.048  0.5936 -0.5213 -0.2771
  127MOL0     O17034   2.798   4.378   0.975 -0.2982 -0.3718  0.1265
  127MOL0     C17035   2.908   4.323   0.916 -0.4681  0.3975 -0.5430
  127MOL0     C17036   2.994   4.237   0.993 -0.3096 -0.4162  0.6095
  127MOL0     C17037   3.114   4.191   0.940  0.3516 -0.0399  0.3406
  127MOL0     C17038   3.153   4.237   0.814 -0.9602 -0.4981  0.1967
  127MOL0     C17039   3.292   4.216   0.765  0.3907  0.6084  0.1940
  127MOL0     O17040   3.315   4.232   0.629  0.0779 -0.2678 -0.4264
  127MOL0     C17041   3.447   4.229   0.590 -0.1728 -0.4906  0.4871
  127MOL0     C17042   3.531   4.335   0.614 -0.3677 -0.0480  0.8122
  127MOL0     C17043   3.668   4.317   0.578 -0.0557 -0.5220 -1.0886
  127MOL0     C17044   3.706   4.205   0.496  0.1787 -0.5958 -0.3520
  127MOL0     O17045   3.831   4.188   0.448 -0.0066 -0.1249  0.3316
  127MOL0     C17046   3.924   4.132   0.545 -0.2054  0.0163  0.5671
  127MOL0     C17047   3.994   4.246   0.627 -0.6802 -1.0562  0.0947
  127MOL0     C17048   4.041   4.357   0.538 -0.8081  0.0730  0.7815
  127MOL0     C17049   4.109   4.460   0.614 -0.8211 -1.0525  0.7403
  127MOL0     C17050   4.198   4.548   0.525 -0.7241  0.5889  0.4476
  127MOL0     C17051   4.262   4.649   0.619  0.7085  0.0351  0.1402
  127MOL0     C17052   4.331   4.762   0.541  0.1807  0.1554  0.1424
  127MOL0     C17053   4.363   4.881   0.639 -1.4178 -0.7403  0.0892
  127MOL0    Cl17054   4.456   4.835   0.779  0.1175  0.1300  0.0864
  127MOL0     C17055   3.622   4.106   0.480 -0.1333  0.4504  0.4764
  127MOL0     C17056   3.488   4.114   0.529 -1.2671  0.5620 -0.2457
  127MOL0     O17057   3.376   4.169   0.840  0.1055  0.2635 -0.0136
  127MOL0     C17058   3.069   4.318   0.739  0.0114  0.6750 -0.2546
  127MOL0     C17059   2.944   4.358   0.787 -0.1096 -1.0341  0.1999
  127MOL0     N17060   2.428   4.276   1.366  0.1525  0.0160  0.4257
  127MOL0     N17061   2.405   4.231   1.487  0.3598  0.6041  0.1294
  127MOL0     C17062   1.303   3.920   1.775 -0.5170 -0.4838  0.6261
  127MOL0     C17063   1.179   3.870   1.722  0.9044 -0.4109  0.0458
  127MOL0     C17064   0.876   3.777   1.392 -1.0932 -0.4559 -0.0957
  127MOL0     C17065   0.867   3.645   1.407 -0.0647 -0.4259 -0.4565
  127MOL0     C17066   0.760   3.571   1.371  0.3128 -0.0850 -0.5792
  127MOL0     C17067   0.651   3.632   1.315 -0.3415  0.3870  0.2254
  127MOL0     O17068   0.549   3.554   1.277  0.2922 -0.5648 -0.3550
  127MOL0     C17069   0.431   3.617   1.215  0.2333  0.7029 -0.8739
  127MOL0     C17070   0.323   3.510   1.184  0.6758  0.2798 -0.0559
  127MOL0     C17071   0.179   3.570   1.155  0.2106  0.1655  0.2882
  127MOL0     C17072   0.186   3.660   1.030  0.4159 -0.3578  0.4188
  127MOL0     C17073   0.046   3.690   0.997 -0.6315 -1.2730  0.0803
  127MOL0     C17074  -0.061   3.721   0.953 -0.4844  0.3835 -0.2743
  127MOL0     C17075   0.657   3.766   1.295 -0.5083 -0.0540  0.5430
  127MOL0     C17076   0.764   3.845   1.331 -0.1086 -0.4599 -0.0773
  127MOL0     C17077   0.759   3.993   1.325  0.1625 -0.5931  0.3103
  127MOL0     H17078   1.302   3.840   1.400  0.6453 -0.6215 -0.0850
  127MOL0     H17079   1.499   3.926   1.499 -0.3240  2.2563  0.0552
  127MOL0     H17080   1.694   3.855   1.756 -0.0296  1.0506 -0.8783
  127MOL0     H17081   1.680   3.941   1.605 -0.5443  0.5130 -1.0646
  127MOL0     H17082   1.822   4.031   1.851  0.0080 -0.7815  0.3201
  127MOL0     H17083   1.706   4.149   1.771 -0.7355 -0.7214  1.9532
  127MOL0     H17084   1.840   4.116   1.562 -2.6140  0.3992  0.9746
  127MOL0     H17085   1.945   4.006   1.647  3.0704  2.8102  1.5526
  127MOL0     H17086   1.906   4.301   1.727  0.6664  1.3493 -1.9821
  127MOL0     H17087   2.013   4.182   1.806  0.2185  1.2056 -0.1855
  127MOL0     H17088   2.159   4.163   1.608 -0.6600 -0.6476  0.7717
  127MOL0     H17089   2.054   4.259   1.510  1.5643 -0.9597 -0.9957
  127MOL0     H17090   2.193   4.430   1.553  0.2083 -0.1762  0.9121
  127MOL0     H17091   2.078   4.466   1.672  0.5943  1.2832 -0.7986
  127MOL0     H17092   2.222   4.340   1.841  0.3304 -0.7744  0.3815
  127MOL0     H17093   2.302   4.476   1.779  0.6233  0.9178 -3.6455
  127MOL0     H17094   2.476   4.329   1.788 -2.0248  0.4242  1.5611
  127MOL0     H17095   2.382   4.195   1.740  0.8910  0.6345 -0.5604
  127MOL0     H17096   2.538   4.523   1.565 -1.4305  0.0289  0.9206
  127MOL0     H17097   2.440   4.493   1.199 -0.1392  1.1207 -0.8052
  127MOL0     H17098   2.518   4.605   1.306 -3.5424  0.9244 -2.3082
  127MOL0     H17099   2.737   4.458   1.309  0.5037 -0.8621  0.3200
  127MOL0     H17100   2.661   4.357   1.191  1.0356  0.0134 -1.2932
  127MOL0     H17101   2.727   4.648   1.162 -2.6189 -1.3057  1.6079
  127MOL0     H17102   2.628   4.560   1.045  1.0777  1.7155 -2.3693
  127MOL0     H17103   2.904   4.457   1.122  1.8685 -0.2411 -1.3351
  127MOL0     H17104   2.881   4.573   0.991  3.3769 -0.7416  1.6337
  127MOL0     H17105   2.975   4.209   1.096 -1.5808  0.0533  0.5087
  127MOL0     H17106   3.174   4.135   1.011 -1.3257 -0.3454  1.5779
  127MOL0     H17107   3.498   4.427   0.661 -3.7421  0.1628 -1.5439
  127MOL0     H17108   3.739   4.396   0.598 -0.5276  0.5438 -3.2920
  127MOL0     H17109   3.873   4.058   0.607 -0.9562 -0.3154 -0.4313
  127MOL0     H17110   3.994   4.082   0.478 -0.0670  1.1187 -0.1409
  127MOL0     H17111   3.924   4.297   0.694  0.2647  0.1912  0.1726
  127MOL0     H17112   4.078   4.206   0.683 -0.3423  0.2138  0.5256
  127MOL0     H17113   4.111   4.309   0.469  1.0771 -0.7939  3.1746
  127MOL0     H17114   3.952   4.399   0.489  1.5927  0.9232 -3.2908
  127MOL0     H17115   4.178   4.425   0.691 -1.0477 -1.4022  0.7886
  127MOL0     H17116   4.029   4.523   0.654  1.9559  3.3342  0.0740
  127MOL0     H17117   4.139   4.593   0.445 -1.5385  0.1621  0.7900
  127MOL0     H17118   4.284   4.495   0.484 -0.2222  1.4755  0.3531
  127MOL0     H17119   4.177   4.680   0.681 -3.0486 -1.1695 -3.9392
  127MOL0     H17120   4.337   4.600   0.682  1.0509 -0.9045 -0.9745
  127MOL0     H17121   4.262   4.803   0.467  1.5771  1.5986 -0.4186
  127MOL0     H17122   4.418   4.720   0.491 -1.2441 -2.0934 -0.5911
  127MOL0     H17123   4.425   4.953   0.584  2.3432 -2.4669  1.6990
  127MOL0     H17124   4.275   4.938   0.671 -0.8080 -0.1157  0.7034
  127MOL0     H17125   3.650   4.017   0.426 -2.4322 -0.3762  0.5430
  127MOL0     H17126   3.420   4.031   0.513  1.6484 -2.2634  0.9352
  127MOL0     H17127   3.098   4.357   0.642  2.3545 -0.3448 -0.0310
  127MOL0     H17128   2.884   4.423   0.724 -1.8817 -1.4470  1.3611
  127MOL0     H17129   1.309   3.931   1.883  1.7266  1.7602  0.3584
  127MOL0     H17130   1.094   3.849   1.785  0.9564  0.5400  0.4569
  127MOL0     H17131   0.941   3.587   1.460  0.6856 -0.2118 -1.2444
  127MOL0     H17132   0.757   3.463   1.374  2.0869 -0.2799 -2.6704
  127MOL0     H17133   0.457   3.663   1.119  1.9989 -0.0866 -0.8202
  127MOL0     H17134   0.383   3.688   1.283  0.4723 -1.1082  1.3169
  127MOL0     H17135   0.303   3.445   1.271 -2.7901  0.2900 -0.7154
  127MOL0     H17136   0.354   3.451   1.098  3.3300  0.3575  0.7497
  127MOL0     H17137   0.151   3.639   1.235  0.7689  1.3625 -0.5127
  127MOL0     H17138   0.103   3.492   1.151 -0.6354  0.6074  3.9978
  127MOL0     H17139   0.235   3.756   1.049 -1.4821  1.1283 -1.6908
  127MOL0     H17140   0.226   3.622   0.936 -2.0499  0.5710 -1.0951
  127MOL0     H17141  -0.153   3.752   0.907 -1.4353  0.4690  1.5730
  127MOL0     H17142   0.577   3.812   1.238 -1.1044 -3.1242 -1.3476
  127MOL0     H17143   0.794   4.046   1.414  0.5249  2.0475 -1.2757
  127MOL0     H17144   0.820   4.023   1.239  0.1231  1.5858  0.9760
  127MOL0     H17145   0.661   4.041   1.313  0.0359 -0.9598 -0.1461
  128MOL0     O17146   8.968   1.842   3.569  0.3769  0.8687  0.2882
  128MOL0     C17147   8.927   1.957   3.575 -0.3485  0.0026  0.3188
  128MOL0     O17148   8.799   1.994   3.557  0.5709  0.3254  0.8711
  128MOL0     C17149   8.707   1.914   3.506  0.0987 -0.6187 -0.1986
  128MOL0     C17150   8.645   1.945   3.382 -0.4950 -0.3797 -0.5807
  128MOL0     C17151   8.547   1.862   3.340  0.4224  0.2844 -0.7682
  128MOL0     C17152   8.501   1.751   3.419  0.6593  0.6833 -0.7895
  128MOL0     O17153   8.418   1.652   3.367  0.1835  0.1594  0.1676
  128MOL0     C17154   8.354   1.653   3.231  1.0660 -0.1202 -0.5357
  128MOL0     C17155   8.237   1.755   3.238 -0.4894  0.1295  0.2087
  128MOL0     C17156   8.193   1.808   3.104 -0.4042  0.4471  0.0158
  128MOL0     C17157   8.091   1.920   3.128  0.5900 -0.0232  0.3350
  128MOL0     C17158   8.023   1.958   2.994 -0.3066  0.0134 -0.2041
  128MOL0     C17159   7.898   2.055   3.025 -0.8187  0.4147 -0.3568
  128MOL0     C17160   7.867   2.144   2.897  0.0941  0.3135  0.4865
  128MOL0     C17161   7.820   2.072   2.773 -0.3808 -0.2875 -0.9389
  128MOL0     N17162   7.918   2.014   2.680 -0.5791 -0.0523 -0.0317
  128MOL0     C17163   8.049   2.053   2.647  0.5141 -0.0848 -0.2389
  128MOL0     C17164   8.079   1.995   2.531  0.3393 -0.0638 -0.0207
  128MOL0     C17165   8.208   2.020   2.461 -0.3976  0.8701 -0.1246
  128MOL0     C17166   8.217   2.171   2.420 -0.3103 -0.6593 -0.4354
  128MOL0     C17167   8.356   2.195   2.349 -0.0756 -0.3230  0.3112
  128MOL0     C17168   8.478   2.121   2.406 -0.3440 -0.2769  0.1905
  128MOL0     O17169   8.601   2.191   2.353 -0.8569  0.1778 -0.6355
  128MOL0     C17170   8.722   2.154   2.413  0.2653  0.6836 -0.1617
  128MOL0     C17171   8.751   2.039   2.497  0.2328 -0.4198 -0.1251
  128MOL0     C17172   8.879   2.035   2.562 -0.5519 -0.9324  0.1118
  128MOL0     C17173   8.989   2.124   2.522 -0.1877 -0.8717 -0.5999
  128MOL0     C17174   9.125   2.116   2.588  0.3281  0.2212 -0.1898
  128MOL0     O17175   9.220   2.211   2.567  0.4238  0.0907 -0.3428
  128MOL0     C17176   9.321   2.216   2.654  0.8628 -0.2315  0.3805
  128MOL0     C17177   9.432   2.147   2.617 -0.5836  0.3575  0.1715
  128MOL0     C17178   9.548   2.145   2.692  0.0877 -0.6436  0.7103
  128MOL0     C17179   9.548   2.216   2.811  0.3831 -0.3465  0.8080
  128MOL0     O17180   9.655   2.206   2.900  0.7616 -0.9965 -0.7320
  128MOL0     C17181   9.781   2.257   2.862 -0.3188  1.1137 -0.6937
  128MOL0     C17182   9.885   2.191   2.955 -0.3611 -0.8371 -0.1242
  128MOL0     C17183   9.853   2.220   3.103 -0.0320  0.2189  0.4719
  128MOL0     C17184   9.968   2.162   3.185  0.3834 -0.1928  0.6444
  128MOL0     C17185  10.004   2.244   3.305 -0.0421  0.3299  0.7988
  128MOL0     C17186  10.073   2.166   3.409 -0.3835  0.3944 -0.9785
  128MOL0     C17187  10.076   2.247   3.547  0.6682 -0.2602 -0.1561
  128MOL0     C17188  10.158   2.196   3.664 -0.1410  0.3849  0.4402
  128MOL0    Cl17189  10.340   2.189   3.622  0.0492 -0.2425  0.0234
  128MOL0     C17190   9.431   2.283   2.860  0.0952 -0.1724  0.7639
  128MOL0     C17191   9.317   2.285   2.779  0.4989  0.2807  0.0555
  128MOL0     O17192   9.131   2.017   2.666  0.5631 -0.7131  0.0509
  128MOL0     C17193   8.952   2.218   2.427 -0.9537 -0.1996  0.1582
  128MOL0     C17194   8.826   2.240   2.372  0.5749 -0.4984 -0.0389
  128MOL0     N17195   7.965   1.917   2.493 -0.0890 -0.4894  0.5949
  128MOL0     N17196   7.868   1.932   2.576 -0.0870  0.6601  0.0651
  128MOL0     C17197   8.554   1.736   3.551 -0.7525  0.2747  0.9758
  128MOL0     C17198   8.666   1.812   3.584 -0.6023 -0.3448  0.5599
  128MOL0     C17199   9.028   2.066   3.594  0.7237 -0.9145 -0.0635
  128MOL0     C17200   9.117   2.054   3.702 -0.2761  1.0309 -0.5188
  128MOL0     C17201   9.200   2.155   3.739 -0.2669 -0.1055  1.3088
  128MOL0     C17202   9.201   2.277   3.666 -0.0149  0.2078 -0.3281
  128MOL0     O17203   9.281   2.376   3.723  0.7109 -0.5338  0.4142
  128MOL0     C17204   9.290   2.506   3.651  0.6532  0.9842 -0.4432
  128MOL0     C17205   9.383   2.606   3.722  1.2571  0.5401 -0.7800
  128MOL0     C17206   9.531   2.562   3.716  0.5211  0.0407  0.1559
  128MOL0     C17207   9.622   2.668   3.777 -0.5389  0.5771 -0.2527
  128MOL0     C17208   9.756   2.624   3.824 -0.7116 -0.3382 -0.1236
  128MOL0     C17209   9.867   2.612   3.867 -0.4927  0.0988  0.5385
  128MOL0     C17210   9.111   2.296   3.555 -0.0501  0.5399  0.0785
  128MOL0     C17211   9.031   2.191   3.521  0.3772  0.4876  0.3679
  128MOL0     C17212   8.927   2.212   3.421  0.2085  0.2502  1.1923
  128MOL0     H17213   8.674   2.033   3.324 -0.0169  0.4250  0.8317
  128MOL0     H17214   8.509   1.883   3.241  1.1359 -4.0855 -2.1755
  128MOL0     H17215   8.428   1.690   3.159  2.9053  0.4872  1.5633
  128MOL0     H17216   8.327   1.551   3.200 -4.4610  0.5945  0.8734
  128MOL0     H17217   8.273   1.835   3.303  1.1703 -0.4441  0.0454
  128MOL0     H17218   8.161   1.702   3.296  0.5289 -0.2892  1.2010
  128MOL0     H17219   8.153   1.726   3.043 -0.7256 -0.1042  0.9439
  128MOL0     H17220   8.280   1.843   3.048 -0.0330 -1.5793 -0.7634
  128MOL0     H17221   8.020   1.894   3.207  0.3693 -0.1712  0.0913
  128MOL0     H17222   8.157   1.999   3.165  0.7894  0.7278 -1.5200
  128MOL0     H17223   8.099   2.016   2.942 -0.9636 -1.5397 -3.1383
  128MOL0     H17224   7.995   1.870   2.936  0.3406 -0.6460  0.4625
  128MOL0     H17225   7.803   2.007   3.051  0.8843 -2.1847  1.6141
  128MOL0     H17226   7.930   2.116   3.110 -1.0535  0.2522 -0.1468
  128MOL0     H17227   7.943   2.219   2.878  2.5194 -2.5470 -2.3769
  128MOL0     H17228   7.780   2.205   2.923  0.5137  2.6740 -3.0482
  128MOL0     H17229   7.755   1.988   2.799  0.3110 -0.3854  0.6296
  128MOL0     H17230   7.762   2.144   2.715 -2.0573 -0.0617  0.9001
  128MOL0     H17231   8.119   2.119   2.696 -0.5745 -1.2831  3.2691
  128MOL0     H17232   8.289   1.994   2.530 -1.0404  1.6320  0.9384
  128MOL0     H17233   8.203   1.958   2.371 -4.5789  1.9030 -0.8221
  128MOL0     H17234   8.139   2.188   2.344  1.0315  1.6714 -1.3967
  128MOL0     H17235   8.212   2.224   2.515  1.7358  1.3954 -1.3714
  128MOL0     H17236   8.373   2.299   2.377  0.2911 -0.9508  2.5814
  128MOL0     H17237   8.355   2.186   2.240  0.6870 -0.8102  0.3427
  128MOL0     H17238   8.476   2.018   2.368  2.0508 -0.4105  0.2577
  128MOL0     H17239   8.481   2.127   2.515 -1.2431  1.2505  0.1629
  128MOL0     H17240   8.678   1.963   2.522  0.0347  0.5888  2.8536
  128MOL0     H17241   8.899   1.954   2.632 -0.6288 -0.1479  1.0644
  128MOL0     H17242   9.436   2.084   2.529  1.3378 -2.9440  2.4057
  128MOL0     H17243   9.639   2.090   2.669  0.3684  0.1715 -0.1730
  128MOL0     H17244   9.806   2.221   2.761  1.5094  0.0924  0.0747
  128MOL0     H17245   9.786   2.365   2.881  1.9182  0.5902  2.3655
  128MOL0     H17246   9.878   2.085   2.929 -0.1486 -0.8148 -0.2741
  128MOL0     H17247   9.976   2.246   2.930 -1.7732  4.3226  4.0165
  128MOL0     H17248   9.852   2.329   3.117 -3.6035  0.7370 -2.2435
  128MOL0     H17249   9.766   2.171   3.147  0.3311 -0.6461  0.2482
  128MOL0     H17250  10.054   2.152   3.118  0.0315  0.0303  0.1533
  128MOL0     H17251   9.945   2.056   3.201  1.4036 -0.7050 -0.9913
  128MOL0     H17252   9.917   2.280   3.361  0.8534  0.6285  2.0279
  128MOL0     H17253  10.073   2.324   3.277  0.2401  0.8734  2.9162
  128MOL0     H17254  10.012   2.076   3.425  0.0784  0.2916  0.3516
  128MOL0     H17255  10.168   2.123   3.378  0.4121  1.8331 -0.6154
  128MOL0     H17256   9.971   2.264   3.571  0.9514  1.6881 -0.1428
  128MOL0     H17257  10.123   2.345   3.530  1.5406 -0.6474 -0.0273
  128MOL0     H17258  10.145   2.256   3.754 -0.9514  0.2511  0.4246
  128MOL0     H17259  10.129   2.094   3.691 -1.7287 -0.2869 -3.1690
  128MOL0     H17260   9.439   2.327   2.959  0.1263 -0.3395  0.8360
  128MOL0     H17261   9.223   2.338   2.797 -0.3569 -1.6858  1.6773
  128MOL0     H17262   9.032   2.288   2.405 -0.4492  0.4608  3.4490
  128MOL0     H17263   8.803   2.321   2.303 -4.5133 -1.3818  0.2186
  128MOL0     H17264   8.552   1.645   3.610 -1.4541  0.7957  1.7738
  128MOL0     H17265   8.718   1.795   3.678  2.7617 -3.7172 -1.6192
  128MOL0     H17266   9.112   1.965   3.764 -0.6176 -1.3243 -3.6525
  128MOL0     H17267   9.267   2.148   3.824 -0.6887 -0.7724  1.5952
  128MOL0     H17268   9.193   2.556   3.653  0.3061  0.3050  0.8451
  128MOL0     H17269   9.319   2.484   3.548  0.6670 -1.8016  0.0895
  128MOL0     H17270   9.346   2.607   3.825  2.1931 -2.6889 -0.2970
  128MOL0     H17271   9.360   2.700   3.671 -0.6454  0.5115 -0.0523
  128MOL0     H17272   9.550   2.544   3.610 -2.4636 -1.0965 -0.2820
  128MOL0     H17273   9.547   2.470   3.774  0.5005  0.7176  1.2811
  128MOL0     H17274   9.626   2.758   3.714 -3.9306 -1.0434 -3.1348
  128MOL0     H17275   9.574   2.703   3.869 -0.4714  1.6637 -0.6159
  128MOL0     H17276   9.970   2.620   3.895 -0.4662 -0.4399  0.6112
  128MOL0     H17277   9.104   2.389   3.500  1.4768 -0.3878 -1.8154
  128MOL0     H17278   8.828   2.215   3.468  1.2751  0.9429  3.5617
  128MOL0     H17279   8.932   2.304   3.363  0.1563 -0.4446  0.0554
  128MOL0     H17280   8.934   2.128   3.352 -0.0506  0.8832  0.3885
  129MOL0     O17281   4.393  10.072   9.127 -0.0813 -0.3216 -0.1848
  129MOL0     C17282   4.438   9.957   9.103  0.3494 -0.8385  0.7000
  129MOL0     O17283   4.560   9.927   9.058  0.1150  0.2449  0.2637
  129MOL0     C17284   4.654  10.021   9.017  0.3006  0.1304 -0.0135
  129MOL0     C17285   4.632  10.148   8.979  0.4985 -0.2484 -0.1877
  129MOL0     C17286   4.736  10.213   8.913 -0.4650 -0.9821 -0.3001
  129MOL0     C17287   4.864  10.152   8.894  0.6563  0.5912  0.6045
  129MOL0     O17288   4.956  10.226   8.818  0.1879 -0.5827 -0.3339
  129MOL0     C17289   5.073  10.164   8.771 -0.6718  0.3716 -0.4557
  129MOL0     C17290   5.183  10.140   8.889  0.8366 -0.0053 -0.0524
  129MOL0     C17291   5.296  10.053   8.828 -0.1026 -0.9696  0.0013
  129MOL0     C17292   5.362  10.119   8.700  0.5515 -0.5342 -0.3958
  129MOL0     C17293   5.480  10.042   8.652  0.2325 -0.1958  0.2984
  129MOL0     C17294   5.593  10.020   8.746 -0.1794 -0.7380 -0.1071
  129MOL0     C17295   5.739  10.012   8.685 -0.0555 -0.5652 -0.3909
  129MOL0     C17296   5.742   9.929   8.556  0.3531  0.7099 -0.6638
  129MOL0     N17297   5.875   9.942   8.486 -0.0028 -0.2649 -0.5154
  129MOL0     C17298   6.000   9.919   8.544  0.4470  0.9282 -0.6089
  129MOL0     C17299   6.091   9.923   8.441 -0.3540  0.3926  0.2624
  129MOL0     C17300   6.242   9.912   8.452  1.0287  0.9314  0.0529
  129MOL0     C17301   6.281   9.763   8.478 -0.9126 -0.5719  0.1431
  129MOL0     C17302   6.425   9.762   8.536  0.0781  0.2290 -0.0006
  129MOL0     C17303   6.531   9.798   8.447 -0.2210  0.1512  0.4976
  129MOL0     O17304   6.650   9.820   8.523 -0.7536  0.5138  0.2956
  129MOL0     C17305   6.773   9.819   8.455 -0.6665  0.1844 -0.1141
  129MOL0     C17306   6.874   9.882   8.533 -0.4324 -0.3963 -0.0254
  129MOL0     C17307   7.001   9.898   8.484 -1.0605  0.6050  0.0308
  129MOL0     C17308   7.033   9.861   8.351 -1.1301  0.5539  0.2206
  129MOL0     C17309   7.171   9.864   8.286  0.8332 -0.3645  0.0720
  129MOL0     O17310   7.267   9.940   8.350  0.4018  0.4140 -0.0859
  129MOL0     C17311   7.382   9.975   8.279  0.1741 -0.4803 -0.4406
  129MOL0     C17312   7.496   9.882   8.261  0.2767 -0.5507 -0.6585
  129MOL0     C17313   7.612   9.934   8.202  0.0530 -0.5916  0.4035
  129MOL0     C17314   7.629  10.068   8.157  0.6155  0.4361 -0.4222
  129MOL0     O17315   7.732  10.102   8.081 -0.8477  0.5405  0.2571
  129MOL0     C17316   7.793  10.232   8.106 -0.4168 -0.0504  0.1124
  129MOL0     C17317   7.929  10.234   8.032 -0.2288  0.9262 -0.3256
  129MOL0     C17318   8.039  10.166   8.113  0.8278  0.4815 -0.0830
  129MOL0     C17319   8.139  10.264   8.169 -0.8430  0.3754 -0.7610
  129MOL0     C17320   8.277  10.194   8.162 -0.4922 -0.6452 -0.6541
  129MOL0     C17321   8.386  10.300   8.190 -0.2189  0.3364 -0.5373
  129MOL0     C17322   8.525  10.248   8.227  0.3718  0.1744  0.8941
  129MOL0     C17323   8.573  10.136   8.134  0.4074 -0.1762 -0.0830
  129MOL0    Cl17324   8.725  10.087   8.206  0.0515 -0.4102 -0.0242
  129MOL0     C17325   7.516  10.150   8.176 -0.0078  0.5029 -0.1916
  129MOL0     C17326   7.401  10.106   8.239 -0.4231  0.4544 -0.7853
  129MOL0     O17327   7.187   9.810   8.184  0.1691 -0.2032  0.1090
  129MOL0     C17328   6.920   9.808   8.275  0.5560 -0.0259 -0.8956
  129MOL0     C17329   6.794   9.785   8.329 -0.3491  0.1226 -0.9559
  129MOL0     N17330   6.024   9.941   8.319  0.4773 -0.1527  0.7894
  129MOL0     N17331   5.894   9.944   8.342 -0.0666  0.1661 -0.3146
  129MOL0     C17332   4.886  10.016   8.931  0.9487 -0.0259 -0.0242
  129MOL0     C17333   4.781   9.959   8.989  0.4789 -0.3143  0.5617
  129MOL0     C17334   4.348   9.844   9.114 -0.2736  0.1653  0.0233
  129MOL0     C17335   4.248   9.848   9.213  0.5352 -0.3228  0.1477
  129MOL0     C17336   4.169   9.742   9.246  0.3299 -0.5999  0.3491
  129MOL0     C17337   4.169   9.627   9.167 -0.3691  0.0385  0.0046
  129MOL0     O17338   4.092   9.522   9.207  0.3390 -0.1981  0.1442
  129MOL0     C17339   4.156   9.435   9.297  0.7834 -0.1179  0.8017
  129MOL0     C17340   4.064   9.372   9.398  0.4261  0.4430 -0.5682
  129MOL0     C17341   3.923   9.324   9.344  0.2573 -0.1176  0.0929
  129MOL0     C17342   3.853   9.238   9.448  0.3327 -0.0026  0.4316
  129MOL0     C17343   3.739   9.169   9.386  0.3531 -0.2523 -0.1881
  129MOL0     C17344   3.639   9.106   9.341 -0.3374 -0.0525 -0.1440
  129MOL0     C17345   4.255   9.619   9.058 -0.7794 -0.7023  1.2458
  129MOL0     C17346   4.341   9.730   9.026  0.6170  0.6952 -0.4190
  129MOL0     C17347   4.416   9.724   8.894 -1.2364 -0.4811 -0.5306
  129MOL0     H17348   4.539  10.203   8.989 -0.0459 -1.3341  1.0126
  129MOL0     H17349   4.720  10.309   8.865  2.4022 -1.2912 -2.0691
  129MOL0     H17350   5.059  10.067   8.721 -0.3770 -0.2346  0.5841
  129MOL0     H17351   5.113  10.227   8.692 -0.4145 -1.4201 -1.8170
  129MOL0     H17352   5.147  10.085   8.976 -2.2515 -0.6567 -1.6269
  129MOL0     H17353   5.226  10.234   8.924  0.9730  0.3573 -1.1349
  129MOL0     H17354   5.258   9.952   8.810 -1.3249 -0.5135 -0.0432
  129MOL0     H17355   5.371  10.034   8.906 -2.5638 -0.0282  2.7631
  129MOL0     H17356   5.298  10.118   8.610  0.1976 -3.1799 -0.1984
  129MOL0     H17357   5.394  10.220   8.727 -1.6249  0.4857 -1.3781
  129MOL0     H17358   5.441   9.948   8.611  0.5501  0.2664 -1.1068
  129MOL0     H17359   5.511  10.096   8.562  2.8820 -1.9007  0.0598
  129MOL0     H17360   5.588  10.112   8.804 -1.0897 -1.4909  1.0637
  129MOL0     H17361   5.572   9.935   8.811 -0.4635  0.4377  1.3842
  129MOL0     H17362   5.813   9.967   8.752  1.3473  0.7408 -1.0116
  129MOL0     H17363   5.773  10.115   8.668  1.8763 -0.5126  2.9099
  129MOL0     H17364   5.728   9.823   8.580  0.8435  0.3964 -1.6901
  129MOL0     H17365   5.660   9.946   8.486 -0.2701 -1.5115 -0.5291
  129MOL0     H17366   6.030   9.906   8.647 -1.5597  0.5731 -0.0365
  129MOL0     H17367   6.294   9.967   8.373 -0.2374 -0.7227 -2.0365
  129MOL0     H17368   6.263   9.969   8.543  0.3515  0.9967  0.1759
  129MOL0     H17369   6.203   9.732   8.549 -1.9407  0.1613 -0.6255
  129MOL0     H17370   6.275   9.706   8.385  1.4717  3.0811 -2.5303
  129MOL0     H17371   6.452   9.665   8.580  1.7592  1.0623  0.8851
  129MOL0     H17372   6.417   9.820   8.629 -1.6412 -2.4244  1.6568
  129MOL0     H17373   6.511   9.882   8.380  0.9803 -0.2605 -0.4198
  129MOL0     H17374   6.544   9.717   8.375 -1.6004  0.6606 -0.3689
  129MOL0     H17375   6.854   9.922   8.631 -1.3116  1.4999 -0.9238
  129MOL0     H17376   7.076   9.941   8.550  1.3301 -2.6485 -0.3357
  129MOL0     H17377   7.491   9.778   8.291  1.1854 -0.8641 -1.5206
  129MOL0     H17378   7.699   9.870   8.200 -0.6885 -1.9865  3.8537
  129MOL0     H17379   7.728  10.301   8.050  1.8802  0.3041 -2.3209
  129MOL0     H17380   7.806  10.257   8.212  2.0619 -1.0681  0.1213
  129MOL0     H17381   7.915  10.192   7.932  2.7497  0.5393 -0.6493
  129MOL0     H17382   7.956  10.338   8.014  0.6440  0.6837 -0.4548
  129MOL0     H17383   7.983  10.118   8.194  1.5166 -0.3980 -0.1172
  129MOL0     H17384   8.088  10.083   8.061 -0.7066 -0.3301 -0.2814
  129MOL0     H17385   8.126  10.280   8.276  0.4336 -0.3993 -0.4734
  129MOL0     H17386   8.140  10.362   8.120 -1.4845 -0.6840 -3.0053
  129MOL0     H17387   8.304  10.147   8.067 -0.6840 -1.7277 -0.1853
  129MOL0     H17388   8.281  10.110   8.232 -1.1775  0.7587  1.1557
  129MOL0     H17389   8.396  10.361   8.099  0.1717  2.5108  0.8762
  129MOL0     H17390   8.353  10.364   8.273 -0.5211 -1.2893  0.6387
  129MOL0     H17391   8.512  10.202   8.326 -0.7935  0.3128  0.8267
  129MOL0     H17392   8.597  10.330   8.227 -0.7867  1.2517 -0.8386
  129MOL0     H17393   8.509  10.048   8.130 -0.4484  0.2052  3.0558
  129MOL0     H17394   8.584  10.177   8.033 -0.9823  4.6407  1.4164
  129MOL0     H17395   7.521  10.251   8.135 -1.1276  2.0671  3.1666
  129MOL0     H17396   7.321  10.172   8.271  1.8961  3.8543 -1.4819
  129MOL0     H17397   6.940   9.789   8.170  5.1601  1.4747 -0.5164
  129MOL0     H17398   6.715   9.745   8.266 -0.9642  2.3598 -1.7424
  129MOL0     H17399   4.975   9.958   8.909 -0.5874 -2.0285 -1.3672
  129MOL0     H17400   4.795   9.855   9.015 -0.5591 -0.2819  1.2969
  129MOL0     H17401   4.242   9.930   9.284  0.9990 -0.4183  0.3065
  129MOL0     H17402   4.105   9.759   9.332  0.1701  0.2532  0.0704
  129MOL0     H17403   4.236   9.491   9.346 -0.4084  0.8838  1.6559
  129MOL0     H17404   4.203   9.349   9.247 -2.7870 -1.1843 -1.0377
  129MOL0     H17405   4.047   9.456   9.466  0.6762 -1.4474  2.0093
  129MOL0     H17406   4.114   9.284   9.440  0.3700  0.9659  0.6454
  129MOL0     H17407   3.933   9.278   9.245  2.4364  3.0133 -1.3037
  129MOL0     H17408   3.860   9.412   9.327  1.5522  0.3298 -3.1432
  129MOL0     H17409   3.927   9.169   9.490 -0.1600 -0.7261  0.1353
  129MOL0     H17410   3.812   9.286   9.537  1.2179 -1.1911  1.5258
  129MOL0     H17411   3.555   9.057   9.296 -1.4554 -1.9005  3.5363
  129MOL0     H17412   4.255   9.528   8.999 -0.5635  0.7544 -1.1256
  129MOL0     H17413   4.371   9.649   8.828 -1.7858  0.7222 -1.5432
  129MOL0     H17414   4.414   9.819   8.841  2.6537  0.3373  0.4943
  129MOL0     H17415   4.522   9.706   8.915 -1.8167 -2.3828  1.1348
  130MOL0     O17416   9.941   2.244  10.829  0.1520 -0.7258  0.1995
  130MOL0     C17417   9.909   2.258  10.949  1.0788 -0.2506  0.5237
  130MOL0     O17418  10.002   2.262  11.052 -1.0594 -0.1195 -0.3076
  130MOL0     C17419  10.132   2.311  11.034 -1.5455 -0.0995 -0.2160
  130MOL0     C17420  10.196   2.372  11.142 -1.0723 -0.1149 -0.1314
  130MOL0     C17421  10.323   2.416  11.143 -0.7407  0.0218 -0.6543
  130MOL0     C17422  10.403   2.410  11.033 -0.8400 -0.0713 -0.3219
  130MOL0     O17423  10.532   2.456  11.028 -0.1284  0.2917 -0.6922
  130MOL0     C17424  10.612   2.448  11.145  0.0061 -0.0634 -0.3692
  130MOL0     C17425  10.764   2.461  11.117  0.2143 -0.2268 -0.3818
  130MOL0     C17426  10.815   2.338  11.049  0.5663  0.7823 -0.5945
  130MOL0     C17427  10.971   2.343  11.052  0.5953 -0.5861 -0.5219
  130MOL0     C17428  11.032   2.222  10.990 -0.2677  0.3571  0.0437
  130MOL0     C17429  11.188   2.226  11.000  0.4154  0.7885  0.0766
  130MOL0     C17430  11.243   2.085  10.970  0.0808  0.4638 -0.2316
  130MOL0     C17431  11.395   2.066  10.975 -0.1440  0.2651 -0.3238
  130MOL0     N17432  11.460   2.152  10.879  0.2346 -0.0371  0.0056
  130MOL0     C17433  11.483   2.294  10.883  0.4254  0.2164  0.3607
  130MOL0     C17434  11.560   2.315  10.772 -0.1443 -0.3786 -0.1974
  130MOL0     C17435  11.602   2.457  10.728  0.9648  0.1799  0.5416
  130MOL0     C17436  11.629   2.459  10.585  0.6479  0.1792  0.4509
  130MOL0     C17437  11.765   2.400  10.543  0.7377 -0.3889 -0.2475
  130MOL0     C17438  11.763   2.365  10.390 -0.3223 -0.4740 -0.1950
  130MOL0     O17439  11.871   2.275  10.358 -0.2068  0.6709  0.4303
  130MOL0     C17440  11.998   2.322  10.313  0.5323  0.4048  0.4221
  130MOL0     C17441  12.098   2.222  10.285  0.5688  0.0869  0.2642
  130MOL0     C17442  12.231   2.259  10.267  0.4959 -0.3059  1.1239
  130MOL0     C17443  12.275   2.395  10.258  0.2454  0.0630 -0.4914
  130MOL0     C17444  12.409   2.440  10.251 -0.3164 -0.3566  0.3367
  130MOL0     O17445  12.507   2.346  10.268  0.0145  0.2337  0.1868
  130MOL0     C17446  12.642   2.362  10.255 -0.3392  0.4103 -0.0613
  130MOL0     C17447  12.709   2.441  10.166 -0.7332 -0.6383  0.5256
  130MOL0     C17448  12.850   2.439  10.164 -0.4631  0.0351  0.0338
  130MOL0     C17449  12.923   2.350  10.241  0.0272 -0.3559 -0.3727
  130MOL0     O17450  13.057   2.354  10.224 -0.7976 -0.0444  0.7656
  130MOL0     C17451  13.141   2.333  10.341  0.0289  1.2238  0.7618
  130MOL0     C17452  13.197   2.193  10.313  0.1165 -0.0443  0.2088
  130MOL0     C17453  13.327   2.190  10.231 -0.0296  1.0463  0.2699
  130MOL0     C17454  13.384   2.047  10.227 -0.7144  0.1110  0.7068
  130MOL0     C17455  13.530   2.051  10.179 -0.3165  0.5378  0.2394
  130MOL0     C17456  13.586   1.910  10.147 -0.0042  0.2279  0.0895
  130MOL0     C17457  13.729   1.921  10.121  0.2414 -0.1006  0.6573
  130MOL0     C17458  13.789   1.781  10.100 -0.3612 -0.6375  0.7244
  130MOL0    Cl17459  13.825   1.703  10.260 -0.1198  0.2972  0.0026
  130MOL0     C17460  12.854   2.267  10.332  0.4556  0.2201 -0.3044
  130MOL0     C17461  12.715   2.271  10.335 -0.1107 -0.0029  0.0034
  130MOL0     O17462  12.430   2.556  10.230  0.8792  0.0427  0.5500
  130MOL0     C17463  12.173   2.489  10.267  0.1792  0.1740 -0.7014
  130MOL0     C17464  12.041   2.449  10.300 -0.3409 -0.4135 -0.0289
  130MOL0     N17465  11.582   2.195  10.704 -0.3930 -0.0530 -0.6464
  130MOL0     N17466  11.519   2.100  10.766 -0.3310  0.1072  0.2086
  130MOL0     C17467  10.346   2.355  10.920 -0.2785 -0.2238  0.7983
  130MOL0     C17468  10.215   2.307  10.915 -0.4398  0.2432 -0.3484
  130MOL0     C17469   9.757   2.268  10.966 -0.0722  0.0804 -0.0140
  130MOL0     C17470   9.671   2.248  10.857  0.4156 -0.1416  0.0347
  130MOL0     C17471   9.535   2.249  10.866  0.0482 -0.2143 -0.3372
  130MOL0     C17472   9.468   2.276  10.985  0.0861  0.1177 -0.2291
  130MOL0     O17473   9.329   2.293  10.998 -0.3959 -0.6826  0.1767
  130MOL0     C17474   9.254   2.237  10.887  0.0710  0.5453  0.6644
  130MOL0     C17475   9.103   2.249  10.893 -0.0841  0.0634  0.8022
  130MOL0     C17476   9.064   2.400  10.884  0.6240  0.2426  0.1786
  130MOL0     C17477   8.921   2.423  10.930 -0.1660  0.4183 -0.2971
  130MOL0     C17478   8.824   2.343  10.857 -0.2003 -0.0735  0.7060
  130MOL0     C17479   8.744   2.279  10.795  0.0784  0.0529  0.4003
  130MOL0     C17480   9.549   2.301  11.092 -0.1773  0.3161  0.2404
  130MOL0     C17481   9.690   2.296  11.092 -0.3430  0.4993 -0.5821
  130MOL0     C17482   9.766   2.340  11.220 -0.2650 -0.3860 -0.0821
  130MOL0     H17483  10.138   2.379  11.234 -2.2401 -1.3951 -0.7380
  130MOL0     H17484  10.344   2.462  11.240 -1.2770 -1.0354 -0.0271
  130MOL0     H17485  10.570   2.525  11.211 -0.0050 -1.6734  1.6118
  130MOL0     H17486  10.597   2.351  11.193 -0.5620  0.6547  0.9771
  130MOL0     H17487  10.807   2.477  11.216  0.2735 -0.0291 -0.4385
  130MOL0     H17488  10.789   2.553  11.062 -0.9229  1.2726  1.4708
  130MOL0     H17489  10.774   2.322  10.949 -0.6069 -2.1868  0.2297
  130MOL0     H17490  10.784   2.246  11.100  1.2471 -0.0523 -1.6440
  130MOL0     H17491  11.002   2.434  11.000  0.5882 -0.9055 -1.0965
  130MOL0     H17492  10.999   2.355  11.157  0.1377  0.8128 -0.5464
  130MOL0     H17493  10.998   2.139  11.052 -1.2111 -0.7080 -1.8213
  130MOL0     H17494  10.994   2.210  10.888 -0.4887 -0.1928  0.1871
  130MOL0     H17495  11.228   2.294  10.924 -2.7682 -0.0722 -2.6332
  130MOL0     H17496  11.209   2.247  11.105  0.5674  0.8020  0.0430
  130MOL0     H17497  11.205   2.039  10.878  0.3548  0.5343 -0.3808
  130MOL0     H17498  11.204   2.021  11.050  1.4610  0.5100  0.5017
  130MOL0     H17499  11.442   2.088  11.071  0.5042 -2.8831  0.1710
  130MOL0     H17500  11.424   1.962  10.957  1.0127  0.5180  0.0224
  130MOL0     H17501  11.453   2.370  10.955 -1.7105 -0.4298  0.2318
  130MOL0     H17502  11.533   2.540  10.745  1.2994  1.4398 -3.3473
  130MOL0     H17503  11.691   2.484  10.786 -0.0348 -0.6360  2.5548
  130MOL0     H17504  11.550   2.408  10.530 -0.1986 -2.1898  3.5483
  130MOL0     H17505  11.629   2.560  10.544  3.5921 -0.4675 -1.4490
  130MOL0     H17506  11.785   2.308  10.598  1.5308  0.6478  1.2979
  130MOL0     H17507  11.843   2.475  10.564 -2.1617  2.8919 -0.2158
  130MOL0     H17508  11.752   2.457  10.332 -4.3113 -0.7423 -0.1623
  130MOL0     H17509  11.667   2.317  10.370  1.1933 -2.7503 -2.6344
  130MOL0     H17510  12.081   2.115  10.290 -0.5549  0.1360 -1.5446
  130MOL0     H17511  12.314   2.189  10.271  1.6680  1.0588  4.0074
  130MOL0     H17512  12.654   2.511  10.104  1.2566  0.6199  0.0873
  130MOL0     H17513  12.912   2.506  10.104 -0.5892  1.0803  1.0375
  130MOL0     H17514  13.224   2.404  10.348  0.3534  0.7687  1.7340
  130MOL0     H17515  13.086   2.343  10.435 -3.3849 -1.4683 -0.7034
  130MOL0     H17516  13.229   2.145  10.407 -1.1376  2.5993  2.0923
  130MOL0     H17517  13.115   2.130  10.280  0.8223 -1.0215  0.2596
  130MOL0     H17518  13.296   2.193  10.126 -0.0145 -0.9808  0.1776
  130MOL0     H17519  13.398   2.271  10.251  1.1570  0.3756 -1.0504
  130MOL0     H17520  13.328   1.980  10.161 -1.5439 -0.3874  1.8716
  130MOL0     H17521  13.395   2.005  10.327 -1.1473 -1.7091  0.0306
  130MOL0     H17522  13.601   2.083  10.256  1.1906  1.0619 -1.2914
  130MOL0     H17523  13.537   2.113  10.089 -4.2411 -0.1715 -0.7421
  130MOL0     H17524  13.567   1.849  10.236 -3.2086 -1.0696 -1.3286
  130MOL0     H17525  13.534   1.863  10.063 -0.1260  0.5696 -0.0311
  130MOL0     H17526  13.780   1.959  10.210 -1.3381  0.6040  1.3116
  130MOL0     H17527  13.754   1.975  10.029 -0.7752  0.4724  0.6988
  130MOL0     H17528  13.718   1.722  10.041 -0.9236 -0.1731  0.9249
  130MOL0     H17529  13.883   1.782  10.044  1.1301 -2.2734  3.0575
  130MOL0     H17530  12.912   2.204  10.398  1.5836  2.7570  1.2538
  130MOL0     H17531  12.664   2.191  10.387  0.0657 -0.3125 -0.2955
  130MOL0     H17532  12.173   2.598  10.270  1.5827  0.2154  2.9978
  130MOL0     H17533  11.971   2.532  10.295  0.7724  0.5950  0.5413
  130MOL0     H17534  10.406   2.342  10.830  0.3193 -0.0205  1.1608
  130MOL0     H17535  10.176   2.265  10.823 -0.2445 -2.4549  0.7290
  130MOL0     H17536   9.705   2.222  10.757 -3.2727  1.4183 -1.8209
  130MOL0     H17537   9.488   2.230  10.770 -0.0637  0.6091 -0.4550
  130MOL0     H17538   9.274   2.130  10.886 -1.3439  0.2573  0.8181
  130MOL0     H17539   9.292   2.275  10.792  1.5651 -3.2327 -0.4207
  130MOL0     H17540   9.068   2.188  10.977  1.0038 -0.1148  1.1371
  130MOL0     H17541   9.064   2.206  10.800  1.4135  1.5218 -0.5619
  130MOL0     H17542   9.076   2.441  10.783  2.6821  0.3615  0.4400
  130MOL0     H17543   9.135   2.449  10.951  1.6561 -0.6886 -0.1969
  130MOL0     H17544   8.912   2.404  11.038 -2.3213 -1.5030 -0.7435
  130MOL0     H17545   8.888   2.523  10.900 -3.3466 -1.1840 -2.7151
  130MOL0     H17546   8.665   2.234  10.739  1.2806  0.8974 -2.0913
  130MOL0     H17547   9.486   2.313  11.180 -0.3534  0.4406  0.0984
  130MOL0     H17548   9.824   2.256  11.258 -0.9283 -0.9010 -0.1978
  130MOL0     H17549   9.837   2.421  11.199  0.4702  0.0509  3.5029
  130MOL0     H17550   9.695   2.384  11.291 -0.8698 -0.8148 -0.4109
  131MOL0     O17551   2.028   4.505   6.745  0.0668  0.2582 -0.2417
  131MOL0     C17552   2.078   4.405   6.796  0.8276 -1.0299  0.4864
  131MOL0     O17553   2.203   4.392   6.840  0.1150  0.1079  0.2632
  131MOL0     C17554   2.294   4.505   6.833  0.6222  0.8595 -0.3164
  131MOL0     C17555   2.427   4.463   6.809  0.3720  0.1535  0.4377
  131MOL0     C17556   2.525   4.559   6.804 -0.2378  0.4623 -0.2726
  131MOL0     C17557   2.494   4.696   6.812  0.5706 -0.1807  0.2246
  131MOL0     O17558   2.571   4.801   6.761 -0.5194 -0.1661  0.3239
  131MOL0     C17559   2.674   4.858   6.846  0.0822 -0.3183 -0.0612
  131MOL0     C17560   2.668   5.004   6.838  0.7272 -0.3967 -0.0345
  131MOL0     C17561   2.777   5.080   6.916 -1.0492 -0.4274  0.8154
  131MOL0     C17562   2.917   5.013   6.891 -0.9251 -0.0965 -0.8456
  131MOL0     C17563   3.031   5.102   6.946  0.2317  0.2833 -0.2930
  131MOL0     C17564   3.169   5.040   6.944 -0.1547  1.0145  0.1610
  131MOL0     C17565   3.268   5.101   7.047 -0.7169 -1.1112  0.1294
  131MOL0     C17566   3.395   5.009   7.037  0.1948  0.1237  0.3662
  131MOL0     N17567   3.510   5.084   7.082  0.1393 -0.1306 -0.3693
  131MOL0     C17568   3.599   5.143   6.994  0.3766 -0.7847  0.9672
  131MOL0     C17569   3.717   5.160   7.064  0.2315 -0.7138 -0.1371
  131MOL0     C17570   3.838   5.221   6.999  0.6557  0.2240  0.4120
  131MOL0     C17571   3.936   5.106   6.969 -0.1917 -0.2784 -0.5042
  131MOL0     C17572   4.061   5.158   6.903  0.3352  0.2635 -0.4364
  131MOL0     C17573   4.174   5.056   6.929  0.2973 -0.4635 -0.2451
  131MOL0     O17574   4.204   5.030   7.061  1.0823  0.2778 -0.8845
  131MOL0     C17575   4.283   4.925   7.103 -0.3832 -0.5600 -0.1266
  131MOL0     C17576   4.303   4.905   7.241 -0.1269  0.0947 -0.1641
  131MOL0     C17577   4.385   4.801   7.289 -0.1315 -0.0408  0.2482
  131MOL0     C17578   4.434   4.708   7.197 -1.0667  0.0335  0.2559
  131MOL0     C17579   4.519   4.595   7.247 -0.5243  0.2869  0.0574
  131MOL0     O17580   4.600   4.524   7.154  0.7398 -0.0923 -0.2553
  131MOL0     C17581   4.688   4.446   7.212 -0.0402 -0.7060 -0.4453
  131MOL0     C17582   4.781   4.476   7.309 -0.8430 -0.7847  0.1456
  131MOL0     C17583   4.868   4.388   7.362 -0.1068 -0.4074  0.1615
  131MOL0     C17584   4.869   4.258   7.322  0.0295 -0.3706  0.3110
  131MOL0     O17585   4.952   4.181   7.387  0.3189 -0.4102  0.0825
  131MOL0     C17586   5.006   4.068   7.312 -0.0791  0.3964 -0.4713
  131MOL0     C17587   5.137   4.026   7.362  0.5139 -0.2910  0.6671
  131MOL0     C17588   5.243   4.131   7.370 -0.8058 -0.4158  0.0011
  131MOL0     C17589   5.289   4.191   7.241 -0.3073 -0.1399  0.8485
  131MOL0     C17590   5.405   4.282   7.259 -0.4371  0.7967  0.2208
  131MOL0     C17591   5.350   4.429   7.279 -0.0484 -0.2323  0.5270
  131MOL0     C17592   5.469   4.514   7.319  0.0297  0.1308 -0.4507
  131MOL0     C17593   5.586   4.534   7.210 -0.0329  0.8365  0.3832
  131MOL0    Cl17594   5.683   4.677   7.239  0.1609 -0.0072  0.5091
  131MOL0     C17595   4.765   4.215   7.232 -0.0142 -0.0535  0.3565
  131MOL0     C17596   4.675   4.314   7.171  0.5361 -0.1811 -0.0973
  131MOL0     O17597   4.520   4.576   7.372  0.2930  0.5651 -0.0348
  131MOL0     C17598   4.418   4.733   7.059  0.9762 -0.0078  0.6925
  131MOL0     C17599   4.347   4.838   7.012 -0.1160  0.1786 -0.1333
  131MOL0     N17600   3.692   5.120   7.194 -0.1851 -0.8025  0.4690
  131MOL0     N17601   3.574   5.070   7.203  0.1016 -0.0299 -0.1748
  131MOL0     C17602   2.364   4.736   6.838  0.3239  0.3188  0.0727
  131MOL0     C17603   2.261   4.643   6.848 -0.4329 -1.5525  0.6832
  131MOL0     C17604   2.001   4.278   6.805 -0.0727  0.0171 -1.0203
  131MOL0     C17605   2.062   4.153   6.820 -0.2085 -0.3018 -0.8927
  131MOL0     C17606   1.993   4.028   6.845  0.4851 -1.2984 -0.8904
  131MOL0     C17607   1.850   4.037   6.854 -0.2670 -0.4743  0.5564
  131MOL0     O17608   1.767   3.930   6.858  0.3017 -0.4920 -0.2004
  131MOL0     C17609   1.809   3.807   6.806 -0.0020  0.4767 -0.4410
  131MOL0     C17610   1.691   3.712   6.813 -0.0918 -0.1302  0.2467
  131MOL0     C17611   1.731   3.578   6.748 -0.1873 -0.2509  0.5689
  131MOL0     C17612   1.649   3.468   6.820 -0.0730 -0.9282  0.1252
  131MOL0     C17613   1.738   3.397   6.917 -0.4574  0.2441  0.4983
  131MOL0     C17614   1.813   3.343   6.996  0.8754 -0.3359  0.2638
  131MOL0     C17615   1.791   4.160   6.846 -0.7223 -0.2478 -0.1651
  131MOL0     C17616   1.859   4.281   6.819 -0.4774  0.8611  0.0068
  131MOL0     C17617   1.767   4.405   6.820  0.2415 -0.4513 -0.2596
  131MOL0     H17618   2.458   4.359   6.807  1.6072  0.4820  1.4158
  131MOL0     H17619   2.631   4.541   6.803 -0.1925  0.6982  0.1055
  131MOL0     H17620   2.670   4.827   6.951 -1.0734 -0.9163 -0.2669
  131MOL0     H17621   2.761   4.817   6.794 -0.2858 -0.9769 -0.1715
  131MOL0     H17622   2.577   5.042   6.884 -0.2283 -3.3422  0.7096
  131MOL0     H17623   2.664   5.031   6.732 -0.6982 -0.6956 -0.0666
  131MOL0     H17624   2.763   5.081   7.024  0.4338 -2.3888  1.0747
  131MOL0     H17625   2.786   5.186   6.887 -0.4283 -0.7189 -0.1148
  131MOL0     H17626   2.915   4.917   6.942  1.5542  1.0185  1.6658
  131MOL0     H17627   2.944   4.997   6.786 -0.1383  0.2957 -0.7102
  131MOL0     H17628   3.038   5.189   6.881 -1.0545  1.6132  1.2768
  131MOL0     H17629   3.006   5.130   7.049 -0.2284  0.1286 -0.3607
  131MOL0     H17630   3.163   4.936   6.976  0.8116  1.1470  0.8036
  131MOL0     H17631   3.211   5.021   6.844  1.5684 -2.6468  1.4050
  131MOL0     H17632   3.231   5.111   7.150  1.0186 -3.9386  1.1376
  131MOL0     H17633   3.293   5.201   7.012  1.5778 -2.1643 -1.5161
  131MOL0     H17634   3.393   4.917   7.097  1.1916  0.6326  1.1927
  131MOL0     H17635   3.415   4.978   6.934  1.8742  0.0939  0.6835
  131MOL0     H17636   3.584   5.183   6.894 -2.4449 -0.2955  1.5028
  131MOL0     H17637   3.808   5.274   6.908 -0.6410 -0.3458  0.4782
  131MOL0     H17638   3.874   5.294   7.072  0.7654 -0.9716  1.5906
  131MOL0     H17639   3.962   5.048   7.058  2.0537  0.3417 -0.6909
  131MOL0     H17640   3.879   5.036   6.906 -1.5519 -1.3798  1.8385
  131MOL0     H17641   4.089   5.255   6.945 -1.5859 -0.7038  3.5065
  131MOL0     H17642   4.044   5.170   6.795  2.3486  1.9227 -0.6403
  131MOL0     H17643   4.269   5.103   6.902 -0.0341  2.1935  2.7232
  131MOL0     H17644   4.163   4.971   6.861  1.0848  2.6472 -4.7557
  131MOL0     H17645   4.254   4.977   7.307  3.0146  0.6453  1.7577
  131MOL0     H17646   4.405   4.791   7.395 -1.1604 -0.3472  0.4259
  131MOL0     H17647   4.782   4.578   7.346 -1.1378 -1.2088  1.3408
  131MOL0     H17648   4.947   4.419   7.430  0.1160  0.8350 -0.6333
  131MOL0     H17649   4.943   3.979   7.311  1.3933 -0.7287  0.9481
  131MOL0     H17650   5.011   4.090   7.204 -2.8925 -1.0508 -0.9859
  131MOL0     H17651   5.121   3.975   7.458 -2.9041 -4.2845 -1.6959
  131MOL0     H17652   5.172   3.949   7.293  1.7757  0.8803 -0.0394
  131MOL0     H17653   5.205   4.212   7.433  1.5739 -0.5748  1.7834
  131MOL0     H17654   5.330   4.087   7.420 -0.9669  0.8991  1.5177
  131MOL0     H17655   5.200   4.244   7.204  0.6753  0.4297 -0.8406
  131MOL0     H17656   5.330   4.115   7.173  1.2963  1.2648  0.1473
  131MOL0     H17657   5.459   4.280   7.164  1.7894 -0.9493  1.4052
  131MOL0     H17658   5.469   4.243   7.340  1.5453  0.4993 -1.4007
  131MOL0     H17659   5.307   4.469   7.187  1.2426  0.8987  0.3815
  131MOL0     H17660   5.265   4.435   7.347 -0.8105 -0.0221 -0.4239
  131MOL0     H17661   5.496   4.471   7.416 -1.2744  4.1029  1.9189
  131MOL0     H17662   5.443   4.617   7.341 -1.1941  0.5032 -3.1930
  131MOL0     H17663   5.656   4.450   7.205 -1.6857 -0.8342  3.0450
  131MOL0     H17664   5.548   4.534   7.107 -0.0369  2.3338  0.3686
  131MOL0     H17665   4.762   4.110   7.207 -3.0879  0.1194 -0.2859
  131MOL0     H17666   4.603   4.268   7.105  0.1111 -0.5292  0.5969
  131MOL0     H17667   4.470   4.664   6.993 -1.0438 -1.0399  0.0843
  131MOL0     H17668   4.339   4.851   6.904 -0.5418  0.0130 -0.1233
  131MOL0     H17669   2.319   4.834   6.844  0.0547  0.1829  0.2833
  131MOL0     H17670   2.158   4.675   6.857 -0.4964  0.1053 -3.6706
  131MOL0     H17671   2.170   4.148   6.819 -0.1145  0.2461  1.2105
  131MOL0     H17672   2.040   3.930   6.853 -0.9571 -1.8746  1.8937
  131MOL0     H17673   1.885   3.771   6.876 -2.9319  0.0451  2.7909
  131MOL0     H17674   1.847   3.816   6.704 -0.4536 -0.7047 -0.7346
  131MOL0     H17675   1.608   3.756   6.757  1.9829  0.2953 -2.7041
  131MOL0     H17676   1.660   3.702   6.918 -0.9470 -0.8129 -0.0629
  131MOL0     H17677   1.839   3.566   6.763 -0.3572 -0.9223  1.3044
  131MOL0     H17678   1.709   3.580   6.641 -1.7279  3.9077  0.7915
  131MOL0     H17679   1.565   3.510   6.876  2.0872  2.5364  1.0736
  131MOL0     H17680   1.604   3.406   6.742  0.6100  0.5782 -1.5511
  131MOL0     H17681   1.875   3.320   7.080 -0.1422  1.3962  1.5729
  131MOL0     H17682   1.683   4.163   6.850 -0.6742  0.3963  1.3459
  131MOL0     H17683   1.761   4.442   6.717  0.0921 -0.8239 -0.3846
  131MOL0     H17684   1.665   4.379   6.850 -2.1020  3.1226 -4.0461
  131MOL0     H17685   1.797   4.494   6.877  0.5610 -1.3633  1.0333
  132MOL0     O17686   2.578   0.042  10.379 -1.0179  0.2931  0.4429
  132MOL0     C17687   2.570   0.051  10.500  0.7316  0.0208  0.2171
  132MOL0     O17688   2.652  -0.010  10.591  0.0279  0.5726  0.7053
  132MOL0     C17689   2.757  -0.075  10.538  0.0573 -0.0980 -0.0356
  132MOL0     C17690   2.881  -0.011  10.528 -0.3360  0.4757 -0.4354
  132MOL0     C17691   2.987  -0.076  10.474  0.0052  0.0872  0.8869
  132MOL0     C17692   2.975  -0.208  10.454 -0.2824  0.4345  0.3704
  132MOL0     O17693   3.079  -0.277  10.391 -0.1051 -0.2669 -0.2736
  132MOL0     C17694   3.135  -0.391  10.460  0.2861 -0.7043  0.3739
  132MOL0     C17695   3.217  -0.487  10.372  0.2900 -0.2673 -0.8832
  132MOL0     C17696   3.352  -0.434  10.324 -0.0764  1.0160 -0.0540
  132MOL0     C17697   3.433  -0.537  10.245  0.0930  0.4255  0.2558
  132MOL0     C17698   3.578  -0.490  10.234  0.0188 -0.2006 -0.3175
  132MOL0     C17699   3.619  -0.385  10.129  0.1736 -0.2093  0.0873
  132MOL0     C17700   3.768  -0.376  10.107  0.7489  0.0300  0.0809
  132MOL0     C17701   3.793  -0.272   9.996 -0.0935  0.4482  0.3737
  132MOL0     N17702   3.932  -0.283   9.959  0.4234 -0.2047  0.3644
  132MOL0     C17703   4.038  -0.246  10.037  0.8433 -0.2519 -0.1638
  132MOL0     C17704   4.144  -0.291   9.980 -0.2736 -0.0542  0.1503
  132MOL0     C17705   4.275  -0.276  10.041 -0.1029 -0.2951 -0.0032
  132MOL0     C17706   4.367  -0.189   9.956 -0.8123  0.0872  0.1230
  132MOL0     C17707   4.502  -0.157  10.033 -0.3978  0.2806 -0.5536
  132MOL0     C17708   4.626  -0.118   9.956 -0.2250  0.5552  0.0324
  132MOL0     O17709   4.673  -0.224   9.870 -0.3527  0.2133  0.5846
  132MOL0     C17710   4.792  -0.218   9.818 -0.0833  0.2891  1.4184
  132MOL0     C17711   4.867  -0.105   9.801  1.0633  1.0111 -0.6130
  132MOL0     C17712   4.990  -0.112   9.737 -0.2037  0.1147 -0.0814
  132MOL0     C17713   5.041  -0.235   9.684 -0.4801  0.7105 -0.3367
  132MOL0     C17714   5.174  -0.235   9.605 -0.4324  0.1043  0.6717
  132MOL0     O17715   5.236  -0.111   9.594 -0.4496  0.7998 -0.2738
  132MOL0     C17716   5.338  -0.103   9.514  0.1067 -1.0733  0.1581
  132MOL0     C17717   5.321  -0.037   9.388  0.0149 -0.5360  0.2533
  132MOL0     C17718   5.424  -0.013   9.300 -0.0186  0.2350 -0.1293
  132MOL0     C17719   5.551  -0.044   9.334  0.1674 -0.0144  0.1878
  132MOL0     O17720   5.657  -0.018   9.255  0.3917 -0.7012 -0.1691
  132MOL0     C17721   5.634   0.011   9.118  0.7892  0.2947  0.0430
  132MOL0     C17722   5.750  -0.059   9.050  1.2687 -0.5152  0.2035
  132MOL0     C17723   5.880   0.017   9.059  0.8418 -0.0459 -0.3767
  132MOL0     C17724   6.006  -0.060   9.019  0.1090  0.5879 -0.1438
  132MOL0     C17725   6.122   0.035   9.026  0.5132  0.3128 -0.2896
  132MOL0     C17726   6.247  -0.058   8.988  0.6100 -0.4543  0.7977
  132MOL0     C17727   6.359   0.045   8.938  0.6551  0.4910  0.4277
  132MOL0     C17728   6.485  -0.029   8.902 -0.1420  0.5281  0.8691
  132MOL0    Cl17729   6.601  -0.115   9.018  0.5922 -0.0818 -0.3662
  132MOL0     C17730   5.585  -0.106   9.457  1.0151 -0.1828 -0.0923
  132MOL0     C17731   5.472  -0.138   9.541 -0.2985 -0.2072 -0.3290
  132MOL0     O17732   5.219  -0.340   9.557  0.1728 -0.1628  0.4371
  132MOL0     C17733   4.967  -0.349   9.708  0.3036 -0.0625  0.4460
  132MOL0     C17734   4.846  -0.341   9.770 -0.7721  0.2498  0.4082
  132MOL0     N17735   4.105  -0.382   9.878  0.3642 -0.1511 -0.3833
  132MOL0     N17736   3.972  -0.381   9.863  0.2090 -0.1803 -0.9152
  132MOL0     C17737   2.855  -0.279  10.466 -0.0058  0.5091 -0.7193
  132MOL0     C17738   2.736  -0.214  10.513  0.2216 -0.2860  1.0240
  132MOL0     C17739   2.446   0.125  10.554  0.1596 -0.0471 -0.5161
  132MOL0     C17740   2.446   0.180  10.684 -0.5416 -0.1577  0.0053
  132MOL0     C17741   2.337   0.250  10.737 -0.3647  0.3024 -0.0653
  132MOL0     C17742   2.223   0.275  10.659  0.2234 -1.4789  0.3112
  132MOL0     O17743   2.119   0.343  10.705 -0.3757  0.8084  0.1739
  132MOL0     C17744   2.124   0.405  10.830  0.0630  0.2665  0.0605
  132MOL0     C17745   2.020   0.523  10.842  0.0715  0.2026 -0.9140
  132MOL0     C17746   1.874   0.453  10.860  0.0966 -1.1393 -0.8293
  132MOL0     C17747   1.763   0.564  10.878  0.4489 -0.6745  0.1388
  132MOL0     C17748   1.736   0.586  11.025  0.3980  0.5123  0.2045
  132MOL0     C17749   1.736   0.566  11.146 -0.1370  1.2042 -0.0319
  132MOL0     C17750   2.221   0.225  10.535 -0.5719  1.0734 -0.9743
  132MOL0     C17751   2.329   0.146  10.484 -0.0812 -0.7250  0.3622
  132MOL0     C17752   2.300   0.090  10.346 -0.2992  0.3715  0.0387
  132MOL0     H17753   2.894   0.088  10.572 -0.6998  0.5371 -0.4579
  132MOL0     H17754   3.085  -0.029  10.467 -0.1897  0.2292 -2.7471
  132MOL0     H17755   3.200  -0.356  10.541  3.2645 -3.1305 -0.7392
  132MOL0     H17756   3.059  -0.449  10.513  0.0677  0.3062  1.1904
  132MOL0     H17757   3.164  -0.511  10.279  0.1154 -1.7492 -0.4232
  132MOL0     H17758   3.238  -0.569  10.441  1.1956  1.9467  1.6009
  132MOL0     H17759   3.409  -0.408  10.414 -1.3112  0.5006  0.9141
  132MOL0     H17760   3.339  -0.338  10.273 -1.7322  1.9700  1.9623
  132MOL0     H17761   3.432  -0.627  10.308 -1.2106  0.6686  0.6045
  132MOL0     H17762   3.388  -0.565  10.149 -0.1719 -4.0715  1.4312
  132MOL0     H17763   3.606  -0.443  10.329 -1.6861  6.5588 -2.5567
  132MOL0     H17764   3.639  -0.572  10.197  0.6399  1.1244 -2.4336
  132MOL0     H17765   3.584  -0.409  10.028 -0.1984  0.9797 -0.0884
  132MOL0     H17766   3.586  -0.286  10.163  4.5250  1.0291  1.4048
  132MOL0     H17767   3.790  -0.475  10.066  0.8440 -0.4331  1.2275
  132MOL0     H17768   3.828  -0.355  10.196  1.1322  1.7237 -0.5240
  132MOL0     H17769   3.722  -0.281   9.914 -0.1485 -1.2927  0.5835
  132MOL0     H17770   3.763  -0.179  10.045 -2.7769 -0.4981  0.6710
  132MOL0     H17771   4.030  -0.185  10.126  1.3109 -0.1140 -0.2121
  132MOL0     H17772   4.261  -0.233  10.141  1.4421  1.6666 -0.5519
  132MOL0     H17773   4.322  -0.374  10.046 -0.2290 -0.4102 -0.8928
  132MOL0     H17774   4.389  -0.252   9.869 -0.3326  1.4425 -0.7692
  132MOL0     H17775   4.320  -0.097   9.923  0.0996 -0.5524 -3.3311
  132MOL0     H17776   4.526  -0.245  10.094  1.0653 -0.1825 -1.7487
  132MOL0     H17777   4.483  -0.070  10.098  0.7102 -1.7001  2.6715
  132MOL0     H17778   4.713  -0.104  10.021 -0.7617 -0.6915  1.0578
  132MOL0     H17779   4.611  -0.029   9.895  1.3749  0.8461  0.0321
  132MOL0     H17780   4.819  -0.011   9.826 -0.7224  0.1069 -0.4750
  132MOL0     H17781   5.037  -0.014   9.731  1.7669 -0.8704 -1.8841
  132MOL0     H17782   5.220  -0.001   9.372  0.2539 -0.3935 -1.1288
  132MOL0     H17783   5.405   0.037   9.205 -0.5756 -2.9997 -1.8728
  132MOL0     H17784   5.545  -0.042   9.082 -0.1099  1.8386 -0.0978
  132MOL0     H17785   5.624   0.119   9.104  1.3646  0.8646  3.3842
  132MOL0     H17786   5.765  -0.157   9.097  0.6850 -0.9112 -0.4119
  132MOL0     H17787   5.708  -0.066   8.949  1.8919  1.8295 -0.2621
  132MOL0     H17788   5.871   0.103   8.992  1.6378  0.9593  0.7733
  132MOL0     H17789   5.891   0.059   9.159 -1.9790 -0.4944  0.2208
  132MOL0     H17790   5.997  -0.110   8.923  2.2072  1.0859 -0.6536
  132MOL0     H17791   6.024  -0.133   9.098 -0.1044  1.2131  0.5021
  132MOL0     H17792   6.128   0.062   9.132 -0.5426 -1.2884  0.2034
  132MOL0     H17793   6.108   0.118   8.957 -3.5048  0.3154  0.3116
  132MOL0     H17794   6.286  -0.123   9.067 -0.8547  0.1642  2.0868
  132MOL0     H17795   6.215  -0.127   8.910  4.4304 -1.2741 -0.2537
  132MOL0     H17796   6.372   0.128   9.008 -0.0875  0.9520  0.0241
  132MOL0     H17797   6.319   0.077   8.842  0.6044  3.5362  1.3500
  132MOL0     H17798   6.458  -0.106   8.829  1.6977  1.0709 -0.4684
  132MOL0     H17799   6.545   0.035   8.837 -0.0054  0.2978  0.7629
  132MOL0     H17800   5.687  -0.137   9.478  0.9150  0.1591  0.9259
  132MOL0     H17801   5.499  -0.192   9.631  1.7130  0.4408 -0.4990
  132MOL0     H17802   5.003  -0.442   9.665 -2.0948 -0.4280 -0.9545
  132MOL0     H17803   4.795  -0.431   9.800  0.6264 -0.5848  0.3788
  132MOL0     H17804   2.847  -0.381  10.431 -0.2748  0.5786 -0.8643
  132MOL0     H17805   2.635  -0.252  10.514  0.0132  0.0564 -1.0643
  132MOL0     H17806   2.543   0.163  10.729 -1.2338  1.5087  2.3084
  132MOL0     H17807   2.345   0.295  10.835  0.0423  1.1283 -0.4665
  132MOL0     H17808   2.222   0.452  10.844  1.2833 -2.0149 -0.4268
  132MOL0     H17809   2.126   0.339  10.917 -0.3136 -1.0748 -0.9097
  132MOL0     H17810   2.022   0.588  10.754 -0.7240 -0.3996 -1.3824
  132MOL0     H17811   2.046   0.575  10.935 -1.3619 -3.0366  1.4676
  132MOL0     H17812   1.875   0.389  10.949 -1.8200 -1.6237 -1.1085
  132MOL0     H17813   1.853   0.394  10.770 -1.2990  0.9588 -1.9768
  132MOL0     H17814   1.802   0.658  10.837  1.7831 -2.2025 -2.3350
  132MOL0     H17815   1.668   0.541  10.829 -0.7474  1.7739  1.1078
  132MOL0     H17816   1.742   0.539  11.250 -1.2411 -0.9146 -0.4634
  132MOL0     H17817   2.130   0.229  10.476 -0.6342 -0.0229 -0.9803
  132MOL0     H17818   2.193   0.083  10.323  0.1969 -1.8866 -1.9972
  132MOL0     H17819   2.344   0.146  10.263  0.0573 -0.6809 -0.4976
  132MOL0     H17820   2.336  -0.012  10.333 -1.4260  0.0679 -0.8853
  133MOL0     O17821  10.993   0.408   7.509  0.2428  0.4813 -0.7609
  133MOL0     C17822  10.954   0.487   7.420  0.1843  0.6084  0.2246
  133MOL0     O17823  11.030   0.535   7.326 -0.5768  0.2987 -0.0964
  133MOL0     C17824  11.167   0.515   7.340  0.1962  0.3976  1.3402
  133MOL0     C17825  11.249   0.620   7.338  0.3334 -0.8691 -0.8426
  133MOL0     C17826  11.384   0.604   7.359 -0.8177  0.4922 -0.7177
  133MOL0     C17827  11.442   0.474   7.381 -0.9065  0.2141 -0.4954
  133MOL0     O17828  11.576   0.458   7.417 -0.4483  0.5354 -0.8331
  133MOL0     C17829  11.670   0.565   7.398  0.0949  0.5756 -0.3366
  133MOL0     C17830  11.804   0.483   7.418 -0.1396 -0.3238 -0.2818
  133MOL0     C17831  11.928   0.571   7.390  0.3226 -0.3527 -0.2524
  133MOL0     C17832  12.043   0.471   7.415  0.3148  0.7311  0.4594
  133MOL0     C17833  12.173   0.543   7.377  0.1359 -0.0473  0.8693
  133MOL0     C17834  12.294   0.443   7.381  0.4651 -0.1839 -0.1466
  133MOL0     C17835  12.419   0.500   7.317 -0.6777 -0.0872 -0.2759
  133MOL0     C17836  12.529   0.400   7.330  0.2828  0.4563 -0.0551
  133MOL0     N17837  12.647   0.417   7.241 -0.3018  0.6665 -0.5327
  133MOL0     C17838  12.711   0.538   7.215 -0.1391 -0.0732 -0.0597
  133MOL0     C17839  12.806   0.510   7.120  0.2717 -0.4050  0.3121
  133MOL0     C17840  12.911   0.607   7.080 -0.2531  0.3945 -0.6538
  133MOL0     C17841  12.889   0.624   6.932 -0.6272  0.6877  0.2578
  133MOL0     C17842  12.958   0.758   6.885  0.0844  1.0398 -0.0922
  133MOL0     C17843  13.112   0.748   6.892  0.6573  0.1506 -0.1371
  133MOL0     O17844  13.150   0.633   6.812 -0.4406  1.0452  0.1813
  133MOL0     C17845  13.284   0.629   6.767 -0.1405  0.0506 -0.1754
  133MOL0     C17846  13.301   0.545   6.659  0.3687 -0.0285 -0.0533
  133MOL0     C17847  13.425   0.534   6.587 -0.2664 -0.1841 -0.9467
  133MOL0     C17848  13.539   0.602   6.633 -0.2566 -0.1323 -0.6311
  133MOL0     C17849  13.667   0.591   6.565  0.8035  0.3336  0.5469
  133MOL0     O17850  13.770   0.661   6.624  0.0532 -0.0756 -0.0171
  133MOL0     C17851  13.896   0.647   6.570  1.0883 -0.3617 -0.0667
  133MOL0     C17852  13.961   0.753   6.508  0.1861  1.0327 -0.4383
  133MOL0     C17853  14.085   0.740   6.445  0.3766  0.1254 -0.0128
  133MOL0     C17854  14.161   0.624   6.458  0.5477  0.5688 -0.0148
  133MOL0     O17855  14.275   0.610   6.385 -0.8229 -0.5842  0.1787
  133MOL0     C17856  14.378   0.517   6.421 -0.7771  0.4512 -0.1930
  133MOL0     C17857  14.476   0.574   6.513 -0.3979 -0.1958  0.2569
  133MOL0     C17858  14.592   0.487   6.563  0.5706  0.5943  0.4952
  133MOL0     C17859  14.670   0.552   6.685 -0.5159  0.4020 -0.8288
  133MOL0     C17860  14.803   0.493   6.727  0.0355  1.3314  0.0902
  133MOL0     C17861  14.790   0.350   6.779 -0.8445  0.2230  0.2325
  133MOL0     C17862  14.934   0.293   6.809  0.3537 -0.2002  1.2728
  133MOL0     C17863  15.017   0.371   6.919 -0.3507 -0.5084  0.1982
  133MOL0    Cl17864  15.185   0.335   6.917  0.5401  0.4824  0.2654
  133MOL0     C17865  14.099   0.517   6.526  0.0560 -0.0516 -0.9732
  133MOL0     C17866  13.968   0.522   6.576  0.0375  0.0147 -0.5849
  133MOL0     O17867  13.679   0.505   6.472  0.0300 -0.5123 -0.5619
  133MOL0     C17868  13.524   0.692   6.742 -0.4493  0.2109 -1.6314
  133MOL0     C17869  13.394   0.709   6.801 -0.3150  0.1446  0.0663
  133MOL0     N17870  12.792   0.380   7.082  0.4505 -0.2775  0.3714
  133MOL0     N17871  12.692   0.325   7.150 -0.2315 -0.3194 -0.3798
  133MOL0     C17872  11.358   0.364   7.374  0.1440 -0.4693 -0.5467
  133MOL0     C17873  11.224   0.384   7.350 -0.1359 -0.6154 -0.3856
  133MOL0     C17874  10.814   0.513   7.393  0.9783 -0.1503 -1.0498
  133MOL0     C17875  10.724   0.405   7.375 -0.0430  0.7270 -0.3790
  133MOL0     C17876  10.591   0.435   7.339 -0.2574 -0.0920  0.4540
  133MOL0     C17877  10.543   0.564   7.314 -0.1829 -0.0064 -0.4773
  133MOL0     O17878  10.419   0.577   7.263  0.6945  0.4280  0.4067
  133MOL0     C17879  10.364   0.703   7.214  0.6737  0.1789 -0.2803
  133MOL0     C17880  10.356   0.682   7.055  0.2118  0.4839 -0.3098
  133MOL0     C17881  10.494   0.661   6.998  0.0903 -0.4353  0.7693
  133MOL0     C17882  10.489   0.720   6.855 -0.1488 -0.4249  0.3722
  133MOL0     C17883  10.604   0.675   6.781 -0.6810 -0.3866  0.0066
  133MOL0     C17884  10.697   0.628   6.720  0.7198  0.6064 -0.1218
  133MOL0     C17885  10.638   0.671   7.334 -0.0657  0.0677 -0.8401
  133MOL0     C17886  10.763   0.645   7.387 -0.5493  0.7248  0.3376
  133MOL0     C17887  10.837   0.766   7.437 -0.3796 -0.9418 -0.4961
  133MOL0     H17888  11.211   0.722   7.341  0.8764 -0.6716  0.1579
  133MOL0     H17889  11.445   0.694   7.365 -2.2848  1.5881 -1.5646
  133MOL0     H17890  11.666   0.595   7.293  1.8821 -0.0753 -0.6218
  133MOL0     H17891  11.667   0.659   7.454 -0.7960  0.3027  0.1042
  133MOL0     H17892  11.800   0.402   7.345 -1.1301  0.6580 -1.3657
  133MOL0     H17893  11.811   0.441   7.519  2.1355  0.5267 -0.0121
  133MOL0     H17894  11.924   0.659   7.455 -1.6123  0.3260 -1.2128
  133MOL0     H17895  11.922   0.611   7.288 -1.4853  0.1768  0.0376
  133MOL0     H17896  12.036   0.426   7.515 -3.0722 -2.0756 -0.8186
  133MOL0     H17897  12.038   0.387   7.344 -0.2188 -0.8487  2.2640
  133MOL0     H17898  12.161   0.586   7.277  1.5239  1.2145  1.2180
  133MOL0     H17899  12.178   0.630   7.443 -1.2306  3.5497 -3.2650
  133MOL0     H17900  12.311   0.401   7.480  0.0649  3.1822  1.5142
  133MOL0     H17901  12.261   0.360   7.317 -0.1340  0.6625 -0.9786
  133MOL0     H17902  12.445   0.598   7.357  2.7873 -0.7620 -0.4922
  133MOL0     H17903  12.401   0.505   7.209 -0.9153  0.6566 -0.2050
  133MOL0     H17904  12.563   0.408   7.433  1.3974  2.2544 -0.5138
  133MOL0     H17905  12.490   0.298   7.321  1.0845 -0.3985  4.0913
  133MOL0     H17906  12.704   0.627   7.277 -2.7549 -0.9658  1.0537
  133MOL0     H17907  12.901   0.701   7.134  1.8420  0.2164  0.0976
  133MOL0     H17908  13.009   0.566   7.105  0.8041  2.3532 -1.3631
  133MOL0     H17909  12.936   0.545   6.872 -2.0039  0.3864 -0.4452
  133MOL0     H17910  12.781   0.621   6.921 -0.8370  0.1304  2.0670
  133MOL0     H17911  12.919   0.846   6.937  0.8166  0.5840  1.2635
  133MOL0     H17912  12.933   0.775   6.780  1.1627 -1.9972 -0.9334
  133MOL0     H17913  13.141   0.748   6.997 -0.3572  1.7959  0.1863
  133MOL0     H17914  13.152   0.843   6.855  0.5762  0.4620  0.5648
  133MOL0     H17915  13.217   0.487   6.622  1.8840 -0.9739 -2.2419
  133MOL0     H17916  13.429   0.459   6.509  0.5029 -1.2521  0.0775
  133MOL0     H17917  13.913   0.849   6.497  0.3307  1.1414 -0.1347
  133MOL0     H17918  14.134   0.827   6.402  0.6067  1.0935  2.0507
  133MOL0     H17919  14.326   0.428   6.458 -2.1799  1.5302  0.5544
  133MOL0     H17920  14.436   0.481   6.336  1.8855 -1.7132  2.3588
  133MOL0     H17921  14.521   0.651   6.450  0.6515 -0.9654  0.0172
  133MOL0     H17922  14.425   0.610   6.603 -2.4663 -1.7309 -0.2278
  133MOL0     H17923  14.553   0.390   6.596 -2.2780  2.1898  2.2917
  133MOL0     H17924  14.662   0.467   6.481 -0.4226 -0.8631 -0.0528
  133MOL0     H17925  14.614   0.561   6.779  2.2922 -0.7694  1.0716
  133MOL0     H17926  14.694   0.651   6.645  2.9246  0.1888  0.4082
  133MOL0     H17927  14.853   0.561   6.797 -2.2840  1.7781  1.3948
  133MOL0     H17928  14.858   0.480   6.633 -1.7393 -2.7469 -0.5936
  133MOL0     H17929  14.730   0.351   6.870 -0.3954  2.3928  0.5485
  133MOL0     H17930  14.747   0.279   6.708  2.3819 -1.4309 -0.2779
  133MOL0     H17931  14.982   0.309   6.713 -2.4669  5.7329  0.3757
  133MOL0     H17932  14.928   0.184   6.821 -0.0259 -0.5118 -1.3167
  133MOL0     H17933  15.013   0.480   6.909  0.6122 -0.4203  0.7401
  133MOL0     H17934  14.987   0.346   7.021  3.8458 -1.6903  1.3180
  133MOL0     H17935  14.144   0.421   6.550 -0.1388  0.3242  1.0657
  133MOL0     H17936  13.915   0.432   6.605 -3.4260  1.4327 -1.8481
  133MOL0     H17937  13.602   0.754   6.784 -0.8082 -2.0539  2.9991
  133MOL0     H17938  13.369   0.784   6.876 -1.9907 -1.1703  0.8993
  133MOL0     H17939  11.397   0.267   7.402  0.6564 -1.2047 -3.5711
  133MOL0     H17940  11.157   0.299   7.343 -0.3499 -0.7135  2.0215
  133MOL0     H17941  10.755   0.301   7.387  2.3126  1.4439  0.2947
  133MOL0     H17942  10.530   0.348   7.318  0.6201 -0.1870 -2.0885
  133MOL0     H17943  10.419   0.795   7.235  2.3893 -0.5778 -1.2944
  133MOL0     H17944  10.262   0.717   7.252  0.4423 -0.6695 -0.5582
  133MOL0     H17945  10.306   0.769   7.010  0.3481  2.1994  2.5547
  133MOL0     H17946  10.290   0.600   7.026  2.4399 -1.2060 -0.9043
  133MOL0     H17947  10.521   0.555   6.992 -0.7666 -0.5753 -1.2902
  133MOL0     H17948  10.582   0.701   7.050  3.8078 -4.4631 -1.6491
  133MOL0     H17949  10.397   0.688   6.806 -1.3497 -0.4636  2.5606
  133MOL0     H17950  10.500   0.829   6.847  2.8040 -0.7148 -1.1957
  133MOL0     H17951  10.768   0.593   6.648 -0.0192  1.3158 -1.2228
  133MOL0     H17952  10.614   0.777   7.336 -1.0206 -0.1171  2.0182
  133MOL0     H17953  10.944   0.750   7.452  0.6163  3.0200 -2.0188
  133MOL0     H17954  10.820   0.858   7.379 -0.2961  0.3634  1.4729
  133MOL0     H17955  10.803   0.789   7.538  3.8819 -1.1380  1.1742
  134MOL0     O17956   3.513  10.716  10.560  0.4166  0.4292 -0.3651
  134MOL0     C17957   3.536  10.594  10.594 -1.1647 -0.7342  0.7101
  134MOL0     O17958   3.633  10.527  10.538 -0.1063  0.4122  0.1666
  134MOL0     C17959   3.730  10.584  10.458 -0.5836 -0.2338 -0.8054
  134MOL0     C17960   3.795  10.510  10.358 -0.7525  1.3451 -0.4895
  134MOL0     C17961   3.921  10.548  10.305  0.4506  0.1688 -0.2890
  134MOL0     C17962   3.983  10.668  10.350  0.1745  1.1666  0.1095
  134MOL0     O17963   4.102  10.718  10.302  0.4248 -1.0842 -0.7118
  134MOL0     C17964   4.183  10.657  10.205  0.6513  0.0023 -0.4120
  134MOL0     C17965   4.326  10.702  10.240 -0.2616 -0.2386  0.1286
  134MOL0     C17966   4.426  10.664  10.125 -0.2609 -0.6501 -0.4599
  134MOL0     C17967   4.557  10.733  10.163 -0.5522  0.0489 -1.1352
  134MOL0     C17968   4.678  10.684  10.080  1.3013  0.0192  1.0644
  134MOL0     C17969   4.809  10.747  10.123  0.3726  0.3283 -0.2445
  134MOL0     C17970   4.920  10.707  10.030 -0.0722 -0.1066  0.7815
  134MOL0     C17971   5.052  10.784  10.061  0.5829  0.7713  0.2864
  134MOL0     N17972   5.169  10.706  10.012 -0.4569  0.3546  0.5894
  134MOL0     C17973   5.229  10.720   9.886  0.8570 -0.0075  0.4554
  134MOL0     C17974   5.341  10.660   9.905 -0.6427  0.0281 -0.1918
  134MOL0     C17975   5.459  10.643   9.822  0.4137 -0.7347  0.7051
  134MOL0     C17976   5.533  10.776   9.785  0.0317  0.3466 -0.2792
  134MOL0     C17977   5.568  10.867   9.908 -0.0604  0.8142 -0.1339
  134MOL0     C17978   5.719  10.887   9.923 -0.5599 -0.9829  0.1241
  134MOL0     O17979   5.749  10.971   9.810  0.4332 -0.1130  0.6294
  134MOL0     C17980   5.842  10.926   9.715 -0.1021  0.5916 -0.1797
  134MOL0     C17981   5.974  10.881   9.757  0.6042 -0.2196 -0.3085
  134MOL0     C17982   6.065  10.844   9.660 -0.1322  0.5166 -0.4559
  134MOL0     C17983   6.027  10.840   9.522 -0.4620  0.5139 -0.0818
  134MOL0     C17984   6.128  10.806   9.422 -0.2345 -0.7100 -0.1050
  134MOL0     O17985   6.259  10.818   9.469  0.2319  0.6200  0.6801
  134MOL0     C17986   6.364  10.797   9.385  0.0842  0.3006  0.2504
  134MOL0     C17987   6.407  10.910   9.320  0.6139  0.6304 -0.0162
  134MOL0     C17988   6.518  10.900   9.238 -0.0814  0.0846  0.2342
  134MOL0     C17989   6.590  10.781   9.220 -0.3168  0.1892 -0.2652
  134MOL0     O17990   6.700  10.756   9.130  0.4824  0.4343  0.1378
  134MOL0     C17991   6.747  10.867   9.045 -0.0665 -0.2094 -0.2369
  134MOL0     C17992   6.802  10.815   8.916 -0.7370  0.1345  0.6342
  134MOL0     C17993   6.878  10.918   8.836 -0.4591  0.3546 -0.2462
  134MOL0     C17994   6.961  10.852   8.731 -0.1762  0.6058 -0.4012
  134MOL0     C17995   7.034  10.963   8.652 -0.6656 -0.1853  0.2149
  134MOL0     C17996   7.088  10.909   8.517 -0.4495  0.1098  0.2954
  134MOL0     C17997   7.184  10.786   8.539  0.9475 -0.1699  0.4709
  134MOL0     C17998   7.276  10.758   8.420  1.1867  0.9797 -0.0820
  134MOL0    Cl17999   7.402  10.641   8.491  0.1349  0.4954  0.4878
  134MOL0     C18000   6.553  10.675   9.299  0.3100  0.3426  1.1242
  134MOL0     C18001   6.438  10.677   9.379 -0.5766 -0.2474  0.2316
  134MOL0     O18002   6.094  10.787   9.309 -0.4134  0.3779  0.1942
  134MOL0     C18003   5.897  10.871   9.487  1.4617 -0.2201 -0.4094
  134MOL0     C18004   5.802  10.926   9.578  0.8219  0.7355 -0.3406
  134MOL0     N18005   5.357  10.615  10.038 -0.3275 -0.0516  0.1945
  134MOL0     N18006   5.248  10.635  10.097 -0.1006  0.2911  0.1927
  134MOL0     C18007   3.920  10.747  10.446 -0.6219 -0.8085 -0.4303
  134MOL0     C18008   3.793  10.705  10.509  0.1861  0.0379  0.2779
  134MOL0     C18009   3.441  10.517  10.672  0.6581 -0.0815  0.1660
  134MOL0     C18010   3.350  10.603  10.748 -0.2324  0.7271 -0.3614
  134MOL0     C18011   3.251  10.545  10.834  0.6025 -0.4462 -0.0134
  134MOL0     C18012   3.239  10.410  10.844  0.0312 -0.0875 -0.7801
  134MOL0     O18013   3.141  10.358  10.924  0.6806  0.3580 -0.6427
  134MOL0     C18014   3.135  10.221  10.963 -0.3996 -0.4644  0.6971
  134MOL0     C18015   3.074  10.139  10.853  0.3082  1.1571  0.2922
  134MOL0     C18016   2.925  10.157  10.843 -0.1144 -0.1702  0.3717
  134MOL0     C18017   2.875  10.101  10.710  0.6119 -0.4216 -0.0933
  134MOL0     C18018   2.934   9.974  10.667 -0.6711  0.3922  0.3182
  134MOL0     C18019   3.006   9.901  10.613 -0.6739  0.2044 -0.6886
  134MOL0     C18020   3.326  10.333  10.766  0.0925 -0.3798 -0.1380
  134MOL0     C18021   3.431  10.382  10.690  0.2503  0.4304  0.1305
  134MOL0     C18022   3.526  10.291  10.624 -0.3543  0.1160  0.7925
  134MOL0     H18023   3.756  10.418  10.315  0.8024  0.3780  0.0784
  134MOL0     H18024   3.970  10.490  10.227 -0.1968 -0.0491 -0.5455
  134MOL0     H18025   4.184  10.548  10.200 -1.3416 -0.0228 -1.3650
  134MOL0     H18026   4.171  10.686  10.100  0.0381  0.2118 -0.2892
  134MOL0     H18027   4.365  10.648  10.326  0.2260  2.2154  1.5369
  134MOL0     H18028   4.317  10.809  10.262 -1.5088 -0.4617  0.8272
  134MOL0     H18029   4.385  10.702  10.031 -1.0558  0.9878  0.4982
  134MOL0     H18030   4.443  10.557  10.129  1.1414 -0.4383 -0.4440
  134MOL0     H18031   4.551  10.842  10.161  1.9187  0.3245  0.8544
  134MOL0     H18032   4.578  10.700  10.265 -2.4561  0.4339 -0.5890
  134MOL0     H18033   4.679  10.575  10.082 -2.6578 -0.1709 -0.0837
  134MOL0     H18034   4.657  10.709   9.976  1.0443  0.0148  1.1154
  134MOL0     H18035   4.798  10.855  10.133  2.8840  0.4813  2.1898
  134MOL0     H18036   4.827  10.704  10.222 -1.8154  0.7673  0.3853
  134MOL0     H18037   4.896  10.726   9.925 -3.0101  0.7499  1.5195
  134MOL0     H18038   4.929  10.599  10.038 -1.4223 -0.3974 -1.0707
  134MOL0     H18039   5.064  10.878  10.006  1.3857 -0.6952 -2.2514
  134MOL0     H18040   5.061  10.795  10.169  0.3748  1.3967  0.2470
  134MOL0     H18041   5.204  10.760   9.788 -0.9651 -2.2532 -0.0938
  134MOL0     H18042   5.526  10.589   9.890  1.0787  0.6800  1.2206
  134MOL0     H18043   5.434  10.577   9.739  1.6634  0.5483 -0.7717
  134MOL0     H18044   5.621  10.748   9.727  1.7860 -1.1218  2.8670
  134MOL0     H18045   5.477  10.832   9.710  0.5378 -1.4897 -2.1335
  134MOL0     H18046   5.530  10.824  10.001 -1.8332 -0.8102 -1.5285
  134MOL0     H18047   5.507  10.956   9.898 -0.8427  0.3045  0.0435
  134MOL0     H18048   5.771  10.790   9.932  0.6856 -0.4644 -1.1478
  134MOL0     H18049   5.742  10.938  10.017 -1.1796 -0.3122 -0.0819
  134MOL0     H18050   6.005  10.894   9.860 -2.9543  0.1664  0.8307
  134MOL0     H18051   6.170  10.831   9.684 -0.2055 -1.8991 -1.1412
  134MOL0     H18052   6.353  11.004   9.322 -2.7344 -1.1497  0.5164
  134MOL0     H18053   6.552  10.990   9.189 -0.9464  0.4589  0.2940
  134MOL0     H18054   6.666  10.937   9.024  1.2134  0.6765 -2.5965
  134MOL0     H18055   6.825  10.922   9.099 -0.7672 -0.4218  1.0271
  134MOL0     H18056   6.861  10.724   8.938 -2.2963 -0.3730  3.1765
  134MOL0     H18057   6.718  10.785   8.853  0.8511 -2.1463 -0.5429
  134MOL0     H18058   6.809  10.985   8.784 -2.6862 -3.1222 -2.1468
  134MOL0     H18059   6.943  10.974   8.903 -0.0464 -1.3201  0.8232
  134MOL0     H18060   6.899  10.795   8.662 -0.0230 -1.5349  1.1268
  134MOL0     H18061   7.016  10.770   8.779 -1.8148 -0.4915 -0.3247
  134MOL0     H18062   7.126  10.991   8.704  0.0959  0.8570 -1.5937
  134MOL0     H18063   6.977  11.052   8.626 -0.9717  0.3119  2.4055
  134MOL0     H18064   7.011  10.890   8.441  1.1759 -1.9084 -0.9509
  134MOL0     H18065   7.159  10.986   8.489 -1.2766  2.2636  3.6128
  134MOL0     H18066   7.141  10.688   8.560  0.3230  0.4700  2.3669
  134MOL0     H18067   7.251  10.811   8.621 -0.4847 -1.8213  2.2364
  134MOL0     H18068   7.224  10.703   8.341 -0.5280  2.5298 -0.1204
  134MOL0     H18069   7.334  10.841   8.379 -0.6777  1.7363 -1.3148
  134MOL0     H18070   6.606  10.581   9.289 -3.5952 -2.0982  1.2036
  134MOL0     H18071   6.418  10.593   9.445  0.9607  0.5307  1.7852
  134MOL0     H18072   5.868  10.854   9.384 -0.8012  1.5632 -0.1350
  134MOL0     H18073   5.697  10.939   9.552  0.5562 -0.0821  0.2715
  134MOL0     H18074   3.971  10.834  10.486 -2.9214  1.1748 -1.4797
  134MOL0     H18075   3.772  10.764  10.597  0.4678  1.7327 -0.7453
  134MOL0     H18076   3.359  10.711  10.739  2.7373  0.6086  0.4221
  134MOL0     H18077   3.191  10.619  10.886 -1.1082 -2.8371  1.6104
  134MOL0     H18078   3.069  10.209  11.050 -2.2723  2.1414 -0.2096
  134MOL0     H18079   3.234  10.181  10.986  0.8933  0.2958 -2.9883
  134MOL0     H18080   3.102  10.034  10.863 -0.2785  0.7314 -1.9747
  134MOL0     H18081   3.108  10.173  10.755  2.0362 -0.6269  0.2055
  134MOL0     H18082   2.902  10.264  10.845 -0.9821 -0.3508  0.4604
  134MOL0     H18083   2.870  10.102  10.919 -0.7411 -0.9921 -0.6493
  134MOL0     H18084   2.766  10.105  10.717  0.7012  3.1036  1.8562
  134MOL0     H18085   2.896  10.185  10.643 -1.2857  0.6763  0.5833
  134MOL0     H18086   3.085   9.845  10.567 -1.0235 -0.3846 -0.5804
  134MOL0     H18087   3.305  10.227  10.762 -3.4378  0.1761  0.7351
  134MOL0     H18088   3.620  10.303  10.680  0.9894  0.4009 -1.3869
  134MOL0     H18089   3.494  10.188  10.639 -1.9825  0.2945 -1.1502
  134MOL0     H18090   3.535  10.300  10.515 -0.6760 -1.1809  0.6526
  135MOL0     O18091   9.841  10.424   8.941  0.4540  1.0184  0.6355
  135MOL0     C18092   9.874  10.398   8.820 -0.6959  0.5004  1.1785
  135MOL0     O18093  10.006  10.362   8.785  0.2098  0.0643 -0.2822
  135MOL0     C18094  10.108  10.438   8.842 -0.1659  0.8448  0.0670
  135MOL0     C18095  10.221  10.375   8.897 -0.4351  0.1081  0.5079
  135MOL0     C18096  10.315  10.466   8.970 -0.4739 -0.0519 -0.5433
  135MOL0     C18097  10.288  10.605   8.978  0.7104  0.6451 -0.7222
  135MOL0     O18098  10.360  10.683   9.059 -0.4828  0.2878 -0.5393
  135MOL0     C18099  10.470  10.770   9.016  0.2332 -0.4420 -0.1922
  135MOL0     C18100  10.600  10.702   9.047  0.3984  0.6025  0.5382
  135MOL0     C18101  10.701  10.802   9.004 -1.2259 -0.1798  0.5153
  135MOL0     C18102  10.843  10.749   8.961  0.7317  0.8811  0.5863
  135MOL0     C18103  10.936  10.865   8.933  0.0830 -0.7334 -0.2369
  135MOL0     C18104  10.968  10.944   9.064  0.2022 -0.7559 -0.1245
  135MOL0     C18105  11.111  10.978   9.074 -0.4270  0.4545 -0.0794
  135MOL0     C18106  11.188  10.854   9.124  0.2611  0.0230  0.5013
  135MOL0     N18107  11.325  10.899   9.158 -0.6822 -0.2903  0.2013
  135MOL0     C18108  11.355  10.967   9.275 -0.7842  0.1441  0.0669
  135MOL0     C18109  11.487  10.973   9.277 -0.0078 -0.0211 -0.4538
  135MOL0     C18110  11.580  11.026   9.384  0.3579  0.0976  0.0830
  135MOL0     C18111  11.701  11.099   9.324 -0.9246  0.4877  0.5413
  135MOL0     C18112  11.825  11.006   9.291  0.6068  0.4322  0.7052
  135MOL0     C18113  11.969  11.067   9.260 -0.1141  1.2933  0.5896
  135MOL0     O18114  12.067  10.957   9.232 -0.2357 -0.6833  0.1757
  135MOL0     C18115  12.182  10.980   9.162  0.0103  0.4163 -0.9933
  135MOL0     C18116  12.239  11.110   9.145  0.1994 -0.3425  0.5068
  135MOL0     C18117  12.369  11.124   9.092  1.3964 -0.6868  0.0917
  135MOL0     C18118  12.437  11.013   9.040  0.2783 -0.7171  0.1972
  135MOL0     C18119  12.573  11.030   8.989  0.5005 -0.2977  0.6644
  135MOL0     O18120  12.614  10.928   8.910 -0.0309  0.2509  0.0267
  135MOL0     C18121  12.736  10.941   8.846 -0.5821  0.2721  0.6543
  135MOL0     C18122  12.852  10.956   8.918 -0.6756  0.1172  0.0861
  135MOL0     C18123  12.979  10.964   8.855  0.3272 -1.0197 -0.0418
  135MOL0     C18124  12.987  10.951   8.711 -0.4575  0.0584 -0.1841
  135MOL0     O18125  13.115  10.945   8.654  0.4751  0.2344  0.1796
  135MOL0     C18126  13.118  10.871   8.532  0.6871 -0.5428  0.1211
  135MOL0     C18127  13.255  10.846   8.482 -0.0466 -0.2875  0.6471
  135MOL0     C18128  13.271  10.770   8.350 -0.0452 -0.5919 -0.0094
  135MOL0     C18129  13.409  10.720   8.322  0.0727  0.4341 -0.2535
  135MOL0     C18130  13.410  10.646   8.189  0.4545 -0.6648  0.1015
  135MOL0     C18131  13.532  10.558   8.171  0.2581  0.6049 -0.3983
  135MOL0     C18132  13.558  10.530   8.018 -0.7730 -0.1836  1.0726
  135MOL0     C18133  13.677  10.613   7.961  0.6067  0.4105 -0.1572
  135MOL0    Cl18134  13.835  10.543   8.006 -0.5467 -0.2860  0.1404
  135MOL0     C18135  12.867  10.940   8.638 -0.5122  0.2979  0.2933
  135MOL0     C18136  12.743  10.936   8.700 -0.3596  0.2185  0.2913
  135MOL0     O18137  12.629  11.138   9.006 -0.3855 -0.5716 -0.3491
  135MOL0     C18138  12.380  10.883   9.055  0.3804  0.1837 -1.4080
  135MOL0     C18139  12.262  10.868   9.122 -1.0631  0.2239 -0.1325
  135MOL0     N18140  11.535  10.910   9.168 -0.2975  0.8318  0.7008
  135MOL0     N18141  11.436  10.865   9.093 -0.1270 -0.3941 -0.5983
  135MOL0     C18142  10.173  10.657   8.908 -0.3796 -0.1632  0.0723
  135MOL0     C18143  10.092  10.576   8.840  0.8878  0.0936  0.3715
  135MOL0     C18144   9.770  10.379   8.713  0.0247  0.3868  0.3454
  135MOL0     C18145   9.677  10.473   8.682 -0.1022  0.0352  0.1439
  135MOL0     C18146   9.574  10.453   8.592  0.1780  0.3331  0.2218
  135MOL0     C18147   9.558  10.330   8.530  0.1387  0.0934 -0.1264
  135MOL0     O18148   9.446  10.312   8.454 -0.6989  0.3067  0.1816
  135MOL0     C18149   9.414  10.174   8.414 -0.0738  0.5646  0.7315
  135MOL0     C18150   9.273  10.174   8.351 -0.1104 -0.2651  0.2755
  135MOL0     C18151   9.229  10.039   8.286 -0.5373  0.2484 -0.2634
  135MOL0     C18152   9.085  10.040   8.255 -0.2809  1.4641  0.5743
  135MOL0     C18153   9.004  10.002   8.379 -0.3156  0.4823 -1.1358
  135MOL0     C18154   8.931   9.986   8.471  1.2642  0.4268 -0.4192
  135MOL0     C18155   9.654  10.229   8.558 -0.2797 -0.0832 -0.0379
  135MOL0     C18156   9.759  10.251   8.646 -0.3506  0.0966 -0.0619
  135MOL0     C18157   9.838  10.134   8.693  0.5397 -0.0950  0.5103
  135MOL0     H18158  10.236  10.267   8.888 -1.5641 -0.0668  0.5797
  135MOL0     H18159  10.399  10.430   9.029 -1.1667 -1.7877 -0.5542
  135MOL0     H18160  10.463  10.790   8.908 -0.7105  1.7280  0.2371
  135MOL0     H18161  10.455  10.855   9.082  3.2931 -1.8833  2.6666
  135MOL0     H18162  10.610  10.607   8.993  0.8194  1.0681 -0.2295
  135MOL0     H18163  10.620  10.687   9.153  1.8899  2.3222  0.5407
  135MOL0     H18164  10.712  10.863   9.094  1.7264  0.2316 -0.0417
  135MOL0     H18165  10.659  10.877   8.936 -0.1284 -0.1223 -0.1221
  135MOL0     H18166  10.879  10.680   9.037 -0.7499 -1.2556 -0.5090
  135MOL0     H18167  10.825  10.687   8.872  0.4243 -2.0132  2.5364
  135MOL0     H18168  11.026  10.827   8.884  2.0348  2.5123  0.5598
  135MOL0     H18169  10.880  10.925   8.861 -0.1219 -1.0323 -0.3302
  135MOL0     H18170  10.899  11.028   9.079  0.3563  0.2576 -4.0562
  135MOL0     H18171  10.944  10.878   9.147  2.0627  1.0779  2.0067
  135MOL0     H18172  11.114  11.053   9.153 -1.6447 -1.9582  2.4234
  135MOL0     H18173  11.146  11.012   8.976 -0.2826 -0.2948 -0.2951
  135MOL0     H18174  11.135  10.817   9.212 -0.2317  0.1976  0.2865
  135MOL0     H18175  11.200  10.779   9.044  0.9201 -1.0435  1.5676
  135MOL0     H18176  11.291  11.016   9.348 -0.0175  1.5305 -0.1580
  135MOL0     H18177  11.528  11.105   9.438 -0.1682 -2.6684  4.0527
  135MOL0     H18178  11.610  10.952   9.458  0.8214 -0.0760 -0.2747
  135MOL0     H18179  11.686  11.136   9.222  3.4647 -0.8167 -0.8336
  135MOL0     H18180  11.740  11.189   9.372  0.9566  1.3953 -2.3970
  135MOL0     H18181  11.798  10.957   9.196 -2.8360 -0.1068  1.8018
  135MOL0     H18182  11.834  10.929   9.368 -0.7539  0.6396  1.1030
  135MOL0     H18183  12.006  11.130   9.342 -0.6108  0.6945  1.2894
  135MOL0     H18184  11.940  11.123   9.171  1.8478  1.0320 -0.2717
  135MOL0     H18185  12.190  11.196   9.190  0.5636  0.4319 -0.5431
  135MOL0     H18186  12.418  11.221   9.096 -2.2360  1.3876 -1.2962
  135MOL0     H18187  12.859  10.948   9.026  0.1715 -1.6932 -0.0572
  135MOL0     H18188  13.071  10.957   8.913  0.8889 -0.8780 -0.8886
  135MOL0     H18189  13.076  10.771   8.549  3.3666 -1.3801  2.6972
  135MOL0     H18190  13.072  10.936   8.457  2.2265 -2.4869 -2.6709
  135MOL0     H18191  13.297  10.946   8.465 -1.9671  0.4140 -0.2505
  135MOL0     H18192  13.305  10.782   8.555 -0.2650 -0.1977  0.8747
  135MOL0     H18193  13.199  10.687   8.348  0.0867 -0.7267  0.6366
  135MOL0     H18194  13.240  10.836   8.268  0.2947  1.3376  1.3536
  135MOL0     H18195  13.442  10.650   8.400  1.0505 -0.5362 -1.4916
  135MOL0     H18196  13.480  10.802   8.339 -1.7134  1.5394  2.4348
  135MOL0     H18197  13.412  10.719   8.107  1.9404 -1.0137 -0.2081
  135MOL0     H18198  13.323  10.582   8.174 -0.4260  0.5580 -0.2095
  135MOL0     H18199  13.619  10.616   8.201  3.2099 -3.1625 -0.9785
  135MOL0     H18200  13.529  10.461   8.220 -0.4145 -1.2975 -3.8630
  135MOL0     H18201  13.467  10.554   7.962 -0.9872  0.1282  1.5467
  135MOL0     H18202  13.584  10.425   7.999  2.2133  0.5629  0.6238
  135MOL0     H18203  13.661  10.608   7.853 -0.1562 -1.0581 -0.0112
  135MOL0     H18204  13.662  10.715   7.996  3.8656  1.2657 -1.0120
  135MOL0     H18205  12.861  10.928   8.531 -1.1347 -3.1032  0.5984
  135MOL0     H18206  12.657  10.954   8.636  0.9180  1.4424 -1.1548
  135MOL0     H18207  12.448  10.802   9.032  0.8753  0.2731 -0.3246
  135MOL0     H18208  12.220  10.769   9.137 -2.5177  0.7188 -0.7940
  135MOL0     H18209  10.164  10.764   8.920 -1.8850 -0.0520 -1.6075
  135MOL0     H18210  10.001  10.622   8.801  0.8576  0.5870  1.0064
  135MOL0     H18211   9.683  10.570   8.731 -1.1852  0.3126 -0.2462
  135MOL0     H18212   9.501  10.532   8.577 -1.9763 -1.6909 -0.5207
  135MOL0     H18213   9.402  10.119   8.507  0.2941  1.7003  1.4687
  135MOL0     H18214   9.480  10.125   8.342  1.6031  0.1820  2.4449
  135MOL0     H18215   9.278  10.246   8.269  0.2765 -0.0893  0.4520
  135MOL0     H18216   9.199  10.204   8.425 -1.8662 -0.6655 -1.2565
  135MOL0     H18217   9.253   9.957   8.355  0.8099  1.0079  0.2118
  135MOL0     H18218   9.283  10.019   8.194  0.1182 -0.1456  0.1967
  135MOL0     H18219   9.052  10.136   8.213  0.9276  0.2623 -3.7075
  135MOL0     H18220   9.068   9.959   8.183  2.6219 -2.0766  3.4880
  135MOL0     H18221   8.862   9.991   8.553  3.5195  2.8435  1.5366
  135MOL0     H18222   9.654  10.130   8.513  1.8231 -1.0663  1.9134
  135MOL0     H18223   9.783  10.043   8.667  1.7212 -1.0458  1.2502
  135MOL0     H18224   9.932  10.140   8.638  0.4538 -2.7737 -0.0212
  135MOL0     H18225   9.850  10.131   8.802 -2.1828  0.9543  0.9306
  136MOL0     O18226   6.375  10.596   5.561 -0.4612  0.2260  0.2382
  136MOL0     C18227   6.307  10.612   5.660  0.5403 -0.4007 -0.2971
  136MOL0     O18228   6.335  10.701   5.757  0.0228 -0.1164  0.1497
  136MOL0     C18229   6.452  10.775   5.747  0.4074  0.4251 -0.0501
  136MOL0     C18230   6.463  10.892   5.665  0.4409  0.7755  0.6494
  136MOL0     C18231   6.593  10.951   5.657  0.4425  0.2617  0.0971
  136MOL0     C18232   6.710  10.911   5.721  0.8265  0.3502 -0.2043
  136MOL0     O18233   6.828  10.967   5.692 -0.2032  0.0502 -0.0822
  136MOL0     C18234   6.939  10.927   5.769 -0.4908  0.2234  0.1679
  136MOL0     C18235   7.058  11.001   5.718  0.5026  0.4078  0.3886
  136MOL0     C18236   7.174  10.976   5.816 -0.5447  0.2521 -0.0543
  136MOL0     C18237   7.280  11.082   5.807 -0.9193 -0.0702  0.0867
  136MOL0     C18238   7.375  11.046   5.923 -0.1942 -0.9329 -0.4806
  136MOL0     C18239   7.510  11.118   5.921 -0.1281 -0.0883  0.0021
  136MOL0     C18240   7.488  11.277   5.934 -0.1493  0.5253  0.1666
  136MOL0     C18241   7.617  11.350   5.899 -0.0043 -0.3920 -0.0604
  136MOL0     N18242   7.619  11.487   5.947 -0.2311 -1.1928  0.2899
  136MOL0     C18243   7.518  11.582   5.916 -0.1319  0.2330  0.8099
  136MOL0     C18244   7.555  11.691   5.981  1.0874 -0.1511 -0.1426
  136MOL0     C18245   7.487  11.820   5.978 -0.3298 -0.7438  0.7128
  136MOL0     C18246   7.370  11.829   6.074 -0.2798  0.6433 -0.9887
  136MOL0     C18247   7.235  11.823   6.004 -0.1701  0.4781 -0.4680
  136MOL0     C18248   7.115  11.833   6.098  0.1756  1.2558  0.0478
  136MOL0     O18249   6.995  11.788   6.037  0.3875  0.0723 -0.4779
  136MOL0     C18250   6.884  11.794   6.113 -0.2200 -0.0476 -0.1105
  136MOL0     C18251   6.859  11.881   6.221  0.4764 -0.9221 -0.7264
  136MOL0     C18252   6.730  11.878   6.295 -0.0950  0.2740  0.7645
  136MOL0     C18253   6.635  11.783   6.257  0.7030 -0.3949 -0.2993
  136MOL0     C18254   6.500  11.765   6.320  0.4860  0.2167 -0.2620
  136MOL0     O18255   6.422  11.678   6.251  0.4811  1.0750 -0.1713
  136MOL0     C18256   6.293  11.649   6.301 -0.0431  0.1080 -0.1973
  136MOL0     C18257   6.206  11.755   6.349 -0.2779 -0.4440 -0.3999
  136MOL0     C18258   6.081  11.729   6.395  0.0218 -0.5132 -0.1886
  136MOL0     C18259   6.022  11.604   6.385  0.0181  0.0927 -0.4467
  136MOL0     O18260   5.895  11.577   6.429 -0.2396  0.6810 -0.3656
  136MOL0     C18261   5.807  11.687   6.438 -0.1394 -0.4495 -0.3012
  136MOL0     C18262   5.672  11.629   6.499 -0.5721 -0.5531 -0.1993
  136MOL0     C18263   5.598  11.569   6.388 -0.2327 -0.1405 -0.1321
  136MOL0     C18264   5.485  11.487   6.444  0.0629 -0.8671 -0.0634
  136MOL0     C18265   5.361  11.580   6.458 -0.2318  0.7515  0.0555
  136MOL0     C18266   5.241  11.484   6.480  0.1511 -0.4596 -0.4150
  136MOL0     C18267   5.119  11.564   6.510 -0.0440 -0.8514 -0.4043
  136MOL0     C18268   4.983  11.507   6.453  0.1543 -0.0002  0.6049
  136MOL0    Cl18269   4.978  11.512   6.272 -0.1404 -0.1197  0.0874
  136MOL0     C18270   6.103  11.497   6.337 -0.4267 -0.4588  0.3702
  136MOL0     C18271   6.239  11.521   6.297  0.0809  0.2900 -0.2689
  136MOL0     O18272   6.475  11.833   6.418  0.1165 -0.5468  0.1709
  136MOL0     C18273   6.660  11.702   6.146 -0.1784  0.1599  0.6669
  136MOL0     C18274   6.783  11.704   6.076 -0.7534  0.2968 -0.0749
  136MOL0     N18275   7.670  11.662   6.046  0.1215 -0.1935 -0.3231
  136MOL0     N18276   7.709  11.542   6.022  0.3406 -0.1855  1.3188
  136MOL0     C18277   6.692  10.797   5.799  0.7470 -0.5363  0.3800
  136MOL0     C18278   6.566  10.730   5.815 -0.2190 -0.2662 -1.1765
  136MOL0     C18279   6.189  10.520   5.667 -0.2194  0.2123  1.0215
  136MOL0     C18280   6.184  10.404   5.581  0.3880 -0.3377  0.2127
  136MOL0     C18281   6.075  10.324   5.587  0.4815 -0.5537  0.1223
  136MOL0     C18282   5.965  10.363   5.675  0.4777 -0.1066  0.0042
  136MOL0     O18283   5.846  10.296   5.678  0.5780  0.0046 -0.0419
  136MOL0     C18284   5.810  10.207   5.565  0.1726 -0.4895 -0.6482
  136MOL0     C18285   5.661  10.193   5.539 -0.6061 -0.0623  0.5047
  136MOL0     C18286   5.586  10.095   5.634 -0.1520  0.2371 -0.2384
  136MOL0     C18287   5.435  10.087   5.608 -1.2382  0.2241  0.0526
  136MOL0     C18288   5.361   9.990   5.686  0.2258 -0.4271 -0.0708
  136MOL0     C18289   5.304   9.907   5.748  1.3986 -0.2322  1.4372
  136MOL0     C18290   5.981  10.464   5.762 -0.5579  0.3363  0.4598
  136MOL0     C18291   6.092  10.553   5.756 -0.5978 -0.5956 -0.5670
  136MOL0     C18292   6.082  10.663   5.858 -0.2041  0.5599 -0.5889
  136MOL0     H18293   6.379  10.934   5.612  1.0200  0.4528 -0.5618
  136MOL0     H18294   6.598  11.034   5.588  3.0706 -1.7296 -2.3922
  136MOL0     H18295   6.923  10.939   5.877 -0.6911 -0.2660  0.1948
  136MOL0     H18296   6.956  10.820   5.752 -2.5849 -0.1672  0.3253
  136MOL0     H18297   7.035  11.108   5.721  0.5403  0.5568  6.2205
  136MOL0     H18298   7.086  10.971   5.616  1.3139  0.5864  0.5452
  136MOL0     H18299   7.217  10.878   5.795  1.5440  1.4109 -1.5356
  136MOL0     H18300   7.136  10.964   5.918 -1.2844  1.5773 -0.1497
  136MOL0     H18301   7.328  11.079   5.708  2.3822  1.8030  1.4903
  136MOL0     H18302   7.228  11.176   5.823 -1.0650  0.1644 -1.5395
  136MOL0     H18303   7.321  11.059   6.018 -2.1938  1.7300 -1.8554
  136MOL0     H18304   7.399  10.940   5.912 -1.7293 -1.0626 -3.5651
  136MOL0     H18305   7.577  11.081   5.999 -0.2726  1.5841  0.9677
  136MOL0     H18306   7.559  11.108   5.824 -0.6747 -1.9519 -0.1161
  136MOL0     H18307   7.458  11.291   6.038  0.5167  0.1444  0.4189
  136MOL0     H18308   7.411  11.307   5.863  0.1087 -0.0225 -0.3497
  136MOL0     H18309   7.707  11.306   5.942 -0.0707 -0.3417  0.1335
  136MOL0     H18310   7.624  11.364   5.791 -2.1891 -0.4981 -0.2549
  136MOL0     H18311   7.434  11.566   5.850  2.9788 -2.3405 -3.0092
  136MOL0     H18312   7.564  11.897   5.989  0.2730 -1.2783  0.2741
  136MOL0     H18313   7.439  11.820   5.879 -3.0521 -0.8425  1.9539
  136MOL0     H18314   7.379  11.749   6.148 -0.7946  1.4593 -0.0195
  136MOL0     H18315   7.373  11.921   6.133 -0.9992  0.0088  0.0594
  136MOL0     H18316   7.231  11.733   5.942 -1.5451  0.4169 -0.3322
  136MOL0     H18317   7.229  11.904   5.931  0.3104  2.5122  1.6495
  136MOL0     H18318   7.118  11.933   6.141  1.8807  2.6072 -2.9221
  136MOL0     H18319   7.127  11.759   6.178 -1.5395  0.2565 -0.5677
  136MOL0     H18320   6.928  11.963   6.239  0.7026 -1.5020  1.2514
  136MOL0     H18321   6.715  11.954   6.371 -0.3687  0.0021  0.9840
  136MOL0     H18322   6.249  11.855   6.354 -0.1465 -0.5467  0.8847
  136MOL0     H18323   6.031  11.816   6.436 -0.8922 -0.2034 -1.8578
  136MOL0     H18324   5.846  11.758   6.512 -0.5042 -3.0676  2.6624
  136MOL0     H18325   5.788  11.732   6.341  1.0623  1.0378  0.1210
  136MOL0     H18326   5.696  11.558   6.578  0.7872  1.3621  1.1948
  136MOL0     H18327   5.611  11.702   6.552 -0.4560 -1.5226  1.3483
  136MOL0     H18328   5.564  11.643   6.314  2.5910 -0.2759 -1.6870
  136MOL0     H18329   5.668  11.510   6.329  0.5198 -2.8655  3.1618
  136MOL0     H18330   5.504  11.437   6.539 -0.8782 -1.2042 -0.0433
  136MOL0     H18331   5.467  11.401   6.378 -1.3748 -0.2964 -0.4584
  136MOL0     H18332   5.356  11.637   6.365 -0.7538  0.7378  0.0734
  136MOL0     H18333   5.373  11.657   6.535 -2.6859  2.2250 -0.9147
  136MOL0     H18334   5.220  11.417   6.396  0.1276 -0.0125 -0.7702
  136MOL0     H18335   5.272  11.420   6.563 -0.3864 -0.8484 -0.5075
  136MOL0     H18336   5.129  11.669   6.481  0.3853 -0.6917  0.3022
  136MOL0     H18337   5.101  11.562   6.618  0.1267  0.2632 -0.3405
  136MOL0     H18338   4.964  11.403   6.481  4.7902 -1.6583 -1.4171
  136MOL0     H18339   4.906  11.572   6.495 -3.6354 -2.9561 -1.2230
  136MOL0     H18340   6.062  11.397   6.336 -0.2830 -0.5691  2.3670
  136MOL0     H18341   6.285  11.439   6.244  0.9450 -0.2582  1.2866
  136MOL0     H18342   6.588  11.635   6.101 -0.7226  1.6504 -0.7807
  136MOL0     H18343   6.796  11.643   5.987 -2.7151  0.9081 -0.8433
  136MOL0     H18344   6.787  10.762   5.840  2.0116 -0.0897 -1.9918
  136MOL0     H18345   6.571  10.638   5.872  2.4652  2.2841  3.2463
  136MOL0     H18346   6.264  10.375   5.513  1.0707  0.3377  0.7111
  136MOL0     H18347   6.068  10.231   5.531 -1.1433 -1.0081  1.0178
  136MOL0     H18348   5.850  10.106   5.581  1.0570 -0.2314 -1.1887
  136MOL0     H18349   5.853  10.241   5.471  0.1652  1.1472 -0.0858
  136MOL0     H18350   5.651  10.159   5.435 -3.4987  0.3883  0.5514
  136MOL0     H18351   5.619  10.294   5.547  1.6191  0.9044  0.7260
  136MOL0     H18352   5.607  10.127   5.736 -0.0145 -1.4310  0.2952
  136MOL0     H18353   5.629   9.996   5.653 -0.5512  0.6374  3.4213
  136MOL0     H18354   5.399  10.189   5.624 -1.7801  0.0636 -0.1459
  136MOL0     H18355   5.431  10.041   5.509  1.2222 -2.1833  0.9201
  136MOL0     H18356   5.243   9.834   5.797 -1.4858  2.3297  1.9251
  136MOL0     H18357   5.897  10.484   5.828 -3.0958 -0.3191 -2.3629
  136MOL0     H18358   6.166  10.653   5.927 -0.6696  1.2300  0.1076
  136MOL0     H18359   6.084  10.761   5.810  0.6332  0.3891 -0.9166
  136MOL0     H18360   5.987  10.646   5.910  0.0031 -2.9159 -1.1376
  137MOL0     O18361   9.305   2.812   0.473  0.3549 -0.3545 -0.2764
  137MOL0     C18362   9.225   2.808   0.565 -0.0505  1.1383  0.8230
  137MOL0     O18363   9.247   2.848   0.689  0.7929 -0.0545 -0.1017
  137MOL0     C18364   9.378   2.832   0.728  0.1873 -0.2368 -0.6188
  137MOL0     C18365   9.443   2.949   0.764  0.5041  0.9046  0.4097
  137MOL0     C18366   9.576   2.933   0.810  0.5431  0.1356  0.1228
  137MOL0     C18367   9.640   2.810   0.817  0.1455  0.1792 -0.2228
  137MOL0     O18368   9.775   2.819   0.857  0.7463 -0.1161  1.0957
  137MOL0     C18369   9.813   2.708   0.934  0.1208  0.4872  0.2412
  137MOL0     C18370   9.931   2.744   1.029 -0.2676  0.0840  0.1784
  137MOL0     C18371  10.045   2.796   0.946  0.1877 -1.1908  0.4905
  137MOL0     C18372  10.177   2.800   1.031 -0.2781 -0.1739  0.5967
  137MOL0     C18373  10.310   2.799   0.957 -0.6111  0.2161  0.5194
  137MOL0     C18374  10.351   2.948   0.927  0.4489  0.1861  0.3302
  137MOL0     C18375  10.492   2.953   0.855 -0.2623 -0.5040 -0.3200
  137MOL0     C18376  10.533   3.092   0.820  0.1080  0.1292  0.2686
  137MOL0     N18377  10.593   3.172   0.931 -0.2450 -0.2849  0.1815
  137MOL0     C18378  10.725   3.190   0.959 -0.2561 -0.1344  0.8426
  137MOL0     C18379  10.732   3.285   1.049  0.2058 -0.0931  0.1543
  137MOL0     C18380  10.864   3.326   1.111 -0.0271  0.7052  0.0972
  137MOL0     C18381  10.963   3.388   1.016  0.1223  0.6090 -0.2243
  137MOL0     C18382  10.952   3.537   0.999 -0.5376  0.3077  0.4632
  137MOL0     C18383  10.809   3.588   0.984 -0.7128  0.2274  0.0150
  137MOL0     O18384  10.798   3.727   0.989 -0.3422 -0.4039 -0.6025
  137MOL0     C18385  10.673   3.792   0.974  0.0826  0.4979 -0.3364
  137MOL0     C18386  10.664   3.935   0.962  0.4328 -0.5226 -0.8191
  137MOL0     C18387  10.541   3.995   0.924 -0.4049 -1.0377 -0.0762
  137MOL0     C18388  10.427   3.920   0.896 -0.4853  1.1669 -0.2752
  137MOL0     C18389  10.289   3.972   0.865 -1.1083  0.6722  0.0587
  137MOL0     O18390  10.173   3.899   0.861 -0.6060 -0.2752  0.1735
  137MOL0     C18391  10.062   3.974   0.839 -0.1109  0.3627 -0.1466
  137MOL0     C18392   9.989   3.968   0.721 -0.0874 -0.4573  0.6383
  137MOL0     C18393   9.871   4.040   0.712  0.4768  0.7597  0.2894
  137MOL0     C18394   9.819   4.109   0.817  1.0575 -1.4483 -0.0922
  137MOL0     O18395   9.697   4.178   0.794 -0.2355 -0.8535 -0.3666
  137MOL0     C18396   9.665   4.299   0.874  0.0056  0.4098  0.3254
  137MOL0     C18397   9.517   4.322   0.862 -0.4122 -0.7194 -0.6367
  137MOL0     C18398   9.436   4.203   0.913  0.2974 -0.1396  0.5238
  137MOL0     C18399   9.281   4.214   0.880  0.2827 -0.3223 -0.7030
  137MOL0     C18400   9.211   4.339   0.942 -0.4730  0.1271 -0.5049
  137MOL0     C18401   9.081   4.360   0.859 -0.0706 -0.4047 -0.1932
  137MOL0     C18402   8.983   4.251   0.867 -0.0889  0.0916 -0.0936
  137MOL0     C18403   8.838   4.283   0.834  0.0005 -0.5158 -0.1183
  137MOL0    Cl18404   8.833   4.261   0.651 -0.1863 -0.3238  0.2908
  137MOL0     C18405   9.889   4.118   0.937 -0.8231 -0.1122  0.0897
  137MOL0     C18406  10.009   4.045   0.953  0.4617  0.9571 -1.0800
  137MOL0     O18407  10.294   4.093   0.865 -0.4658 -0.2366  0.0844
  137MOL0     C18408  10.440   3.780   0.923  0.3268  0.0488  0.6686
  137MOL0     C18409  10.554   3.717   0.967 -0.4400 -0.4837  0.3302
  137MOL0     N18410  10.606   3.328   1.077 -0.2092  0.3046 -0.3342
  137MOL0     N18411  10.521   3.267   0.996 -0.3803 -0.0822  0.5052
  137MOL0     C18412   9.564   2.693   0.796 -0.6543  0.3162 -0.9246
  137MOL0     C18413   9.437   2.709   0.753 -0.1213 -0.0806  0.2524
  137MOL0     C18414   9.097   2.768   0.525  1.1551  1.2547 -0.3998
  137MOL0     C18415   9.082   2.632   0.483  0.1668  0.0432  0.2070
  137MOL0     C18416   8.957   2.587   0.438 -0.3512  0.0814  0.1162
  137MOL0     C18417   8.850   2.671   0.440  0.0075  0.0120 -0.2570
  137MOL0     O18418   8.735   2.616   0.395 -0.3863 -0.0888 -0.0072
  137MOL0     C18419   8.605   2.679   0.409  0.0178 -0.2973  0.5071
  137MOL0     C18420   8.574   2.787   0.307  0.8508  0.0731 -0.7805
  137MOL0     C18421   8.521   2.727   0.176  0.4464 -0.0131 -0.2127
  137MOL0     C18422   8.414   2.819   0.111 -0.4886 -0.2345 -0.2973
  137MOL0     C18423   8.289   2.827   0.186  0.1310 -0.0024  0.4197
  137MOL0     C18424   8.178   2.839   0.235  0.5355  0.6084  0.0227
  137MOL0     C18425   8.859   2.802   0.488 -0.4158 -0.0829  1.2239
  137MOL0     C18426   8.982   2.844   0.543 -0.1156  0.1551 -0.2347
  137MOL0     C18427   8.989   2.976   0.614 -0.2733 -0.5272 -0.1597
  137MOL0     H18428   9.399   3.046   0.743  1.9944  1.6287  0.4790
  137MOL0     H18429   9.642   3.019   0.815 -0.9940  1.4993 -1.5808
  137MOL0     H18430   9.726   2.679   0.994  1.5185 -1.6605  1.3457
  137MOL0     H18431   9.847   2.622   0.875 -1.3265 -1.0038  1.4824
  137MOL0     H18432   9.966   2.655   1.083  2.7808  0.7144 -0.5634
  137MOL0     H18433   9.902   2.820   1.103 -1.7356 -1.5476  1.3594
  137MOL0     H18434  10.033   2.894   0.899  1.3250 -1.3947 -0.2832
  137MOL0     H18435  10.054   2.731   0.858  1.1918  0.7053 -0.8742
  137MOL0     H18436  10.172   2.876   1.109 -0.2742  1.6987 -1.1480
  137MOL0     H18437  10.180   2.706   1.086 -2.4654 -1.8799 -1.9263
  137MOL0     H18438  10.374   2.746   1.027  1.5092  2.1534  0.1536
  137MOL0     H18439  10.311   2.756   0.856 -1.1329 -4.3186  2.2338
  137MOL0     H18440  10.284   2.998   0.856  1.8189  0.9320 -0.4933
  137MOL0     H18441  10.341   3.009   1.018  1.0008  0.0108  0.5140
  137MOL0     H18442  10.484   2.886   0.769  1.1032 -0.0176 -0.8519
  137MOL0     H18443  10.570   2.906   0.917  0.4241 -1.3320 -1.7620
  137MOL0     H18444  10.615   3.083   0.748  1.7297  0.6819  1.9701
  137MOL0     H18445  10.444   3.139   0.777  0.1747  0.3231  0.3448
  137MOL0     H18446  10.816   3.147   0.918 -0.3064  1.1406 -0.6796
  137MOL0     H18447  10.842   3.388   1.198  1.1754  3.9813 -1.7264
  137MOL0     H18448  10.906   3.232   1.148 -3.6105 -1.6426 -1.2374
  137MOL0     H18449  11.066   3.369   1.048 -0.7507  0.2247  2.6574
  137MOL0     H18450  10.952   3.332   0.923 -4.2294  0.5336  0.1400
  137MOL0     H18451  11.019   3.568   0.918  0.2227 -0.5149  0.7631
  137MOL0     H18452  11.004   3.583   1.083 -0.1309 -1.4577  1.2408
  137MOL0     H18453  10.755   3.555   1.073  0.6988  0.5776  1.0239
  137MOL0     H18454  10.761   3.544   0.895 -0.7024  0.2201  0.0130
  137MOL0     H18455  10.754   3.996   0.967 -1.7805  2.8764  1.6718
  137MOL0     H18456  10.535   4.103   0.911  1.9061 -0.7663  0.6069
  137MOL0     H18457  10.033   3.912   0.639  0.3480 -2.0053  1.8691
  137MOL0     H18458   9.815   4.036   0.618 -2.0894 -2.7473  1.7491
  137MOL0     H18459   9.693   4.282   0.979  0.7388  0.9344  0.2266
  137MOL0     H18460   9.721   4.385   0.836 -1.4148  1.8647  1.3946
  137MOL0     H18461   9.487   4.415   0.912 -1.2167 -0.8995 -0.7703
  137MOL0     H18462   9.498   4.341   0.756  0.6960  1.2004 -0.5486
  137MOL0     H18463   9.482   4.117   0.864  3.2718  1.9554 -0.7518
  137MOL0     H18464   9.451   4.189   1.020  0.9987 -2.7089  0.1467
  137MOL0     H18465   9.231   4.123   0.914  3.7024 -1.7857  0.9570
  137MOL0     H18466   9.281   4.220   0.771  1.4101 -1.6697 -0.8069
  137MOL0     H18467   9.274   4.428   0.930  0.3479 -0.4979 -0.8939
  137MOL0     H18468   9.190   4.336   1.050 -1.7483  0.7340 -0.7237
  137MOL0     H18469   9.032   4.449   0.902  1.3420  0.0163  0.6233
  137MOL0     H18470   9.110   4.369   0.754  1.8071  0.0511  0.3217
  137MOL0     H18471   8.988   4.197   0.962  2.3856  1.1629  0.4510
  137MOL0     H18472   9.016   4.187   0.784 -0.4056  0.8477 -0.8198
  137MOL0     H18473   8.777   4.212   0.890 -2.1713  1.3379  0.0027
  137MOL0     H18474   8.822   4.387   0.861  2.0002 -0.2377  0.1977
  137MOL0     H18475   9.842   4.154   1.028 -2.3373 -0.3841 -0.5494
  137MOL0     H18476  10.046   4.021   1.052 -1.6456  0.8133 -0.2762
  137MOL0     H18477  10.349   3.725   0.900  0.9985 -0.8442  0.0848
  137MOL0     H18478  10.554   3.609   0.977 -0.6285 -0.4835  0.3223
  137MOL0     H18479   9.604   2.594   0.818 -0.4355  1.0905  2.7366
  137MOL0     H18480   9.387   2.614   0.738  0.9014 -0.2385 -2.9024
  137MOL0     H18481   9.171   2.572   0.467  0.9446  1.6715 -2.4558
  137MOL0     H18482   8.944   2.489   0.393  1.7155  0.4325 -1.4102
  137MOL0     H18483   8.600   2.725   0.508 -0.6731 -0.1409  0.4071
  137MOL0     H18484   8.513   2.620   0.417 -2.1960  2.6753 -0.9347
  137MOL0     H18485   8.667   2.838   0.284  1.3480 -1.2574 -1.8450
  137MOL0     H18486   8.502   2.859   0.348 -0.1152 -1.2482 -0.0651
  137MOL0     H18487   8.483   2.626   0.194 -0.4418  0.0267 -1.7689
  137MOL0     H18488   8.601   2.726   0.101  0.7087  7.4289 -0.7691
  137MOL0     H18489   8.458   2.919   0.106  0.8935 -0.8567 -1.1443
  137MOL0     H18490   8.391   2.776   0.013  0.9265 -2.2167  0.1683
  137MOL0     H18491   8.076   2.844   0.268  0.7084  2.1242  0.3754
  137MOL0     H18492   8.784   2.881   0.482 -0.5984 -0.0153  3.4700
  137MOL0     H18493   8.886   3.008   0.596 -0.7835 -2.1063 -0.2084
  137MOL0     H18494   8.990   2.968   0.723 -1.7466 -2.6191 -0.2497
  137MOL0     H18495   9.060   3.046   0.570 -1.2242  0.0935 -0.7693
  138MOL0     O18496   9.029   1.885   6.093 -0.2638  0.0053  0.5200
  138MOL0     C18497   8.974   1.849   5.986 -0.8774  0.6419 -0.7070
  138MOL0     O18498   9.037   1.828   5.865 -0.4340  0.0610 -0.7931
  138MOL0     C18499   9.171   1.834   5.852 -0.7908  0.5717 -0.1711
  138MOL0     C18500   9.217   1.866   5.729  0.1805 -0.3963  0.4947
  138MOL0     C18501   9.353   1.881   5.698 -0.6565  0.7652  0.4022
  138MOL0     C18502   9.448   1.857   5.793 -0.3329  0.4083  0.4801
  138MOL0     O18503   9.585   1.869   5.771  0.3941 -0.1064 -0.5138
  138MOL0     C18504   9.627   1.984   5.695  0.5422 -0.3316 -0.6561
  138MOL0     C18505   9.759   2.028   5.746  0.8019  0.6498 -0.0174
  138MOL0     C18506   9.814   2.137   5.661  1.1997 -0.3653 -0.3662
  138MOL0     C18507   9.940   2.189   5.730  0.2376 -0.1335  0.1119
  138MOL0     C18508  10.010   2.305   5.653  0.8181  0.2369 -0.2663
  138MOL0     C18509  10.122   2.351   5.739  0.1270 -0.4297 -0.0752
  138MOL0     C18510  10.203   2.456   5.672  0.0286 -0.1829 -0.6557
  138MOL0     C18511  10.319   2.501   5.773  0.6813 -0.3309  0.4544
  138MOL0     N18512  10.445   2.430   5.763 -0.2498  0.5972 -0.5622
  138MOL0     C18513  10.490   2.330   5.853 -0.3413 -0.5304 -0.1613
  138MOL0     C18514  10.603   2.289   5.798 -0.1834  0.2833  0.3444
  138MOL0     C18515  10.669   2.159   5.854 -0.2834 -0.0786 -0.2540
  138MOL0     C18516  10.590   2.037   5.795  0.4668 -0.1021  0.5372
  138MOL0     C18517  10.581   2.040   5.641  0.3395 -0.7104 -0.7044
  138MOL0     C18518  10.445   2.091   5.581  0.0813 -0.0719  0.7171
  138MOL0     O18519  10.337   2.011   5.616 -0.2732  0.0317  0.2562
  138MOL0     C18520  10.222   1.999   5.538 -0.3413  0.1256  0.4849
  138MOL0     C18521  10.201   2.060   5.408  0.0183 -0.0403  0.4652
  138MOL0     C18522  10.083   2.034   5.331  0.4447  0.8571 -1.0461
  138MOL0     C18523   9.998   1.936   5.378  0.7766 -0.7765 -0.5269
  138MOL0     C18524   9.864   1.915   5.320 -0.1824 -0.1663 -0.3102
  138MOL0     O18525   9.786   1.817   5.377 -0.0260  0.4551  0.2836
  138MOL0     C18526   9.650   1.792   5.341 -0.1046  0.1044 -0.4213
  138MOL0     C18527   9.607   1.669   5.374  0.6302  0.0713 -0.3039
  138MOL0     C18528   9.466   1.639   5.361  0.2438 -0.6132  0.7091
  138MOL0     C18529   9.376   1.736   5.309  0.9765 -0.1319 -0.0356
  138MOL0     O18530   9.243   1.702   5.274  0.0024  0.3837 -0.2187
  138MOL0     C18531   9.146   1.801   5.296 -0.0942 -0.6793  0.4369
  138MOL0     C18532   9.010   1.738   5.326 -0.6748  0.9761 -0.2495
  138MOL0     C18533   9.009   1.635   5.433 -0.8692 -0.3127 -0.6267
  138MOL0     C18534   8.870   1.601   5.485  1.1260 -0.6422  0.6249
  138MOL0     C18535   8.865   1.539   5.620 -0.0856 -0.0512  0.0108
  138MOL0     C18536   8.723   1.556   5.674  0.1300 -0.7570  0.0086
  138MOL0     C18537   8.706   1.464   5.801  0.1205 -0.2166  0.1596
  138MOL0     C18538   8.555   1.437   5.832  0.5929 -0.1238  0.0545
  138MOL0    Cl18539   8.492   1.292   5.749 -0.5390  0.3879  0.0797
  138MOL0     C18540   9.426   1.861   5.274  0.8007  0.2343 -0.4954
  138MOL0     C18541   9.559   1.888   5.287 -0.7713  0.4785 -0.2770
  138MOL0     O18542   9.829   1.980   5.221  0.3356 -0.7305  0.7224
  138MOL0     C18543  10.013   1.881   5.509  0.5685 -0.7910  0.2264
  138MOL0     C18544  10.133   1.900   5.583 -0.4617 -0.3947 -0.2392
  138MOL0     N18545  10.635   2.363   5.686 -0.5174  0.6086  0.0576
  138MOL0     N18546  10.540   2.451   5.667  0.0693  0.5661  0.2295
  138MOL0     C18547   9.399   1.805   5.920 -0.2380 -0.3110  0.4756
  138MOL0     C18548   9.263   1.797   5.944  0.7270  0.1130 -0.3245
  138MOL0     C18549   8.823   1.855   5.976 -0.5611 -0.4630  0.3795
  138MOL0     C18550   8.764   1.910   5.861 -0.3128  0.3026  0.2338
  138MOL0     C18551   8.631   1.933   5.849 -0.3838 -0.5628  0.8734
  138MOL0     C18552   8.552   1.893   5.954  0.4432  0.0730 -0.0199
  138MOL0     O18553   8.413   1.907   5.964  0.1824 -0.8939  0.2003
  138MOL0     C18554   8.340   1.988   5.871 -0.0801  0.3763  0.7938
  138MOL0     C18555   8.252   2.092   5.957  0.3654  0.3148  0.2461
  138MOL0     C18556   8.341   2.205   6.013  0.4053 -0.1285  0.0899
  138MOL0     C18557   8.255   2.305   6.084 -0.8839 -0.5961  0.1631
  138MOL0     C18558   8.326   2.429   6.116  1.1956 -0.4320 -0.1850
  138MOL0     C18559   8.385   2.533   6.144 -0.4983  0.2200 -0.0216
  138MOL0     C18560   8.602   1.839   6.064 -0.3178  0.1091 -0.1337
  138MOL0     C18561   8.739   1.822   6.084  0.0262  0.1587 -0.3935
  138MOL0     C18562   8.777   1.746   6.213 -0.4985  0.2295 -0.3520
  138MOL0     H18563   9.146   1.906   5.658  0.7276  3.1914  1.7516
  138MOL0     H18564   9.378   1.906   5.595 -0.4670  0.8845  0.4770
  138MOL0     H18565   9.631   1.946   5.592 -2.4308 -0.6159 -0.7390
  138MOL0     H18566   9.557   2.066   5.707 -0.0286 -1.0606  1.4446
  138MOL0     H18567   9.828   1.944   5.754  0.5807  0.5747  1.2389
  138MOL0     H18568   9.735   2.069   5.844 -1.3285  1.4720 -0.8218
  138MOL0     H18569   9.746   2.222   5.659 -1.2065 -2.1825 -0.4901
  138MOL0     H18570   9.835   2.102   5.559  1.0102 -2.9430  0.3979
  138MOL0     H18571   9.910   2.231   5.826 -0.1767  0.5148 -0.2896
  138MOL0     H18572  10.010   2.108   5.752  1.0970  0.3184 -0.8606
  138MOL0     H18573  10.042   2.267   5.555 -1.2715 -1.2995 -0.4431
  138MOL0     H18574   9.935   2.381   5.629  1.9171  1.0729 -1.2013
  138MOL0     H18575  10.074   2.396   5.826 -1.4424  0.5235 -1.3729
  138MOL0     H18576  10.188   2.269   5.770  0.4493 -1.0841 -2.3121
  138MOL0     H18577  10.132   2.537   5.655  0.2281 -0.1796 -1.5046
  138MOL0     H18578  10.246   2.421   5.578  0.3434 -3.8269  0.6760
  138MOL0     H18579  10.338   2.603   5.739  1.4460 -0.6593 -0.1581
  138MOL0     H18580  10.286   2.494   5.877  0.9395  1.4875  0.6853
  138MOL0     H18581  10.443   2.290   5.942 -0.6457 -0.8312 -0.4520
  138MOL0     H18582  10.775   2.152   5.825  0.3981  1.4955  1.5955
  138MOL0     H18583  10.662   2.165   5.963 -0.5294  1.1394 -0.3154
  138MOL0     H18584  10.648   1.949   5.826  0.0020  0.1504  2.2607
  138MOL0     H18585  10.492   2.025   5.842  0.1639 -0.4456 -0.1727
  138MOL0     H18586  10.574   1.937   5.606 -0.8134  0.2686 -3.6886
  138MOL0     H18587  10.673   2.077   5.596  1.1290 -1.8658 -0.0826
  138MOL0     H18588  10.457   2.098   5.472  1.4651  0.8935  0.9022
  138MOL0     H18589  10.409   2.190   5.610 -1.6778 -0.3106 -0.4954
  138MOL0     H18590  10.260   2.140   5.366 -0.5486  1.0894  1.7414
  138MOL0     H18591  10.066   2.091   5.240 -3.4639 -0.1535 -1.1204
  138MOL0     H18592   9.680   1.594   5.401 -2.8611 -2.3906  3.5355
  138MOL0     H18593   9.420   1.546   5.392 -2.8333  0.5982  0.1048
  138MOL0     H18594   9.170   1.866   5.381  0.9950 -0.4384 -0.0332
  138MOL0     H18595   9.140   1.870   5.211 -0.1194  1.2992  1.9611
  138MOL0     H18596   8.943   1.819   5.358 -3.3807 -1.3366  0.4297
  138MOL0     H18597   8.977   1.694   5.231 -1.4265  0.5570  0.1920
  138MOL0     H18598   9.055   1.541   5.401 -0.6836 -0.6723  0.6552
  138MOL0     H18599   9.069   1.665   5.520 -0.9739  0.7056 -0.8898
  138MOL0     H18600   8.819   1.535   5.414 -0.7785  0.9152  0.4777
  138MOL0     H18601   8.819   1.697   5.495  1.5204 -0.5818  2.6146
  138MOL0     H18602   8.936   1.584   5.689 -0.2852 -0.7010  0.6494
  138MOL0     H18603   8.889   1.433   5.608 -0.1209 -0.5467  3.4423
  138MOL0     H18604   8.711   1.662   5.695 -0.4557 -1.1774  2.0332
  138MOL0     H18605   8.655   1.530   5.592  1.0303 -0.7731 -0.7489
  138MOL0     H18606   8.753   1.521   5.882 -4.5446  3.5657  0.6263
  138MOL0     H18607   8.758   1.368   5.790 -1.6279 -1.0085 -2.0536
  138MOL0     H18608   8.536   1.429   5.940  0.1900 -2.0280 -0.1115
  138MOL0     H18609   8.500   1.529   5.809  1.6315  0.5272  0.1522
  138MOL0     H18610   9.360   1.941   5.243 -0.6235 -0.4834  0.5971
  138MOL0     H18611   9.593   1.988   5.265  2.7748 -0.3809  0.6063
  138MOL0     H18612   9.943   1.809   5.549 -0.6339  1.5470  2.6663
  138MOL0     H18613  10.140   1.848   5.679  1.0881  3.3468  1.9040
  138MOL0     H18614   9.474   1.768   5.989  0.0557 -1.6089 -0.4933
  138MOL0     H18615   9.233   1.751   6.038 -2.1297  4.2341  1.0350
  138MOL0     H18616   8.831   1.933   5.779  3.1736 -3.4062  1.6701
  138MOL0     H18617   8.593   1.974   5.756 -0.4834  0.6118  1.4150
  138MOL0     H18618   8.266   1.934   5.811  2.0470  0.2330 -1.9189
  138MOL0     H18619   8.407   2.041   5.802 -0.9137 -0.2402 -0.5397
  138MOL0     H18620   8.189   2.038   6.029 -0.9644  1.6271  0.1160
  138MOL0     H18621   8.184   2.147   5.891  0.4626 -0.1003 -0.2101
  138MOL0     H18622   8.384   2.254   5.925  1.2001 -1.7522 -0.4736
  138MOL0     H18623   8.428   2.170   6.069  0.2120 -2.6968 -1.0445
  138MOL0     H18624   8.170   2.330   6.020 -0.8857 -0.1067  0.3447
  138MOL0     H18625   8.204   2.270   6.175 -0.2729 -1.6286  0.1283
  138MOL0     H18626   8.444   2.616   6.177  1.0202 -1.1425  0.7956
  138MOL0     H18627   8.535   1.810   6.144 -0.8262 -1.0713 -0.9563
  138MOL0     H18628   8.780   1.791   6.313 -1.7145  0.5772 -0.4577
  138MOL0     H18629   8.712   1.659   6.227  0.1028 -0.3142 -0.8930
  138MOL0     H18630   8.870   1.695   6.188 -0.1175  0.4607  0.5433
  139MOL0     O18631   0.455   6.110   8.504  0.0414  0.1759  0.3773
  139MOL0     C18632   0.412   6.017   8.435 -0.8801  0.0163 -0.9585
  139MOL0     O18633   0.480   5.903   8.422 -0.3497  0.3262  0.3807
  139MOL0     C18634   0.613   5.897   8.441 -0.0635  0.3369  0.1731
  139MOL0     C18635   0.705   5.980   8.367  0.3133  0.6136  0.0736
  139MOL0     C18636   0.837   5.951   8.373 -0.6881  1.1653  0.2858
  139MOL0     C18637   0.890   5.846   8.448 -0.7964  0.3468  0.4766
  139MOL0     O18638   1.029   5.825   8.441 -0.4309  0.7355  0.0909
  139MOL0     C18639   1.073   5.741   8.548  0.0589  0.4807 -1.0556
  139MOL0     C18640   1.231   5.717   8.543  0.1628  0.2242 -0.3740
  139MOL0     C18641   1.322   5.838   8.565  0.3660 -0.2659 -0.7094
  139MOL0     C18642   1.475   5.809   8.552 -0.3902 -0.1702  0.0567
  139MOL0     C18643   1.554   5.904   8.634  0.0847  0.4624  0.4000
  139MOL0     C18644   1.704   5.883   8.608 -0.0861 -0.4878  0.8692
  139MOL0     C18645   1.794   5.976   8.691  0.4932  0.2440  0.2963
  139MOL0     C18646   1.904   6.009   8.599 -0.6253  0.3084 -0.4155
  139MOL0     N18647   1.992   6.105   8.662 -0.9089  0.0846  0.0320
  139MOL0     C18648   1.986   6.244   8.658 -0.4162 -0.3124 -0.2924
  139MOL0     C18649   2.070   6.287   8.752  0.2871 -0.3148  0.7982
  139MOL0     C18650   2.099   6.430   8.784 -0.3535  0.0363 -0.4271
  139MOL0     C18651   2.147   6.509   8.657 -0.1770  0.4359 -0.6308
  139MOL0     C18652   2.217   6.631   8.707 -0.8744 -0.5560 -0.4729
  139MOL0     C18653   2.353   6.615   8.790 -0.2241  0.1941 -0.2046
  139MOL0     O18654   2.431   6.508   8.727 -0.5765  0.4490  0.0440
  139MOL0     C18655   2.495   6.424   8.817  0.6873 -0.8767  0.5788
  139MOL0     C18656   2.595   6.471   8.896 -0.3789 -0.1486  0.1419
  139MOL0     C18657   2.658   6.389   8.993  0.4971 -0.2203  0.0675
  139MOL0     C18658   2.640   6.248   8.988  0.9680 -0.2792  0.6855
  139MOL0     C18659   2.733   6.157   9.067  0.3878  0.8365  0.1603
  139MOL0     O18660   2.689   6.026   9.076  0.2813  0.7243  0.3399
  139MOL0     C18661   2.756   5.929   9.146  0.0326  0.6875  0.5210
  139MOL0     C18662   2.834   5.946   9.260 -0.1548  0.4062  0.2115
  139MOL0     C18663   2.894   5.840   9.321  0.1036  0.1183  0.3258
  139MOL0     C18664   2.870   5.711   9.280 -0.0191  0.3365  0.1173
  139MOL0     O18665   2.908   5.612   9.370  0.5524  0.0480  0.0933
  139MOL0     C18666   2.939   5.479   9.329 -0.1599  0.3919  0.0328
  139MOL0     C18667   2.837   5.372   9.387  0.4093  0.4481  0.3298
  139MOL0     C18668   2.869   5.233   9.347 -0.5462  0.6918 -0.4321
  139MOL0     C18669   2.759   5.132   9.398 -0.1759 -0.7860  1.0130
  139MOL0     C18670   2.782   4.989   9.345  0.0441 -0.1914  0.2945
  139MOL0     C18671   2.746   4.980   9.199 -0.4170  0.8527 -0.0060
  139MOL0     C18672   2.715   4.831   9.150  1.1299 -0.7786 -0.5107
  139MOL0     C18673   2.711   4.827   9.002  0.4076  0.1439 -0.3977
  139MOL0    Cl18674   2.534   4.856   8.952  0.1126 -0.4494  0.5332
  139MOL0     C18675   2.794   5.694   9.160  0.7834  0.3862 -0.1350
  139MOL0     C18676   2.736   5.801   9.091  0.4783 -0.3099 -0.0507
  139MOL0     O18677   2.838   6.195   9.119  0.0461  0.0311 -0.4233
  139MOL0     C18678   2.540   6.201   8.899  0.6491  0.4364  0.3664
  139MOL0     C18679   2.464   6.290   8.821 -0.4719 -0.1551 -0.4159
  139MOL0     N18680   2.128   6.175   8.813  0.0712 -0.1627  0.3764
  139MOL0     N18681   2.081   6.066   8.758  0.4130 -0.2067  0.0974
  139MOL0     C18682   0.795   5.761   8.510 -0.7527 -0.4976 -0.3016
  139MOL0     C18683   0.665   5.788   8.516  0.9207  1.0891  0.8152
  139MOL0     C18684   0.271   6.021   8.406 -0.4900 -0.0757 -0.1173
  139MOL0     C18685   0.219   6.151   8.378 -0.3427  0.3436 -0.7095
  139MOL0     C18686   0.083   6.162   8.338  0.2187  0.5024  0.2889
  139MOL0     C18687   0.001   6.052   8.320 -0.2328 -0.2387 -0.2288
  139MOL0     O18688  -0.129   6.058   8.281 -0.3886  0.2376 -0.2189
  139MOL0     C18689  -0.180   6.187   8.241  0.0549  0.7361 -0.6607
  139MOL0     C18690  -0.318   6.191   8.173  0.5468  0.3675 -0.6289
  139MOL0     C18691  -0.337   6.089   8.061 -0.7616  0.6921  0.6146
  139MOL0     C18692  -0.262   6.119   7.934  0.3584 -0.2555 -0.4241
  139MOL0     C18693  -0.266   5.999   7.852  0.0430  0.5018 -0.7636
  139MOL0     C18694  -0.282   5.901   7.780  0.0743 -0.3310  0.4307
  139MOL0     C18695   0.058   5.922   8.336 -0.3974  0.0870 -0.1576
  139MOL0     C18696   0.189   5.907   8.387  0.7245 -0.1727  0.0897
  139MOL0     C18697   0.237   5.768   8.403  0.9241  0.6724 -0.0630
  139MOL0     H18698   0.668   6.060   8.304 -1.6550 -1.1936 -1.2191
  139MOL0     H18699   0.901   6.018   8.317  1.3993 -0.2951  0.8254
  139MOL0     H18700   1.041   5.786   8.642 -2.9204 -1.8283 -0.7981
  139MOL0     H18701   1.046   5.637   8.528  0.6401  0.2252 -0.5078
  139MOL0     H18702   1.254   5.666   8.449 -0.4366 -3.7319  1.4299
  139MOL0     H18703   1.269   5.640   8.610  1.8552 -0.2839 -1.8325
  139MOL0     H18704   1.300   5.874   8.666 -2.0959 -1.3218 -0.7821
  139MOL0     H18705   1.319   5.916   8.489  1.1625  0.5597  0.0829
  139MOL0     H18706   1.497   5.708   8.589  2.2225  0.4222  0.3192
  139MOL0     H18707   1.509   5.814   8.448 -0.9028  0.0234 -0.1047
  139MOL0     H18708   1.529   6.005   8.601 -0.0055 -0.0108 -1.0512
  139MOL0     H18709   1.539   5.893   8.742  1.4910 -2.4030  0.3820
  139MOL0     H18710   1.732   5.778   8.621  2.1435 -0.1438 -0.6410
  139MOL0     H18711   1.711   5.914   8.504  0.7344 -0.0546  1.0472
  139MOL0     H18712   1.832   5.941   8.788  0.6052  3.2821  1.4699
  139MOL0     H18713   1.743   6.070   8.716  1.0036  0.1568  1.8027
  139MOL0     H18714   1.955   5.915   8.577  0.1063 -0.3782  3.4402
  139MOL0     H18715   1.872   6.066   8.512 -1.4855 -0.3192 -0.5323
  139MOL0     H18716   1.917   6.308   8.604  0.9794  1.9285  0.4081
  139MOL0     H18717   2.003   6.479   8.806 -0.7995 -0.8946 -0.2624
  139MOL0     H18718   2.166   6.425   8.870  0.0633 -0.2331 -0.7635
  139MOL0     H18719   2.216   6.451   8.596 -0.0516 -0.2111  0.1055
  139MOL0     H18720   2.059   6.519   8.594 -1.5786  0.4711  1.2298
  139MOL0     H18721   2.153   6.692   8.770  0.1677  2.3061 -2.0095
  139MOL0     H18722   2.251   6.701   8.630  0.2942  1.6120  1.8566
  139MOL0     H18723   2.331   6.596   8.895 -2.8513  0.4002 -0.6693
  139MOL0     H18724   2.409   6.709   8.792  1.6747 -0.7802  4.0779
  139MOL0     H18725   2.602   6.578   8.876  0.5657 -0.3974 -0.9612
  139MOL0     H18726   2.731   6.432   9.060 -0.2479  1.2855 -0.0438
  139MOL0     H18727   2.839   6.046   9.302 -1.5939  0.3678  0.5481
  139MOL0     H18728   2.947   5.866   9.413 -0.5111  4.2621 -0.2862
  139MOL0     H18729   2.945   5.457   9.222  2.3703  0.2025  0.1352
  139MOL0     H18730   3.032   5.449   9.378  0.6456 -1.3023 -2.3374
  139MOL0     H18731   2.825   5.374   9.496  1.9278 -0.4810  0.5523
  139MOL0     H18732   2.741   5.395   9.339  2.2372  3.5403 -2.2852
  139MOL0     H18733   2.871   5.241   9.238 -2.2277  2.9932 -0.3725
  139MOL0     H18734   2.970   5.198   9.372 -1.8621  0.5044  6.4188
  139MOL0     H18735   2.669   5.177   9.356  1.2679  0.1585 -1.2729
  139MOL0     H18736   2.749   5.135   9.507 -0.9626 -1.8321  0.9799
  139MOL0     H18737   2.738   4.910   9.408  2.2554 -2.1647 -0.4870
  139MOL0     H18738   2.890   4.982   9.354 -0.0966  0.2336  3.5386
  139MOL0     H18739   2.656   5.040   9.182  0.3487  2.1665  0.4307
  139MOL0     H18740   2.829   5.019   9.138  2.3994 -2.1854  1.5620
  139MOL0     H18741   2.628   4.791   9.202  0.8327  1.6234  1.0383
  139MOL0     H18742   2.804   4.777   9.184 -0.0217 -1.7052  1.1942
  139MOL0     H18743   2.783   4.898   8.959  2.6115 -1.8818 -0.2474
  139MOL0     H18744   2.744   4.731   8.961 -0.5577  0.6866 -2.6028
  139MOL0     H18745   2.753   5.602   9.120 -2.4326  1.0475  1.3516
  139MOL0     H18746   2.686   5.792   8.995  1.3127  3.1377 -0.9363
  139MOL0     H18747   2.523   6.094   8.889  0.3609  0.4025  1.2112
  139MOL0     H18748   2.380   6.257   8.762  0.0165 -2.1258 -0.0679
  139MOL0     H18749   0.829   5.675   8.567  3.3581  1.9311  1.2990
  139MOL0     H18750   0.589   5.725   8.562 -1.7207  3.8756  0.5640
  139MOL0     H18751   0.278   6.242   8.383 -0.6828  0.5804 -0.9493
  139MOL0     H18752   0.035   6.259   8.331 -1.9803 -0.3330  2.4163
  139MOL0     H18753  -0.118   6.227   8.160 -1.3215  1.8374 -1.2021
  139MOL0     H18754  -0.176   6.252   8.329  0.4368 -4.0240  3.3132
  139MOL0     H18755  -0.342   6.290   8.134 -0.0486  0.6121  0.3323
  139MOL0     H18756  -0.387   6.172   8.255  2.4348  0.6009  1.0893
  139MOL0     H18757  -0.443   6.077   8.039 -0.1053  0.0266 -2.5838
  139MOL0     H18758  -0.297   5.993   8.095 -2.8969 -1.3724 -2.2054
  139MOL0     H18759  -0.309   6.204   7.884 -3.5324 -2.9481 -1.8327
  139MOL0     H18760  -0.161   6.156   7.953  0.3672 -1.3047  2.0192
  139MOL0     H18761  -0.291   5.815   7.716  3.1611 -1.0969  0.8880
  139MOL0     H18762  -0.004   5.836   8.317  2.2616 -1.7642 -1.0030
  139MOL0     H18763   0.298   5.743   8.316 -0.6640 -1.4466 -0.6772
  139MOL0     H18764   0.289   5.744   8.496  1.1681 -1.7125 -0.7402
  139MOL0     H18765   0.154   5.696   8.398  2.1164 -0.6749 -1.4384
  140MOL0     O18766   3.370   6.090   1.780 -0.0413 -1.3022 -0.5021
  140MOL0     C18767   3.290   6.066   1.864 -0.1288  0.7561 -0.7337
  140MOL0     O18768   3.290   5.955   1.940  0.5620 -0.5536 -1.1734
  140MOL0     C18769   3.376   5.856   1.908  0.5157  0.9651 -0.9240
  140MOL0     C18770   3.379   5.800   1.788 -0.0734  0.1858 -0.8791
  140MOL0     C18771   3.467   5.692   1.757  0.8487 -0.9386 -0.4436
  140MOL0     C18772   3.546   5.640   1.856 -0.0557  0.3906  0.2041
  140MOL0     O18773   3.617   5.532   1.826  0.3597 -0.0112 -0.0996
  140MOL0     C18774   3.700   5.475   1.927  0.3915  0.0528  0.4695
  140MOL0     C18775   3.798   5.377   1.860 -0.4091 -0.2135  0.1934
  140MOL0     C18776   3.899   5.329   1.961 -0.2256 -0.2880  0.0353
  140MOL0     C18777   3.982   5.215   1.911 -0.0095  0.6693 -0.6012
  140MOL0     C18778   4.056   5.159   2.034 -0.1067 -0.0264 -0.1797
  140MOL0     C18779   4.131   5.026   1.999 -0.7158 -0.1024 -0.1803
  140MOL0     C18780   4.224   4.979   2.107 -0.0043 -0.5761 -0.6371
  140MOL0     C18781   4.256   4.832   2.076 -0.1337  0.0193 -0.3492
  140MOL0     N18782   4.359   4.790   2.175  1.0594 -0.3299 -0.2380
  140MOL0     C18783   4.355   4.786   2.314 -0.1411 -0.6767  0.0402
  140MOL0     C18784   4.481   4.745   2.355 -0.3801  0.8321 -0.1926
  140MOL0     C18785   4.543   4.710   2.491 -0.2116 -0.1585  0.5400
  140MOL0     C18786   4.686   4.763   2.503 -0.4191  0.2603  0.4818
  140MOL0     C18787   4.745   4.765   2.646 -0.2587  0.6297 -0.4189
  140MOL0     C18788   4.859   4.863   2.653  0.1216  0.2587  0.1701
  140MOL0     O18789   4.905   4.869   2.789  0.4383  0.7068  0.1912
  140MOL0     C18790   5.032   4.818   2.811 -0.1671 -0.8757 -1.0981
  140MOL0     C18791   5.128   4.904   2.878 -0.6775 -0.8990  0.7522
  140MOL0     C18792   5.260   4.856   2.906  0.0836  0.4843 -0.7088
  140MOL0     C18793   5.304   4.727   2.863  0.6925 -0.9326 -0.6312
  140MOL0     C18794   5.433   4.678   2.893  0.3867  0.0872 -0.4569
  140MOL0     O18795   5.539   4.767   2.922 -0.0074 -0.2276 -0.5510
  140MOL0     C18796   5.668   4.723   2.936 -0.1042  0.5058 -0.2200
  140MOL0     C18797   5.750   4.806   3.014 -0.8335  1.0577  0.1181
  140MOL0     C18798   5.890   4.779   3.032 -0.1444 -0.2380  0.1188
  140MOL0     C18799   5.952   4.676   2.959  0.4985  0.3539 -0.2462
  140MOL0     O18800   6.090   4.650   2.970  0.7647  0.0236 -0.5010
  140MOL0     C18801   6.178   4.761   3.004 -0.1310  0.1011 -0.0975
  140MOL0     C18802   6.317   4.694   3.004 -0.9604  0.0071 -0.3975
  140MOL0     C18803   6.435   4.797   3.019 -0.5744 -0.5577  0.8338
  140MOL0     C18804   6.577   4.753   2.990 -0.0033  0.3879  0.5273
  140MOL0     C18805   6.673   4.862   3.038  0.1107  0.2542  0.0187
  140MOL0     C18806   6.819   4.822   3.018  0.1980  0.1958 -0.0979
  140MOL0     C18807   6.924   4.906   3.089  0.3167  0.7416  0.1468
  140MOL0     C18808   6.937   5.045   3.035  0.2300  0.0169 -0.1378
  140MOL0    Cl18809   7.082   5.139   3.094 -0.2174  0.7337 -0.7478
  140MOL0     C18810   5.870   4.594   2.888  0.0487 -0.7533  0.6115
  140MOL0     C18811   5.731   4.616   2.872  1.0060 -0.1459 -0.6812
  140MOL0     O18812   5.443   4.554   2.895  0.2044 -0.4055  0.2179
  140MOL0     C18813   5.206   4.641   2.800  0.1808 -0.0664 -1.3619
  140MOL0     C18814   5.077   4.692   2.774 -0.7311  0.3269  0.5365
  140MOL0     N18815   4.550   4.713   2.238  0.6069 -0.2091 -0.0818
  140MOL0     N18816   4.477   4.741   2.134 -0.0441 -0.5744  0.1293
  140MOL0     C18817   3.540   5.694   1.984 -0.3079  0.2331 -0.0307
  140MOL0     C18818   3.454   5.803   2.013  0.2911  0.8491  0.3645
  140MOL0     C18819   3.183   6.164   1.884  0.1963  0.9748 -0.7599
  140MOL0     C18820   3.050   6.117   1.870 -0.2152 -0.2292  0.8302
  140MOL0     C18821   2.945   6.194   1.907 -0.1532  0.0244 -0.4219
  140MOL0     C18822   2.973   6.323   1.951  0.0421 -0.1243 -0.5255
  140MOL0     O18823   2.864   6.409   1.978  0.0018 -0.3845  0.2810
  140MOL0     C18824   2.826   6.423   2.118 -0.1503 -0.1631  0.0204
  140MOL0     C18825   2.697   6.509   2.121 -0.3626 -0.3082 -0.3674
  140MOL0     C18826   2.580   6.437   2.192  0.2564  0.0358  0.0354
  140MOL0     C18827   2.456   6.525   2.223  0.5165 -0.2388 -0.5332
  140MOL0     C18828   2.490   6.632   2.323  0.1042  0.7242  0.5949
  140MOL0     C18829   2.521   6.707   2.412 -0.3331 -0.0274  0.7004
  140MOL0     C18830   3.108   6.369   1.964 -0.3440  0.3283 -0.8844
  140MOL0     C18831   3.217   6.291   1.936 -0.1029 -0.0354  0.7607
  140MOL0     C18832   3.357   6.347   1.960  0.2377  0.3811  0.3635
  140MOL0     H18833   3.320   5.839   1.705  0.4976  0.4033 -1.1854
  140MOL0     H18834   3.475   5.653   1.656 -2.0381  0.0976 -1.1440
  140MOL0     H18835   3.765   5.551   1.973  1.5461 -2.0941  2.6036
  140MOL0     H18836   3.643   5.425   2.005  1.5726 -0.0354  1.3102
  140MOL0     H18837   3.847   5.419   1.772  2.3094 -2.8865  0.2928
  140MOL0     H18838   3.746   5.293   1.812 -0.0405  1.6612 -3.9196
  140MOL0     H18839   3.848   5.294   2.051  0.3956 -3.8046 -0.8388
  140MOL0     H18840   3.970   5.412   1.973  2.0433 -1.7979 -1.9930
  140MOL0     H18841   3.924   5.133   1.867  0.3563  0.6091 -0.9867
  140MOL0     H18842   4.053   5.245   1.833 -0.5086  0.0780 -1.2975
  140MOL0     H18843   4.135   5.228   2.066  0.3940 -0.5631 -0.2568
  140MOL0     H18844   3.992   5.145   2.122  0.0784 -1.2051 -0.2194
  140MOL0     H18845   4.051   4.954   1.978 -1.8284  1.0202  0.1137
  140MOL0     H18846   4.190   5.053   1.911  0.9637  1.7216  1.3898
  140MOL0     H18847   4.174   4.987   2.204  1.1993  1.9731 -0.1609
  140MOL0     H18848   4.315   5.035   2.129  0.7985 -2.7164  2.0060
  140MOL0     H18849   4.175   4.762   2.098  0.0241 -0.0940 -0.1281
  140MOL0     H18850   4.303   4.826   1.977  1.1563 -3.7383  0.3066
  140MOL0     H18851   4.277   4.816   2.383 -0.8203 -0.1919 -0.9140
  140MOL0     H18852   4.487   4.763   2.569  1.7027  1.6143  0.7757
  140MOL0     H18853   4.549   4.602   2.503 -1.2805 -0.0138  3.1254
  140MOL0     H18854   4.753   4.704   2.439 -0.1321  1.8424 -0.7450
  140MOL0     H18855   4.696   4.865   2.465  0.5406  0.5745  1.5162
  140MOL0     H18856   4.764   4.665   2.685 -0.2479  0.1242 -1.6822
  140MOL0     H18857   4.681   4.809   2.724 -0.2686  0.0467 -0.0948
  140MOL0     H18858   4.838   4.965   2.620  0.3038  0.2703  0.0884
  140MOL0     H18859   4.937   4.837   2.581 -1.4750 -2.2411 -0.8080
  140MOL0     H18860   5.112   5.008   2.906  1.0233 -0.4120  0.0612
  140MOL0     H18861   5.328   4.919   2.963  1.5738 -1.0125 -0.7657
  140MOL0     H18862   5.714   4.891   3.071 -2.3511  0.5720 -0.0534
  140MOL0     H18863   5.949   4.841   3.100 -0.2646 -0.7957  0.7511
  140MOL0     H18864   6.186   4.840   2.928  3.6453  2.4015  2.3795
  140MOL0     H18865   6.150   4.803   3.101 -1.8288 -2.9522  0.8758
  140MOL0     H18866   6.327   4.614   3.077  1.5646 -1.3929 -2.1189
  140MOL0     H18867   6.326   4.651   2.904  2.1492 -0.4315 -0.0161
  140MOL0     H18868   6.416   4.881   2.952 -1.4718 -1.6465 -0.3325
  140MOL0     H18869   6.439   4.831   3.123  1.6808 -0.9753  0.9310
  140MOL0     H18870   6.596   4.741   2.883  0.0387  0.0834  0.5682
  140MOL0     H18871   6.583   4.658   3.045 -1.4753 -0.0580 -0.0306
  140MOL0     H18872   6.646   4.881   3.142 -1.3634  1.9624 -0.6325
  140MOL0     H18873   6.648   4.957   2.990 -1.6293 -1.3788 -2.5344
  140MOL0     H18874   6.838   4.717   3.044  0.2238 -0.3774 -2.2828
  140MOL0     H18875   6.847   4.829   2.913  1.5374 -2.2229  0.0198
  140MOL0     H18876   7.017   4.852   3.065  1.3648  2.2605  0.6385
  140MOL0     H18877   6.915   4.914   3.198 -0.5164  0.1753  0.1292
  140MOL0     H18878   6.953   5.044   2.926  0.8319 -2.9296 -0.0867
  140MOL0     H18879   6.845   5.097   3.065  2.1551  2.5647  1.8358
  140MOL0     H18880   5.908   4.502   2.844  1.5423  0.5082 -0.8797
  140MOL0     H18881   5.668   4.565   2.801  1.4347 -0.0282 -1.1513
  140MOL0     H18882   5.222   4.538   2.772  0.3363 -0.3968 -0.1301
  140MOL0     H18883   5.012   4.629   2.714 -0.7481  1.4353 -0.6647
  140MOL0     H18884   3.595   5.655   2.069  1.5610  0.3601 -1.1167
  140MOL0     H18885   3.436   5.826   2.117  1.7745  0.2713  0.7706
  140MOL0     H18886   3.039   6.014   1.840  0.6586 -0.9533  2.8124
  140MOL0     H18887   2.844   6.155   1.905 -0.2021 -0.0755  1.7425
  140MOL0     H18888   2.904   6.477   2.174  1.0358 -1.6694 -0.1219
  140MOL0     H18889   2.805   6.327   2.165  3.0503 -0.1550  1.7589
  140MOL0     H18890   2.658   6.530   2.021 -1.8729  1.1039  0.4810
  140MOL0     H18891   2.718   6.606   2.166 -0.6756 -1.5649  2.7082
  140MOL0     H18892   2.626   6.387   2.278 -1.4507 -2.8184 -0.5543
  140MOL0     H18893   2.550   6.349   2.135 -2.0636  0.2017  0.8976
  140MOL0     H18894   2.423   6.568   2.128  1.6761 -0.5009 -1.0821
  140MOL0     H18895   2.374   6.464   2.260  0.0384 -0.8946 -2.5200
  140MOL0     H18896   2.549   6.783   2.482  0.0015  0.3193  0.1997
  140MOL0     H18897   3.120   6.472   1.997  1.4250  0.0700 -0.6364
  140MOL0     H18898   3.359   6.446   1.914  1.7452 -1.8467 -5.3401
  140MOL0     H18899   3.370   6.355   2.068  2.5296  1.4329  0.0608
  140MOL0     H18900   3.431   6.284   1.909  0.0033  1.1258 -0.9547
  141MOL0     O18901   8.479   0.056   4.639  0.4389  0.0178  0.0826
  141MOL0     C18902   8.371   0.080   4.580 -0.7301  0.0480 -0.3517
  141MOL0     O18903   8.351   0.193   4.496  1.0925 -0.4284 -0.6817
  141MOL0     C18904   8.466   0.271   4.486  1.3286  0.6071  0.8660
  141MOL0     C18905   8.589   0.227   4.415 -0.6153  0.8698  0.1750
  141MOL0     C18906   8.687   0.321   4.404 -0.1435 -0.5099 -0.7142
  141MOL0     C18907   8.680   0.453   4.458  0.0947  0.3930 -1.4743
  141MOL0     O18908   8.790   0.540   4.464  0.4277 -0.1289 -0.3169
  141MOL0     C18909   8.930   0.496   4.458 -0.7205  0.4795 -0.1538
  141MOL0     C18910   9.012   0.578   4.562 -0.1251  0.4577  0.5294
  141MOL0     C18911   9.161   0.529   4.573  0.7721  0.3813  1.0681
  141MOL0     C18912   9.233   0.596   4.687  0.4387 -0.6782 -0.3162
  141MOL0     C18913   9.386   0.554   4.706 -0.0995 -0.7756  0.1381
  141MOL0     C18914   9.466   0.646   4.798  0.0859 -0.2157  0.0634
  141MOL0     C18915   9.613   0.597   4.817  0.7276  0.5842 -0.0909
  141MOL0     C18916   9.667   0.663   4.945  0.3200 -0.2226  0.6470
  141MOL0     N18917   9.817   0.653   4.949 -0.6971 -0.1424  0.3641
  141MOL0     C18918   9.911   0.692   4.850  0.0504  0.4454 -0.2462
  141MOL0     C18919  10.032   0.647   4.900  0.2128 -0.7526  0.0583
  141MOL0     C18920  10.168   0.663   4.843 -0.1996 -0.1607 -0.0726
  141MOL0     C18921  10.247   0.766   4.925 -0.3832  0.6188 -0.0806
  141MOL0     C18922  10.366   0.822   4.840 -0.1782  1.3710  0.3492
  141MOL0     C18923  10.490   0.731   4.833  0.5035  0.2717  0.6707
  141MOL0     O18924  10.519   0.697   4.966 -0.1295  0.1054  0.1287
  141MOL0     C18925  10.624   0.606   4.993  0.2957  0.4324 -0.3711
  141MOL0     C18926  10.688   0.538   4.896 -0.3994 -0.3659  0.3400
  141MOL0     C18927  10.795   0.454   4.923  0.5338 -1.0224 -0.3145
  141MOL0     C18928  10.841   0.436   5.056  0.3228  0.1186  0.5060
  141MOL0     C18929  10.964   0.362   5.095  0.7009  0.6985 -0.7701
  141MOL0     O18930  11.030   0.391   5.214 -0.1102 -0.3971  0.0359
  141MOL0     C18931  11.109   0.294   5.270 -0.1051  1.1882  0.1524
  141MOL0     C18932  11.113   0.150   5.263 -0.0532  0.2210  0.1653
  141MOL0     C18933  11.185   0.070   5.345 -0.2319  0.8243 -0.0558
  141MOL0     C18934  11.275   0.129   5.433 -0.1836  0.1257 -0.0270
  141MOL0     O18935  11.356   0.047   5.511  0.1053 -0.6637  0.6172
  141MOL0     C18936  11.364   0.081   5.648  0.1157 -0.6087 -0.1483
  141MOL0     C18937  11.427  -0.037   5.721 -0.4835 -0.1976  0.7544
  141MOL0     C18938  11.338  -0.154   5.727 -0.0679 -0.1876  0.1893
  141MOL0     C18939  11.315  -0.204   5.877  0.0774  1.2811 -0.5741
  141MOL0     C18940  11.188  -0.293   5.884 -0.1564  0.2512  0.9698
  141MOL0     C18941  11.210  -0.422   5.799 -0.8041  0.5378 -0.5192
  141MOL0     C18942  11.086  -0.514   5.794 -0.2065  0.3280 -0.7596
  141MOL0     C18943  11.052  -0.592   5.922  0.0004 -1.2564 -0.3223
  141MOL0    Cl18944  11.170  -0.731   5.941 -0.2888 -0.5441 -0.4283
  141MOL0     C18945  11.272   0.272   5.443 -0.4804  0.4731 -0.0799
  141MOL0     C18946  11.190   0.356   5.367  0.6882  0.4483  0.2581
  141MOL0     O18947  11.001   0.272   5.019 -0.9689 -0.4138 -1.1784
  141MOL0     C18948  10.785   0.514   5.154 -0.2008 -0.4425  0.8691
  141MOL0     C18949  10.672   0.596   5.125  0.0018  0.5775 -0.0476
  141MOL0     N18950  10.019   0.585   5.024  0.7224 -0.4419  0.0481
  141MOL0     N18951   9.888   0.599   5.054 -0.0013 -0.9760 -0.3829
  141MOL0     C18952   8.558   0.494   4.521 -0.1668  0.3491 -0.1455
  141MOL0     C18953   8.453   0.405   4.530 -0.6520 -0.3977 -0.2890
  141MOL0     C18954   8.254  -0.008   4.606 -0.4028 -0.5882 -0.4898
  141MOL0     C18955   8.125   0.048   4.578 -1.0429 -0.3863 -0.1497
  141MOL0     C18956   8.013  -0.019   4.587  0.5666 -0.2243 -0.5542
  141MOL0     C18957   8.015  -0.149   4.641  0.5880 -0.8722  0.4088
  141MOL0     O18958   7.891  -0.216   4.656  0.1007  0.3907 -0.5553
  141MOL0     C18959   7.891  -0.348   4.714  0.7681  0.1283 -0.2448
  141MOL0     C18960   7.746  -0.415   4.710  0.4383  0.1615  0.1478
  141MOL0     C18961   7.755  -0.538   4.607 -0.1663 -0.7190  1.2440
  141MOL0     C18962   7.619  -0.619   4.598 -0.0829  0.3899 -0.9093
  141MOL0     C18963   7.588  -0.672   4.732 -0.2089  0.4508  0.0488
  141MOL0     C18964   7.569  -0.703   4.849 -0.4321 -0.9901 -0.7030
  141MOL0     C18965   8.136  -0.199   4.682 -0.4749  0.0052  0.8356
  141MOL0     C18966   8.256  -0.134   4.669 -0.7994  0.3234  0.3078
  141MOL0     C18967   8.379  -0.208   4.713 -0.1803  0.3137 -0.5560
  141MOL0     H18968   8.615   0.130   4.376  0.8732  1.7911 -1.2502
  141MOL0     H18969   8.763   0.286   4.335  0.0009 -1.9489  0.1333
  141MOL0     H18970   8.946   0.389   4.478  2.4276  1.2111  2.0703
  141MOL0     H18971   8.972   0.499   4.357  3.8073 -0.0757  1.4594
  141MOL0     H18972   8.958   0.580   4.658  0.6857  0.1108  0.9995
  141MOL0     H18973   9.005   0.684   4.534 -3.7725  0.5054  1.0786
  141MOL0     H18974   9.213   0.552   4.480  1.1093  0.9595  1.3961
  141MOL0     H18975   9.173   0.421   4.589 -0.5341  0.3955  2.3009
  141MOL0     H18976   9.233   0.703   4.660  2.2776 -0.6168 -0.2291
  141MOL0     H18977   9.175   0.590   4.779 -0.5696 -2.8261 -1.0168
  141MOL0     H18978   9.396   0.451   4.742 -1.8428 -0.8487  0.4985
  141MOL0     H18979   9.434   0.570   4.609  1.8400 -0.6231  1.0773
  141MOL0     H18980   9.469   0.743   4.747 -0.9387 -1.5163 -2.6668
  141MOL0     H18981   9.422   0.648   4.898 -0.4066  0.2346 -0.1600
  141MOL0     H18982   9.673   0.633   4.732  3.0497  1.7287  1.8855
  141MOL0     H18983   9.615   0.488   4.824  1.5007  0.5212 -0.9622
  141MOL0     H18984   9.633   0.766   4.956 -2.5990 -1.0076 -0.0839
  141MOL0     H18985   9.627   0.607   5.030  1.2171  0.4315  1.5232
  141MOL0     H18986   9.896   0.765   4.771 -0.8126  3.4656  2.5069
  141MOL0     H18987  10.218   0.566   4.850  0.8042  0.3617  0.3333
  141MOL0     H18988  10.155   0.698   4.740 -3.2674 -2.3736 -0.5670
  141MOL0     H18989  10.189   0.858   4.933  1.3262  1.6624  0.6886
  141MOL0     H18990  10.276   0.722   5.021 -0.2183 -0.1231 -0.4580
  141MOL0     H18991  10.408   0.914   4.884 -1.9672  3.3981 -1.9103
  141MOL0     H18992  10.329   0.844   4.739  0.1071  2.2190  0.4162
  141MOL0     H18993  10.570   0.782   4.777 -0.4126  0.5720 -0.3995
  141MOL0     H18994  10.468   0.638   4.780  0.8238  1.7044 -2.1594
  141MOL0     H18995  10.662   0.546   4.791  1.1867  1.6077  0.0336
  141MOL0     H18996  10.840   0.402   4.840  1.4059 -0.6209 -0.1034
  141MOL0     H18997  11.051   0.104   5.187  1.8242 -0.7077 -0.8721
  141MOL0     H18998  11.188  -0.038   5.350  2.0615  0.8724  1.2584
  141MOL0     H18999  11.437   0.161   5.662 -0.0069 -0.5019 -0.1205
  141MOL0     H19000  11.272   0.104   5.702  1.4735 -0.5762  2.3162
  141MOL0     H19001  11.523  -0.063   5.675 -0.2154 -0.3329  1.3764
  141MOL0     H19002  11.451  -0.002   5.822 -2.0771 -0.5556  1.2830
  141MOL0     H19003  11.238  -0.123   5.693 -0.3918  0.4857  1.6751
  141MOL0     H19004  11.385  -0.233   5.668  0.9330 -0.7237  1.6563
  141MOL0     H19005  11.307  -0.120   5.947 -1.7004  0.7679 -0.1096
  141MOL0     H19006  11.401  -0.263   5.910  0.6381 -0.0143 -3.9064
  141MOL0     H19007  11.104  -0.230   5.856  2.4675  3.6687  0.0099
  141MOL0     H19008  11.186  -0.326   5.988 -1.7315  2.8133  1.8280
  141MOL0     H19009  11.223  -0.401   5.692 -0.2330  0.4711 -0.4649
  141MOL0     H19010  11.296  -0.482   5.831 -1.8812 -2.4068 -2.6552
  141MOL0     H19011  11.098  -0.589   5.715  1.2016 -2.5154  1.9335
  141MOL0     H19012  10.999  -0.450   5.778  1.0383  2.3501  0.2388
  141MOL0     H19013  11.040  -0.533   6.012 -0.1638  0.6067 -1.5180
  141MOL0     H19014  10.956  -0.640   5.905 -0.5855  0.4630 -2.3848
  141MOL0     H19015  11.335   0.314   5.521 -2.7571  1.2921  1.4347
  141MOL0     H19016  11.184   0.461   5.395 -1.8840  0.1745  1.0150
  141MOL0     H19017  10.821   0.516   5.256 -1.4152  0.3022  1.3095
  141MOL0     H19018  10.631   0.655   5.207  0.4926 -1.4839  1.7596
  141MOL0     H19019   8.543   0.596   4.556  0.4822  0.6959 -0.8505
  141MOL0     H19020   8.357   0.447   4.557  0.2309  0.2969  1.9870
  141MOL0     H19021   8.112   0.148   4.536 -0.6228  0.4024  1.5034
  141MOL0     H19022   7.916   0.020   4.561  0.6991  0.5221  0.0378
  141MOL0     H19023   7.926  -0.337   4.817 -0.1506  2.5577 -0.1122
  141MOL0     H19024   7.967  -0.418   4.679 -2.3677 -4.0156  0.5147
  141MOL0     H19025   7.672  -0.356   4.654 -0.0287 -0.1530  0.4294
  141MOL0     H19026   7.709  -0.453   4.806  1.6080 -1.6167 -0.0667
  141MOL0     H19027   7.829  -0.606   4.650  0.5967 -2.9930 -3.0865
  141MOL0     H19028   7.799  -0.517   4.509 -0.8475 -3.9055  0.1335
  141MOL0     H19029   7.527  -0.570   4.565  0.5554  0.7676 -2.1651
  141MOL0     H19030   7.632  -0.705   4.532 -1.9810 -2.2104  1.8121
  141MOL0     H19031   7.541  -0.741   4.945  2.8215  1.7847  1.5986
  141MOL0     H19032   8.151  -0.284   4.748  0.2989  0.1105  0.8059
  141MOL0     H19033   8.352  -0.310   4.739  0.4057 -0.4668 -2.8189
  141MOL0     H19034   8.444  -0.218   4.626  0.2530  1.3752 -0.3726
  141MOL0     H19035   8.437  -0.156   4.790 -1.5440 -2.8789  2.9053
  142MOL0     O19036   6.479   7.140   9.055  0.7597  0.1424 -0.3559
  142MOL0     C19037   6.389   7.110   9.144 -0.0962 -0.7364 -0.7872
  142MOL0     O19038   6.410   7.040   9.259 -0.4739 -0.4680 -0.7608
  142MOL0     C19039   6.538   7.018   9.297 -0.4331 -0.7091 -0.1859
  142MOL0     C19040   6.605   6.908   9.255 -0.4155  0.5683 -0.0223
  142MOL0     C19041   6.737   6.884   9.299  0.2189 -0.2501  0.0024
  142MOL0     C19042   6.786   6.966   9.398 -0.0354  0.4732 -1.0942
  142MOL0     O19043   6.916   6.940   9.428  0.6370 -0.2890  0.5438
  142MOL0     C19044   6.990   7.036   9.494 -0.1207  0.0067  0.3288
  142MOL0     C19045   7.128   6.979   9.549 -0.6217 -0.2613 -0.4888
  142MOL0     C19046   7.229   6.933   9.433 -0.8894  0.1102 -0.0150
  142MOL0     C19047   7.370   6.891   9.494 -0.1615 -0.0102  0.8321
  142MOL0     C19048   7.476   6.851   9.390 -0.6956 -0.3646  0.3814
  142MOL0     C19049   7.618   6.818   9.442  0.1560 -0.5039 -0.3900
  142MOL0     C19050   7.700   6.795   9.309  0.2256  0.3270 -0.6608
  142MOL0     C19051   7.840   6.773   9.348  0.7742 -0.5282 -0.2972
  142MOL0     N19052   7.932   6.764   9.236 -0.2671 -0.6471  0.6671
  142MOL0     C19053   7.977   6.863   9.156  0.8841  0.1139  0.3864
  142MOL0     C19054   8.075   6.812   9.075 -0.5313  0.5292 -0.0873
  142MOL0     C19055   8.156   6.899   8.977  0.2867 -0.3402 -0.1533
  142MOL0     C19056   8.123   6.874   8.827 -0.2149 -0.2743  0.4589
  142MOL0     C19057   8.166   6.740   8.771 -0.4167 -0.1941  1.2426
  142MOL0     C19058   8.320   6.701   8.785  0.3957 -0.3249  0.2537
  142MOL0     O19059   8.383   6.805   8.706 -0.7293 -0.6694  0.2978
  142MOL0     C19060   8.524   6.817   8.718  1.1087 -0.5287  0.3494
  142MOL0     C19061   8.603   6.736   8.795 -0.4054 -0.1965 -0.2630
  142MOL0     C19062   8.743   6.750   8.805 -0.3436  0.4190  0.8166
  142MOL0     C19063   8.802   6.844   8.722  0.5628  0.0191  0.2518
  142MOL0     C19064   8.951   6.857   8.725 -0.3526  0.2893  0.3517
  142MOL0     O19065   9.020   6.921   8.636 -0.3942 -0.5619  0.1012
  142MOL0     C19066   9.155   6.946   8.651  0.0678  0.7236  0.6224
  142MOL0     C19067   9.191   7.047   8.737  0.0539  0.2531 -0.1322
  142MOL0     C19068   9.328   7.076   8.756 -0.1535  0.3998 -0.6899
  142MOL0     C19069   9.424   6.991   8.697  0.2322  0.4853 -0.5647
  142MOL0     O19070   9.561   7.014   8.719  0.3964 -0.0119  0.0582
  142MOL0     C19071   9.610   7.084   8.835 -0.9253 -0.2753 -0.6157
  142MOL0     C19072   9.758   7.068   8.868  0.1700  0.6774 -0.1548
  142MOL0     C19073   9.779   7.077   9.028  0.4845  0.5722  0.0539
  142MOL0     C19074   9.928   7.081   9.066  0.4188 -0.2011  0.4174
  142MOL0     C19075  10.026   6.993   8.995  0.4052 -0.4951  0.2615
  142MOL0     C19076  10.163   7.030   9.072  0.0747  0.2306  0.4989
  142MOL0     C19077  10.289   6.981   9.012 -0.1337 -0.2319 -0.0400
  142MOL0     C19078  10.292   6.833   9.007  0.2321  0.0411 -0.2183
  142MOL0    Cl19079  10.458   6.772   9.027 -0.1440  0.3244  0.2982
  142MOL0     C19080   9.388   6.889   8.611  0.2052 -0.6372  0.1442
  142MOL0     C19081   9.255   6.870   8.589 -0.2033  0.5687 -0.1039
  142MOL0     O19082   9.008   6.794   8.819  0.3170 -0.5029 -0.5551
  142MOL0     C19083   8.720   6.931   8.648  0.1485  0.0141  0.0049
  142MOL0     C19084   8.587   6.917   8.640 -0.7783 -0.4831 -0.4038
  142MOL0     N19085   8.099   6.682   9.119  0.3655 -0.9224  0.3851
  142MOL0     N19086   8.016   6.660   9.203  0.4180  1.0501 -0.4292
  142MOL0     C19087   6.721   7.088   9.437 -0.5083  0.3277 -0.8142
  142MOL0     C19088   6.591   7.110   9.388 -0.0696 -0.3361  0.0571
  142MOL0     C19089   6.245   7.134   9.109  0.2774 -0.1273  0.0426
  142MOL0     C19090   6.155   7.043   9.173  0.4509 -0.6991 -1.0502
  142MOL0     C19091   6.018   7.052   9.140 -0.0140 -0.4967  0.7295
  142MOL0     C19092   5.967   7.143   9.054 -0.6543  0.4437 -0.9488
  142MOL0     O19093   5.833   7.164   9.038 -0.3296  1.0417  0.0470
  142MOL0     C19094   5.780   7.287   9.080  0.7172 -0.0780 -1.0799
  142MOL0     C19095   5.635   7.297   9.059  0.4945  0.3029 -0.1626
  142MOL0     C19096   5.588   7.444   9.068  0.1187 -0.7681  0.2222
  142MOL0     C19097   5.619   7.516   9.196 -0.2013 -0.1376 -0.4786
  142MOL0     C19098   5.565   7.651   9.173  0.5512  0.8149 -0.2579
  142MOL0     C19099   5.514   7.758   9.144 -0.5127  0.7845 -0.4358
  142MOL0     C19100   6.058   7.237   8.994 -0.0242 -0.7777 -0.1514
  142MOL0     C19101   6.196   7.232   9.016 -0.3464  0.7424 -0.9851
  142MOL0     C19102   6.283   7.322   8.933 -0.1064 -0.2332  0.8790
  142MOL0     H19103   6.552   6.853   9.178 -0.5307 -0.7746  0.9670
  142MOL0     H19104   6.801   6.803   9.264  0.4242 -0.4710  0.8665
  142MOL0     H19105   7.016   7.117   9.425 -1.9311  0.0482 -0.3498
  142MOL0     H19106   6.942   7.073   9.585  0.1973 -0.6977  0.7930
  142MOL0     H19107   7.121   6.894   9.618  1.8525 -0.6502 -0.6116
  142MOL0     H19108   7.171   7.059   9.610 -1.0421  1.7073 -2.6227
  142MOL0     H19109   7.243   7.011   9.357  0.3442 -0.5406 -0.4723
  142MOL0     H19110   7.193   6.846   9.377 -0.6078  0.4963 -0.8103
  142MOL0     H19111   7.394   6.973   9.563 -2.9768  1.1315  0.5810
  142MOL0     H19112   7.343   6.802   9.552 -0.6215 -1.1245 -1.0140
  142MOL0     H19113   7.432   6.774   9.326 -0.4293 -1.1709  1.1524
  142MOL0     H19114   7.496   6.932   9.319  1.8024 -0.4852  0.8577
  142MOL0     H19115   7.652   6.896   9.510  1.1125 -0.0960 -1.3100
  142MOL0     H19116   7.607   6.727   9.502 -0.3038  0.8730  1.7034
  142MOL0     H19117   7.679   6.883   9.248  0.3267  1.8123  1.3333
  142MOL0     H19118   7.670   6.711   9.247  0.4239  1.2005 -1.9884
  142MOL0     H19119   7.864   6.860   9.410  1.9999 -0.5614 -0.6965
  142MOL0     H19120   7.846   6.685   9.412  0.0283  0.1595  0.7537
  142MOL0     H19121   7.951   6.969   9.149 -0.0577 -0.2151 -3.8253
  142MOL0     H19122   8.126   7.003   8.992 -0.7608 -0.0650 -3.4484
  142MOL0     H19123   8.263   6.896   9.001  0.7038 -1.1960 -1.9508
  142MOL0     H19124   8.019   6.888   8.798  0.0946 -0.8055 -0.9812
  142MOL0     H19125   8.165   6.954   8.765 -0.6210 -0.9829 -0.7549
  142MOL0     H19126   8.131   6.730   8.668  1.9221 -3.0976  0.5922
  142MOL0     H19127   8.119   6.656   8.824 -0.5998 -1.2853 -0.5890
  142MOL0     H19128   8.345   6.604   8.740  1.7913 -0.6730  1.6916
  142MOL0     H19129   8.349   6.697   8.890  2.2462  1.3193 -0.1339
  142MOL0     H19130   8.555   6.666   8.863 -1.4153 -1.0214 -1.7686
  142MOL0     H19131   8.813   6.684   8.856  0.9828  1.2874  0.1775
  142MOL0     H19132   9.113   7.087   8.801 -1.6100 -3.6176  0.5326
  142MOL0     H19133   9.361   7.159   8.818  0.8733 -0.7950  0.4129
  142MOL0     H19134   9.594   7.192   8.831  1.5324  0.3828  2.6929
  142MOL0     H19135   9.549   7.037   8.912  0.0035 -3.3647 -1.6055
  142MOL0     H19136   9.789   6.968   8.837  0.8351  0.7346  0.3047
  142MOL0     H19137   9.816   7.140   8.810 -0.8159  3.5031  2.1126
  142MOL0     H19138   9.736   7.169   9.070  2.7448  1.0085  1.6708
  142MOL0     H19139   9.730   6.989   9.069 -2.1222  2.1181  0.4503
  142MOL0     H19140   9.935   7.066   9.174 -1.9654  2.2749  1.0024
  142MOL0     H19141   9.953   7.185   9.045 -0.4755  0.3374  1.8659
  142MOL0     H19142  10.027   7.042   8.897 -3.7976 -0.3299  0.1331
  142MOL0     H19143  10.006   6.886   8.980  1.6290 -1.0907  2.4102
  142MOL0     H19144  10.154   7.139   9.082 -2.4578  0.0461  0.7657
  142MOL0     H19145  10.154   6.995   9.175 -3.8839 -0.7779 -0.0290
  142MOL0     H19146  10.375   7.018   9.069  0.5062  0.0987 -1.1839
  142MOL0     H19147  10.314   7.020   8.913  4.2787  0.8884  1.2824
  142MOL0     H19148  10.222   6.796   9.082 -1.3239  1.0832 -1.0978
  142MOL0     H19149  10.255   6.805   8.908  3.0366  0.0076 -1.3617
  142MOL0     H19150   9.468   6.834   8.563  0.5726  1.1163 -1.3770
  142MOL0     H19151   9.233   6.783   8.528  1.0349  1.7360 -2.3440
  142MOL0     H19152   8.767   7.014   8.595 -0.0938 -0.2379 -0.6134
  142MOL0     H19153   8.528   6.986   8.580 -3.3909  1.2492  3.7142
  142MOL0     H19154   6.764   7.159   9.507  2.5818 -1.4330 -0.7452
  142MOL0     H19155   6.523   7.188   9.423  0.1728 -0.4039  0.7050
  142MOL0     H19156   6.174   6.956   9.235 -0.0903  0.7452  1.2736
  142MOL0     H19157   5.948   6.989   9.194 -0.4663 -0.0241  0.7026
  142MOL0     H19158   5.830   7.371   9.029 -0.1720  0.9074 -0.3635
  142MOL0     H19159   5.807   7.284   9.186 -1.0108 -0.3902 -0.6312
  142MOL0     H19160   5.589   7.237   9.139  3.7568 -1.6829  0.3850
  142MOL0     H19161   5.594   7.253   8.968 -2.0196  0.4035  0.8405
  142MOL0     H19162   5.478   7.443   9.064 -0.0184  0.3082  2.2811
  142MOL0     H19163   5.632   7.493   8.981  0.0441 -3.4267 -1.4360
  142MOL0     H19164   5.570   7.454   9.272 -0.7061 -3.0911 -2.9948
  142MOL0     H19165   5.726   7.522   9.217  0.0279  1.2477 -1.8526
  142MOL0     H19166   5.467   7.854   9.130 -4.5243 -0.5961  1.9449
  142MOL0     H19167   6.016   7.313   8.929 -1.7982 -1.2844  0.3533
  142MOL0     H19168   6.338   7.387   9.002  0.4045 -1.4757  1.6695
  142MOL0     H19169   6.347   7.257   8.874  0.8285 -0.0186  1.6316
  142MOL0     H19170   6.230   7.389   8.864 -2.5265 -0.7007  2.1637
  143MOL0     O19171   6.442   6.971   1.415 -0.4307  0.0584 -0.5915
  143MOL0     C19172   6.429   7.092   1.406 -0.5012 -0.0710 -0.5099
  143MOL0     O19173   6.522   7.185   1.440 -0.5778 -0.7374 -0.1396
  143MOL0     C19174   6.654   7.152   1.455 -1.0112  0.5221 -0.0288
  143MOL0     C19175   6.719   7.228   1.554 -0.5384  0.2668  1.0133
  143MOL0     C19176   6.858   7.210   1.568  0.6772  0.2876 -0.6953
  143MOL0     C19177   6.929   7.125   1.483  0.6925  0.6246 -0.7366
  143MOL0     O19178   7.062   7.108   1.482 -0.3478 -0.3380  0.5351
  143MOL0     C19179   7.143   7.202   1.549  0.1115  0.4310  0.1522
  143MOL0     C19180   7.289   7.153   1.510  0.1497  0.5652 -0.9356
  143MOL0     C19181   7.328   7.173   1.368 -0.5852 -0.5491 -0.0358
  143MOL0     C19182   7.486   7.145   1.358 -0.0587  0.1592  0.3704
  143MOL0     C19183   7.573   7.275   1.384  0.5599 -0.5113 -0.4319
  143MOL0     C19184   7.714   7.280   1.349 -0.2716  0.0593  0.0688
  143MOL0     C19185   7.771   7.416   1.388 -0.2843  0.1962 -1.1586
  143MOL0     C19186   7.921   7.443   1.375 -0.5710  0.2050  1.0753
  143MOL0     N19187   7.945   7.583   1.434  0.0986  0.1588 -0.0405
  143MOL0     C19188   8.058   7.613   1.504 -0.7874 -0.7655 -0.5215
  143MOL0     C19189   8.045   7.747   1.540 -0.5507  0.5302 -0.5833
  143MOL0     C19190   8.131   7.857   1.602  0.0977 -0.3172  1.1490
  143MOL0     C19191   8.271   7.813   1.626 -0.2523 -0.6838 -0.0971
  143MOL0     C19192   8.329   7.886   1.749  0.2711  0.3057 -0.6877
  143MOL0     C19193   8.478   7.864   1.765  0.2293 -0.1401  0.2737
  143MOL0     O19194   8.504   7.734   1.825 -0.1204  0.9002 -0.1100
  143MOL0     C19195   8.636   7.706   1.850 -0.2198 -0.6224  0.6763
  143MOL0     C19196   8.670   7.580   1.895 -0.8989  0.6154  0.1618
  143MOL0     C19197   8.804   7.546   1.926 -1.2895  0.1111 -0.3981
  143MOL0     C19198   8.910   7.639   1.914 -0.2918  0.4960  0.2291
  143MOL0     C19199   9.046   7.597   1.954  0.1522 -0.0720  0.1777
  143MOL0     O19200   9.131   7.680   1.894  0.9678  0.7852  0.1357
  143MOL0     C19201   9.263   7.663   1.921  0.2709 -0.1425  0.3831
  143MOL0     C19202   9.341   7.774   1.960  0.1385 -0.2426 -0.0071
  143MOL0     C19203   9.483   7.764   1.974 -0.4747  0.2392 -0.3606
  143MOL0     C19204   9.546   7.638   1.953  0.7283  0.5086  0.2630
  143MOL0     O19205   9.678   7.606   1.985  0.7305  0.0944 -0.2068
  143MOL0     C19206   9.739   7.706   2.066 -0.4946 -0.6272  0.7312
  143MOL0     C19207   9.866   7.650   2.110  0.0369 -0.0992 -0.0624
  143MOL0     C19208   9.951   7.759   2.183  0.2560  0.5882 -0.6001
  143MOL0     C19209  10.103   7.732   2.180  0.8814 -0.6629  0.3942
  143MOL0     C19210  10.144   7.590   2.234 -0.1657 -0.7763  0.6731
  143MOL0     C19211  10.295   7.568   2.225  0.7999  0.4989  0.3600
  143MOL0     C19212  10.343   7.421   2.229 -0.2814  0.8704 -0.0705
  143MOL0     C19213  10.484   7.401   2.173  0.0792 -0.2981  0.4150
  143MOL0    Cl19214  10.606   7.500   2.268 -0.5551 -0.2540  0.3044
  143MOL0     C19215   9.467   7.527   1.909 -0.1447  0.3677 -0.0840
  143MOL0     C19216   9.331   7.543   1.892 -0.6778 -0.8316 -0.1732
  143MOL0     O19217   9.068   7.512   2.044  0.3529  0.7722  0.5469
  143MOL0     C19218   8.877   7.769   1.868  0.3882 -1.5060  0.3562
  143MOL0     C19219   8.740   7.800   1.842 -0.3996  0.2149 -0.6905
  143MOL0     N19220   7.913   7.776   1.508  0.5054 -0.0626  0.4731
  143MOL0     N19221   7.857   7.682   1.436  0.0748  0.2173 -0.4369
  143MOL0     C19222   6.858   7.055   1.386 -0.0955  1.0821  0.8985
  143MOL0     C19223   6.719   7.065   1.369 -0.2002  0.1546  0.1524
  143MOL0     C19224   6.288   7.146   1.375  0.1884  0.0371 -0.2238
  143MOL0     C19225   6.244   7.276   1.417  0.1771  0.4402 -0.3657
  143MOL0     C19226   6.120   7.324   1.380  0.6266  0.2238  0.2239
  143MOL0     C19227   6.037   7.252   1.288  0.8097  0.2565  0.7451
  143MOL0     O19228   5.912   7.293   1.252  0.5761  0.7332 -0.0027
  143MOL0     C19229   5.864   7.411   1.317  0.1726 -0.7573  0.2166
  143MOL0     C19230   5.726   7.455   1.260  0.3824 -0.3302 -0.2956
  143MOL0     C19231   5.614   7.365   1.323 -0.5984  0.1530 -0.0464
  143MOL0     C19232   5.472   7.402   1.273 -0.0523  0.2245 -0.7894
  143MOL0     C19233   5.439   7.541   1.319  0.8151 -0.1662  1.0983
  143MOL0     C19234   5.408   7.655   1.340  0.1046  0.3270  0.6396
  143MOL0     C19235   6.086   7.127   1.243  0.3554 -0.9650 -0.1087
  143MOL0     C19236   6.202   7.075   1.289 -0.0365  0.4340 -0.1059
  143MOL0     C19237   6.235   6.934   1.230  0.6022 -0.3877  0.5035
  143MOL0     H19238   6.669   7.296   1.623  0.4722  1.0733  0.9693
  143MOL0     H19239   6.921   7.259   1.642  0.8521  0.0205 -0.6660
  143MOL0     H19240   7.117   7.295   1.498 -0.8335 -1.2783 -2.7693
  143MOL0     H19241   7.129   7.203   1.657  3.4025 -0.0839  0.6878
  143MOL0     H19242   7.294   7.046   1.532  0.8131 -0.0573 -3.6645
  143MOL0     H19243   7.362   7.190   1.582 -0.6385 -1.1345  0.8228
  143MOL0     H19244   7.314   7.275   1.332 -2.9701 -0.3869  1.1873
  143MOL0     H19245   7.277   7.101   1.304  3.6015 -1.5591 -2.6348
  143MOL0     H19246   7.513   7.070   1.434  0.8207  1.9770  1.9487
  143MOL0     H19247   7.506   7.103   1.259 -2.9112 -0.4473 -0.0380
  143MOL0     H19248   7.525   7.357   1.329  1.5668  3.0491  3.4623
  143MOL0     H19249   7.564   7.303   1.490  0.1333  0.6896 -0.7608
  143MOL0     H19250   7.776   7.208   1.403  0.6183  0.3521 -0.5378
  143MOL0     H19251   7.726   7.261   1.241 -2.2069 -1.4773  0.0550
  143MOL0     H19252   7.748   7.439   1.493  1.0422 -1.1828 -0.5171
  143MOL0     H19253   7.719   7.492   1.330 -0.9059  0.4517 -0.2877
  143MOL0     H19254   7.982   7.366   1.424 -0.3237  0.0494  0.5295
  143MOL0     H19255   7.957   7.443   1.271  2.1823  3.0903  1.8564
  143MOL0     H19256   8.148   7.554   1.513 -3.2670 -5.0697 -1.0622
  143MOL0     H19257   8.126   7.946   1.539 -4.4697  0.0771  1.6765
  143MOL0     H19258   8.082   7.886   1.696 -1.6677 -1.4321  0.6340
  143MOL0     H19259   8.273   7.710   1.663 -2.0565 -0.2044  1.4776
  143MOL0     H19260   8.335   7.806   1.538  1.9475  1.3830  1.1961
  143MOL0     H19261   8.278   7.850   1.839 -2.9490 -1.6126 -3.0702
  143MOL0     H19262   8.327   7.995   1.740 -1.2583  0.3585  0.0674
  143MOL0     H19263   8.511   7.950   1.824 -3.3911  1.1579  0.6556
  143MOL0     H19264   8.538   7.855   1.674  1.2869  2.3056  0.6505
  143MOL0     H19265   8.593   7.504   1.892  0.4242 -0.8160  1.1805
  143MOL0     H19266   8.820   7.449   1.972 -4.0950 -0.3290 -0.1370
  143MOL0     H19267   9.311   7.877   1.977 -0.2320 -0.5487  1.2986
  143MOL0     H19268   9.530   7.860   1.992  0.4579 -0.3969  0.7441
  143MOL0     H19269   9.767   7.794   2.007  3.1454 -3.3216 -2.0297
  143MOL0     H19270   9.677   7.739   2.149 -1.1709  0.8632 -0.3177
  143MOL0     H19271   9.838   7.570   2.179  2.0731  0.1275  1.1234
  143MOL0     H19272   9.914   7.599   2.026  0.5501 -1.0185  0.7692
  143MOL0     H19273   9.929   7.855   2.136 -1.3255 -0.4616 -2.1098
  143MOL0     H19274   9.912   7.762   2.285 -1.4039  2.8309 -1.2353
  143MOL0     H19275  10.146   7.819   2.229  3.3343 -1.5731 -0.0325
  143MOL0     H19276  10.143   7.751   2.081 -2.7649  2.4512 -0.7313
  143MOL0     H19277  10.089   7.517   2.174  0.1055  0.9865 -1.8979
  143MOL0     H19278  10.112   7.590   2.339  2.0112  0.9704  1.4097
  143MOL0     H19279  10.332   7.611   2.131  0.1712  1.3340  0.4773
  143MOL0     H19280  10.334   7.629   2.307  1.1225  0.6827  0.0763
  143MOL0     H19281  10.270   7.354   2.181  0.1835 -0.5106  1.0828
  143MOL0     H19282  10.329   7.386   2.331  0.7537 -1.1231 -0.5721
  143MOL0     H19283  10.521   7.298   2.166  0.9390  0.0200  0.1385
  143MOL0     H19284  10.481   7.443   2.072  1.5475  0.7642  0.7843
  143MOL0     H19285   9.497   7.424   1.891 -0.9850  0.1918 -0.4972
  143MOL0     H19286   9.262   7.462   1.871 -2.3540  0.4097  0.2527
  143MOL0     H19287   8.946   7.852   1.874 -1.4717  0.0504  1.0096
  143MOL0     H19288   8.723   7.899   1.800 -0.5293  1.0699  1.2856
  143MOL0     H19289   6.907   6.988   1.315  1.7529  1.1739  2.0256
  143MOL0     H19290   6.666   7.025   1.283 -1.4728  4.4871 -1.3351
  143MOL0     H19291   6.306   7.346   1.471 -0.2892  0.8168 -0.3114
  143MOL0     H19292   6.097   7.422   1.420 -0.7274  0.1605 -0.3353
  143MOL0     H19293   5.924   7.502   1.308 -2.4429  1.3010  2.1846
  143MOL0     H19294   5.860   7.378   1.421 -0.3169  2.2392  1.2464
  143MOL0     H19295   5.734   7.463   1.151  2.2178 -0.1066 -0.1816
  143MOL0     H19296   5.710   7.558   1.294 -0.7291 -0.3401 -0.7468
  143MOL0     H19297   5.614   7.374   1.432  1.7050 -1.4708  0.1455
  143MOL0     H19298   5.641   7.264   1.291 -1.3566 -0.2640  0.6080
  143MOL0     H19299   5.461   7.397   1.164 -0.0668  2.9729 -0.9664
  143MOL0     H19300   5.403   7.328   1.316 -0.1371  0.9632  0.3930
  143MOL0     H19301   5.368   7.755   1.341 -1.9730 -0.4316 -0.5723
  143MOL0     H19302   6.034   7.069   1.168  1.1924 -2.1464  0.1916
  143MOL0     H19303   6.241   6.869   1.318 -1.0088 -1.6365 -0.2584
  143MOL0     H19304   6.158   6.892   1.164 -0.6252 -0.6520  2.0392
  143MOL0     H19305   6.328   6.945   1.174 -1.1319  3.3303 -2.0995
  144MOL0     O19306   4.810   1.166   4.241  0.6017  0.1792  0.3073
  144MOL0     C19307   4.775   1.133   4.127  1.1468 -0.0319 -0.1960
  144MOL0     O19308   4.852   1.073   4.033  0.3384 -0.1137  0.0913
  144MOL0     C19309   4.983   1.041   4.060  0.1083  0.4378 -0.3713
  144MOL0     C19310   5.080   1.066   3.965  0.2059  0.2473  0.0401
  144MOL0     C19311   5.218   1.018   3.967  1.0118  0.2681 -0.0389
  144MOL0     C19312   5.259   0.943   4.081  1.2017 -0.5660 -0.2090
  144MOL0     O19313   5.388   0.894   4.096  0.4615 -0.1124 -0.5957
  144MOL0     C19314   5.497   0.957   4.025  0.4788 -0.3413 -0.8507
  144MOL0     C19315   5.554   0.893   3.899  0.4203  0.1799  0.1628
  144MOL0     C19316   5.597   0.999   3.793 -0.6625  0.7551 -0.7013
  144MOL0     C19317   5.661   0.931   3.667  0.4633  0.2266 -0.3768
  144MOL0     C19318   5.686   1.018   3.552 -0.0753 -0.3757  0.0525
  144MOL0     C19319   5.798   1.118   3.567  0.3733 -0.5184  1.1065
  144MOL0     C19320   5.829   1.177   3.423 -0.9528  1.0039 -0.2860
  144MOL0     C19321   5.949   1.104   3.351 -0.0417  0.3253 -0.3672
  144MOL0     N19322   5.964   1.170   3.219  0.1959  1.0488  0.3445
  144MOL0     C19323   5.985   1.309   3.202 -0.3274  0.0549  0.3907
  144MOL0     C19324   5.984   1.334   3.069 -1.3204 -0.3151  0.2879
  144MOL0     C19325   5.982   1.467   3.009  0.0865  0.3899 -0.1868
  144MOL0     C19326   6.119   1.511   2.960 -0.4130  0.3011 -0.5823
  144MOL0     C19327   6.174   1.434   2.841 -0.1789 -0.0128  0.7580
  144MOL0     C19328   6.298   1.499   2.775 -1.4299 -0.3416  0.2011
  144MOL0     O19329   6.396   1.503   2.870 -0.8530 -0.3798 -0.8002
  144MOL0     C19330   6.528   1.530   2.830 -0.4584 -0.2221  0.4186
  144MOL0     C19331   6.624   1.504   2.928  0.0774  1.0431 -0.3869
  144MOL0     C19332   6.757   1.519   2.906  0.8506 -0.7230 -0.2475
  144MOL0     C19333   6.802   1.584   2.786  0.3976  0.1695  0.7383
  144MOL0     C19334   6.946   1.616   2.765  0.3239  1.0716  0.6118
  144MOL0     O19335   6.991   1.649   2.638 -0.4308 -0.2633 -0.0760
  144MOL0     C19336   7.128   1.668   2.614 -0.1456  0.1357  0.3565
  144MOL0     C19337   7.151   1.715   2.479 -0.0549  0.0640 -0.0915
  144MOL0     C19338   7.279   1.731   2.425 -0.4471 -0.3711  0.0343
  144MOL0     C19339   7.390   1.706   2.503 -0.8972 -0.1721 -0.1204
  144MOL0     O19340   7.515   1.717   2.448  0.2965 -0.7486 -0.7821
  144MOL0     C19341   7.541   1.831   2.354 -0.2400 -0.1455  0.4957
  144MOL0     C19342   7.528   1.967   2.414 -1.3424  0.2337  0.0221
  144MOL0     C19343   7.620   2.056   2.334  1.2071 -0.4360 -0.6643
  144MOL0     C19344   7.645   2.190   2.408 -0.5444  0.8680  0.8017
  144MOL0     C19345   7.763   2.259   2.325  0.5224  0.9841 -0.5923
  144MOL0     C19346   7.830   2.373   2.412  0.1577 -0.4097 -0.1125
  144MOL0     C19347   7.952   2.426   2.328  0.7683  0.9173  0.2198
  144MOL0     C19348   8.034   2.521   2.424 -0.1366  0.2932  1.2611
  144MOL0    Cl19349   7.943   2.679   2.441 -0.5031 -0.3289 -0.4389
  144MOL0     C19350   7.373   1.654   2.633  0.2352  0.1536 -0.4364
  144MOL0     C19351   7.242   1.639   2.685  0.2915 -0.6805 -0.7606
  144MOL0     O19352   7.015   1.607   2.866  0.4531  0.1749 -0.9892
  144MOL0     C19353   6.705   1.613   2.689 -0.6076  1.8378 -0.9115
  144MOL0     C19354   6.570   1.583   2.699  0.6752 -0.0665 -0.1054
  144MOL0     N19355   5.970   1.208   3.007 -0.2649 -0.9769  0.4505
  144MOL0     N19356   5.960   1.114   3.095 -0.2312 -0.2049  0.2466
  144MOL0     C19357   5.161   0.914   4.178 -0.6692 -0.6298 -0.0471
  144MOL0     C19358   5.032   0.966   4.172 -1.0745 -0.0073  0.4848
  144MOL0     C19359   4.644   1.158   4.074  0.0811 -0.0678 -0.1634
  144MOL0     C19360   4.629   1.203   3.941  1.0464 -0.0605  1.1032
  144MOL0     C19361   4.499   1.222   3.893  0.6543  0.5244 -0.0064
  144MOL0     C19362   4.387   1.188   3.965 -0.4812 -0.9041 -0.0533
  144MOL0     O19363   4.265   1.204   3.898 -0.2967  0.0221 -0.5391
  144MOL0     C19364   4.151   1.217   3.974 -0.5659  0.4430 -0.3889
  144MOL0     C19365   4.033   1.295   3.918 -0.1241  0.1298 -0.4454
  144MOL0     C19366   3.961   1.235   3.787  0.5808  0.0961 -0.8978
  144MOL0     C19367   4.048   1.225   3.671  0.5562  0.3938 -0.2027
  144MOL0     C19368   3.980   1.141   3.565 -0.6252  0.4487 -0.2624
  144MOL0     C19369   3.940   1.059   3.479 -0.4039  0.2321 -0.0847
  144MOL0     C19370   4.405   1.152   4.097 -0.2890 -1.0499 -0.4426
  144MOL0     C19371   4.533   1.129   4.148  0.7207  0.1014 -0.0154
  144MOL0     C19372   4.541   1.053   4.280  0.1204  0.0962 -0.6196
  144MOL0     H19373   5.043   1.115   3.876 -2.5077 -0.8393  0.4668
  144MOL0     H19374   5.287   1.024   3.883 -1.0123 -0.4127 -1.8397
  144MOL0     H19375   5.476   1.063   4.012  2.6200  0.3343  0.6097
  144MOL0     H19376   5.582   0.949   4.093 -0.5202  0.0715  0.4892
  144MOL0     H19377   5.478   0.835   3.845 -2.8794  3.3645  0.9763
  144MOL0     H19378   5.647   0.840   3.921  1.7654  0.8980 -3.1434
  144MOL0     H19379   5.660   1.074   3.843 -0.9247  0.3236  0.2973
  144MOL0     H19380   5.511   1.055   3.754 -0.3729  0.1799 -2.2363
  144MOL0     H19381   5.756   0.898   3.710  0.9081 -0.2628 -1.6825
  144MOL0     H19382   5.598   0.844   3.647 -0.8435  0.7923  1.0802
  144MOL0     H19383   5.716   0.946   3.475  0.9204  0.9249 -0.8295
  144MOL0     H19384   5.591   1.061   3.520  0.1877 -1.0845 -1.8400
  144MOL0     H19385   5.760   1.199   3.630 -0.8234  2.1203 -2.6841
  144MOL0     H19386   5.888   1.081   3.617 -0.6263 -0.7031  2.8786
  144MOL0     H19387   5.839   1.284   3.446  0.6203  0.4426  1.9741
  144MOL0     H19388   5.745   1.172   3.353  0.0975  0.1697 -1.5337
  144MOL0     H19389   6.030   1.110   3.425 -1.1324 -0.9080  0.9888
  144MOL0     H19390   5.930   0.998   3.333  2.1175 -0.0691 -0.5247
  144MOL0     H19391   6.001   1.384   3.279  0.8422 -0.9487  1.1701
  144MOL0     H19392   5.911   1.468   2.926 -1.9051 -2.4310  1.3034
  144MOL0     H19393   5.941   1.545   3.074  2.1318  1.1625  0.2455
  144MOL0     H19394   6.124   1.619   2.949  0.7493  0.1238 -2.0986
  144MOL0     H19395   6.187   1.495   3.045 -1.7936 -4.2369 -0.0488
  144MOL0     H19396   6.102   1.425   2.759  0.0501  0.2488  0.5252
  144MOL0     H19397   6.199   1.331   2.870  1.8629 -0.0637 -0.9562
  144MOL0     H19398   6.299   1.598   2.730 -2.9843 -0.6055 -0.4716
  144MOL0     H19399   6.322   1.430   2.693  1.3345  0.9535 -0.1858
  144MOL0     H19400   6.584   1.456   3.017 -1.4082  3.0453  0.1006
  144MOL0     H19401   6.833   1.491   2.978  1.2133  0.5576 -0.1040
  144MOL0     H19402   7.069   1.731   2.410  1.8104  3.4266 -1.8015
  144MOL0     H19403   7.284   1.752   2.318 -0.8855  3.1325  0.5771
  144MOL0     H19404   7.638   1.803   2.310 -1.0572 -2.5100  0.0289
  144MOL0     H19405   7.476   1.827   2.266  1.3331 -1.3565 -0.6994
  144MOL0     H19406   7.427   2.008   2.422 -0.7577  1.2908  3.6494
  144MOL0     H19407   7.571   1.948   2.512 -1.3806 -3.8106 -0.5671
  144MOL0     H19408   7.716   2.004   2.325  2.3265  1.1556  1.4481
  144MOL0     H19409   7.574   2.073   2.236 -0.6910  0.8038  0.3815
  144MOL0     H19410   7.674   2.166   2.510 -2.7559 -4.0573  0.5539
  144MOL0     H19411   7.555   2.252   2.417 -1.0074  0.3555 -0.1090
  144MOL0     H19412   7.722   2.313   2.239 -1.8662 -0.1851 -0.2596
  144MOL0     H19413   7.840   2.184   2.301 -0.2016 -0.3372  1.0654
  144MOL0     H19414   7.754   2.449   2.433  0.3461 -0.9186  2.8716
  144MOL0     H19415   7.869   2.340   2.508  1.1810  0.2828 -0.2664
  144MOL0     H19416   7.924   2.474   2.234  2.4878 -0.3015 -0.9513
  144MOL0     H19417   8.015   2.347   2.288  3.0979  2.0820  1.3376
  144MOL0     H19418   8.058   2.479   2.522  1.8183  1.8762  1.5205
  144MOL0     H19419   8.130   2.530   2.371 -0.7020 -1.6434 -0.2143
  144MOL0     H19420   7.450   1.624   2.704  0.0425  1.9037  0.5685
  144MOL0     H19421   7.240   1.619   2.791 -0.4263  2.8754  0.0309
  144MOL0     H19422   6.735   1.663   2.598  0.1752  0.1276 -1.6454
  144MOL0     H19423   6.493   1.598   2.624 -1.0264 -1.3362  1.3231
  144MOL0     H19424   5.187   0.846   4.259  0.2882  2.1822  2.1608
  144MOL0     H19425   4.960   0.937   4.247 -0.6149 -0.9816  0.5620
  144MOL0     H19426   4.709   1.222   3.870  0.5751 -1.4325  0.1547
  144MOL0     H19427   4.488   1.242   3.787  1.8063 -3.4268 -1.0323
  144MOL0     H19428   4.172   1.269   4.068 -0.7783  1.0586 -0.6735
  144MOL0     H19429   4.116   1.119   4.007 -0.6015  1.4514  2.8933
  144MOL0     H19430   4.064   1.398   3.895 -2.0734  0.7064 -0.6796
  144MOL0     H19431   3.967   1.307   4.004  0.9738  0.9299  0.3248
  144MOL0     H19432   3.869   1.292   3.768  0.6040  0.8059  0.9222
  144MOL0     H19433   3.921   1.136   3.809 -1.7331  1.2023  0.2808
  144MOL0     H19434   4.071   1.325   3.631  0.3075 -0.0904 -1.6460
  144MOL0     H19435   4.140   1.178   3.707 -0.6553 -0.5268  1.8591
  144MOL0     H19436   3.921   0.983   3.406  4.3904 -2.0505  0.6938
  144MOL0     H19437   4.321   1.139   4.164 -0.0411 -0.1811  0.0616
  144MOL0     H19438   4.620   0.977   4.277 -0.6745 -0.7338 -0.8698
  144MOL0     H19439   4.558   1.129   4.357  1.7431 -0.2265 -0.6322
  144MOL0     H19440   4.447   1.003   4.303 -1.1221  2.0745 -1.1238
  145MOL0     O19441   2.296  10.577   9.115 -0.4792 -0.3746 -0.6245
  145MOL0     C19442   2.263  10.691   9.132  0.8392  0.4647  0.0212
  145MOL0     O19443   2.343  10.794   9.117  0.0674 -0.0023  0.8309
  145MOL0     C19444   2.480  10.761   9.107  0.6346 -0.4103  0.3587
  145MOL0     C19445   2.554  10.796   8.990  0.3429  0.2620  0.2359
  145MOL0     C19446   2.693  10.791   8.987  0.1973  0.4276  0.2881
  145MOL0     C19447   2.764  10.734   9.093  0.3862  0.5029  0.5663
  145MOL0     O19448   2.901  10.745   9.086  0.1986 -0.4706 -0.3419
  145MOL0     C19449   2.972  10.690   9.197  0.2514 -0.0430  0.4749
  145MOL0     C19450   3.116  10.676   9.151 -0.3851 -0.2417 -0.1529
  145MOL0     C19451   3.202  10.609   9.260 -0.0086 -0.2488 -0.2350
  145MOL0     C19452   3.339  10.556   9.210  0.0995  0.1457 -0.1498
  145MOL0     C19453   3.438  10.652   9.142  0.8994  0.3918 -0.4247
  145MOL0     C19454   3.500  10.749   9.245 -0.1822 -0.3343  0.2574
  145MOL0     C19455   3.574  10.853   9.161 -0.3477 -0.7002  0.0285
  145MOL0     C19456   3.710  10.794   9.108 -0.0829 -0.1611 -0.0360
  145MOL0     N19457   3.806  10.900   9.074 -0.3705 -0.1231 -0.3464
  145MOL0     C19458   3.907  10.958   9.147  0.8267 -0.7220 -0.2361
  145MOL0     C19459   3.960  11.048   9.066 -0.1964 -0.2643 -0.3127
  145MOL0     C19460   4.058  11.153   9.089  0.2045 -0.2723 -0.3444
  145MOL0     C19461   4.186  11.122   9.005 -0.3322 -0.4218 -0.1186
  145MOL0     C19462   4.290  11.231   9.036 -0.4510  0.2773 -0.0617
  145MOL0     C19463   4.394  11.250   8.925  0.7932 -0.5898  0.6259
  145MOL0     O19464   4.488  11.341   8.975 -0.2115 -0.0711 -0.3762
  145MOL0     C19465   4.614  11.332   8.913  0.3434  1.1492 -0.4230
  145MOL0     C19466   4.709  11.405   8.994  0.2194 -0.2491 -0.0167
  145MOL0     C19467   4.838  11.446   8.950  0.2060  0.5334 -0.0574
  145MOL0     C19468   4.877  11.379   8.828  0.0847 -0.2854  0.8845
  145MOL0     C19469   5.015  11.389   8.782  0.0254  0.0356  0.4590
  145MOL0     O19470   5.113  11.409   8.871  0.1111  0.0805 -0.0492
  145MOL0     C19471   5.239  11.442   8.824  0.4744 -0.6819 -0.2205
  145MOL0     C19472   5.269  11.578   8.792 -0.5251  0.5978  0.1592
  145MOL0     C19473   5.397  11.613   8.753 -0.8861  0.4278  0.6554
  145MOL0     C19474   5.492  11.509   8.748 -0.3252 -0.2683 -0.0313
  145MOL0     O19475   5.623  11.540   8.717  0.3367 -0.3379  0.0856
  145MOL0     C19476   5.675  11.668   8.754 -0.4983 -0.4434  0.3669
  145MOL0     C19477   5.819  11.648   8.730 -0.3578 -0.6450 -0.1891
  145MOL0     C19478   5.905  11.762   8.775 -0.1568 -0.3566 -0.4790
  145MOL0     C19479   6.049  11.725   8.750 -0.3515  0.2194  0.9175
  145MOL0     C19480   6.132  11.837   8.795  0.0571 -0.5931 -0.8129
  145MOL0     C19481   6.102  11.985   8.738 -0.4402 -0.4866 -0.3800
  145MOL0     C19482   6.228  12.080   8.741 -0.2977  0.3908 -0.1730
  145MOL0     C19483   6.228  12.162   8.866 -0.1501  0.0495 -0.0153
  145MOL0    Cl19484   6.391  12.235   8.914 -0.3775  0.1621 -0.2364
  145MOL0     C19485   5.465  11.378   8.783 -0.6274 -1.3012  0.0013
  145MOL0     C19486   5.339  11.349   8.823 -0.9022  0.4158 -1.0702
  145MOL0     O19487   5.038  11.404   8.659  0.1202  0.2386 -0.3383
  145MOL0     C19488   4.780  11.315   8.738  0.1161  0.4035  0.0946
  145MOL0     C19489   4.653  11.294   8.790 -0.2749 -0.0393  0.3155
  145MOL0     N19490   3.904  11.046   8.941  0.9197  0.7384  0.3245
  145MOL0     N19491   3.814  10.953   8.944  0.3781  0.2304  0.0651
  145MOL0     C19492   2.693  10.702   9.210 -0.2910  1.0684 -0.3447
  145MOL0     C19493   2.552  10.713   9.212  0.1083 -0.0682 -0.4180
  145MOL0     C19494   2.120  10.716   9.160 -0.2667  0.0322  0.1416
  145MOL0     C19495   2.029  10.622   9.100 -0.3930  1.2349  0.0374
  145MOL0     C19496   1.890  10.638   9.108 -0.3268 -0.2477 -0.2845
  145MOL0     C19497   1.834  10.749   9.171 -0.5929 -0.4872 -0.9931
  145MOL0     O19498   1.706  10.775   9.192  0.1285  0.2001 -0.1576
  145MOL0     C19499   1.607  10.679   9.152 -0.4794 -0.7764 -0.0799
  145MOL0     C19500   1.473  10.734   9.188 -0.6741  1.0666  0.1215
  145MOL0     C19501   1.364  10.625   9.244  0.7739 -0.1873 -0.9500
  145MOL0     C19502   1.326  10.669   9.385 -0.9418  0.3422  0.2814
  145MOL0     C19503   1.239  10.793   9.373  0.3468 -0.0428  0.3628
  145MOL0     C19504   1.180  10.896   9.355 -0.4160  0.5508  0.0882
  145MOL0     C19505   1.929  10.838   9.230  0.9728 -0.4533  0.3790
  145MOL0     C19506   2.064  10.825   9.227  0.1650 -0.1334 -0.5985
  145MOL0     C19507   2.153  10.925   9.310  0.1078  0.6285  0.7159
  145MOL0     H19508   2.505  10.823   8.897  1.3885 -0.9909 -0.7079
  145MOL0     H19509   2.741  10.824   8.896 -0.2141 -0.7244 -0.3650
  145MOL0     H19510   2.963  10.764   9.277 -1.0577  2.5324 -1.8830
  145MOL0     H19511   2.930  10.593   9.224  0.8314 -0.3083  0.4532
  145MOL0     H19512   3.150  10.777   9.128 -1.9402  0.1330 -0.9680
  145MOL0     H19513   3.137  10.611   9.066 -0.2003  1.7795 -1.7292
  145MOL0     H19514   3.145  10.526   9.304 -0.7937  1.3549  1.9759
  145MOL0     H19515   3.220  10.675   9.345 -1.8658  1.9676 -1.4479
  145MOL0     H19516   3.390  10.510   9.296  0.7660  2.5677  0.8246
  145MOL0     H19517   3.311  10.475   9.142  1.3775 -1.8417  1.5387
  145MOL0     H19518   3.509  10.605   9.073  2.7276  3.8146 -1.0871
  145MOL0     H19519   3.377  10.715   9.077  0.9923  0.6450 -0.2679
  145MOL0     H19520   3.430  10.799   9.311  0.0513 -1.5600  1.4684
  145MOL0     H19521   3.575  10.705   9.311  1.4526  2.2070  0.2827
  145MOL0     H19522   3.593  10.928   9.238  0.5089 -0.5752 -0.2869
  145MOL0     H19523   3.512  10.887   9.077  1.6481 -0.0925 -1.2718
  145MOL0     H19524   3.767  10.746   9.188 -0.4746  1.5019  1.2918
  145MOL0     H19525   3.706  10.725   9.023 -0.4684  0.8813 -0.8774
  145MOL0     H19526   3.946  10.942   9.247 -1.9047 -3.6531  0.5451
  145MOL0     H19527   4.017  11.251   9.062  1.5762  0.5309  0.3552
  145MOL0     H19528   4.082  11.167   9.195  1.2399  2.1098 -0.8156
  145MOL0     H19529   4.225  11.025   9.037 -0.6985 -0.3500  0.5801
  145MOL0     H19530   4.156  11.112   8.901 -3.9314 -0.8093  0.8038
  145MOL0     H19531   4.335  11.193   9.128 -1.9328  0.1619  0.6418
  145MOL0     H19532   4.246  11.330   9.050 -1.8676 -0.2910 -0.3388
  145MOL0     H19533   4.345  11.288   8.834  1.7908  0.0811  0.3555
  145MOL0     H19534   4.435  11.155   8.892 -0.3001 -1.7057  2.3253
  145MOL0     H19535   4.674  11.451   9.086 -2.3881  0.2312 -1.1701
  145MOL0     H19536   4.903  11.510   9.009  2.4120 -1.1790 -0.4977
  145MOL0     H19537   5.192  11.653   8.778 -1.5477 -0.2896  0.9057
  145MOL0     H19538   5.433  11.714   8.737  0.5235 -0.4315 -2.2051
  145MOL0     H19539   5.636  11.733   8.675 -0.3477 -2.5647 -1.5330
  145MOL0     H19540   5.659  11.700   8.857  2.1272 -0.1343  0.7554
  145MOL0     H19541   5.853  11.549   8.762 -1.4061 -0.9388  0.0539
  145MOL0     H19542   5.835  11.649   8.622 -0.3721  1.9817 -0.2443
  145MOL0     H19543   5.886  11.849   8.711  1.7508 -1.0273 -2.0528
  145MOL0     H19544   5.877  11.780   8.880 -5.1585 -4.0199 -0.8321
  145MOL0     H19545   6.079  11.697   8.648 -1.4439  0.3654  0.5340
  145MOL0     H19546   6.075  11.640   8.814 -0.4092 -0.1554  0.4577
  145MOL0     H19547   6.238  11.813   8.789  0.3423 -0.0547  1.3286
  145MOL0     H19548   6.128  11.845   8.904 -0.6259  0.3970 -0.8961
  145MOL0     H19549   6.071  11.973   8.634  0.8867 -2.4070 -0.5896
  145MOL0     H19550   6.024  12.036   8.795  1.0626  1.6000 -0.0613
  145MOL0     H19551   6.221  12.138   8.649 -0.7362  3.1767  1.4615
  145MOL0     H19552   6.320  12.023   8.756 -0.3483  0.5702  0.9756
  145MOL0     H19553   6.155  12.243   8.854  1.3677  1.2993 -1.4022
  145MOL0     H19554   6.207  12.103   8.956  1.7917  1.3799  1.3904
  145MOL0     H19555   5.540  11.300   8.782  1.6891  0.7644  1.6263
  145MOL0     H19556   5.315  11.250   8.860  0.6327  1.0594  2.0026
  145MOL0     H19557   4.820  11.267   8.649 -0.3479 -1.6392  0.9337
  145MOL0     H19558   4.593  11.243   8.715  2.9385 -0.6836 -2.0803
  145MOL0     H19559   2.744  10.673   9.301 -1.2385 -0.5953 -0.2982
  145MOL0     H19560   2.500  10.706   9.307  0.1181  0.9750 -0.3276
  145MOL0     H19561   2.057  10.528   9.052 -4.1260 -0.3308  0.5370
  145MOL0     H19562   1.820  10.573   9.057  0.1882 -0.0520 -1.2680
  145MOL0     H19563   1.625  10.584   9.203  1.7059 -0.8175 -0.8501
  145MOL0     H19564   1.600  10.659   9.045 -0.9941 -0.5258 -0.0976
  145MOL0     H19565   1.433  10.783   9.099  0.3794  2.0688  0.1792
  145MOL0     H19566   1.485  10.813   9.263 -1.2079 -0.7975  2.2665
  145MOL0     H19567   1.405  10.524   9.256 -0.2105 -0.5132 -0.2518
  145MOL0     H19568   1.279  10.620   9.176  0.2902  0.9148 -0.4397
  145MOL0     H19569   1.266  10.588   9.428 -0.1961 -0.7984 -0.7655
  145MOL0     H19570   1.417  10.677   9.444 -1.3248 -0.7404  1.0635
  145MOL0     H19571   1.128  10.989   9.348  0.7596  1.7602  4.2132
  145MOL0     H19572   1.883  10.922   9.281 -1.1574 -0.1582 -1.8461
  145MOL0     H19573   2.216  10.868   9.379  0.0775 -1.1564 -0.6795
  145MOL0     H19574   2.220  10.982   9.246  0.2145 -1.1931 -0.8789
  145MOL0     H19575   2.082  10.987   9.366 -2.1933 -0.6292 -0.6851
  146MOL0     O19576   9.596  10.716   3.952 -0.7722  0.4883  0.3572
  146MOL0     C19577   9.554  10.602   3.946  0.0270  0.0572  0.0062
  146MOL0     O19578   9.632  10.492   3.965  0.8460 -0.0729 -0.1390
  146MOL0     C19579   9.773  10.491   3.965 -1.2203 -0.6921  0.6358
  146MOL0     C19580   9.826  10.361   3.969  0.5020 -0.8344  0.1609
  146MOL0     C19581   9.965  10.338   3.965 -0.1877 -0.2039  0.1751
  146MOL0     C19582  10.052  10.445   3.972 -0.8918 -0.0276  0.6728
  146MOL0     O19583  10.186  10.433   3.995  0.0000 -0.7108 -0.7187
  146MOL0     C19584  10.248  10.309   4.032 -0.0063  1.1110  0.1856
  146MOL0     C19585  10.362  10.336   4.129  0.1092  0.0578  0.0344
  146MOL0     C19586  10.486  10.401   4.056 -0.1606 -0.1726 -0.0070
  146MOL0     C19587  10.577  10.476   4.156  0.2760  0.1648  0.9039
  146MOL0     C19588  10.707  10.541   4.090 -0.9300  0.6834 -0.4309
  146MOL0     C19589  10.818  10.441   4.073  0.3814 -0.6176  0.7728
  146MOL0     C19590  10.953  10.511   4.051  0.1306  0.1752 -0.0576
  146MOL0     C19591  11.056  10.390   4.054  0.5419  1.1039 -0.1800
  146MOL0     N19592  11.196  10.421   4.025 -0.2111  0.1688  0.3950
  146MOL0     C19593  11.293  10.327   4.011  0.1528 -0.5947 -0.1456
  146MOL0     C19594  11.399  10.395   3.962  0.0358 -0.4656 -0.6059
  146MOL0     C19595  11.533  10.347   3.927  0.6975  0.1478 -0.3341
  146MOL0     C19596  11.597  10.264   4.041 -0.1598 -0.1421  0.3246
  146MOL0     C19597  11.716  10.177   3.993 -0.8598 -0.0264 -0.7832
  146MOL0     C19598  11.825  10.260   3.941 -0.5465 -0.2196 -0.9028
  146MOL0     O19599  11.885  10.357   4.035  0.1383  0.3325  0.0074
  146MOL0     C19600  12.002  10.323   4.090 -0.3089 -0.0002  0.5634
  146MOL0     C19601  12.016  10.239   4.200 -0.1314  0.0191 -0.1113
  146MOL0     C19602  12.142  10.196   4.245 -0.0368  0.5622 -0.1543
  146MOL0     C19603  12.258  10.251   4.184  0.7522 -1.0790 -0.5216
  146MOL0     C19604  12.386  10.199   4.237  0.0993 -0.4134  0.3461
  146MOL0     O19605  12.385  10.143   4.365 -0.2727 -0.4381 -0.2065
  146MOL0     C19606  12.492  10.078   4.426  0.4739 -0.6804  0.1702
  146MOL0     C19607  12.626  10.110   4.409  0.7803  0.4342  0.0743
  146MOL0     C19608  12.723  10.045   4.490 -0.9560 -0.0375  0.1001
  146MOL0     C19609  12.689   9.938   4.565  0.2631  0.7816  0.3321
  146MOL0     O19610  12.774   9.869   4.641 -0.0599 -0.0523  0.6687
  146MOL0     C19611  12.910   9.852   4.583 -0.1592 -0.6211  0.2534
  146MOL0     C19612  13.006   9.812   4.691  0.6329  0.2023 -0.2551
  146MOL0     C19613  13.145   9.841   4.651 -0.4278  0.1529 -0.3983
  146MOL0     C19614  13.237   9.774   4.755  0.0951  0.8276  0.0299
  146MOL0     C19615  13.369   9.859   4.762 -0.3590  0.5102 -0.1558
  146MOL0     C19616  13.350   9.979   4.856 -0.0034  0.5349 -0.4573
  146MOL0     C19617  13.472  10.064   4.843  0.0432  0.0866 -0.5759
  146MOL0     C19618  13.488  10.164   4.961 -0.4794  0.8096  1.1131
  146MOL0    Cl19619  13.636  10.262   4.962 -0.1768  0.0406 -0.2452
  146MOL0     C19620  12.554   9.894   4.566 -0.5929  0.0974 -0.0953
  146MOL0     C19621  12.456   9.964   4.501 -0.1178 -0.4755  0.2272
  146MOL0     O19622  12.482  10.200   4.165  0.2122  0.0763 -0.0190
  146MOL0     C19623  12.249  10.331   4.076 -0.1976 -0.4792  1.1011
  146MOL0     C19624  12.118  10.376   4.032 -0.6862  0.0312  0.5134
  146MOL0     N19625  11.355  10.530   3.952  0.3917  0.0414  0.3895
  146MOL0     N19626  11.230  10.541   3.978 -0.4897 -0.3566 -0.0899
  146MOL0     C19627  10.005  10.577   3.965 -0.4598  0.8145 -0.0842
  146MOL0     C19628   9.867  10.598   3.956 -0.3384  0.4293 -0.9153
  146MOL0     C19629   9.403  10.592   3.932  0.3659  0.1619 -0.5988
  146MOL0     C19630   9.338  10.705   3.890  0.6777 -0.1403  0.2643
  146MOL0     C19631   9.204  10.704   3.869 -0.2765  0.1521 -0.9690
  146MOL0     C19632   9.119  10.584   3.894 -0.2191 -0.4134 -0.7758
  146MOL0     O19633   8.981  10.608   3.909 -0.6129 -0.2867 -0.6054
  146MOL0     C19634   8.909  10.520   3.988  0.7463 -0.0933 -0.2095
  146MOL0     C19635   8.858  10.401   3.908 -0.1727  0.5606  0.1809
  146MOL0     C19636   8.775  10.314   3.987  0.4402  0.3219 -0.3963
  146MOL0     C19637   8.841  10.263   4.119 -0.4212 -0.3532  0.7543
  146MOL0     C19638   8.962  10.180   4.098 -0.3988  0.1204  0.3691
  146MOL0     C19639   9.064  10.121   4.071  0.1422 -0.4093 -0.3544
  146MOL0     C19640   9.183  10.467   3.923  0.0708 -0.6062  0.1866
  146MOL0     C19641   9.324  10.467   3.947 -0.2783  0.3166 -0.3447
  146MOL0     C19642   9.386  10.331   3.974 -0.5780 -0.5978  0.3102
  146MOL0     H19643   9.757  10.278   3.978 -0.9409  0.2591 -0.3838
  146MOL0     H19644   9.992  10.233   3.970 -0.5723 -0.2503  1.9934
  146MOL0     H19645  10.172  10.241   4.071 -1.5522  1.1876 -2.4949
  146MOL0     H19646  10.302  10.268   3.946  0.3434 -1.4967  1.5544
  146MOL0     H19647  10.398  10.241   4.170 -2.7311  0.3798  3.9160
  146MOL0     H19648  10.304  10.399   4.198 -0.5950  1.3579 -1.6775
  146MOL0     H19649  10.456  10.477   3.984  0.4396  0.7925  0.7341
  146MOL0     H19650  10.539  10.319   4.008 -0.1318 -0.5635  0.6760
  146MOL0     H19651  10.525  10.559   4.204  2.5255  0.9126  2.1739
  146MOL0     H19652  10.610  10.405   4.232 -3.6379 -3.2862 -0.2044
  146MOL0     H19653  10.681  10.597   3.999 -1.2656  0.3766 -0.5244
  146MOL0     H19654  10.741  10.623   4.154 -0.4194  0.5345 -0.5108
  146MOL0     H19655  10.827  10.386   4.168  0.1183  0.2116  1.2915
  146MOL0     H19656  10.792  10.377   3.988  0.0507  1.9583 -1.1759
  146MOL0     H19657  10.976  10.587   4.127  0.7533 -0.1503  0.0889
  146MOL0     H19658  10.954  10.558   3.952  2.0813 -0.7328 -0.5106
  146MOL0     H19659  11.047  10.351   4.156 -0.6941  1.3810 -0.1704
  146MOL0     H19660  11.018  10.308   3.994 -0.4185  1.0386  0.4918
  146MOL0     H19661  11.289  10.223   4.044  2.8920 -0.1268  2.0182
  146MOL0     H19662  11.515  10.278   3.844 -0.8549  0.8704 -0.6373
  146MOL0     H19663  11.588  10.434   3.888  1.2055  0.2601  0.6145
  146MOL0     H19664  11.617  10.341   4.115 -1.8633  0.4555  0.2074
  146MOL0     H19665  11.529  10.200   4.096 -0.5108 -0.9741 -1.0263
  146MOL0     H19666  11.690  10.097   3.923  1.9922 -2.6274  0.8457
  146MOL0     H19667  11.757  10.120   4.077 -0.6531  1.0856 -0.1029
  146MOL0     H19668  11.791  10.313   3.852  0.4642  1.1969 -0.4847
  146MOL0     H19669  11.905  10.197   3.902  0.2544 -1.1740  2.0122
  146MOL0     H19670  11.925  10.207   4.251 -1.3306  0.6371 -1.7448
  146MOL0     H19671  12.147  10.131   4.332 -1.1567  0.0578 -0.4587
  146MOL0     H19672  12.650  10.198   4.351  0.8646  0.2692 -0.1397
  146MOL0     H19673  12.821  10.090   4.499 -0.5640 -1.2063  2.2592
  146MOL0     H19674  12.896   9.770   4.512 -1.4769 -0.8377  0.7351
  146MOL0     H19675  12.950   9.941   4.534  1.3059 -0.0448  2.3762
  146MOL0     H19676  12.979   9.865   4.783  1.2534  2.1744 -1.1538
  146MOL0     H19677  12.996   9.703   4.702 -0.9765  0.4305  0.8385
  146MOL0     H19678  13.167   9.808   4.549 -3.2941 -1.9923 -0.4460
  146MOL0     H19679  13.159   9.949   4.649 -1.0645  0.2648  0.8003
  146MOL0     H19680  13.244   9.667   4.733  2.5363  0.2606  2.9543
  146MOL0     H19681  13.196   9.777   4.856  2.4073  1.2869  1.0025
  146MOL0     H19682  13.408   9.886   4.663 -1.5063  2.1941 -0.1854
  146MOL0     H19683  13.443   9.796   4.813  1.5679  1.7714 -1.2700
  146MOL0     H19684  13.261  10.041   4.839  0.6272  1.0600 -2.0085
  146MOL0     H19685  13.342   9.939   4.957 -1.0864  1.5345 -0.1245
  146MOL0     H19686  13.470  10.111   4.745  1.5120  0.7770 -0.2964
  146MOL0     H19687  13.561  10.001   4.844 -0.0189 -0.0035 -0.7759
  146MOL0     H19688  13.408  10.239   4.966 -0.3778  0.8670  2.0855
  146MOL0     H19689  13.491  10.097   5.047  1.3617 -1.2297 -0.4376
  146MOL0     H19690  12.526   9.805   4.623  0.2125  0.6300  1.1664
  146MOL0     H19691  12.355   9.925   4.493  0.1412 -0.7231 -4.2745
  146MOL0     H19692  12.347  10.346   4.032 -0.1036 -3.2135  0.2122
  146MOL0     H19693  12.096  10.424   3.937  2.7425 -1.6242 -1.3317
  146MOL0     H19694  10.073  10.662   3.968  0.6650  0.1392 -3.0616
  146MOL0     H19695   9.832  10.700   3.946 -0.3859  0.4407 -0.6479
  146MOL0     H19696   9.392  10.795   3.863  0.7470 -0.7688 -1.7980
  146MOL0     H19697   9.162  10.803   3.851 -1.2463  0.1396  0.9624
  146MOL0     H19698   8.822  10.574   4.028  1.1440  2.0916 -2.0937
  146MOL0     H19699   8.969  10.493   4.076 -0.1166  1.7260  1.0134
  146MOL0     H19700   8.942  10.350   3.862 -0.8382  1.6891 -2.4674
  146MOL0     H19701   8.797  10.428   3.822  0.0355 -2.1949 -0.9099
  146MOL0     H19702   8.740  10.231   3.925  1.4391 -0.4264 -0.0048
  146MOL0     H19703   8.687  10.373   4.015  1.5536  1.2674  1.2751
  146MOL0     H19704   8.858  10.349   4.185 -2.3809 -0.8436  1.9896
  146MOL0     H19705   8.773  10.189   4.162  0.1666 -2.3550 -1.5395
  146MOL0     H19706   9.152  10.059   4.063  1.1500  1.2570 -3.9763
  146MOL0     H19707   9.130  10.374   3.940  1.8883 -2.1498 -2.0488
  146MOL0     H19708   9.448  10.300   3.890  0.9773 -2.7999  2.1432
  146MOL0     H19709   9.461  10.336   4.053  0.5482  0.5728 -0.7830
  146MOL0     H19710   9.316  10.251   3.998 -1.2733  0.5538  2.3924
  147MOL0     O19711   4.083   1.540  10.067  0.2150  1.3040 -0.0236
  147MOL0     C19712   4.041   1.485  10.171 -0.2161 -0.5267  0.0706
  147MOL0     O19713   4.111   1.445  10.273 -0.3484 -0.4282 -0.2810
  147MOL0     C19714   4.253   1.431  10.271  0.4261  0.3549 -0.2786
  147MOL0     C19715   4.301   1.302  10.305 -0.2893 -0.4841 -0.0017
  147MOL0     C19716   4.431   1.259  10.294  0.3498  0.7461  0.0652
  147MOL0     C19717   4.529   1.361  10.262 -0.6845  0.0303  0.9638
  147MOL0     O19718   4.663   1.339  10.254 -0.2045  0.0019 -0.4134
  147MOL0     C19719   4.727   1.270  10.368  1.0889 -0.1510 -0.0501
  147MOL0     C19720   4.873   1.298  10.362 -0.2534 -0.1370 -0.0644
  147MOL0     C19721   4.901   1.423  10.447 -0.5916  0.4560 -0.1630
  147MOL0     C19722   5.048   1.472  10.415 -0.1528  0.4581  0.5285
  147MOL0     C19723   5.072   1.516  10.266 -0.2485  0.5553  0.5396
  147MOL0     C19724   5.158   1.636  10.227 -0.2967 -0.7080 -0.3324
  147MOL0     C19725   5.301   1.605  10.290 -0.1625 -0.7312  0.0171
  147MOL0     C19726   5.406   1.696  10.230 -0.5167 -0.9468 -0.1787
  147MOL0     N19727   5.386   1.836  10.270  0.3623  0.4425 -0.6084
  147MOL0     C19728   5.424   1.890  10.388 -0.0435 -0.5450 -0.7333
  147MOL0     C19729   5.407   2.028  10.373 -0.2455 -0.6089  0.3547
  147MOL0     C19730   5.439   2.124  10.482  0.1417 -0.6971 -0.2445
  147MOL0     C19731   5.350   2.135  10.606  0.1214 -0.4574 -0.1199
  147MOL0     C19732   5.373   2.268  10.693 -0.2456  0.2876 -0.5826
  147MOL0     C19733   5.519   2.295  10.729  0.7684 -0.2255  0.7797
  147MOL0     O19734   5.580   2.173  10.772  0.3551 -0.0429  0.7259
  147MOL0     C19735   5.715   2.163  10.759  0.2028 -0.2374  0.6619
  147MOL0     C19736   5.777   2.035  10.735 -0.8707 -0.3655  0.1488
  147MOL0     C19737   5.916   2.032  10.742 -1.0681  0.4781 -0.2682
  147MOL0     C19738   5.996   2.150  10.771 -0.2244 -1.0440 -0.0573
  147MOL0     C19739   6.146   2.146  10.757  0.1983 -1.0761  0.2012
  147MOL0     O19740   6.211   2.260  10.795  0.4903 -0.9439  0.5489
  147MOL0     C19741   6.345   2.272  10.808 -0.4775 -1.3062 -0.1109
  147MOL0     C19742   6.443   2.168  10.813 -0.4198 -0.4726 -0.6347
  147MOL0     C19743   6.578   2.188  10.816  0.3778  0.1782  0.1607
  147MOL0     C19744   6.632   2.318  10.809  0.4689 -0.0242 -0.0609
  147MOL0     O19745   6.769   2.350  10.802 -0.0647 -0.3966 -0.0396
  147MOL0     C19746   6.871   2.247  10.792  0.8401 -0.6705  0.1640
  147MOL0     C19747   6.998   2.290  10.711 -0.1462 -0.2921  0.5309
  147MOL0     C19748   7.083   2.371  10.807 -0.0380  0.9313 -0.0909
  147MOL0     C19749   7.199   2.438  10.737 -0.1873  0.6632 -0.0927
  147MOL0     C19750   7.308   2.493  10.837  0.4092  0.5726 -0.0935
  147MOL0     C19751   7.419   2.563  10.756  0.3505  0.2050  0.0148
  147MOL0     C19752   7.509   2.490  10.659  0.4682  0.2432 -0.5992
  147MOL0     C19753   7.566   2.346  10.697 -0.2418 -0.1537  0.0336
  147MOL0    Cl19754   7.606   2.341  10.875  0.4863  0.2573  0.9509
  147MOL0     C19755   6.549   2.422  10.811  0.7589  0.2204  0.5761
  147MOL0     C19756   6.406   2.405  10.793  1.0152  0.3902  0.2555
  147MOL0     O19757   6.198   2.043  10.719  0.2279  0.6398  0.3888
  147MOL0     C19758   5.930   2.275  10.788 -0.5026  0.0793  0.1166
  147MOL0     C19759   5.797   2.280  10.782  0.1224 -0.0670  0.7839
  147MOL0     N19760   5.366   2.054  10.240  0.0917 -0.8109 -0.4041
  147MOL0     N19761   5.356   1.940  10.184 -0.3135  0.1837 -0.0648
  147MOL0     C19762   4.491   1.489  10.233  0.5014 -0.2567 -0.3593
  147MOL0     C19763   4.353   1.526  10.241 -0.4866 -0.0821 -0.1300
  147MOL0     C19764   3.889   1.471  10.186 -0.7246 -0.5603 -0.5582
  147MOL0     C19765   3.821   1.569  10.116 -0.3731  0.0183 -0.2565
  147MOL0     C19766   3.685   1.573  10.133  0.1276  0.0199  0.5497
  147MOL0     C19767   3.617   1.479  10.207  0.1226  0.0588 -0.2964
  147MOL0     O19768   3.482   1.497  10.212 -0.0428  0.8682 -0.1513
  147MOL0     C19769   3.397   1.387  10.193 -0.0455  1.0603  0.0937
  147MOL0     C19770   3.292   1.363  10.308  0.2805  0.1206  0.3788
  147MOL0     C19771   3.361   1.349  10.444 -0.3356 -0.8317  0.0738
  147MOL0     C19772   3.285   1.326  10.570  0.0527  0.8370  0.5080
  147MOL0     C19773   3.175   1.419  10.595  0.8819  0.0039  0.8664
  147MOL0     C19774   3.072   1.486  10.614 -0.7429  0.2140  0.1508
  147MOL0     C19775   3.686   1.388  10.279  0.0495 -0.3033  0.7963
  147MOL0     C19776   3.826   1.372  10.267  0.4812  0.5969  0.3608
  147MOL0     C19777   3.899   1.256  10.328 -0.5759  0.4042 -0.1236
  147MOL0     H19778   4.216   1.242  10.338 -0.2790 -0.4957  0.0037
  147MOL0     H19779   4.466   1.158  10.312 -1.3570  0.2275  0.6857
  147MOL0     H19780   4.681   1.309  10.460 -3.9236 -1.5302 -1.6520
  147MOL0     H19781   4.707   1.162  10.360  0.2495  0.0186 -0.3879
  147MOL0     H19782   4.885   1.327  10.257 -0.5152 -2.4933 -0.8182
  147MOL0     H19783   4.943   1.214  10.372  0.7258  0.7121  0.4525
  147MOL0     H19784   4.886   1.387  10.549 -0.0470 -0.0690 -0.2620
  147MOL0     H19785   4.820   1.493  10.426 -0.1746  0.5032 -1.7995
  147MOL0     H19786   5.066   1.553  10.488  0.1825 -0.8317  1.9329
  147MOL0     H19787   5.116   1.391  10.443 -0.3319  0.5860  1.3616
  147MOL0     H19788   5.093   1.424  10.211  3.0235  1.1303  0.6405
  147MOL0     H19789   4.973   1.547  10.230  0.4217  1.6635 -0.4376
  147MOL0     H19790   5.172   1.640  10.119  2.1777 -3.6889 -0.2652
  147MOL0     H19791   5.112   1.727  10.266  1.9048  2.8138 -5.0004
  147MOL0     H19792   5.314   1.499  10.266 -1.5341 -1.3906  1.9186
  147MOL0     H19793   5.299   1.605  10.399 -2.7121  1.3982  0.0713
  147MOL0     H19794   5.507   1.661  10.251 -0.7691 -1.0329  0.9710
  147MOL0     H19795   5.405   1.693  10.121  1.7857 -0.3660 -0.2649
  147MOL0     H19796   5.467   1.842  10.475 -1.6040 -1.1778 -0.2887
  147MOL0     H19797   5.540   2.093  10.509 -0.2861 -2.5798 -0.6620
  147MOL0     H19798   5.433   2.229  10.452 -0.9221 -0.2615  1.4033
  147MOL0     H19799   5.252   2.145  10.558 -0.2062 -2.0338  0.1600
  147MOL0     H19800   5.353   2.040  10.660 -1.8685 -1.7633 -2.1302
  147MOL0     H19801   5.314   2.261  10.785  1.6491 -1.1277  0.5974
  147MOL0     H19802   5.334   2.353  10.636 -0.5914  0.7689  0.3516
  147MOL0     H19803   5.528   2.375  10.803  3.2302  1.4361 -1.1262
  147MOL0     H19804   5.568   2.335  10.640 -2.1785  2.4270  0.1903
  147MOL0     H19805   5.720   1.943  10.730 -1.3997 -0.0014 -0.6608
  147MOL0     H19806   5.969   1.940  10.723  1.0783  1.5568  0.2322
  147MOL0     H19807   6.416   2.063  10.807 -2.2454 -0.1009  0.3016
  147MOL0     H19808   6.633   2.094  10.815 -0.6992 -0.4881 -1.3387
  147MOL0     H19809   6.892   2.196  10.887  0.6642 -3.2558 -1.1079
  147MOL0     H19810   6.827   2.165  10.735  4.4920 -2.1313 -0.8455
  147MOL0     H19811   7.056   2.202  10.682 -0.6679 -0.3874 -0.2767
  147MOL0     H19812   6.976   2.338  10.615  1.0151 -1.6025 -0.4321
  147MOL0     H19813   7.017   2.441  10.858  1.0576  0.0878  2.6376
  147MOL0     H19814   7.118   2.297  10.880 -0.7120 -1.2277 -1.8193
  147MOL0     H19815   7.159   2.518  10.675  4.0638  1.8895 -1.6384
  147MOL0     H19816   7.237   2.367  10.663 -2.1615  2.3842 -2.9257
  147MOL0     H19817   7.341   2.407  10.895  1.8408 -0.9016 -2.9035
  147MOL0     H19818   7.263   2.571  10.900  0.9475  1.8060 -1.2010
  147MOL0     H19819   7.377   2.655  10.715 -0.4552 -0.8369 -1.6197
  147MOL0     H19820   7.479   2.599  10.839 -0.7104 -1.0178  1.3685
  147MOL0     H19821   7.592   2.561  10.653 -0.2226  0.9890 -1.6295
  147MOL0     H19822   7.461   2.474  10.562 -1.3171 -4.0697  0.7523
  147MOL0     H19823   7.483   2.277  10.683  0.2463 -0.8428  0.4878
  147MOL0     H19824   7.650   2.330  10.630 -1.0973 -3.1371 -0.4578
  147MOL0     H19825   6.578   2.524  10.787  2.8688 -1.2268 -4.2145
  147MOL0     H19826   6.342   2.490  10.775 -0.8359 -0.7426  1.1709
  147MOL0     H19827   5.994   2.361  10.805  2.3232 -1.2995 -2.5198
  147MOL0     H19828   5.766   2.383  10.797 -0.0196  0.1120 -0.6136
  147MOL0     H19829   4.562   1.565  10.201  0.7197 -0.4595 -0.3552
  147MOL0     H19830   4.320   1.625  10.209 -1.1710 -0.7969 -1.7589
  147MOL0     H19831   3.877   1.646  10.064 -0.5955  0.4690  0.1553
  147MOL0     H19832   3.622   1.636  10.071 -1.2694 -1.9231 -0.1328
  147MOL0     H19833   3.460   1.298  10.189 -1.7242 -0.3310  2.0639
  147MOL0     H19834   3.344   1.399  10.098 -0.0385  1.2942  0.1189
  147MOL0     H19835   3.238   1.268  10.298  1.2877 -0.2295 -2.2659
  147MOL0     H19836   3.217   1.443  10.308 -2.6527 -2.4286  1.5125
  147MOL0     H19837   3.420   1.438  10.469 -0.0732 -1.1612  0.6485
  147MOL0     H19838   3.442   1.277  10.428  3.7346  3.1681  0.3985
  147MOL0     H19839   3.235   1.231  10.548  0.7067  0.9676 -1.7949
  147MOL0     H19840   3.354   1.329  10.655  1.1544  0.2005 -0.3314
  147MOL0     H19841   2.999   1.564  10.616  0.1526  1.2553 -2.7776
  147MOL0     H19842   3.635   1.320  10.346  1.8918 -0.2225  2.3882
  147MOL0     H19843   3.976   1.291  10.398  0.6733 -2.5987  0.1576
  147MOL0     H19844   3.827   1.189  10.377 -0.2402 -0.3366 -0.6317
  147MOL0     H19845   3.958   1.198  10.256  0.7357  1.6170 -0.0624
  148MOL0     O19846   6.431   4.195   7.316  0.0142 -0.4653  0.0998
  148MOL0     C19847   6.385   4.306   7.298 -0.0519  1.2934 -0.2908
  148MOL0     O19848   6.432   4.419   7.359 -0.0354  0.6419  0.2847
  148MOL0     C19849   6.560   4.400   7.414  0.6610 -0.8077 -0.4171
  148MOL0     C19850   6.603   4.355   7.541  0.5855  0.4000  0.1368
  148MOL0     C19851   6.737   4.337   7.573 -0.8558  0.4767 -0.0420
  148MOL0     C19852   6.833   4.348   7.470 -0.2846 -0.2976  0.6868
  148MOL0     O19853   6.965   4.320   7.491  0.1996  0.8305  0.8190
  148MOL0     C19854   7.064   4.388   7.420  0.3962 -0.1524  0.7884
  148MOL0     C19855   7.203   4.344   7.443 -0.3122  0.4158 -0.3484
  148MOL0     C19856   7.299   4.428   7.359  0.4456  0.1706  0.1535
  148MOL0     C19857   7.440   4.364   7.362 -0.3623 -0.1582 -0.4891
  148MOL0     C19858   7.549   4.427   7.274 -0.4087  0.8771 -0.5178
  148MOL0     C19859   7.561   4.575   7.293 -0.4997 -0.1409  0.6343
  148MOL0     C19860   7.670   4.623   7.191  0.8905  0.1876 -0.0949
  148MOL0     C19861   7.802   4.544   7.186 -0.1115  0.1102  0.0071
  148MOL0     N19862   7.878   4.554   7.310  0.3127  0.5471  0.2445
  148MOL0     C19863   7.889   4.452   7.408 -0.2966 -0.7740  0.2873
  148MOL0     C19864   7.962   4.514   7.501 -0.1209  0.7816 -0.5098
  148MOL0     C19865   8.009   4.454   7.639  0.2501  0.4853 -0.1739
  148MOL0     C19866   8.112   4.336   7.632 -0.2676  0.2324  0.0702
  148MOL0     C19867   8.238   4.378   7.547  0.7137 -0.6108 -0.6336
  148MOL0     C19868   8.345   4.279   7.556 -0.0271 -0.3033  0.0476
  148MOL0     O19869   8.461   4.326   7.486  0.4012 -0.5591 -0.4341
  148MOL0     C19870   8.569   4.242   7.473  0.1069 -0.1304 -0.1236
  148MOL0     C19871   8.593   4.128   7.542 -0.2870  0.0690  0.5200
  148MOL0     C19872   8.721   4.057   7.515 -0.5687 -0.2568  0.0538
  148MOL0     C19873   8.809   4.097   7.415 -0.0272  0.1154 -0.0913
  148MOL0     C19874   8.938   4.032   7.398  0.5669  0.1723 -0.3969
  148MOL0     O19875   9.053   4.104   7.380 -0.3281 -0.1761  0.2865
  148MOL0     C19876   9.173   4.046   7.354  0.4586  0.3866 -0.3082
  148MOL0     C19877   9.198   4.020   7.221  0.8680 -0.2225 -0.1864
  148MOL0     C19878   9.315   3.951   7.193 -0.3129  0.0266  0.4439
  148MOL0     C19879   9.404   3.924   7.292  0.6601 -0.9654 -0.0505
  148MOL0     O19880   9.516   3.856   7.249  0.1121  0.4014 -0.1020
  148MOL0     C19881   9.636   3.884   7.315 -0.4496  0.0132 -0.4478
  148MOL0     C19882   9.745   3.934   7.225 -0.3135 -0.5359  0.5831
  148MOL0     C19883   9.874   3.951   7.309 -0.5878  0.1334  0.3698
  148MOL0     C19884  10.006   3.954   7.224  0.3630 -0.4324  0.4750
  148MOL0     C19885  10.119   3.964   7.336  0.2513 -0.9251 -0.1018
  148MOL0     C19886  10.257   3.937   7.266 -0.3773 -0.2143 -0.2182
  148MOL0     C19887  10.366   3.901   7.356  0.3705 -0.5989 -0.3119
  148MOL0     C19888  10.402   4.013   7.451 -0.1640 -0.4520 -0.1284
  148MOL0    Cl19889  10.555   3.955   7.510 -0.2818 -0.1164  0.3198
  148MOL0     C19890   9.364   3.942   7.429 -0.2266 -0.0554  0.1515
  148MOL0     C19891   9.243   3.998   7.463  0.6295 -1.0786 -0.3317
  148MOL0     O19892   8.936   3.910   7.400  0.4760 -0.6034  0.0291
  148MOL0     C19893   8.781   4.218   7.347  0.4829 -0.5021 -0.0114
  148MOL0     C19894   8.665   4.292   7.384 -0.1263 -0.1115 -0.6687
  148MOL0     N19895   8.004   4.639   7.458 -0.7910 -0.3502 -0.6738
  148MOL0     N19896   7.951   4.663   7.347 -0.6425 -0.1914 -0.6381
  148MOL0     C19897   6.789   4.382   7.340  1.1455  0.0289  0.1744
  148MOL0     C19898   6.664   4.413   7.315 -0.4744 -0.6162  0.2013
  148MOL0     C19899   6.264   4.321   7.213  0.3306  0.1698 -0.7250
  148MOL0     C19900   6.220   4.444   7.161 -0.4942  0.0845  0.0440
  148MOL0     C19901   6.100   4.468   7.095  0.1462 -0.5388  0.2071
  148MOL0     C19902   6.023   4.357   7.052 -0.0919 -0.3362 -0.2580
  148MOL0     O19903   5.901   4.378   6.995  0.0375 -0.3152  0.8225
  148MOL0     C19904   5.873   4.300   6.877  0.0308 -0.8266  0.4406
  148MOL0     C19905   5.719   4.292   6.869  1.0254  0.6965 -0.9604
  148MOL0     C19906   5.653   4.209   6.985 -0.3060  0.2709  0.5789
  148MOL0     C19907   5.700   4.056   6.975  0.3978  0.2162  0.2958
  148MOL0     C19908   5.611   3.986   7.069  0.1971  0.2138 -0.0627
  148MOL0     C19909   5.533   3.933   7.140  0.7823 -0.2802  0.5846
  148MOL0     C19910   6.072   4.229   7.092  0.3180 -1.1970  0.4800
  148MOL0     C19911   6.184   4.204   7.167 -0.1845 -0.9974 -0.5348
  148MOL0     C19912   6.212   4.058   7.195 -0.5360  0.7009 -0.9234
  148MOL0     H19913   6.527   4.332   7.614 -0.3778  2.6848 -0.0655
  148MOL0     H19914   6.770   4.308   7.672  1.1403  0.0851 -0.7616
  148MOL0     H19915   7.042   4.379   7.313  0.4893 -0.8345  0.8189
  148MOL0     H19916   7.060   4.494   7.445  1.3117  0.6978 -2.2506
  148MOL0     H19917   7.206   4.237   7.419 -1.6454  0.0485  1.0340
  148MOL0     H19918   7.237   4.344   7.547  0.4265 -0.3805 -0.5819
  148MOL0     H19919   7.306   4.533   7.391  0.7387  0.1683  0.0977
  148MOL0     H19920   7.251   4.423   7.261 -0.2307  1.7035  0.3755
  148MOL0     H19921   7.483   4.369   7.463 -0.7649  2.3348 -0.3714
  148MOL0     H19922   7.431   4.256   7.345  1.5850 -0.5498  0.5423
  148MOL0     H19923   7.644   4.374   7.288  0.0155  1.6135 -0.5676
  148MOL0     H19924   7.521   4.404   7.171 -2.3809 -1.3753  0.4231
  148MOL0     H19925   7.464   4.619   7.266 -1.0717 -2.5027 -1.5476
  148MOL0     H19926   7.584   4.618   7.391  0.6848 -0.5973  0.5683
  148MOL0     H19927   7.683   4.731   7.202 -0.7406  0.1915  2.5195
  148MOL0     H19928   7.630   4.613   7.090  2.5910 -0.4788 -0.7578
  148MOL0     H19929   7.790   4.440   7.154  0.2465 -0.0815  0.4864
  148MOL0     H19930   7.859   4.586   7.103 -0.4979 -1.4134 -1.0962
  148MOL0     H19931   7.855   4.350   7.399  0.6402 -0.9252 -2.6752
  148MOL0     H19932   8.050   4.546   7.683 -1.7934  1.4388 -0.1702
  148MOL0     H19933   7.923   4.422   7.698  1.7790 -1.2287  1.2964
  148MOL0     H19934   8.131   4.316   7.737  0.8138  0.2755 -0.0973
  148MOL0     H19935   8.077   4.247   7.579  1.7798  0.5045 -1.9388
  148MOL0     H19936   8.284   4.471   7.579  3.4443 -2.0619 -0.0204
  148MOL0     H19937   8.202   4.392   7.445 -1.2548  0.4957  0.1576
  148MOL0     H19938   8.333   4.178   7.516 -1.3002 -1.0225  2.1345
  148MOL0     H19939   8.364   4.266   7.662  0.9900  0.0801 -0.0755
  148MOL0     H19940   8.524   4.093   7.619  0.5181 -0.4366  1.0252
  148MOL0     H19941   8.730   3.959   7.560  0.8711 -0.0371  0.2894
  148MOL0     H19942   9.135   4.055   7.140 -0.8957 -0.3310  1.0783
  148MOL0     H19943   9.330   3.923   7.089 -0.3598  1.9277 -0.1016
  148MOL0     H19944   9.623   3.947   7.404 -0.0650 -1.4544  0.6887
  148MOL0     H19945   9.680   3.792   7.353 -1.3364 -2.2325 -4.3314
  148MOL0     H19946   9.770   3.868   7.142  2.0330  1.0310 -0.0598
  148MOL0     H19947   9.723   4.037   7.196  3.4361  0.0038 -0.8984
  148MOL0     H19948   9.862   4.038   7.373  3.2545  1.0731  0.0894
  148MOL0     H19949   9.886   3.871   7.383  2.3917 -0.5525 -0.6888
  148MOL0     H19950  10.006   4.042   7.159 -0.1021 -0.4010  0.5167
  148MOL0     H19951  10.019   3.867   7.159  0.2191  1.4078 -2.1605
  148MOL0     H19952  10.101   3.891   7.416 -0.3319 -0.6782 -0.0018
  148MOL0     H19953  10.118   4.066   7.374  2.9834 -0.2574 -1.5649
  148MOL0     H19954  10.243   3.857   7.193 -1.2426 -1.0449  0.8215
  148MOL0     H19955  10.283   4.027   7.209  0.6212  0.6603  1.5256
  148MOL0     H19956  10.456   3.873   7.300 -0.8247 -2.7164 -1.3238
  148MOL0     H19957  10.332   3.812   7.411 -0.6484 -0.7693 -1.1811
  148MOL0     H19958  10.414   4.106   7.394  1.5882 -0.4018  0.2672
  148MOL0     H19959  10.332   4.029   7.534  0.8618  0.1422  0.6364
  148MOL0     H19960   9.427   3.902   7.508 -0.9274 -2.0540 -0.2511
  148MOL0     H19961   9.210   4.011   7.565 -0.5081  2.0773 -0.9841
  148MOL0     H19962   8.829   4.226   7.250 -1.0878  0.8822 -0.7371
  148MOL0     H19963   8.630   4.376   7.326 -0.9867 -2.1999 -3.3453
  148MOL0     H19964   6.853   4.377   7.252  0.1140 -1.9359 -0.5154
  148MOL0     H19965   6.638   4.464   7.223 -2.2480  0.8065  1.4090
  148MOL0     H19966   6.278   4.529   7.197  0.1297  0.2698 -1.3381
  148MOL0     H19967   6.040   4.558   7.082  0.5538 -0.3480 -0.4156
  148MOL0     H19968   5.920   4.202   6.875  0.1526 -0.7514 -0.2993
  148MOL0     H19969   5.892   4.356   6.785  2.5488  0.1127  1.4474
  148MOL0     H19970   5.690   4.238   6.778  0.2005 -0.7964  0.1336
  148MOL0     H19971   5.688   4.395   6.853  1.9893  0.9511 -1.2975
  148MOL0     H19972   5.544   4.215   6.982 -0.3812 -0.5223  1.3337
  148MOL0     H19973   5.692   4.255   7.076 -1.9088  0.8081  1.0242
  148MOL0     H19974   5.682   4.011   6.877  0.4999 -2.3229  1.3591
  148MOL0     H19975   5.803   4.058   7.010  1.3067  0.9798 -2.1998
  148MOL0     H19976   5.465   3.877   7.200  1.7942 -1.1714  0.9430
  148MOL0     H19977   6.017   4.147   7.047  1.4572 -0.3071 -2.7735
  148MOL0     H19978   6.152   3.979   7.150 -2.2820 -0.2798  2.6774
  148MOL0     H19979   6.311   4.018   7.171 -1.1798 -1.4981 -0.1565
  148MOL0     H19980   6.178   4.047   7.299 -0.2753  0.9160 -0.8115
  149MOL0     O19981  10.241   9.410  10.937  0.2572 -0.3130 -0.3883
  149MOL0     C19982  10.221   9.456  11.048  1.3598  0.7921  0.5733
  149MOL0     O19983  10.301   9.540  11.112  0.0195 -0.4946 -0.3414
  149MOL0     C19984  10.410   9.580  11.047 -0.1077 -0.4121 -0.6236
  149MOL0     C19985  10.517   9.493  11.016  0.6239 -0.1361 -0.3279
  149MOL0     C19986  10.630   9.538  10.947  0.3137 -0.4963 -1.7090
  149MOL0     C19987  10.643   9.671  10.924 -0.1516 -0.1525  0.6539
  149MOL0     O19988  10.749   9.721  10.849  0.0460 -0.1258  0.7713
  149MOL0     C19989  10.869   9.638  10.816  1.3191  0.5885 -0.0969
  149MOL0     C19990  10.971   9.720  10.742 -0.0192 -0.2659 -0.8202
  149MOL0     C19991  11.096   9.636  10.693 -0.2638 -0.1249 -0.1934
  149MOL0     C19992  11.225   9.716  10.667  1.5932 -0.1532  0.1528
  149MOL0     C19993  11.343   9.627  10.668  0.1991  0.8377 -0.2792
  149MOL0     C19994  11.476   9.695  10.619 -0.2968 -0.3886  0.4389
  149MOL0     C19995  11.586   9.595  10.631  0.6152 -0.4843  0.1170
  149MOL0     C19996  11.718   9.672  10.608 -0.1224 -0.4342 -1.0297
  149MOL0     N19997  11.833   9.579  10.601 -0.0212  0.0837 -0.0560
  149MOL0     C19998  11.954   9.607  10.549 -0.7290  0.1379  0.1771
  149MOL0     C19999  12.003   9.490  10.516 -0.6586 -0.4471 -0.6437
  149MOL0     C20000  12.140   9.470  10.448  0.2637  0.3690  0.4871
  149MOL0     C20001  12.255   9.477  10.543 -0.3577 -1.0444 -0.6642
  149MOL0     C20002  12.392   9.485  10.465 -0.7775  0.5755 -0.2346
  149MOL0     C20003  12.519   9.457  10.558 -0.0461  0.0065 -0.2625
  149MOL0     O20004  12.499   9.502  10.688 -0.2282  0.2120  0.0196
  149MOL0     C20005  12.612   9.512  10.776 -0.7730  0.6236  0.3886
  149MOL0     C20006  12.739   9.471  10.731 -1.1249  1.7750 -0.0797
  149MOL0     C20007  12.855   9.479  10.818  0.9122  0.5318  0.3541
  149MOL0     C20008  12.822   9.528  10.954  0.7061 -0.9102  0.1164
  149MOL0     C20009  12.936   9.541  11.045  0.2671 -0.2684  0.1261
  149MOL0     O20010  13.062   9.569  11.002 -0.0881 -0.3657  0.1786
  149MOL0     C20011  13.164   9.534  11.090 -0.3915 -0.3564  0.4818
  149MOL0     C20012  13.171   9.410  11.161 -1.1772 -0.4938  0.3041
  149MOL0     C20013  13.276   9.391  11.252 -0.1431 -0.3588  0.0776
  149MOL0     C20014  13.369   9.491  11.283 -1.1333 -0.1549 -0.1450
  149MOL0     O20015  13.459   9.473  11.384 -0.0732 -0.1046 -0.4725
  149MOL0     C20016  13.490   9.581  11.476  0.1748  0.3938  0.0933
  149MOL0     C20017  13.576   9.543  11.592  0.2470  0.8620  0.2632
  149MOL0     C20018  13.725   9.512  11.565  0.9039  0.5565 -0.4336
  149MOL0     C20019  13.799   9.492  11.695 -0.8327 -0.3178 -1.3084
  149MOL0     C20020  13.950   9.493  11.653 -0.6319 -0.1042  0.1250
  149MOL0     C20021  14.033   9.466  11.769  0.0692  0.9190 -0.0732
  149MOL0     C20022  14.047   9.316  11.792 -1.3692  0.3306  0.2554
  149MOL0     C20023  14.063   9.292  11.947 -0.1685 -0.2847  0.1161
  149MOL0    Cl20024  14.205   9.365  12.034  0.4804  0.2350  0.5153
  149MOL0     C20025  13.355   9.615  11.208 -0.1663 -0.1914  0.7569
  149MOL0     C20026  13.259   9.634  11.110 -0.5264  0.2604 -0.1570
  149MOL0     O20027  12.902   9.530  11.161  0.4838  0.0633  0.3594
  149MOL0     C20028  12.696   9.584  10.995 -0.3459  0.9744 -0.1621
  149MOL0     C20029  12.593   9.567  10.908 -0.5789  0.0219  0.5922
  149MOL0     N20030  11.912   9.390  10.548  0.3729 -0.5192  0.0448
  149MOL0     N20031  11.812   9.447  10.610 -0.2584  0.4331  0.4080
  149MOL0     C20032  10.542   9.762  10.957  0.1240  0.1806  0.3596
  149MOL0     C20033  10.427   9.717  11.017 -0.3574  1.4468  0.8349
  149MOL0     C20034  10.087   9.421  11.119 -0.1866 -0.3130  0.8971
  149MOL0     C20035   9.975   9.427  11.039  0.0848  0.3995 -0.2252
  149MOL0     C20036   9.853   9.392  11.085  0.2305  0.4343 -0.3906
  149MOL0     C20037   9.844   9.335  11.211  1.0204  0.7415 -1.6339
  149MOL0     O20038   9.717   9.319  11.264  0.1975 -0.1056  0.1061
  149MOL0     C20039   9.712   9.273  11.400  0.5724 -0.8449 -1.2308
  149MOL0     C20040   9.570   9.261  11.453  0.4605 -0.2399 -0.1551
  149MOL0     C20041   9.571   9.212  11.596 -0.0053 -0.2101 -0.2123
  149MOL0     C20042   9.437   9.202  11.658 -0.1667 -1.6343  0.2467
  149MOL0     C20043   9.360   9.324  11.628  0.0458 -0.4180 -0.6738
  149MOL0     C20044   9.289   9.424  11.608  0.4500  0.5106  0.4733
  149MOL0     C20045   9.965   9.314  11.292  0.4179 -0.2399  0.0080
  149MOL0     C20046  10.085   9.361  11.249  0.3189 -0.2533  0.0744
  149MOL0     C20047  10.204   9.342  11.331 -0.9708  0.5289 -0.7222
  149MOL0     H20048  10.503   9.389  11.041 -0.2595  0.8887  4.5417
  149MOL0     H20049  10.703   9.465  10.915  0.4984 -1.9042  1.5084
  149MOL0     H20050  10.907   9.610  10.915  0.4442 -1.3321 -0.2488
  149MOL0     H20051  10.843   9.549  10.758 -1.7194  3.5072 -3.7327
  149MOL0     H20052  11.013   9.791  10.814  1.7892 -0.2007 -1.8761
  149MOL0     H20053  10.917   9.767  10.660 -1.1714 -0.2700 -0.0859
  149MOL0     H20054  11.047   9.607  10.599  0.6731 -1.1113 -0.4073
  149MOL0     H20055  11.114   9.549  10.756  0.9566 -0.5738 -1.1161
  149MOL0     H20056  11.224   9.770  10.572  0.8575 -0.1282  0.1730
  149MOL0     H20057  11.232   9.784  10.753 -0.0624  0.5449 -0.2270
  149MOL0     H20058  11.347   9.593  10.772 -1.7938 -0.2969 -0.5342
  149MOL0     H20059  11.310   9.541  10.610 -0.6617  1.3971 -0.6345
  149MOL0     H20060  11.476   9.730  10.515 -1.5459  1.9439  1.1589
  149MOL0     H20061  11.502   9.788  10.670 -0.1675  0.8973 -1.8304
  149MOL0     H20062  11.569   9.514  10.559 -0.7303 -1.3897  1.3753
  149MOL0     H20063  11.587   9.548  10.730 -1.3934 -0.7644  0.0540
  149MOL0     H20064  11.708   9.722  10.512  0.8063  0.6034 -0.6102
  149MOL0     H20065  11.735   9.750  10.683  0.8071 -2.0397  0.5077
  149MOL0     H20066  12.006   9.701  10.535  0.2283 -0.6672 -1.9796
  149MOL0     H20067  12.143   9.370  10.405  2.6947  1.6113 -2.5515
  149MOL0     H20068  12.143   9.539  10.364  0.3594 -0.5050 -0.2332
  149MOL0     H20069  12.249   9.572  10.596  2.2491 -0.5044 -1.1681
  149MOL0     H20070  12.256   9.396  10.616  1.3515 -1.5735 -1.2224
  149MOL0     H20071  12.415   9.580  10.417  1.6556 -0.4235 -1.1963
  149MOL0     H20072  12.388   9.415  10.381 -2.1127  1.3615 -0.8559
  149MOL0     H20073  12.607   9.502  10.510 -0.3678 -1.1522 -2.0405
  149MOL0     H20074  12.533   9.350  10.539  0.3034 -0.0500  0.2755
  149MOL0     H20075  12.746   9.419  10.636  0.0110  1.1007  0.3535
  149MOL0     H20076  12.955   9.461  10.780  0.0355  0.7277 -2.2025
  149MOL0     H20077  13.093   9.339  11.134 -2.7664  2.3780 -3.6134
  149MOL0     H20078  13.280   9.305  11.318 -0.2132  1.0771  2.0473
  149MOL0     H20079  13.542   9.663  11.424  0.7806 -0.0880 -0.0803
  149MOL0     H20080  13.392   9.620  11.504 -0.8616  2.7309 -5.4788
  149MOL0     H20081  13.577   9.639  11.645 -0.5711  1.2271 -0.3592
  149MOL0     H20082  13.531   9.461  11.649  1.0510 -0.0686 -0.4065
  149MOL0     H20083  13.741   9.428  11.497 -1.2129 -0.0617 -0.2369
  149MOL0     H20084  13.766   9.597  11.510 -0.0949  1.0403 -0.4469
  149MOL0     H20085  13.771   9.404  11.754 -2.0827 -0.2470 -1.7534
  149MOL0     H20086  13.787   9.581  11.758 -1.5928 -1.2162 -0.1317
  149MOL0     H20087  13.977   9.595  11.623  2.8603 -0.1972  2.3920
  149MOL0     H20088  13.973   9.426  11.571 -0.0580  1.9088 -1.4367
  149MOL0     H20089  14.133   9.502  11.746 -0.1244  1.1154 -0.6081
  149MOL0     H20090  13.993   9.523  11.854 -1.3868  1.0225 -0.7989
  149MOL0     H20091  14.133   9.282  11.735 -1.1878  2.2187 -0.6912
  149MOL0     H20092  13.957   9.262  11.760  0.8170 -2.5820 -1.4163
  149MOL0     H20093  13.979   9.343  11.993  1.8151  2.2076  1.2316
  149MOL0     H20094  14.048   9.185  11.963  0.0278 -0.8015 -2.5384
  149MOL0     H20095  13.417   9.700  11.237 -0.2268 -0.5996  2.1457
  149MOL0     H20096  13.267   9.720  11.044 -1.8292 -0.6917 -1.6156
  149MOL0     H20097  12.683   9.619  11.096 -1.3457 -0.0857  0.1023
  149MOL0     H20098  12.494   9.612  10.914 -1.7818 -2.2989 -0.3015
  149MOL0     H20099  10.550   9.867  10.932  3.2214 -0.1892 -0.7116
  149MOL0     H20100  10.340   9.778  11.040 -0.0819  1.8402  0.8385
  149MOL0     H20101   9.980   9.453  10.934  1.0307 -3.1670 -1.2050
  149MOL0     H20102   9.768   9.409  11.021  1.2238  4.4362 -0.8788
  149MOL0     H20103   9.760   9.350  11.462 -3.4743 -0.9239  2.4607
  149MOL0     H20104   9.758   9.176  11.418 -1.5091 -1.2642  3.3845
  149MOL0     H20105   9.516   9.193  11.386 -1.9978 -0.1402  1.5736
  149MOL0     H20106   9.521   9.359  11.445 -0.1521 -0.0331  3.9513
  149MOL0     H20107   9.630   9.279  11.660 -0.8674  1.5408 -1.1828
  149MOL0     H20108   9.603   9.108  11.607 -4.0707 -1.3302  3.5285
  149MOL0     H20109   9.385   9.113  11.624 -1.9923 -0.8772  0.9422
  149MOL0     H20110   9.443   9.201  11.768 -2.0479 -0.4248  0.4106
  149MOL0     H20111   9.216   9.499  11.585 -0.8993 -0.9224 -0.0715
  149MOL0     H20112   9.963   9.260  11.386 -0.2075 -1.6228 -0.7728
  149MOL0     H20113  10.279   9.286  11.273 -1.1641  0.0049 -0.4684
  149MOL0     H20114  10.244   9.441  11.353  1.9588 -0.0083 -2.9055
  149MOL0     H20115  10.173   9.290  11.422 -0.1373 -1.2253 -1.3902
  150MOL0     O20116   0.764   3.118  10.974 -0.3088  0.4334 -0.0896
  150MOL0     C20117   0.762   2.999  10.931  0.0676 -0.3592  0.3267
  150MOL0     O20118   0.869   2.919  10.900  0.4481  0.2285  0.0229
  150MOL0     C20119   0.995   2.976  10.908  0.5179 -0.3668 -0.6005
  150MOL0     C20120   1.086   2.920  10.994 -0.1088  0.5599 -0.1516
  150MOL0     C20121   1.216   2.968  11.007 -0.2599  0.2758  0.3741
  150MOL0     C20122   1.266   3.075  10.927 -0.0121  0.1547 -0.3809
  150MOL0     O20123   1.388   3.113  10.950 -0.3209  0.2231 -0.3277
  150MOL0     C20124   1.454   3.197  10.857  0.2779  0.8567 -1.1305
  150MOL0     C20125   1.598   3.217  10.902  0.4578 -0.0759  0.2457
  150MOL0     C20126   1.672   3.338  10.844 -0.5499 -0.0530  0.2758
  150MOL0     C20127   1.826   3.297  10.851  0.1872  0.0065  0.0762
  150MOL0     C20128   1.905   3.423  10.813 -1.1969  0.0664  0.3474
  150MOL0     C20129   2.059   3.398  10.824  0.6229 -0.3250 -0.3259
  150MOL0     C20130   2.103   3.308  10.711  0.3202 -1.0319  0.3629
  150MOL0     C20131   2.259   3.297  10.715 -0.8701 -0.0227  0.5742
  150MOL0     N20132   2.307   3.241  10.595  0.3981  0.1986 -0.5273
  150MOL0     C20133   2.300   3.115  10.554  0.2861  0.8660  0.5083
  150MOL0     C20134   2.346   3.131  10.429  0.3315 -0.8093 -0.2721
  150MOL0     C20135   2.347   3.006  10.343  0.1299 -0.2197 -0.6439
  150MOL0     C20136   2.469   2.923  10.367  0.5343 -0.0090  0.0826
  150MOL0     C20137   2.597   2.999  10.379  0.7899  0.0270 -0.1456
  150MOL0     C20138   2.728   2.922  10.345  0.2690  1.2116 -0.7878
  150MOL0     O20139   2.720   2.779  10.368 -0.0698  0.0286  0.6047
  150MOL0     C20140   2.838   2.719  10.387  0.1227 -0.0470 -0.6325
  150MOL0     C20141   2.974   2.771  10.390 -0.5701  0.3393 -0.1389
  150MOL0     C20142   3.091   2.693  10.405  0.0524  0.2282 -0.1578
  150MOL0     C20143   3.078   2.559  10.437  0.7921 -0.0616  1.1905
  150MOL0     C20144   3.194   2.478  10.481  0.0096 -0.0077  1.0312
  150MOL0     O20145   3.313   2.535  10.453 -0.4852  0.0440  0.0413
  150MOL0     C20146   3.427   2.463  10.466  0.0670 -0.1702  0.0477
  150MOL0     C20147   3.443   2.336  10.411  0.2734 -0.1499 -0.3093
  150MOL0     C20148   3.560   2.262  10.440  0.6196  1.5414  0.3592
  150MOL0     C20149   3.669   2.313  10.506  0.4255 -0.7122  0.0149
  150MOL0     O20150   3.789   2.243  10.513 -0.5253  0.1660 -0.1238
  150MOL0     C20151   3.908   2.323  10.504 -0.2330  0.0314  0.4368
  150MOL0     C20152   4.035   2.237  10.482 -0.4417  0.2686  0.8747
  150MOL0     C20153   4.036   2.138  10.358  1.1659 -0.7856 -0.7540
  150MOL0     C20154   4.173   2.074  10.348  0.0208  0.4256  0.1488
  150MOL0     C20155   4.207   2.017  10.213  0.0692 -0.1228 -0.3728
  150MOL0     C20156   4.336   1.933  10.218 -0.5471 -0.3000 -0.8462
  150MOL0     C20157   4.372   1.881  10.081  0.2507 -0.3101  0.6896
  150MOL0     C20158   4.522   1.848  10.070  0.0599  0.0337 -0.5649
  150MOL0    Cl20159   4.632   1.986  10.094  0.2012  0.5537  0.0182
  150MOL0     C20160   3.650   2.440  10.557 -0.0293  0.1235  0.6441
  150MOL0     C20161   3.537   2.511  10.533  0.8602 -1.4226 -0.2395
  150MOL0     O20162   3.176   2.374  10.542 -0.1925 -0.3184 -0.3180
  150MOL0     C20163   2.947   2.505  10.428 -1.3406 -0.8412  0.8206
  150MOL0     C20164   2.832   2.580  10.403 -0.2198  0.7919 -0.4655
  150MOL0     N20165   2.381   3.263  10.388  0.5382  0.5757  0.4525
  150MOL0     N20166   2.356   3.329  10.496 -0.7936  0.4027  0.5209
  150MOL0     C20167   1.177   3.118  10.831  0.0332  0.0476  0.1146
  150MOL0     C20168   1.043   3.074  10.817 -0.6423  0.2495  0.0749
  150MOL0     C20169   0.626   2.936  10.924 -0.4638 -0.1935 -0.4110
  150MOL0     C20170   0.525   2.975  11.021 -1.1826 -0.0874  0.3725
  150MOL0     C20171   0.388   2.919  11.019 -0.8091  1.0075 -0.3538
  150MOL0     C20172   0.358   2.813  10.929 -0.4830 -0.5937 -0.7571
  150MOL0     O20173   0.240   2.743  10.922 -0.0687 -0.6373  0.3230
  150MOL0     C20174   0.137   2.754  11.019 -0.4347 -0.5597 -0.3648
  150MOL0     C20175   0.023   2.862  10.992 -0.8247 -0.0575 -0.5756
  150MOL0     C20176  -0.091   2.862  11.105 -0.1431  1.2307  0.6823
  150MOL0     C20177  -0.174   2.733  11.095  0.3185  0.3960  0.5096
  150MOL0     C20178  -0.269   2.719  11.204 -0.3723  0.0365 -0.5651
  150MOL0     C20179  -0.342   2.696  11.300  0.5479 -0.0007  0.1998
  150MOL0     C20180   0.468   2.772  10.850  0.2539 -0.0699  0.4608
  150MOL0     C20181   0.592   2.824  10.843 -0.4902 -0.7994 -0.5724
  150MOL0     C20182   0.695   2.745  10.755 -0.0248  0.3164  0.7739
  150MOL0     H20183   1.059   2.839  11.062  0.8721 -1.0846 -1.6178
  150MOL0     H20184   1.286   2.926  11.079  1.3767  0.8904 -0.7941
  150MOL0     H20185   1.447   3.143  10.762 -0.8791 -0.7399 -0.1937
  150MOL0     H20186   1.399   3.291  10.854 -1.2860  0.0393  0.1872
  150MOL0     H20187   1.647   3.124  10.873  1.0979 -0.2884  1.9161
  150MOL0     H20188   1.602   3.238  11.009  0.3801  1.2840  0.0038
  150MOL0     H20189   1.654   3.434  10.894  0.0149  0.0397  0.3090
  150MOL0     H20190   1.645   3.347  10.738 -1.3711 -1.9385  0.2934
  150MOL0     H20191   1.864   3.275  10.951  1.4299  2.1342  0.1199
  150MOL0     H20192   1.844   3.218  10.776 -3.4874  0.8439 -1.9436
  150MOL0     H20193   1.878   3.465  10.715 -1.3431  0.1495  0.4231
  150MOL0     H20194   1.880   3.496  10.891  0.7537  1.0983  0.0674
  150MOL0     H20195   2.104   3.497  10.813  1.7954 -0.9019 -0.9464
  150MOL0     H20196   2.088   3.364  10.923  0.9312 -0.9952 -0.6382
  150MOL0     H20197   2.058   3.335  10.615  2.2296 -0.8374 -0.5144
  150MOL0     H20198   2.069   3.207  10.735 -1.3656 -1.1112 -1.9950
  150MOL0     H20199   2.297   3.399  10.730 -3.2926  0.9738  0.4419
  150MOL0     H20200   2.274   3.231  10.800  1.4676  3.0876  2.8109
  150MOL0     H20201   2.269   3.026  10.608  0.6960  1.4949  1.8402
  150MOL0     H20202   2.256   2.946  10.354 -0.3137  0.5182 -0.1707
  150MOL0     H20203   2.362   3.030  10.237  2.7867 -0.9996 -0.5126
  150MOL0     H20204   2.454   2.860  10.455  1.7344  0.8220  0.9121
  150MOL0     H20205   2.468   2.860  10.277  2.5080  0.4430 -0.2955
  150MOL0     H20206   2.602   3.036  10.482  2.1723 -1.7319  0.4586
  150MOL0     H20207   2.584   3.075  10.301  0.2068 -1.0041 -1.0816
  150MOL0     H20208   2.799   2.969  10.413  3.0697 -1.6262 -1.4905
  150MOL0     H20209   2.755   2.944  10.242  1.5515 -0.6536 -0.9069
  150MOL0     H20210   2.981   2.876  10.363  1.1812  1.3082  3.4303
  150MOL0     H20211   3.185   2.744  10.387  1.1644 -1.3493  1.0241
  150MOL0     H20212   3.364   2.282  10.360 -1.9115  1.0672  1.6442
  150MOL0     H20213   3.565   2.161  10.401  0.9881  1.3135  0.9864
  150MOL0     H20214   3.899   2.392  10.419 -0.8849  0.4693  0.8548
  150MOL0     H20215   3.919   2.378  10.597  1.1043 -1.7914  1.4277
  150MOL0     H20216   4.118   2.308  10.472  0.1977 -0.5948 -0.1477
  150MOL0     H20217   4.058   2.178  10.571  5.0192  0.7513  0.1297
  150MOL0     H20218   3.953   2.067  10.361  1.8748 -1.6462 -1.1006
  150MOL0     H20219   4.010   2.217  10.287  0.8895  0.2375  0.4504
  150MOL0     H20220   4.194   2.003  10.429  1.0173 -0.4430 -0.8326
  150MOL0     H20221   4.251   2.147  10.369  0.5404  0.2364 -1.0431
  150MOL0     H20222   4.216   2.108  10.151 -1.1112 -0.1790 -0.6542
  150MOL0     H20223   4.133   1.949  10.169  1.3270 -0.6071 -1.8222
  150MOL0     H20224   4.422   1.997  10.242  1.0854 -2.9599  0.9510
  150MOL0     H20225   4.325   1.852  10.291 -2.3150  0.7869  0.1707
  150MOL0     H20226   4.341   1.963  10.016 -0.4397 -0.4478  0.8413
  150MOL0     H20227   4.311   1.792  10.068 -0.8529  0.4939  0.2315
  150MOL0     H20228   4.545   1.773  10.146 -1.9546 -0.7059 -0.6152
  150MOL0     H20229   4.527   1.806   9.969 -0.4023 -1.5730  0.0450
  150MOL0     H20230   3.727   2.479  10.622  1.6788 -0.5385 -0.8823
  150MOL0     H20231   3.522   2.612  10.570 -1.0486 -0.8487 -2.3570
  150MOL0     H20232   2.943   2.398  10.450 -1.1127 -0.8823  0.6668
  150MOL0     H20233   2.751   2.508  10.392  2.2008 -1.8981 -1.8787
  150MOL0     H20234   1.203   3.197  10.760  0.1053  0.5298  0.6710
  150MOL0     H20235   0.969   3.119  10.751 -0.3538  1.3653  0.4920
  150MOL0     H20236   0.549   3.058  11.086 -4.1777  0.6445  0.7225
  150MOL0     H20237   0.329   2.948  11.105  0.6654  3.7110 -0.1570
  150MOL0     H20238   0.172   2.772  11.121 -1.1867 -1.5404  0.0887
  150MOL0     H20239   0.092   2.655  11.011 -3.4607  0.7442 -0.7787
  150MOL0     H20240  -0.009   2.834  10.892  2.8600  2.4853 -2.6940
  150MOL0     H20241   0.064   2.963  10.985 -4.1712  1.3190 -2.8585
  150MOL0     H20242  -0.153   2.951  11.090 -0.7602  0.8615  0.9782
  150MOL0     H20243  -0.050   2.872  11.206 -1.1756  2.1209  1.0376
  150MOL0     H20244  -0.233   2.734  11.002  1.4619 -1.5757 -0.3044
  150MOL0     H20245  -0.120   2.637  11.092 -0.5738 -0.1059 -0.8121
  150MOL0     H20246  -0.406   2.666  11.380 -0.4696 -1.1775 -1.0206
  150MOL0     H20247   0.438   2.695  10.780  1.4531  0.9563 -1.2497
  150MOL0     H20248   0.746   2.796  10.673  0.2867 -2.2319 -0.7368
  150MOL0     H20249   0.780   2.698  10.805  0.4290 -2.3483 -2.2108
  150MOL0     H20250   0.642   2.665  10.701 -0.3630  0.6486  0.6090
  151MOL0     O20251   0.899   0.023   3.232 -0.4619  0.3358 -0.2629
  151MOL0     C20252   0.941   0.131   3.184 -0.5668 -0.4554  0.4249
  151MOL0     O20253   1.061   0.183   3.208  0.2113  0.1206 -0.0636
  151MOL0     C20254   1.156   0.127   3.287 -0.7761 -0.0337 -0.1619
  151MOL0     C20255   1.293   0.150   3.254 -0.3462 -0.1535 -0.5909
  151MOL0     C20256   1.389   0.096   3.342  0.7217  0.2189  0.1026
  151MOL0     C20257   1.355   0.021   3.462 -0.1755  0.1784  0.5605
  151MOL0     O20258   1.446  -0.022   3.552 -0.1116  0.1646 -0.1382
  151MOL0     C20259   1.567  -0.074   3.493  0.5227 -0.8116  0.2721
  151MOL0     C20260   1.656  -0.139   3.602 -1.0387 -0.1056  1.1506
  151MOL0     C20261   1.779  -0.202   3.538 -0.6876  0.5184  0.7002
  151MOL0     C20262   1.854  -0.291   3.639 -0.0516 -0.6428 -1.0204
  151MOL0     C20263   1.978  -0.356   3.579 -0.3171  0.0607  0.1159
  151MOL0     C20264   2.098  -0.381   3.680  0.1563 -0.1147 -0.0146
  151MOL0     C20265   2.236  -0.397   3.611 -0.2538 -0.2532 -0.1141
  151MOL0     C20266   2.222  -0.510   3.504 -0.9947 -0.0056  0.8048
  151MOL0     N20267   2.347  -0.532   3.424  0.2515  0.7702 -0.3924
  151MOL0     C20268   2.406  -0.437   3.338  0.6144 -0.1233  0.0313
  151MOL0     C20269   2.529  -0.485   3.310 -0.7056 -0.6033 -0.6160
  151MOL0     C20270   2.646  -0.409   3.242 -0.6247  0.3607 -0.3710
  151MOL0     C20271   2.595  -0.352   3.109  0.1704 -0.9063 -0.5021
  151MOL0     C20272   2.542  -0.457   3.012 -0.3378 -0.3478  0.2689
  151MOL0     C20273   2.494  -0.386   2.881 -0.2897  0.3881 -0.8879
  151MOL0     O20274   2.444  -0.482   2.785 -0.2028  0.5452 -0.4197
  151MOL0     C20275   2.310  -0.514   2.783 -0.5682  1.1056  0.8260
  151MOL0     C20276   2.259  -0.558   2.656  0.5305  0.1242 -0.7913
  151MOL0     C20277   2.118  -0.583   2.653  0.3888  0.7133 -0.6002
  151MOL0     C20278   2.031  -0.585   2.767 -0.3314 -0.4274 -0.1088
  151MOL0     C20279   1.888  -0.628   2.757  0.2213  0.5575  0.2392
  151MOL0     O20280   1.809  -0.635   2.874 -0.1056  0.4516  0.3279
  151MOL0     C20281   1.681  -0.685   2.875 -0.6069 -0.4651 -0.6468
  151MOL0     C20282   1.568  -0.599   2.866 -0.7484  0.6080 -0.2391
  151MOL0     C20283   1.436  -0.649   2.877 -0.0967  0.4668 -0.6565
  151MOL0     C20284   1.403  -0.786   2.890  0.1076 -0.7313  0.8312
  151MOL0     O20285   1.272  -0.833   2.898  0.5182  0.2337  0.2632
  151MOL0     C20286   1.171  -0.773   2.814  0.1923 -0.4881  0.5682
  151MOL0     C20287   1.149  -0.822   2.675  0.3693  0.2448 -0.5361
  151MOL0     C20288   1.259  -0.768   2.585  0.0182 -0.1411  0.6396
  151MOL0     C20289   1.212  -0.795   2.441  0.1966  0.4178 -0.8464
  151MOL0     C20290   1.287  -0.707   2.340  0.6876  0.2039 -0.7874
  151MOL0     C20291   1.438  -0.746   2.326 -0.6803 -0.5217 -0.5490
  151MOL0     C20292   1.477  -0.893   2.305 -0.2836  0.0327 -0.1895
  151MOL0     C20293   1.455  -0.953   2.168 -0.4351  0.6971  0.5833
  151MOL0    Cl20294   1.574  -0.899   2.045 -0.4728  0.0333 -0.4314
  151MOL0     C20295   1.514  -0.868   2.894  0.2582  0.6432 -0.4441
  151MOL0     C20296   1.646  -0.824   2.889 -0.8171 -0.1130 -0.0636
  151MOL0     O20297   1.850  -0.662   2.642 -0.1705 -0.2085  0.3727
  151MOL0     C20298   2.088  -0.545   2.888 -0.1087 -0.3646  0.0756
  151MOL0     C20299   2.230  -0.515   2.891  0.8348 -0.7081  0.4542
  151MOL0     N20300   2.543  -0.601   3.389 -0.2301 -0.1732  0.3228
  151MOL0     N20301   2.441  -0.629   3.456  0.1619  0.4862 -0.7844
  151MOL0     C20302   1.229   0.004   3.493  0.2572  0.4227  0.7890
  151MOL0     C20303   1.134   0.062   3.413  0.6753  0.5903 -0.5053
  151MOL0     C20304   0.859   0.207   3.089 -0.4410 -0.5471 -0.3847
  151MOL0     C20305   0.928   0.300   3.012  0.7100 -0.6209  0.1189
  151MOL0     C20306   0.859   0.360   2.909  0.0235  0.2790 -0.0815
  151MOL0     C20307   0.723   0.336   2.880  0.0255 -0.3071 -0.5086
  151MOL0     O20308   0.649   0.391   2.776  0.0954 -0.3309 -0.3439
  151MOL0     C20309   0.621   0.530   2.766 -0.6534 -0.8850  0.2512
  151MOL0     C20310   0.506   0.576   2.668 -0.4415  0.2533  0.7291
  151MOL0     C20311   0.524   0.501   2.534 -0.4604 -0.6564 -0.2861
  151MOL0     C20312   0.646   0.526   2.450  0.2345  0.1206  0.1047
  151MOL0     C20313   0.636   0.661   2.401  0.2557  0.3548  1.0972
  151MOL0     C20314   0.627   0.774   2.354  0.0026 -0.6189  0.0197
  151MOL0     C20315   0.648   0.259   2.966  0.3260 -0.6488 -0.7621
  151MOL0     C20316   0.721   0.191   3.070  0.7129  0.2679  0.4815
  151MOL0     C20317   0.626   0.112   3.160 -0.2447  0.3890 -0.5762
  151MOL0     H20318   1.322   0.216   3.173 -1.8157  0.2778 -0.7821
  151MOL0     H20319   1.491   0.131   3.326  1.1246 -0.5260  0.9222
  151MOL0     H20320   1.539  -0.142   3.412 -1.4096  0.7840 -0.4931
  151MOL0     H20321   1.626   0.007   3.448 -0.0098  0.2112  1.3722
  151MOL0     H20322   1.596  -0.220   3.645  1.1666 -3.3198 -1.3757
  151MOL0     H20323   1.679  -0.063   3.677 -0.7852 -0.3903  1.3596
  151MOL0     H20324   1.856  -0.128   3.512 -0.9553  0.8426  0.8260
  151MOL0     H20325   1.747  -0.257   3.450 -2.6671  0.5521  1.3454
  151MOL0     H20326   1.886  -0.228   3.722 -1.8245 -0.3017 -0.5509
  151MOL0     H20327   1.790  -0.371   3.676 -0.8193 -1.4360 -3.7693
  151MOL0     H20328   1.951  -0.453   3.535 -0.9231  0.2042  0.1627
  151MOL0     H20329   2.014  -0.293   3.497  2.0030  0.7139  1.5603
  151MOL0     H20330   2.101  -0.292   3.743 -0.7369 -1.8066  2.6051
  151MOL0     H20331   2.073  -0.461   3.751 -2.2068  1.1235  0.6647
  151MOL0     H20332   2.316  -0.425   3.679 -0.2279 -3.7254 -1.3581
  151MOL0     H20333   2.254  -0.302   3.559  0.8839  0.1808  1.0230
  151MOL0     H20334   2.180  -0.602   3.547 -1.2952 -0.3773 -0.2411
  151MOL0     H20335   2.145  -0.482   3.432 -0.0103  0.8677  0.0679
  151MOL0     H20336   2.358  -0.343   3.316 -0.4070 -0.6317  0.0543
  151MOL0     H20337   2.687  -0.333   3.309  0.8894 -0.7284  0.0057
  151MOL0     H20338   2.725  -0.481   3.218 -0.1141  0.0006  2.1379
  151MOL0     H20339   2.522  -0.275   3.134  0.7314 -1.4243  3.3510
  151MOL0     H20340   2.680  -0.305   3.058 -1.3688  1.3199 -1.1768
  151MOL0     H20341   2.461  -0.513   3.059  0.6801  0.2888  2.9542
  151MOL0     H20342   2.621  -0.532   2.998 -0.8996 -1.2044  1.5176
  151MOL0     H20343   2.576  -0.332   2.832  0.2227  0.3711 -0.0547
  151MOL0     H20344   2.413  -0.320   2.915 -1.4589 -2.0185  1.3162
  151MOL0     H20345   2.322  -0.576   2.570 -0.1934 -0.4899 -1.2085
  151MOL0     H20346   2.080  -0.602   2.554  0.1465  0.5219 -0.4720
  151MOL0     H20347   1.580  -0.492   2.862 -2.0752  0.7885  0.1444
  151MOL0     H20348   1.359  -0.574   2.867  1.8848  2.5581 -1.1361
  151MOL0     H20349   1.077  -0.792   2.867 -0.7364 -0.2448 -0.9422
  151MOL0     H20350   1.182  -0.665   2.820  2.2085 -0.7016  1.5887
  151MOL0     H20351   1.147  -0.931   2.683 -0.0418  0.3403  1.1511
  151MOL0     H20352   1.048  -0.787   2.656  0.3178  0.8476  0.7184
  151MOL0     H20353   1.276  -0.661   2.598  1.1320 -0.1139 -0.8047
  151MOL0     H20354   1.348  -0.825   2.615 -0.5463 -0.7209  1.2766
  151MOL0     H20355   1.106  -0.770   2.435  0.0708  1.1763  2.6644
  151MOL0     H20356   1.234  -0.901   2.425  0.6170  0.5291 -1.0387
  151MOL0     H20357   1.280  -0.601   2.366 -2.1977  0.2382 -1.3984
  151MOL0     H20358   1.233  -0.718   2.246 -1.9377 -1.3492  0.7807
  151MOL0     H20359   1.478  -0.671   2.257  2.1149 -1.2327  0.1503
  151MOL0     H20360   1.488  -0.715   2.418  0.5265  2.9719 -2.2023
  151MOL0     H20361   1.416  -0.938   2.383  0.0171  0.7341  0.4652
  151MOL0     H20362   1.585  -0.895   2.324  0.3090  0.2459 -3.0348
  151MOL0     H20363   1.467  -1.060   2.189 -2.2082  1.1397  4.7469
  151MOL0     H20364   1.353  -0.946   2.131 -0.1379 -2.2141 -1.0916
  151MOL0     H20365   1.502  -0.976   2.898  0.8030  0.5343 -1.4394
  151MOL0     H20366   1.729  -0.894   2.895  0.9889  2.0632  2.4832
  151MOL0     H20367   2.033  -0.552   2.981  2.2855  0.6581  1.6853
  151MOL0     H20368   2.273  -0.502   2.990  1.7063 -0.3151  0.0363
  151MOL0     H20369   1.202  -0.059   3.577 -0.4924 -1.5064 -0.8044
  151MOL0     H20370   1.030   0.040   3.437  0.5682  0.8120 -0.7601
  151MOL0     H20371   1.032   0.322   3.033  0.2739  1.0818  0.6476
  151MOL0     H20372   0.911   0.432   2.847 -1.8664 -1.6595 -4.3104
  151MOL0     H20373   0.717   0.567   2.729  0.6437 -2.4904  1.8703
  151MOL0     H20374   0.595   0.576   2.862 -1.5678  0.0042 -0.3993
  151MOL0     H20375   0.523   0.682   2.645 -1.6764  0.3036  0.0080
  151MOL0     H20376   0.406   0.564   2.709 -1.2052  0.1283 -1.0878
  151MOL0     H20377   0.431   0.518   2.479 -0.0364  0.8173 -0.5980
  151MOL0     H20378   0.526   0.394   2.554  0.4436 -0.8171 -1.1353
  151MOL0     H20379   0.740   0.523   2.507  0.5961  2.4520 -0.2563
  151MOL0     H20380   0.648   0.453   2.368  1.3315 -0.1422  0.3498
  151MOL0     H20381   0.603   0.874   2.324 -0.8583 -0.1078  2.1857
  151MOL0     H20382   0.543   0.232   2.956  0.2720 -0.1716 -1.6816
  151MOL0     H20383   0.523   0.150   3.162 -0.0611  0.9239 -1.0209
  151MOL0     H20384   0.624   0.013   3.113  1.7177 -0.8453  1.7055
  151MOL0     H20385   0.659   0.092   3.262 -4.2588 -0.8938  0.6689
  152MOL0     O20386  10.632   0.205   8.138  0.2896  0.7146  0.0565
  152MOL0     C20387  10.733   0.248   8.191  0.0221  0.1218 -0.3500
  152MOL0     O20388  10.734   0.351   8.269  0.6277  0.2994  0.7003
  152MOL0     C20389  10.627   0.438   8.283  1.2644  0.8343  0.0642
  152MOL0     C20390  10.631   0.561   8.229  0.8478 -0.3644 -0.9914
  152MOL0     C20391  10.525   0.653   8.245  0.0274 -0.0304  0.0415
  152MOL0     C20392  10.404   0.618   8.310 -0.2356 -0.0688 -0.2881
  152MOL0     O20393  10.294   0.705   8.337 -1.2859 -0.1643  1.0211
  152MOL0     C20394  10.306   0.837   8.294  0.7874 -0.5761  0.0070
  152MOL0     C20395  10.262   0.854   8.146  0.5728 -0.6607 -0.0384
  152MOL0     C20396  10.131   0.929   8.131  0.6734 -0.0217 -0.4577
  152MOL0     C20397  10.007   0.839   8.181 -0.0071 -0.2755 -0.6352
  152MOL0     C20398   9.876   0.911   8.170  0.7668 -0.3033  1.0599
  152MOL0     C20399   9.758   0.822   8.217  0.2790  1.0017  0.4030
  152MOL0     C20400   9.723   0.704   8.110  0.7358 -0.3733 -0.4055
  152MOL0     C20401   9.597   0.623   8.158 -0.3511 -0.9126  0.1749
  152MOL0     N20402   9.477   0.700   8.122 -1.0261 -0.2732 -0.1692
  152MOL0     C20403   9.409   0.683   8.008  0.3990  0.1030 -0.3837
  152MOL0     C20404   9.318   0.784   8.003 -0.0991 -0.1985 -0.3381
  152MOL0     C20405   9.218   0.803   7.889  0.1661 -0.0512 -0.5150
  152MOL0     C20406   9.122   0.683   7.882 -0.3252 -0.1523 -0.0394
  152MOL0     C20407   9.161   0.556   7.807 -0.0271 -0.3353  0.7199
  152MOL0     C20408   9.209   0.587   7.661  0.0216  0.0463  0.3053
  152MOL0     O20409   9.355   0.610   7.667  0.3633 -0.2754 -0.0968
  152MOL0     C20410   9.435   0.587   7.559 -0.3598 -0.5545 -0.0327
  152MOL0     C20411   9.390   0.564   7.430 -0.7401  0.3843  0.2987
  152MOL0     C20412   9.483   0.522   7.326  0.0916 -0.8517  0.0484
  152MOL0     C20413   9.615   0.504   7.358  0.2681  0.1769  0.5383
  152MOL0     C20414   9.706   0.435   7.256 -0.0699 -0.5223  0.2239
  152MOL0     O20415   9.839   0.427   7.292 -0.6088 -0.3829  0.0355
  152MOL0     C20416   9.936   0.372   7.211  0.0879 -0.6039  0.0609
  152MOL0     C20417   9.917   0.280   7.101  0.1481 -0.4978 -0.2883
  152MOL0     C20418  10.029   0.251   7.018  0.3529  0.1901  0.3604
  152MOL0     C20419  10.158   0.291   7.057  0.2684  0.0987  0.3388
  152MOL0     O20420  10.266   0.266   6.971  0.4296 -0.0280 -0.1329
  152MOL0     C20421  10.252   0.316   6.842 -0.3137  0.6732  0.1159
  152MOL0     C20422  10.393   0.308   6.776 -0.7504 -0.3131  0.8850
  152MOL0     C20423  10.385   0.377   6.642  1.2459  0.3915 -0.8124
  152MOL0     C20424  10.493   0.345   6.546 -0.2986 -0.1759  0.0735
  152MOL0     C20425  10.494   0.442   6.425  0.5706  0.1340  0.3975
  152MOL0     C20426  10.372   0.451   6.342  0.1059 -0.5958  0.2316
  152MOL0     C20427  10.406   0.476   6.190 -0.0456 -0.4316 -0.2808
  152MOL0     C20428  10.477   0.607   6.154 -0.0694 -0.8545  0.5119
  152MOL0    Cl20429  10.549   0.600   5.984  0.3268 -0.2746 -0.1622
  152MOL0     C20430  10.174   0.369   7.177  0.8011  0.4780 -0.1922
  152MOL0     C20431  10.065   0.413   7.242 -0.0062 -0.4400 -0.1447
  152MOL0     O20432   9.659   0.380   7.157 -0.5038 -0.5714 -0.2711
  152MOL0     C20433   9.664   0.535   7.489  0.4266  0.6281 -0.5695
  152MOL0     C20434   9.569   0.569   7.590  0.1461  0.1228 -0.2208
  152MOL0     N20435   9.333   0.862   8.118  0.2878 -0.6820 -0.6048
  152MOL0     N20436   9.421   0.802   8.196 -0.2534  0.7699  1.9293
  152MOL0     C20437  10.400   0.487   8.374 -0.1638 -0.0843  0.9655
  152MOL0     C20438  10.512   0.402   8.351  0.4203 -0.3740 -0.1172
  152MOL0     C20439  10.859   0.173   8.162  0.0685  0.5061  1.2401
  152MOL0     C20440  10.979   0.231   8.207  0.9334 -0.1725  0.2855
  152MOL0     C20441  11.099   0.160   8.188  0.2459 -0.6863 -1.3186
  152MOL0     C20442  11.101   0.030   8.157  0.3352  0.3043 -0.8427
  152MOL0     O20443  11.230  -0.022   8.136 -0.1626 -0.3553  0.0127
  152MOL0     C20444  11.242  -0.156   8.083  0.4792 -0.1593 -0.4688
  152MOL0     C20445  11.390  -0.201   8.062  0.2562  0.2066 -0.0961
  152MOL0     C20446  11.390  -0.356   8.021 -0.0898 -0.2201 -0.3576
  152MOL0     C20447  11.538  -0.403   8.020  0.1402  0.0450  0.1380
  152MOL0     C20448  11.581  -0.450   8.152 -0.0561 -0.3410 -0.3599
  152MOL0     C20449  11.612  -0.496   8.254 -0.6805 -0.5151 -0.9327
  152MOL0     C20450  10.986  -0.035   8.113 -0.0248 -0.1559 -0.1665
  152MOL0     C20451  10.868   0.035   8.122  0.7050  0.3028 -0.0293
  152MOL0     C20452  10.756  -0.065   8.082  0.4860  0.0066 -1.1807
  152MOL0     H20453  10.710   0.594   8.162 -0.1045  1.0648 -1.4569
  152MOL0     H20454  10.544   0.743   8.188  2.9580 -1.0303 -0.7286
  152MOL0     H20455  10.240   0.895   8.360  1.4484 -0.1886  0.3353
  152MOL0     H20456  10.401   0.886   8.316  0.8583 -0.1576 -1.1570
  152MOL0     H20457  10.248   0.755   8.102  3.9152 -0.9809 -0.6213
  152MOL0     H20458  10.339   0.895   8.080 -0.3019 -1.3923 -1.5546
  152MOL0     H20459  10.113   0.952   8.025  0.2451  1.0750 -0.1590
  152MOL0     H20460  10.132   1.019   8.193 -1.4273  1.1755 -2.0222
  152MOL0     H20461   9.998   0.746   8.124 -4.2597  1.8362 -4.0822
  152MOL0     H20462  10.023   0.804   8.283  3.2016  0.0544 -0.9103
  152MOL0     H20463   9.886   1.003   8.227  0.4879  0.9792 -0.8720
  152MOL0     H20464   9.858   0.940   8.066  3.5616 -2.2181 -0.0760
  152MOL0     H20465   9.791   0.782   8.314  5.3623  0.6650 -1.1929
  152MOL0     H20466   9.666   0.881   8.229  0.0936  0.6927  0.5178
  152MOL0     H20467   9.800   0.628   8.091  0.8176  0.0123 -1.7143
  152MOL0     H20468   9.703   0.754   8.015 -0.7666 -0.9529 -0.4147
  152MOL0     H20469   9.585   0.523   8.114 -1.4989  0.3845 -2.6892
  152MOL0     H20470   9.596   0.609   8.267 -0.9782  2.2671  0.6829
  152MOL0     H20471   9.429   0.612   7.929  4.9098  1.2409 -0.5219
  152MOL0     H20472   9.163   0.897   7.895 -1.1960 -0.8667  0.1667
  152MOL0     H20473   9.271   0.820   7.794 -1.3583  0.0335 -1.3818
  152MOL0     H20474   9.092   0.654   7.984  0.7261  0.0482  0.3409
  152MOL0     H20475   9.029   0.716   7.836  0.2750  0.1744 -1.0410
  152MOL0     H20476   9.079   0.483   7.811  0.1957 -0.6085  0.3744
  152MOL0     H20477   9.249   0.515   7.858  2.1538  1.7964 -1.1094
  152MOL0     H20478   9.148   0.667   7.619 -1.0719 -0.8076  0.2326
  152MOL0     H20479   9.183   0.502   7.597  0.8411  0.1811 -0.2283
  152MOL0     H20480   9.285   0.569   7.401 -0.4117 -0.7568 -1.2649
  152MOL0     H20481   9.445   0.510   7.225  0.2137 -0.2225 -0.0817
  152MOL0     H20482   9.822   0.234   7.076 -1.1995  2.2922 -0.6920
  152MOL0     H20483  10.014   0.198   6.924 -0.7208  1.1638 -0.0270
  152MOL0     H20484  10.177   0.258   6.788 -0.2706 -0.4829  1.2498
  152MOL0     H20485  10.220   0.420   6.851  0.4926  0.7445  3.2225
  152MOL0     H20486  10.471   0.361   6.830 -0.2209  1.2960 -1.2840
  152MOL0     H20487  10.423   0.203   6.764 -1.1194 -0.2339 -1.0678
  152MOL0     H20488  10.288   0.368   6.593 -0.4021  3.9471  1.3299
  152MOL0     H20489  10.383   0.486   6.656 -1.4177  0.2763  0.3379
  152MOL0     H20490  10.492   0.243   6.505  1.2835  0.0903 -0.7246
  152MOL0     H20491  10.594   0.346   6.589  1.2417 -1.6266 -3.1410
  152MOL0     H20492  10.580   0.406   6.369  2.2085  1.0298  2.1968
  152MOL0     H20493  10.527   0.541   6.458 -0.9004  0.0503  2.2660
  152MOL0     H20494  10.315   0.359   6.355  2.1496 -2.1344 -1.1841
  152MOL0     H20495  10.311   0.530   6.387  0.5369 -1.3778  2.3401
  152MOL0     H20496  10.321   0.453   6.126 -1.1696 -1.6194  1.5391
  152MOL0     H20497  10.479   0.396   6.176  0.5027 -0.1388  0.7662
  152MOL0     H20498  10.401   0.686   6.159 -0.9471 -1.6623  0.3679
  152MOL0     H20499  10.553   0.629   6.229  1.1286 -1.0155 -0.6372
  152MOL0     H20500  10.273   0.394   7.214  0.5140  2.0113 -0.3936
  152MOL0     H20501  10.078   0.478   7.328 -0.0860 -1.4983  0.6908
  152MOL0     H20502   9.765   0.507   7.518 -0.0961 -2.1620 -1.1453
  152MOL0     H20503   9.594   0.575   7.696 -0.0238 -0.7869 -0.1204
  152MOL0     H20504  10.308   0.459   8.425 -0.1582 -0.8858  0.5498
  152MOL0     H20505  10.515   0.300   8.388 -2.7699 -0.7605 -0.6779
  152MOL0     H20506  10.981   0.333   8.246  3.2855  1.0264 -2.5855
  152MOL0     H20507  11.189   0.214   8.216 -1.2233  0.8395  0.8465
  152MOL0     H20508  11.190  -0.164   7.988 -0.9255 -0.4075  0.3039
  152MOL0     H20509  11.193  -0.226   8.151 -1.4706  2.2028  0.7090
  152MOL0     H20510  11.454  -0.191   8.151  1.5374  0.3479 -1.0008
  152MOL0     H20511  11.421  -0.136   7.980 -4.4127  1.8551 -0.8380
  152MOL0     H20512  11.347  -0.354   7.920  0.6851 -0.9820 -0.7079
  152MOL0     H20513  11.325  -0.413   8.087  1.5547 -1.7594 -0.0160
  152MOL0     H20514  11.561  -0.482   7.948  1.2314  1.7420 -1.4965
  152MOL0     H20515  11.606  -0.325   7.985 -1.3867  0.6152 -1.7569
  152MOL0     H20516  11.656  -0.528   8.346  0.6337  2.1834 -0.5202
  152MOL0     H20517  10.996  -0.137   8.077  1.0125  0.8216 -2.9259
  152MOL0     H20518  10.657  -0.062   8.129 -1.0914 -1.6998 -4.0556
  152MOL0     H20519  10.738  -0.066   7.974 -1.6064 -0.0551 -0.8815
  152MOL0     H20520  10.796  -0.163   8.108  1.8236  0.5004 -1.3134
  153MOL0     O20521   9.778  11.161  10.283  0.5418 -0.9409 -0.2534
  153MOL0     C20522   9.872  11.125  10.213  0.4976  0.6069  0.5313
  153MOL0     O20523   9.861  11.047  10.095  0.2708 -0.0194 -0.1980
  153MOL0     C20524   9.739  10.999  10.053  0.5978  0.4628 -0.0113
  153MOL0     C20525   9.610  11.023  10.113 -0.6184  1.2763 -0.0788
  153MOL0     C20526   9.495  10.958  10.065 -0.8510  0.4630 -0.3144
  153MOL0     C20527   9.500  10.879   9.951  0.5745 -0.9180  0.8107
  153MOL0     O20528   9.378  10.827   9.919  0.4453 -0.0000  0.2678
  153MOL0     C20529   9.373  10.764   9.784 -0.1635  0.7572 -0.1163
  153MOL0     C20530   9.230  10.768   9.739  0.3428 -0.3895 -0.6847
  153MOL0     C20531   9.200  10.689   9.618  1.1837  0.0713 -0.4313
  153MOL0     C20532   9.059  10.710   9.564  0.5157 -0.5362 -0.2853
  153MOL0     C20533   8.952  10.687   9.674 -1.1336  0.2343 -0.1557
  153MOL0     C20534   8.810  10.688   9.619  0.8581 -0.8039 -0.2612
  153MOL0     C20535   8.713  10.738   9.723 -0.1211 -1.1694 -0.0909
  153MOL0     C20536   8.686  10.889   9.714 -0.5112  0.3397  0.4759
  153MOL0     N20537   8.638  10.929   9.856 -0.3800  0.3236  0.3404
  153MOL0     C20538   8.513  10.944   9.911 -0.1422 -0.6211  0.5105
  153MOL0     C20539   8.535  10.976  10.044 -0.4473 -0.0456 -0.5147
  153MOL0     C20540   8.420  10.997  10.141 -0.5232  0.3128 -0.1478
  153MOL0     C20541   8.296  11.048  10.078  0.0820  0.2352 -0.2561
  153MOL0     C20542   8.194  10.934  10.032 -0.8771 -0.0255 -0.2995
  153MOL0     C20543   8.053  10.981  10.036  0.0424  0.0887 -0.8212
  153MOL0     O20544   8.000  10.989  10.169  0.2667 -0.7987  0.2105
  153MOL0     C20545   7.870  11.027  10.185  0.4642  0.2822 -0.2227
  153MOL0     C20546   7.773  11.065  10.085  0.0052  0.0103 -0.1318
  153MOL0     C20547   7.638  11.100  10.107 -0.4350  0.2269 -0.3097
  153MOL0     C20548   7.598  11.110  10.242 -0.3920  0.4053  0.7485
  153MOL0     C20549   7.458  11.147  10.269 -0.6126 -0.1769  0.4873
  153MOL0     O20550   7.398  11.096  10.372 -0.4705  0.2749  0.3843
  153MOL0     C20551   7.286  11.157  10.413  1.1240  0.3765  0.0251
  153MOL0     C20552   7.163  11.090  10.413  0.2458 -0.4487 -0.4483
  153MOL0     C20553   7.045  11.153  10.464 -0.7053 -0.4124  0.2559
  153MOL0     C20554   7.057  11.274  10.537 -0.8157 -0.1202 -0.3185
  153MOL0     O20555   6.956  11.320  10.609  0.2723  0.0613 -0.4608
  153MOL0     C20556   6.958  11.265  10.742 -0.3086 -1.1038  0.8154
  153MOL0     C20557   6.809  11.235  10.801  0.6222 -0.2917  0.7389
  153MOL0     C20558   6.804  11.168  10.936  0.0405 -0.8970 -0.0965
  153MOL0     C20559   6.769  11.263  11.050  0.5284 -0.2464 -1.1876
  153MOL0     C20560   6.781  11.191  11.191 -0.0428 -0.3562 -0.1564
  153MOL0     C20561   6.703  11.288  11.286  0.5648  0.1387 -0.4604
  153MOL0     C20562   6.689  11.230  11.427  0.0235 -0.1003 -0.0618
  153MOL0     C20563   6.610  11.318  11.522 -0.1714 -0.1882  0.8500
  153MOL0    Cl20564   6.697  11.467  11.570 -0.1518  0.2986 -0.3039
  153MOL0     C20565   7.182  11.339  10.551 -0.2563 -0.9532  0.0559
  153MOL0     C20566   7.293  11.282  10.476 -0.3434  0.8805 -0.0384
  153MOL0     O20567   7.405  11.226  10.191 -0.8375  0.4588 -0.6677
  153MOL0     C20568   7.687  11.062  10.342 -0.4480 -0.4369  0.1978
  153MOL0     C20569   7.820  11.028  10.310  0.1851 -0.4930 -0.9152
  153MOL0     N20570   8.665  10.978  10.066 -0.0298  0.7162 -0.1075
  153MOL0     N20571   8.725  10.950   9.954 -0.9055  0.0811  0.4496
  153MOL0     C20572   9.631  10.849   9.891  0.4112  0.2755 -0.7216
  153MOL0     C20573   9.739  10.919   9.946 -0.2464 -0.7171  0.0377
  153MOL0     C20574  10.011  11.175  10.245  0.4940  0.2495 -0.2910
  153MOL0     C20575  10.115  11.101  10.208 -0.5498  0.5184  0.2762
  153MOL0     C20576  10.251  11.136  10.247 -0.2731  0.0465 -0.4613
  153MOL0     C20577  10.270  11.233  10.345  0.3237 -0.0618 -0.2443
  153MOL0     O20578  10.386  11.232  10.415  0.4881 -0.4869  0.8047
  153MOL0     C20579  10.399  11.319  10.526 -0.3844  0.4048  0.8435
  153MOL0     C20580  10.536  11.293  10.593  1.3076  0.6361  0.7394
  153MOL0     C20581  10.666  11.327  10.501 -0.1345 -0.3265 -0.7380
  153MOL0     C20582  10.799  11.342  10.588  0.4664 -0.2299 -0.6683
  153MOL0     C20583  10.914  11.368  10.506 -0.1510  1.0750  0.2923
  153MOL0     C20584  11.021  11.398  10.455  0.6810  0.2048  0.7556
  153MOL0     C20585  10.157  11.317  10.377 -0.7641  1.1211  0.4889
  153MOL0     C20586  10.035  11.287  10.332 -0.3026  0.8197 -0.3473
  153MOL0     C20587   9.919  11.371  10.380 -0.0426 -0.1348 -0.0151
  153MOL0     H20588   9.593  11.089  10.197  0.4341  0.6176  0.6733
  153MOL0     H20589   9.397  10.975  10.109 -2.0276  0.5820 -2.7834
  153MOL0     H20590   9.420  10.835   9.716 -1.2754  1.8297  0.1893
  153MOL0     H20591   9.415  10.663   9.786 -0.4602  0.6364  0.0248
  153MOL0     H20592   9.187  10.869   9.738 -3.2377 -1.7061  1.0673
  153MOL0     H20593   9.179  10.717   9.821  0.1096  1.4762  0.3726
  153MOL0     H20594   9.199  10.583   9.644  2.7278  0.3268  0.8603
  153MOL0     H20595   9.280  10.711   9.547  2.0463 -0.7679  0.2551
  153MOL0     H20596   9.061  10.815   9.534  2.0029 -0.4851 -0.0998
  153MOL0     H20597   9.051  10.659   9.468  1.9360 -2.1335  0.3924
  153MOL0     H20598   8.973  10.589   9.718  0.8504  0.5999 -0.1728
  153MOL0     H20599   8.964  10.771   9.743  2.0604  1.0353 -1.4835
  153MOL0     H20600   8.805  10.749   9.528 -1.0641 -1.1368 -0.4241
  153MOL0     H20601   8.797  10.585   9.583  2.6377 -1.1913  0.0913
  153MOL0     H20602   8.749  10.718   9.824  4.4618  0.7049 -1.1277
  153MOL0     H20603   8.617  10.687   9.714 -0.0536 -1.2296 -0.5005
  153MOL0     H20604   8.770  10.953   9.686 -1.0231  0.6597 -0.3711
  153MOL0     H20605   8.608  10.914   9.641  0.8382  3.2942 -0.1112
  153MOL0     H20606   8.416  10.935   9.863  0.1453 -0.1317 -0.1731
  153MOL0     H20607   8.406  10.904  10.196 -0.5861 -0.2071 -1.0246
  153MOL0     H20608   8.449  11.072  10.215 -1.1418 -0.7374  1.2052
  153MOL0     H20609   8.244  11.103  10.156 -2.8794 -2.4820 -0.1135
  153MOL0     H20610   8.313  11.104   9.985  1.9390 -2.0857 -1.4432
  153MOL0     H20611   8.197  10.848  10.100 -1.4636 -0.7720 -1.1921
  153MOL0     H20612   8.219  10.896   9.933 -2.4927 -0.2877 -0.6407
  153MOL0     H20613   7.984  10.916   9.981 -0.9367  0.7337 -0.3880
  153MOL0     H20614   8.046  11.081   9.993 -0.5469 -0.1571 -1.3086
  153MOL0     H20615   7.799  11.077   9.980 -0.3142  0.9039 -0.1204
  153MOL0     H20616   7.572  11.134  10.028 -0.2211  0.1198 -0.5350
  153MOL0     H20617   7.160  10.992  10.367  0.8573 -0.5975 -0.1799
  153MOL0     H20618   6.951  11.099  10.464 -1.9995  1.6810 -0.6379
  153MOL0     H20619   7.027  11.180  10.749  2.3827  0.9390  0.5600
  153MOL0     H20620   6.999  11.347  10.801 -1.9305  0.5652 -0.2708
  153MOL0     H20621   6.752  11.328  10.811  1.3900  0.0657  2.1473
  153MOL0     H20622   6.761  11.174  10.724 -0.7890  2.6966 -0.8860
  153MOL0     H20623   6.732  11.085  10.939 -0.5823 -0.3779 -0.4420
  153MOL0     H20624   6.900  11.118  10.955 -1.1879 -3.4762 -0.2498
  153MOL0     H20625   6.666  11.299  11.040  1.3499  1.9855 -2.5146
  153MOL0     H20626   6.830  11.353  11.053  2.8164 -1.7324 -0.4889
  153MOL0     H20627   6.890  11.192  11.201  0.1673  0.5331 -2.1265
  153MOL0     H20628   6.726  11.096  11.196 -2.3342  0.9540  0.8318
  153MOL0     H20629   6.741  11.391  11.288 -1.8659  1.0975  0.9871
  153MOL0     H20630   6.600  11.285  11.249  1.4494 -3.5703 -3.1464
  153MOL0     H20631   6.786  11.205  11.470 -0.8088  0.5535  2.3446
  153MOL0     H20632   6.634  11.135  11.421  0.9461 -0.6884  0.5261
  153MOL0     H20633   6.519  11.345  11.468  0.0818 -1.2467 -0.1557
  153MOL0     H20634   6.564  11.271  11.610  0.0412 -2.5251 -0.2052
  153MOL0     H20635   7.186  11.431  10.609 -1.5468 -0.2000 -1.0046
  153MOL0     H20636   7.385  11.338  10.484 -0.0807  0.5121 -0.4646
  153MOL0     H20637   7.652  11.044  10.443  0.8152 -2.3850  0.3374
  153MOL0     H20638   7.895  11.003  10.384  0.2984  0.5078 -0.6757
  153MOL0     H20639   9.647  10.790   9.801 -1.4590  0.1313 -0.9994
  153MOL0     H20640   9.840  10.894   9.915  0.1544  0.6806  0.1606
  153MOL0     H20641  10.097  11.007  10.157  2.3167 -0.2059  0.4503
  153MOL0     H20642  10.339  11.081  10.216  0.2038  1.4115 -1.6262
  153MOL0     H20643  10.323  11.289  10.599 -1.6628  1.9908  0.2306
  153MOL0     H20644  10.387  11.423  10.492 -0.7729  0.1142  0.0731
  153MOL0     H20645  10.532  11.191  10.631 -1.8487  0.7299  0.9578
  153MOL0     H20646  10.545  11.362  10.677 -0.9462  1.0105  0.7313
  153MOL0     H20647  10.645  11.415  10.439 -1.4016 -0.0448  0.0370
  153MOL0     H20648  10.688  11.244  10.435  1.4183 -0.9362  0.4823
  153MOL0     H20649  10.787  11.428  10.656  2.1082 -0.5175  0.0315
  153MOL0     H20650  10.828  11.257  10.650 -0.0196  0.5798  0.7249
  153MOL0     H20651  11.110  11.448  10.424 -0.0275  1.0092 -0.0297
  153MOL0     H20652  10.166  11.412  10.430 -1.1143  1.6922 -0.4414
  153MOL0     H20653   9.959  11.457  10.436  1.6970  0.1333 -1.5599
  153MOL0     H20654   9.855  11.412  10.302 -1.0727  4.5117  2.8394
  153MOL0     H20655   9.849  11.318  10.445 -0.2774 -1.5861 -1.4105
  154MOL0     O20656   5.281   5.149   7.122 -0.1053  0.0327 -0.3749
  154MOL0     C20657   5.239   5.219   7.214 -0.1553 -0.3803  0.6170
  154MOL0     O20658   5.313   5.254   7.328  0.3681 -0.5014  0.6942
  154MOL0     C20659   5.449   5.231   7.315 -0.0431  1.0698 -0.1682
  154MOL0     C20660   5.510   5.113   7.343  0.1944  0.3925  0.8152
  154MOL0     C20661   5.647   5.089   7.319 -0.3091  0.0623  0.1421
  154MOL0     C20662   5.718   5.196   7.265  0.5182  0.5850  0.3793
  154MOL0     O20663   5.845   5.179   7.220  0.2418 -0.1255 -0.8522
  154MOL0     C20664   5.901   5.050   7.188  0.5534  0.1474  0.1101
  154MOL0     C20665   5.822   4.980   7.083  0.2158 -0.1672  0.1497
  154MOL0     C20666   5.884   4.846   7.042  0.5380 -0.3712 -0.4659
  154MOL0     C20667   5.794   4.767   6.939  0.0310 -0.1762  0.0369
  154MOL0     C20668   5.783   4.834   6.807 -0.6441  0.4249  0.4889
  154MOL0     C20669   5.919   4.875   6.743  0.4311  1.4909  0.0755
  154MOL0     C20670   6.007   4.748   6.731 -0.0502 -0.3115 -0.7215
  154MOL0     C20671   5.938   4.636   6.645 -0.1990 -0.7459  0.8658
  154MOL0     N20672   6.049   4.539   6.600  1.0383 -0.2862 -0.0797
  154MOL0     C20673   6.169   4.499   6.666 -0.5646  0.0150 -0.1346
  154MOL0     C20674   6.218   4.407   6.581  0.8322 -0.3256  0.4136
  154MOL0     C20675   6.339   4.312   6.584  0.1489  0.2687 -0.1744
  154MOL0     C20676   6.464   4.388   6.557 -0.6259 -0.6934 -0.2645
  154MOL0     C20677   6.589   4.305   6.588 -0.5033 -0.2460 -0.2034
  154MOL0     C20678   6.716   4.387   6.561  0.2257  0.1838  0.1590
  154MOL0     O20679   6.820   4.284   6.580  0.1776 -0.5414 -0.6420
  154MOL0     C20680   6.955   4.316   6.569  1.2270 -0.3550  0.2480
  154MOL0     C20681   6.994   4.429   6.497 -0.1772 -0.1165  0.5674
  154MOL0     C20682   7.129   4.446   6.473 -0.0934 -0.1425  0.6593
  154MOL0     C20683   7.231   4.364   6.517  0.1636 -0.9595  0.6346
  154MOL0     C20684   7.374   4.398   6.494  0.0838  0.4194  0.6783
  154MOL0     O20685   7.400   4.490   6.397  0.2222 -0.5237 -0.1925
  154MOL0     C20686   7.534   4.502   6.368  0.6083 -0.7723  0.1225
  154MOL0     C20687   7.606   4.605   6.421 -0.2649  0.5322 -0.5957
  154MOL0     C20688   7.730   4.636   6.369 -0.0604  0.7186 -0.2763
  154MOL0     C20689   7.791   4.545   6.280 -0.3083 -0.0002  0.5888
  154MOL0     O20690   7.917   4.558   6.223 -1.1774 -0.4320 -0.6947
  154MOL0     C20691   7.973   4.694   6.207 -0.0240  1.1653 -0.1178
  154MOL0     C20692   8.101   4.683   6.124 -0.0141  0.5227  0.8255
  154MOL0     C20693   8.233   4.642   6.192  0.0615  0.1607  0.0126
  154MOL0     C20694   8.330   4.572   6.097  0.8737 -0.6600  0.3131
  154MOL0     C20695   8.475   4.586   6.142  0.6360 -0.2618  0.4453
  154MOL0     C20696   8.529   4.733   6.155  0.3851  0.8830 -0.7027
  154MOL0     C20697   8.679   4.737   6.192 -0.0186 -0.2216 -0.1788
  154MOL0     C20698   8.717   4.876   6.221 -0.0592 -1.1723 -0.6728
  154MOL0    Cl20699   8.648   4.917   6.385  0.5268  0.0648  0.0263
  154MOL0     C20700   7.715   4.443   6.220 -0.8569 -0.4866  0.0236
  154MOL0     C20701   7.587   4.425   6.270 -0.5964 -0.1875  0.6938
  154MOL0     O20702   7.457   4.339   6.566  0.1563 -0.2522  0.6009
  154MOL0     C20703   7.186   4.238   6.569 -0.0953 -0.0566  0.4088
  154MOL0     C20704   7.049   4.221   6.603 -0.2557 -0.3456  0.3562
  154MOL0     N20705   6.137   4.398   6.472  0.5577 -0.0336 -0.1863
  154MOL0     N20706   6.032   4.475   6.479  0.2003  0.3877  0.0667
  154MOL0     C20707   5.661   5.313   7.235  0.5696 -0.3391 -0.7357
  154MOL0     C20708   5.523   5.336   7.269  0.2829 -0.3531  0.3231
  154MOL0     C20709   5.096   5.259   7.224 -0.2352 -0.2834 -0.3146
  154MOL0     C20710   5.034   5.232   7.351  0.0107 -0.8149  0.6409
  154MOL0     C20711   4.906   5.279   7.375  0.0959  0.4632  0.1706
  154MOL0     C20712   4.837   5.356   7.281  0.4033  0.1518  0.1500
  154MOL0     O20713   4.715   5.415   7.298  0.0931 -0.5760  0.6240
  154MOL0     C20714   4.656   5.416   7.427  0.4803  0.2924 -0.2037
  154MOL0     C20715   4.532   5.509   7.422 -0.1755  0.1642 -0.0049
  154MOL0     C20716   4.405   5.441   7.352  0.3917 -0.1362 -0.0335
  154MOL0     C20717   4.370   5.308   7.414  0.4669  0.4762  0.5796
  154MOL0     C20718   4.238   5.269   7.347 -0.1012  0.0753  0.3251
  154MOL0     C20719   4.136   5.239   7.291  1.4209 -0.5890 -0.9367
  154MOL0     C20720   4.901   5.378   7.157  0.6881 -0.0247  0.0046
  154MOL0     C20721   5.027   5.337   7.123 -0.5001 -0.2017  0.6774
  154MOL0     C20722   5.086   5.377   6.985  0.9321 -0.0983  0.4875
  154MOL0     H20723   5.440   5.036   7.375 -0.4426 -0.6954 -2.7250
  154MOL0     H20724   5.697   4.996   7.343  1.8325  1.1674  0.2124
  154MOL0     H20725   5.995   5.074   7.137  0.1761 -1.6322 -1.5557
  154MOL0     H20726   5.928   5.002   7.282 -0.5715  2.4881  1.7351
  154MOL0     H20727   5.818   5.041   6.992 -1.5275  1.6824  1.3905
  154MOL0     H20728   5.716   4.961   7.101  0.3448 -2.0640 -0.8410
  154MOL0     H20729   5.899   4.792   7.136  1.6265 -0.7387 -0.8349
  154MOL0     H20730   5.986   4.861   7.004  0.1799  0.6767 -1.0537
  154MOL0     H20731   5.830   4.666   6.916 -2.2868 -0.9676 -0.3959
  154MOL0     H20732   5.690   4.764   6.973  1.1514 -1.9630  3.8470
  154MOL0     H20733   5.735   4.767   6.735 -2.3381  1.2387  0.7886
  154MOL0     H20734   5.717   4.922   6.807  0.8460  1.6005 -0.4334
  154MOL0     H20735   5.893   4.918   6.646  0.0694 -1.2700 -1.1472
  154MOL0     H20736   5.977   4.949   6.800 -0.4192  0.1566  2.8800
  154MOL0     H20737   6.037   4.710   6.829  1.1226 -0.8332 -1.2597
  154MOL0     H20738   6.100   4.784   6.685 -0.9292  3.2206 -0.0091
  154MOL0     H20739   5.864   4.580   6.704 -0.7254  1.1453  2.0714
  154MOL0     H20740   5.874   4.672   6.563 -1.1830 -0.6878  1.6370
  154MOL0     H20741   6.198   4.524   6.767 -2.0878 -3.0567  1.1918
  154MOL0     H20742   6.340   4.265   6.682 -1.4910  2.0879  0.7906
  154MOL0     H20743   6.324   4.226   6.517 -0.0640 -0.0129  0.2313
  154MOL0     H20744   6.463   4.433   6.457 -4.0022  0.6292  0.2530
  154MOL0     H20745   6.463   4.476   6.623  0.3748 -0.3921 -0.6184
  154MOL0     H20746   6.591   4.215   6.527  0.9670 -2.4216  2.7696
  154MOL0     H20747   6.593   4.266   6.690 -0.7073 -0.7151 -0.3726
  154MOL0     H20748   6.709   4.466   6.636 -1.1263  0.3748 -0.1403
  154MOL0     H20749   6.710   4.440   6.465 -0.3431  3.3350  1.8206
  154MOL0     H20750   6.930   4.505   6.453  1.6237  0.2989 -1.5394
  154MOL0     H20751   7.165   4.537   6.425 -1.8104 -0.6040 -1.7035
  154MOL0     H20752   7.549   4.657   6.498  1.2475 -2.5045  2.9055
  154MOL0     H20753   7.806   4.698   6.416  0.4128 -0.9163  1.2115
  154MOL0     H20754   7.900   4.751   6.150 -0.9250 -2.2705 -2.7027
  154MOL0     H20755   8.003   4.739   6.302 -0.0148 -0.4327  0.6692
  154MOL0     H20756   8.073   4.605   6.052  0.1949 -0.2386  1.5453
  154MOL0     H20757   8.127   4.779   6.079 -0.1223 -0.3794 -1.2870
  154MOL0     H20758   8.282   4.727   6.241 -0.3542  1.4111 -1.6841
  154MOL0     H20759   8.216   4.575   6.277  0.5459 -0.9374 -0.7328
  154MOL0     H20760   8.326   4.617   5.998 -2.0954 -5.2995 -2.0240
  154MOL0     H20761   8.304   4.468   6.077  0.1334 -0.4374  0.0819
  154MOL0     H20762   8.538   4.532   6.070 -0.0722 -0.0468 -0.3537
  154MOL0     H20763   8.483   4.533   6.237 -0.7844  1.5814  1.6729
  154MOL0     H20764   8.501   4.811   6.084 -0.1693  1.3412 -0.0035
  154MOL0     H20765   8.485   4.773   6.247  0.9262  0.9704 -0.4764
  154MOL0     H20766   8.733   4.695   6.106 -0.2273 -0.1497 -0.3462
  154MOL0     H20767   8.689   4.680   6.285 -1.6378 -0.5812 -0.2013
  154MOL0     H20768   8.826   4.888   6.226 -0.1144 -0.7654 -0.4759
  154MOL0     H20769   8.683   4.943   6.142 -0.5936 -1.7720 -0.9570
  154MOL0     H20770   7.764   4.374   6.153 -2.7632 -1.4957 -0.3826
  154MOL0     H20771   7.534   4.345   6.219  2.0009 -0.7814 -1.3191
  154MOL0     H20772   7.259   4.160   6.585 -0.5705 -0.8068 -0.9087
  154MOL0     H20773   7.037   4.128   6.657  3.6704 -1.7099 -0.8293
  154MOL0     H20774   5.722   5.395   7.199  2.5907 -0.8898  1.2458
  154MOL0     H20775   5.477   5.432   7.250  2.6312  0.7785  0.0442
  154MOL0     H20776   5.091   5.179   7.428  0.1213  0.3875  1.4067
  154MOL0     H20777   4.863   5.247   7.469  1.8895 -0.9473  0.5709
  154MOL0     H20778   4.721   5.451   7.507  0.2715  0.0263  0.0864
  154MOL0     H20779   4.636   5.317   7.471 -3.2298  1.5669  1.4096
  154MOL0     H20780   4.574   5.598   7.375  1.1766 -0.7921 -0.6571
  154MOL0     H20781   4.510   5.537   7.526  0.6525  1.0089 -0.0465
  154MOL0     H20782   4.423   5.431   7.244 -1.4222  1.5842 -0.5497
  154MOL0     H20783   4.317   5.506   7.353  1.2126  1.1249 -2.0377
  154MOL0     H20784   4.444   5.230   7.394 -0.6953 -1.2851  2.7561
  154MOL0     H20785   4.356   5.325   7.521 -0.1702  0.7761  0.4506
  154MOL0     H20786   4.049   5.225   7.230  2.2701 -0.1756 -2.2941
  154MOL0     H20787   4.850   5.445   7.087 -0.1158  1.0641  1.5466
  154MOL0     H20788   5.121   5.480   6.990 -2.1918  1.1005 -0.3277
  154MOL0     H20789   5.173   5.318   6.955  1.4492  1.7271 -1.8966
  154MOL0     H20790   5.006   5.371   6.911  0.1177  0.1588  1.3358
  155MOL0     O20791  10.571   3.387   3.619  0.1598 -0.3419 -0.4198
  155MOL0     C20792  10.517   3.479   3.676 -1.1068  0.6162  0.2050
  155MOL0     O20793  10.586   3.583   3.739  0.1580  0.0355 -0.1805
  155MOL0     C20794  10.717   3.576   3.725 -0.6115  0.1356  0.2807
  155MOL0     C20795  10.797   3.493   3.805 -0.1577 -0.3333 -0.7712
  155MOL0     C20796  10.936   3.494   3.785 -0.1277  0.6864 -0.0880
  155MOL0     C20797  10.998   3.566   3.681  0.4538  0.9742  0.2032
  155MOL0     O20798  11.135   3.563   3.649  0.3504  0.4982 -0.7924
  155MOL0     C20799  11.198   3.689   3.638  0.0967  1.2915 -0.7211
  155MOL0     C20800  11.344   3.665   3.612  0.1778  0.5418  1.2333
  155MOL0     C20801  11.437   3.676   3.724  1.2687 -1.1110  0.0721
  155MOL0     C20802  11.578   3.704   3.676  0.3020 -1.1018 -0.3133
  155MOL0     C20803  11.681   3.697   3.791 -0.4974  0.2873  0.5281
  155MOL0     C20804  11.814   3.756   3.735 -0.8093 -0.0180 -0.1678
  155MOL0     C20805  11.908   3.763   3.856  0.7572  0.2408  0.1035
  155MOL0     C20806  12.062   3.774   3.816  0.5745 -0.1597 -0.4967
  155MOL0     N20807  12.102   3.909   3.771  0.3059  0.1979  0.1182
  155MOL0     C20808  12.157   3.937   3.647 -0.0891  0.1058  0.3081
  155MOL0     C20809  12.175   4.066   3.638 -0.0898 -0.9795 -0.1463
  155MOL0     C20810  12.222   4.142   3.516 -0.2297  0.0384 -0.7390
  155MOL0     C20811  12.377   4.127   3.501  0.1645  0.4056 -0.8325
  155MOL0     C20812  12.468   4.223   3.577  0.0002  0.5357 -0.2057
  155MOL0     C20813  12.614   4.170   3.588  0.1524  0.5853  0.1142
  155MOL0     O20814  12.681   4.160   3.464  0.3006 -0.4419  0.5962
  155MOL0     C20815  12.818   4.138   3.457  0.3387  0.3806 -0.1806
  155MOL0     C20816  12.915   4.140   3.563  0.4042 -0.4827  0.1512
  155MOL0     C20817  13.052   4.122   3.541 -0.1267  0.4497 -0.7130
  155MOL0     C20818  13.100   4.115   3.409  0.3718  0.2524 -0.3971
  155MOL0     C20819  13.242   4.108   3.372 -1.2206 -0.2533 -0.8061
  155MOL0     O20820  13.266   4.083   3.243 -0.0925 -0.0789 -0.1405
  155MOL0     C20821  13.388   4.038   3.214 -0.0507  0.6471 -0.4090
  155MOL0     C20822  13.496   4.119   3.181  0.2710 -0.1986  0.4631
  155MOL0     C20823  13.616   4.064   3.151  0.0101  0.2222 -0.5578
  155MOL0     C20824  13.633   3.925   3.145  0.9902 -1.1513  0.4500
  155MOL0     O20825  13.753   3.873   3.109  0.6157 -0.1559  0.7419
  155MOL0     C20826  13.790   3.898   2.970  0.7973  0.9825  0.0182
  155MOL0     C20827  13.705   3.810   2.871 -0.2142 -0.5902 -0.7763
  155MOL0     C20828  13.718   3.660   2.914 -0.6535  0.6423 -1.0871
  155MOL0     C20829  13.652   3.568   2.814  0.2420 -0.1742  0.1706
  155MOL0     C20830  13.679   3.412   2.836 -0.0367  0.5595 -0.5721
  155MOL0     C20831  13.593   3.334   2.733  0.0930  0.8351  0.3269
  155MOL0     C20832  13.612   3.185   2.745 -0.1724  0.0251  0.0478
  155MOL0     C20833  13.546   3.108   2.626 -0.4703  0.1977 -0.1653
  155MOL0    Cl20834  13.597   2.940   2.621 -0.4368 -0.6288 -0.3881
  155MOL0     C20835  13.534   3.849   3.193  0.7507  1.0428  0.6063
  155MOL0     C20836  13.402   3.900   3.220  0.2382  0.2618  0.8068
  155MOL0     O20837  13.323   4.129   3.463 -0.1833 -0.2407  0.1988
  155MOL0     C20838  13.007   4.128   3.308  0.0947 -0.3963  0.3567
  155MOL0     C20839  12.873   4.141   3.328  0.1474 -0.1653  0.6800
  155MOL0     N20840  12.129   4.121   3.751 -1.0151  0.0171 -0.0668
  155MOL0     N20841  12.090   4.026   3.840  0.1536 -0.3525  0.0600
  155MOL0     C20842  10.921   3.643   3.601 -0.3856 -0.4110  0.2539
  155MOL0     C20843  10.781   3.652   3.621  0.3477  0.7185 -0.7007
  155MOL0     C20844  10.377   3.494   3.664  0.1784  0.2503 -0.7752
  155MOL0     C20845  10.305   3.377   3.679  0.0300 -0.0034 -0.0652
  155MOL0     C20846  10.165   3.374   3.650 -0.8850 -0.2437  0.2510
  155MOL0     C20847  10.094   3.490   3.615  0.5824  0.2524 -0.7862
  155MOL0     O20848   9.961   3.490   3.577 -0.3678 -0.4392  0.3193
  155MOL0     C20849   9.891   3.361   3.562 -0.3735 -0.1302  0.1190
  155MOL0     C20850   9.742   3.381   3.518  0.1864 -0.9991 -0.4551
  155MOL0     C20851   9.723   3.435   3.378  1.1156  0.7869 -0.0549
  155MOL0     C20852   9.579   3.492   3.365  0.2535 -0.5642 -0.3169
  155MOL0     C20853   9.475   3.391   3.352  0.5406 -0.0855 -0.0414
  155MOL0     C20854   9.391   3.308   3.343  0.0515  0.5475 -0.1977
  155MOL0     C20855  10.156   3.617   3.604  0.2927 -0.1994 -0.0185
  155MOL0     C20856  10.297   3.614   3.636  0.0940 -0.9007  0.3578
  155MOL0     C20857  10.369   3.744   3.616  1.1053 -0.7134 -0.0775
  155MOL0     H20858  10.760   3.426   3.881 -0.3536 -1.8765 -2.1690
  155MOL0     H20859  10.999   3.436   3.852  0.1284 -0.1000 -0.9839
  155MOL0     H20860  11.156   3.743   3.552  0.5877 -0.3134 -2.0435
  155MOL0     H20861  11.191   3.740   3.734  0.4808 -1.5188  0.9058
  155MOL0     H20862  11.360   3.733   3.528 -1.2273 -1.9640 -1.2390
  155MOL0     H20863  11.352   3.564   3.572 -0.7976  0.0460  2.2424
  155MOL0     H20864  11.441   3.589   3.790 -0.3609  0.7919  2.8838
  155MOL0     H20865  11.392   3.762   3.775  0.7454  0.6318 -3.0426
  155MOL0     H20866  11.601   3.641   3.590  0.1615  0.2928 -1.4024
  155MOL0     H20867  11.581   3.805   3.636 -0.5902 -0.6754  0.6381
  155MOL0     H20868  11.642   3.736   3.885 -1.3904  1.1405 -0.1777
  155MOL0     H20869  11.701   3.592   3.817 -0.5214 -0.2714 -1.5664
  155MOL0     H20870  11.848   3.687   3.658  1.8736  0.6125  0.3711
  155MOL0     H20871  11.794   3.855   3.694 -0.8084  0.5101  1.0503
  155MOL0     H20872  11.895   3.672   3.914 -0.5694 -0.2151 -0.8452
  155MOL0     H20873  11.879   3.849   3.918  0.3930 -0.1339  0.4604
  155MOL0     H20874  12.127   3.736   3.896 -0.0441 -3.7861 -1.5542
  155MOL0     H20875  12.072   3.712   3.727 -1.1667 -1.1676 -0.0152
  155MOL0     H20876  12.186   3.865   3.571  0.2097  0.8382 -0.2724
  155MOL0     H20877  12.182   4.081   3.434 -0.7348  1.2631 -1.4355
  155MOL0     H20878  12.186   4.245   3.523  0.4533  0.4516 -2.6104
  155MOL0     H20879  12.407   4.031   3.544 -1.1023  0.9898  1.5383
  155MOL0     H20880  12.409   4.124   3.397  0.9165  0.2994 -0.6046
  155MOL0     H20881  12.432   4.230   3.680 -1.5752  1.6908 -0.7827
  155MOL0     H20882  12.454   4.320   3.529  1.5441  2.5790  3.0983
  155MOL0     H20883  12.616   4.070   3.633 -0.4314  0.9175  0.9242
  155MOL0     H20884  12.681   4.232   3.648  0.4999  0.1890  0.1400
  155MOL0     H20885  12.879   4.131   3.665  0.2194 -0.0056  0.1330
  155MOL0     H20886  13.115   4.107   3.629 -1.3708 -1.7082 -0.0963
  155MOL0     H20887  13.470   4.224   3.169 -2.1212 -0.8961 -1.2431
  155MOL0     H20888  13.695   4.132   3.120 -0.2523  0.1440 -1.4106
  155MOL0     H20889  13.785   4.007   2.963  0.9215  0.9756 -0.2117
  155MOL0     H20890  13.893   3.868   2.946  0.1739 -1.3104  0.0623
  155MOL0     H20891  13.599   3.835   2.865 -0.9297 -0.6441  5.1863
  155MOL0     H20892  13.741   3.819   2.769  0.4592  0.4659 -0.4626
  155MOL0     H20893  13.822   3.627   2.925 -0.8774  0.1233 -0.4314
  155MOL0     H20894  13.670   3.650   3.012 -0.6055  0.4707 -1.0820
  155MOL0     H20895  13.676   3.587   2.709  1.7645 -3.3762 -0.1765
  155MOL0     H20896  13.546   3.593   2.823  0.2073  0.0077 -0.6656
  155MOL0     H20897  13.657   3.392   2.941 -1.4569  2.2002 -0.4945
  155MOL0     H20898  13.784   3.398   2.812  0.6625  3.8317  0.0757
  155MOL0     H20899  13.489   3.368   2.741 -0.5296 -0.7091 -0.6841
  155MOL0     H20900  13.623   3.365   2.633  0.6423 -0.3326  0.1139
  155MOL0     H20901  13.568   3.153   2.840  0.9641  0.8684  0.8956
  155MOL0     H20902  13.718   3.160   2.734 -0.4232 -0.3098 -1.9894
  155MOL0     H20903  13.438   3.116   2.638 -0.2370 -0.2380  3.1845
  155MOL0     H20904  13.567   3.145   2.526 -0.3542 -2.1418 -1.0730
  155MOL0     H20905  13.553   3.743   3.204  4.1345  1.5626  0.7951
  155MOL0     H20906  13.321   3.837   3.255  0.3544  1.5031  3.5674
  155MOL0     H20907  13.034   4.119   3.203 -4.0482  0.2641 -0.9777
  155MOL0     H20908  12.816   4.143   3.235  0.2462 -0.3998  0.6133
  155MOL0     H20909  10.959   3.697   3.515 -1.0083  0.4893  0.5265
  155MOL0     H20910  10.726   3.714   3.550 -0.1719 -0.7610 -1.6391
  155MOL0     H20911  10.344   3.278   3.704  0.6995  0.5113  0.9988
  155MOL0     H20912  10.116   3.277   3.646 -1.1701 -0.0653 -0.8498
  155MOL0     H20913   9.904   3.299   3.652  0.1491  1.1070  0.9244
  155MOL0     H20914   9.950   3.312   3.484  2.5453  1.5425  1.1313
  155MOL0     H20915   9.692   3.448   3.589 -0.9873 -3.9300  1.6882
  155MOL0     H20916   9.695   3.284   3.538  1.3025 -1.0400  2.4870
  155MOL0     H20917   9.748   3.353   3.309  1.3117  0.7047  0.1118
  155MOL0     H20918   9.791   3.519   3.358  1.6031  0.0171 -1.8348
  155MOL0     H20919   9.551   3.550   3.453  3.8667  0.6576  0.2031
  155MOL0     H20920   9.583   3.554   3.275 -1.5705  1.9051  1.1864
  155MOL0     H20921   9.313   3.236   3.332 -0.7611  1.1825  1.1919
  155MOL0     H20922  10.110   3.706   3.561  1.0009  1.1595  1.8986
  155MOL0     H20923  10.430   3.776   3.701  0.8203 -0.1835 -0.0657
  155MOL0     H20924  10.446   3.748   3.538  3.2973  5.4356  1.7733
  155MOL0     H20925  10.305   3.827   3.586 -0.3975 -1.4207  1.0818
  156MOL0     O20926   0.338   5.436   1.213  0.6488  0.2593 -0.3159
  156MOL0     C20927   0.304   5.333   1.151  0.2166  0.4302 -0.7736
  156MOL0     O20928   0.381   5.229   1.116 -0.0628  0.1733  0.0217
  156MOL0     C20929   0.511   5.251   1.121 -0.9270 -0.4641  0.6379
  156MOL0     C20930   0.582   5.307   1.012 -0.3210 -0.3163 -0.9724
  156MOL0     C20931   0.719   5.328   1.033 -0.8053 -1.1762 -0.5524
  156MOL0     C20932   0.796   5.264   1.130 -0.0834 -1.0915 -0.5861
  156MOL0     O20933   0.932   5.261   1.126 -0.1774  0.2531  0.5164
  156MOL0     C20934   0.992   5.361   1.208 -1.5065  0.4243  0.3455
  156MOL0     C20935   1.133   5.328   1.245 -0.1108 -0.4072 -0.2945
  156MOL0     C20936   1.234   5.326   1.127 -0.2111 -0.4850 -0.1432
  156MOL0     C20937   1.380   5.280   1.157 -0.3662  0.7416 -0.5999
  156MOL0     C20938   1.476   5.282   1.037  0.4137  0.8104 -0.0286
  156MOL0     C20939   1.591   5.173   1.043  0.2439  0.2164 -0.2226
  156MOL0     C20940   1.653   5.165   0.901  0.8155 -0.5741  0.0268
  156MOL0     C20941   1.791   5.099   0.888 -1.5659  0.2612 -0.3067
  156MOL0     N20942   1.902   5.178   0.959  0.7225 -0.1704 -0.3133
  156MOL0     C20943   1.987   5.241   0.882 -0.1406  0.6980 -0.5088
  156MOL0     C20944   2.071   5.307   0.964  0.5680 -1.0652 -0.6498
  156MOL0     C20945   2.179   5.403   0.924 -0.4526  0.3543  0.2654
  156MOL0     C20946   2.309   5.373   0.998  0.5193  0.4785 -0.5775
  156MOL0     C20947   2.419   5.472   0.945 -0.1310 -0.0041  0.0954
  156MOL0     C20948   2.498   5.435   0.821 -0.9233  0.3937 -0.4059
  156MOL0     O20949   2.580   5.316   0.823  0.2680  0.0396 -0.7324
  156MOL0     C20950   2.710   5.308   0.851 -0.8840  0.3171 -0.4681
  156MOL0     C20951   2.778   5.199   0.793 -0.1931 -0.2871  0.1622
  156MOL0     C20952   2.917   5.181   0.817  1.0072 -0.4342  0.1542
  156MOL0     C20953   2.988   5.274   0.885  1.1628 -0.4591  0.9525
  156MOL0     C20954   3.134   5.269   0.900 -0.3980 -0.6172 -0.3270
  156MOL0     O20955   3.183   5.150   0.883  0.4192  0.7296  0.5093
  156MOL0     C20956   3.295   5.119   0.952 -0.6917 -0.1097 -0.5084
  156MOL0     C20957   3.395   5.039   0.895 -0.1744 -0.1490 -0.2711
  156MOL0     C20958   3.506   4.996   0.971 -0.1949 -0.1630  0.9985
  156MOL0     C20959   3.528   5.033   1.105  1.0894  0.6826  0.4900
  156MOL0     O20960   3.641   4.993   1.173  0.1910  0.5631 -0.4047
  156MOL0     C20961   3.653   5.017   1.315  0.5866 -0.8198 -0.9904
  156MOL0     C20962   3.779   4.952   1.374  0.4928  0.6439  0.7711
  156MOL0     C20963   3.758   4.804   1.391  0.6692  0.9963 -0.5517
  156MOL0     C20964   3.906   4.747   1.413  0.0040  0.0878 -0.0124
  156MOL0     C20965   3.919   4.604   1.453 -0.0452  0.5248  0.1752
  156MOL0     C20966   4.057   4.553   1.472 -0.0214 -0.9612  0.0601
  156MOL0     C20967   4.072   4.404   1.458 -0.3779 -0.1753  0.1445
  156MOL0     C20968   3.998   4.326   1.572 -0.5860  0.0053 -0.5404
  156MOL0    Cl20969   3.983   4.152   1.537  0.3631 -0.0648 -0.0138
  156MOL0     C20970   3.420   5.113   1.167  0.2947 -0.3166  0.4472
  156MOL0     C20971   3.307   5.144   1.092  0.2070  0.1140 -0.8325
  156MOL0     O20972   3.205   5.371   0.937  0.0412 -0.1773 -0.5063
  156MOL0     C20973   2.923   5.388   0.941 -0.0130 -0.1637 -0.3458
  156MOL0     C20974   2.784   5.403   0.924  0.1984 -0.6002  0.3104
  156MOL0     N20975   2.020   5.289   1.098 -0.4880  0.6710 -0.3430
  156MOL0     N20976   1.930   5.198   1.095 -0.1157 -0.5523 -0.1041
  156MOL0     C20977   0.722   5.195   1.229  0.4925 -0.4931 -0.0036
  156MOL0     C20978   0.579   5.196   1.226  0.1098 -0.0110 -0.2214
  156MOL0     C20979   0.159   5.321   1.110 -0.6304  0.2119 -0.2666
  156MOL0     C20980   0.060   5.379   1.191  0.1614 -0.0426 -0.5922
  156MOL0     C20981  -0.076   5.359   1.181  0.1709  0.0401  0.3617
  156MOL0     C20982  -0.129   5.280   1.081  0.2988 -0.4609 -0.3905
  156MOL0     O20983  -0.263   5.252   1.067  0.4782  0.4181 -0.8570
  156MOL0     C20984  -0.353   5.296   1.166 -0.0184  0.1360 -0.3256
  156MOL0     C20985  -0.497   5.259   1.109 -0.6515 -0.0375 -0.1316
  156MOL0     C20986  -0.513   5.109   1.115 -0.5219  0.5762  0.6706
  156MOL0     C20987  -0.637   5.060   1.030  0.6139  0.7102 -0.4202
  156MOL0     C20988  -0.623   5.098   0.891  0.1130 -0.1492  0.0572
  156MOL0     C20989  -0.620   5.123   0.774 -0.3846 -0.2451  0.0667
  156MOL0     C20990  -0.031   5.221   0.997 -0.1071  0.3401  0.7318
  156MOL0     C20991   0.109   5.242   1.001 -0.3189  0.6257 -0.3256
  156MOL0     C20992   0.189   5.188   0.892  0.3337  0.1257 -0.1409
  156MOL0     H20993   0.518   5.337   0.930  0.4764 -2.0740 -2.3067
  156MOL0     H20994   0.783   5.392   0.974  0.3033 -2.4211 -0.7321
  156MOL0     H20995   1.000   5.455   1.152  1.5852  1.4186  2.2478
  156MOL0     H20996   0.934   5.383   1.298  0.4605  1.1863  1.5002
  156MOL0     H20997   1.132   5.231   1.295 -0.3476 -0.2618 -0.0105
  156MOL0     H20998   1.175   5.397   1.319 -3.9107  0.0380  1.7232
  156MOL0     H20999   1.249   5.429   1.093  3.3090 -0.5657  0.8270
  156MOL0     H21000   1.188   5.273   1.042  0.8587 -0.8229 -0.5255
  156MOL0     H21001   1.426   5.350   1.227  1.0204 -0.3957 -0.3325
  156MOL0     H21002   1.390   5.179   1.199  0.4089  0.9187 -0.3521
  156MOL0     H21003   1.418   5.264   0.946  0.5137  0.4563 -0.0238
  156MOL0     H21004   1.532   5.376   1.035  0.2352  0.9110 -0.7797
  156MOL0     H21005   1.674   5.204   1.108  1.3935  2.3911 -2.5736
  156MOL0     H21006   1.547   5.078   1.075 -0.0307  0.0849 -0.9877
  156MOL0     H21007   1.656   5.267   0.860 -3.0319 -0.4359 -0.2906
  156MOL0     H21008   1.589   5.106   0.835  0.2082  0.4563 -0.3261
  156MOL0     H21009   1.792   4.997   0.929 -0.2588  0.1889 -0.4567
  156MOL0     H21010   1.816   5.081   0.783  1.7152 -0.9082  0.5263
  156MOL0     H21011   1.998   5.234   0.774 -0.5318  1.6697 -0.6204
  156MOL0     H21012   2.199   5.402   0.816 -0.7163 -1.2674  0.2012
  156MOL0     H21013   2.141   5.502   0.949 -3.7404 -0.3971 -1.2093
  156MOL0     H21014   2.306   5.385   1.107  0.0064  0.6743 -0.6117
  156MOL0     H21015   2.348   5.271   0.985  1.3266  0.4187  1.8089
  156MOL0     H21016   2.491   5.481   1.027  0.1915  0.1209 -0.1973
  156MOL0     H21017   2.370   5.568   0.928 -0.9938 -0.9302 -3.4023
  156MOL0     H21018   2.566   5.517   0.797 -1.1956  0.4398 -1.0424
  156MOL0     H21019   2.432   5.418   0.735 -1.9073 -4.2717  0.9903
  156MOL0     H21020   2.730   5.129   0.724 -1.1008 -1.3682  1.8325
  156MOL0     H21021   2.965   5.095   0.772  0.2158 -1.6956  1.6482
  156MOL0     H21022   3.383   5.005   0.792 -1.0392 -1.9618  0.3862
  156MOL0     H21023   3.584   4.939   0.921 -1.2903 -1.2307  0.4660
  156MOL0     H21024   3.657   5.126   1.328 -2.3163 -0.7374 -0.1865
  156MOL0     H21025   3.561   4.987   1.365 -0.8473  2.9596 -1.0431
  156MOL0     H21026   3.865   4.973   1.308  1.3535  3.0878  2.5079
  156MOL0     H21027   3.802   5.000   1.470 -0.1867 -0.5108  1.5320
  156MOL0     H21028   3.692   4.775   1.474  2.4717  0.4571  0.7692
  156MOL0     H21029   3.721   4.763   1.297  2.1905 -2.8045  0.2864
  156MOL0     H21030   3.950   4.809   1.491  0.4966  0.6065 -0.7007
  156MOL0     H21031   3.954   4.764   1.316 -0.7315 -4.0535 -1.3081
  156MOL0     H21032   3.880   4.553   1.365 -0.3167 -0.4524  0.8408
  156MOL0     H21033   3.856   4.595   1.542  1.3728  3.3703  1.5955
  156MOL0     H21034   4.116   4.600   1.392 -2.9197 -0.2068 -1.7761
  156MOL0     H21035   4.097   4.590   1.567 -1.6870  4.8827 -1.1145
  156MOL0     H21036   4.179   4.382   1.457  0.1119  1.5300  3.4697
  156MOL0     H21037   4.020   4.386   1.363 -2.2728 -1.0568  1.2875
  156MOL0     H21038   4.041   4.334   1.672  1.1895 -0.7122 -1.1973
  156MOL0     H21039   3.892   4.344   1.588 -0.5656 -2.1737  3.0946
  156MOL0     H21040   3.421   5.146   1.271 -1.1786  1.5723 -0.0835
  156MOL0     H21041   3.226   5.201   1.138 -0.8924  0.0062 -2.5062
  156MOL0     H21042   2.976   5.466   0.994 -0.2541  0.4995 -1.0577
  156MOL0     H21043   2.737   5.498   0.951  3.0689  1.2485 -0.7773
  156MOL0     H21044   0.776   5.151   1.312  1.0085 -1.4445 -0.8113
  156MOL0     H21045   0.520   5.147   1.303 -1.4512  0.1492 -1.2780
  156MOL0     H21046   0.087   5.433   1.282  1.7331 -2.2878  0.3627
  156MOL0     H21047  -0.154   5.414   1.234 -1.7008  2.3690 -4.2248
  156MOL0     H21048  -0.348   5.406   1.170  1.1716  0.0739  0.2782
  156MOL0     H21049  -0.328   5.266   1.268  1.3673  1.3905 -0.2682
  156MOL0     H21050  -0.509   5.307   1.012  0.1382  3.1177  1.1957
  156MOL0     H21051  -0.565   5.308   1.179  1.4909  0.9548  1.3975
  156MOL0     H21052  -0.535   5.094   1.221 -1.5703  0.7477  0.4882
  156MOL0     H21053  -0.423   5.057   1.081 -2.4004 -1.9746 -0.8189
  156MOL0     H21054  -0.653   4.953   1.042  2.7531  0.3101 -0.7411
  156MOL0     H21055  -0.722   5.106   1.082  1.3508  0.9580  0.6073
  156MOL0     H21056  -0.626   5.146   0.669  1.9971  0.5199  0.0278
  156MOL0     H21057  -0.069   5.152   0.922 -1.1340 -1.5257  2.8409
  156MOL0     H21058   0.228   5.086   0.905  1.6926  0.6727  0.2888
  156MOL0     H21059   0.124   5.186   0.804 -2.0229 -3.6502  1.4081
  156MOL0     H21060   0.271   5.258   0.876 -0.4894  1.4181  1.0858
  157MOL0     O21061   6.029   6.608   8.522  0.5260 -0.4324  0.1179
  157MOL0     C21062   5.974   6.551   8.616 -0.3901  0.7013 -0.4617
  157MOL0     O21063   6.036   6.493   8.716  0.5995 -0.6937  0.5867
  157MOL0     C21064   6.158   6.535   8.765  0.2309  0.7208  0.0563
  157MOL0     C21065   6.275   6.539   8.701 -1.0596  1.1023  0.6318
  157MOL0     C21066   6.399   6.572   8.774  0.2700 -1.0393  0.3769
  157MOL0     C21067   6.405   6.590   8.909 -0.5451 -0.9057  0.0685
  157MOL0     O21068   6.519   6.621   8.976  0.1654  0.1875 -0.4776
  157MOL0     C21069   6.622   6.523   8.973  0.3436 -0.2444  0.6220
  157MOL0     C21070   6.751   6.576   9.058  0.8505 -0.8612  0.2849
  157MOL0     C21071   6.846   6.670   8.978  0.2018  0.1906  0.3714
  157MOL0     C21072   6.928   6.613   8.863 -0.5659 -0.8412  0.7400
  157MOL0     C21073   7.040   6.700   8.807  0.2932 -0.4103  0.0972
  157MOL0     C21074   7.070   6.655   8.664  0.0162  0.3259 -0.3013
  157MOL0     C21075   7.200   6.714   8.601  1.0651  0.0118 -0.0597
  157MOL0     C21076   7.188   6.867   8.565  0.3116 -0.2368  0.4303
  157MOL0     N21077   7.318   6.910   8.507  0.1173 -0.4513 -0.8351
  157MOL0     C21078   7.377   6.862   8.394 -0.0203  0.8542 -0.1504
  157MOL0     C21079   7.486   6.941   8.376 -0.2500 -0.2806  0.1815
  157MOL0     C21080   7.574   6.951   8.258 -0.4712 -0.4175 -0.1037
  157MOL0     C21081   7.699   6.867   8.275  0.5371 -0.1888  0.3504
  157MOL0     C21082   7.795   6.914   8.382 -0.0120 -0.3915  0.2837
  157MOL0     C21083   7.931   6.851   8.367  0.3084  0.0779 -0.2346
  157MOL0     O21084   8.009   6.939   8.289  0.2069  0.1721  0.6594
  157MOL0     C21085   8.147   6.924   8.291  0.1721  0.1023 -0.3438
  157MOL0     C21086   8.213   6.834   8.373 -0.7395  0.0655  0.6357
  157MOL0     C21087   8.354   6.826   8.366 -0.3572 -0.5623  0.4434
  157MOL0     C21088   8.431   6.913   8.292 -0.3191 -0.2117  0.3327
  157MOL0     C21089   8.582   6.906   8.300 -0.9866 -0.0784  0.2163
  157MOL0     O21090   8.655   7.006   8.242  0.2153  0.3112 -0.7014
  157MOL0     C21091   8.793   7.017   8.233 -0.8727 -0.1328 -0.2400
  157MOL0     C21092   8.838   7.129   8.156  0.4010  0.5133  0.3762
  157MOL0     C21093   8.974   7.149   8.130  0.3003 -0.2429 -0.1261
  157MOL0     C21094   9.068   7.056   8.169  0.7110  1.2447 -0.6737
  157MOL0     O21095   9.200   7.062   8.133 -0.4470  0.0564 -0.0222
  157MOL0     C21096   9.238   7.093   8.000  0.5699  0.0802  0.1479
  157MOL0     C21097   9.316   6.977   7.948  0.3111 -0.4395 -0.0814
  157MOL0     C21098   9.467   6.982   7.968  0.9694  0.1046  0.5106
  157MOL0     C21099   9.509   7.034   8.109  0.1905 -1.0241  0.4297
  157MOL0     C21100   9.656   7.084   8.118 -0.3394 -0.1469 -0.5303
  157MOL0     C21101   9.705   7.139   8.254  0.0762  0.1689  0.3556
  157MOL0     C21102   9.721   7.028   8.359  1.0560  0.2365 -0.0738
  157MOL0     C21103   9.795   7.079   8.481  0.7577  0.6319 -0.0536
  157MOL0    Cl21104   9.965   7.094   8.458  0.3587 -0.1693  0.3144
  157MOL0     C21105   9.028   6.955   8.256 -0.0817  0.1312 -0.0148
  157MOL0     C21106   8.891   6.928   8.289  1.0859  0.0220 -0.3874
  157MOL0     O21107   8.632   6.807   8.354 -0.4043 -0.0680 -0.1723
  157MOL0     C21108   8.364   7.009   8.215  0.3464 -0.3728  0.1143
  157MOL0     C21109   8.225   7.012   8.218  0.0746 -0.0135 -0.5484
  157MOL0     N21110   7.500   7.021   8.483  0.0265  0.6984  0.0765
  157MOL0     N21111   7.402   7.000   8.572  0.9370 -0.5422  0.4272
  157MOL0     C21112   6.286   6.564   8.973 -0.7962 -0.3870 -0.4397
  157MOL0     C21113   6.159   6.549   8.909 -0.5677 -1.3746 -0.1471
  157MOL0     C21114   5.834   6.515   8.600  1.4002 -0.0662  0.1553
  157MOL0     C21115   5.773   6.410   8.680 -0.6533  0.5097 -0.4782
  157MOL0     C21116   5.637   6.374   8.673  0.2555  0.5057  0.9758
  157MOL0     C21117   5.562   6.445   8.589  0.8472  0.5065  0.0533
  157MOL0     O21118   5.423   6.421   8.588 -0.0116  0.1252  0.6341
  157MOL0     C21119   5.349   6.390   8.712  0.3753 -0.3610  0.7391
  157MOL0     C21120   5.208   6.447   8.691  0.2953 -0.3639  0.2506
  157MOL0     C21121   5.110   6.384   8.789 -0.2275 -0.8906 -0.0356
  157MOL0     C21122   4.964   6.442   8.786  0.9223 -0.0775  0.6279
  157MOL0     C21123   4.967   6.592   8.794 -0.2494  0.1724 -0.6113
  157MOL0     C21124   4.953   6.709   8.803  0.0531 -0.0384 -0.1091
  157MOL0     C21125   5.612   6.544   8.504  0.3197  0.4224 -0.7955
  157MOL0     C21126   5.741   6.583   8.507 -0.2066  1.1149  0.9506
  157MOL0     C21127   5.795   6.676   8.408  0.2387  1.2535 -0.4016
  157MOL0     H21128   6.283   6.518   8.595  2.9261 -4.9199  1.6449
  157MOL0     H21129   6.481   6.604   8.710 -0.7485  2.6775  0.7383
  157MOL0     H21130   6.590   6.431   9.022  2.8295 -2.3240 -1.3387
  157MOL0     H21131   6.632   6.505   8.865  1.9628  2.2802  0.2528
  157MOL0     H21132   6.799   6.484   9.093 -1.8232 -2.6629 -0.4332
  157MOL0     H21133   6.705   6.626   9.143  1.7296  0.6178 -0.0746
  157MOL0     H21134   6.920   6.719   9.042  0.8722  1.7834 -1.5380
  157MOL0     H21135   6.780   6.752   8.949  1.0400 -0.2648 -3.2944
  157MOL0     H21136   6.978   6.523   8.901  0.0134 -0.6979  0.3331
  157MOL0     H21137   6.858   6.583   8.784 -1.1242  1.0434  0.4761
  157MOL0     H21138   7.029   6.809   8.806 -0.9320 -0.4357  2.9355
  157MOL0     H21139   7.124   6.687   8.876  0.9915 -0.6268 -0.7628
  157MOL0     H21140   7.087   6.548   8.656 -0.2338  0.4205 -2.6106
  157MOL0     H21141   6.988   6.685   8.599  1.6329  3.5029 -1.1070
  157MOL0     H21142   7.231   6.657   8.513  1.4117 -1.7277  1.1362
  157MOL0     H21143   7.277   6.698   8.677 -0.2464  1.6219  1.7055
  157MOL0     H21144   7.114   6.888   8.487 -1.8147 -0.2156  2.3578
  157MOL0     H21145   7.165   6.928   8.652  1.7965  1.1187 -0.0726
  157MOL0     H21146   7.354   6.772   8.337 -2.4645 -0.5332  2.7123
  157MOL0     H21147   7.531   6.921   8.163  0.7853 -2.8666  0.0201
  157MOL0     H21148   7.597   7.058   8.247 -2.4600 -0.1648 -2.5333
  157MOL0     H21149   7.655   6.769   8.293  0.9077 -0.8863 -2.1809
  157MOL0     H21150   7.754   6.874   8.181  2.9289 -0.3005  1.6640
  157MOL0     H21151   7.753   6.878   8.476 -0.8340 -0.5871 -0.1392
  157MOL0     H21152   7.797   7.023   8.373 -0.3289 -0.3904  0.2191
  157MOL0     H21153   7.922   6.759   8.308  1.0667  1.2805 -2.3236
  157MOL0     H21154   7.970   6.828   8.467  1.4523  0.8664 -0.4766
  157MOL0     H21155   8.164   6.767   8.444 -0.2041  1.4726  2.4014
  157MOL0     H21156   8.403   6.758   8.435  1.3260 -0.6034 -0.7556
  157MOL0     H21157   8.757   7.186   8.110 -2.3227 -2.9826  0.4641
  157MOL0     H21158   9.000   7.235   8.069 -0.7981 -0.2307 -0.6104
  157MOL0     H21159   9.147   7.105   7.940  0.4797 -0.0896  0.2479
  157MOL0     H21160   9.285   7.191   7.994  0.0683  0.5013  2.2646
  157MOL0     H21161   9.292   6.886   8.004 -1.3097  0.0133 -0.0093
  157MOL0     H21162   9.289   6.967   7.843 -1.1083  1.3972  0.0729
  157MOL0     H21163   9.513   6.885   7.946 -1.2388 -0.8065 -0.3278
  157MOL0     H21164   9.500   7.060   7.899  0.0835  1.4527  1.5547
  157MOL0     H21165   9.491   6.953   8.180 -1.5486 -1.1517 -0.1216
  157MOL0     H21166   9.456   7.124   8.141  2.6985  0.2026  1.4497
  157MOL0     H21167   9.671   7.158   8.038 -4.6676 -0.6737 -2.1080
  157MOL0     H21168   9.716   6.998   8.088  1.0296 -0.6188  3.0832
  157MOL0     H21169   9.805   7.181   8.240 -0.1816  1.5624  2.4023
  157MOL0     H21170   9.640   7.219   8.289  2.5443  1.9876  1.0473
  157MOL0     H21171   9.761   6.942   8.305  0.2337  0.8203 -1.6956
  157MOL0     H21172   9.621   7.005   8.399  0.0872 -0.7690 -2.8306
  157MOL0     H21173   9.759   7.176   8.515  1.4507  1.0413 -0.4616
  157MOL0     H21174   9.777   7.008   8.562 -0.6656 -0.4633 -1.2557
  157MOL0     H21175   9.104   6.887   8.293 -2.6315 -3.5801 -1.0455
  157MOL0     H21176   8.873   6.855   8.367  0.1728  1.8907  1.2268
  157MOL0     H21177   8.418   7.088   8.165 -0.5021  1.3736  1.8156
  157MOL0     H21178   8.185   7.095   8.161 -2.6674 -1.2580 -0.5756
  157MOL0     H21179   6.293   6.572   9.081  0.5690  1.2393 -0.6085
  157MOL0     H21180   6.067   6.530   8.962  0.2819 -1.5769  1.2886
  157MOL0     H21181   5.836   6.357   8.751 -0.1889  1.0614 -0.4669
  157MOL0     H21182   5.590   6.297   8.734  0.5501  0.5512  1.2672
  157MOL0     H21183   5.386   6.447   8.798  1.9490  3.2544 -2.0825
  157MOL0     H21184   5.351   6.283   8.735 -0.2239 -0.5716 -0.1557
  157MOL0     H21185   5.167   6.418   8.594  0.5153 -2.4848  0.7356
  157MOL0     H21186   5.201   6.556   8.696  0.3362 -0.2220 -1.8955
  157MOL0     H21187   5.147   6.393   8.892  1.5415  0.2111 -0.7043
  157MOL0     H21188   5.097   6.280   8.759 -0.4638 -1.2852  1.3442
  157MOL0     H21189   4.903   6.415   8.700  0.9805 -0.7975  0.8008
  157MOL0     H21190   4.909   6.402   8.872  0.1568 -1.2136 -0.3714
  157MOL0     H21191   4.953   6.816   8.811 -0.2663 -0.1265  1.4926
  157MOL0     H21192   5.534   6.578   8.437  0.7745 -2.8527 -3.2241
  157MOL0     H21193   5.861   6.624   8.338  0.6641 -0.2646  1.0673
  157MOL0     H21194   5.724   6.725   8.341 -0.5696  1.2333  0.4162
  157MOL0     H21195   5.852   6.754   8.459  1.1183  0.4803 -0.1657
  158MOL0     O21196   9.527   7.432   4.362 -0.5069 -0.2005 -1.6484
  158MOL0     C21197   9.472   7.520   4.434 -0.2367  0.6310 -0.1869
  158MOL0     O21198   9.531   7.586   4.531 -0.3303 -0.4200  1.0261
  158MOL0     C21199   9.667   7.570   4.559  0.2670  0.3060 -0.5220
  158MOL0     C21200   9.707   7.453   4.623 -0.1719 -0.3959 -0.5342
  158MOL0     C21201   9.839   7.422   4.646  0.5381  0.6171 -0.2739
  158MOL0     C21202   9.938   7.509   4.619  0.3577  0.2479  0.1931
  158MOL0     O21203  10.066   7.482   4.664  0.3192 -0.1034 -0.1789
  158MOL0     C21204  10.165   7.587   4.682  0.8879  0.5787 -0.0401
  158MOL0     C21205  10.293   7.559   4.771  0.0249  0.2347 -0.4852
  158MOL0     C21206  10.381   7.448   4.708  0.1011  0.9335 -0.9863
  158MOL0     C21207  10.513   7.437   4.785  1.0905  0.1649  0.3578
  158MOL0     C21208  10.621   7.376   4.692 -1.4521  0.3012  0.1207
  158MOL0     C21209  10.735   7.318   4.779 -0.3020 -0.3018  0.0326
  158MOL0     C21210  10.862   7.305   4.700 -0.5991  0.0274  0.5568
  158MOL0     C21211  10.852   7.199   4.589  0.5482  0.1638  0.1088
  158MOL0     N21212  10.988   7.173   4.536  0.2799 -0.3918  0.0411
  158MOL0     C21213  11.114   7.136   4.592 -0.0614  0.2072 -1.0744
  158MOL0     C21214  11.196   7.127   4.488 -0.0702  0.0443  0.9570
  158MOL0     C21215  11.343   7.079   4.501  0.4401  0.4727  0.0280
  158MOL0     C21216  11.366   6.965   4.595 -0.5817  0.6361 -0.5393
  158MOL0     C21217  11.312   6.841   4.527  0.5940  0.2043 -0.7059
  158MOL0     C21218  11.315   6.715   4.607 -0.3675  1.0569 -0.9174
  158MOL0     O21219  11.290   6.735   4.750  0.1020  0.4664  0.0874
  158MOL0     C21220  11.163   6.765   4.795 -0.5253  0.6650 -0.3645
  158MOL0     C21221  11.044   6.768   4.722 -0.1619  0.7089 -0.1201
  158MOL0     C21222  10.926   6.814   4.783  0.5503  0.2515 -0.0085
  158MOL0     C21223  10.918   6.847   4.919  0.4489  0.6362  0.3736
  158MOL0     C21224  10.785   6.898   4.968  0.7398 -0.6313  0.4882
  158MOL0     O21225  10.679   6.939   4.873 -0.6913  0.5844  0.1616
  158MOL0     C21226  10.560   6.991   4.904 -0.3844 -0.0476  0.7471
  158MOL0     C21227  10.479   7.015   4.798  0.1460 -0.4914  0.1269
  158MOL0     C21228  10.355   7.083   4.816 -0.0985  0.8693 -1.4077
  158MOL0     C21229  10.316   7.138   4.940  0.6167 -0.3589  0.2689
  158MOL0     O21230  10.193   7.214   4.947 -0.2197 -0.3490 -0.1392
  158MOL0     C21231  10.069   7.152   4.981  0.6702 -0.1882  0.1653
  158MOL0     C21232   9.970   7.241   5.063 -0.9037  0.0256 -0.0966
  158MOL0     C21233   9.841   7.166   5.101  0.5825  0.3279  0.4718
  158MOL0     C21234   9.715   7.231   5.051 -0.4043  1.0234  0.2938
  158MOL0     C21235   9.583   7.179   5.105  0.7380 -0.0614  0.7015
  158MOL0     C21236   9.458   7.250   5.050 -0.2275 -0.5472 -0.0131
  158MOL0     C21237   9.468   7.405   5.078  0.3829 -0.2411  0.1194
  158MOL0     C21238   9.340   7.486   5.063 -0.0022 -0.8122  0.6323
  158MOL0    Cl21239   9.304   7.477   4.893 -0.1718 -0.1609  0.0390
  158MOL0     C21240  10.398   7.106   5.045  0.0563  0.4631  0.7628
  158MOL0     C21241  10.519   7.038   5.034 -0.4156  0.9472 -0.9108
  158MOL0     O21242  10.777   6.905   5.091  0.3753  0.0809  0.1054
  158MOL0     C21243  11.042   6.839   4.995 -0.2953  0.6173 -0.1738
  158MOL0     C21244  11.164   6.806   4.930  0.1988 -0.0219  0.2851
  158MOL0     N21245  11.123   7.142   4.364  0.3591  0.7518 -0.1545
  158MOL0     N21246  11.001   7.168   4.404  0.0880 -0.6353  0.4733
  158MOL0     C21247   9.905   7.632   4.561 -0.3653  0.0138  0.8430
  158MOL0     C21248   9.765   7.665   4.526 -0.3382  1.1581  1.1675
  158MOL0     C21249   9.321   7.532   4.407 -0.8320 -0.9185  0.3220
  158MOL0     C21250   9.249   7.579   4.518 -0.1932 -0.3257  0.0388
  158MOL0     C21251   9.112   7.591   4.512 -0.0472  0.7036  0.6612
  158MOL0     C21252   9.045   7.557   4.392  0.2456  0.0399 -0.1824
  158MOL0     O21253   8.907   7.563   4.402  0.1308 -0.3007  0.6597
  158MOL0     C21254   8.831   7.562   4.275  0.3787  0.9421  0.5653
  158MOL0     C21255   8.682   7.562   4.305  0.1673 -0.0807 -0.0551
  158MOL0     C21256   8.631   7.704   4.322 -0.7639  0.0652  0.2194
  158MOL0     C21257   8.503   7.696   4.414  0.2372 -0.3223  0.2094
  158MOL0     C21258   8.432   7.830   4.396 -0.3420 -0.2620 -0.1447
  158MOL0     C21259   8.351   7.919   4.382  0.0887 -0.1045 -0.4635
  158MOL0     C21260   9.116   7.511   4.277  0.0551 -0.0261 -0.5501
  158MOL0     C21261   9.255   7.488   4.286 -0.5503 -0.3249 -0.3452
  158MOL0     C21262   9.326   7.442   4.163 -0.0939  0.1172  0.0307
  158MOL0     H21263   9.620   7.394   4.651 -1.7635  1.6222 -1.0359
  158MOL0     H21264   9.860   7.331   4.701 -4.0931  1.5238  3.7150
  158MOL0     H21265  10.211   7.616   4.587  2.0713  0.2987  0.4273
  158MOL0     H21266  10.112   7.673   4.723  1.8726  1.5160 -0.6888
  158MOL0     H21267  10.262   7.540   4.875 -1.2279  3.0845 -0.2298
  158MOL0     H21268  10.357   7.648   4.773 -2.1544  1.8916  0.7175
  158MOL0     H21269  10.399   7.485   4.607  0.4860  2.2206 -0.4813
  158MOL0     H21270  10.338   7.348   4.711 -0.9329  1.3903  0.8831
  158MOL0     H21271  10.560   7.531   4.816  0.2000  0.0984  2.0490
  158MOL0     H21272  10.508   7.386   4.882  0.1285 -0.5256 -0.0419
  158MOL0     H21273  10.584   7.291   4.635 -0.0138 -1.2506  1.3704
  158MOL0     H21274  10.652   7.456   4.624 -0.8787 -0.1712 -0.1912
  158MOL0     H21275  10.755   7.396   4.853 -0.4249  0.5323 -0.7914
  158MOL0     H21276  10.705   7.230   4.838  3.8767 -0.4962  2.2722
  158MOL0     H21277  10.942   7.275   4.768 -0.8988 -1.1965  0.4042
  158MOL0     H21278  10.888   7.398   4.650  2.4465 -1.1892 -0.3773
  158MOL0     H21279  10.809   7.105   4.625  2.6333 -0.2552  1.6831
  158MOL0     H21280  10.780   7.239   4.516 -1.9308  0.9421  2.8149
  158MOL0     H21281  11.141   7.129   4.696 -0.0826  3.0365 -0.8032
  158MOL0     H21282  11.368   7.049   4.399 -0.2990 -0.3060  0.0605
  158MOL0     H21283  11.406   7.166   4.522  0.3541  0.9505 -1.5294
  158MOL0     H21284  11.473   6.946   4.610 -0.9796 -2.1270 -0.5908
  158MOL0     H21285  11.317   6.980   4.691 -0.3520  2.4039 -0.6706
  158MOL0     H21286  11.370   6.827   4.435  0.2224  0.5898 -1.0023
  158MOL0     H21287  11.203   6.854   4.519  0.3329  0.3791  2.2029
  158MOL0     H21288  11.418   6.678   4.601 -0.6693 -0.0839  0.3505
  158MOL0     H21289  11.241   6.648   4.563 -0.9177 -0.7870  2.4739
  158MOL0     H21290  11.044   6.745   4.616  2.3488 -1.5449  0.2781
  158MOL0     H21291  10.837   6.814   4.721 -0.5273  4.1186  1.2580
  158MOL0     H21292  10.506   6.989   4.696  2.2292 -2.0730  0.9862
  158MOL0     H21293  10.283   7.098   4.736 -0.0163 -0.1078 -1.6792
  158MOL0     H21294  10.019   7.114   4.892 -2.1982 -0.0752  1.5894
  158MOL0     H21295  10.081   7.054   5.028 -3.8401 -0.1564  1.8749
  158MOL0     H21296  10.026   7.269   5.152 -0.2982  0.9135 -0.7357
  158MOL0     H21297   9.950   7.334   5.009 -1.5413 -0.0425  0.0233
  158MOL0     H21298   9.849   7.073   5.043 -2.3027 -0.3347  1.0010
  158MOL0     H21299   9.843   7.125   5.203  0.5366 -1.1699 -0.1021
  158MOL0     H21300   9.709   7.226   4.942  0.2081  0.0674  0.2933
  158MOL0     H21301   9.726   7.335   5.084  1.9456  0.1386  2.5961
  158MOL0     H21302   9.583   7.177   5.214  0.0106 -0.3412  0.7006
  158MOL0     H21303   9.570   7.073   5.084 -0.4238  0.2282 -0.1606
  158MOL0     H21304   9.441   7.244   4.942 -0.5854 -0.8701  0.0572
  158MOL0     H21305   9.368   7.215   5.102  1.2030 -2.2211  1.4201
  158MOL0     H21306   9.547   7.454   5.019  0.2300  1.4428  1.2203
  158MOL0     H21307   9.499   7.426   5.181  2.1269 -1.1002 -0.2020
  158MOL0     H21308   9.255   7.459   5.126 -0.4654  2.6201  1.6654
  158MOL0     H21309   9.371   7.585   5.096  1.1905 -0.4904 -1.2728
  158MOL0     H21310  10.360   7.146   5.138 -1.5043 -0.0440  0.3703
  158MOL0     H21311  10.565   7.030   5.132 -2.9585 -1.7610  0.2431
  158MOL0     H21312  11.048   6.859   5.102 -1.0866 -0.0951  0.0140
  158MOL0     H21313  11.261   6.800   4.980 -1.2534 -0.7966  3.2448
  158MOL0     H21314   9.985   7.701   4.538 -0.7473 -0.1044 -1.0186
  158MOL0     H21315   9.736   7.754   4.472  0.4527  0.0143 -1.2865
  158MOL0     H21316   9.302   7.616   4.606  1.2452  0.2691 -1.0420
  158MOL0     H21317   9.048   7.633   4.590 -3.5186 -0.0451 -1.5512
  158MOL0     H21318   8.853   7.470   4.219 -0.8722  2.2412 -2.2519
  158MOL0     H21319   8.872   7.641   4.212 -1.1194  2.8741  1.8815
  158MOL0     H21320   8.660   7.506   4.397 -0.9841 -2.1216 -1.4903
  158MOL0     H21321   8.620   7.524   4.223  2.1714  1.3079 -2.3555
  158MOL0     H21322   8.600   7.747   4.226  2.6562  0.4728 -0.8121
  158MOL0     H21323   8.713   7.760   4.367 -1.1289 -0.4328  1.5541
  158MOL0     H21324   8.431   7.621   4.380  0.1993  0.6643 -2.0900
  158MOL0     H21325   8.527   7.688   4.521  2.9622 -1.3729 -0.4046
  158MOL0     H21326   8.275   7.993   4.367  3.2553  3.6810  0.4802
  158MOL0     H21327   9.058   7.482   4.190 -2.1870  2.3144  0.0325
  158MOL0     H21328   9.378   7.347   4.179  0.1224  0.6620  3.0349
  158MOL0     H21329   9.265   7.409   4.078  0.7387  1.0783 -0.9632
  158MOL0     H21330   9.377   7.523   4.111 -1.4145 -0.2938 -2.0357
  159MOL0     O21331   6.708   9.686   3.564  0.3501 -0.5555  0.1497
  159MOL0     C21332   6.659   9.720   3.463  0.2618  0.6532  0.3641
  159MOL0     O21333   6.730   9.761   3.353 -0.1507 -0.1486  0.5416
  159MOL0     C21334   6.863   9.811   3.356 -0.1617  0.4269  0.0433
  159MOL0     C21335   6.935   9.790   3.244 -0.4034 -0.0556  0.4546
  159MOL0     C21336   7.070   9.830   3.229  0.1600  0.2157 -0.1545
  159MOL0     C21337   7.129   9.893   3.337  0.2547 -0.4671 -0.2244
  159MOL0     O21338   7.261   9.945   3.334 -0.5028 -0.5958  0.2814
  159MOL0     C21339   7.330   9.924   3.210 -0.4136  0.0884  0.7756
  159MOL0     C21340   7.463   9.986   3.217 -0.1694 -0.2049 -0.0884
  159MOL0     C21341   7.561   9.918   3.308 -0.5826  0.8417 -0.6559
  159MOL0     C21342   7.657   9.815   3.235  0.3106 -0.0585 -0.1415
  159MOL0     C21343   7.762   9.747   3.332  0.9520 -0.0098  0.8251
  159MOL0     C21344   7.681   9.645   3.414 -0.0965 -0.0394  0.0499
  159MOL0     C21345   7.787   9.584   3.504 -0.4642 -0.2599 -0.0445
  159MOL0     C21346   7.726   9.502   3.614  1.0231 -0.9554 -1.1916
  159MOL0     N21347   7.825   9.423   3.687  0.9143  0.5807 -1.1714
  159MOL0     C21348   7.900   9.479   3.790 -0.0924 -0.7985 -0.2174
  159MOL0     C21349   7.996   9.385   3.832 -0.3659 -0.3271  0.2712
  159MOL0     C21350   8.075   9.400   3.962  0.1236  0.2773 -0.2927
  159MOL0     C21351   8.006   9.466   4.076  0.0604  0.1330 -0.0894
  159MOL0     C21352   8.059   9.424   4.210 -0.3822 -0.5692  0.4404
  159MOL0     C21353   8.209   9.435   4.225 -0.3148  0.1272  0.1646
  159MOL0     O21354   8.253   9.440   4.357 -0.3943 -0.1119  0.4715
  159MOL0     C21355   8.390   9.431   4.382  0.4138  0.2025 -0.1056
  159MOL0     C21356   8.427   9.401   4.510 -0.3336 -0.5427  0.5003
  159MOL0     C21357   8.561   9.397   4.548  1.0118  0.1301 -0.7137
  159MOL0     C21358   8.664   9.410   4.464 -0.1107  0.3029 -0.3663
  159MOL0     C21359   8.808   9.385   4.508  0.0276  0.2065 -0.2394
  159MOL0     O21360   8.906   9.429   4.430 -0.4568 -0.2909 -0.5470
  159MOL0     C21361   9.038   9.440   4.471  0.3467  0.0663  0.2779
  159MOL0     C21362   9.078   9.448   4.608 -0.0794  0.8999  0.2226
  159MOL0     C21363   9.211   9.456   4.646  0.0380 -0.1270  0.0406
  159MOL0     C21364   9.313   9.437   4.550  0.5447 -0.7471 -0.6837
  159MOL0     O21365   9.440   9.424   4.594 -0.1017  0.5224  0.2939
  159MOL0     C21366   9.550   9.404   4.508 -0.8397  0.1119  0.6952
  159MOL0     C21367   9.663   9.391   4.610  0.3827  0.5447 -0.4047
  159MOL0     C21368   9.802   9.429   4.553  1.0099 -0.0171  0.1323
  159MOL0     C21369   9.897   9.460   4.665 -0.1377  0.4041 -0.4249
  159MOL0     C21370  10.036   9.490   4.605  0.2258 -0.7771  0.0711
  159MOL0     C21371  10.141   9.519   4.710  0.1463 -0.3014  0.5308
  159MOL0     C21372  10.283   9.513   4.661  0.0297 -0.5475 -0.4326
  159MOL0     C21373  10.302   9.585   4.530  0.5207  0.4448  0.7540
  159MOL0    Cl21374  10.480   9.573   4.492 -0.4097  0.3693  0.0652
  159MOL0     C21375   9.272   9.445   4.411  0.2865  0.2592 -0.1299
  159MOL0     C21376   9.138   9.433   4.371 -0.0527 -0.0373  0.1321
  159MOL0     O21377   8.823   9.327   4.616 -0.1309  0.4980 -0.4679
  159MOL0     C21378   8.634   9.430   4.325  0.0212 -0.2992 -0.1517
  159MOL0     C21379   8.496   9.433   4.282  0.5406 -1.1157  0.1544
  159MOL0     N21380   7.956   9.270   3.766 -0.5736  0.0058 -0.4020
  159MOL0     N21381   7.862   9.297   3.680  0.3686  0.0227  0.2791
  159MOL0     C21382   7.057   9.918   3.449 -0.3687 -0.2231 -0.8709
  159MOL0     C21383   6.919   9.876   3.463 -0.6030  0.3895  0.8965
  159MOL0     C21384   6.501   9.724   3.461 -0.2739 -1.0554 -0.1808
  159MOL0     C21385   6.441   9.759   3.338 -0.0414 -0.1988 -0.3148
  159MOL0     C21386   6.305   9.779   3.326 -0.8901 -0.0123  0.9265
  159MOL0     C21387   6.217   9.759   3.439  0.1797 -0.0369 -0.4184
  159MOL0     O21388   6.080   9.778   3.445  0.3081  0.2727  0.1301
  159MOL0     C21389   6.001   9.805   3.328 -0.1767  0.7928 -0.3347
  159MOL0     C21390   5.858   9.797   3.366 -0.6057  0.0272 -0.0110
  159MOL0     C21391   5.812   9.665   3.430  0.8309  0.1657 -0.2657
  159MOL0     C21392   5.662   9.659   3.452 -0.0903 -0.3125  0.1359
  159MOL0     C21393   5.586   9.628   3.327 -0.6634 -0.1270 -0.4041
  159MOL0     C21394   5.527   9.598   3.226  0.4599  0.6931 -0.0031
  159MOL0     C21395   6.276   9.699   3.548  0.2722  0.3787  0.1739
  159MOL0     C21396   6.415   9.689   3.570 -0.2495 -0.5639 -0.1044
  159MOL0     C21397   6.456   9.648   3.704 -0.9304  0.6085 -0.1287
  159MOL0     H21398   6.898   9.759   3.146  1.0772  1.3257 -0.5949
  159MOL0     H21399   7.113   9.806   3.132 -2.4876 -2.9900 -0.7093
  159MOL0     H21400   7.348   9.821   3.176 -0.8916  0.1263  0.3897
  159MOL0     H21401   7.272   9.975   3.133  1.6621  0.2998 -0.7335
  159MOL0     H21402   7.455  10.092   3.243  3.8800  0.6685 -1.6653
  159MOL0     H21403   7.511   9.994   3.119 -0.0906  2.4399  0.1191
  159MOL0     H21404   7.515   9.873   3.396  1.6480 -0.7231 -0.2200
  159MOL0     H21405   7.629   9.990   3.352  1.3800  0.5554 -3.0188
  159MOL0     H21406   7.593   9.744   3.181  1.1610 -1.6438  0.8296
  159MOL0     H21407   7.706   9.875   3.157 -1.0289 -0.5709 -1.4268
  159MOL0     H21408   7.845   9.697   3.282  0.8072 -2.6007  2.9421
  159MOL0     H21409   7.806   9.812   3.408 -0.5675  0.9951  0.8839
  159MOL0     H21410   7.618   9.710   3.475 -0.9188  1.1306 -1.9182
  159MOL0     H21411   7.632   9.575   3.345  2.6391  0.8568 -3.0644
  159MOL0     H21412   7.846   9.662   3.554 -0.6791 -0.1116 -0.0193
  159MOL0     H21413   7.854   9.531   3.436  0.7400  3.4043 -1.9454
  159MOL0     H21414   7.674   9.571   3.681 -0.9010 -1.5152 -2.0418
  159MOL0     H21415   7.646   9.437   3.578 -0.2628  0.8615 -1.7372
  159MOL0     H21416   7.898   9.584   3.819 -0.5285 -1.0731  0.7912
  159MOL0     H21417   8.101   9.298   3.992 -2.7426 -0.5180 -0.2048
  159MOL0     H21418   8.160   9.466   3.944 -2.4993  4.4332  0.8607
  159MOL0     H21419   8.023   9.574   4.074  3.5206 -0.2888  0.7609
  159MOL0     H21420   7.903   9.427   4.081  0.9411 -2.3202  0.5401
  159MOL0     H21421   8.035   9.317   4.218 -1.4096 -0.5310 -1.6222
  159MOL0     H21422   8.014   9.473   4.297  0.6807 -0.2670  0.8368
  159MOL0     H21423   8.236   9.529   4.175 -1.0296 -0.2635 -1.0130
  159MOL0     H21424   8.259   9.349   4.180 -0.2171 -0.5295  1.4972
  159MOL0     H21425   8.348   9.368   4.576 -0.6927 -0.9060 -0.1063
  159MOL0     H21426   8.575   9.378   4.654  2.3709 -1.2442 -1.0994
  159MOL0     H21427   8.995   9.463   4.677 -2.4319 -0.2578 -2.1647
  159MOL0     H21428   9.247   9.453   4.748  1.5505 -0.3083 -0.4671
  159MOL0     H21429   9.550   9.311   4.450 -3.2622 -1.8471  3.5162
  159MOL0     H21430   9.567   9.494   4.450 -2.7100  0.2600  0.3265
  159MOL0     H21431   9.650   9.462   4.693  3.3391  3.1987 -1.9887
  159MOL0     H21432   9.657   9.287   4.644 -0.8333  0.5314 -0.6133
  159MOL0     H21433   9.840   9.343   4.498  2.5472  1.6682 -1.6187
  159MOL0     H21434   9.787   9.517   4.489  1.4987  1.2127  1.6563
  159MOL0     H21435   9.903   9.368   4.724  0.2407  1.0446  0.5712
  159MOL0     H21436   9.864   9.539   4.733 -0.1059  0.3721 -0.3721
  159MOL0     H21437  10.027   9.585   4.552 -1.6844  0.3127  2.1684
  159MOL0     H21438  10.067   9.408   4.540  1.8567  0.1579 -0.3698
  159MOL0     H21439  10.119   9.612   4.763 -0.6900  0.6746 -1.4401
  159MOL0     H21440  10.120   9.440   4.784  0.5411 -0.5975  0.3300
  159MOL0     H21441  10.324   9.411   4.654  4.0395  0.8723 -0.1339
  159MOL0     H21442  10.347   9.565   4.733 -1.0841  2.6946 -1.6194
  159MOL0     H21443  10.250   9.528   4.453 -1.0291 -0.9576  2.7431
  159MOL0     H21444  10.249   9.680   4.530 -0.8883 -0.3213  0.3217
  159MOL0     H21445   9.342   9.446   4.328 -0.6274  2.4294 -0.9642
  159MOL0     H21446   9.116   9.410   4.267  2.2401  1.0072 -0.6329
  159MOL0     H21447   8.710   9.408   4.250  1.9111  1.1304  1.2458
  159MOL0     H21448   8.469   9.441   4.178 -0.8559 -0.7005  0.5185
  159MOL0     H21449   7.100   9.966   3.537  1.8758 -2.1344 -0.8347
  159MOL0     H21450   6.857   9.899   3.549 -3.8316 -1.2552 -0.8086
  159MOL0     H21451   6.506   9.783   3.254  0.2694 -1.9357 -0.6122
  159MOL0     H21452   6.284   9.812   3.225  1.1265 -2.8585 -0.5597
  159MOL0     H21453   6.020   9.733   3.248  1.1532  1.2269 -0.4214
  159MOL0     H21454   6.022   9.902   3.283  3.1689  0.0957 -0.5181
  159MOL0     H21455   5.802   9.803   3.272  0.7189 -0.8586 -0.8985
  159MOL0     H21456   5.835   9.880   3.433  0.8820  0.1877  0.3261
  159MOL0     H21457   5.855   9.663   3.531 -2.6351  1.3157  1.4063
  159MOL0     H21458   5.850   9.579   3.373  1.6523  1.7050 -2.1404
  159MOL0     H21459   5.641   9.576   3.521 -0.9010  0.3873  0.7630
  159MOL0     H21460   5.617   9.745   3.502  1.3707 -1.6152  4.1126
  159MOL0     H21461   5.488   9.559   3.134  1.6257  0.4021 -0.3881
  159MOL0     H21462   6.217   9.682   3.637  1.9519 -1.0354  1.0651
  159MOL0     H21463   6.383   9.651   3.785 -0.9511 -0.6875 -0.0741
  159MOL0     H21464   6.488   9.543   3.700 -2.2667  0.1454  0.5941
  159MOL0     H21465   6.551   9.696   3.728  1.9084 -4.4547  0.3207
  160MOL0     O21466   5.884   4.404   1.264  0.1246  0.6757 -0.0224
  160MOL0     C21467   5.808   4.383   1.167  0.3070  1.0107 -0.3472
  160MOL0     O21468   5.844   4.326   1.047  0.0585 -0.4351 -0.1163
  160MOL0     C21469   5.975   4.287   1.039 -0.1292 -0.3388  0.9818
  160MOL0     C21470   6.033   4.179   1.096 -0.5979  0.8004 -0.3799
  160MOL0     C21471   6.173   4.154   1.102 -1.1848 -1.2395  0.6280
  160MOL0     C21472   6.260   4.242   1.022  0.8276  0.5066  0.0944
  160MOL0     O21473   6.396   4.204   1.029  0.1711 -0.0256  1.0627
  160MOL0     C21474   6.491   4.279   0.951  0.3255  0.1030 -0.0713
  160MOL0     C21475   6.625   4.224   0.975 -0.2336  0.2505 -0.0594
  160MOL0     C21476   6.739   4.283   0.885  1.0527  0.3015 -0.9480
  160MOL0     C21477   6.871   4.202   0.897  0.8272  0.4847  0.0364
  160MOL0     C21478   6.994   4.272   0.832  0.8778 -0.1560 -0.4244
  160MOL0     C21479   7.122   4.197   0.844 -0.5909  0.0729  0.0747
  160MOL0     C21480   7.186   4.195   0.987  0.5379  0.4661  0.3541
  160MOL0     C21481   7.230   4.332   1.053  0.7180  0.1953 -0.4694
  160MOL0     N21482   7.288   4.306   1.190 -0.7030  0.2375 -0.8547
  160MOL0     C21483   7.422   4.273   1.209  0.0870 -0.6256 -0.4049
  160MOL0     C21484   7.451   4.283   1.346 -0.0330  0.3196  0.3352
  160MOL0     C21485   7.575   4.241   1.416 -0.5026 -0.1395  0.1470
  160MOL0     C21486   7.698   4.318   1.351 -0.5657 -0.1224  0.6142
  160MOL0     C21487   7.836   4.301   1.427 -0.4083  0.0020  0.3176
  160MOL0     C21488   7.939   4.385   1.350  0.1249  0.0125  0.0979
  160MOL0     O21489   7.988   4.321   1.242  0.2196 -0.2591 -0.6615
  160MOL0     C21490   8.125   4.320   1.225 -1.0977  0.6550  0.5996
  160MOL0     C21491   8.186   4.388   1.118 -0.3754 -0.4232 -0.0869
  160MOL0     C21492   8.320   4.378   1.091  0.5709 -0.6713  0.3198
  160MOL0     C21493   8.410   4.305   1.172 -0.4893 -0.7781  0.2792
  160MOL0     C21494   8.557   4.288   1.142  0.2530 -0.5234 -0.7607
  160MOL0     O21495   8.632   4.213   1.231 -0.1516 -0.1108  0.2550
  160MOL0     C21496   8.770   4.200   1.214 -0.1687 -0.4482 -0.0768
  160MOL0     C21497   8.846   4.314   1.222  0.3466 -0.0264  0.4434
  160MOL0     C21498   8.992   4.299   1.225  0.3046  0.0146  0.3579
  160MOL0     C21499   9.049   4.168   1.222 -0.3383 -0.5026 -0.6903
  160MOL0     O21500   9.194   4.162   1.225  0.0319  0.1832 -0.3811
  160MOL0     C21501   9.267   4.046   1.256 -0.2591  0.1704  0.0433
  160MOL0     C21502   9.259   4.033   1.401 -0.0187 -0.1933 -0.8570
  160MOL0     C21503   9.333   3.896   1.435  0.2970 -0.1047 -0.7161
  160MOL0     C21504   9.318   3.862   1.578  0.6350  0.3101 -0.0498
  160MOL0     C21505   9.375   3.725   1.625  0.6254  0.2530  0.1306
  160MOL0     C21506   9.514   3.700   1.580  0.4711 -0.0992  0.1362
  160MOL0     C21507   9.614   3.807   1.634 -0.0466 -0.3525  0.6582
  160MOL0     C21508   9.753   3.769   1.577  0.8343 -0.2103  0.0084
  160MOL0    Cl21509   9.881   3.829   1.694 -0.1068  0.6425  0.4156
  160MOL0     C21510   8.969   4.062   1.211  0.6329 -0.2394  0.0163
  160MOL0     C21511   8.827   4.077   1.219 -0.3997  0.3351 -0.2739
  160MOL0     O21512   8.597   4.335   1.034  0.7978  0.0862 -0.2444
  160MOL0     C21513   8.344   4.241   1.277  0.1360  0.2025 -0.5072
  160MOL0     C21514   8.209   4.241   1.301 -0.9813  0.5090  0.2170
  160MOL0     N21515   7.331   4.314   1.407 -0.1201 -0.5085 -0.2956
  160MOL0     N21516   7.238   4.317   1.314 -0.3683 -0.4420  0.4603
  160MOL0     C21517   6.200   4.338   0.945 -0.2611  0.3573 -0.4846
  160MOL0     C21518   6.062   4.364   0.957  0.9295  0.0607 -0.3250
  160MOL0     C21519   5.665   4.411   1.190 -0.2172  0.2513  0.0449
  160MOL0     C21520   5.587   4.378   1.079  0.1546  0.2244 -0.4622
  160MOL0     C21521   5.448   4.393   1.073  0.1137  0.2137  0.1607
  160MOL0     C21522   5.381   4.444   1.190 -0.5600 -1.2451  1.0194
  160MOL0     O21523   5.244   4.456   1.196 -0.0066  0.1374  0.0021
  160MOL0     C21524   5.168   4.375   1.106  0.8687  0.6622  0.5419
  160MOL0     C21525   5.035   4.443   1.073  0.2503 -0.0466  0.2527
  160MOL0     C21526   5.055   4.562   0.976 -0.9324 -0.4779  0.4486
  160MOL0     C21527   4.964   4.682   1.000  0.4366  0.3583  0.1473
  160MOL0     C21528   4.826   4.660   0.959 -0.7930 -0.5451  0.3391
  160MOL0     C21529   4.710   4.640   0.930  0.0568 -0.0484  0.1618
  160MOL0     C21530   5.457   4.471   1.305 -0.2028  0.0688 -0.2538
  160MOL0     C21531   5.599   4.458   1.308  0.6658  0.2016  0.2378
  160MOL0     C21532   5.664   4.492   1.437  0.5370  0.3968 -0.1799
  160MOL0     H21533   5.966   4.109   1.146  1.2866 -2.0325 -1.5390
  160MOL0     H21534   6.225   4.080   1.163  2.8145 -1.3728 -2.5407
  160MOL0     H21535   6.467   4.252   0.848  1.7876 -1.2367 -0.1015
  160MOL0     H21536   6.485   4.386   0.971 -2.0255  0.0854 -0.3801
  160MOL0     H21537   6.613   4.119   0.950  2.9379  0.0911 -1.4455
  160MOL0     H21538   6.650   4.229   1.082 -3.7217  0.1434  0.8560
  160MOL0     H21539   6.743   4.389   0.910 -0.5410  0.1444  0.1122
  160MOL0     H21540   6.698   4.282   0.783 -0.0671 -2.2539 -0.5586
  160MOL0     H21541   6.890   4.177   1.002  1.9443 -1.0413 -0.4980
  160MOL0     H21542   6.848   4.109   0.846 -1.3020  2.0165 -2.0248
  160MOL0     H21543   6.978   4.281   0.724  1.1303 -0.4570 -0.4891
  160MOL0     H21544   6.992   4.376   0.865  3.0432 -0.3891  0.6141
  160MOL0     H21545   7.120   4.090   0.822  3.1391 -0.4185  1.4252
  160MOL0     H21546   7.199   4.241   0.780  0.9704 -1.1658  1.0108
  160MOL0     H21547   7.280   4.140   0.986  0.9908  1.1417  2.0828
  160MOL0     H21548   7.122   4.148   1.063 -0.6056  3.2254  1.2575
  160MOL0     H21549   7.304   4.387   0.994  4.0635 -1.7251  1.6069
  160MOL0     H21550   7.141   4.394   1.068 -1.3289 -2.2021 -1.9713
  160MOL0     H21551   7.498   4.245   1.137 -1.3453 -1.7426 -1.5425
  160MOL0     H21552   7.571   4.254   1.524 -1.7649 -1.2054  0.2508
  160MOL0     H21553   7.583   4.132   1.418  2.1002 -0.0320 -0.2839
  160MOL0     H21554   7.709   4.272   1.253 -2.1440 -0.4765  0.5764
  160MOL0     H21555   7.673   4.424   1.347 -1.5000 -0.3580  0.0991
  160MOL0     H21556   7.858   4.194   1.422  1.7704  0.4405 -0.8931
  160MOL0     H21557   7.817   4.346   1.525 -1.8080  0.8812 -0.3191
  160MOL0     H21558   8.023   4.394   1.420  1.2286 -1.8671 -0.9088
  160MOL0     H21559   7.894   4.481   1.321 -0.4200 -0.5295 -0.9103
  160MOL0     H21560   8.125   4.456   1.060 -1.5127  0.3118  1.8706
  160MOL0     H21561   8.357   4.434   1.005 -0.4874 -0.0793  0.2215
  160MOL0     H21562   8.807   4.415   1.218  3.0826  1.1167 -0.3668
  160MOL0     H21563   9.064   4.378   1.241 -0.2380  0.8336 -1.0203
  160MOL0     H21564   9.236   3.955   1.205 -0.0076  0.0442  0.1128
  160MOL0     H21565   9.370   4.059   1.223  0.5374 -2.7490  1.0902
  160MOL0     H21566   9.306   4.117   1.453 -1.9091  1.0334 -1.0422
  160MOL0     H21567   9.156   4.019   1.437 -0.2761  2.8117 -0.1681
  160MOL0     H21568   9.282   3.817   1.379  0.9813 -2.7770  2.1574
  160MOL0     H21569   9.436   3.900   1.399 -0.0931 -2.2625 -2.2768
  160MOL0     H21570   9.214   3.879   1.608  1.4173  2.1297  1.9319
  160MOL0     H21571   9.369   3.941   1.634  0.9405  0.1947 -0.1645
  160MOL0     H21572   9.317   3.641   1.586  2.6614 -1.2407  0.2137
  160MOL0     H21573   9.364   3.708   1.733 -2.4062 -2.9961 -0.5057
  160MOL0     H21574   9.550   3.609   1.630  0.4890  0.7829  1.8178
  160MOL0     H21575   9.508   3.692   1.471 -2.9552  2.3789  0.0061
  160MOL0     H21576   9.614   3.805   1.744 -1.4189 -1.3540  0.6581
  160MOL0     H21577   9.584   3.910   1.610  0.6317 -0.0095  1.2180
  160MOL0     H21578   9.753   3.660   1.572 -3.2604 -0.4302  1.0604
  160MOL0     H21579   9.762   3.810   1.476 -1.4568 -0.2293 -0.2623
  160MOL0     H21580   9.024   3.968   1.214  1.0957 -0.0427 -1.5935
  160MOL0     H21581   8.764   3.989   1.222  2.0023 -1.4599 -0.0994
  160MOL0     H21582   8.402   4.174   1.338 -0.2550  0.6273  0.3540
  160MOL0     H21583   8.164   4.185   1.382 -2.0468 -0.5876 -1.0691
  160MOL0     H21584   6.258   4.413   0.891 -1.3069  3.3675  2.2008
  160MOL0     H21585   6.022   4.449   0.904  0.6233  0.8391  1.1119
  160MOL0     H21586   5.639   4.360   0.985  0.7123 -0.7942  0.0239
  160MOL0     H21587   5.397   4.377   0.978 -0.1564  0.5528  0.2441
  160MOL0     H21588   5.156   4.284   1.164 -1.0890 -0.5154 -1.5059
  160MOL0     H21589   5.203   4.346   1.007 -2.6252 -0.4478 -0.5275
  160MOL0     H21590   5.001   4.482   1.169  0.4183  0.1337  0.2394
  160MOL0     H21591   4.962   4.374   1.029  1.4268 -1.1301 -0.0377
  160MOL0     H21592   5.047   4.530   0.872  0.0964  0.9367 -0.0925
  160MOL0     H21593   5.158   4.596   0.990 -0.9693  0.6907 -1.6602
  160MOL0     H21594   4.947   4.695   1.107 -0.6848 -2.7598  0.4409
  160MOL0     H21595   5.002   4.766   0.941 -2.3747  0.5760 -1.5455
  160MOL0     H21596   4.606   4.627   0.908 -0.1551  0.4306  0.8290
  160MOL0     H21597   5.407   4.503   1.396  1.8401  2.3345  0.2027
  160MOL0     H21598   5.669   4.404   1.502 -1.0601  0.6638  0.3580
  160MOL0     H21599   5.766   4.527   1.418  1.5011 -1.5808  1.0207
  160MOL0     H21600   5.610   4.573   1.488 -1.8336 -2.5461  2.3826
  161MOL0     O21601  10.372   1.086   6.050  0.5858  0.8768  0.6082
  161MOL0     C21602  10.345   0.989   6.126 -0.4425 -0.2077  0.4167
  161MOL0     O21603  10.227   0.926   6.130  0.0921  0.4514  0.4532
  161MOL0     C21604  10.126   0.959   6.042  0.2632  0.3443  0.6643
  161MOL0     C21605  10.004   0.998   6.096 -0.4525 -0.5806  0.2244
  161MOL0     C21606   9.902   1.031   6.009 -0.2028  0.2588  0.5756
  161MOL0     C21607   9.904   1.022   5.863 -0.0728  1.1733 -0.5216
  161MOL0     O21608   9.798   1.066   5.786 -0.2965 -0.4595  0.3213
  161MOL0     C21609   9.664   1.090   5.845 -0.0102 -0.0554  0.0729
  161MOL0     C21610   9.585   0.965   5.893  0.2577 -0.0221 -0.5032
  161MOL0     C21611   9.432   0.993   5.902 -0.0991  0.4648 -0.3275
  161MOL0     C21612   9.358   1.027   5.768  0.5514  0.5760 -0.7979
  161MOL0     C21613   9.230   1.114   5.793  0.4258  0.2780 -1.1505
  161MOL0     C21614   9.258   1.266   5.805 -0.3566  0.6649 -0.2161
  161MOL0     C21615   9.271   1.339   5.676  0.8870 -1.0505 -0.4896
  161MOL0     C21616   9.298   1.502   5.691  0.9009 -0.6331  0.3139
  161MOL0     N21617   9.433   1.529   5.731 -0.0237  0.2480  0.0036
  161MOL0     C21618   9.549   1.500   5.662  0.2835 -0.4841 -0.2562
  161MOL0     C21619   9.646   1.485   5.753  1.4235 -0.4488 -0.5373
  161MOL0     C21620   9.794   1.471   5.723 -0.3072  0.0978  0.3688
  161MOL0     C21621   9.886   1.513   5.829 -0.1862 -0.7093  0.4175
  161MOL0     C21622   9.899   1.416   5.937 -0.4369 -0.0048  0.1541
  161MOL0     C21623  10.039   1.403   5.995 -0.3182 -0.2309  0.1874
  161MOL0     O21624  10.095   1.522   6.053 -0.8914 -0.3526  0.3970
  161MOL0     C21625  10.162   1.496   6.169 -0.4155 -0.0640 -0.4294
  161MOL0     C21626  10.159   1.587   6.280  0.2127  0.1745  0.0299
  161MOL0     C21627  10.237   1.565   6.392 -0.0429  0.2360 -0.9995
  161MOL0     C21628  10.316   1.449   6.406  0.2890  0.2439  0.8513
  161MOL0     C21629  10.403   1.431   6.521  0.2066  0.2598  1.2927
  161MOL0     O21630  10.420   1.538   6.599  0.6214  0.2266  0.2398
  161MOL0     C21631  10.509   1.538   6.705  0.2738  0.2581 -0.2008
  161MOL0     C21632  10.525   1.436   6.802  0.0380  0.2661  0.0448
  161MOL0     C21633  10.617   1.457   6.901  1.0583  0.2187 -0.6546
  161MOL0     C21634  10.693   1.576   6.917 -0.7564 -0.6660 -0.0575
  161MOL0     O21635  10.775   1.597   7.021 -0.5046 -0.6803 -0.0913
  161MOL0     C21636  10.822   1.491   7.101  0.5899 -1.0557 -0.1383
  161MOL0     C21637  10.935   1.538   7.197 -0.0656  0.0595  0.3471
  161MOL0     C21638  10.896   1.640   7.296 -0.0029  0.0023 -0.4013
  161MOL0     C21639  10.980   1.628   7.427  0.0145  0.3486 -0.0460
  161MOL0     C21640  10.944   1.742   7.523  0.3119 -0.3512 -0.0260
  161MOL0     C21641  11.065   1.768   7.616 -0.3127 -0.4367 -0.4742
  161MOL0     C21642  11.059   1.694   7.752  0.2030  0.3092  0.5778
  161MOL0     C21643  11.187   1.700   7.830 -0.1666  0.2589 -1.1330
  161MOL0    Cl21644  11.299   1.568   7.769  0.1272  0.2044 -0.3632
  161MOL0     C21645  10.660   1.683   6.839 -0.1202  0.1931 -0.5542
  161MOL0     C21646  10.579   1.656   6.723  0.6546  0.3860  0.6945
  161MOL0     O21647  10.474   1.321   6.534  0.2114  0.2511  0.2897
  161MOL0     C21648  10.311   1.349   6.305 -0.7368 -0.2190  0.1305
  161MOL0     C21649  10.236   1.375   6.193  0.0379  0.0284 -0.7282
  161MOL0     N21650   9.593   1.523   5.872 -0.4164  0.2250  0.3233
  161MOL0     N21651   9.470   1.527   5.858  0.0265 -0.0244  1.0776
  161MOL0     C21652  10.033   0.984   5.814  0.4984  0.5384 -0.1925
  161MOL0     C21653  10.140   0.953   5.902 -0.0787 -1.0098  0.1842
  161MOL0     C21654  10.455   0.954   6.207 -0.4412  1.0920 -0.1943
  161MOL0     C21655  10.592   0.974   6.158 -0.1610  0.0108 -0.2474
  161MOL0     C21656  10.697   0.963   6.250  0.3309  0.8777 -0.2125
  161MOL0     C21657  10.682   0.920   6.384 -0.5852 -0.0454  0.1054
  161MOL0     O21658  10.801   0.905   6.455  0.0024  0.4676  0.7360
  161MOL0     C21659  10.807   0.960   6.588  0.7237  0.5876  0.1049
  161MOL0     C21660  10.946   0.962   6.640  0.3398 -0.6569  0.7380
  161MOL0     C21661  10.995   0.816   6.688 -0.6132  0.2861 -1.0047
  161MOL0     C21662  11.134   0.824   6.736  0.0117 -0.3927 -0.3854
  161MOL0     C21663  11.220   0.808   6.614  0.1548 -0.8635 -0.6627
  161MOL0     C21664  11.299   0.813   6.521  0.4871 -0.0561  0.5771
  161MOL0     C21665  10.558   0.889   6.430 -0.1159  0.0231  0.4911
  161MOL0     C21666  10.446   0.911   6.348  0.4746  0.4476 -0.5595
  161MOL0     C21667  10.319   0.858   6.415  0.5032  0.7790  0.3202
  161MOL0     H21668   9.992   0.994   6.204 -0.3193  2.8987  0.4620
  161MOL0     H21669   9.811   1.061   6.061 -0.7923  1.1958 -0.9190
  161MOL0     H21670   9.666   1.173   5.917  0.5064  0.7667 -0.8471
  161MOL0     H21671   9.599   1.136   5.770  0.0912  1.3722  0.8198
  161MOL0     H21672   9.627   0.925   5.985 -0.2485 -0.5617 -0.4978
  161MOL0     H21673   9.594   0.888   5.815 -0.4747 -1.2642  0.5871
  161MOL0     H21674   9.398   1.061   5.980 -1.0223  0.5366 -0.7709
  161MOL0     H21675   9.391   0.896   5.932  0.7137 -0.0847 -0.9447
  161MOL0     H21676   9.418   1.091   5.702  2.0256  2.1987  1.9372
  161MOL0     H21677   9.330   0.935   5.715  1.4292  0.7315 -1.5624
  161MOL0     H21678   9.162   1.088   5.712  0.4580 -0.5581 -0.9188
  161MOL0     H21679   9.182   1.076   5.884  1.9359  0.2013 -0.3447
  161MOL0     H21680   9.174   1.319   5.851 -1.0018 -1.4637  1.1764
  161MOL0     H21681   9.347   1.289   5.863  0.9070 -3.5660 -0.1528
  161MOL0     H21682   9.181   1.331   5.613  1.6061  2.5501 -2.2310
  161MOL0     H21683   9.357   1.295   5.625  1.3821 -3.1205  1.9751
  161MOL0     H21684   9.275   1.547   5.594  2.0988  3.1751  1.6234
  161MOL0     H21685   9.235   1.540   5.771  0.8659 -1.4372  0.6793
  161MOL0     H21686   9.548   1.468   5.559 -4.0172 -2.7859  0.2700
  161MOL0     H21687   9.811   1.368   5.691 -1.4457 -0.0496  0.2131
  161MOL0     H21688   9.813   1.540   5.640  0.9309 -3.4904 -2.6070
  161MOL0     H21689   9.985   1.531   5.786  0.1551  1.7838  2.0410
  161MOL0     H21690   9.852   1.608   5.872  0.3636 -0.4417  0.2702
  161MOL0     H21691   9.873   1.315   5.905 -0.0349 -0.5080  1.3382
  161MOL0     H21692   9.832   1.444   6.019  0.0906  0.5399  0.4065
  161MOL0     H21693  10.100   1.373   5.910 -2.0586  2.2753 -2.1333
  161MOL0     H21694  10.038   1.321   6.067  0.3157  1.0719  1.7383
  161MOL0     H21695  10.107   1.682   6.276 -3.2544 -1.6087 -2.2277
  161MOL0     H21696  10.242   1.637   6.473 -4.7253 -1.1190  0.8393
  161MOL0     H21697  10.471   1.342   6.795 -0.1091  0.1146  2.5507
  161MOL0     H21698  10.628   1.372   6.969  1.0082 -0.1907 -1.1490
  161MOL0     H21699  10.739   1.447   7.158 -0.1510  3.2285  2.5251
  161MOL0     H21700  10.856   1.410   7.036  1.9185 -1.5703  1.1577
  161MOL0     H21701  10.987   1.458   7.250 -0.3632 -0.0821  0.4277
  161MOL0     H21702  11.005   1.578   7.123 -0.7587  1.4585  0.4193
  161MOL0     H21703  10.893   1.740   7.251 -1.3145  1.2353  2.2255
  161MOL0     H21704  10.789   1.623   7.309 -0.6559  0.4454 -3.9762
  161MOL0     H21705  11.085   1.629   7.394  1.2082 -2.2557  3.1770
  161MOL0     H21706  10.963   1.528   7.468  3.1164 -0.4888 -0.5756
  161MOL0     H21707  10.850   1.713   7.571  0.2999 -1.0597 -0.4506
  161MOL0     H21708  10.913   1.828   7.463  1.7447 -1.3365 -2.3361
  161MOL0     H21709  11.153   1.743   7.555 -0.9667 -0.0627 -1.6143
  161MOL0     H21710  11.077   1.875   7.635  0.1849  0.0143 -2.9418
  161MOL0     H21711  11.031   1.589   7.752  0.9132  0.0920 -0.8092
  161MOL0     H21712  10.984   1.753   7.807  0.1526  1.6185 -0.8296
  161MOL0     H21713  11.236   1.798   7.840  1.6042 -0.6369 -0.6941
  161MOL0     H21714  11.159   1.680   7.934  2.9270 -0.5242 -0.3703
  161MOL0     H21715  10.701   1.782   6.852 -3.7982  1.8942 -0.8321
  161MOL0     H21716  10.554   1.730   6.648  0.2866 -1.1871 -0.7960
  161MOL0     H21717  10.376   1.262   6.310  2.3389  1.9387  0.9775
  161MOL0     H21718  10.241   1.295   6.120  2.9582 -0.8592  0.3257
  161MOL0     H21719  10.061   0.969   5.710 -1.2395  0.1064 -0.6458
  161MOL0     H21720  10.241   0.932   5.869  0.1355 -0.5192  0.5274
  161MOL0     H21721  10.599   1.004   6.054  0.6592  0.7960  0.0290
  161MOL0     H21722  10.798   0.981   6.215  0.0213 -0.8368 -2.1910
  161MOL0     H21723  10.747   0.891   6.648 -0.2749  0.5862 -0.8598
  161MOL0     H21724  10.766   1.061   6.589 -0.4988  0.1092  0.5060
  161MOL0     H21725  10.957   1.033   6.722  0.3533 -1.1324  1.1518
  161MOL0     H21726  11.018   1.000   6.566 -0.4275 -0.7200 -0.0650
  161MOL0     H21727  10.999   0.735   6.615  1.3702 -1.7088  1.1225
  161MOL0     H21728  10.938   0.789   6.778  3.0605  0.7308  1.6958
  161MOL0     H21729  11.162   0.923   6.771  1.6778 -0.1984 -2.1037
  161MOL0     H21730  11.141   0.741   6.808 -2.3065  0.2390  0.6525
  161MOL0     H21731  11.379   0.845   6.458 -0.6851  2.3989  0.2212
  161MOL0     H21732  10.560   0.844   6.529 -0.7800  0.1898  0.5803
  161MOL0     H21733  10.250   0.941   6.432  2.0933  2.1273  0.4773
  161MOL0     H21734  10.264   0.778   6.365 -2.8457  0.6955  3.6933
  161MOL0     H21735  10.344   0.821   6.515 -1.0394  0.7709  0.7222
  162MOL0     O21736   6.839   8.273   7.518 -0.1164 -0.4912 -0.0069
  162MOL0     C21737   6.792   8.388   7.535  0.1279  1.0742  0.1803
  162MOL0     O21738   6.864   8.505   7.537 -1.1395 -0.1462  0.7117
  162MOL0     C21739   6.995   8.501   7.498  0.3804  0.2036 -0.3695
  162MOL0     C21740   7.092   8.498   7.598  0.0409 -0.2850  0.7763
  162MOL0     C21741   7.223   8.497   7.558 -0.2679  0.0852 -0.3196
  162MOL0     C21742   7.272   8.484   7.431 -0.5885  0.5336  0.8131
  162MOL0     O21743   7.412   8.472   7.406  0.0623  0.3134 -0.1576
  162MOL0     C21744   7.460   8.461   7.268  0.6033 -0.2253  0.6023
  162MOL0     C21745   7.612   8.436   7.279 -0.1687 -0.6589 -0.0220
  162MOL0     C21746   7.676   8.439   7.142 -1.1731 -0.1022  0.4312
  162MOL0     C21747   7.829   8.411   7.153 -0.4402 -0.1930 -0.0034
  162MOL0     C21748   7.884   8.391   7.015 -0.3037  0.8234  0.2759
  162MOL0     C21749   8.033   8.351   7.013  0.4346 -0.1909 -0.3420
  162MOL0     C21750   8.094   8.375   6.869  0.7885 -0.2585 -0.0896
  162MOL0     C21751   8.226   8.311   6.847 -1.2443  0.1653 -0.1954
  162MOL0     N21752   8.346   8.385   6.880 -0.9006  1.2366  0.5075
  162MOL0     C21753   8.397   8.420   7.003 -0.0953  0.1665 -0.7031
  162MOL0     C21754   8.514   8.476   6.973 -0.1389  0.3217 -1.4737
  162MOL0     C21755   8.623   8.524   7.069  0.1107  0.6380 -0.5513
  162MOL0     C21756   8.655   8.427   7.181 -1.0002  0.8640 -0.2942
  162MOL0     C21757   8.752   8.501   7.276 -0.0655  0.2950  0.0909
  162MOL0     C21758   8.901   8.474   7.257  0.5229  0.2361  0.3256
  162MOL0     O21759   8.943   8.506   7.120  0.0699  0.3285  0.4046
  162MOL0     C21760   9.070   8.531   7.096 -0.5753  0.6423  0.5901
  162MOL0     C21761   9.118   8.485   6.972 -0.6358  0.0610 -0.6592
  162MOL0     C21762   9.255   8.502   6.937 -0.1662 -0.0125 -0.1450
  162MOL0     C21763   9.343   8.574   7.027  0.2579 -0.2122 -0.3882
  162MOL0     C21764   9.485   8.619   6.986  0.4046 -0.0101 -0.2773
  162MOL0     O21765   9.524   8.599   6.861  0.7868  0.4128  0.0054
  162MOL0     C21766   9.644   8.637   6.815  0.0581 -0.4667  0.1480
  162MOL0     C21767   9.679   8.776   6.814  0.0065 -0.3981  0.2395
  162MOL0     C21768   9.798   8.814   6.746  0.4068 -0.6493  0.1249
  162MOL0     C21769   9.883   8.719   6.684  0.0366 -0.1306  0.1368
  162MOL0     O21770   9.990   8.772   6.620  0.7119 -0.5419  0.4921
  162MOL0     C21771  10.089   8.692   6.552 -0.4058  0.0114  0.8212
  162MOL0     C21772  10.193   8.789   6.500  0.2673 -0.4222  0.2965
  162MOL0     C21773  10.276   8.713   6.397  0.1026  0.6100  0.0831
  162MOL0     C21774  10.385   8.823   6.350  0.4303  0.0592  0.3582
  162MOL0     C21775  10.477   8.776   6.237  0.3610 -0.3316  1.0120
  162MOL0     C21776  10.571   8.654   6.260 -0.7383 -0.9232 -0.1047
  162MOL0     C21777  10.676   8.646   6.147  0.2126  0.0124 -0.4382
  162MOL0     C21778  10.775   8.530   6.171  0.1995  0.5908 -0.4545
  162MOL0    Cl21779  10.868   8.557   6.318  0.4254  0.0620 -0.7056
  162MOL0     C21780   9.854   8.581   6.704  0.5765  0.5951  0.9091
  162MOL0     C21781   9.727   8.543   6.752 -0.0300 -0.3102 -0.7846
  162MOL0     O21782   9.561   8.653   7.074  0.0892 -1.0038 -0.2621
  162MOL0     C21783   9.289   8.621   7.146 -0.5023 -0.5503  0.5227
  162MOL0     C21784   9.163   8.590   7.185 -0.0050  1.4671  0.0361
  162MOL0     N21785   8.538   8.476   6.838 -0.2256  0.9897  1.1612
  162MOL0     N21786   8.440   8.418   6.778 -0.1321  0.1391  0.0982
  162MOL0     C21787   7.177   8.486   7.325 -0.2675 -0.3613 -0.0589
  162MOL0     C21788   7.040   8.491   7.363  0.3753  1.3403 -0.8995
  162MOL0     C21789   6.648   8.387   7.575  0.8045  0.0499 -0.3646
  162MOL0     C21790   6.601   8.305   7.682 -0.0042 -0.5002  0.4540
  162MOL0     C21791   6.475   8.302   7.724  0.4400  0.6343  0.1713
  162MOL0     C21792   6.379   8.388   7.662 -1.1055  0.2003 -0.7335
  162MOL0     O21793   6.240   8.391   7.699 -0.0750 -1.1220 -0.0697
  162MOL0     C21794   6.187   8.290   7.791 -0.3630 -0.0534  0.1130
  162MOL0     C21795   6.038   8.319   7.811 -0.2402  0.4519 -0.4559
  162MOL0     C21796   5.984   8.226   7.917 -0.2271 -0.4345  0.5648
  162MOL0     C21797   5.837   8.256   7.939 -0.1377  0.8861  0.6338
  162MOL0     C21798   5.765   8.137   7.995  0.6571 -0.0832 -0.2469
  162MOL0     C21799   5.689   8.060   8.047  0.8339 -0.2807  0.4835
  162MOL0     C21800   6.424   8.480   7.569 -0.1227 -0.2852 -0.1803
  162MOL0     C21801   6.558   8.476   7.520  0.5103 -1.3423 -0.6609
  162MOL0     C21802   6.580   8.593   7.419  0.4635 -0.7856  0.1533
  162MOL0     H21803   7.070   8.512   7.703  1.1737  0.0800  0.9841
  162MOL0     H21804   7.291   8.494   7.642  0.6372  0.8096 -0.9991
  162MOL0     H21805   7.405   8.376   7.226 -1.1676  1.6046 -0.9390
  162MOL0     H21806   7.447   8.554   7.211  1.3584 -0.4567  0.0302
  162MOL0     H21807   7.635   8.340   7.326 -1.1265 -0.5700  0.6585
  162MOL0     H21808   7.663   8.506   7.347  0.4891  0.9328 -2.0581
  162MOL0     H21809   7.650   8.532   7.091  2.3611 -0.0014 -1.5128
  162MOL0     H21810   7.624   8.369   7.075 -2.3380  2.2336 -1.2353
  162MOL0     H21811   7.889   8.494   7.191  2.4835 -1.9282 -0.5305
  162MOL0     H21812   7.850   8.328   7.220  0.9132  0.6495  0.6640
  162MOL0     H21813   7.834   8.305   6.970  0.0774  0.6179  0.2342
  162MOL0     H21814   7.869   8.479   6.951 -0.3718  0.4958 -0.1686
  162MOL0     H21815   8.075   8.429   7.077 -0.4414 -0.0395  0.0447
  162MOL0     H21816   8.056   8.249   7.044  1.6918  0.5465  1.3080
  162MOL0     H21817   8.104   8.480   6.841  1.7709 -0.5207 -0.7791
  162MOL0     H21818   8.017   8.343   6.798  0.5534 -3.2840  1.3671
  162MOL0     H21819   8.205   8.210   6.881 -1.6534 -0.2782 -1.6722
  162MOL0     H21820   8.227   8.295   6.739 -1.2377 -1.4921  0.0283
  162MOL0     H21821   8.351   8.406   7.100  0.3102  2.5986 -0.0988
  162MOL0     H21822   8.713   8.535   7.008 -0.0179  2.2645 -0.4885
  162MOL0     H21823   8.594   8.618   7.116 -1.3211  0.5676 -1.2231
  162MOL0     H21824   8.567   8.401   7.240 -0.3329  3.0117  1.8473
  162MOL0     H21825   8.701   8.339   7.134 -2.4974 -0.1320  0.0361
  162MOL0     H21826   8.723   8.468   7.376 -1.9409 -2.6632 -1.3004
  162MOL0     H21827   8.743   8.610   7.272  2.8626  0.5605 -2.2949
  162MOL0     H21828   8.914   8.366   7.272 -2.2730 -0.2739 -0.3341
  162MOL0     H21829   8.954   8.519   7.342  2.2816 -1.3255  0.1340
  162MOL0     H21830   9.053   8.428   6.906 -0.9961  0.7487 -0.9071
  162MOL0     H21831   9.286   8.479   6.836 -0.6474  2.7451 -0.9958
  162MOL0     H21832   9.614   8.857   6.846  1.4447  0.6874  0.5146
  162MOL0     H21833   9.817   8.914   6.710 -4.5081 -0.0514 -1.4608
  162MOL0     H21834  10.140   8.626   6.622  0.5250  0.6472  0.7555
  162MOL0     H21835  10.044   8.629   6.475 -2.1603  0.5723  1.3206
  162MOL0     H21836  10.152   8.879   6.454 -0.5196 -1.5944 -1.3878
  162MOL0     H21837  10.266   8.810   6.580  0.4263  0.9196 -0.1725
  162MOL0     H21838  10.316   8.621   6.439 -0.0598  0.8480  0.7755
  162MOL0     H21839  10.229   8.693   6.301 -1.6079  2.4692  0.4590
  162MOL0     H21840  10.444   8.837   6.440  1.6052  2.6009 -0.7142
  162MOL0     H21841  10.330   8.910   6.315 -1.1688 -1.6697 -1.7215
  162MOL0     H21842  10.533   8.867   6.212  0.3216 -1.0886 -2.3324
  162MOL0     H21843  10.413   8.747   6.154  2.4410 -4.1880  0.5522
  162MOL0     H21844  10.614   8.673   6.358 -1.6953 -0.4436  0.2290
  162MOL0     H21845  10.511   8.563   6.259  1.1916 -2.2802  0.9455
  162MOL0     H21846  10.722   8.743   6.126 -1.0836  1.2633  2.0723
  162MOL0     H21847  10.623   8.635   6.052  1.5002  2.4748 -1.5319
  162MOL0     H21848  10.716   8.439   6.188 -1.0042  1.1506 -1.4557
  162MOL0     H21849  10.838   8.514   6.083 -0.0639 -3.5790 -0.1225
  162MOL0     H21850   9.913   8.508   6.650  0.0521  1.5802 -1.0850
  162MOL0     H21851   9.689   8.441   6.757  1.3062 -0.7684  0.7923
  162MOL0     H21852   9.344   8.682   7.216 -2.7780  1.0159  1.0737
  162MOL0     H21853   9.126   8.620   7.283  0.8140  0.4207  0.6752
  162MOL0     H21854   7.211   8.505   7.223  1.5358 -1.1354  0.3542
  162MOL0     H21855   6.963   8.481   7.287 -0.4986 -0.1891  0.1523
  162MOL0     H21856   6.673   8.231   7.715  1.8980  0.1893 -1.8228
  162MOL0     H21857   6.452   8.224   7.796  0.3412 -1.8302 -2.3400
  162MOL0     H21858   6.238   8.288   7.888 -1.3260  1.0810  0.6783
  162MOL0     H21859   6.187   8.192   7.743 -1.1395 -0.4481  0.8969
  162MOL0     H21860   5.983   8.309   7.717  0.2465 -2.4362 -0.5269
  162MOL0     H21861   6.033   8.422   7.849 -1.8499  0.4606 -0.6393
  162MOL0     H21862   6.034   8.240   8.013  1.8598 -0.8361 -0.3960
  162MOL0     H21863   5.996   8.119   7.895  0.5332  0.0539 -1.6234
  162MOL0     H21864   5.840   8.341   8.007 -0.6730  0.4535  1.1987
  162MOL0     H21865   5.790   8.296   7.848  2.7358 -0.4215 -1.6010
  162MOL0     H21866   5.618   7.994   8.092 -0.1320  0.0791 -0.4859
  162MOL0     H21867   6.352   8.549   7.528  0.6840 -0.1177 -1.3752
  162MOL0     H21868   6.586   8.682   7.482 -1.6387  0.4475 -1.2936
  162MOL0     H21869   6.668   8.580   7.355  1.5574  0.3095  1.3639
  162MOL0     H21870   6.493   8.610   7.356  0.1189  2.1157  1.2533
  163MOL0     O21871   0.866   8.112   3.571 -0.3211 -0.3972 -0.3001
  163MOL0     C21872   0.778   8.062   3.649 -0.2367 -0.4285 -0.3713
  163MOL0     O21873   0.810   7.968   3.742 -0.0397  0.7658 -0.5340
  163MOL0     C21874   0.943   7.972   3.785  1.1528 -0.2524 -0.5011
  163MOL0     C21875   1.044   7.903   3.714  0.3062 -0.2184  0.1915
  163MOL0     C21876   1.177   7.928   3.748 -0.4229  0.2715 -0.2594
  163MOL0     C21877   1.213   8.004   3.864  0.3904  0.1666 -0.8899
  163MOL0     O21878   1.344   8.028   3.897 -0.1968 -0.0460 -0.0267
  163MOL0     C21879   1.400   8.119   3.811 -0.2098  0.3602  0.2841
  163MOL0     C21880   1.533   8.182   3.855 -1.2189 -0.4200  1.2305
  163MOL0     C21881   1.646   8.079   3.844 -0.5324 -0.2220  0.1941
  163MOL0     C21882   1.763   8.145   3.886 -0.0814 -0.5833  1.1039
  163MOL0     C21883   1.892   8.063   3.848 -0.0675 -0.9293 -0.5385
  163MOL0     C21884   2.011   8.121   3.911 -0.3465  0.5217 -0.0797
  163MOL0     C21885   2.138   8.064   3.854 -0.2825 -0.2711  0.1667
  163MOL0     C21886   2.274   8.098   3.925 -0.1038  1.0941 -0.6266
  163MOL0     N21887   2.346   8.210   3.874  0.3763  1.0375 -0.4670
  163MOL0     C21888   2.475   8.197   3.817  0.7166  0.5009  0.2286
  163MOL0     C21889   2.505   8.324   3.777 -0.2417  0.4724 -0.6208
  163MOL0     C21890   2.626   8.361   3.709 -0.0107 -0.1754 -0.0485
  163MOL0     C21891   2.680   8.500   3.747  0.0605  0.1482 -0.6905
  163MOL0     C21892   2.606   8.620   3.689 -0.1066 -0.6390 -0.3600
  163MOL0     C21893   2.594   8.739   3.792 -0.7337  0.6584  0.3491
  163MOL0     O21894   2.706   8.769   3.876 -0.1119 -0.6082  0.3170
  163MOL0     C21895   2.824   8.793   3.803 -0.5589 -0.6481 -0.1059
  163MOL0     C21896   2.947   8.772   3.864 -0.0069  0.4588 -0.1194
  163MOL0     C21897   3.076   8.791   3.808 -1.1676 -0.2153  0.3202
  163MOL0     C21898   3.088   8.855   3.679  0.0884  0.0449 -0.5108
  163MOL0     C21899   3.216   8.882   3.620 -0.0860  0.2193  0.6211
  163MOL0     O21900   3.214   8.922   3.496 -1.1722 -0.0001  0.7620
  163MOL0     C21901   3.336   8.920   3.427  0.8095  0.6625  0.1102
  163MOL0     C21902   3.377   8.794   3.376 -0.1761  1.2054  0.3861
  163MOL0     C21903   3.509   8.773   3.326  0.3814  0.4792 -0.3265
  163MOL0     C21904   3.597   8.880   3.315  0.1453  0.5068  0.2787
  163MOL0     O21905   3.719   8.847   3.257  0.2398  0.5678  0.4702
  163MOL0     C21906   3.830   8.940   3.261  0.7270  0.1532 -0.1481
  163MOL0     C21907   3.946   8.871   3.180  0.1504 -0.5759  0.7795
  163MOL0     C21908   4.028   8.990   3.126 -0.4830 -0.0338  0.7468
  163MOL0     C21909   4.172   8.948   3.091 -0.4034  0.4899 -0.1712
  163MOL0     C21910   4.261   9.069   3.059  0.1599 -0.1257  0.4530
  163MOL0     C21911   4.411   9.052   3.077 -0.0554  0.0977  0.1124
  163MOL0     C21912   4.463   8.945   2.974  0.9839  0.2976 -0.2513
  163MOL0     C21913   4.613   8.965   2.952  0.0573  0.3448 -0.3386
  163MOL0    Cl21914   4.648   9.138   2.904  0.2447  0.2797  0.3665
  163MOL0     C21915   3.550   9.011   3.353 -0.9870 -0.1114  0.2597
  163MOL0     C21916   3.415   9.033   3.400 -0.2804  0.1329  1.2149
  163MOL0     O21917   3.314   8.847   3.678  0.1242 -0.5464 -0.4293
  163MOL0     C21918   2.964   8.898   3.619 -0.2670 -0.5138 -0.3415
  163MOL0     C21919   2.835   8.862   3.674  0.3765  0.3158 -0.2344
  163MOL0     N21920   2.405   8.411   3.830 -0.7100  0.3746 -0.4175
  163MOL0     N21921   2.313   8.342   3.887 -0.3139  0.8744 -0.4599
  163MOL0     C21922   1.113   8.062   3.941 -0.1599  0.1513  0.2022
  163MOL0     C21923   0.979   8.048   3.903  0.0148  0.2671  0.6898
  163MOL0     C21924   0.635   8.100   3.621  0.5006  0.9113 -0.6413
  163MOL0     C21925   0.551   8.087   3.736 -0.0476  0.0978 -0.5863
  163MOL0     C21926   0.415   8.124   3.716  0.3498  0.2987 -0.0538
  163MOL0     C21927   0.354   8.178   3.607 -0.2787 -0.1629  0.4053
  163MOL0     O21928   0.228   8.223   3.596  0.1833  0.2371 -0.0950
  163MOL0     C21929   0.159   8.246   3.725  0.0587  0.1352  0.5807
  163MOL0     C21930   0.050   8.358   3.703 -0.4926  1.5760 -0.2012
  163MOL0     C21931  -0.086   8.298   3.666 -0.4432  0.5228 -0.2040
  163MOL0     C21932  -0.176   8.409   3.618  0.5121 -0.2733  0.0544
  163MOL0     C21933  -0.301   8.333   3.575 -0.0104  0.0580 -0.0301
  163MOL0     C21934  -0.406   8.278   3.558  0.3293  0.4337  0.2572
  163MOL0     C21935   0.434   8.181   3.492 -0.5679  0.4977 -0.0068
  163MOL0     C21936   0.574   8.147   3.497 -0.2597  0.3624  0.3331
  163MOL0     C21937   0.661   8.140   3.374  0.4594 -0.5048  0.3492
  163MOL0     H21938   1.017   7.821   3.648 -1.0862 -0.1981  0.7068
  163MOL0     H21939   1.258   7.879   3.696  0.0542  1.7593 -0.9784
  163MOL0     H21940   1.411   8.063   3.717 -0.5989 -0.3997  0.6875
  163MOL0     H21941   1.332   8.202   3.788 -1.7765 -0.7565  0.7337
  163MOL0     H21942   1.516   8.215   3.958 -0.0630  0.6432  1.0982
  163MOL0     H21943   1.566   8.270   3.798  1.9881 -1.8723  0.6170
  163MOL0     H21944   1.653   8.066   3.736 -2.7312  4.1815 -0.7449
  163MOL0     H21945   1.611   7.993   3.902  0.2204  0.7712  2.2521
  163MOL0     H21946   1.775   8.246   3.846  3.0892 -0.0040  3.1717
  163MOL0     H21947   1.762   8.159   3.995  2.5552 -1.7269  1.3412
  163MOL0     H21948   1.878   7.961   3.886  0.7824 -1.0022 -0.4151
  163MOL0     H21949   1.909   8.067   3.740 -1.0765  2.1564 -0.6856
  163MOL0     H21950   2.008   8.230   3.909  0.2236  0.6177  1.9779
  163MOL0     H21951   2.015   8.108   4.020 -0.2144  1.1499 -0.0038
  163MOL0     H21952   2.146   8.094   3.750  0.5157 -0.8496  0.0439
  163MOL0     H21953   2.129   7.955   3.861 -1.4278 -0.1321  1.2521
  163MOL0     H21954   2.272   8.108   4.034 -4.9078 -1.1400 -0.2523
  163MOL0     H21955   2.338   8.011   3.907 -2.1739 -0.2115 -2.0775
  163MOL0     H21956   2.525   8.103   3.794 -1.2541 -0.8391  1.1178
  163MOL0     H21957   2.706   8.289   3.730  0.4647  0.5656  0.7468
  163MOL0     H21958   2.608   8.360   3.601  2.7355 -0.2740 -0.5629
  163MOL0     H21959   2.689   8.515   3.855 -2.5816  2.1625 -0.6581
  163MOL0     H21960   2.787   8.504   3.724  0.5240 -0.2225  1.1908
  163MOL0     H21961   2.507   8.600   3.649 -0.1690  0.8855 -1.0264
  163MOL0     H21962   2.654   8.656   3.597  0.6079 -2.7988 -0.8937
  163MOL0     H21963   2.506   8.708   3.850 -1.3085 -0.2318 -0.9476
  163MOL0     H21964   2.570   8.827   3.731 -1.1499 -0.0944 -0.6207
  163MOL0     H21965   2.939   8.732   3.965 -1.1052 -0.5141 -0.5564
  163MOL0     H21966   3.161   8.753   3.864 -0.6544 -1.2823 -1.1191
  163MOL0     H21967   3.304   8.714   3.385 -1.9357  2.9388  3.0646
  163MOL0     H21968   3.536   8.669   3.307 -0.1355  0.0140  1.3616
  163MOL0     H21969   3.796   9.027   3.203  1.9123 -1.2440 -3.1868
  163MOL0     H21970   3.850   8.964   3.365  3.6966  1.2506 -0.8875
  163MOL0     H21971   4.004   8.815   3.254  1.3093  0.2725  0.5345
  163MOL0     H21972   3.917   8.804   3.098  3.7677  1.0268 -2.0855
  163MOL0     H21973   3.988   9.024   3.030  0.6844 -2.8800 -0.8932
  163MOL0     H21974   4.027   9.073   3.196 -0.1940  2.0721 -1.5958
  163MOL0     H21975   4.175   8.872   3.012 -1.7446  1.2218 -0.9815
  163MOL0     H21976   4.211   8.913   3.187  1.2953  2.3430 -0.1381
  163MOL0     H21977   4.239   9.150   3.130  2.4231  1.2817 -0.3227
  163MOL0     H21978   4.243   9.100   2.956  0.4702  0.5177  0.5842
  163MOL0     H21979   4.453   9.152   3.063  0.4388  0.1598  1.9015
  163MOL0     H21980   4.426   9.013   3.177 -1.5997 -2.1890 -0.4732
  163MOL0     H21981   4.424   8.974   2.876  1.1730  2.7125  0.3168
  163MOL0     H21982   4.432   8.843   2.995  1.8662  0.3404  1.3869
  163MOL0     H21983   4.656   8.945   3.051 -2.7177 -0.5135  0.8158
  163MOL0     H21984   4.653   8.899   2.875 -1.6158 -2.8069  1.2909
  163MOL0     H21985   3.601   9.105   3.337 -0.4314 -0.7178 -1.8178
  163MOL0     H21986   3.373   9.128   3.432 -0.7739  1.9983 -4.0546
  163MOL0     H21987   2.985   8.954   3.529  0.1014 -1.2844 -0.7501
  163MOL0     H21988   2.745   8.886   3.618  0.2908  2.4063  0.6990
  163MOL0     H21989   1.137   8.124   4.027 -0.0932  1.3151 -0.6340
  163MOL0     H21990   0.896   8.092   3.958 -0.2378  0.9111 -0.1811
  163MOL0     H21991   0.580   8.048   3.833 -0.9799  1.7723  0.4250
  163MOL0     H21992   0.351   8.112   3.803 -2.1958 -1.9544 -2.0510
  163MOL0     H21993   0.239   8.280   3.791  3.6832 -2.0773 -2.2921
  163MOL0     H21994   0.113   8.154   3.761  0.4572 -0.4301 -0.2989
  163MOL0     H21995   0.085   8.436   3.636 -0.3184  1.7051  0.0391
  163MOL0     H21996   0.032   8.402   3.802 -1.5365 -0.7650  0.7386
  163MOL0     H21997  -0.129   8.240   3.748 -0.9214  0.0788 -0.7559
  163MOL0     H21998  -0.074   8.227   3.583 -2.9960 -0.1393 -0.0833
  163MOL0     H21999  -0.197   8.484   3.695 -0.1784  2.8431 -2.8697
  163MOL0     H22000  -0.138   8.465   3.531 -1.5725  1.1989  0.0024
  163MOL0     H22001  -0.498   8.228   3.537  0.7627  0.3406 -1.5519
  163MOL0     H22002   0.388   8.222   3.403  1.5232  1.0764 -0.8925
  163MOL0     H22003   0.725   8.051   3.379  0.8916 -0.1367  2.0242
  163MOL0     H22004   0.595   8.128   3.287  1.7154  0.2904 -0.7496
  163MOL0     H22005   0.725   8.229   3.372  0.2910 -0.3269  1.9143
  164MOL0     O22006   0.230   5.480   2.640 -0.5786  0.3077 -0.3439
  164MOL0     C22007   0.175   5.377   2.664  0.5048 -0.7167  0.2892
  164MOL0     O22008   0.224   5.253   2.647  0.7177  0.6685 -0.6073
  164MOL0     C22009   0.347   5.231   2.607 -0.3118  0.4114 -0.1050
  164MOL0     C22010   0.402   5.301   2.495  1.1996  0.0084 -0.9599
  164MOL0     C22011   0.532   5.269   2.451 -0.8363  0.0117  0.2967
  164MOL0     C22012   0.600   5.152   2.505  0.8582 -1.0783  0.2249
  164MOL0     O22013   0.727   5.126   2.463 -0.1081 -0.5651 -0.4500
  164MOL0     C22014   0.822   5.184   2.553 -0.2268  0.2090 -0.4548
  164MOL0     C22015   0.962   5.166   2.494 -0.5242 -0.6688 -0.2695
  164MOL0     C22016   1.036   5.038   2.537 -0.0514 -0.1307  0.1558
  164MOL0     C22017   1.167   5.038   2.466  0.0252 -0.2615 -0.6705
  164MOL0     C22018   1.226   4.900   2.480  0.0491  0.3898  0.2423
  164MOL0     C22019   1.174   4.820   2.361 -0.3640 -0.0416 -0.3499
  164MOL0     C22020   1.200   4.676   2.368 -0.0658  0.2654 -0.0264
  164MOL0     C22021   1.186   4.593   2.503  0.2209 -0.1260 -0.6491
  164MOL0     N22022   1.043   4.577   2.542  0.2025 -0.0873 -0.3876
  164MOL0     C22023   0.981   4.647   2.644 -0.1285  0.1917 -0.0995
  164MOL0     C22024   0.849   4.612   2.636 -0.3438  0.4130  0.3909
  164MOL0     C22025   0.743   4.642   2.736  1.0558  0.1753 -0.2217
  164MOL0     C22026   0.608   4.673   2.674  0.3187  0.5671 -0.4018
  164MOL0     C22027   0.507   4.711   2.775  0.7756  0.8041 -0.2695
  164MOL0     C22028   0.363   4.719   2.712 -0.6295  0.2680 -0.2251
  164MOL0     O22029   0.269   4.741   2.812  0.4212 -0.4330  0.2066
  164MOL0     C22030   0.137   4.757   2.787  0.1018  0.2389 -0.7663
  164MOL0     C22031   0.083   4.778   2.658  0.4293  0.2386 -0.9165
  164MOL0     C22032  -0.055   4.808   2.647  0.0411 -0.1849 -0.8781
  164MOL0     C22033  -0.142   4.804   2.757 -0.1558  0.5642  0.1278
  164MOL0     C22034  -0.286   4.838   2.738 -0.1623 -0.1043  0.0650
  164MOL0     O22035  -0.313   4.914   2.625  0.1719 -0.4173  0.1857
  164MOL0     C22036  -0.429   4.973   2.593 -0.0457 -1.2487  0.1160
  164MOL0     C22037  -0.455   5.020   2.463 -0.6658  0.2035  1.3420
  164MOL0     C22038  -0.566   5.087   2.429 -0.2007  0.0216 -0.7000
  164MOL0     C22039  -0.663   5.104   2.530 -0.0045 -0.5742  0.5382
  164MOL0     O22040  -0.787   5.162   2.498 -0.1300  0.4819  0.3903
  164MOL0     C22041  -0.850   5.133   2.368  0.2489  0.0779  0.0832
  164MOL0     C22042  -1.002   5.151   2.402  0.6230  0.0758  0.4616
  164MOL0     C22043  -1.062   5.048   2.496  1.0550  0.2548 -0.1558
  164MOL0     C22044  -1.172   5.097   2.594  0.3153  0.2269 -0.1899
  164MOL0     C22045  -1.252   4.983   2.660 -0.0161  0.3345  0.0196
  164MOL0     C22046  -1.334   4.886   2.566  0.0169 -0.3527 -0.2910
  164MOL0     C22047  -1.456   4.814   2.632 -0.5708 -0.6732  0.1677
  164MOL0     C22048  -1.569   4.903   2.677  0.5412  0.1578 -0.5196
  164MOL0    Cl22049  -1.651   4.960   2.532  0.8309  0.3770  0.0898
  164MOL0     C22050  -0.642   5.063   2.657  0.3409 -0.1608 -0.1130
  164MOL0     C22051  -0.525   4.998   2.688  0.3240 -0.7719 -0.1346
  164MOL0     O22052  -0.359   4.812   2.837  0.0007 -0.6197 -0.3078
  164MOL0     C22053  -0.084   4.783   2.888 -0.0287 -0.0780  0.2986
  164MOL0     C22054   0.058   4.754   2.901  0.1603  0.0847 -0.8067
  164MOL0     N22055   0.831   4.532   2.521  1.0494 -0.7444 -0.2876
  164MOL0     N22056   0.946   4.508   2.475 -0.3608 -0.0397  0.7411
  164MOL0     C22057   0.531   5.075   2.600 -0.1026  0.7188  0.1928
  164MOL0     C22058   0.405   5.118   2.653 -0.8329  0.0598 -0.4704
  164MOL0     C22059   0.033   5.393   2.694  0.7247  0.3626 -0.9633
  164MOL0     C22060  -0.011   5.507   2.752 -0.6682 -0.6846  0.3472
  164MOL0     C22061  -0.148   5.538   2.779  0.4389  0.3651 -0.5877
  164MOL0     C22062  -0.249   5.444   2.762 -1.2551 -0.2015  0.1805
  164MOL0     O22063  -0.385   5.471   2.783 -0.1663 -1.0031 -0.1330
  164MOL0     C22064  -0.478   5.365   2.819 -0.4113 -1.0863  0.2454
  164MOL0     C22065  -0.433   5.310   2.952 -0.1495 -0.4993  1.0546
  164MOL0     C22066  -0.403   5.419   3.057 -0.2884  0.1063 -0.5584
  164MOL0     C22067  -0.407   5.352   3.202  0.1719  0.0523  0.0487
  164MOL0     C22068  -0.545   5.331   3.244 -0.4205 -0.1670 -0.6293
  164MOL0     C22069  -0.655   5.305   3.272 -0.2310 -0.5650 -0.4039
  164MOL0     C22070  -0.208   5.327   2.700 -0.3557 -0.3397 -0.9566
  164MOL0     C22071  -0.070   5.298   2.668 -0.9662  0.4476 -0.3012
  164MOL0     C22072  -0.039   5.167   2.597  0.6244  1.1350  0.5782
  164MOL0     H22073   0.343   5.385   2.461  0.5633  0.1732  0.4709
  164MOL0     H22074   0.582   5.320   2.369  1.6260 -1.2211  0.9395
  164MOL0     H22075   0.803   5.291   2.561 -0.6372 -0.0112  3.0623
  164MOL0     H22076   0.812   5.139   2.652 -2.7143  0.3819 -0.5680
  164MOL0     H22077   1.017   5.257   2.519  1.9070 -1.6469 -1.7337
  164MOL0     H22078   0.945   5.173   2.386  0.4346  1.7755 -0.3287
  164MOL0     H22079   0.979   4.947   2.514 -0.1846  0.1091 -0.4884
  164MOL0     H22080   1.044   5.042   2.646  0.4164  1.8368  0.0770
  164MOL0     H22081   1.159   5.057   2.359 -0.5211 -2.5358 -1.0801
  164MOL0     H22082   1.233   5.116   2.505  1.3610 -0.6849 -2.0170
  164MOL0     H22083   1.336   4.899   2.475  0.0729  0.4017  0.7715
  164MOL0     H22084   1.201   4.869   2.581  2.8859  1.0304  1.2449
  164MOL0     H22085   1.065   4.834   2.352 -0.8593 -1.2721  2.5790
  164MOL0     H22086   1.206   4.865   2.266 -1.8779  0.8751 -0.4667
  164MOL0     H22087   1.302   4.661   2.333  0.1019  0.0452  0.5518
  164MOL0     H22088   1.138   4.618   2.299  2.0875 -1.2117 -0.8110
  164MOL0     H22089   1.227   4.493   2.485 -2.2846 -1.3443 -0.0369
  164MOL0     H22090   1.233   4.645   2.587 -1.4724 -1.2167  1.0360
  164MOL0     H22091   1.040   4.702   2.717  0.5724 -0.0809 -0.4542
  164MOL0     H22092   0.723   4.556   2.800 -2.8650 -0.1261 -1.5857
  164MOL0     H22093   0.784   4.723   2.798  2.2057 -0.8264  0.3681
  164MOL0     H22094   0.631   4.764   2.619  1.9632  0.4681  0.0708
  164MOL0     H22095   0.575   4.585   2.619  2.6043 -0.1615 -0.7013
  164MOL0     H22096   0.531   4.809   2.818 -0.6687  0.9394  0.2974
  164MOL0     H22097   0.504   4.628   2.846  0.7487  0.9542 -0.0934
  164MOL0     H22098   0.344   4.627   2.657  0.8381  0.8484 -1.7961
  164MOL0     H22099   0.367   4.798   2.636 -1.0266  0.0844 -0.4377
  164MOL0     H22100   0.153   4.772   2.576 -1.3691 -0.7561 -2.4571
  164MOL0     H22101  -0.105   4.837   2.555 -1.9002 -3.2163 -0.9203
  164MOL0     H22102  -0.387   5.001   2.381 -1.3355 -0.9862  1.0383
  164MOL0     H22103  -0.578   5.126   2.328  2.0893 -0.2372 -1.1170
  164MOL0     H22104  -0.816   5.201   2.289  2.6348 -0.5963  0.4532
  164MOL0     H22105  -0.837   5.028   2.337  0.0942  0.1629 -0.2750
  164MOL0     H22106  -1.012   5.250   2.448  2.4261  1.1523 -1.2943
  164MOL0     H22107  -1.045   5.153   2.302 -0.7750  0.2331  1.0420
  164MOL0     H22108  -1.110   4.964   2.445 -0.0741  1.0867 -0.5103
  164MOL0     H22109  -0.985   5.008   2.563  0.0928  0.4500  1.1048
  164MOL0     H22110  -1.245   5.165   2.549  0.0229  1.4999  2.0428
  164MOL0     H22111  -1.122   5.157   2.671  0.9838  0.9726 -1.1724
  164MOL0     H22112  -1.319   5.030   2.733  1.2527 -0.6167  1.8840
  164MOL0     H22113  -1.180   4.918   2.710  0.3051  2.1847  2.1429
  164MOL0     H22114  -1.370   4.947   2.483 -2.8558 -2.3754 -0.6563
  164MOL0     H22115  -1.270   4.811   2.518  1.5583  1.4563 -1.1716
  164MOL0     H22116  -1.416   4.750   2.712 -0.2167 -2.4147 -1.3482
  164MOL0     H22117  -1.508   4.751   2.559  1.1579 -1.4345 -0.4613
  164MOL0     H22118  -1.637   4.856   2.750  0.4831  0.9345 -0.0650
  164MOL0     H22119  -1.540   4.990   2.737  1.7953 -0.0593 -0.7761
  164MOL0     H22120  -0.723   5.083   2.727 -0.8311  0.4971 -1.5826
  164MOL0     H22121  -0.512   4.984   2.795  0.6640 -2.7000 -0.4001
  164MOL0     H22122  -0.153   4.781   2.972  0.0929 -1.5463  0.3877
  164MOL0     H22123   0.100   4.754   3.001  2.5296 -2.3810 -1.6837
  164MOL0     H22124   0.568   4.985   2.648 -1.1746  0.9393  1.5112
  164MOL0     H22125   0.354   5.066   2.734  0.7830  2.0163  1.9236
  164MOL0     H22126   0.060   5.580   2.790 -1.8004  0.3971  0.4678
  164MOL0     H22127  -0.179   5.628   2.831 -1.2874 -0.5817  0.1267
  164MOL0     H22128  -0.486   5.293   2.737  1.3482  1.5385 -2.4452
  164MOL0     H22129  -0.579   5.406   2.829  0.0272  0.1299 -0.1629
  164MOL0     H22130  -0.348   5.247   2.927  0.7192  1.5994 -1.7971
  164MOL0     H22131  -0.521   5.251   2.982 -1.3417 -0.6521 -2.3199
  164MOL0     H22132  -0.487   5.490   3.058 -0.2318  0.2452  2.3784
  164MOL0     H22133  -0.308   5.473   3.050 -0.6518  0.7530 -0.6329
  164MOL0     H22134  -0.359   5.254   3.196  3.3721  1.5406 -0.7372
  164MOL0     H22135  -0.363   5.417   3.278 -1.6230  0.2685  0.9650
  164MOL0     H22136  -0.759   5.285   3.293  0.1621  0.4168  3.1325
  164MOL0     H22137  -0.279   5.250   2.670  1.1895 -3.1261  1.8942
  164MOL0     H22138   0.004   5.096   2.668 -0.1857 -0.4544 -0.4581
  164MOL0     H22139  -0.131   5.117   2.564  1.5641  0.6084 -1.3699
  164MOL0     H22140   0.020   5.175   2.505  0.6868 -1.7263  0.2714
  165MOL0     O22141   3.703   1.933   0.977 -0.2032  0.1876 -0.3632
  165MOL0     C22142   3.733   1.932   1.096  0.0697  0.3881 -0.1471
  165MOL0     O22143   3.648   1.977   1.197 -0.6840  0.4878  0.4572
  165MOL0     C22144   3.532   2.026   1.170  0.6325  0.1680  0.0515
  165MOL0     C22145   3.509   2.153   1.217 -0.8614  0.6010 -0.3181
  165MOL0     C22146   3.385   2.213   1.200 -0.7404 -0.1664 -0.0191
  165MOL0     C22147   3.281   2.148   1.138 -0.2083  0.4527 -0.1285
  165MOL0     O22148   3.162   2.209   1.130 -0.4136 -0.5271  0.2259
  165MOL0     C22149   3.052   2.126   1.097 -0.0414 -0.1507 -1.3739
  165MOL0     C22150   2.923   2.212   1.105 -0.5933  1.1608  0.1854
  165MOL0     C22151   2.916   2.313   1.229 -0.1744  0.6400  0.8912
  165MOL0     C22152   2.994   2.441   1.214 -0.1704 -0.4998  0.6543
  165MOL0     C22153   3.005   2.525   1.346  0.2088  0.2798 -0.1563
  165MOL0     C22154   3.089   2.648   1.328 -0.3467  0.9274  0.4759
  165MOL0     C22155   3.236   2.624   1.332 -0.7109 -0.0772 -0.6430
  165MOL0     C22156   3.285   2.544   1.455 -0.1483  0.5955 -0.7813
  165MOL0     N22157   3.431   2.540   1.464  0.0931  0.0339 -0.1006
  165MOL0     C22158   3.507   2.511   1.574 -0.7765  0.0391 -0.0946
  165MOL0     C22159   3.639   2.510   1.534  0.1574 -0.2041 -0.5275
  165MOL0     C22160   3.761   2.489   1.625  0.9064 -0.2052  0.1080
  165MOL0     C22161   3.802   2.345   1.636 -0.5646 -0.7451  0.6459
  165MOL0     C22162   3.824   2.262   1.511 -0.2782 -0.1383  0.5500
  165MOL0     C22163   3.925   2.333   1.413  0.5857 -0.1324 -0.6797
  165MOL0     O22164   4.045   2.371   1.484 -0.5830  0.0718  0.5198
  165MOL0     C22165   4.156   2.367   1.404  0.4130  0.6111 -0.9146
  165MOL0     C22166   4.176   2.472   1.313  0.1784 -0.1969 -0.5882
  165MOL0     C22167   4.302   2.477   1.251  0.4877  0.4928 -0.0523
  165MOL0     C22168   4.404   2.385   1.274  0.1123 -0.5028 -0.6208
  165MOL0     C22169   4.540   2.408   1.217 -0.3976 -1.1284  0.7153
  165MOL0     O22170   4.621   2.289   1.207 -0.4591 -0.0754  0.0867
  165MOL0     C22171   4.727   2.278   1.125 -0.1827  0.0053  0.3330
  165MOL0     C22172   4.736   2.349   1.006 -0.5129 -0.3703  0.6078
  165MOL0     C22173   4.850   2.334   0.924  1.4014 -1.2199 -0.4188
  165MOL0     C22174   4.955   2.247   0.958  0.1015 -0.3259 -0.3671
  165MOL0     O22175   5.071   2.207   0.887 -0.3991  0.1429 -0.3682
  165MOL0     C22176   5.081   2.259   0.756 -0.2509  0.3808 -1.1351
  165MOL0     C22177   5.168   2.166   0.680 -0.1879  0.7260  0.8608
  165MOL0     C22178   5.290   2.120   0.760  0.4793  1.2214 -0.4320
  165MOL0     C22179   5.379   2.240   0.800 -0.0851  0.3282  0.6119
  165MOL0     C22180   5.488   2.186   0.897 -0.2063 -0.2404 -0.6507
  165MOL0     C22181   5.575   2.079   0.839  0.1518  0.1139  0.9797
  165MOL0     C22182   5.717   2.058   0.911  0.0875 -0.4596  0.4916
  165MOL0     C22183   5.847   2.086   0.837 -0.7284 -0.3767  0.3940
  165MOL0    Cl22184   5.865   1.975   0.703  0.0041  0.3252  0.1216
  165MOL0     C22185   4.942   2.185   1.088 -0.1750 -0.6522  0.3326
  165MOL0     C22186   4.831   2.195   1.169 -0.3862 -0.0943 -0.0376
  165MOL0     O22187   4.575   2.524   1.186 -0.0833  0.4052 -0.7475
  165MOL0     C22188   4.381   2.275   1.365  0.1489 -0.1740  0.0917
  165MOL0     C22189   4.260   2.271   1.428 -0.4066  1.3018  0.5111
  165MOL0     N22190   3.633   2.517   1.391 -0.0901  0.6548 -0.0165
  165MOL0     N22191   3.512   2.535   1.353 -0.4195 -1.0912 -0.1061
  165MOL0     C22192   3.306   2.018   1.093  0.3257  0.2033  0.4498
  165MOL0     C22193   3.433   1.956   1.103  0.2650 -0.2975 -1.5045
  165MOL0     C22194   3.869   1.898   1.150  0.6960 -0.8394  0.2207
  165MOL0     C22195   3.889   1.887   1.289  0.2002  0.2881 -0.3413
  165MOL0     C22196   4.008   1.843   1.340 -1.2194  0.0949 -0.2471
  165MOL0     C22197   4.124   1.821   1.263 -0.1554  0.0529  0.5729
  165MOL0     O22198   4.231   1.766   1.327  0.1870 -0.4045  0.3295
  165MOL0     C22199   4.346   1.857   1.321 -0.4244  0.9840 -0.5923
  165MOL0     C22200   4.452   1.815   1.424  0.9836  0.0498  0.8564
  165MOL0     C22201   4.576   1.912   1.431  0.4640 -0.4010 -0.6767
  165MOL0     C22202   4.666   1.905   1.307 -0.2837  0.8126 -0.6038
  165MOL0     C22203   4.693   1.770   1.262  0.2592  0.1033 -0.1948
  165MOL0     C22204   4.721   1.659   1.220 -0.7221 -0.2957 -0.5827
  165MOL0     C22205   4.111   1.849   1.124  0.2363  0.3805 -0.0751
  165MOL0     C22206   3.986   1.875   1.066 -0.2506  0.0244  0.3527
  165MOL0     C22207   3.976   1.881   0.913 -0.4609 -0.3046  0.0461
  165MOL0     H22208   3.589   2.203   1.271 -0.9834  0.9589 -0.4637
  165MOL0     H22209   3.371   2.319   1.217 -0.7512  0.1858 -1.9849
  165MOL0     H22210   3.050   2.084   0.995 -3.3610  1.0378 -1.9236
  165MOL0     H22211   3.040   2.053   1.177  0.5762  0.6965 -0.4821
  165MOL0     H22212   2.833   2.150   1.096 -0.5471  1.2552 -0.9997
  165MOL0     H22213   2.942   2.279   1.021  4.8958 -1.0102 -0.7106
  165MOL0     H22214   2.939   2.257   1.320  1.9058 -1.7731 -0.9674
  165MOL0     H22215   2.812   2.342   1.246 -0.9105 -1.3982  0.1125
  165MOL0     H22216   3.098   2.433   1.181 -1.2153  0.5963 -3.3659
  165MOL0     H22217   2.937   2.491   1.135 -1.4956 -0.7612  1.4120
  165MOL0     H22218   2.903   2.554   1.374  0.5743  3.1224 -1.3675
  165MOL0     H22219   3.045   2.464   1.426  0.1637  0.0907 -0.2778
  165MOL0     H22220   3.067   2.690   1.229 -1.0034  1.6248  0.9100
  165MOL0     H22221   3.065   2.719   1.408  0.4942 -0.4879  2.0504
  165MOL0     H22222   3.280   2.724   1.333 -0.0722 -0.2665 -2.9779
  165MOL0     H22223   3.266   2.575   1.239  1.7342  0.6411 -0.3054
  165MOL0     H22224   3.243   2.589   1.546 -1.7320  3.3415 -2.6983
  165MOL0     H22225   3.248   2.442   1.446 -2.9481  1.4932 -0.4326
  165MOL0     H22226   3.466   2.497   1.673 -0.8066 -1.0242 -0.2473
  165MOL0     H22227   3.853   2.540   1.596  1.3860 -0.4716  1.1223
  165MOL0     H22228   3.729   2.528   1.722 -1.9988 -0.7019 -0.5454
  165MOL0     H22229   3.894   2.344   1.696  0.0104  0.0847 -0.1915
  165MOL0     H22230   3.729   2.286   1.691 -2.6397  1.1649  0.0922
  165MOL0     H22231   3.736   2.224   1.459  0.1305  0.5966 -0.7311
  165MOL0     H22232   3.872   2.170   1.543  0.1547 -0.7078 -1.5757
  165MOL0     H22233   3.881   2.426   1.377 -1.6355 -0.4925  0.8473
  165MOL0     H22234   3.941   2.262   1.332  0.8727  0.3855 -1.0786
  165MOL0     H22235   4.097   2.544   1.297 -1.8038 -1.7809  1.4000
  165MOL0     H22236   4.332   2.566   1.195  0.3204  3.1672  3.6997
  165MOL0     H22237   4.659   2.413   0.964  3.6659  2.3177 -4.0258
  165MOL0     H22238   4.846   2.388   0.830  0.6688 -0.8727 -0.1943
  165MOL0     H22239   4.985   2.254   0.704 -2.4894  0.8804  2.5540
  165MOL0     H22240   5.120   2.361   0.751  0.0646  0.1991 -3.7096
  165MOL0     H22241   5.101   2.084   0.656 -1.1097  1.8244 -0.4595
  165MOL0     H22242   5.196   2.221   0.589  1.7361 -2.2020 -0.4793
  165MOL0     H22243   5.262   2.062   0.849 -1.3879 -0.8340 -2.2274
  165MOL0     H22244   5.347   2.053   0.695 -0.0199  1.1683 -0.8230
  165MOL0     H22245   5.321   2.317   0.851  0.6109  0.5673  1.0609
  165MOL0     H22246   5.421   2.278   0.706 -0.8455 -3.0563 -1.2585
  165MOL0     H22247   5.446   2.161   0.994  0.4250  0.2389 -0.2504
  165MOL0     H22248   5.555   2.270   0.916 -1.0495 -0.0747  2.0187
  165MOL0     H22249   5.515   1.987   0.842  0.1570 -0.0097 -1.2788
  165MOL0     H22250   5.595   2.103   0.734  1.3012  0.4414  1.2604
  165MOL0     H22251   5.727   1.956   0.947 -0.3227 -1.1213 -1.1594
  165MOL0     H22252   5.721   2.117   1.003  0.4409  0.4803 -0.1020
  165MOL0     H22253   5.846   2.187   0.794  2.9255 -1.6555 -3.4034
  165MOL0     H22254   5.925   2.064   0.910  0.1150  2.9043  0.6695
  165MOL0     H22255   5.034   2.135   1.117 -0.5218 -1.7085 -0.3182
  165MOL0     H22256   4.828   2.149   1.268  0.1648 -0.1993 -0.0688
  165MOL0     H22257   4.459   2.203   1.384 -0.0067 -0.4812 -0.4294
  165MOL0     H22258   4.244   2.191   1.499 -2.8666  0.7551 -0.5309
  165MOL0     H22259   3.225   1.970   1.038 -0.0199  2.2525 -0.9582
  165MOL0     H22260   3.444   1.855   1.063  1.1508 -1.0279  0.4667
  165MOL0     H22261   3.805   1.894   1.357 -0.1585 -3.1689 -0.2295
  165MOL0     H22262   4.021   1.805   1.441  2.4905 -1.5551 -1.1919
  165MOL0     H22263   4.320   1.963   1.320 -0.4597  0.9740 -0.7047
  165MOL0     H22264   4.405   1.833   1.233  2.2648  0.8508  1.1298
  165MOL0     H22265   4.488   1.713   1.406  3.0175  1.2380 -3.1274
  165MOL0     H22266   4.410   1.823   1.524  3.0921  1.9176  1.6825
  165MOL0     H22267   4.629   1.876   1.520 -1.7251  1.1353  1.4001
  165MOL0     H22268   4.537   2.014   1.442 -1.9914 -1.4627  2.1450
  165MOL0     H22269   4.623   1.958   1.221 -0.5180  1.3053 -0.1862
  165MOL0     H22270   4.767   1.931   1.340  0.8670 -2.5344 -1.1033
  165MOL0     H22271   4.745   1.569   1.167  3.7473  0.2267  0.1519
  165MOL0     H22272   4.203   1.839   1.067  0.7277 -0.2608  0.8112
  165MOL0     H22273   4.063   1.840   0.862 -1.3722 -0.5716 -1.3568
  165MOL0     H22274   3.900   1.812   0.873  0.8874 -3.2208  2.1158
  165MOL0     H22275   3.957   1.981   0.873 -0.2245  0.6893  2.2700
  166MOL0     O22276   2.007   7.813   2.685 -0.7742  0.2081  0.3102
  166MOL0     C22277   1.973   7.695   2.668  0.2250  0.5204  1.1804
  166MOL0     O22278   2.058   7.596   2.646  0.5477  0.9050 -0.2076
  166MOL0     C22279   2.192   7.606   2.622  0.1842  0.2366  0.2287
  166MOL0     C22280   2.243   7.674   2.513  0.1572 -0.2480 -0.6035
  166MOL0     C22281   2.387   7.673   2.500  0.0002 -0.4720 -0.2403
  166MOL0     C22282   2.471   7.607   2.588 -0.0379  0.6326  0.3171
  166MOL0     O22283   2.605   7.618   2.562 -0.1990 -0.9026  0.6027
  166MOL0     C22284   2.699   7.556   2.642 -0.6162  0.2271 -0.9167
  166MOL0     C22285   2.835   7.545   2.575  0.6062 -0.3410  0.5494
  166MOL0     C22286   2.918   7.436   2.641  0.9852  0.8743  0.2205
  166MOL0     C22287   3.059   7.410   2.581  0.6675 -0.6251 -0.1826
  166MOL0     C22288   3.103   7.290   2.669  0.1367  0.4358  1.4034
  166MOL0     C22289   3.249   7.272   2.648 -1.0659 -0.6858 -1.1672
  166MOL0     C22290   3.296   7.176   2.764 -0.4668 -0.2214  0.1269
  166MOL0     C22291   3.435   7.111   2.732 -1.1474 -0.4156 -0.8007
  166MOL0     N22292   3.454   7.018   2.840 -0.7889 -0.4127 -0.4555
  166MOL0     C22293   3.509   7.046   2.960  0.1779 -0.5199  0.0703
  166MOL0     C22294   3.531   6.919   3.021 -1.0498 -0.4842 -0.0829
  166MOL0     C22295   3.585   6.884   3.158  0.3276 -0.0373  0.2157
  166MOL0     C22296   3.574   7.013   3.250  0.1175  0.0262 -0.7948
  166MOL0     C22297   3.552   6.960   3.398 -0.2251  0.4381  0.3512
  166MOL0     C22298   3.526   7.075   3.497  0.6889  0.5643 -0.0582
  166MOL0     O22299   3.617   7.189   3.513  0.5380  0.1428  0.5487
  166MOL0     C22300   3.756   7.164   3.527 -0.6427 -0.9981 -0.2176
  166MOL0     C22301   3.818   7.047   3.567 -0.6064 -0.2855 -0.2338
  166MOL0     C22302   3.950   7.039   3.567  0.1993 -0.3922 -0.6344
  166MOL0     C22303   4.037   7.145   3.541 -0.5459  0.1418  0.2419
  166MOL0     C22304   4.183   7.139   3.535 -0.3448  0.4893 -0.1942
  166MOL0     O22305   4.256   7.246   3.490  1.0188 -0.3906 -0.4785
  166MOL0     C22306   4.389   7.230   3.493 -0.5720 -0.1632  0.0290
  166MOL0     C22307   4.448   7.290   3.604 -0.4220  1.0277 -0.6420
  166MOL0     C22308   4.595   7.275   3.613 -0.4883 -0.5814  0.4799
  166MOL0     C22309   4.661   7.210   3.507  0.3779  0.4000  0.4945
  166MOL0     O22310   4.800   7.211   3.509  0.4194 -0.6654  0.6978
  166MOL0     C22311   4.850   7.341   3.467  0.8159  0.6623  0.5924
  166MOL0     C22312   5.001   7.343   3.490 -0.0807 -0.1287 -0.9990
  166MOL0     C22313   5.074   7.244   3.402 -0.3096 -0.9915 -0.8909
  166MOL0     C22314   5.224   7.249   3.412  0.3295  0.2270 -0.5571
  166MOL0     C22315   5.290   7.382   3.364 -0.1802 -0.7068 -0.0922
  166MOL0     C22316   5.302   7.391   3.210 -0.8941  0.2336 -0.0956
  166MOL0     C22317   5.232   7.493   3.139 -0.7256 -0.9138  0.3871
  166MOL0     C22318   5.230   7.468   2.987 -0.5984  0.1169  0.0711
  166MOL0    Cl22319   5.392   7.453   2.922  0.0045  0.1588 -0.0494
  166MOL0     C22320   4.593   7.155   3.405  0.1502 -0.3707  0.1691
  166MOL0     C22321   4.452   7.150   3.404 -0.1950 -0.2923  0.4331
  166MOL0     O22322   4.230   7.035   3.580  0.4607 -0.2822 -0.0111
  166MOL0     C22323   3.975   7.261   3.498  0.2610 -0.5250  1.0522
  166MOL0     C22324   3.836   7.274   3.483  0.3800  0.5775 -0.0760
  166MOL0     N22325   3.483   6.823   2.927 -0.2122 -0.0818 -0.0499
  166MOL0     N22326   3.458   6.884   2.813  1.0189 -0.6187 -0.0483
  166MOL0     C22327   2.414   7.528   2.696 -0.0168 -0.3497 -0.1497
  166MOL0     C22328   2.274   7.528   2.706  0.2783  0.0619  0.2559
  166MOL0     C22329   1.832   7.664   2.655  0.0980  0.0578  0.6378
  166MOL0     C22330   1.796   7.533   2.630 -0.5139  0.6313 -0.1210
  166MOL0     C22331   1.664   7.492   2.648  0.3188  0.3393 -0.9678
  166MOL0     C22332   1.567   7.585   2.684  0.4639 -0.2985 -0.0175
  166MOL0     O22333   1.435   7.562   2.691  0.4857  0.7992 -0.3649
  166MOL0     C22334   1.387   7.433   2.754  0.1812 -0.2462  0.3356
  166MOL0     C22335   1.435   7.427   2.904 -0.4155  1.0169 -0.7443
  166MOL0     C22336   1.399   7.538   2.998 -0.2358 -0.5428  0.1412
  166MOL0     C22337   1.244   7.579   2.996 -0.5094 -0.0005  0.2110
  166MOL0     C22338   1.170   7.477   3.066  0.0893 -0.4632 -0.5789
  166MOL0     C22339   1.111   7.385   3.119  0.6019 -0.2306  0.6936
  166MOL0     C22340   1.600   7.718   2.694  0.4691 -0.9797  0.6903
  166MOL0     C22341   1.726   7.765   2.676 -0.1512  0.1829  0.3153
  166MOL0     C22342   1.743   7.919   2.672 -0.1332 -0.1581 -0.4423
  166MOL0     H22343   2.173   7.723   2.445 -1.8134 -2.9689 -0.7084
  166MOL0     H22344   2.433   7.739   2.427  2.4173  0.1588  1.7179
  166MOL0     H22345   2.725   7.615   2.730  0.0986 -3.1753  1.3761
  166MOL0     H22346   2.674   7.458   2.684 -0.5101  0.6450  0.1543
  166MOL0     H22347   2.891   7.637   2.594 -1.4206  1.1975 -0.5429
  166MOL0     H22348   2.822   7.518   2.470 -0.0642 -2.2790  1.0937
  166MOL0     H22349   2.859   7.344   2.639 -1.6991  2.4241  1.8263
  166MOL0     H22350   2.925   7.471   2.744 -0.1115  2.9576 -0.3569
  166MOL0     H22351   3.046   7.386   2.475  4.0094 -0.2527 -0.7717
  166MOL0     H22352   3.122   7.499   2.588 -2.7099  2.2448 -2.4939
  166MOL0     H22353   3.084   7.302   2.776  0.2500 -1.3223  1.6489
  166MOL0     H22354   3.048   7.199   2.645  3.5381 -1.4090 -0.1554
  166MOL0     H22355   3.282   7.216   2.560  2.0397  1.4525 -1.5096
  166MOL0     H22356   3.300   7.367   2.663  1.9683 -2.1751 -1.3459
  166MOL0     H22357   3.222   7.096   2.775 -0.9987  0.2795  0.2430
  166MOL0     H22358   3.293   7.232   2.858 -3.3232  1.2758 -0.7087
  166MOL0     H22359   3.446   7.062   2.635  0.3590 -0.3031 -0.7137
  166MOL0     H22360   3.505   7.195   2.734 -3.6026  1.7730 -0.7903
  166MOL0     H22361   3.531   7.147   2.991 -3.2469  0.6112 -0.7880
  166MOL0     H22362   3.525   6.804   3.203 -0.3194 -0.6479 -1.6122
  166MOL0     H22363   3.686   6.842   3.158  0.5714  0.3540  3.1106
  166MOL0     H22364   3.669   7.067   3.251  2.0547 -3.1122 -1.3352
  166MOL0     H22365   3.492   7.084   3.233  1.4046  1.9048  0.4188
  166MOL0     H22366   3.631   6.895   3.436 -2.0603 -0.8366  2.2152
  166MOL0     H22367   3.458   6.904   3.400 -0.8325  1.4381  1.2324
  166MOL0     H22368   3.518   7.035   3.598  1.8846 -0.9162 -0.5117
  166MOL0     H22369   3.428   7.118   3.476 -0.7104 -2.7097 -0.6866
  166MOL0     H22370   3.764   6.961   3.607 -0.5686  1.0983  3.0853
  166MOL0     H22371   3.989   6.939   3.583  2.2021  0.1792 -1.6180
  166MOL0     H22372   4.385   7.350   3.669 -1.3468  0.6986 -1.2208
  166MOL0     H22373   4.652   7.314   3.697 -0.6028 -0.2559  0.4080
  166MOL0     H22374   4.833   7.360   3.361  0.1813 -0.1633  0.5379
  166MOL0     H22375   4.813   7.426   3.524 -1.4808 -0.2255  0.5319
  166MOL0     H22376   5.030   7.446   3.470  0.6768 -0.3805 -1.2374
  166MOL0     H22377   5.023   7.320   3.594 -0.0645  0.1329 -0.9444
  166MOL0     H22378   5.036   7.142   3.419 -0.2940 -0.6082  1.8019
  166MOL0     H22379   5.059   7.269   3.297  1.6200 -0.1382 -1.0116
  166MOL0     H22380   5.264   7.161   3.361  0.5476  0.4931 -0.8481
  166MOL0     H22381   5.250   7.236   3.518 -0.7139 -0.4033 -0.3682
  166MOL0     H22382   5.386   7.398   3.414 -0.2528  0.3185 -0.2598
  166MOL0     H22383   5.229   7.468   3.393  2.1217  0.9925  0.0088
  166MOL0     H22384   5.407   7.406   3.183 -1.6566  4.8223 -1.3710
  166MOL0     H22385   5.276   7.292   3.169 -0.3887 -0.1545  0.5031
  166MOL0     H22386   5.255   7.591   3.183 -3.1053  0.9884 -2.2316
  166MOL0     H22387   5.124   7.488   3.150 -1.0370  2.4780 -0.1132
  166MOL0     H22388   5.170   7.377   2.979 -1.0445  0.3728  0.4453
  166MOL0     H22389   5.173   7.539   2.927 -2.4118 -0.0912  1.4203
  166MOL0     H22390   4.645   7.119   3.317  0.1756 -2.2320  0.8919
  166MOL0     H22391   4.405   7.104   3.317 -0.6813  2.7772 -1.0764
  166MOL0     H22392   4.030   7.352   3.477 -3.2298  1.4005 -0.7480
  166MOL0     H22393   3.794   7.371   3.458 -2.3110 -0.3321  0.5895
  166MOL0     H22394   2.475   7.466   2.761  1.1055 -1.3877 -2.0837
  166MOL0     H22395   2.226   7.468   2.783 -0.7975  0.2258 -0.2723
  166MOL0     H22396   1.871   7.462   2.597  1.1022  1.6817  1.1040
  166MOL0     H22397   1.629   7.394   2.615  1.5496  0.5136 -2.9531
  166MOL0     H22398   1.420   7.347   2.695  1.0116 -0.7801  1.5276
  166MOL0     H22399   1.278   7.429   2.760 -0.0624  2.6465 -0.3796
  166MOL0     H22400   1.544   7.437   2.902 -0.1533  0.7691  3.1624
  166MOL0     H22401   1.408   7.330   2.947 -1.0433  0.6040 -2.0277
  166MOL0     H22402   1.459   7.627   2.976  1.0192 -1.1258  1.0928
  166MOL0     H22403   1.430   7.521   3.101 -3.1345  1.9722  1.5889
  166MOL0     H22404   1.232   7.676   3.045  0.4907  0.9493 -1.3303
  166MOL0     H22405   1.204   7.592   2.895  0.2826 -0.1022 -0.1273
  166MOL0     H22406   1.072   7.315   3.190 -1.9639  2.2318  1.8858
  166MOL0     H22407   1.516   7.779   2.725 -0.4193 -2.8637  2.2400
  166MOL0     H22408   1.768   7.948   2.569  0.7891  1.6973  0.2684
  166MOL0     H22409   1.652   7.970   2.705 -0.3400 -0.9325  0.2031
  166MOL0     H22410   1.815   7.962   2.742  0.7922 -1.9533 -0.2434
  167MOL0     O22411   3.569   4.644   9.481 -0.1553  0.2059 -0.6468
  167MOL0     C22412   3.481   4.733   9.470  0.0387 -0.4939  0.3955
  167MOL0     O22413   3.484   4.861   9.531 -0.7619 -0.0273  0.2885
  167MOL0     C22414   3.591   4.900   9.608 -0.1192  0.0014  0.0132
  167MOL0     C22415   3.725   4.854   9.588 -0.3175 -0.2678 -0.5577
  167MOL0     C22416   3.826   4.903   9.668  0.4405  0.4142 -0.2794
  167MOL0     C22417   3.795   4.984   9.767  0.0502 -0.4566 -0.4154
  167MOL0     O22418   3.908   5.013   9.841  0.0449  0.3668 -0.4242
  167MOL0     C22419   3.881   4.980   9.976  0.2548  0.2904  0.0516
  167MOL0     C22420   4.008   4.970  10.067 -0.6535 -0.4868 -0.1205
  167MOL0     C22421   3.989   4.982  10.221 -0.0164  0.1320 -0.0310
  167MOL0     C22422   3.933   5.123  10.264  0.1628  0.1400  0.7345
  167MOL0     C22423   3.894   5.134  10.414  0.2544  0.5225  0.1800
  167MOL0     C22424   3.746   5.101  10.440 -1.1571  0.0994  0.8481
  167MOL0     C22425   3.719   5.054  10.579 -0.7316  0.5560 -0.7192
  167MOL0     C22426   3.752   4.907  10.607  0.1212 -0.5296  0.5222
  167MOL0     N22427   3.891   4.875  10.627  1.1504  0.1392 -0.7422
  167MOL0     C22428   3.962   4.815  10.532  0.0826 -0.1038 -0.0161
  167MOL0     C22429   4.081   4.796  10.592  0.3056 -0.0760  0.0690
  167MOL0     C22430   4.183   4.703  10.529 -0.1199 -0.0273 -0.2236
  167MOL0     C22431   4.154   4.555  10.538 -0.7781  1.2533 -0.5202
  167MOL0     C22432   4.256   4.464  10.467 -0.4389 -0.7527  0.1335
  167MOL0     C22433   4.225   4.312  10.479 -0.8103  0.6608  0.1796
  167MOL0     O22434   4.240   4.259  10.611  0.5565 -0.1529 -0.2444
  167MOL0     C22435   4.358   4.262  10.672 -0.5561  0.0036  0.7180
  167MOL0     C22436   4.356   4.216  10.807  0.1267  0.3094  0.0497
  167MOL0     C22437   4.480   4.207  10.873 -0.2092 -0.5007 -0.7041
  167MOL0     C22438   4.598   4.247  10.817 -0.3461 -0.6380 -0.2279
  167MOL0     C22439   4.722   4.252  10.896 -0.5426 -0.9184 -0.2727
  167MOL0     O22440   4.845   4.251  10.830 -0.2982  0.3657  0.4190
  167MOL0     C22441   4.949   4.175  10.887  0.0236 -1.0155  0.7263
  167MOL0     C22442   5.064   4.183  10.809  0.9101  0.9274 -1.0112
  167MOL0     C22443   5.183   4.127  10.847 -0.2365 -0.5795  0.6043
  167MOL0     C22444   5.184   4.073  10.974 -0.3753  0.7058 -0.1109
  167MOL0     O22445   5.289   4.009  11.026 -0.5735  0.0446  0.1723
  167MOL0     C22446   5.419   4.040  10.975  0.2870  0.6098 -0.4938
  167MOL0     C22447   5.466   4.177  11.021 -0.0756 -0.1658 -0.5236
  167MOL0     C22448   5.620   4.186  10.998  0.0192  0.6712  0.1726
  167MOL0     C22449   5.645   4.212  10.849 -0.4267  0.1485  0.9389
  167MOL0     C22450   5.793   4.188  10.808 -0.7517 -1.3710 -0.2449
  167MOL0     C22451   5.872   4.308  10.847 -1.0438  0.3213  0.5302
  167MOL0     C22452   6.010   4.309  10.768 -0.1901  0.2298 -0.3464
  167MOL0     C22453   6.098   4.423  10.815  0.5461 -0.0450  0.9701
  167MOL0    Cl22454   6.133   4.422  10.986 -0.2977  0.1920  0.2795
  167MOL0     C22455   5.071   4.048  11.060  0.3095 -1.0827  0.4397
  167MOL0     C22456   4.948   4.101  11.008  0.1095  0.4098  0.0184
  167MOL0     O22457   4.717   4.242  11.022 -0.4140  0.4554 -0.0646
  167MOL0     C22458   4.605   4.284  10.682 -0.4510 -0.4468 -0.6482
  167MOL0     C22459   4.483   4.284  10.611  0.3049  0.2204 -0.1329
  167MOL0     N22460   4.085   4.855  10.714 -0.6111  0.1014  0.4289
  167MOL0     N22461   3.969   4.905  10.738 -0.7272 -0.0457 -0.0608
  167MOL0     C22462   3.665   5.035   9.797  0.3304 -0.1808  0.4250
  167MOL0     C22463   3.566   4.986   9.717 -0.0210  0.2272 -0.5279
  167MOL0     C22464   3.360   4.707   9.391 -0.3655  0.5633  0.5316
  167MOL0     C22465   3.251   4.802   9.377 -0.5527  0.2454  0.0565
  167MOL0     C22466   3.156   4.779   9.270 -0.4919  0.3063 -0.4837
  167MOL0     C22467   3.159   4.662   9.190 -0.2437  0.5009  0.3951
  167MOL0     O22468   3.051   4.663   9.102 -0.4561 -0.1847  0.4841
  167MOL0     C22469   3.042   4.562   9.002 -0.4755 -0.0748  0.6978
  167MOL0     C22470   3.114   4.624   8.882  0.1882 -0.9552  0.9562
  167MOL0     C22471   3.102   4.544   8.749  0.1940  0.3571 -1.0230
  167MOL0     C22472   2.981   4.579   8.667  0.1884  0.5758 -0.9477
  167MOL0     C22473   2.963   4.465   8.580  0.5486  0.5546  0.1515
  167MOL0     C22474   2.947   4.366   8.504 -0.2995  0.2074  0.0267
  167MOL0     C22475   3.254   4.561   9.218  0.1141 -0.1868  1.0530
  167MOL0     C22476   3.352   4.581   9.313  0.7740  0.0384 -1.1705
  167MOL0     C22477   3.446   4.468   9.318 -0.1658  0.3752  0.2633
  167MOL0     H22478   3.750   4.796   9.500 -3.0956  1.0677 -2.4096
  167MOL0     H22479   3.930   4.876   9.649 -0.2115 -2.5459 -0.1136
  167MOL0     H22480   3.819   5.063  10.010  2.3917  2.0811 -0.2362
  167MOL0     H22481   3.824   4.889   9.996 -3.1181  1.6512 -2.3711
  167MOL0     H22482   4.053   5.062  10.028 -0.5884 -2.1328 -4.4161
  167MOL0     H22483   4.075   4.888  10.042 -0.8661 -0.3430 -1.2243
  167MOL0     H22484   4.085   4.973  10.272 -0.5857  0.1649  1.0681
  167MOL0     H22485   3.917   4.906  10.251 -0.4731  1.0399  1.2473
  167MOL0     H22486   4.011   5.197  10.243 -0.7966  0.6757 -1.2209
  167MOL0     H22487   3.852   5.147  10.194  1.5789 -2.0275 -1.8690
  167MOL0     H22488   3.955   5.057  10.462 -1.7125 -0.7078  0.8193
  167MOL0     H22489   3.905   5.237  10.450 -1.0300  0.8757 -0.3707
  167MOL0     H22490   3.683   5.188  10.419 -2.0659  0.0189  2.9852
  167MOL0     H22491   3.719   5.026  10.365 -0.2272  1.4594 -0.9246
  167MOL0     H22492   3.611   5.045  10.584 -0.7657  0.1684 -1.7763
  167MOL0     H22493   3.761   5.123  10.652  0.3272 -2.6309  1.9425
  167MOL0     H22494   3.693   4.885  10.697  0.3066 -1.6921  0.3811
  167MOL0     H22495   3.719   4.849  10.520  0.9756  2.1089 -1.6654
  167MOL0     H22496   3.936   4.765  10.439  2.7719 -0.7126 -0.5315
  167MOL0     H22497   4.184   4.721  10.421 -2.6875 -2.0301 -0.7016
  167MOL0     H22498   4.280   4.723  10.575 -1.2755 -1.1869  3.0219
  167MOL0     H22499   4.153   4.532  10.645 -0.9886  0.7295 -0.6297
  167MOL0     H22500   4.049   4.541  10.512 -1.4578  3.4149  0.8641
  167MOL0     H22501   4.353   4.506  10.493 -0.4590  0.1872 -1.2040
  167MOL0     H22502   4.248   4.484  10.359 -4.2080 -0.9796  0.2299
  167MOL0     H22503   4.278   4.249  10.407 -1.4627  0.6923 -0.3373
  167MOL0     H22504   4.119   4.302  10.457 -0.5292  0.9365 -1.3874
  167MOL0     H22505   4.264   4.187  10.856  0.4352 -4.3239 -1.5546
  167MOL0     H22506   4.475   4.171  10.976  2.1581 -1.5283 -0.8801
  167MOL0     H22507   5.052   4.236  10.715  1.1013  0.6332 -1.2024
  167MOL0     H22508   5.264   4.140  10.777 -0.9812 -1.5762 -0.4663
  167MOL0     H22509   5.487   3.964  11.013 -0.3120  0.0504 -0.5354
  167MOL0     H22510   5.427   4.024  10.867  1.9027 -1.3696 -0.1478
  167MOL0     H22511   5.414   4.258  10.967 -0.5760 -1.6314 -2.3702
  167MOL0     H22512   5.443   4.191  11.127  1.6584  0.3041 -0.1865
  167MOL0     H22513   5.667   4.265  11.058  1.7146  0.6759 -1.0978
  167MOL0     H22514   5.666   4.090  11.024  0.4120  0.9876  0.6611
  167MOL0     H22515   5.618   4.315  10.823  0.3681  0.1540  0.0838
  167MOL0     H22516   5.588   4.146  10.784  0.6571 -0.2860  0.4030
  167MOL0     H22517   5.793   4.185  10.699  3.3219  2.6189 -0.6756
  167MOL0     H22518   5.839   4.098  10.849  0.4045 -0.5890  0.2328
  167MOL0     H22519   5.820   4.402  10.827  0.6452  0.9349 -1.3645
  167MOL0     H22520   5.885   4.308  10.955 -0.7470 -0.2010  0.4981
  167MOL0     H22521   5.988   4.320  10.661  1.5644  1.2532 -0.6429
  167MOL0     H22522   6.058   4.214  10.792 -0.1454  0.3494  0.0320
  167MOL0     H22523   6.192   4.426  10.757  1.1826  0.6377  1.9984
  167MOL0     H22524   6.044   4.513  10.784 -1.4702 -1.4816  0.0908
  167MOL0     H22525   5.084   3.976  11.141 -2.6279 -1.6059  0.5472
  167MOL0     H22526   4.867   4.070  11.073 -1.7765  0.2916 -2.2840
  167MOL0     H22527   4.693   4.311  10.624 -1.5790  1.9229 -1.3860
  167MOL0     H22528   4.479   4.303  10.504 -3.2460 -0.3546 -0.2156
  167MOL0     H22529   3.632   5.109   9.870 -3.5122  0.4872 -1.7447
  167MOL0     H22530   3.460   4.997   9.738 -0.0405  1.0000 -1.0050
  167MOL0     H22531   3.233   4.887   9.441 -0.7507  0.7748 -0.6855
  167MOL0     H22532   3.076   4.849   9.251 -1.5977 -1.6847 -4.0928
  167MOL0     H22533   2.941   4.534   8.971  0.0827 -2.9774  1.1402
  167MOL0     H22534   3.090   4.466   9.022 -1.0727 -0.1021  2.1678
  167MOL0     H22535   3.218   4.643   8.909 -0.4783 -0.5864  3.5123
  167MOL0     H22536   3.062   4.718   8.862 -0.3710 -2.1152 -4.9194
  167MOL0     H22537   3.095   4.441   8.785  0.9031  0.7073  0.1676
  167MOL0     H22538   3.199   4.532   8.702  0.0501 -4.8719 -0.5885
  167MOL0     H22539   2.896   4.596   8.734  0.7707 -2.3764  0.7460
  167MOL0     H22540   2.998   4.671   8.611  2.6816 -1.0892 -3.1824
  167MOL0     H22541   2.923   4.283   8.440 -1.5639  0.5401  0.0310
  167MOL0     H22542   3.251   4.461   9.175  0.0773  0.4612 -0.4950
  167MOL0     H22543   3.543   4.494   9.275  0.1352 -0.4280  0.4391
  167MOL0     H22544   3.461   4.433   9.421  2.2604 -0.0720 -0.1828
  167MOL0     H22545   3.423   4.380   9.257  0.6968 -0.9220  1.7361
  168MOL0     O22546   8.434   6.512   9.927 -0.6195  0.0181  0.1825
  168MOL0     C22547   8.419   6.637   9.910 -0.1398 -0.2707  0.3226
  168MOL0     O22548   8.503   6.718   9.834  0.3780  0.2349  0.8768
  168MOL0     C22549   8.617   6.649   9.790 -0.8692  1.4286 -0.3835
  168MOL0     C22550   8.623   6.568   9.668  1.0168 -0.7539  0.3760
  168MOL0     C22551   8.739   6.509   9.627  0.7033  0.4499  0.2680
  168MOL0     C22552   8.863   6.531   9.699  0.6412  0.1668  0.2572
  168MOL0     O22553   8.974   6.458   9.654 -0.3092  0.1900  0.3032
  168MOL0     C22554   9.093   6.459   9.725  0.5053 -0.0844 -0.1928
  168MOL0     C22555   9.185   6.544   9.640 -0.6237  0.6378 -0.3001
  168MOL0     C22556   9.327   6.528   9.679 -0.7756 -0.5736  0.0328
  168MOL0     C22557   9.400   6.654   9.617 -0.4589  0.4696  0.2666
  168MOL0     C22558   9.545   6.618   9.599  0.2514 -0.1291 -0.0904
  168MOL0     C22559   9.612   6.628   9.739 -1.1019  0.4975  0.0106
  168MOL0     C22560   9.762   6.604   9.744 -0.2027  0.8570 -0.3774
  168MOL0     C22561   9.858   6.684   9.660  0.3153  0.3327 -0.0452
  168MOL0     N22562   9.990   6.675   9.711  0.5132  0.0324 -0.3296
  168MOL0     C22563  10.065   6.554   9.703  0.6063 -1.0355  0.2811
  168MOL0     C22564  10.177   6.588   9.774 -0.4593 -0.0369 -0.6555
  168MOL0     C22565  10.281   6.491   9.816  0.1855 -0.6128 -0.5359
  168MOL0     C22566  10.400   6.562   9.892 -0.2034  0.5932 -0.3163
  168MOL0     C22567  10.513   6.459   9.907  0.1857  0.7646 -1.0680
  168MOL0     C22568  10.633   6.533   9.962 -0.5691 -1.0377  0.1386
  168MOL0     O22569  10.682   6.620   9.858 -0.8221 -0.2285 -0.4120
  168MOL0     C22570  10.805   6.668   9.883 -1.0805 -0.1796  0.4131
  168MOL0     C22571  10.885   6.652   9.999  0.3650 -0.6350 -0.3574
  168MOL0     C22572  11.013   6.715   9.999  0.3115 -0.5242 -0.0137
  168MOL0     C22573  11.070   6.772   9.886 -0.2438 -0.8542  0.8330
  168MOL0     C22574  11.203   6.831   9.893  0.3909 -0.9720 -1.3580
  168MOL0     O22575  11.222   6.945   9.816  0.0619 -0.7803  0.3068
  168MOL0     C22576  11.346   7.004   9.835  0.2183 -0.4984 -0.3730
  168MOL0     C22577  11.441   6.991   9.735 -0.7529 -0.0896  0.4141
  168MOL0     C22578  11.553   7.077   9.725 -0.9182  0.4633 -0.8501
  168MOL0     C22579  11.598   7.144   9.844 -0.3286  0.0732 -0.2554
  168MOL0     O22580  11.720   7.207   9.850 -0.2801 -0.0521  0.0314
  168MOL0     C22581  11.778   7.228   9.978  0.4736  0.5535  0.1844
  168MOL0     C22582  11.926   7.245   9.964  0.7931 -0.6333  0.0123
  168MOL0     C22583  11.992   7.115   9.922  0.0431  0.7067  0.1491
  168MOL0     C22584  12.122   7.138   9.849 -0.5306 -1.0247 -0.1718
  168MOL0     C22585  12.145   7.015   9.763 -0.1167 -0.0672  0.3504
  168MOL0     C22586  12.192   6.903   9.855 -0.7609  0.3716  0.3064
  168MOL0     C22587  12.238   6.772   9.797  0.5473  0.1049 -0.0206
  168MOL0     C22588  12.337   6.789   9.671 -0.2148  0.3193  0.4531
  168MOL0    Cl22589  12.487   6.881   9.717  0.1753  0.2445  0.0852
  168MOL0     C22590  11.516   7.135   9.960  0.0351 -0.7196  0.1216
  168MOL0     C22591  11.386   7.073   9.949 -0.0541  0.5985  0.5042
  168MOL0     O22592  11.282   6.781   9.975 -0.2473  0.5554  0.5844
  168MOL0     C22593  10.989   6.808   9.784 -0.2061  0.9708  0.6483
  168MOL0     C22594  10.869   6.744   9.777  1.0004  0.3200 -0.5475
  168MOL0     N22595  10.165   6.715   9.824  0.0323 -0.4036 -1.0917
  168MOL0     N22596  10.052   6.759   9.790 -0.2036  0.1740 -0.8115
  168MOL0     C22597   8.864   6.611   9.810 -0.4658 -0.7441  0.2093
  168MOL0     C22598   8.742   6.654   9.861  0.4088 -0.1685  0.4973
  168MOL0     C22599   8.309   6.718   9.975  1.4190 -0.5705 -0.1786
  168MOL0     C22600   8.294   6.851   9.937  0.0200 -0.2184 -0.3378
  168MOL0     C22601   8.192   6.925   9.989  0.3988 -0.5818  0.4537
  168MOL0     C22602   8.104   6.878  10.091 -0.7844  0.0928  0.6677
  168MOL0     O22603   8.015   6.966  10.143 -0.4658 -0.2887 -0.0798
  168MOL0     C22604   7.879   6.938  10.119 -0.3556 -0.3514 -0.1219
  168MOL0     C22605   7.835   7.013   9.995  0.5291 -0.3252 -0.8048
  168MOL0     C22606   7.693   6.964   9.963  0.0063 -0.0319  0.1984
  168MOL0     C22607   7.588   7.045  10.039 -0.1425 -0.8735 -0.3879
  168MOL0     C22608   7.465   7.034   9.971  0.5232 -0.6632 -0.6422
  168MOL0     C22609   7.369   7.044   9.899 -0.1854 -0.1063 -0.3180
  168MOL0     C22610   8.111   6.739  10.119 -0.4026  0.7923  0.2081
  168MOL0     C22611   8.214   6.661  10.068 -0.0305 -0.0936  0.7813
  168MOL0     C22612   8.221   6.510  10.106  0.0701 -0.8872  0.2321
  168MOL0     H22613   8.529   6.575   9.614  0.0445 -0.6558  2.0243
  168MOL0     H22614   8.738   6.453   9.534  1.3535 -1.1437  1.1795
  168MOL0     H22615   9.076   6.492   9.828 -0.8179 -0.1000 -0.3898
  168MOL0     H22616   9.137   6.359   9.731 -1.6096 -1.0903 -0.4249
  168MOL0     H22617   9.156   6.649   9.652 -3.5427 -0.1221  0.0511
  168MOL0     H22618   9.172   6.512   9.536  0.4442 -0.5360 -0.0974
  168MOL0     H22619   9.359   6.432   9.637  3.6636  0.2653  0.9919
  168MOL0     H22620   9.355   6.531   9.785  2.0724  0.0519 -0.6333
  168MOL0     H22621   9.369   6.675   9.514  0.0253 -0.1831 -0.0166
  168MOL0     H22622   9.374   6.744   9.675 -3.5889  1.6598 -2.6548
  168MOL0     H22623   9.544   6.515   9.562  0.2465  0.1307 -0.8157
  168MOL0     H22624   9.600   6.689   9.536 -0.0365  2.1042  2.0177
  168MOL0     H22625   9.596   6.730   9.775 -0.5757 -0.3480  2.9456
  168MOL0     H22626   9.569   6.555   9.809  1.9013 -2.2765 -0.8005
  168MOL0     H22627   9.778   6.497   9.730  1.2419  1.2541 -2.0726
  168MOL0     H22628   9.788   6.628   9.847  1.5886 -0.6055 -0.4535
  168MOL0     H22629   9.863   6.641   9.559 -1.1400  2.6226 -1.1862
  168MOL0     H22630   9.833   6.791   9.651 -3.1561 -0.4576 -1.3043
  168MOL0     H22631  10.041   6.454   9.669 -1.8196 -0.3930 -0.1035
  168MOL0     H22632  10.229   6.426   9.887 -2.8254  2.6826  0.5959
  168MOL0     H22633  10.307   6.428   9.730  0.3693 -0.4886 -0.5724
  168MOL0     H22634  10.426   6.640   9.820  2.4585 -0.5678 -0.7209
  168MOL0     H22635  10.367   6.612   9.984  2.0193  2.7101 -0.5551
  168MOL0     H22636  10.529   6.417   9.807  2.2116 -2.8767  0.5906
  168MOL0     H22637  10.477   6.377   9.970 -4.0718  1.9353 -1.7277
  168MOL0     H22638  10.699   6.460  10.010 -0.3121 -0.8856  0.0151
  168MOL0     H22639  10.595   6.604  10.036 -1.3923 -0.7276 -0.5644
  168MOL0     H22640  10.852   6.604  10.091 -1.4538  1.5603  0.2374
  168MOL0     H22641  11.068   6.725  10.092 -0.4955  4.7973  0.2473
  168MOL0     H22642  11.438   6.922   9.651 -0.3999 -0.2676  0.5497
  168MOL0     H22643  11.618   7.076   9.638 -0.1531  2.4899 -0.3581
  168MOL0     H22644  11.722   7.307  10.028  0.2115 -0.3617  1.3890
  168MOL0     H22645  11.756   7.142  10.042 -2.3806  1.6846  0.8553
  168MOL0     H22646  11.955   7.319   9.889 -1.2307  0.8644  0.6358
  168MOL0     H22647  11.976   7.295  10.048  0.5998 -3.0835  1.6835
  168MOL0     H22648  12.007   7.048  10.007 -1.6344  0.7616  0.5283
  168MOL0     H22649  11.922   7.052   9.867 -0.9694  0.9474  1.1178
  168MOL0     H22650  12.209   7.161   9.911 -0.1252 -2.6742 -0.0712
  168MOL0     H22651  12.103   7.219   9.778 -0.8745  0.7970  1.8844
  168MOL0     H22652  12.224   7.033   9.689 -0.7139 -4.0005 -1.4782
  168MOL0     H22653  12.060   6.981   9.703 -0.5747  0.1318  0.8777
  168MOL0     H22654  12.267   6.944   9.924  0.4243 -2.0087  0.5176
  168MOL0     H22655  12.108   6.871   9.917 -1.7944 -1.8043 -2.0311
  168MOL0     H22656  12.146   6.729   9.757  0.2550  2.7429 -2.5722
  168MOL0     H22657  12.284   6.709   9.874  2.3354  2.9945  1.4539
  168MOL0     H22658  12.350   6.686   9.638 -1.6849  0.4019 -0.4444
  168MOL0     H22659  12.286   6.851   9.596 -0.5408  2.5272  2.3855
  168MOL0     H22660  11.541   7.177  10.057  0.6640  1.8087 -1.0532
  168MOL0     H22661  11.302   7.090  10.016  0.5144  1.0894  1.0978
  168MOL0     H22662  11.029   6.864   9.700 -0.2684  3.6026  2.2670
  168MOL0     H22663  10.803   6.776   9.697 -0.4328  0.6604  0.7088
  168MOL0     H22664   8.951   6.635   9.870 -1.6889  1.8923  1.0859
  168MOL0     H22665   8.735   6.694   9.962 -2.1320 -2.6434  1.4572
  168MOL0     H22666   8.362   6.902   9.869 -0.6673  1.8491  0.4473
  168MOL0     H22667   8.159   7.023   9.955 -2.9280 -2.0261 -0.9459
  168MOL0     H22668   7.822   6.980  10.202  1.1338  0.1712  0.6701
  168MOL0     H22669   7.855   6.833  10.101  1.6917 -0.6946 -1.1467
  168MOL0     H22670   7.909   7.004   9.915  0.3973 -2.0397 -0.7691
  168MOL0     H22671   7.837   7.120  10.020 -1.4006 -0.3406 -0.4158
  168MOL0     H22672   7.675   6.858   9.984 -1.5515  0.6592  2.7891
  168MOL0     H22673   7.672   6.981   9.857 -0.4021 -0.8368  0.1357
  168MOL0     H22674   7.579   7.021  10.145  2.1975 -0.0564  0.0664
  168MOL0     H22675   7.600   7.153  10.029 -1.9767 -0.8042 -2.8300
  168MOL0     H22676   7.281   7.063   9.842 -2.0854  0.0266  2.4543
  168MOL0     H22677   8.038   6.688  10.182  0.3909  1.8573  2.0892
  168MOL0     H22678   8.316   6.491  10.157  0.9958 -0.9358 -1.4369
  168MOL0     H22679   8.146   6.476  10.177  0.3519 -1.4217  0.2806
  168MOL0     H22680   8.207   6.444  10.020 -1.4901 -0.7397  0.3486
  169MOL0     O22681   8.739   4.055   3.917  0.4107  0.9194  0.0655
  169MOL0     C22682   8.660   4.135   3.871  0.5937  0.2524 -0.6629
  169MOL0     O22683   8.684   4.250   3.814 -0.0060 -0.4337 -0.4498
  169MOL0     C22684   8.807   4.252   3.760 -0.6622  0.6350  0.4894
  169MOL0     C22685   8.810   4.281   3.624 -0.3840  0.2334 -0.3615
  169MOL0     C22686   8.934   4.294   3.562  0.2281  0.2669  0.8264
  169MOL0     C22687   9.050   4.289   3.638 -0.0192 -0.0595  0.8895
  169MOL0     O22688   9.162   4.315   3.562  0.0465  0.0159 -0.5541
  169MOL0     C22689   9.290   4.308   3.636 -0.3156  0.2305  0.2269
  169MOL0     C22690   9.389   4.364   3.529  0.2072  0.0859  0.5298
  169MOL0     C22691   9.527   4.336   3.566 -0.0841  0.5557 -0.2499
  169MOL0     C22692   9.617   4.404   3.459 -0.0135  0.3112  0.0127
  169MOL0     C22693   9.760   4.367   3.490 -0.5324 -0.4509 -0.3041
  169MOL0     C22694   9.855   4.468   3.423  0.3470 -0.2132  0.2423
  169MOL0     C22695   9.976   4.390   3.376  0.3687  1.0868 -0.5716
  169MOL0     C22696  10.041   4.327   3.503 -0.3627  0.6268  0.3147
  169MOL0     N22697  10.175   4.284   3.469  0.2661 -0.7214  0.0590
  169MOL0     C22698  10.209   4.160   3.423  0.4835 -0.3296  0.2965
  169MOL0     C22699  10.338   4.167   3.387  0.0359  0.5767 -0.6614
  169MOL0     C22700  10.420   4.054   3.334  0.9751  0.3974 -0.4308
  169MOL0     C22701  10.556   4.057   3.392 -0.6061 -0.4186  0.0224
  169MOL0     C22702  10.635   3.941   3.337  0.4996 -0.2173 -0.0045
  169MOL0     C22703  10.776   3.952   3.398  0.6017  0.9909  0.3153
  169MOL0     O22704  10.859   4.045   3.335 -0.2192 -0.4215  0.2751
  169MOL0     C22705  10.999   4.034   3.365  0.4560 -1.1048  0.3067
  169MOL0     C22706  11.041   4.054   3.498 -0.0053  0.9400 -0.2127
  169MOL0     C22707  11.178   4.038   3.528 -0.2707 -0.3599  0.2217
  169MOL0     C22708  11.271   4.017   3.427  0.4062  0.7736  0.5339
  169MOL0     C22709  11.414   4.007   3.450 -0.6989  0.2547 -0.1066
  169MOL0     O22710  11.494   3.970   3.352  0.1668 -0.9056  1.0537
  169MOL0     C22711  11.626   3.947   3.349 -0.2822 -0.3547  0.5111
  169MOL0     C22712  11.716   3.995   3.440 -0.0191 -0.1601  0.7935
  169MOL0     C22713  11.855   3.965   3.431 -0.1012  0.3698 -0.7598
  169MOL0     C22714  11.889   3.883   3.326  0.9581  0.2195 -0.7822
  169MOL0     O22715  12.024   3.861   3.311  0.4280  0.1659  0.1859
  169MOL0     C22716  12.088   3.822   3.186  0.4720  0.0587 -0.2067
  169MOL0     C22717  12.226   3.877   3.174 -0.1151  0.0272 -0.3176
  169MOL0     C22718  12.301   3.805   3.295 -0.4076  0.6162  0.5890
  169MOL0     C22719  12.449   3.798   3.267 -0.6882 -0.3820  0.0135
  169MOL0     C22720  12.529   3.743   3.384 -1.0073 -1.3762 -1.3411
  169MOL0     C22721  12.684   3.768   3.374 -0.0594  0.0916  0.6232
  169MOL0     C22722  12.759   3.668   3.285  0.9033 -0.4255 -0.8212
  169MOL0     C22723  12.907   3.706   3.268  0.5392 -0.2980 -0.4981
  169MOL0    Cl22724  12.931   3.844   3.158 -0.3351  0.2483 -0.2406
  169MOL0     C22725  11.802   3.840   3.233 -0.1781  0.0212  0.1740
  169MOL0     C22726  11.668   3.864   3.245  1.3524 -0.8825 -0.6091
  169MOL0     O22727  11.459   4.038   3.562 -0.1371  0.2037 -0.8283
  169MOL0     C22728  11.227   4.001   3.291 -1.1816  0.5281 -0.6468
  169MOL0     C22729  11.092   4.006   3.263  0.3476 -0.0936  0.4619
  169MOL0     N22730  10.380   4.301   3.402 -0.7152 -0.9408  0.6790
  169MOL0     N22731  10.280   4.370   3.453  0.1547 -1.0084 -1.1434
  169MOL0     C22732   9.048   4.255   3.772 -0.4576  0.2804  0.3938
  169MOL0     C22733   8.926   4.239   3.830  0.1321  0.3116 -0.1174
  169MOL0     C22734   8.518   4.127   3.928  0.4174 -0.3208  0.2410
  169MOL0     C22735   8.447   4.247   3.950  0.2779 -0.3784  0.6269
  169MOL0     C22736   8.313   4.245   3.986 -0.5906  0.6188  0.7873
  169MOL0     C22737   8.245   4.124   3.991 -0.4027 -0.6276  0.2057
  169MOL0     O22738   8.112   4.136   4.018  0.3541 -0.3294  0.2409
  169MOL0     C22739   8.019   4.023   4.016 -0.3456  0.6888 -0.1834
  169MOL0     C22740   7.884   4.042   3.952  0.6693  0.1997 -0.2022
  169MOL0     C22741   7.822   4.173   3.986 -0.2054 -0.1791 -0.4093
  169MOL0     C22742   7.689   4.195   3.939  0.6338 -0.2341  1.3092
  169MOL0     C22743   7.591   4.100   4.009 -0.4564  0.0718 -0.0585
  169MOL0     C22744   7.514   4.035   4.075  0.4305  0.1145 -0.1629
  169MOL0     C22745   8.311   4.005   3.971 -0.5166 -0.2075 -1.0815
  169MOL0     C22746   8.448   4.004   3.941 -0.6963 -0.7564  0.1270
  169MOL0     C22747   8.519   3.876   3.925 -0.2460 -0.5097  0.1194
  169MOL0     H22748   8.716   4.301   3.574 -1.9234 -2.1023  1.4279
  169MOL0     H22749   8.951   4.312   3.457  0.6245  2.0247  1.1661
  169MOL0     H22750   9.283   4.384   3.714  2.2418  3.1455 -2.0916
  169MOL0     H22751   9.325   4.208   3.661  1.3787  0.4351 -1.1135
  169MOL0     H22752   9.376   4.472   3.514 -0.0883 -0.0108  0.0311
  169MOL0     H22753   9.357   4.316   3.436 -0.7493  0.3594  0.7047
  169MOL0     H22754   9.546   4.229   3.567 -1.8387 -0.0232 -4.5659
  169MOL0     H22755   9.546   4.385   3.661 -0.8635  2.5077 -1.0309
  169MOL0     H22756   9.592   4.376   3.356  0.0293  0.6606 -0.0921
  169MOL0     H22757   9.597   4.511   3.469  1.4701  0.6250 -0.2351
  169MOL0     H22758   9.768   4.367   3.599  2.1926  0.2239 -0.4154
  169MOL0     H22759   9.769   4.270   3.440 -0.1337  0.4125 -1.9756
  169MOL0     H22760   9.813   4.518   3.335 -0.7237 -0.8784  0.3569
  169MOL0     H22761   9.879   4.546   3.495  0.9068 -0.5046  0.3802
  169MOL0     H22762  10.041   4.456   3.319 -0.1166  1.3062 -0.8764
  169MOL0     H22763   9.942   4.315   3.304 -3.0432  2.8638 -1.0227
  169MOL0     H22764  10.052   4.416   3.567 -4.0902  1.3110  0.2580
  169MOL0     H22765   9.987   4.245   3.550  1.2340 -0.8001 -0.2452
  169MOL0     H22766  10.141   4.076   3.414 -1.5888  1.4722 -2.0795
  169MOL0     H22767  10.362   3.965   3.361  0.2875  1.0306  0.2379
  169MOL0     H22768  10.431   4.056   3.226  3.0141 -0.1124 -0.2755
  169MOL0     H22769  10.610   4.148   3.364 -0.8371 -0.5944 -1.0392
  169MOL0     H22770  10.549   4.061   3.501  1.4365  2.3991  0.1834
  169MOL0     H22771  10.645   3.941   3.228 -0.0486 -0.0118 -0.0561
  169MOL0     H22772  10.591   3.848   3.372 -0.9154  0.8686  1.2263
  169MOL0     H22773  10.815   3.852   3.376  4.4858  2.4445 -0.2035
  169MOL0     H22774  10.774   3.967   3.506 -0.4985  3.0109  0.0577
  169MOL0     H22775  10.970   4.070   3.579  0.0980 -1.4523  0.4110
  169MOL0     H22776  11.206   4.028   3.632  1.7902 -3.0897 -0.4837
  169MOL0     H22777  11.698   4.059   3.526  1.2784 -1.8644  2.4156
  169MOL0     H22778  11.925   4.011   3.500 -1.8181  2.0217 -0.0419
  169MOL0     H22779  12.100   3.714   3.193  4.0239  0.4645  2.2008
  169MOL0     H22780  12.038   3.849   3.092  2.6465  2.8971 -0.6649
  169MOL0     H22781  12.267   3.853   3.075  2.3345 -0.2073  0.6794
  169MOL0     H22782  12.224   3.986   3.185 -0.1213 -0.0376  0.3598
  169MOL0     H22783  12.291   3.868   3.384 -0.8012  0.7260  0.4706
  169MOL0     H22784  12.262   3.706   3.317  0.1229  0.4907  0.9754
  169MOL0     H22785  12.494   3.893   3.238  1.0016 -1.6304 -1.7861
  169MOL0     H22786  12.471   3.730   3.184  0.3612 -1.0089  0.7845
  169MOL0     H22787  12.517   3.635   3.396  2.0653 -1.6456  0.1715
  169MOL0     H22788  12.491   3.785   3.477  1.1264 -0.2788 -0.9003
  169MOL0     H22789  12.686   3.869   3.332  0.2098 -0.3907 -0.5657
  169MOL0     H22790  12.732   3.771   3.473 -1.4234  2.9482  1.3012
  169MOL0     H22791  12.703   3.655   3.192 -3.3275  0.7459  1.3124
  169MOL0     H22792  12.753   3.569   3.332 -1.2180  0.7873  1.7143
  169MOL0     H22793  12.960   3.728   3.361  0.6778  0.5168 -0.7643
  169MOL0     H22794  12.972   3.627   3.229 -0.1788 -1.1431 -0.0152
  169MOL0     H22795  11.838   3.786   3.146 -0.1117 -0.5434  0.5412
  169MOL0     H22796  11.584   3.839   3.181  1.7359 -2.2822 -0.5795
  169MOL0     H22797  11.297   3.988   3.209  0.5859  2.6636  0.4288
  169MOL0     H22798  11.051   3.980   3.166 -2.2612  0.2298  1.4037
  169MOL0     H22799   9.137   4.225   3.826 -0.1779  2.2259  1.1060
  169MOL0     H22800   8.934   4.213   3.935 -3.3516 -0.6662  0.0340
  169MOL0     H22801   8.491   4.345   3.938  0.0243 -0.4792 -1.6736
  169MOL0     H22802   8.265   4.342   3.993  1.7054  1.8190  0.6653
  169MOL0     H22803   8.000   4.014   4.124  0.5145  1.7817  0.0766
  169MOL0     H22804   8.063   3.927   3.986  1.6770  0.6406  2.4823
  169MOL0     H22805   7.817   3.957   3.971 -2.9830  2.3708 -2.1918
  169MOL0     H22806   7.904   4.035   3.845  0.0921  1.9204 -0.4563
  169MOL0     H22807   7.883   4.253   3.943 -0.3724  0.2918  0.2129
  169MOL0     H22808   7.824   4.181   4.095  3.3556 -2.6407 -0.1446
  169MOL0     H22809   7.664   4.299   3.958  1.5930  0.1172  0.7034
  169MOL0     H22810   7.683   4.188   3.830 -1.1928  2.5588  1.1322
  169MOL0     H22811   7.449   3.972   4.132  0.9222  0.9239  1.3525
  169MOL0     H22812   8.274   3.904   3.983 -1.0962  0.0225 -0.9055
  169MOL0     H22813   8.599   3.872   3.999 -0.1577 -1.9212 -0.0278
  169MOL0     H22814   8.458   3.787   3.940 -0.1288 -1.2080 -2.8793
  169MOL0     H22815   8.552   3.877   3.821  1.7081 -0.0892  0.6957
  170MOL0     O22816   7.929   5.328   5.942 -0.2510 -0.0412  0.0688
  170MOL0     C22817   7.913   5.378   6.057  0.0931  1.1519  0.2846
  170MOL0     O22818   8.011   5.424   6.137 -0.8740 -0.3796 -0.5517
  170MOL0     C22819   8.137   5.382   6.118 -0.6254 -0.1075  1.0165
  170MOL0     C22820   8.176   5.248   6.108 -0.6454  0.4929 -0.5527
  170MOL0     C22821   8.316   5.209   6.114  1.3483  0.3900 -0.5917
  170MOL0     C22822   8.420   5.305   6.116  0.3555  0.7299  0.3776
  170MOL0     O22823   8.548   5.258   6.131 -0.1788 -0.3926  0.2409
  170MOL0     C22824   8.648   5.345   6.193  0.1597 -0.1587  0.6150
  170MOL0     C22825   8.748   5.251   6.250  0.7860  0.0103 -1.5434
  170MOL0     C22826   8.852   5.330   6.333 -0.4739 -0.8933 -0.8738
  170MOL0     C22827   8.958   5.238   6.394  0.9534 -0.9181  0.7399
  170MOL0     C22828   9.044   5.318   6.501 -1.0741 -0.7664  0.7567
  170MOL0     C22829   9.132   5.442   6.446  0.0978  1.1342  0.4379
  170MOL0     C22830   9.249   5.393   6.363  0.4951 -0.1384 -0.4840
  170MOL0     C22831   9.314   5.511   6.290  0.9730 -0.4835 -0.6403
  170MOL0     N22832   9.436   5.482   6.211  0.8154  0.0393 -0.1390
  170MOL0     C22833   9.546   5.410   6.257  0.6008 -0.8252  0.4229
  170MOL0     C22834   9.615   5.395   6.142  0.1924 -0.8368 -0.3294
  170MOL0     C22835   9.742   5.339   6.125  0.3756 -0.5764 -0.5724
  170MOL0     C22836   9.834   5.434   6.040 -0.4558  0.4615 -0.3062
  170MOL0     C22837   9.981   5.412   6.048  0.1342  0.1958  0.4828
  170MOL0     C22838  10.036   5.475   5.920  0.7014  0.2591 -0.1568
  170MOL0     O22839  10.171   5.523   5.951  0.0773 -0.1461  0.0246
  170MOL0     C22840  10.281   5.446   5.936 -0.0710  0.1377 -0.0657
  170MOL0     C22841  10.393   5.490   6.008  0.7908  0.3554  0.4571
  170MOL0     C22842  10.516   5.429   5.999  0.0691 -0.2881  0.5241
  170MOL0     C22843  10.537   5.317   5.913  1.1392 -0.2825 -0.8645
  170MOL0     C22844  10.671   5.258   5.906 -1.2680  0.5202  0.6640
  170MOL0     O22845  10.687   5.146   5.828  0.5604  0.1374 -0.4389
  170MOL0     C22846  10.808   5.076   5.813  0.7805 -0.0230  0.5115
  170MOL0     C22847  10.837   5.023   5.686  0.5544 -0.5956 -0.6222
  170MOL0     C22848  10.938   4.934   5.669 -0.2171  0.1390  0.4101
  170MOL0     C22849  11.023   4.895   5.776 -0.1172  0.0665 -0.3964
  170MOL0     O22850  11.122   4.803   5.738  0.5022  0.0207 -0.3847
  170MOL0     C22851  11.193   4.732   5.845 -0.5735  0.1263  0.0306
  170MOL0     C22852  11.311   4.823   5.902 -0.3380  0.5131  0.1668
  170MOL0     C22853  11.383   4.757   6.019  0.3689  0.6062  0.2108
  170MOL0     C22854  11.513   4.827   6.060 -0.0317  0.2104  0.0102
  170MOL0     C22855  11.563   4.762   6.189 -0.0121  0.4176  0.2046
  170MOL0     C22856  11.612   4.619   6.173  0.1081  0.5788 -0.1786
  170MOL0     C22857  11.684   4.584   6.304 -0.2841 -0.2605  0.4638
  170MOL0     C22858  11.783   4.465   6.283 -0.2522 -0.4166  0.1192
  170MOL0    Cl22859  11.833   4.398   6.434  0.3365  0.0292 -0.1975
  170MOL0     C22860  11.000   4.945   5.905  0.5314 -0.0053  0.0232
  170MOL0     C22861  10.892   5.035   5.923  0.5250 -0.6449 -0.6002
  170MOL0     O22862  10.763   5.315   5.963  0.1041 -0.5244  0.1837
  170MOL0     C22863  10.422   5.268   5.857  0.3026  0.3847  0.1897
  170MOL0     C22864  10.290   5.331   5.869 -0.2634  0.7542  0.6052
  170MOL0     N22865   9.544   5.448   6.034 -0.2976 -0.1979 -0.5666
  170MOL0     N22866   9.438   5.501   6.083  0.2919 -0.2618  1.1455
  170MOL0     C22867   8.380   5.438   6.097 -0.2718  0.7359 -0.9741
  170MOL0     C22868   8.248   5.471   6.121  0.9175 -0.5589 -0.0099
  170MOL0     C22869   7.774   5.383   6.106  0.4017 -0.1679  0.5985
  170MOL0     C22870   7.710   5.256   6.111  1.1284 -0.4022  0.0405
  170MOL0     C22871   7.583   5.239   6.165 -0.0113  0.2462  0.1524
  170MOL0     C22872   7.511   5.357   6.201  0.7488  0.1130  1.6907
  170MOL0     O22873   7.390   5.345   6.261 -0.3538 -0.0987  0.0450
  170MOL0     C22874   7.285   5.271   6.195 -0.4978 -0.5061 -0.5351
  170MOL0     C22875   7.165   5.344   6.234  0.0060 -1.0273  0.0724
  170MOL0     C22876   7.129   5.344   6.386  0.3209 -0.8520 -0.4935
  170MOL0     C22877   6.996   5.416   6.416  0.4217  0.2315 -0.5399
  170MOL0     C22878   6.883   5.343   6.360 -0.1524  0.3687 -0.6971
  170MOL0     C22879   6.783   5.286   6.318 -0.0899  0.8104  0.4622
  170MOL0     C22880   7.580   5.481   6.205  0.1734  0.3962 -0.5985
  170MOL0     C22881   7.705   5.491   6.159 -0.2140 -0.0436  0.0158
  170MOL0     C22882   7.775   5.627   6.159  1.0476 -0.4923  0.3847
  170MOL0     H22883   8.098   5.173   6.114  0.1869 -0.4954 -1.6068
  170MOL0     H22884   8.339   5.103   6.123 -1.4073 -0.1188  2.9850
  170MOL0     H22885   8.692   5.409   6.116 -0.6357 -0.0668  0.2318
  170MOL0     H22886   8.612   5.407   6.276  2.6969 -0.0115  1.6887
  170MOL0     H22887   8.797   5.207   6.163  0.9505 -0.2984 -1.3009
  170MOL0     H22888   8.691   5.177   6.308  0.2508  2.0428  0.7005
  170MOL0     H22889   8.808   5.389   6.414  2.4293 -0.7135  0.6725
  170MOL0     H22890   8.898   5.393   6.257 -0.5153 -1.0171 -1.0030
  170MOL0     H22891   8.897   5.156   6.431 -1.6939  1.3345  1.7358
  170MOL0     H22892   9.025   5.194   6.320  0.8240  0.9099 -0.5340
  170MOL0     H22893   8.972   5.362   6.570 -0.2428  0.0170  1.1426
  170MOL0     H22894   9.108   5.249   6.557  1.0270 -0.9573 -1.6635
  170MOL0     H22895   9.072   5.514   6.390  2.7094  1.8818 -1.6161
  170MOL0     H22896   9.171   5.505   6.527 -0.5859  2.4392 -0.2176
  170MOL0     H22897   9.225   5.321   6.284 -1.0489 -0.4356  0.2212
  170MOL0     H22898   9.322   5.347   6.430 -1.3319 -2.5735 -0.0277
  170MOL0     H22899   9.242   5.554   6.219  0.4945 -0.1957  0.0104
  170MOL0     H22900   9.334   5.595   6.357  1.6411 -1.2053  0.0887
  170MOL0     H22901   9.554   5.379   6.361 -0.9431  1.8809  1.4548
  170MOL0     H22902   9.794   5.315   6.218  4.6518 -0.2493 -2.6156
  170MOL0     H22903   9.731   5.248   6.065 -1.1085 -0.4160 -0.5736
  170MOL0     H22904   9.805   5.424   5.935 -0.0261 -0.6913 -0.3330
  170MOL0     H22905   9.811   5.535   6.075 -1.7260 -0.6349  2.3726
  170MOL0     H22906   9.998   5.305   6.059  1.4275  0.4968  1.8637
  170MOL0     H22907  10.010   5.458   6.143  0.4762 -2.1922  1.6043
  170MOL0     H22908   9.974   5.558   5.886 -0.9283 -0.9321 -0.2185
  170MOL0     H22909  10.038   5.403   5.838  1.6993  1.3459 -1.1177
  170MOL0     H22910  10.378   5.576   6.072 -0.3378 -1.4185  2.7114
  170MOL0     H22911  10.594   5.469   6.062 -0.0023 -1.3539  1.3134
  170MOL0     H22912  10.770   5.036   5.601  1.3811  0.7661 -1.0993
  170MOL0     H22913  10.938   4.888   5.571  0.1873 -0.4886  0.6976
  170MOL0     H22914  11.120   4.711   5.924 -1.9025  0.6391 -1.0146
  170MOL0     H22915  11.228   4.635   5.807 -0.8658  1.1474 -3.1278
  170MOL0     H22916  11.369   4.841   5.811 -0.2238  0.8802  0.3083
  170MOL0     H22917  11.279   4.923   5.933  1.5003  0.4915  2.4042
  170MOL0     H22918  11.317   4.749   6.106  0.8045  1.1374  0.5944
  170MOL0     H22919  11.411   4.656   5.989  0.3488  0.4834  0.5921
  170MOL0     H22920  11.503   4.933   6.085 -2.7649 -0.1012  0.5405
  170MOL0     H22921  11.580   4.820   5.974  0.2354  0.9588  0.1539
  170MOL0     H22922  11.490   4.760   6.270  0.1520  1.0971  0.3814
  170MOL0     H22923  11.649   4.823   6.220 -1.8679  2.9817  0.6095
  170MOL0     H22924  11.529   4.554   6.144  0.9822  0.6936 -3.2273
  170MOL0     H22925  11.695   4.605   6.104  1.7698 -2.2470  2.1339
  170MOL0     H22926  11.605   4.552   6.372 -0.4208 -2.0621 -0.4815
  170MOL0     H22927  11.736   4.672   6.342 -2.0833  1.1528 -0.1731
  170MOL0     H22928  11.727   4.388   6.229  0.5460 -1.0685  0.2023
  170MOL0     H22929  11.860   4.505   6.216 -0.8818  0.8099  0.1117
  170MOL0     H22930  11.065   4.907   5.984 -0.9893 -0.6338  1.0074
  170MOL0     H22931  10.853   5.062   6.021  1.5958 -0.3019 -0.2630
  170MOL0     H22932  10.426   5.175   5.802  2.7898 -1.4226  3.1248
  170MOL0     H22933  10.203   5.290   5.817  0.9959 -2.5185  0.8395
  170MOL0     H22934   8.453   5.517   6.083  0.6812  0.0791  0.1256
  170MOL0     H22935   8.213   5.574   6.123  1.2939 -0.3164 -2.3912
  170MOL0     H22936   7.774   5.172   6.084 -0.4266 -2.5020  2.4112
  170MOL0     H22937   7.537   5.141   6.163  2.0691 -0.7788 -0.2940
  170MOL0     H22938   7.288   5.170   6.236  0.8439  0.2342  1.3298
  170MOL0     H22939   7.292   5.251   6.088  2.3406 -1.4720 -0.2448
  170MOL0     H22940   7.084   5.293   6.181 -2.0608 -2.5752  4.2738
  170MOL0     H22941   7.177   5.447   6.198 -2.1117 -0.1349  1.6998
  170MOL0     H22942   7.208   5.397   6.440  1.4579 -1.4802 -1.5124
  170MOL0     H22943   7.121   5.238   6.412  0.2407 -1.1934 -1.8366
  170MOL0     H22944   6.984   5.433   6.523  1.2883  1.2109 -0.5883
  170MOL0     H22945   6.993   5.519   6.381 -1.0028  1.4097  2.6983
  170MOL0     H22946   6.695   5.246   6.272 -3.3348  5.0724  2.2258
  170MOL0     H22947   7.540   5.572   6.248 -0.6808 -1.1928  2.2274
  170MOL0     H22948   7.701   5.706   6.143  2.4975  0.8623  0.0614
  170MOL0     H22949   7.830   5.652   6.251  0.3789 -0.7708  0.8720
  170MOL0     H22950   7.831   5.630   6.065  3.0428  0.9837  1.5386
  171MOL0     O22951   2.394   5.174   0.233 -1.3710  0.2593 -0.2324
  171MOL0     C22952   2.338   5.090   0.158  0.1139 -0.8047  0.8293
  171MOL0     O22953   2.393   4.966   0.111  0.0937  0.5434  0.1291
  171MOL0     C22954   2.531   4.945   0.121 -0.1674  0.2237 -1.2537
  171MOL0     C22955   2.578   4.812   0.157  0.1806 -0.0017  0.2019
  171MOL0     C22956   2.718   4.791   0.164  0.2698 -0.4194  0.4426
  171MOL0     C22957   2.816   4.897   0.149  0.7010  0.4424  0.5869
  171MOL0     O22958   2.948   4.862   0.147 -0.0557 -0.1459 -0.1549
  171MOL0     C22959   3.041   4.938   0.073 -0.5879 -0.0212  0.8093
  171MOL0     C22960   3.179   4.887   0.113  0.2253  0.6088  0.0900
  171MOL0     C22961   3.300   4.965   0.057  1.1275 -0.8026  0.2104
  171MOL0     C22962   3.407   4.864   0.022 -0.2339 -0.5552  0.4755
  171MOL0     C22963   3.520   4.936  -0.052 -0.2929  0.1204  0.1429
  171MOL0     C22964   3.634   4.839  -0.092  0.0176  0.2172 -0.1685
  171MOL0     C22965   3.742   4.910  -0.173 -0.1080  0.9279 -0.3926
  171MOL0     C22966   3.740   4.896  -0.325 -0.2873  0.3537 -0.0024
  171MOL0     N22967   3.622   4.943  -0.389 -0.5487  0.4409  0.6837
  171MOL0     C22968   3.501   4.874  -0.410  1.0951  0.3581 -0.0055
  171MOL0     C22969   3.422   4.961  -0.471  0.1635 -1.0104  0.5187
  171MOL0     C22970   3.283   4.938  -0.527 -0.2336 -0.3635  0.4052
  171MOL0     C22971   3.202   5.068  -0.483 -0.5371  0.6782  0.3060
  171MOL0     C22972   3.191   5.083  -0.330 -0.5872 -0.3938 -0.0801
  171MOL0     C22973   3.068   5.160  -0.275  0.6889  0.0710  0.3008
  171MOL0     O22974   2.950   5.088  -0.311  0.3658  0.2558  0.4734
  171MOL0     C22975   2.826   5.130  -0.273  0.9583 -0.7483  0.1839
  171MOL0     C22976   2.723   5.056  -0.314  0.3227 -0.0371  0.1580
  171MOL0     C22977   2.581   5.071  -0.291 -0.7683  0.0422 -0.0402
  171MOL0     C22978   2.552   5.186  -0.216  0.3334  0.4301 -0.0251
  171MOL0     C22979   2.411   5.233  -0.193  0.5533  0.9337  1.3255
  171MOL0     O22980   2.327   5.211  -0.301  0.1015  0.9169 -0.2088
  171MOL0     C22981   2.204   5.278  -0.292 -1.0310  0.4274  0.4034
  171MOL0     C22982   2.103   5.222  -0.221  0.2240  0.9176  0.1476
  171MOL0     C22983   1.981   5.286  -0.204 -1.1898 -0.4324 -0.3181
  171MOL0     C22984   1.960   5.414  -0.268  0.0151 -0.5807 -0.4575
  171MOL0     O22985   1.832   5.460  -0.254  0.3726 -1.0960 -0.2961
  171MOL0     C22986   1.782   5.517  -0.371  0.6649 -0.5301 -0.2958
  171MOL0     C22987   1.636   5.540  -0.358 -0.2008  0.4084  0.6031
  171MOL0     C22988   1.573   5.619  -0.475  0.4034  0.6433  0.3614
  171MOL0     C22989   1.433   5.658  -0.433  0.7858 -0.9966 -1.5938
  171MOL0     C22990   1.377   5.762  -0.526  0.0063  1.2359 -0.1896
  171MOL0     C22991   1.237   5.824  -0.468 -0.1560 -1.5991  1.0372
  171MOL0     C22992   1.131   5.726  -0.453  0.2204  0.0384 -1.0798
  171MOL0     C22993   1.002   5.779  -0.392  0.6959 -0.6464  0.5762
  171MOL0    Cl22994   0.955   5.942  -0.454 -0.1632  0.0610  0.1610
  171MOL0     C22995   2.062   5.468  -0.348  0.2624  0.3711  0.0013
  171MOL0     C22996   2.184   5.403  -0.358 -0.0685  0.0719 -0.2211
  171MOL0     O22997   2.384   5.296  -0.094 -0.4887 -0.2814  0.3962
  171MOL0     C22998   2.659   5.263  -0.157 -0.0769 -0.2040 -0.2393
  171MOL0     C22999   2.793   5.238  -0.191 -0.0363 -0.4573 -0.0882
  171MOL0     N23000   3.489   5.079  -0.498  0.6015  0.0261 -0.4528
  171MOL0     N23001   3.602   5.063  -0.445 -0.1623  0.0470 -0.5517
  171MOL0     C23002   2.766   5.028   0.114 -0.4626  0.2039  0.0891
  171MOL0     C23003   2.624   5.046   0.101  0.0132 -0.3444 -0.7734
  171MOL0     C23004   2.195   5.106   0.141 -0.0834 -0.3597 -0.1237
  171MOL0     C23005   2.139   5.233   0.141 -0.6934  0.3493  0.9366
  171MOL0     C23006   2.002   5.261   0.140  0.5007  0.2493 -0.5845
  171MOL0     C23007   1.910   5.153   0.114 -0.2383  0.0546  0.4744
  171MOL0     O23008   1.779   5.171   0.093  0.2921  0.3603  0.1344
  171MOL0     C23009   1.714   5.299   0.108 -0.1227 -0.0250 -0.1576
  171MOL0     C23010   1.571   5.298   0.040  0.5561  0.0326  0.9595
  171MOL0     C23011   1.525   5.450   0.040 -0.4905 -0.1687 -1.1050
  171MOL0     C23012   1.391   5.466  -0.025 -0.7050  0.0270 -0.1860
  171MOL0     C23013   1.341   5.607  -0.019 -0.7027  0.1424 -0.1189
  171MOL0     C23014   1.300   5.715  -0.040 -0.0839  0.0886  0.7372
  171MOL0     C23015   1.965   5.023   0.127 -0.2163  0.3177 -0.3561
  171MOL0     C23016   2.096   4.995   0.132 -0.8511 -0.8280  0.1258
  171MOL0     C23017   2.131   4.852   0.144 -0.3664  0.7927  0.1921
  171MOL0     H23018   2.504   4.735   0.173  0.9284 -1.3262 -2.1170
  171MOL0     H23019   2.751   4.688   0.181  2.2446  0.1366  0.2457
  171MOL0     H23020   3.028   4.937  -0.035 -0.4602  0.4200  0.7875
  171MOL0     H23021   3.037   5.045   0.097  1.6739  0.2034  0.4087
  171MOL0     H23022   3.186   4.788   0.067 -1.4847  0.4732  0.0764
  171MOL0     H23023   3.182   4.884   0.222 -0.5954 -3.2261  0.1334
  171MOL0     H23024   3.330   5.044   0.127  1.3065  1.8529 -2.6885
  171MOL0     H23025   3.278   5.022  -0.033  0.8444 -1.1265  0.0692
  171MOL0     H23026   3.445   4.815   0.112 -0.3828  0.5964  1.1878
  171MOL0     H23027   3.365   4.784  -0.039  2.8918 -2.0317  0.0685
  171MOL0     H23028   3.486   4.983  -0.144  1.0829  1.6572  0.3575
  171MOL0     H23029   3.559   5.013   0.015 -1.3350  0.3728  0.4652
  171MOL0     H23030   3.686   4.807  -0.002  0.5795  1.4712 -0.0208
  171MOL0     H23031   3.599   4.746  -0.137  1.9153 -1.2470  1.1904
  171MOL0     H23032   3.843   4.883  -0.139 -0.5460  0.3907  0.5314
  171MOL0     H23033   3.738   5.016  -0.147  4.1112  1.0022  0.7851
  171MOL0     H23034   3.817   4.968  -0.353 -1.4773  2.1569  1.0996
  171MOL0     H23035   3.766   4.799  -0.368  0.4073 -0.1977  1.5973
  171MOL0     H23036   3.470   4.774  -0.381  1.2944  0.1208 -0.5984
  171MOL0     H23037   3.290   4.921  -0.635  0.9865  0.0542  0.4001
  171MOL0     H23038   3.250   4.854  -0.466 -0.0188  0.4748  1.7119
  171MOL0     H23039   3.242   5.155  -0.537 -0.2601  0.7233  0.5842
  171MOL0     H23040   3.100   5.072  -0.522 -0.8854 -0.7451  1.0096
  171MOL0     H23041   3.280   5.138  -0.299  0.0814  0.2670 -2.8366
  171MOL0     H23042   3.205   4.996  -0.265  4.8290  1.6817  2.0661
  171MOL0     H23043   3.065   5.266  -0.300  0.1568 -0.0007  0.0255
  171MOL0     H23044   3.077   5.155  -0.166 -3.4343  1.1269  0.8740
  171MOL0     H23045   2.764   4.968  -0.362 -0.9069  0.0261 -1.0819
  171MOL0     H23046   2.513   4.997  -0.332  1.1884 -2.1004  0.3319
  171MOL0     H23047   2.116   5.120  -0.187 -0.1660  0.5742 -0.7077
  171MOL0     H23048   1.903   5.240  -0.144  0.6093 -0.4126  2.2405
  171MOL0     H23049   1.840   5.608  -0.393  0.5981 -0.3307  0.3426
  171MOL0     H23050   1.796   5.439  -0.447  1.3469 -1.2187  0.5199
  171MOL0     H23051   1.572   5.452  -0.356 -1.3658  0.9555 -3.6043
  171MOL0     H23052   1.626   5.591  -0.261  0.3208 -0.5410  1.1681
  171MOL0     H23053   1.642   5.701  -0.500  2.4370 -1.4343 -1.2495
  171MOL0     H23054   1.553   5.568  -0.569 -3.7652  2.2921  0.1569
  171MOL0     H23055   1.423   5.699  -0.332  0.0531 -1.9850 -1.2508
  171MOL0     H23056   1.376   5.564  -0.431  2.9988 -2.4234  0.6725
  171MOL0     H23057   1.359   5.698  -0.612 -2.5893 -1.5961  2.2306
  171MOL0     H23058   1.453   5.836  -0.555  0.5878  1.1163  0.9560
  171MOL0     H23059   1.254   5.877  -0.374  2.2170  0.9755 -0.6765
  171MOL0     H23060   1.204   5.900  -0.538 -1.2404 -0.8855  2.2852
  171MOL0     H23061   1.158   5.646  -0.383 -1.3257 -1.6013 -2.2746
  171MOL0     H23062   1.099   5.684  -0.548 -1.3478 -0.2896 -0.4288
  171MOL0     H23063   0.924   5.703  -0.398  2.6624 -2.6790 -2.2831
  171MOL0     H23064   1.028   5.798  -0.288 -1.5644  0.1694  1.0523
  171MOL0     H23065   2.047   5.557  -0.408  0.9790  1.0392  0.8003
  171MOL0     H23066   2.265   5.456  -0.408  1.1887 -1.8082 -0.2871
  171MOL0     H23067   2.639   5.348  -0.093  2.7220 -0.7438  1.5525
  171MOL0     H23068   2.874   5.289  -0.140  0.3453 -1.6004  0.4748
  171MOL0     H23069   2.833   5.112   0.099  1.5561 -0.9819  1.7637
  171MOL0     H23070   2.593   5.148   0.077 -2.0820 -0.1783  2.0756
  171MOL0     H23071   2.202   5.320   0.153 -1.0036  0.6513  0.4266
  171MOL0     H23072   1.972   5.365   0.138 -0.1000  0.0991  0.2787
  171MOL0     H23073   1.774   5.375   0.058 -1.3299  0.0486 -1.5419
  171MOL0     H23074   1.708   5.324   0.215 -1.0420 -1.6880  0.2140
  171MOL0     H23075   1.495   5.238   0.089 -0.6429 -2.5707 -3.5065
  171MOL0     H23076   1.569   5.260  -0.063  0.0994 -0.1281  1.0294
  171MOL0     H23077   1.596   5.506  -0.021 -0.4869  2.2342  0.9603
  171MOL0     H23078   1.533   5.487   0.142  3.6050  0.4312 -1.4502
  171MOL0     H23079   1.411   5.446  -0.131 -0.8572  0.5163 -0.3104
  171MOL0     H23080   1.313   5.401   0.015 -0.5974 -0.4968 -0.8089
  171MOL0     H23081   1.274   5.810  -0.081  0.9071  0.1309  0.1926
  171MOL0     H23082   1.892   4.942   0.128 -0.7929  0.8327 -0.2355
  171MOL0     H23083   2.041   4.791   0.157  0.1587  0.3357  1.9273
  171MOL0     H23084   2.193   4.804   0.069  1.3683 -1.0494  2.6387
  171MOL0     H23085   2.180   4.841   0.241 -1.2102 -2.9008  0.3325
  172MOL0     O23086  11.262   2.367   5.907 -1.0116 -0.1786  0.7946
  172MOL0     C23087  11.148   2.376   5.855 -0.0308  0.3312  1.6229
  172MOL0     O23088  11.050   2.280   5.870  0.4514 -0.1487 -0.0883
  172MOL0     C23089  11.073   2.174   5.943 -0.0336  0.1554 -0.2083
  172MOL0     C23090  11.176   2.079   5.912  0.9363  0.6485  0.0632
  172MOL0     C23091  11.195   1.967   5.993  0.7497  0.0923 -0.0097
  172MOL0     C23092  11.101   1.946   6.104 -0.3646  0.3620 -0.9071
  172MOL0     O23093  11.118   1.855   6.197  0.5658 -0.2330  1.1285
  172MOL0     C23094  11.242   1.796   6.221 -0.0046  0.3070  0.1976
  172MOL0     C23095  11.229   1.723   6.358  0.4096  0.3613  0.0113
  172MOL0     C23096  11.358   1.697   6.422 -0.6660 -0.2662 -0.2635
  172MOL0     C23097  11.417   1.820   6.500 -0.1026 -0.0031  0.2311
  172MOL0     C23098  11.541   1.790   6.586 -0.0698  0.0752  0.4712
  172MOL0     C23099  11.518   1.730   6.721  0.2790  0.3573 -0.0518
  172MOL0     C23100  11.645   1.694   6.800  0.6657 -0.2188 -0.5969
  172MOL0     C23101  11.707   1.559   6.767  0.0757  0.3145 -0.2029
  172MOL0     N23102  11.818   1.530   6.857  0.2626 -0.5183  0.4771
  172MOL0     C23103  11.930   1.601   6.890 -0.0767 -0.1446  0.9696
  172MOL0     C23104  11.987   1.534   6.995 -0.9774  0.2435 -0.0548
  172MOL0     C23105  12.120   1.555   7.061  0.2374 -0.3507  0.8813
  172MOL0     C23106  12.120   1.534   7.214  1.0591  0.7442  0.2065
  172MOL0     C23107  12.253   1.559   7.280 -0.2560 -0.0417  0.2596
  172MOL0     C23108  12.358   1.456   7.243  0.2900  0.1431 -0.0636
  172MOL0     O23109  12.477   1.461   7.317 -0.3183  0.0237 -0.4056
  172MOL0     C23110  12.581   1.382   7.282  0.4413  0.3511 -0.4109
  172MOL0     C23111  12.568   1.290   7.180 -0.3861 -0.0708  0.0923
  172MOL0     C23112  12.675   1.213   7.145  0.0407  0.5999  0.9660
  172MOL0     C23113  12.792   1.216   7.221  0.4877  0.5904 -0.4042
  172MOL0     C23114  12.897   1.109   7.199  0.4596 -0.3930 -0.7911
  172MOL0     O23115  13.016   1.132   7.261 -0.6155  0.1802 -0.1288
  172MOL0     C23116  13.106   1.032   7.247 -0.0049 -0.1210  0.1916
  172MOL0     C23117  13.186   1.019   7.133 -0.3562  0.0580 -0.2746
  172MOL0     C23118  13.289   0.928   7.141 -0.1865  1.1739 -1.2490
  172MOL0     C23119  13.298   0.845   7.249 -0.1029  1.3099 -0.2662
  172MOL0     O23120  13.413   0.757   7.266 -0.2161  0.4741 -0.4980
  172MOL0     C23121  13.397   0.616   7.302 -0.2168  0.4498 -0.1443
  172MOL0     C23122  13.517   0.539   7.285 -0.1579  0.5390 -0.7670
  172MOL0     C23123  13.553   0.528   7.135  0.4235 -0.2841 -0.5287
  172MOL0     C23124  13.658   0.422   7.108 -0.1995  0.0891  1.0203
  172MOL0     C23125  13.678   0.412   6.956 -0.4635 -0.6696  0.5784
  172MOL0     C23126  13.572   0.313   6.894  0.1998 -0.8114 -0.1518
  172MOL0     C23127  13.627   0.246   6.769 -0.4872 -0.5125 -0.9875
  172MOL0     C23128  13.527   0.161   6.694  0.4954  0.4903  0.3518
  172MOL0    Cl23129  13.493   0.003   6.771  0.1241 -0.1398  0.0213
  172MOL0     C23130  13.216   0.849   7.361  0.2532 -0.2245 -0.1767
  172MOL0     C23131  13.111   0.938   7.351 -0.5146  0.1335 -0.0076
  172MOL0     O23132  12.863   1.007   7.144 -0.2161  0.1805 -0.5487
  172MOL0     C23133  12.799   1.297   7.327  0.4310  0.0450  0.5733
  172MOL0     C23134  12.698   1.380   7.357 -0.5686  0.3624 -0.0353
  172MOL0     N23135  11.912   1.416   7.016  0.5793 -0.1568  0.6192
  172MOL0     N23136  11.809   1.418   6.936 -0.4059  0.0908 -0.1209
  172MOL0     C23137  10.986   2.024   6.120 -0.0365 -0.1120  0.3080
  172MOL0     C23138  10.979   2.142   6.048 -0.3460 -0.3053  0.2326
  172MOL0     C23139  11.120   2.496   5.773  0.1669  1.1893  0.0923
  172MOL0     C23140  10.983   2.511   5.736 -0.7580  0.2791  0.2283
  172MOL0     C23141  10.950   2.623   5.659  0.3394 -0.4888 -0.5207
  172MOL0     C23142  11.039   2.709   5.612  0.1453 -0.1055 -0.7090
  172MOL0     O23143  10.993   2.813   5.529  0.3229 -0.2412 -0.1167
  172MOL0     C23144  11.082   2.893   5.440 -0.5579 -0.1627  1.4079
  172MOL0     C23145  11.144   2.810   5.328  0.1178 -1.1403  0.0570
  172MOL0     C23146  11.042   2.750   5.229 -0.2072 -0.5788 -0.0728
  172MOL0     C23147  11.090   2.667   5.109 -0.7509 -0.6826 -0.2485
  172MOL0     C23148  11.215   2.713   5.040  0.4287  0.3966 -0.0204
  172MOL0     C23149  11.318   2.736   4.979  0.7265  0.6030  0.7098
  172MOL0     C23150  11.172   2.700   5.654  0.0641 -0.6233  0.4070
  172MOL0     C23151  11.211   2.591   5.730  0.3597 -0.2628 -1.1091
  172MOL0     C23152  11.351   2.597   5.780  0.1306 -0.3004 -0.5722
  172MOL0     H23153  11.237   2.102   5.825  1.6213  0.2522  0.4308
  172MOL0     H23154  11.276   1.899   5.969  2.3156  1.8913 -0.0619
  172MOL0     H23155  11.255   1.722   6.141 -0.4075  2.2421 -1.7813
  172MOL0     H23156  11.326   1.867   6.215  0.1811 -0.0240 -2.5044
  172MOL0     H23157  11.178   1.629   6.333 -0.7368  0.8514  0.4439
  172MOL0     H23158  11.160   1.785   6.415  1.1673  0.8246  0.4372
  172MOL0     H23159  11.434   1.667   6.349  1.8227  0.8567  1.7284
  172MOL0     H23160  11.353   1.609   6.487  2.9168  0.1247  0.7483
  172MOL0     H23161  11.451   1.895   6.427 -2.0214  0.1079 -0.6169
  172MOL0     H23162  11.341   1.860   6.568  0.3872  2.3186 -0.4946
  172MOL0     H23163  11.600   1.710   6.539 -0.6261  0.5356 -1.0656
  172MOL0     H23164  11.597   1.884   6.586  3.6793 -1.9446  1.0061
  172MOL0     H23165  11.459   1.802   6.778  0.3838  0.3084  0.1189
  172MOL0     H23166  11.456   1.641   6.706  1.4718 -0.3993 -0.6849
  172MOL0     H23167  11.616   1.682   6.905 -1.2128  0.0409 -1.0397
  172MOL0     H23168  11.722   1.771   6.798 -1.3392  1.8899 -0.5329
  172MOL0     H23169  11.620   1.492   6.766 -1.9732  2.7982 -0.6054
  172MOL0     H23170  11.755   1.570   6.670 -1.3709  0.4329 -0.9422
  172MOL0     H23171  11.962   1.695   6.846 -1.2822  0.8439  2.0887
  172MOL0     H23172  12.196   1.488   7.019  1.5616  1.9576 -0.6579
  172MOL0     H23173  12.158   1.655   7.037 -0.7721  0.4110  2.2882
  172MOL0     H23174  12.052   1.606   7.261  1.1895  0.4404  0.8684
  172MOL0     H23175  12.081   1.433   7.227  1.7376  0.4673  0.1075
  172MOL0     H23176  12.242   1.554   7.388  3.3046  1.1615  0.8219
  172MOL0     H23177  12.300   1.654   7.253  1.5091 -0.3658  1.9506
  172MOL0     H23178  12.379   1.472   7.137 -0.4788  0.1504 -0.2172
  172MOL0     H23179  12.316   1.357   7.263 -1.2933  1.2008  2.3797
  172MOL0     H23180  12.476   1.262   7.128  0.2840  0.3352 -1.3749
  172MOL0     H23181  12.670   1.144   7.060 -0.3132  1.5925  0.1668
  172MOL0     H23182  13.199   1.105   7.068 -3.5896  0.1328 -0.9937
  172MOL0     H23183  13.364   0.918   7.063 -0.5972  2.5387 -1.8407
  172MOL0     H23184  13.378   0.614   7.410  2.9714  0.3078  0.5070
  172MOL0     H23185  13.317   0.573   7.241 -0.1228  2.9738 -2.2063
  172MOL0     H23186  13.601   0.581   7.339 -1.2724  0.6900  0.9266
  172MOL0     H23187  13.499   0.437   7.322 -1.3193  1.3168  0.9121
  172MOL0     H23188  13.458   0.508   7.085  0.8430 -0.5872 -1.2301
  172MOL0     H23189  13.598   0.625   7.111  3.1877 -0.4068  3.2837
  172MOL0     H23190  13.641   0.330   7.165  0.2976 -0.7041 -0.0764
  172MOL0     H23191  13.749   0.460   7.155  2.0280 -1.6287 -1.6249
  172MOL0     H23192  13.775   0.362   6.950 -0.6546 -1.1210  1.1212
  172MOL0     H23193  13.688   0.506   6.901  0.3583 -0.7519  0.5788
  172MOL0     H23194  13.538   0.242   6.970 -0.6237 -0.1021  0.1532
  172MOL0     H23195  13.485   0.377   6.875  1.4464  1.3205  0.8840
  172MOL0     H23196  13.712   0.177   6.777 -0.1621 -0.3577 -2.6245
  172MOL0     H23197  13.664   0.332   6.714 -2.6396 -0.1492 -2.0024
  172MOL0     H23198  13.440   0.227   6.683 -0.0924 -0.3621 -0.2976
  172MOL0     H23199  13.557   0.133   6.593  0.6895 -0.9982  0.7919
  172MOL0     H23200  13.229   0.796   7.454 -0.7216  1.3286  0.8899
  172MOL0     H23201  13.054   0.942   7.443 -1.3262 -2.9404 -0.2537
  172MOL0     H23202  12.886   1.284   7.391 -0.7316 -3.1541  1.7183
  172MOL0     H23203  12.686   1.430   7.452 -2.3446 -1.8028  1.0069
  172MOL0     H23204  10.920   2.000   6.202  1.1335 -0.7786  1.0743
  172MOL0     H23205  10.904   2.219   6.054 -1.4152 -1.2065 -1.0304
  172MOL0     H23206  10.901   2.442   5.755  0.4494 -1.8708 -1.8260
  172MOL0     H23207  10.845   2.634   5.636  0.9978  1.1875 -3.1693
  172MOL0     H23208  11.146   2.956   5.502  2.0109 -0.1754 -1.0228
  172MOL0     H23209  11.016   2.964   5.389 -1.6381 -2.8565 -1.3137
  172MOL0     H23210  11.194   2.721   5.367  0.9867 -1.1909 -1.1104
  172MOL0     H23211  11.220   2.870   5.277  0.0737 -0.6427  0.5705
  172MOL0     H23212  10.991   2.834   5.182  5.4730  3.3247 -0.2876
  172MOL0     H23213  10.975   2.690   5.292  0.5856 -0.8896  0.4931
  172MOL0     H23214  11.110   2.572   5.158 -0.4660  0.0028  1.0240
  172MOL0     H23215  11.014   2.660   5.031  0.1352 -1.6468 -1.0548
  172MOL0     H23216  11.404   2.743   4.915 -0.0011  0.0303 -0.3461
  172MOL0     H23217  11.229   2.790   5.633 -2.7153  0.8072 -1.6377
  172MOL0     H23218  11.405   2.682   5.736  2.5159 -1.6033 -0.2998
  172MOL0     H23219  11.357   2.597   5.890 -1.8154  1.0847 -0.4039
  172MOL0     H23220  11.405   2.506   5.755  1.1366  0.1325 -0.0573
  173MOL0     O23221   5.320   5.555   8.590  0.5337  0.1130  0.4519
  173MOL0     C23222   5.282   5.454   8.531  0.0061  0.4797  0.8054
  173MOL0     O23223   5.313   5.428   8.399  0.1643 -0.4617  0.5956
  173MOL0     C23224   5.405   5.508   8.332  1.0949  0.0806  0.1464
  173MOL0     C23225   5.414   5.648   8.329 -0.7608 -0.4293  0.5257
  173MOL0     C23226   5.517   5.710   8.254 -0.6941  0.3403  0.7864
  173MOL0     C23227   5.619   5.642   8.187 -0.6516 -0.2731 -0.0844
  173MOL0     O23228   5.716   5.703   8.100  0.4357  0.2580 -0.1711
  173MOL0     C23229   5.660   5.802   8.008 -0.3847 -0.2154 -0.2308
  173MOL0     C23230   5.735   5.784   7.881  0.3754  0.3497  0.0483
  173MOL0     C23231   5.882   5.833   7.870 -0.2989  0.8219 -0.1459
  173MOL0     C23232   5.932   5.811   7.725  0.9885 -0.1291 -0.3589
  173MOL0     C23233   6.061   5.890   7.713  0.3701  0.2797  0.5350
  173MOL0     C23234   6.107   5.914   7.570  0.1598 -1.4818  0.1943
  173MOL0     C23235   6.246   5.977   7.555 -0.1549  0.0012  0.7498
  173MOL0     C23236   6.287   5.984   7.406  0.6223  0.0588 -0.8349
  173MOL0     N23237   6.417   6.051   7.396  0.8510  0.5319 -0.5412
  173MOL0     C23238   6.430   6.186   7.382  0.6792  0.2819  0.4212
  173MOL0     C23239   6.557   6.204   7.339 -0.0437 -0.4029  0.0477
  173MOL0     C23240   6.622   6.325   7.300 -0.6049 -0.1854 -0.3438
  173MOL0     C23241   6.715   6.396   7.403 -0.2272  0.8792  0.4991
  173MOL0     C23242   6.801   6.302   7.493 -0.2130 -0.8559 -0.0447
  173MOL0     C23243   6.927   6.243   7.428 -0.2947  0.2800 -0.2853
  173MOL0     O23244   7.014   6.348   7.372 -0.1161  0.5220  0.4527
  173MOL0     C23245   7.130   6.304   7.316 -0.4585  0.5357 -0.1698
  173MOL0     C23246   7.195   6.184   7.335  0.0440 -0.7709 -0.6209
  173MOL0     C23247   7.317   6.161   7.263  0.2355 -0.4426 -0.0305
  173MOL0     C23248   7.370   6.265   7.176 -0.5258  0.6975 -0.1331
  173MOL0     C23249   7.500   6.248   7.108  0.6135  0.7366  0.7437
  173MOL0     O23250   7.573   6.142   7.148 -0.2493  0.1399  0.5305
  173MOL0     C23251   7.680   6.103   7.072  0.4094  0.8831 -0.3478
  173MOL0     C23252   7.804   6.115   7.129  0.3231 -0.1498  0.8642
  173MOL0     C23253   7.919   6.069   7.059 -1.1503  0.0879  0.4950
  173MOL0     C23254   7.913   5.997   6.946  0.0686 -0.2602  0.4436
  173MOL0     O23255   8.017   5.936   6.897  0.0595  0.2427 -0.0616
  173MOL0     C23256   8.131   6.016   6.891  0.3008  0.2238  0.2097
  173MOL0     C23257   8.220   5.963   6.779 -0.4109 -0.2917  0.2688
  173MOL0     C23258   8.324   5.867   6.845  0.7214 -0.6223 -0.0296
  173MOL0     C23259   8.471   5.891   6.799 -0.5571  1.3985 -0.6249
  173MOL0     C23260   8.575   5.852   6.907  0.1471 -0.2529  0.7227
  173MOL0     C23261   8.705   5.822   6.840 -0.1895  0.0868  0.1056
  173MOL0     C23262   8.788   5.753   6.943  0.1987  0.0301 -0.0504
  173MOL0     C23263   8.915   5.685   6.887 -0.0178  0.2660  0.6280
  173MOL0    Cl23264   8.868   5.553   6.759  0.7418 -0.1173  0.0954
  173MOL0     C23265   7.784   5.983   6.887 -0.8252  0.2292  0.2382
  173MOL0     C23266   7.667   6.029   6.957 -0.2797 -0.1500  0.1352
  173MOL0     O23267   7.524   6.329   7.019 -0.4864 -0.3037  0.1785
  173MOL0     C23268   7.295   6.382   7.157 -0.1618  0.0191 -0.5745
  173MOL0     C23269   7.182   6.403   7.231 -0.1700 -0.3320 -0.9923
  173MOL0     N23270   6.615   6.077   7.336 -0.6711  0.1171  0.4710
  173MOL0     N23271   6.534   5.987   7.381 -0.5084  0.1326  0.0067
  173MOL0     C23272   5.612   5.497   8.197 -0.2744 -0.6286 -0.3078
  173MOL0     C23273   5.502   5.436   8.262 -0.8031  0.4734 -1.1171
  173MOL0     C23274   5.193   5.344   8.586 -0.6364  0.1422  0.0573
  173MOL0     C23275   5.175   5.223   8.506  0.4801  1.1135  0.1726
  173MOL0     C23276   5.077   5.130   8.535 -0.1930  0.5346 -0.3064
  173MOL0     C23277   4.988   5.160   8.645  0.0435 -0.3221  1.1786
  173MOL0     O23278   4.905   5.058   8.689  0.6430 -0.1086  0.1986
  173MOL0     C23279   4.829   4.988   8.589 -0.9104  0.2237  0.3375
  173MOL0     C23280   4.748   4.872   8.649 -0.6691 -0.7014  0.0388
  173MOL0     C23281   4.653   4.923   8.763  1.2291  0.1881 -0.1403
  173MOL0     C23282   4.590   4.801   8.841 -0.8910  0.4828 -0.0256
  173MOL0     C23283   4.475   4.838   8.931 -0.2106 -0.3366  0.2495
  173MOL0     C23284   4.372   4.854   9.000  0.1554 -0.2560 -0.4884
  173MOL0     C23285   5.012   5.273   8.729 -0.4735 -0.2879  0.4224
  173MOL0     C23286   5.114   5.362   8.700 -0.0291  0.0772  0.6406
  173MOL0     C23287   5.127   5.480   8.794  0.2412 -0.2131 -0.3695
  173MOL0     H23288   5.352   5.712   8.392  1.1219  0.8306  1.2063
  173MOL0     H23289   5.518   5.817   8.236 -3.8574  0.3862  0.4831
  173MOL0     H23290   5.554   5.802   7.981  0.1024 -2.3796 -2.4891
  173MOL0     H23291   5.690   5.901   8.044  2.5058 -0.4005 -1.8250
  173MOL0     H23292   5.676   5.843   7.811  2.6781  2.2437 -0.4054
  173MOL0     H23293   5.734   5.680   7.845  1.3563  0.1372  0.5903
  173MOL0     H23294   5.935   5.783   7.952 -1.2358  1.5154  0.9179
  173MOL0     H23295   5.889   5.940   7.892  0.2131  0.8773 -0.5688
  173MOL0     H23296   5.963   5.709   7.698  2.3478  0.7828 -2.4490
  173MOL0     H23297   5.858   5.849   7.654  0.8979 -1.5194 -1.0455
  173MOL0     H23298   6.035   5.988   7.754 -1.9506 -0.4329  0.8916
  173MOL0     H23299   6.125   5.843   7.788 -1.2248 -2.7553  0.1238
  173MOL0     H23300   6.111   5.824   7.509 -2.7139  0.4383 -3.1590
  173MOL0     H23301   6.026   5.968   7.521 -0.2920 -0.4947  1.9176
  173MOL0     H23302   6.313   5.924   7.622  2.8139 -1.2443 -2.8288
  173MOL0     H23303   6.249   6.080   7.591  1.8203 -0.1574  1.1285
  173MOL0     H23304   6.278   5.889   7.352 -1.6307  0.8489 -2.0075
  173MOL0     H23305   6.220   6.049   7.348  0.9465 -0.4678 -1.8247
  173MOL0     H23306   6.359   6.267   7.394 -0.7928 -1.0784  1.4746
  173MOL0     H23307   6.686   6.294   7.218 -0.2922  0.6009 -0.4076
  173MOL0     H23308   6.542   6.388   7.259 -2.6517 -2.6754 -0.4543
  173MOL0     H23309   6.775   6.472   7.354 -1.6016  2.2958  0.9533
  173MOL0     H23310   6.651   6.440   7.481 -1.1503 -0.6912  0.6858
  173MOL0     H23311   6.737   6.227   7.541 -0.6142  1.0320  2.6127
  173MOL0     H23312   6.839   6.357   7.579  1.1323 -0.7182 -0.7012
  173MOL0     H23313   6.894   6.187   7.340  2.7523 -0.2958 -1.1835
  173MOL0     H23314   6.972   6.176   7.501 -0.3986  0.6982  0.1663
  173MOL0     H23315   7.173   6.106   7.408 -0.9935  0.3075  0.2590
  173MOL0     H23316   7.379   6.073   7.275  0.6372 -0.5616 -2.3507
  173MOL0     H23317   7.821   6.167   7.223 -1.5190 -2.5244  2.6615
  173MOL0     H23318   8.014   6.091   7.106 -1.3811 -0.4276  1.2249
  173MOL0     H23319   8.104   6.121   6.874 -1.4721 -0.3915 -1.0925
  173MOL0     H23320   8.194   6.021   6.980  3.4995 -0.5018 -1.8456
  173MOL0     H23321   8.155   5.913   6.707  1.1902 -1.1727 -0.6284
  173MOL0     H23322   8.264   6.051   6.730 -1.3411 -1.0482 -2.0740
  173MOL0     H23323   8.318   5.863   6.954 -0.0968  0.3791 -0.0192
  173MOL0     H23324   8.289   5.771   6.806 -1.4229  0.0181  0.1867
  173MOL0     H23325   8.485   5.999   6.790 -0.1914  1.2932 -1.3489
  173MOL0     H23326   8.489   5.835   6.707  0.0693 -1.3360  1.0613
  173MOL0     H23327   8.546   5.761   6.961 -1.6395  0.4770  1.1050
  173MOL0     H23328   8.589   5.932   6.980  4.4320  0.1996 -0.3442
  173MOL0     H23329   8.693   5.761   6.749  0.7563 -2.6122  1.6683
  173MOL0     H23330   8.762   5.908   6.804 -2.3574  1.7665  0.5216
  173MOL0     H23331   8.736   5.667   6.986  1.6696 -0.5220  0.7046
  173MOL0     H23332   8.816   5.830   7.016 -2.7161 -0.4594  1.7830
  173MOL0     H23333   8.965   5.765   6.831  0.0372 -1.5667 -2.0745
  173MOL0     H23334   8.977   5.645   6.968 -0.8097 -0.7398  0.7445
  173MOL0     H23335   7.767   5.931   6.794 -1.1750  0.0523  0.4014
  173MOL0     H23336   7.565   6.005   6.927 -0.9910  3.2047 -0.5579
  173MOL0     H23337   7.325   6.465   7.093 -0.0567 -0.1010 -0.6825
  173MOL0     H23338   7.126   6.493   7.210 -1.2881 -1.1420 -1.6136
  173MOL0     H23339   5.689   5.432   8.158  1.4481  1.1001  0.0829
  173MOL0     H23340   5.495   5.329   8.273  1.3190  0.2513 -1.4089
  173MOL0     H23341   5.227   5.212   8.412 -1.4480  0.0810 -0.8415
  173MOL0     H23342   5.088   5.034   8.485  1.1418  0.4566  0.1098
  173MOL0     H23343   4.895   4.942   8.515 -2.3554 -0.0814 -0.7926
  173MOL0     H23344   4.764   5.062   8.542  0.8428  0.4579 -1.8818
  173MOL0     H23345   4.817   4.802   8.696  0.2117  1.0333  1.4254
  173MOL0     H23346   4.689   4.819   8.573  0.2133 -0.7579 -0.6181
  173MOL0     H23347   4.577   4.987   8.717  1.3860  0.8400  0.4949
  173MOL0     H23348   4.717   4.980   8.831  0.7110 -2.1333  2.5013
  173MOL0     H23349   4.547   4.722   8.779 -2.0375  0.9800  0.1031
  173MOL0     H23350   4.671   4.767   8.905 -0.6828  3.7352  1.6821
  173MOL0     H23351   4.290   4.848   9.068  0.2590  0.6410 -0.2716
  173MOL0     H23352   4.945   5.303   8.809  1.2493 -0.5330  2.0279
  173MOL0     H23353   5.140   5.573   8.737 -1.2088  0.5911  0.5380
  173MOL0     H23354   5.037   5.489   8.856  2.2949 -2.4306  3.2901
  173MOL0     H23355   5.218   5.468   8.853  0.8095  0.9463 -0.9797
  174MOL0     O23356  10.525   7.468  10.377  0.7151 -0.3838 -0.1849
  174MOL0     C23357  10.463   7.564  10.417 -0.4627  0.1169  0.0329
  174MOL0     O23358  10.522   7.680  10.459 -0.0043 -0.4662  0.0727
  174MOL0     C23359  10.647   7.701  10.413 -0.0897 -0.6584 -0.8053
  174MOL0     C23360  10.738   7.759  10.507 -0.0673  0.7645  0.5125
  174MOL0     C23361  10.875   7.779  10.468  0.1930  0.1775  0.0055
  174MOL0     C23362  10.915   7.775  10.331  0.1504  0.0133 -0.3102
  174MOL0     O23363  11.040   7.816  10.285 -0.1496 -0.8177 -0.7205
  174MOL0     C23364  11.126   7.889  10.375  0.5527 -0.1712 -0.1420
  174MOL0     C23365  11.208   7.982  10.290 -0.5624 -0.2629  0.4557
  174MOL0     C23366  11.309   8.044  10.383 -0.0976 -0.4923  0.3445
  174MOL0     C23367  11.381   8.169  10.324  0.7496 -0.0896  0.5137
  174MOL0     C23368  11.482   8.233  10.411  0.2606  0.5295 -0.1145
  174MOL0     C23369  11.439   8.290  10.537  0.2565  0.4269 -0.9342
  174MOL0     C23370  11.549   8.346  10.616  0.4082  1.0043  0.0214
  174MOL0     C23371  11.502   8.412  10.749  0.7303  0.9371 -0.0707
  174MOL0     N23372  11.614   8.464  10.824  0.3164 -0.3157  0.1660
  174MOL0     C23373  11.735   8.503  10.773  0.5942 -0.2991  0.0239
  174MOL0     C23374  11.802   8.554  10.879  0.5344  0.0576  0.1038
  174MOL0     C23375  11.942   8.620  10.873 -0.0094 -0.4886 -0.1920
  174MOL0     C23376  11.999   8.666  11.009  0.6323  0.1547  0.0312
  174MOL0     C23377  12.155   8.669  10.992  0.4032  0.7920 -0.1564
  174MOL0     C23378  12.234   8.641  11.123 -0.8004  0.0396  0.5640
  174MOL0     O23379  12.367   8.703  11.090 -0.4665 -0.6621  0.3114
  174MOL0     C23380  12.460   8.633  11.017 -0.0501 -0.4642 -0.5057
  174MOL0     C23381  12.574   8.708  10.985  0.0201 -0.0963 -0.5327
  174MOL0     C23382  12.667   8.645  10.904 -0.5689  0.5823 -0.3461
  174MOL0     C23383  12.658   8.510  10.858  0.2337 -0.5812  0.4410
  174MOL0     C23384  12.766   8.435  10.785 -0.1797 -0.1887 -0.3079
  174MOL0     O23385  12.884   8.494  10.779 -0.4879 -0.7142  0.7349
  174MOL0     C23386  13.005   8.431  10.738  1.1562  0.3626 -1.1130
  174MOL0     C23387  13.026   8.294  10.698  0.2565 -0.2947 -0.8241
  174MOL0     C23388  13.144   8.251  10.650  0.1311  0.2093  1.6404
  174MOL0     C23389  13.251   8.339  10.634  0.9253  0.1125 -0.4825
  174MOL0     O23390  13.371   8.301  10.574  0.2745 -0.7967 -0.2968
  174MOL0     C23391  13.416   8.167  10.585 -0.4638  0.8961 -0.1870
  174MOL0     C23392  13.556   8.151  10.508  1.2709  0.5673  0.2679
  174MOL0     C23393  13.666   8.240  10.559 -0.2812 -0.1284 -0.0353
  174MOL0     C23394  13.812   8.205  10.510  0.2473 -0.1615 -1.3557
  174MOL0     C23395  13.850   8.302  10.394  0.8489 -0.0380  0.2003
  174MOL0     C23396  14.000   8.296  10.349  0.4379  0.6789 -0.4650
  174MOL0     C23397  14.030   8.392  10.232  0.3660 -0.0958  0.3198
  174MOL0     C23398  14.178   8.386  10.193  0.2052 -0.6059  0.1344
  174MOL0    Cl23399  14.278   8.453  10.317 -0.1917 -0.3038  0.0750
  174MOL0     C23400  13.235   8.472  10.680  0.2014 -1.1665  0.7422
  174MOL0     C23401  13.117   8.512  10.740 -0.3305 -1.2298  0.2400
  174MOL0     O23402  12.741   8.333  10.724 -0.0684 -0.8066 -0.5682
  174MOL0     C23403  12.545   8.442  10.893 -0.0158  0.7537  0.1110
  174MOL0     C23404  12.439   8.508  10.965  0.3432  0.4797  0.9957
  174MOL0     N23405  11.717   8.537  10.994  0.5510 -0.4561 -0.3864
  174MOL0     N23406  11.609   8.483  10.958  0.5337  0.1582 -0.5290
  174MOL0     C23407  10.827   7.720  10.242  0.5225  0.3299  0.8261
  174MOL0     C23408  10.695   7.685  10.278  0.0432 -0.8639  0.4669
  174MOL0     C23409  10.318   7.528  10.452  0.5891 -0.0443  0.1631
  174MOL0     C23410  10.266   7.391  10.447 -0.2956  0.0509  0.5174
  174MOL0     C23411  10.136   7.352  10.482 -0.4485  0.2730 -0.2283
  174MOL0     C23412  10.040   7.454  10.502 -0.1384 -0.1741  0.2428
  174MOL0     O23413   9.917   7.401  10.537 -0.1089 -0.2874 -0.3742
  174MOL0     C23414   9.811   7.495  10.550  0.5402 -0.1306 -0.1357
  174MOL0     C23415   9.673   7.426  10.533 -0.0676 -0.1235  0.2949
  174MOL0     C23416   9.639   7.364  10.396  0.0242 -0.0811 -0.1145
  174MOL0     C23417   9.692   7.457  10.286  0.8788  0.3190  0.1045
  174MOL0     C23418   9.626   7.434  10.159 -0.7502 -0.8311  0.0122
  174MOL0     C23419   9.563   7.415  10.057  0.5905  0.0132  0.7060
  174MOL0     C23420  10.079   7.586  10.506  0.3980 -0.0439  0.4324
  174MOL0     C23421  10.215   7.629  10.484  0.0604  0.8035 -0.9652
  174MOL0     C23422  10.242   7.772  10.480 -0.1784  0.7089  0.0587
  174MOL0     H23423  10.714   7.778  10.611  0.3115 -2.3856  1.2800
  174MOL0     H23424  10.944   7.810  10.546 -4.5878  3.6132  3.4187
  174MOL0     H23425  11.073   7.944  10.453  0.7696 -1.3591  0.8712
  174MOL0     H23426  11.200   7.822  10.420 -0.1251  0.2754  1.7258
  174MOL0     H23427  11.161   8.069  10.243  0.1280  0.3181  0.8062
  174MOL0     H23428  11.267   7.930  10.214 -0.7107 -1.8144  1.3728
  174MOL0     H23429  11.394   7.980  10.406  1.1793  0.5534 -1.2505
  174MOL0     H23430  11.257   8.083  10.471 -2.0835  1.2863 -1.4852
  174MOL0     H23431  11.427   8.127  10.234  1.0334 -0.4857  0.8406
  174MOL0     H23432  11.310   8.243  10.286  1.1179 -1.1864 -2.6369
  174MOL0     H23433  11.559   8.155  10.420 -1.0942 -1.0686 -1.4918
  174MOL0     H23434  11.528   8.320  10.364  0.7632  0.4014  0.1341
  174MOL0     H23435  11.368   8.368  10.509  0.2780  0.6049 -0.4912
  174MOL0     H23436  11.381   8.220  10.598  0.3847 -0.5247 -1.8721
  174MOL0     H23437  11.589   8.427  10.553 -3.7609  2.2240 -1.3752
  174MOL0     H23438  11.622   8.266  10.631 -1.8617 -1.4240 -1.2628
  174MOL0     H23439  11.426   8.485  10.720  0.6740  0.4618 -1.1675
  174MOL0     H23440  11.442   8.350  10.816  0.0646 -1.5610 -2.7966
  174MOL0     H23441  11.763   8.513  10.669 -0.3852 -1.7012 -0.4052
  174MOL0     H23442  12.005   8.544  10.827 -0.7220 -1.0241 -0.2890
  174MOL0     H23443  11.950   8.697  10.796 -0.7933 -2.6760 -2.6036
  174MOL0     H23444  11.955   8.759  11.046  0.8323  0.2043  0.1484
  174MOL0     H23445  11.972   8.587  11.080 -2.1547  0.4049 -0.6703
  174MOL0     H23446  12.179   8.766  10.947  2.6185  0.4057  0.1003
  174MOL0     H23447  12.193   8.596  10.921 -1.4743 -0.6291  0.2130
  174MOL0     H23448  12.237   8.545  11.175  1.4929 -0.5482 -0.5315
  174MOL0     H23449  12.193   8.702  11.204  1.2873 -0.9357  2.4712
  174MOL0     H23450  12.604   8.808  11.016  3.0357 -0.7326 -1.1302
  174MOL0     H23451  12.763   8.693  10.887  0.2821 -1.3099 -1.2772
  174MOL0     H23452  12.946   8.220  10.693  1.8952 -2.1053 -1.6316
  174MOL0     H23453  13.147   8.145  10.626  0.8062 -0.2320  3.5026
  174MOL0     H23454  13.442   8.149  10.690  4.1354 -0.3658 -1.3075
  174MOL0     H23455  13.356   8.089  10.538  0.7012  0.5029 -1.0494
  174MOL0     H23456  13.583   8.045  10.513 -1.4578 -0.2542 -0.7211
  174MOL0     H23457  13.536   8.174  10.403 -1.3832  2.6280  1.1177
  174MOL0     H23458  13.636   8.342  10.535 -0.3037  0.4357  2.1899
  174MOL0     H23459  13.666   8.234  10.669 -0.4574 -0.6143 -0.0559
  174MOL0     H23460  13.814   8.107  10.463  1.1867 -0.1170 -1.4304
  174MOL0     H23461  13.893   8.210  10.584  0.4667 -1.5824 -1.4780
  174MOL0     H23462  13.846   8.405  10.430 -0.2615  0.1727 -0.4980
  174MOL0     H23463  13.774   8.300  10.315  0.4163  3.4948  0.3691
  174MOL0     H23464  14.073   8.307  10.430 -2.2375  1.7878  1.9535
  174MOL0     H23465  14.011   8.195  10.307 -2.6168  0.1166 -0.1193
  174MOL0     H23466  14.016   8.498  10.256  0.8478 -0.5018  2.6114
  174MOL0     H23467  13.972   8.353  10.148 -0.2195 -1.1151  1.1721
  174MOL0     H23468  14.205   8.281  10.179 -1.0087 -1.0637  0.9905
  174MOL0     H23469  14.197   8.445  10.103 -1.9650  0.1792  0.1399
  174MOL0     H23470  13.319   8.535  10.652 -0.4827 -0.7363 -0.4109
  174MOL0     H23471  13.108   8.612  10.780  3.9444 -0.5696  0.0321
  174MOL0     H23472  12.539   8.336  10.871  1.4769  0.9374 -1.3676
  174MOL0     H23473  12.354   8.448  10.994  1.9791 -2.4170  0.1854
  174MOL0     H23474  10.847   7.712  10.136 -0.0054  0.2312  0.7287
  174MOL0     H23475  10.624   7.661  10.200 -0.6066  1.1278  0.3948
  174MOL0     H23476  10.334   7.311  10.419 -1.7494 -1.7714  1.9682
  174MOL0     H23477  10.112   7.246  10.479 -0.8418  0.3756 -2.0554
  174MOL0     H23478   9.827   7.581  10.483  0.4295 -0.4921 -0.6372
  174MOL0     H23479   9.823   7.531  10.652  1.3821 -0.7450 -0.0069
  174MOL0     H23480   9.596   7.498  10.560 -1.2923 -1.5438  0.7351
  174MOL0     H23481   9.654   7.349  10.609 -2.0942  0.3386  0.3072
  174MOL0     H23482   9.531   7.351  10.390  0.1474 -2.3747  1.3964
  174MOL0     H23483   9.689   7.266  10.389 -2.0493 -1.2445  0.5032
  174MOL0     H23484   9.670   7.561  10.311 -0.9957 -0.0759  0.2310
  174MOL0     H23485   9.801   7.463  10.274  1.1830  1.4574  2.7710
  174MOL0     H23486   9.501   7.383   9.975  1.1248 -2.4275  1.1842
  174MOL0     H23487  10.011   7.666  10.536  0.2898  1.0153 -2.3152
  174MOL0     H23488  10.275   7.810  10.383 -1.5404 -0.3066 -0.8490
  174MOL0     H23489  10.151   7.829  10.503 -2.8505 -2.6079 -1.4436
  174MOL0     H23490  10.318   7.799  10.553 -0.2751  1.1090  0.0175
  175MOL0     O23491   2.161   6.755   5.737 -0.7846 -0.1912 -0.3538
  175MOL0     C23492   2.117   6.849   5.676 -0.3587  0.7835 -0.6021
  175MOL0     O23493   2.195   6.942   5.610  0.1365  0.1079 -0.4944
  175MOL0     C23494   2.333   6.953   5.626 -0.4102 -0.4146  0.0292
  175MOL0     C23495   2.399   7.044   5.542 -0.0975 -0.5305  0.6211
  175MOL0     C23496   2.536   7.066   5.550  0.2234 -0.2492  0.4071
  175MOL0     C23497   2.621   6.999   5.640  0.1277  0.6207  0.0336
  175MOL0     O23498   2.758   7.008   5.661  0.4233 -0.3062  0.1427
  175MOL0     C23499   2.832   7.099   5.579 -0.0237 -0.2043  0.0768
  175MOL0     C23500   2.983   7.065   5.613  0.0843 -0.0094 -0.0289
  175MOL0     C23501   3.027   7.125   5.745 -0.6271  0.7920 -0.1328
  175MOL0     C23502   3.179   7.127   5.768 -0.3610 -0.5917 -0.4425
  175MOL0     C23503   3.207   7.133   5.919 -0.1696 -0.1412  0.3551
  175MOL0     C23504   3.359   7.123   5.958  0.6028  0.2831  0.0968
  175MOL0     C23505   3.456   7.229   5.896 -0.4558 -0.2861 -1.2706
  175MOL0     C23506   3.458   7.362   5.977 -0.1818  0.7881 -0.2055
  175MOL0     N23507   3.520   7.329   6.109 -0.3147  0.0324  1.5748
  175MOL0     C23508   3.446   7.340   6.221 -0.3227  0.8830 -0.2342
  175MOL0     C23509   3.530   7.340   6.325 -0.1814 -0.5373 -0.4677
  175MOL0     C23510   3.485   7.330   6.473 -0.4292 -1.5015 -0.5074
  175MOL0     C23511   3.556   7.439   6.562 -0.4307 -0.1130 -0.0276
  175MOL0     C23512   3.500   7.577   6.552 -0.1913  0.6057  1.0100
  175MOL0     C23513   3.551   7.660   6.670  0.2977  0.0232  0.5517
  175MOL0     O23514   3.488   7.788   6.655 -0.3511  0.3143 -0.2730
  175MOL0     C23515   3.542   7.875   6.563 -0.2296  0.6416 -0.3600
  175MOL0     C23516   3.468   7.983   6.540 -0.3192  0.9007 -0.3189
  175MOL0     C23517   3.514   8.088   6.467 -1.5514 -1.0659 -0.4204
  175MOL0     C23518   3.638   8.091   6.406  0.3254 -0.4384 -1.1758
  175MOL0     C23519   3.697   8.201   6.315  0.6584  0.5291 -0.6122
  175MOL0     O23520   3.824   8.183   6.263  0.2310  0.0399 -0.4986
  175MOL0     C23521   3.888   8.294   6.217  0.2535  0.3954  0.9747
  175MOL0     C23522   3.846   8.355   6.097  0.8177  0.1143 -0.1040
  175MOL0     C23523   3.914   8.461   6.045 -0.0243  0.7909  0.3768
  175MOL0     C23524   4.026   8.516   6.109  0.7739 -0.2303  0.1060
  175MOL0     O23525   4.096   8.626   6.064 -0.1852  0.4272  0.4717
  175MOL0     C23526   4.110   8.644   5.923 -0.0549 -0.0144  0.9112
  175MOL0     C23527   4.258   8.628   5.868  1.7304  0.3550 -0.1993
  175MOL0     C23528   4.307   8.768   5.839  0.0046 -0.5205  0.8797
  175MOL0     C23529   4.459   8.767   5.802 -1.0685 -0.0809 -0.6514
  175MOL0     C23530   4.497   8.907   5.765 -0.0512  0.4441  0.0463
  175MOL0     C23531   4.633   8.914   5.687 -0.6759  0.0647 -0.3077
  175MOL0     C23532   4.702   9.051   5.712  0.4950  1.0977 -0.3930
  175MOL0     C23533   4.780   9.110   5.600 -0.2008 -0.7531  0.2732
  175MOL0    Cl23534   4.922   9.018   5.539 -0.1422 -0.2472 -0.1774
  175MOL0     C23535   4.067   8.452   6.228  0.0546 -0.5701  0.0055
  175MOL0     C23536   4.004   8.342   6.274 -0.5359  0.0774 -0.0522
  175MOL0     O23537   3.613   8.281   6.275  0.9740  0.5772  0.0688
  175MOL0     C23538   3.710   7.972   6.420 -0.6425 -0.1537  0.4799
  175MOL0     C23539   3.674   7.866   6.508 -0.0955 -0.3176 -0.1933
  175MOL0     N23540   3.662   7.340   6.281 -0.1999  0.3730 -0.3553
  175MOL0     N23541   3.651   7.336   6.158 -0.6702 -0.7810  0.5818
  175MOL0     C23542   2.553   6.917   5.732  0.8162  0.4106 -0.1970
  175MOL0     C23543   2.416   6.894   5.724  0.5808  0.9718  0.5161
  175MOL0     C23544   1.970   6.862   5.666 -0.2702  0.0020  0.0218
  175MOL0     C23545   1.887   6.757   5.702 -0.0766  0.2741  0.4942
  175MOL0     C23546   1.747   6.765   5.702  0.0486 -1.0389 -0.2503
  175MOL0     C23547   1.687   6.886   5.663 -1.2573  0.4200  0.5053
  175MOL0     O23548   1.554   6.929   5.675 -0.6789  0.2469  0.4497
  175MOL0     C23549   1.458   6.844   5.731 -0.4535  0.7875 -0.3502
  175MOL0     C23550   1.338   6.948   5.760 -0.5153  0.4464 -0.1074
  175MOL0     C23551   1.210   6.876   5.795 -0.4832  0.0925  1.4575
  175MOL0     C23552   1.113   6.975   5.859  0.0386 -0.1744 -0.3056
  175MOL0     C23553   0.978   6.958   5.822 -0.5905  0.9978 -0.1623
  175MOL0     C23554   0.862   6.935   5.790  0.9254 -0.3114 -0.1023
  175MOL0     C23555   1.766   6.985   5.604  0.7143  0.5948 -0.9473
  175MOL0     C23556   1.905   6.977   5.613 -0.8648 -0.6503 -0.3962
  175MOL0     C23557   1.979   7.111   5.593  0.2486  0.2953 -0.0459
  175MOL0     H23558   2.327   7.098   5.482 -0.5968 -1.2515  0.5469
  175MOL0     H23559   2.580   7.138   5.482 -0.7717 -0.2565 -0.2862
  175MOL0     H23560   2.810   7.080   5.474  0.2274  1.4751 -0.3033
  175MOL0     H23561   2.821   7.204   5.604 -1.3399 -0.0996 -0.8633
  175MOL0     H23562   3.052   7.114   5.544  1.0328  0.9003  1.5293
  175MOL0     H23563   2.991   6.956   5.604 -0.5068 -0.0155 -0.5372
  175MOL0     H23564   2.983   7.068   5.828  0.4920  0.2636  0.1107
  175MOL0     H23565   2.992   7.229   5.750  0.4133  1.1974 -0.9771
  175MOL0     H23566   3.224   7.032   5.737  2.1456 -0.0690  1.3624
  175MOL0     H23567   3.220   7.211   5.713 -1.8049 -0.0725 -0.7799
  175MOL0     H23568   3.179   7.223   5.975  0.5649  0.8528 -0.8372
  175MOL0     H23569   3.150   7.057   5.974  0.4629 -0.8279  0.0930
  175MOL0     H23570   3.359   7.137   6.066 -1.8907  0.5712  0.1079
  175MOL0     H23571   3.392   7.020   5.940 -2.2209 -0.5894 -0.6865
  175MOL0     H23572   3.435   7.240   5.789  1.1887 -0.5588 -1.6612
  175MOL0     H23573   3.559   7.193   5.910 -0.4179  0.2032 -0.2199
  175MOL0     H23574   3.515   7.430   5.913  0.4257 -0.1761 -0.7106
  175MOL0     H23575   3.361   7.407   6.003  1.4297  4.4447  0.2037
  175MOL0     H23576   3.338   7.332   6.232 -0.3839  0.0127 -1.3461
  175MOL0     H23577   3.376   7.341   6.484 -0.1187  0.8483  0.8826
  175MOL0     H23578   3.503   7.234   6.522 -1.2112 -1.7635 -0.7079
  175MOL0     H23579   3.545   7.412   6.668  0.4132 -3.4460 -0.6625
  175MOL0     H23580   3.663   7.447   6.537 -0.1801  0.1690  1.0870
  175MOL0     H23581   3.393   7.563   6.572 -1.0673 -1.5153 -3.8172
  175MOL0     H23582   3.521   7.621   6.454  2.3026 -1.5333  0.4813
  175MOL0     H23583   3.660   7.665   6.680  0.4268 -0.3494 -0.5534
  175MOL0     H23584   3.521   7.623   6.768 -1.7944 -1.1400 -0.4685
  175MOL0     H23585   3.371   7.992   6.586 -1.1933 -0.2758 -1.8421
  175MOL0     H23586   3.443   8.166   6.444  0.1992 -0.1821 -3.3737
  175MOL0     H23587   3.760   8.306   6.053  1.3631 -1.4869  0.5324
  175MOL0     H23588   3.877   8.502   5.951  0.7045  1.6220  0.4364
  175MOL0     H23589   4.053   8.571   5.865 -0.9868  0.8915  0.6753
  175MOL0     H23590   4.067   8.741   5.897  0.5143 -0.6514 -2.8676
  175MOL0     H23591   4.319   8.575   5.942  3.2909  0.5778 -1.2811
  175MOL0     H23592   4.252   8.573   5.774 -2.0800 -0.3351  0.2873
  175MOL0     H23593   4.257   8.809   5.751 -0.4421 -1.2647  0.7843
  175MOL0     H23594   4.284   8.825   5.930 -3.1001  0.0171 -0.1153
  175MOL0     H23595   4.479   8.700   5.718 -0.5268 -0.0135 -0.5803
  175MOL0     H23596   4.525   8.726   5.879 -1.4738  1.4900  0.5802
  175MOL0     H23597   4.494   8.966   5.857  0.1924 -1.9791  1.7023
  175MOL0     H23598   4.418   8.942   5.698  0.4084  0.3777 -0.5360
  175MOL0     H23599   4.707   8.837   5.712  0.3406  0.5609 -1.6456
  175MOL0     H23600   4.623   8.906   5.578 -0.3568 -0.5642 -0.2923
  175MOL0     H23601   4.774   9.031   5.792 -0.1120 -0.2080 -0.1604
  175MOL0     H23602   4.627   9.124   5.744 -0.0060  0.1321  0.6851
  175MOL0     H23603   4.719   9.119   5.510  1.0941 -2.0889 -0.8035
  175MOL0     H23604   4.819   9.207   5.631  1.3368 -0.6070 -1.8512
  175MOL0     H23605   4.158   8.481   6.280  1.0640 -0.3705 -1.8116
  175MOL0     H23606   4.042   8.279   6.354  0.6212  0.5384 -0.2210
  175MOL0     H23607   3.809   7.968   6.375 -0.7654 -2.2729  0.3213
  175MOL0     H23608   3.747   7.787   6.525 -0.6648 -0.6197  0.9540
  175MOL0     H23609   2.612   6.867   5.808  2.9901 -0.7114 -2.4610
  175MOL0     H23610   2.377   6.823   5.795 -2.1950  1.2072 -0.6684
  175MOL0     H23611   1.930   6.669   5.750  1.4470  1.2479  0.9627
  175MOL0     H23612   1.688   6.686   5.747 -4.0175  2.1246  0.5383
  175MOL0     H23613   1.501   6.805   5.824  1.3493  2.2652 -0.5086
  175MOL0     H23614   1.418   6.770   5.661 -1.5613 -1.0497  2.0664
  175MOL0     H23615   1.335   7.013   5.672  2.5451 -0.3545 -0.9020
  175MOL0     H23616   1.374   7.010   5.843 -1.0869  1.8525 -0.8736
  175MOL0     H23617   1.216   6.792   5.865 -1.2620  1.0191  2.6644
  175MOL0     H23618   1.166   6.829   5.706 -1.2028  1.1304  1.2429
  175MOL0     H23619   1.117   6.960   5.967  0.0712 -1.9828 -0.5334
  175MOL0     H23620   1.147   7.075   5.828  0.2676 -0.7464 -1.9926
  175MOL0     H23621   0.759   6.912   5.771  1.1660 -0.5377 -1.1875
  175MOL0     H23622   1.709   7.074   5.578 -0.8026 -0.8004 -2.6208
  175MOL0     H23623   1.916   7.197   5.570  1.1266  0.6309 -1.2998
  175MOL0     H23624   2.035   7.137   5.683 -0.2921 -3.2942  1.4723
  175MOL0     H23625   2.051   7.104   5.510 -1.2266 -1.4434 -1.2649
  176MOL0     O23626   2.855   7.079   7.053 -0.7583 -0.2306  0.1927
  176MOL0     C23627   2.960   7.112   7.102  0.0832 -0.0113  0.3889
  176MOL0     O23628   2.978   7.174   7.221  0.5257 -0.1476 -0.0608
  176MOL0     C23629   2.868   7.206   7.298  0.5867  0.0473  0.2849
  176MOL0     C23630   2.854   7.148   7.425  0.0266 -0.8682 -0.0467
  176MOL0     C23631   2.732   7.170   7.495  0.4370  0.8431 -0.1760
  176MOL0     C23632   2.624   7.231   7.436 -0.3354 -0.6783  0.4455
  176MOL0     O23633   2.508   7.237   7.506 -0.4233 -0.5036 -0.0278
  176MOL0     C23634   2.425   7.355   7.494 -0.0077  0.5600 -0.6243
  176MOL0     C23635   2.294   7.300   7.438  0.6413 -0.3614  1.0610
  176MOL0     C23636   2.197   7.240   7.546 -0.3527 -0.0807  0.5116
  176MOL0     C23637   2.093   7.145   7.484 -1.0257 -0.7160  0.5798
  176MOL0     C23638   1.996   7.092   7.595  0.3096 -0.5806  0.5479
  176MOL0     C23639   1.886   6.988   7.562  0.1926 -0.4447 -0.1602
  176MOL0     C23640   1.819   7.027   7.421 -0.1160 -0.1386 -0.0389
  176MOL0     C23641   1.695   6.943   7.384 -0.0379  0.3366 -0.7634
  176MOL0     N23642   1.589   6.961   7.475  0.4816  0.1829  0.6158
  176MOL0     C23643   1.531   7.077   7.511  0.0428  0.0078  0.6875
  176MOL0     C23644   1.444   7.038   7.607 -0.2891  0.2752 -0.1135
  176MOL0     C23645   1.339   7.131   7.667 -0.4837 -0.2426 -0.0398
  176MOL0     C23646   1.354   7.149   7.821  0.6970 -0.4650 -0.3646
  176MOL0     C23647   1.495   7.188   7.856  0.3404  0.5723  0.6632
  176MOL0     C23648   1.515   7.250   7.997 -0.0755  0.1014  0.1274
  176MOL0     O23649   1.639   7.325   8.002  0.3804 -0.5605 -0.5607
  176MOL0     C23650   1.743   7.257   8.062 -0.2044 -0.9145  1.0155
  176MOL0     C23651   1.763   7.265   8.200  0.0755  0.2632  0.3943
  176MOL0     C23652   1.875   7.209   8.250  0.8348 -0.7994  0.2833
  176MOL0     C23653   1.961   7.127   8.180 -0.2617  0.2982  0.3795
  176MOL0     C23654   2.073   7.054   8.249 -0.3290  0.2990  0.1299
  176MOL0     O23655   2.158   6.978   8.176 -0.2190  0.5961 -0.2258
  176MOL0     C23656   2.249   6.904   8.239  0.3984 -0.8474  1.0354
  176MOL0     C23657   2.211   6.776   8.282  0.7466 -0.0798  0.7549
  176MOL0     C23658   2.313   6.684   8.321  0.4535 -0.3354 -0.2341
  176MOL0     C23659   2.446   6.726   8.326 -0.1193  0.1730 -0.3784
  176MOL0     O23660   2.557   6.644   8.365 -0.0208 -0.0679 -0.7096
  176MOL0     C23661   2.522   6.506   8.402 -0.1665 -0.4786  0.3789
  176MOL0     C23662   2.495   6.413   8.282  1.1853  0.5689 -0.7338
  176MOL0     C23663   2.494   6.260   8.339 -0.0193 -0.4234 -0.2356
  176MOL0     C23664   2.380   6.229   8.426 -0.2673 -0.3342 -0.1055
  176MOL0     C23665   2.402   6.110   8.524  0.0854 -0.4573  0.1567
  176MOL0     C23666   2.412   5.977   8.452 -0.4477 -0.4135 -0.6535
  176MOL0     C23667   2.294   5.941   8.372  0.4275 -0.5725 -0.9490
  176MOL0     C23668   2.322   5.809   8.293 -0.1328 -0.8888  0.5642
  176MOL0    Cl23669   2.175   5.764   8.191  0.0813  0.0773 -0.1551
  176MOL0     C23670   2.476   6.856   8.287 -0.2139 -0.3675  0.3580
  176MOL0     C23671   2.376   6.950   8.240 -0.2188  0.0973  0.9625
  176MOL0     O23672   2.079   7.059   8.370 -0.0390 -0.0304 -0.2504
  176MOL0     C23673   1.944   7.123   8.046 -0.0452 -0.1626  0.4280
  176MOL0     C23674   1.833   7.182   7.984  0.6454 -0.3405  0.6170
  176MOL0     N23675   1.451   6.902   7.638 -0.1686  0.1511 -0.1300
  176MOL0     N23676   1.531   6.857   7.543 -0.2787 -0.6321 -0.5880
  176MOL0     C23677   2.633   7.280   7.308 -0.2431  0.6094  1.0439
  176MOL0     C23678   2.762   7.274   7.248  0.4508 -0.0007 -0.1540
  176MOL0     C23679   3.079   7.061   7.041 -0.7263  0.1169  0.4103
  176MOL0     C23680   3.155   6.963   7.100  0.4788  0.0931 -0.7581
  176MOL0     C23681   3.271   6.908   7.053 -0.6645 -0.3436  0.1911
  176MOL0     C23682   3.310   6.942   6.924 -0.0223  0.1474  0.7830
  176MOL0     O23683   3.419   6.899   6.865 -0.6440  0.0768 -0.4810
  176MOL0     C23684   3.511   6.813   6.937 -0.3001  0.6270  0.3369
  176MOL0     C23685   3.609   6.904   7.020  0.5455 -0.4832 -0.1673
  176MOL0     C23686   3.686   6.998   6.926  0.0197 -0.5049 -0.2440
  176MOL0     C23687   3.833   7.015   6.957 -0.4091  0.1837 -0.8228
  176MOL0     C23688   3.910   7.103   6.859  0.2996 -0.2740 -1.3293
  176MOL0     C23689   4.001   7.156   6.798  0.6532  0.5434 -0.1294
  176MOL0     C23690   3.225   7.041   6.852 -0.3379  0.6946  0.1885
  176MOL0     C23691   3.121   7.109   6.917  0.1463  0.7387  0.5028
  176MOL0     C23692   3.043   7.223   6.842  0.0551 -0.7868 -1.2671
  176MOL0     H23693   2.932   7.086   7.467  0.8124  1.0230  1.4843
  176MOL0     H23694   2.728   7.128   7.595  1.8110  1.0328 -0.0161
  176MOL0     H23695   2.405   7.411   7.586  2.5084  2.7517 -1.3136
  176MOL0     H23696   2.462   7.430   7.424 -1.5019  0.2313 -1.8183
  176MOL0     H23697   2.315   7.226   7.360  2.2422  1.3942 -0.2481
  176MOL0     H23698   2.243   7.383   7.389  0.8001 -0.6236  0.4361
  176MOL0     H23699   2.143   7.319   7.597 -3.0600 -1.6234  0.2114
  176MOL0     H23700   2.257   7.194   7.624  1.4073  1.7190  0.3146
  176MOL0     H23701   2.045   7.203   7.405  1.4032  3.8473  2.0891
  176MOL0     H23702   2.135   7.054   7.440  0.4678  1.0718 -1.9177
  176MOL0     H23703   2.062   7.054   7.674  2.8315  1.5892 -0.3507
  176MOL0     H23704   1.945   7.179   7.639 -0.0697 -0.5401  0.0339
  176MOL0     H23705   1.930   6.888   7.558  1.0739 -0.2213  2.2021
  176MOL0     H23706   1.810   6.985   7.641  1.8536  0.9162  1.5959
  176MOL0     H23707   1.899   7.009   7.348 -1.2647  1.0308 -1.6707
  176MOL0     H23708   1.797   7.133   7.408 -0.3622 -0.2949 -0.9563
  176MOL0     H23709   1.648   6.973   7.290  1.0602  2.7710 -0.6081
  176MOL0     H23710   1.723   6.837   7.376  0.5977  0.4274  0.0748
  176MOL0     H23711   1.548   7.169   7.456 -2.7852 -1.2383 -2.5976
  176MOL0     H23712   1.364   7.227   7.620  3.1351 -3.0799 -4.7891
  176MOL0     H23713   1.236   7.105   7.642 -1.1608  1.4437  0.8351
  176MOL0     H23714   1.284   7.229   7.845  1.5561 -0.1350  1.1489
  176MOL0     H23715   1.319   7.069   7.887 -0.2547  1.6972  1.9078
  176MOL0     H23716   1.521   7.265   7.782 -1.6978 -0.2971 -1.0804
  176MOL0     H23717   1.564   7.106   7.837  1.5912  1.6163  0.5125
  176MOL0     H23718   1.499   7.177   8.077 -1.9873 -0.5223 -0.7652
  176MOL0     H23719   1.432   7.318   8.021 -0.4632 -1.0884  2.4560
  176MOL0     H23720   1.689   7.323   8.256 -0.6569  0.0577 -0.3462
  176MOL0     H23721   1.893   7.221   8.357  0.6617  0.7609  0.1608
  176MOL0     H23722   2.108   6.744   8.269  0.5657  1.4581 -2.4962
  176MOL0     H23723   2.284   6.582   8.344 -2.3154  0.3677 -0.2110
  176MOL0     H23724   2.603   6.467   8.464  0.6497  0.0499 -0.3226
  176MOL0     H23725   2.433   6.508   8.466 -1.2705  2.1128 -1.0507
  176MOL0     H23726   2.399   6.434   8.235  2.2392  1.9927 -2.3795
  176MOL0     H23727   2.576   6.418   8.208  0.5173  0.2735 -1.5038
  176MOL0     H23728   2.493   6.189   8.256 -1.1838  0.1286 -0.7135
  176MOL0     H23729   2.589   6.234   8.388 -0.1672 -0.9669 -0.2304
  176MOL0     H23730   2.281   6.235   8.379 -0.8048  3.1908  1.1592
  176MOL0     H23731   2.368   6.314   8.494 -0.7341 -0.9680  0.6134
  176MOL0     H23732   2.322   6.101   8.598 -0.8146 -1.3711 -0.8930
  176MOL0     H23733   2.493   6.128   8.583  0.0953 -0.9978  0.3140
  176MOL0     H23734   2.493   5.995   8.380 -0.6763  0.0501 -0.7990
  176MOL0     H23735   2.434   5.899   8.525  0.2242 -1.6066 -2.0805
  176MOL0     H23736   2.261   6.019   8.303 -1.6221 -1.2588 -0.8096
  176MOL0     H23737   2.215   5.930   8.447 -0.0023  0.7513 -1.1801
  176MOL0     H23738   2.406   5.822   8.224 -0.3953 -0.1353  0.3674
  176MOL0     H23739   2.343   5.723   8.357  0.6806 -0.5755  0.7403
  176MOL0     H23740   2.574   6.901   8.295 -0.2234  0.0878 -1.5518
  176MOL0     H23741   2.411   7.046   8.203  2.4732 -1.7162 -1.7591
  176MOL0     H23742   2.011   7.058   7.991 -1.6994 -1.0827 -0.5765
  176MOL0     H23743   1.821   7.171   7.877  1.5479  0.7676  0.3816
  176MOL0     H23744   2.545   7.318   7.257  1.8425 -0.4578 -3.8951
  176MOL0     H23745   2.773   7.312   7.146  1.0891  1.7295  0.5180
  176MOL0     H23746   3.130   6.930   7.200  1.1960  0.2659 -0.5174
  176MOL0     H23747   3.326   6.839   7.116 -1.7659 -0.1646  1.3859
  176MOL0     H23748   3.570   6.757   6.864 -2.1264 -0.3156 -0.4735
  176MOL0     H23749   3.456   6.735   6.991  0.5074  2.1918  3.7278
  176MOL0     H23750   3.672   6.846   7.087 -0.6522 -0.3148  1.1338
  176MOL0     H23751   3.544   6.969   7.079 -3.1538 -2.0014 -2.1911
  176MOL0     H23752   3.635   7.093   6.943 -3.4677 -2.7078  3.6633
  176MOL0     H23753   3.679   6.960   6.824 -0.3317 -0.8509 -0.0950
  176MOL0     H23754   3.848   7.061   7.055  1.4121 -0.4607 -0.7713
  176MOL0     H23755   3.877   6.915   6.962  0.7926  0.7334  0.0198
  176MOL0     H23756   4.077   7.189   6.730  0.9957 -2.4902 -1.4136
  176MOL0     H23757   3.255   7.072   6.753 -1.7897  2.1615  0.1660
  176MOL0     H23758   2.980   7.187   6.760 -1.2094 -0.8806 -0.2894
  176MOL0     H23759   2.969   7.271   6.906  1.7239 -1.2148  1.1174
  176MOL0     H23760   3.113   7.301   6.811 -0.8116  0.5414 -0.0296
  177MOL0     O23761   0.338   5.050   0.466 -0.1570 -0.3424 -0.7233
  177MOL0     C23762   0.267   5.134   0.522  0.6326  0.1797  0.2220
  177MOL0     O23763   0.309   5.259   0.581  0.2074  0.3073  0.1938
  177MOL0     C23764   0.451   5.270   0.601 -0.0707  0.0243 -0.2017
  177MOL0     C23765   0.498   5.398   0.564 -0.0672 -0.1135 -0.3815
  177MOL0     C23766   0.634   5.429   0.583  0.7278 -0.7764  0.1040
  177MOL0     C23767   0.730   5.343   0.615  0.5187 -0.0195 -0.7304
  177MOL0     O23768   0.858   5.385   0.622 -0.3644  0.0571  0.0260
  177MOL0     C23769   0.948   5.307   0.701  0.4438  0.1428 -0.8543
  177MOL0     C23770   1.060   5.397   0.714 -0.6145 -0.2807 -0.0647
  177MOL0     C23771   1.149   5.406   0.596 -0.1113 -0.4558 -0.5152
  177MOL0     C23772   1.277   5.468   0.644 -0.4313 -0.8073 -0.1773
  177MOL0     C23773   1.391   5.435   0.549  0.1758  0.1744  0.0353
  177MOL0     C23774   1.532   5.443   0.614  0.7570 -0.0306 -0.5280
  177MOL0     C23775   1.583   5.589   0.642  0.7516  0.2296  0.6500
  177MOL0     C23776   1.728   5.593   0.701  0.8943  0.2615 -0.2602
  177MOL0     N23777   1.826   5.552   0.599  0.0300 -0.7722 -1.0724
  177MOL0     C23778   1.877   5.627   0.497  0.0182  0.3964  0.2995
  177MOL0     C23779   1.972   5.556   0.442 -0.1260  0.4820  0.2840
  177MOL0     C23780   2.046   5.605   0.313 -0.7284 -0.0268 -0.5055
  177MOL0     C23781   2.181   5.544   0.310 -0.5814 -0.5620 -1.0258
  177MOL0     C23782   2.292   5.591   0.417  0.6458 -0.8412 -0.4166
  177MOL0     C23783   2.411   5.500   0.402 -0.6031 -0.1902  0.8163
  177MOL0     O23784   2.522   5.532   0.490  0.7729 -0.0395  0.1383
  177MOL0     C23785   2.634   5.459   0.476 -0.0996 -0.1575  0.0499
  177MOL0     C23786   2.649   5.353   0.384 -0.0545 -0.0843 -0.2742
  177MOL0     C23787   2.764   5.269   0.377 -0.2326 -0.0809  0.2675
  177MOL0     C23788   2.873   5.291   0.457 -0.3758  0.5217 -0.4676
  177MOL0     C23789   2.985   5.200   0.449  0.5105 -0.5384  0.4916
  177MOL0     O23790   3.083   5.210   0.549 -0.0384  0.6626  0.6962
  177MOL0     C23791   3.195   5.128   0.533  0.8532  0.7952  0.5589
  177MOL0     C23792   3.299   5.176   0.461 -1.2084  0.3857  0.1866
  177MOL0     C23793   3.419   5.105   0.451  0.0154 -0.3927 -0.5571
  177MOL0     C23794   3.425   4.975   0.502  0.1200  0.2103 -0.6324
  177MOL0     O23795   3.539   4.908   0.496  0.1200  0.2998 -0.6613
  177MOL0     C23796   3.560   4.790   0.579 -0.4946  0.6842 -0.4748
  177MOL0     C23797   3.695   4.718   0.527 -0.3889 -0.3047 -0.4532
  177MOL0     C23798   3.820   4.808   0.561 -0.1659  0.5934 -0.3593
  177MOL0     C23799   3.822   4.859   0.705  0.1866  0.3598 -0.5006
  177MOL0     C23800   3.962   4.908   0.749  0.8386  0.3313  0.4052
  177MOL0     C23801   3.954   4.974   0.895  0.7982  0.6828  0.4797
  177MOL0     C23802   4.088   5.019   0.936  0.1419 -0.0998 -0.0699
  177MOL0     C23803   4.075   5.103   1.065  0.6631 -0.4601  0.1369
  177MOL0    Cl23804   4.235   5.153   1.125  0.2850  0.1809 -0.2224
  177MOL0     C23805   3.306   4.923   0.562 -0.3754 -0.1610  0.0685
  177MOL0     C23806   3.194   5.002   0.577 -0.0383  0.2400 -0.7490
  177MOL0     O23807   2.990   5.125   0.356  0.5953 -1.1278 -0.0299
  177MOL0     C23808   2.862   5.396   0.556  0.6645 -0.0855  0.5767
  177MOL0     C23809   2.746   5.472   0.559 -0.6249  0.4015 -0.6557
  177MOL0     N23810   1.992   5.435   0.510 -1.3066  0.2702 -0.0787
  177MOL0     N23811   1.901   5.437   0.599  0.2510 -0.1556 -0.2114
  177MOL0     C23812   0.676   5.219   0.654  0.6270 -0.8164  0.3133
  177MOL0     C23813   0.540   5.171   0.644  0.0569 -0.7135 -0.3324
  177MOL0     C23814   0.122   5.106   0.534  0.2477  0.0016 -1.0183
  177MOL0     C23815   0.073   4.970   0.519 -0.0209 -0.3515  0.6213
  177MOL0     C23816  -0.064   4.947   0.538  1.1493  0.1988 -0.4685
  177MOL0     C23817  -0.157   5.050   0.552 -0.3849  0.0424  0.1621
  177MOL0     O23818  -0.295   5.031   0.552  0.6147 -0.3809  0.0773
  177MOL0     C23819  -0.348   4.906   0.498 -0.3263 -0.1340 -0.2049
  177MOL0     C23820  -0.500   4.918   0.481  0.8278 -0.1500 -0.4587
  177MOL0     C23821  -0.574   4.798   0.419 -0.2633 -0.4852  0.2373
  177MOL0     C23822  -0.718   4.810   0.470 -0.1768  0.3702  0.1713
  177MOL0     C23823  -0.785   4.918   0.396 -1.1758 -0.3492  0.3620
  177MOL0     C23824  -0.847   5.015   0.346 -0.2699 -0.2295  0.7144
  177MOL0     C23825  -0.117   5.183   0.549  0.0129  0.3536  0.8840
  177MOL0     C23826   0.018   5.217   0.546  0.2179 -0.3329  1.1711
  177MOL0     C23827   0.052   5.367   0.552 -0.0009  0.1207  0.2790
  177MOL0     H23828   0.428   5.468   0.519  0.8244 -0.2094 -1.9962
  177MOL0     H23829   0.661   5.533   0.567  0.2357 -0.3223  1.9711
  177MOL0     H23830   0.899   5.281   0.795 -0.7293  1.4943 -1.0401
  177MOL0     H23831   0.986   5.221   0.645  2.1580 -1.9881  3.1768
  177MOL0     H23832   1.120   5.365   0.800 -2.1443 -0.2315  1.0579
  177MOL0     H23833   1.030   5.497   0.748 -0.4427 -0.2226 -0.0829
  177MOL0     H23834   1.101   5.475   0.525 -2.0730 -0.3846  0.8143
  177MOL0     H23835   1.176   5.305   0.563  1.7637  0.7192 -2.9238
  177MOL0     H23836   1.266   5.576   0.652  0.3155 -0.4603 -2.8429
  177MOL0     H23837   1.310   5.434   0.743  0.2381  0.8669  0.2046
  177MOL0     H23838   1.381   5.329   0.523 -1.3975  0.5933 -1.2220
  177MOL0     H23839   1.388   5.498   0.460  0.5995 -1.0693 -0.8992
  177MOL0     H23840   1.539   5.395   0.712 -0.2518  1.8943  0.5533
  177MOL0     H23841   1.608   5.396   0.552  1.1759 -1.1139  0.7482
  177MOL0     H23842   1.517   5.641   0.711  0.9034  1.9117 -0.4201
  177MOL0     H23843   1.576   5.646   0.549 -0.7786  0.8379  1.1042
  177MOL0     H23844   1.744   5.695   0.738 -1.4686 -0.1505  2.2727
  177MOL0     H23845   1.732   5.538   0.796  0.1661  1.9293  0.7885
  177MOL0     H23846   1.852   5.723   0.453 -0.5027  0.5682  0.9586
  177MOL0     H23847   1.996   5.570   0.223  1.4044 -0.6790 -1.5100
  177MOL0     H23848   2.057   5.713   0.321  0.2847 -0.1564  0.1129
  177MOL0     H23849   2.174   5.436   0.327  0.9575 -0.9616 -2.6308
  177MOL0     H23850   2.219   5.567   0.210  1.8725  1.4665  0.2580
  177MOL0     H23851   2.248   5.571   0.516 -0.3750  1.0706 -0.4514
  177MOL0     H23852   2.316   5.697   0.411  0.7176 -0.8706 -0.6423
  177MOL0     H23853   2.448   5.510   0.300  0.7749 -1.2542  1.1791
  177MOL0     H23854   2.380   5.397   0.422  1.7892 -1.2444 -0.5498
  177MOL0     H23855   2.559   5.328   0.330 -0.4568 -1.0862  0.8326
  177MOL0     H23856   2.759   5.177   0.319  0.5141 -0.3784  0.6527
  177MOL0     H23857   3.287   5.269   0.406 -2.2503  0.9508  1.3101
  177MOL0     H23858   3.506   5.148   0.402  0.4807 -0.2680  0.3517
  177MOL0     H23859   3.568   4.797   0.687 -1.1442  0.4642 -0.4078
  177MOL0     H23860   3.478   4.718   0.567 -0.0526 -0.0269  0.6891
  177MOL0     H23861   3.700   4.621   0.578  0.4486 -0.8007 -1.4422
  177MOL0     H23862   3.702   4.685   0.423  0.4234  0.6878 -0.7367
  177MOL0     H23863   3.911   4.749   0.542 -0.1597 -0.1353  1.7330
  177MOL0     H23864   3.819   4.888   0.486 -1.9415  2.7218  1.7937
  177MOL0     H23865   3.779   4.785   0.773 -0.0009  0.2068 -0.7817
  177MOL0     H23866   3.750   4.941   0.718 -0.2404 -0.2792  1.5530
  177MOL0     H23867   4.014   4.969   0.674  0.2447 -2.6904 -2.7292
  177MOL0     H23868   4.014   4.812   0.755  0.3888  0.0712  0.2069
  177MOL0     H23869   3.880   5.055   0.896  0.7715  0.6816  2.4133
  177MOL0     H23870   3.913   4.900   0.965  1.0858 -2.1553 -2.1692
  177MOL0     H23871   4.110   5.088   0.854  0.2260 -0.7499 -0.6066
  177MOL0     H23872   4.156   4.933   0.939  0.4990  0.1115 -1.4193
  177MOL0     H23873   4.024   5.197   1.041 -1.0160 -1.4013 -0.1200
  177MOL0     H23874   4.009   5.050   1.134 -2.2712  2.7661  0.1192
  177MOL0     H23875   3.286   4.823   0.599  1.3849  0.0104  1.6153
  177MOL0     H23876   3.105   4.966   0.629 -0.2279 -0.7850 -1.7345
  177MOL0     H23877   2.939   5.396   0.632  4.0702 -4.8477 -2.3546
  177MOL0     H23878   2.744   5.549   0.636  0.5261 -3.2802  3.4236
  177MOL0     H23879   0.742   5.140   0.687 -1.4366 -2.6340  0.3129
  177MOL0     H23880   0.507   5.072   0.673  2.4467 -1.4201  0.1868
  177MOL0     H23881   0.152   4.896   0.519  3.2164  2.7657 -0.6158
  177MOL0     H23882  -0.108   4.848   0.531  1.2666  0.2573 -2.3764
  177MOL0     H23883  -0.338   4.817   0.560  0.0566 -0.2925 -0.4890
  177MOL0     H23884  -0.306   4.889   0.398 -2.0682 -1.3326 -0.7795
  177MOL0     H23885  -0.512   5.008   0.419  0.9158  0.6959  0.7192
  177MOL0     H23886  -0.533   4.937   0.583  2.7874  3.8648 -0.3893
  177MOL0     H23887  -0.522   4.719   0.473 -0.5287  0.4420  1.9212
  177MOL0     H23888  -0.572   4.808   0.310 -4.5145 -0.5703  0.0116
  177MOL0     H23889  -0.764   4.712   0.456  2.7377 -1.1416  0.5274
  177MOL0     H23890  -0.741   4.832   0.575 -1.5638 -1.0460  0.1989
  177MOL0     H23891  -0.901   5.092   0.295 -2.2554 -0.5085  2.2881
  177MOL0     H23892  -0.192   5.261   0.548 -0.7191 -0.3276 -0.6126
  177MOL0     H23893  -0.041   5.426   0.555  0.3525  0.6781  0.4242
  177MOL0     H23894   0.113   5.381   0.642  0.0194 -0.4059  0.3477
  177MOL0     H23895   0.115   5.398   0.469 -0.1906 -2.6094 -0.9793
  178MOL0     O23896   6.423   8.243  10.688 -0.2400  0.3901 -0.7768
  178MOL0     C23897   6.437   8.218  10.570 -0.0608 -0.2085  0.7771
  178MOL0     O23898   6.556   8.208  10.501  0.3038  0.0054 -0.1184
  178MOL0     C23899   6.673   8.253  10.550  0.8538 -0.2163 -0.4444
  178MOL0     C23900   6.687   8.349  10.648  0.4464 -0.2104 -0.0553
  178MOL0     C23901   6.821   8.396  10.674  0.5878  0.4590  0.0521
  178MOL0     C23902   6.929   8.353  10.600  0.5988 -0.4737 -0.4833
  178MOL0     O23903   7.051   8.419  10.617  0.0760 -0.1740 -0.5389
  178MOL0     C23904   7.159   8.356  10.553  0.4953  0.7076  0.1718
  178MOL0     C23905   7.291   8.419  10.597  0.1613 -0.4958  0.9931
  178MOL0     C23906   7.340   8.542  10.521  0.3983  0.7744 -0.5887
  178MOL0     C23907   7.335   8.526  10.363 -0.4829 -0.1144 -0.3925
  178MOL0     C23908   7.388   8.656  10.300  0.0179 -0.3031  0.1401
  178MOL0     C23909   7.402   8.654  10.146  0.1705 -0.5958 -0.9519
  178MOL0     C23910   7.524   8.574  10.099  0.5235  0.0154  0.0080
  178MOL0     C23911   7.531   8.570   9.948  0.1657 -0.8446  0.6970
  178MOL0     N23912   7.657   8.498   9.909 -0.1550 -0.3643 -1.0500
  178MOL0     C23913   7.732   8.542   9.805 -0.3948 -0.3181  0.3911
  178MOL0     C23914   7.831   8.447   9.801  0.7322  0.4806  0.1572
  178MOL0     C23915   7.921   8.427   9.695  0.2158 -0.0160  0.5452
  178MOL0     C23916   8.049   8.500   9.717 -0.1400 -0.0054 -0.2370
  178MOL0     C23917   8.152   8.456   9.616  0.0008 -0.5009 -0.5096
  178MOL0     C23918   8.267   8.559   9.609  0.4101 -0.2500 -0.8064
  178MOL0     O23919   8.383   8.481   9.570 -0.0996  0.0964 -0.0591
  178MOL0     C23920   8.504   8.548   9.553  0.8219  0.3586 -0.9645
  178MOL0     C23921   8.611   8.461   9.529 -0.5054  0.8855  0.3979
  178MOL0     C23922   8.732   8.499   9.472 -0.0500 -1.0616 -0.2130
  178MOL0     C23923   8.756   8.637   9.458  0.6117  0.6848  0.1308
  178MOL0     C23924   8.891   8.686   9.405 -0.0836  0.1316 -0.7317
  178MOL0     O23925   8.992   8.601   9.405  0.4540 -0.1410 -0.0764
  178MOL0     C23926   9.100   8.630   9.325  0.5350  0.3218  0.1594
  178MOL0     C23927   9.089   8.627   9.184  0.0399  0.4501 -0.0768
  178MOL0     C23928   9.205   8.657   9.104  0.9325 -0.5809 -0.5570
  178MOL0     C23929   9.332   8.674   9.162  0.1501 -0.9231 -0.4674
  178MOL0     O23930   9.437   8.701   9.081 -0.0497  0.4056 -0.4890
  178MOL0     C23931   9.562   8.647   9.127 -0.2667 -0.3362 -0.0928
  178MOL0     C23932   9.669   8.692   9.035  0.5643  0.0173 -0.6335
  178MOL0     C23933   9.792   8.610   9.078 -0.3735 -0.3379  0.2594
  178MOL0     C23934   9.807   8.465   9.021  0.5668 -0.4812  0.1753
  178MOL0     C23935   9.949   8.413   9.050  0.7228 -0.3197  0.0808
  178MOL0     C23936   9.972   8.285   8.964 -1.1166  0.2512  0.0132
  178MOL0     C23937   9.975   8.153   9.037 -0.4499  0.3181  0.3775
  178MOL0     C23938  10.011   8.036   8.936  0.1258  0.3689 -0.5608
  178MOL0    Cl23939  10.012   7.871   9.012 -0.5887 -0.2340  0.0429
  178MOL0     C23940   9.346   8.676   9.305 -0.4004  0.3146  0.3169
  178MOL0     C23941   9.224   8.657   9.386  0.6352  0.6713 -0.1960
  178MOL0     O23942   8.897   8.803   9.364  0.3553 -0.0906 -0.0013
  178MOL0     C23943   8.660   8.732   9.491 -0.2828 -0.8118  0.4698
  178MOL0     C23944   8.531   8.687   9.541  0.6079  0.5035 -0.6553
  178MOL0     N23945   7.807   8.342   9.888  0.0613  0.1872  0.1969
  178MOL0     N23946   7.703   8.373   9.952  0.6096 -0.6610 -0.0864
  178MOL0     C23947   6.906   8.259  10.498 -0.8254 -0.5561  0.4049
  178MOL0     C23948   6.778   8.208  10.478  0.3167  0.4677  0.3056
  178MOL0     C23949   6.320   8.177  10.493 -0.6249 -0.0278 -0.3035
  178MOL0     C23950   6.341   8.095  10.376 -0.0869 -0.5416 -0.3321
  178MOL0     C23951   6.238   8.038  10.301 -0.0267  0.2490  0.6480
  178MOL0     C23952   6.106   8.055  10.343  0.1487 -0.1466  0.3782
  178MOL0     O23953   6.007   7.999  10.264 -0.1889 -0.4926 -1.0165
  178MOL0     C23954   5.899   7.937  10.336 -0.1686  0.4953 -0.1511
  178MOL0     C23955   5.822   7.856  10.220  0.2136 -0.4085  0.1490
  178MOL0     C23956   5.911   7.750  10.151  0.5591  0.5533 -0.3591
  178MOL0     C23957   5.821   7.659  10.057 -0.1740  0.0249  0.8975
  178MOL0     C23958   5.887   7.536  10.005 -0.2188  0.8060 -0.6167
  178MOL0     C23959   5.952   7.435   9.974  0.5076 -0.4895  0.8669
  178MOL0     C23960   6.082   8.144  10.452 -0.2852  0.1765  0.3871
  178MOL0     C23961   6.181   8.201  10.526 -0.0903 -0.2050 -0.5995
  178MOL0     C23962   6.134   8.286  10.647 -0.8019  0.3065  0.0783
  178MOL0     H23963   6.603   8.388  10.705  0.1526 -1.3436  0.3276
  178MOL0     H23964   6.842   8.477  10.744  1.0965  2.3986 -2.2330
  178MOL0     H23965   7.171   8.253  10.587  2.6769  0.7698 -0.2352
  178MOL0     H23966   7.154   8.339  10.445 -0.6778 -0.7844  0.4286
  178MOL0     H23967   7.373   8.351  10.572 -0.1389 -0.2197 -0.8569
  178MOL0     H23968   7.299   8.444  10.703  2.9322  1.2285  0.4824
  178MOL0     H23969   7.442   8.564  10.553  0.8155 -0.0269 -1.3054
  178MOL0     H23970   7.275   8.627  10.546 -1.9751 -1.6285  2.0961
  178MOL0     H23971   7.402   8.444  10.334 -0.4141  0.0717 -0.7513
  178MOL0     H23972   7.229   8.514  10.336 -0.8145  0.3023  0.6723
  178MOL0     H23973   7.329   8.740  10.338 -4.7917 -1.7398 -3.1877
  178MOL0     H23974   7.490   8.658  10.339 -0.6640  2.3209  2.0440
  178MOL0     H23975   7.315   8.608  10.098 -2.3663  0.3741  2.2924
  178MOL0     H23976   7.415   8.759  10.120  0.3338  0.7534  3.6000
  178MOL0     H23977   7.512   8.470  10.129 -1.2568  0.0497 -0.4574
  178MOL0     H23978   7.614   8.615  10.147 -0.3704  2.8087 -0.5283
  178MOL0     H23979   7.435   8.532   9.914 -0.7196  0.3385  1.7310
  178MOL0     H23980   7.527   8.673   9.909 -0.2355 -1.8041 -1.9935
  178MOL0     H23981   7.725   8.636   9.751 -2.1099 -0.0655  0.9982
  178MOL0     H23982   7.947   8.320   9.696 -2.9426 -0.9189 -1.0646
  178MOL0     H23983   7.875   8.449   9.599 -1.6300 -1.4939  1.0122
  178MOL0     H23984   8.039   8.609   9.706 -0.6253  0.2579  2.3405
  178MOL0     H23985   8.096   8.480   9.813 -0.5499 -1.7801 -0.3716
  178MOL0     H23986   8.108   8.440   9.517  0.1002 -1.4382 -0.4181
  178MOL0     H23987   8.190   8.357   9.646 -1.5234 -0.7026  0.9550
  178MOL0     H23988   8.293   8.593   9.710  1.5372 -2.7931 -0.1531
  178MOL0     H23989   8.242   8.650   9.553 -1.9986 -0.0506  0.4399
  178MOL0     H23990   8.592   8.354   9.529  3.4725  0.0293 -0.8040
  178MOL0     H23991   8.817   8.434   9.454  0.4557 -0.1595 -1.1375
  178MOL0     H23992   8.998   8.604   9.129  0.4768  1.7749 -1.4168
  178MOL0     H23993   9.197   8.672   8.997 -0.1318  1.6107 -0.2209
  178MOL0     H23994   9.584   8.697   9.222 -0.0642  1.6442 -1.1236
  178MOL0     H23995   9.575   8.539   9.127  1.1028 -0.2174 -1.4011
  178MOL0     H23996   9.638   8.677   8.931 -2.1769  2.5255 -0.2975
  178MOL0     H23997   9.679   8.801   9.043  3.0544 -0.1678 -0.2748
  178MOL0     H23998   9.878   8.662   9.035  0.1063 -0.3675  1.1505
  178MOL0     H23999   9.807   8.605   9.186 -2.6152  0.7067  0.6690
  178MOL0     H24000   9.782   8.480   8.915 -1.2859 -0.0423  0.6412
  178MOL0     H24001   9.728   8.409   9.072 -0.8266  3.3736  2.7242
  178MOL0     H24002   9.952   8.399   9.158 -1.1474  2.8464  0.6405
  178MOL0     H24003  10.022   8.491   9.025  0.1818 -0.0197 -0.5828
  178MOL0     H24004   9.894   8.283   8.887 -1.8421 -0.8849  0.7570
  178MOL0     H24005  10.067   8.309   8.916 -0.8438  0.9202  0.8552
  178MOL0     H24006   9.876   8.136   9.078 -0.4803 -0.0434  0.1639
  178MOL0     H24007  10.045   8.155   9.121 -2.7306  0.3398  2.3652
  178MOL0     H24008   9.935   8.034   8.857  0.3037 -0.0613 -0.7229
  178MOL0     H24009  10.115   8.055   8.908  0.8633  1.8852  2.6764
  178MOL0     H24010   9.434   8.711   9.359 -0.0749 -0.1865  0.1239
  178MOL0     H24011   9.228   8.684   9.491  0.3688 -2.1910  0.6322
  178MOL0     H24012   8.683   8.836   9.471  0.8891 -1.3917 -1.5363
  178MOL0     H24013   8.458   8.758   9.579  1.0806 -0.2619  1.9172
  178MOL0     H24014   6.985   8.226  10.430 -0.6377  2.4707 -1.0184
  178MOL0     H24015   6.761   8.140  10.395  1.2473  2.2242 -1.4078
  178MOL0     H24016   6.440   8.070  10.339  0.5011  0.0629  0.7869
  178MOL0     H24017   6.250   7.981  10.209  0.1449  2.2681 -0.6469
  178MOL0     H24018   5.835   8.009  10.388  2.9179 -0.8547  6.8107
  178MOL0     H24019   5.943   7.864  10.405  0.8449  2.2157  1.0995
  178MOL0     H24020   5.787   7.929  10.147  1.9655  0.3877  0.0766
  178MOL0     H24021   5.732   7.816  10.269 -0.7409 -0.5450 -1.6173
  178MOL0     H24022   5.978   7.690  10.213  2.4753 -1.7255 -4.2087
  178MOL0     H24023   5.988   7.803  10.094  0.1690  1.0477 -0.4335
  178MOL0     H24024   5.724   7.630  10.099 -0.9473 -0.3755 -1.0275
  178MOL0     H24025   5.798   7.731   9.977 -4.2100  1.2389  2.8546
  178MOL0     H24026   6.005   7.347   9.946 -0.0070 -1.8248  3.7321
  178MOL0     H24027   5.975   8.153  10.467 -0.7312 -0.0981 -2.0899
  178MOL0     H24028   6.030   8.256  10.660 -1.5846  1.5528 -2.4925
  178MOL0     H24029   6.187   8.246  10.733 -0.9563 -0.2827 -0.0959
  178MOL0     H24030   6.147   8.394  10.633 -1.1223  0.5873  1.8143
  179MOL0     O24031   0.475   8.916   3.612 -0.4348 -0.5370  0.0115
  179MOL0     C24032   0.417   8.930   3.716 -0.7232  0.7172  0.2054
  179MOL0     O24033   0.474   8.952   3.841 -0.6756  0.1684 -0.0615
  179MOL0     C24034   0.605   8.993   3.844 -0.0319 -0.0929 -0.0894
  179MOL0     C24035   0.708   8.900   3.843 -0.4623  0.0166 -0.0912
  179MOL0     C24036   0.842   8.940   3.839  0.3732  0.0323  0.0089
  179MOL0     C24037   0.871   9.079   3.830 -0.6045  0.1127  0.0888
  179MOL0     O24038   1.007   9.112   3.834  0.8085 -0.3934 -0.3099
  179MOL0     C24039   1.037   9.254   3.849 -0.1459 -0.0350 -0.0435
  179MOL0     C24040   1.190   9.268   3.879 -0.4515 -0.0834 -0.8057
  179MOL0     C24041   1.282   9.230   3.766 -0.2668  0.7223 -0.4552
  179MOL0     C24042   1.417   9.190   3.830 -0.3794  0.7740  0.3465
  179MOL0     C24043   1.531   9.155   3.739  0.3227 -0.7847 -0.5856
  179MOL0     C24044   1.569   9.287   3.664  0.1181 -0.1010 -0.4923
  179MOL0     C24045   1.714   9.292   3.622 -0.0212 -0.5378  0.0821
  179MOL0     C24046   1.817   9.280   3.733 -0.5121 -0.8420  0.3356
  179MOL0     N24047   1.949   9.327   3.685 -0.5999 -0.1337 -0.3225
  179MOL0     C24048   1.991   9.461   3.670  0.2916  0.8172  0.2636
  179MOL0     C24049   2.107   9.442   3.602  0.0742 -0.4690 -0.6031
  179MOL0     C24050   2.197   9.534   3.530 -0.1352 -0.2834  0.8702
  179MOL0     C24051   2.348   9.494   3.550  0.1171  0.9838  0.7807
  179MOL0     C24052   2.444   9.577   3.462 -0.2851 -0.8628  0.0002
  179MOL0     C24053   2.591   9.524   3.465 -0.1114  0.5140 -0.5285
  179MOL0     O24054   2.661   9.575   3.342  0.7173  0.0722 -0.1198
  179MOL0     C24055   2.781   9.529   3.304  0.0045 -0.2628 -0.1477
  179MOL0     C24056   2.827   9.605   3.196 -0.2433  0.2699 -0.2759
  179MOL0     C24057   2.945   9.567   3.130  0.7974  1.1732  0.4893
  179MOL0     C24058   3.028   9.471   3.191  0.0447  0.2806  0.4548
  179MOL0     C24059   3.153   9.443   3.130 -0.1151  0.3887 -0.4995
  179MOL0     O24060   3.225   9.336   3.189 -0.9754  0.1385  0.5843
  179MOL0     C24061   3.361   9.323   3.153 -0.0821 -0.1704  0.7245
  179MOL0     C24062   3.417   9.202   3.118  1.6608 -0.5578  0.2059
  179MOL0     C24063   3.549   9.196   3.078  0.3819  1.0847 -0.2235
  179MOL0     C24064   3.640   9.304   3.088  0.7476  0.1503  0.2038
  179MOL0     O24065   3.765   9.277   3.037 -0.0526 -0.3173 -0.2281
  179MOL0     C24066   3.867   9.377   3.038 -0.2952  0.1854 -0.5657
  179MOL0     C24067   3.995   9.351   2.954  0.3522  0.0561  0.4496
  179MOL0     C24068   4.071   9.480   2.935  0.1272  0.1281  0.3617
  179MOL0     C24069   4.209   9.440   2.869  0.3538 -0.1166  0.7345
  179MOL0     C24070   4.307   9.558   2.861 -0.0509  0.6153 -0.0006
  179MOL0     C24071   4.447   9.524   2.840 -1.0742 -0.2318  0.1056
  179MOL0     C24072   4.509   9.607   2.725 -0.6092  0.0844  0.0773
  179MOL0     C24073   4.639   9.549   2.677 -0.0033  0.0165 -0.6457
  179MOL0    Cl24074   4.762   9.543   2.807 -0.1587  0.1731  0.3617
  179MOL0     C24075   3.583   9.421   3.127 -0.6860  0.3201  0.2051
  179MOL0     C24076   3.449   9.438   3.154  0.7760  0.1124  0.0707
  179MOL0     O24077   3.198   9.533   3.064  0.0473  0.0491  0.6022
  179MOL0     C24078   2.985   9.404   3.303 -0.2085 -0.3558  0.2249
  179MOL0     C24079   2.859   9.429   3.359  0.1412  1.0567  0.5832
  179MOL0     N24080   2.153   9.317   3.613 -0.7744  0.4232 -0.8587
  179MOL0     N24081   2.057   9.243   3.661  0.7180  0.9192 -0.4315
  179MOL0     C24082   0.765   9.169   3.830 -0.6959 -0.6199 -0.2700
  179MOL0     C24083   0.632   9.130   3.822 -0.8433  1.0392 -0.4602
  179MOL0     C24084   0.269   8.899   3.717  0.2516 -0.2932 -1.0135
  179MOL0     C24085   0.188   8.979   3.797  0.7364  0.4549 -0.1748
  179MOL0     C24086   0.046   8.976   3.783 -0.7434 -0.1777  0.3529
  179MOL0     C24087  -0.018   8.882   3.710 -0.4496 -0.7250 -0.0641
  179MOL0     O24088  -0.152   8.891   3.715  0.0719  0.0361 -0.1566
  179MOL0     C24089  -0.235   8.785   3.670  0.0988  0.5820  0.7756
  179MOL0     C24090  -0.283   8.799   3.527 -0.8797  0.4114 -0.2744
  179MOL0     C24091  -0.425   8.739   3.505 -0.9122 -0.5151 -0.4478
  179MOL0     C24092  -0.503   8.803   3.390  0.1443  0.0825  0.7893
  179MOL0     C24093  -0.467   8.756   3.260 -0.5520  0.9188 -0.4087
  179MOL0     C24094  -0.429   8.714   3.146  0.8377  0.3135 -0.5433
  179MOL0     C24095   0.063   8.785   3.645 -0.0355 -0.3058 -0.0855
  179MOL0     C24096   0.201   8.796   3.641  0.0492 -0.5524 -0.2465
  179MOL0     C24097   0.276   8.701   3.549  0.3416  1.0330 -0.1642
  179MOL0     H24098   0.691   8.793   3.844 -3.9318  0.3964  3.0714
  179MOL0     H24099   0.928   8.875   3.826  0.5828  0.4227 -0.5682
  179MOL0     H24100   1.017   9.309   3.757  2.6596  0.4647 -0.4660
  179MOL0     H24101   0.979   9.293   3.933  1.3506  1.5882  0.2963
  179MOL0     H24102   1.221   9.213   3.968 -0.1610  2.9414  1.1083
  179MOL0     H24103   1.200   9.372   3.912 -1.4686  0.2634 -1.5326
  179MOL0     H24104   1.281   9.319   3.703 -0.0201  2.2488  1.6039
  179MOL0     H24105   1.255   9.147   3.700 -2.3304  0.4861  0.6053
  179MOL0     H24106   1.462   9.268   3.893  0.3517  1.7928 -1.3771
  179MOL0     H24107   1.399   9.103   3.894 -0.2952  0.7797  0.3795
  179MOL0     H24108   1.614   9.114   3.798 -0.8317  0.1483  1.8122
  179MOL0     H24109   1.514   9.078   3.662 -0.6135  0.1394 -1.3356
  179MOL0     H24110   1.508   9.301   3.574 -1.5972  3.4888  1.0382
  179MOL0     H24111   1.538   9.369   3.729 -1.2131 -2.6171  2.2708
  179MOL0     H24112   1.733   9.391   3.580 -0.6180 -0.4514  0.0071
  179MOL0     H24113   1.736   9.220   3.542  1.1501 -0.8335  0.6505
  179MOL0     H24114   1.789   9.344   3.818 -1.4397 -0.6344 -0.1090
  179MOL0     H24115   1.833   9.177   3.765  0.2202 -1.3037 -1.4165
  179MOL0     H24116   1.929   9.548   3.693  2.9426  2.4898  1.6427
  179MOL0     H24117   2.169   9.540   3.425  2.6887 -2.9878 -0.1871
  179MOL0     H24118   2.181   9.633   3.574 -3.0595 -0.4152  0.3082
  179MOL0     H24119   2.375   9.497   3.656 -1.2687  1.0593  1.1482
  179MOL0     H24120   2.372   9.391   3.521  3.6080  2.1265 -1.0252
  179MOL0     H24121   2.442   9.680   3.500 -0.5689 -0.5050 -0.9475
  179MOL0     H24122   2.415   9.583   3.357 -0.1597 -1.2145 -0.0546
  179MOL0     H24123   2.596   9.415   3.466  1.5680  0.5572 -0.1782
  179MOL0     H24124   2.647   9.559   3.552 -0.2707 -2.6907  0.9900
  179MOL0     H24125   2.770   9.688   3.156 -1.0462 -0.7970 -1.4461
  179MOL0     H24126   2.977   9.619   3.041 -0.3548 -0.1009 -0.7229
  179MOL0     H24127   3.357   9.113   3.127 -0.9088  1.1848  1.8500
  179MOL0     H24128   3.582   9.109   3.022  0.4568  1.6066 -1.0097
  179MOL0     H24129   3.819   9.467   2.998 -2.1910 -1.0831 -1.3364
  179MOL0     H24130   3.901   9.401   3.139  3.5785 -0.1680 -1.6481
  179MOL0     H24131   4.052   9.273   3.006 -0.0899  0.0984  1.0160
  179MOL0     H24132   3.958   9.323   2.855 -3.3868 -0.5421  1.8553
  179MOL0     H24133   4.007   9.550   2.880  1.9735  1.3726 -0.3038
  179MOL0     H24134   4.106   9.525   3.028 -1.6979  1.5194  0.4381
  179MOL0     H24135   4.192   9.393   2.771  1.9802 -3.0079  1.7292
  179MOL0     H24136   4.262   9.370   2.934 -0.7075 -1.0167  0.6754
  179MOL0     H24137   4.298   9.621   2.950 -1.4163  1.7561 -0.9004
  179MOL0     H24138   4.270   9.617   2.777 -0.7948  2.0552  1.2753
  179MOL0     H24139   4.512   9.538   2.927 -0.1023 -0.9825 -0.4673
  179MOL0     H24140   4.454   9.420   2.809 -1.8844  0.0456 -1.0433
  179MOL0     H24141   4.519   9.712   2.755  0.7789 -0.3804  1.3412
  179MOL0     H24142   4.443   9.602   2.638 -0.4151  0.1240 -0.0741
  179MOL0     H24143   4.622   9.446   2.643 -0.0409 -0.0067 -0.5584
  179MOL0     H24144   4.674   9.610   2.594  0.2717  0.1163 -0.4557
  179MOL0     H24145   3.647   9.508   3.137 -2.1227  1.5025 -0.5097
  179MOL0     H24146   3.407   9.533   3.183 -1.8511 -0.8796 -0.2600
  179MOL0     H24147   3.039   9.322   3.350 -1.0874 -3.6272 -3.8648
  179MOL0     H24148   2.825   9.370   3.444 -0.4447 -0.0535 -0.3830
  179MOL0     H24149   0.772   9.277   3.822 -0.5595 -0.4485  1.7118
  179MOL0     H24150   0.560   9.210   3.806  0.1499  1.4985 -2.9521
  179MOL0     H24151   0.222   9.068   3.848  2.0673 -0.0617 -0.1396
  179MOL0     H24152  -0.006   9.064   3.819  1.9638  0.8015  2.1754
  179MOL0     H24153  -0.316   8.784   3.744  1.4037 -1.1655  2.2790
  179MOL0     H24154  -0.189   8.686   3.672 -2.5458 -0.7347  0.2646
  179MOL0     H24155  -0.215   8.742   3.463 -1.4995  2.2778 -2.7311
  179MOL0     H24156  -0.278   8.904   3.497  0.8521  0.6408  0.6450
  179MOL0     H24157  -0.479   8.748   3.600 -0.9582 -0.1793 -0.5060
  179MOL0     H24158  -0.420   8.633   3.476 -2.1522  0.3007 -4.2239
  179MOL0     H24159  -0.603   8.763   3.410  0.5275 -0.2146  2.2123
  179MOL0     H24160  -0.516   8.911   3.396 -0.7652  0.0385 -0.1073
  179MOL0     H24161  -0.398   8.678   3.050 -1.3254 -3.4381 -0.0083
  179MOL0     H24162   0.009   8.705   3.595  0.0113  0.6548 -1.7502
  179MOL0     H24163   0.203   8.625   3.520  0.9204  0.8062 -1.0571
  179MOL0     H24164   0.326   8.751   3.466 -3.3688  0.6734 -2.8846
  179MOL0     H24165   0.344   8.649   3.617 -2.3416 -3.1700 -0.3077
  180MOL0     O24166   5.567  10.432   8.852  0.1989  0.5417 -0.5713
  180MOL0     C24167   5.474  10.475   8.787 -0.4257 -1.2511  0.1541
  180MOL0     O24168   5.482  10.501   8.651 -0.0218  0.5180  0.2654
  180MOL0     C24169   5.601  10.532   8.593  0.4228 -0.5246 -0.0747
  180MOL0     C24170   5.692  10.617   8.650  0.3875  0.8699 -0.3111
  180MOL0     C24171   5.812  10.633   8.594 -0.3799  0.0831 -0.1140
  180MOL0     C24172   5.851  10.567   8.476  0.0942 -0.1795 -0.2199
  180MOL0     O24173   5.975  10.605   8.424  0.8009 -0.7723 -0.1078
  180MOL0     C24174   5.993  10.614   8.277  0.2894 -0.1818  0.1286
  180MOL0     C24175   6.127  10.665   8.248 -0.6748  0.3693 -0.6547
  180MOL0     C24176   6.144  10.671   8.097 -0.4078  0.8739  0.5320
  180MOL0     C24177   6.288  10.700   8.053  0.2060 -0.0785 -0.7875
  180MOL0     C24178   6.303  10.733   7.904  0.2765  0.6474  0.5132
  180MOL0     C24179   6.459  10.733   7.865  0.2621 -0.5729  0.2112
  180MOL0     C24180   6.496  10.765   7.724  0.4421 -0.8853 -0.0166
  180MOL0     C24181   6.412  10.869   7.660  0.0306  0.1360 -0.6194
  180MOL0     N24182   6.443  11.010   7.699  0.3337  0.0528 -0.1228
  180MOL0     C24183   6.352  11.107   7.720  0.3313 -0.2370 -0.1965
  180MOL0     C24184   6.413  11.225   7.680 -0.2006  0.0499 -0.0340
  180MOL0     C24185   6.353  11.363   7.668 -0.0714 -0.1402 -0.8916
  180MOL0     C24186   6.322  11.402   7.520  0.2957  0.5705  0.1067
  180MOL0     C24187   6.257  11.548   7.533 -0.8245  0.2196  0.4563
  180MOL0     C24188   6.105  11.546   7.550 -0.9039 -0.1532 -0.6529
  180MOL0     O24189   6.060  11.677   7.532  0.3048 -0.4433 -0.1548
  180MOL0     C24190   5.924  11.689   7.512 -0.0639 -0.3194  0.2869
  180MOL0     C24191   5.873  11.818   7.479 -0.0835  0.0305  0.0300
  180MOL0     C24192   5.737  11.841   7.465 -1.0894 -1.1416  0.8684
  180MOL0     C24193   5.639  11.736   7.478 -0.2313 -0.4291 -0.3589
  180MOL0     C24194   5.499  11.760   7.449  0.2208 -0.3682 -0.1331
  180MOL0     O24195   5.439  11.642   7.430  0.2822  0.1502 -0.4070
  180MOL0     C24196   5.302  11.637   7.403  0.1311 -0.4429 -0.4872
  180MOL0     C24197   5.263  11.635   7.271  0.5435 -0.0969  0.4288
  180MOL0     C24198   5.129  11.600   7.236  0.0980 -0.8170 -0.9013
  180MOL0     C24199   5.037  11.582   7.338  0.3141  0.0456  0.3840
  180MOL0     O24200   4.913  11.557   7.295  0.4125 -0.3909 -0.4120
  180MOL0     C24201   4.821  11.528   7.403 -0.1050 -0.5120  0.2614
  180MOL0     C24202   4.677  11.511   7.339  0.6595  0.4221 -0.1207
  180MOL0     C24203   4.659  11.371   7.272 -0.1292 -0.0079  0.7667
  180MOL0     C24204   4.517  11.351   7.210 -0.1448 -0.2502 -1.1035
  180MOL0     C24205   4.408  11.382   7.309  0.8914  0.3129  1.0054
  180MOL0     C24206   4.276  11.346   7.238 -0.3962 -0.6149 -1.0156
  180MOL0     C24207   4.243  11.477   7.150  0.1120  0.4079 -0.5282
  180MOL0     C24208   4.129  11.430   7.060 -0.3174 -0.2580  0.0932
  180MOL0    Cl24209   3.989  11.349   7.144 -0.1680 -0.0282 -0.6119
  180MOL0     C24210   5.076  11.600   7.475 -0.1575  0.5730 -0.4010
  180MOL0     C24211   5.207  11.629   7.507  0.5037 -0.0636 -0.4439
  180MOL0     O24212   5.449  11.878   7.440  0.1196  0.5969 -0.8095
  180MOL0     C24213   5.692  11.606   7.509  0.9013  0.0334 -0.2677
  180MOL0     C24214   5.822  11.588   7.523 -0.8824 -0.0088  0.1292
  180MOL0     N24215   6.550  11.201   7.665 -0.4401  0.9840  0.9577
  180MOL0     N24216   6.564  11.067   7.675  0.1157 -0.5846  0.3355
  180MOL0     C24217   5.756  10.488   8.415  0.2222  0.3229  0.3734
  180MOL0     C24218   5.631  10.467   8.473 -0.5285  0.0470  0.0644
  180MOL0     C24219   5.352  10.520   8.862  0.5988 -0.0498  0.4235
  180MOL0     C24220   5.258  10.595   8.783  0.6723  0.3327 -1.0109
  180MOL0     C24221   5.134  10.636   8.828 -0.6400 -0.1636  0.0435
  180MOL0     C24222   5.104  10.604   8.963  1.0526 -0.0146  0.4423
  180MOL0     O24223   4.986  10.639   9.025 -0.7310 -0.0954  0.4983
  180MOL0     C24224   4.903  10.751   8.974  0.0459  0.0276  0.1429
  180MOL0     C24225   4.798  10.712   8.878  0.6941 -0.9168 -0.5227
  180MOL0     C24226   4.708  10.612   8.959  0.3529  0.3339  0.2047
  180MOL0     C24227   4.623  10.683   9.071 -0.1190 -0.5250 -0.5266
  180MOL0     C24228   4.525  10.588   9.109  0.8494  0.7174  0.7966
  180MOL0     C24229   4.446  10.507   9.151 -0.3515  0.7181 -0.3833
  180MOL0     C24230   5.196  10.549   9.046 -0.1688 -0.0976 -0.3472
  180MOL0     C24231   5.318  10.507   8.999 -0.1586 -0.0532 -0.0477
  180MOL0     C24232   5.404  10.437   9.103  0.1190 -0.1332  0.2453
  180MOL0     H24233   5.668  10.663   8.746  0.6491 -0.3948  0.3838
  180MOL0     H24234   5.882  10.700   8.643  1.0740 -2.0707  0.8810
  180MOL0     H24235   5.989  10.512   8.238 -1.4602 -0.1770  0.1991
  180MOL0     H24236   5.920  10.681   8.230  2.4583 -0.4207 -3.9806
  180MOL0     H24237   6.202  10.601   8.297  0.5103  1.1576 -1.3779
  180MOL0     H24238   6.152  10.759   8.298 -1.3043 -0.5898  1.5658
  180MOL0     H24239   6.081  10.750   8.054 -0.5653  1.5585  1.9875
  180MOL0     H24240   6.110  10.573   8.061 -3.0450  0.2882  4.0666
  180MOL0     H24241   6.335  10.780   8.111  2.3944 -1.5657 -0.4196
  180MOL0     H24242   6.348  10.612   8.078  1.5815  1.4598  1.7412
  180MOL0     H24243   6.239  10.678   7.835 -0.7421  3.2841 -0.7908
  180MOL0     H24244   6.278  10.839   7.895  1.7948  1.0919  1.2704
  180MOL0     H24245   6.507  10.804   7.934 -4.5177  0.1647  3.2836
  180MOL0     H24246   6.509  10.637   7.870 -0.1435 -1.0405 -2.8278
  180MOL0     H24247   6.474  10.674   7.666 -1.8228 -0.0268 -0.6482
  180MOL0     H24248   6.599  10.793   7.702 -0.6700  1.4347 -3.1277
  180MOL0     H24249   6.427  10.867   7.551  2.7276 -1.5298 -0.3125
  180MOL0     H24250   6.308  10.842   7.677  0.5533 -2.8339 -1.6610
  180MOL0     H24251   6.247  11.100   7.746  0.0632  2.5553 -0.3042
  180MOL0     H24252   6.268  11.374   7.737 -0.6295 -0.2081 -1.5515
  180MOL0     H24253   6.435  11.427   7.701  0.5700 -1.1438 -0.5250
  180MOL0     H24254   6.410  11.399   7.456  0.6778 -1.2413  0.6327
  180MOL0     H24255   6.249  11.334   7.476 -1.6617  1.9552  1.0466
  180MOL0     H24256   6.276  11.606   7.443 -0.4309  0.5736  0.7608
  180MOL0     H24257   6.316  11.615   7.597  2.6081 -2.9081  0.8916
  180MOL0     H24258   6.077  11.516   7.651 -1.3585  4.2310  0.7251
  180MOL0     H24259   6.062  11.480   7.474 -1.8177  0.1050 -0.3642
  180MOL0     H24260   5.948  11.892   7.454  1.1331 -1.6442 -1.4715
  180MOL0     H24261   5.707  11.939   7.431 -1.2946 -1.1550  1.0095
  180MOL0     H24262   5.336  11.640   7.191  1.2119  1.1208  1.0869
  180MOL0     H24263   5.107  11.585   7.131 -3.0446  0.8285 -0.6010
  180MOL0     H24264   4.845  11.433   7.453 -0.3084 -1.4214 -1.3238
  180MOL0     H24265   4.803  11.608   7.476 -0.2991 -1.0627  0.8227
  180MOL0     H24266   4.611  11.523   7.425  1.2918 -1.7366  0.7393
  180MOL0     H24267   4.656  11.599   7.277  1.5378  0.3075 -0.5907
  180MOL0     H24268   4.732  11.365   7.190 -0.6599 -4.1301  0.3761
  180MOL0     H24269   4.670  11.293   7.348  1.0458  0.0585  0.6785
  180MOL0     H24270   4.515  11.246   7.180 -2.8272 -0.0935 -1.7484
  180MOL0     H24271   4.509  11.418   7.123 -3.4387  0.5576 -0.3267
  180MOL0     H24272   4.405  11.484   7.350 -0.6626  0.0832  1.5369
  180MOL0     H24273   4.438  11.316   7.391  0.5358 -0.1570  0.7630
  180MOL0     H24274   4.294  11.258   7.176 -0.1949 -2.4278  1.4645
  180MOL0     H24275   4.197  11.327   7.311  1.2439  0.2680  1.1028
  180MOL0     H24276   4.331  11.512   7.095  1.4129 -0.0286  1.2009
  180MOL0     H24277   4.205  11.562   7.207 -0.9228 -0.8075  0.6439
  180MOL0     H24278   4.101  11.521   7.007  2.3581  0.8117  0.3586
  180MOL0     H24279   4.143  11.345   6.993 -3.4626 -0.9405  0.1622
  180MOL0     H24280   5.012  11.590   7.562  2.2439 -1.6349  1.2352
  180MOL0     H24281   5.239  11.626   7.611 -0.0232  0.9412 -0.2430
  180MOL0     H24282   5.629  11.518   7.525 -1.0693  1.4398  0.1424
  180MOL0     H24283   5.849  11.489   7.556  0.4755  0.3503  0.1530
  180MOL0     H24284   5.777  10.451   8.315 -0.9982  0.0826  0.1908
  180MOL0     H24285   5.550  10.410   8.428  0.1209 -0.9064  0.0650
  180MOL0     H24286   5.271  10.606   8.675 -1.7393  0.0620 -1.3957
  180MOL0     H24287   5.060  10.674   8.758 -1.0513  0.3811  0.7507
  180MOL0     H24288   4.963  10.830   8.926 -0.5338  0.1908 -0.3345
  180MOL0     H24289   4.849  10.798   9.057 -2.1737 -1.2282 -0.5170
  180MOL0     H24290   4.844  10.673   8.786  1.8405  0.8892 -0.7707
  180MOL0     H24291   4.730  10.794   8.852  0.4948  0.3001  3.2700
  180MOL0     H24292   4.764  10.527   8.999  0.5522 -0.1602 -1.0537
  180MOL0     H24293   4.642  10.570   8.882  0.1733  1.2698 -0.1651
  180MOL0     H24294   4.685  10.700   9.160  0.9162 -0.8298 -1.1769
  180MOL0     H24295   4.584  10.778   9.033  1.8223  0.3533 -0.4605
  180MOL0     H24296   4.377  10.449   9.210 -0.2649  2.7109  1.8261
  180MOL0     H24297   5.171  10.544   9.151 -0.2039 -1.6640 -0.4125
  180MOL0     H24298   5.434  10.337   9.072  2.6858  0.2151  1.3332
  180MOL0     H24299   5.497  10.492   9.119 -0.1738 -0.1120  2.0885
  180MOL0     H24300   5.342  10.423   9.192 -1.4736 -2.6936 -1.1576
  181MOL0     O24301   5.376   2.312   6.277 -0.2373 -0.1100 -0.0569
  181MOL0     C24302   5.292   2.336   6.190  0.5307  0.9212  0.2206
  181MOL0     O24303   5.317   2.390   6.063 -0.7685  0.0309 -0.1860
  181MOL0     C24304   5.434   2.464   6.048  0.1417  0.0917  0.5861
  181MOL0     C24305   5.456   2.589   6.113  0.2020  0.6654  0.1979
  181MOL0     C24306   5.567   2.662   6.084  0.3185 -0.2452  0.8878
  181MOL0     C24307   5.657   2.612   5.985  0.0288 -1.0260  0.2505
  181MOL0     O24308   5.767   2.688   5.967 -0.3346 -0.1480 -0.5006
  181MOL0     C24309   5.831   2.689   5.840 -0.1941 -0.1937 -0.6982
  181MOL0     C24310   5.956   2.777   5.842 -0.3177  0.4391  0.6411
  181MOL0     C24311   6.074   2.703   5.906 -0.0245  0.2942  0.0487
  181MOL0     C24312   6.198   2.795   5.902  0.5963  0.4078  0.4210
  181MOL0     C24313   6.227   2.871   5.767 -0.6320  0.0191 -0.7051
  181MOL0     C24314   6.367   2.937   5.775 -1.0576 -0.4989 -0.1925
  181MOL0     C24315   6.493   2.847   5.747 -0.3656  0.1456 -0.0779
  181MOL0     C24316   6.482   2.784   5.614  0.2882 -0.3519 -0.9028
  181MOL0     N24317   6.606   2.728   5.566 -0.0093 -0.0241 -0.2937
  181MOL0     C24318   6.678   2.623   5.621 -0.0785 -0.2409  0.8167
  181MOL0     C24319   6.792   2.627   5.553 -0.6977  0.4133  0.2153
  181MOL0     C24320   6.909   2.533   5.558 -0.2365 -0.5887  0.6757
  181MOL0     C24321   6.966   2.530   5.701 -0.4001 -0.3495 -0.4144
  181MOL0     C24322   7.039   2.667   5.728  0.3562 -0.3121  0.1279
  181MOL0     C24323   7.104   2.667   5.866 -1.0009  0.1378 -0.3125
  181MOL0     O24324   7.195   2.564   5.894 -0.5919  0.1662  0.1829
  181MOL0     C24325   7.329   2.571   5.864  0.6244  0.5437 -0.0495
  181MOL0     C24326   7.406   2.473   5.927  0.4641 -0.6238  0.6994
  181MOL0     C24327   7.544   2.468   5.886  0.3848  0.3713 -0.5824
  181MOL0     C24328   7.595   2.555   5.788  0.4192 -0.1070 -1.0707
  181MOL0     C24329   7.725   2.543   5.746  0.0903 -0.2247 -0.0567
  181MOL0     O24330   7.770   2.417   5.754  0.6619  0.8063 -0.4408
  181MOL0     C24331   7.902   2.391   5.726 -0.6217 -0.6324 -0.5518
  181MOL0     C24332   7.928   2.257   5.703 -0.2122 -1.0541  0.2733
  181MOL0     C24333   8.055   2.209   5.687 -0.4439 -0.0341  0.1193
  181MOL0     C24334   8.165   2.293   5.679 -0.0700 -0.2834 -0.3983
  181MOL0     O24335   8.286   2.251   5.646  0.2617  0.5748 -0.6238
  181MOL0     C24336   8.339   2.317   5.534  0.6496  0.0893  0.2978
  181MOL0     C24337   8.459   2.391   5.575  0.1449  0.4822 -0.0804
  181MOL0     C24338   8.559   2.395   5.462 -0.2458 -0.0090 -0.3797
  181MOL0     C24339   8.688   2.467   5.520 -0.1254  0.9403 -0.3130
  181MOL0     C24340   8.797   2.470   5.415 -0.1611  0.0604 -0.4739
  181MOL0     C24341   8.927   2.549   5.449 -0.3327  0.0042 -0.4878
  181MOL0     C24342   9.034   2.537   5.340 -0.3710  0.2596 -0.3948
  181MOL0     C24343   9.136   2.652   5.342  0.2875 -0.0011 -0.1529
  181MOL0    Cl24344   9.246   2.645   5.482  0.2380 -0.0480 -0.4663
  181MOL0     C24345   8.140   2.428   5.709 -1.3786 -0.2567  0.2985
  181MOL0     C24346   8.013   2.475   5.733  0.3131 -0.6457  0.0923
  181MOL0     O24347   7.791   2.640   5.703 -0.0647 -0.0940  0.1066
  181MOL0     C24348   7.511   2.639   5.722  0.4241 -0.5685  0.2979
  181MOL0     C24349   7.382   2.659   5.760  0.4444 -0.7421 -0.1300
  181MOL0     N24350   6.784   2.727   5.458  0.0912 -0.5157  0.8227
  181MOL0     N24351   6.661   2.766   5.454 -0.0377 -0.7692  0.2313
  181MOL0     C24352   5.636   2.489   5.927 -0.0415 -0.3759  0.7565
  181MOL0     C24353   5.526   2.413   5.957  0.1613  0.2170 -0.4303
  181MOL0     C24354   5.153   2.278   6.216 -0.1982 -0.1854  0.9656
  181MOL0     C24355   5.094   2.216   6.098 -0.4574 -0.9414 -0.6206
  181MOL0     C24356   4.958   2.163   6.103 -0.3607 -0.4908 -0.1825
  181MOL0     C24357   4.881   2.172   6.219  0.6207 -0.8684  0.8884
  181MOL0     O24358   4.754   2.115   6.216 -0.5459  0.3460 -0.0946
  181MOL0     C24359   4.684   2.091   6.344 -0.0624  0.0285  0.4483
  181MOL0     C24360   4.543   2.045   6.297  0.2398  0.1244 -0.5896
  181MOL0     C24361   4.540   1.900   6.242 -0.5813 -0.5600  0.1459
  181MOL0     C24362   4.406   1.876   6.181 -1.3398 -0.5601  0.4255
  181MOL0     C24363   4.300   1.859   6.277 -0.6291 -0.7617 -0.4816
  181MOL0     C24364   4.214   1.838   6.355  0.2295 -0.1310 -0.0887
  181MOL0     C24365   4.937   2.233   6.334  0.2286 -0.2909  0.3670
  181MOL0     C24366   5.070   2.284   6.333 -0.1253 -1.1004  0.1085
  181MOL0     C24367   5.129   2.369   6.447  0.6258  0.4468 -0.5096
  181MOL0     H24368   5.382   2.617   6.187 -2.3982 -0.3153 -1.8321
  181MOL0     H24369   5.575   2.763   6.121  2.4741 -0.6573  1.6789
  181MOL0     H24370   5.866   2.588   5.814 -1.6674 -1.2205  1.1108
  181MOL0     H24371   5.757   2.720   5.765  0.7721 -0.2347 -1.7042
  181MOL0     H24372   5.939   2.866   5.904  0.3715  1.0412 -0.0185
  181MOL0     H24373   5.984   2.800   5.739  2.4039 -1.8765  0.7415
  181MOL0     H24374   6.101   2.606   5.863 -2.2382 -0.7434  0.8359
  181MOL0     H24375   6.051   2.685   6.012  0.4488  1.1393  0.3038
  181MOL0     H24376   6.190   2.866   5.985  1.7896  1.0080  0.0360
  181MOL0     H24377   6.285   2.733   5.922  0.7605 -0.3457 -2.1890
  181MOL0     H24378   6.221   2.800   5.684  2.5338 -0.2448 -0.8412
  181MOL0     H24379   6.157   2.952   5.744  1.3256  2.0778  0.1588
  181MOL0     H24380   6.375   3.021   5.706 -1.8205 -1.5598 -1.6551
  181MOL0     H24381   6.386   2.982   5.873  0.8021  2.9963 -1.9866
  181MOL0     H24382   6.492   2.764   5.818  0.8892 -1.4033 -1.7616
  181MOL0     H24383   6.579   2.913   5.759 -1.4268  1.0423  5.0082
  181MOL0     H24384   6.403   2.708   5.615  2.1786 -2.4316 -1.3498
  181MOL0     H24385   6.443   2.851   5.537 -0.1070  0.4106 -0.0496
  181MOL0     H24386   6.642   2.547   5.689  0.8982 -0.8728  0.6454
  181MOL0     H24387   6.865   2.438   5.529 -1.1584 -0.1092  0.4786
  181MOL0     H24388   6.990   2.564   5.490 -2.0308 -0.7437 -1.6375
  181MOL0     H24389   6.886   2.506   5.771 -1.6917  2.4260 -0.8069
  181MOL0     H24390   7.039   2.449   5.694  1.3898  1.1171  0.3443
  181MOL0     H24391   6.965   2.747   5.722  0.1973 -0.4973 -0.4062
  181MOL0     H24392   7.118   2.684   5.654  0.5910  2.0544  0.8603
  181MOL0     H24393   7.027   2.673   5.943 -0.4461  1.1075  0.2006
  181MOL0     H24394   7.154   2.765   5.873 -0.0422 -0.4409  1.4819
  181MOL0     H24395   7.356   2.412   6.001  0.5890  0.7118  1.9136
  181MOL0     H24396   7.608   2.393   5.932 -0.1308  0.7713  0.8144
  181MOL0     H24397   7.846   2.186   5.708 -0.5189 -0.9120 -1.8363
  181MOL0     H24398   8.081   2.104   5.673  0.3945  0.0273  1.0954
  181MOL0     H24399   8.379   2.230   5.480  0.8582 -0.6371  1.5703
  181MOL0     H24400   8.264   2.370   5.476 -0.8995  0.4424  2.4971
  181MOL0     H24401   8.428   2.493   5.599  0.1403  0.1906  1.2715
  181MOL0     H24402   8.508   2.349   5.663  3.0725  2.1894 -0.7817
  181MOL0     H24403   8.599   2.298   5.430  0.7758  0.1999  0.2402
  181MOL0     H24404   8.521   2.439   5.369 -1.8839 -1.1194 -0.2762
  181MOL0     H24405   8.714   2.414   5.612 -1.7727  0.4770 -0.0816
  181MOL0     H24406   8.674   2.570   5.554  2.2730  1.0865  0.4527
  181MOL0     H24407   8.746   2.516   5.329 -3.3863  0.0350  1.2865
  181MOL0     H24408   8.832   2.373   5.379  1.2954 -0.0162  1.0449
  181MOL0     H24409   8.905   2.656   5.456  0.5037  0.0943  2.5318
  181MOL0     H24410   8.975   2.511   5.540 -0.0231 -0.7384 -0.9535
  181MOL0     H24411   8.993   2.549   5.240 -1.2849  0.0566 -0.0597
  181MOL0     H24412   9.076   2.436   5.347 -2.5933 -0.8306 -1.7402
  181MOL0     H24413   9.199   2.651   5.252 -0.7869 -0.7438 -0.9323
  181MOL0     H24414   9.087   2.748   5.325  0.5240 -0.0692 -1.3710
  181MOL0     H24415   8.226   2.491   5.726 -1.8002 -0.2539  2.7657
  181MOL0     H24416   8.021   2.580   5.761  1.9196 -0.6517 -0.2327
  181MOL0     H24417   7.545   2.701   5.640 -2.0930  0.8142  0.1796
  181MOL0     H24418   7.326   2.729   5.698  0.9686 -1.3350 -1.3181
  181MOL0     H24419   5.707   2.447   5.857  0.9533 -0.7812  1.9855
  181MOL0     H24420   5.518   2.314   5.911  0.5694  1.2821 -2.9390
  181MOL0     H24421   5.141   2.230   6.001 -2.0851  0.6535 -1.2273
  181MOL0     H24422   4.922   2.116   6.012 -1.2592 -1.5260  0.6870
  181MOL0     H24423   4.675   2.188   6.392 -0.5963  0.0721  0.2603
  181MOL0     H24424   4.747   2.020   6.398 -0.1581  1.3351  2.3918
  181MOL0     H24425   4.506   2.114   6.221  1.3532  1.2518 -0.1480
  181MOL0     H24426   4.498   2.058   6.396 -0.0513  1.4420 -0.8720
  181MOL0     H24427   4.550   1.827   6.324 -1.6729 -2.8592 -1.6329
  181MOL0     H24428   4.617   1.882   6.167 -1.7696 -0.7380 -1.0807
  181MOL0     H24429   4.383   1.954   6.108 -1.0814 -1.6859 -0.9057
  181MOL0     H24430   4.424   1.783   6.127  3.1784  0.8153 -0.8875
  181MOL0     H24431   4.147   1.812   6.435  0.9002  1.5963  1.0774
  181MOL0     H24432   4.868   2.247   6.417 -1.0448  1.6301 -0.9483
  181MOL0     H24433   5.051   2.410   6.511  0.3445  0.6619 -0.9867
  181MOL0     H24434   5.175   2.291   6.509 -1.4340  1.4015  2.3831
  181MOL0     H24435   5.205   2.436   6.406 -0.1651  1.2380 -0.7199
  182MOL0     O24436   2.064   8.289   6.118 -0.0528 -0.6498  0.7702
  182MOL0     C24437   2.092   8.196   6.190  0.1795  1.3429 -0.5619
  182MOL0     O24438   2.204   8.180   6.264 -0.5790 -0.0755  0.4589
  182MOL0     C24439   2.314   8.253   6.216  0.2300 -0.4143  0.2698
  182MOL0     C24440   2.328   8.392   6.234  0.1404 -0.2476  0.2873
  182MOL0     C24441   2.445   8.456   6.179  0.2158 -0.5421  0.1934
  182MOL0     C24442   2.541   8.368   6.116 -0.0911 -0.5740 -0.6277
  182MOL0     O24443   2.666   8.407   6.080  0.3443  0.8273 -0.6411
  182MOL0     C24444   2.734   8.491   6.171 -0.0249 -0.7381  0.1444
  182MOL0     C24445   2.745   8.623   6.093  0.3314 -0.6796 -0.1487
  182MOL0     C24446   2.812   8.721   6.188 -0.3485 -0.0139  0.2490
  182MOL0     C24447   2.957   8.747   6.149 -0.2687 -0.1251  0.0775
  182MOL0     C24448   3.027   8.827   6.258 -0.5232 -0.0881  0.5467
  182MOL0     C24449   3.010   8.980   6.243  0.2604 -0.0907 -0.7809
  182MOL0     C24450   3.110   9.058   6.335  0.4306 -0.1289  0.0282
  182MOL0     C24451   3.075   9.201   6.334  0.4106  1.0649  0.1810
  182MOL0     N24452   3.120   9.265   6.207  0.1587  0.4572  0.4091
  182MOL0     C24453   3.246   9.261   6.166  0.6136  0.0644 -0.3856
  182MOL0     C24454   3.238   9.293   6.035  0.2406  0.3058  0.9108
  182MOL0     C24455   3.344   9.300   5.929  0.0975  0.2581 -0.4540
  182MOL0     C24456   3.442   9.411   5.954  0.7592 -0.6414 -0.0321
  182MOL0     C24457   3.565   9.411   5.864 -0.1496  0.7394  0.8126
  182MOL0     C24458   3.681   9.498   5.915  0.3393 -0.1613  0.6413
  182MOL0     O24459   3.783   9.489   5.811 -0.3608 -1.2039 -0.5830
  182MOL0     C24460   3.861   9.603   5.812 -0.4675  0.4391 -0.2641
  182MOL0     C24461   3.912   9.657   5.938  0.0556  0.1034 -0.3506
  182MOL0     C24462   4.011   9.762   5.939  0.1638 -0.5487 -0.1123
  182MOL0     C24463   4.063   9.823   5.821 -0.3765  0.1865 -0.1565
  182MOL0     C24464   4.158   9.936   5.835  0.3911  0.3972 -0.1393
  182MOL0     O24465   4.125  10.055   5.777  0.1248  0.5612 -0.6394
  182MOL0     C24466   4.213  10.154   5.786 -0.0364 -1.0210  0.8775
  182MOL0     C24467   4.347  10.142   5.747 -0.2144 -0.1838 -0.0172
  182MOL0     C24468   4.433  10.249   5.741  0.5918 -1.1376 -0.2433
  182MOL0     C24469   4.386  10.379   5.759 -0.3230  0.1423  0.5790
  182MOL0     O24470   4.462  10.498   5.750  0.8027 -0.6960  0.1463
  182MOL0     C24471   4.579  10.492   5.673  0.7824  1.0312 -0.3300
  182MOL0     C24472   4.607  10.644   5.659  0.4714 -0.4736 -0.0109
  182MOL0     C24473   4.690  10.676   5.528 -0.1020  0.4327  0.5131
  182MOL0     C24474   4.840  10.643   5.541 -0.2377  0.1201 -0.6901
  182MOL0     C24475   4.928  10.741   5.466  0.0451  0.6002  0.3399
  182MOL0     C24476   4.929  10.886   5.516  0.1357  0.2549 -0.0196
  182MOL0     C24477   4.915  10.907   5.662 -0.7220  0.8850  0.2023
  182MOL0     C24478   5.037  10.856   5.736  0.9709 -0.3461 -0.2857
  182MOL0    Cl24479   5.000  10.793   5.896  0.1418 -0.2845 -0.0263
  182MOL0     C24480   4.253  10.392   5.802  0.0726  0.5040 -0.5203
  182MOL0     C24481   4.164  10.282   5.819 -0.5522  0.4761 -1.2058
  182MOL0     O24482   4.254   9.914   5.903  0.3628  0.1717 -0.4104
  182MOL0     C24483   4.014   9.765   5.704 -0.3012  0.2462  0.0403
  182MOL0     C24484   3.920   9.658   5.702  0.3844 -0.3123  0.1903
  182MOL0     N24485   3.110   9.332   5.998  0.1270  0.5044 -0.5790
  182MOL0     N24486   3.047   9.307   6.100 -0.1534 -0.4700 -0.8010
  182MOL0     C24487   2.521   8.227   6.105  0.4899 -0.8578  0.1730
  182MOL0     C24488   2.405   8.171   6.154  0.8623  0.6974  0.9193
  182MOL0     C24489   1.989   8.096   6.211  0.7110 -0.0754  0.3209
  182MOL0     C24490   2.003   8.020   6.326 -0.1247 -0.0534 -0.1330
  182MOL0     C24491   1.905   7.925   6.364  0.5222  0.0990  0.6287
  182MOL0     C24492   1.794   7.898   6.281 -0.4113  0.7842  0.3483
  182MOL0     O24493   1.698   7.813   6.332  0.2988  0.8660  0.3149
  182MOL0     C24494   1.562   7.809   6.274  0.1446  0.5442  0.0443
  182MOL0     C24495   1.469   7.801   6.390 -0.4086 -0.1144  0.4637
  182MOL0     C24496   1.489   7.923   6.491 -0.0504 -0.7246 -0.4155
  182MOL0     C24497   1.360   7.963   6.549  0.5821 -0.2817  0.1018
  182MOL0     C24498   1.388   8.056   6.658  0.3589  0.5732  0.1338
  182MOL0     C24499   1.435   8.124   6.744  0.4140 -0.5762 -0.4331
  182MOL0     C24500   1.792   7.959   6.153  0.4882  0.3032 -0.2529
  182MOL0     C24501   1.883   8.065   6.117  1.0026 -0.0590 -0.1188
  182MOL0     C24502   1.857   8.140   5.987 -0.4543  0.0695 -0.3156
  182MOL0     H24503   2.250   8.440   6.293 -0.9492 -3.4609  1.6975
  182MOL0     H24504   2.460   8.559   6.208  0.8161 -0.7814  0.7557
  182MOL0     H24505   2.677   8.507   6.263 -0.2961  0.1940 -0.1779
  182MOL0     H24506   2.838   8.457   6.180 -0.5165 -1.8565  2.6030
  182MOL0     H24507   2.642   8.653   6.072 -0.9095 -2.1449  3.1634
  182MOL0     H24508   2.788   8.611   5.993  0.4379  2.0776 -0.5007
  182MOL0     H24509   2.820   8.675   6.287  3.6898 -1.3461 -0.5532
  182MOL0     H24510   2.757   8.816   6.196 -0.6142 -0.2151  0.9336
  182MOL0     H24511   3.013   8.654   6.140 -1.3769 -0.9137  1.0040
  182MOL0     H24512   2.967   8.787   6.048 -3.2930 -1.0462 -0.6971
  182MOL0     H24513   2.978   8.809   6.354  2.2651  0.4221  2.1580
  182MOL0     H24514   3.130   8.798   6.278  0.3270  3.3623  1.8450
  182MOL0     H24515   3.042   9.000   6.140 -1.0495  1.9637 -0.8609
  182MOL0     H24516   2.907   9.017   6.252  0.9995  2.3343 -1.4067
  182MOL0     H24517   3.216   9.038   6.312  0.3726 -0.7904  0.3166
  182MOL0     H24518   3.098   9.037   6.441  0.5384 -0.6470 -0.0584
  182MOL0     H24519   2.967   9.218   6.344 -0.4747 -3.7067  1.5933
  182MOL0     H24520   3.133   9.257   6.407 -0.9274  1.4151  1.0020
  182MOL0     H24521   3.338   9.229   6.214  0.5186 -0.5972 -0.6313
  182MOL0     H24522   3.393   9.203   5.914 -0.9681 -0.1785 -1.2398
  182MOL0     H24523   3.303   9.326   5.831  0.1765  0.2746 -0.4834
  182MOL0     H24524   3.385   9.504   5.960  0.2789 -1.0058  1.5992
  182MOL0     H24525   3.484   9.388   6.053 -0.5023 -2.1687  0.1802
  182MOL0     H24526   3.536   9.440   5.763  0.4373  1.6477  0.8919
  182MOL0     H24527   3.604   9.309   5.872 -1.5673  0.1581  0.5606
  182MOL0     H24528   3.716   9.462   6.012  1.5414 -2.0031 -0.4191
  182MOL0     H24529   3.644   9.601   5.926 -1.7864 -0.9851  1.8290
  182MOL0     H24530   3.886   9.605   6.030  1.5457 -0.3963 -0.1849
  182MOL0     H24531   4.051   9.807   6.029  3.3199  2.3718 -2.6837
  182MOL0     H24532   4.389  10.046   5.720 -0.1466 -0.9051  2.3907
  182MOL0     H24533   4.539  10.238   5.723  0.5965  0.5718 -1.5095
  182MOL0     H24534   4.656  10.442   5.731 -0.3142 -0.7193 -0.3270
  182MOL0     H24535   4.572  10.450   5.572  2.9214  0.8523 -0.4473
  182MOL0     H24536   4.516  10.704   5.652  0.9127 -0.0286 -3.0688
  182MOL0     H24537   4.663  10.669   5.750 -0.9864  1.8904  0.3129
  182MOL0     H24538   4.638  10.607   5.461 -2.8332  2.8987 -0.1372
  182MOL0     H24539   4.678  10.778   5.491 -0.5570  0.3115  0.3143
  182MOL0     H24540   4.848  10.545   5.494  0.9393 -3.3192  5.5751
  182MOL0     H24541   4.884  10.626   5.640  0.8279  0.7532 -1.0347
  182MOL0     H24542   4.892  10.737   5.363  0.0980 -1.6906  0.3486
  182MOL0     H24543   5.030  10.702   5.467 -0.3113 -0.4011 -0.2945
  182MOL0     H24544   5.024  10.936   5.494  0.7998 -0.8847  0.1413
  182MOL0     H24545   4.855  10.938   5.455  0.1327  0.1670 -0.0905
  182MOL0     H24546   4.822  10.857   5.691  0.7887 -1.3409  1.5231
  182MOL0     H24547   4.898  11.013   5.682 -0.0913  1.4145 -1.8614
  182MOL0     H24548   5.072  10.769   5.679 -2.8406 -0.8988 -2.1011
  182MOL0     H24549   5.114  10.934   5.737  3.3245 -2.4982 -0.1432
  182MOL0     H24550   4.217  10.495   5.807  0.9344  0.9909 -2.8666
  182MOL0     H24551   4.062  10.278   5.857 -0.0667 -3.0405  0.0761
  182MOL0     H24552   4.055   9.823   5.622 -0.9204  0.5690 -0.0503
  182MOL0     H24553   3.906   9.621   5.601  0.6723  1.4923 -0.5559
  182MOL0     H24554   2.601   8.173   6.054  1.6753  3.1569 -2.7131
  182MOL0     H24555   2.379   8.066   6.144 -3.0054  1.6002 -0.1304
  182MOL0     H24556   2.078   8.042   6.402  1.1453 -0.2599 -1.2739
  182MOL0     H24557   1.920   7.861   6.450 -1.2179 -0.4324  0.5689
  182MOL0     H24558   1.551   7.723   6.208 -1.0607 -0.3859  1.3919
  182MOL0     H24559   1.543   7.904   6.224 -1.4701  0.3956  0.3371
  182MOL0     H24560   1.479   7.707   6.445 -1.0035  0.0060  0.7886
  182MOL0     H24561   1.369   7.807   6.347 -0.7076 -0.1965  1.1274
  182MOL0     H24562   1.532   8.007   6.437  1.8088  0.4579  2.7151
  182MOL0     H24563   1.554   7.904   6.576  0.8260  1.3255 -0.5764
  182MOL0     H24564   1.318   8.027   6.471  1.9016  1.7123  0.9506
  182MOL0     H24565   1.297   7.877   6.574  0.6026  0.0694  1.4693
  182MOL0     H24566   1.481   8.197   6.807 -0.3438 -0.9402  0.5763
  182MOL0     H24567   1.713   7.928   6.085  1.8225 -1.6081 -1.0311
  182MOL0     H24568   1.827   8.241   6.018 -3.6940 -0.9834  0.4635
  182MOL0     H24569   1.941   8.133   5.919 -0.0571 -0.4082  0.2192
  182MOL0     H24570   1.768   8.104   5.935  1.0588 -4.0619 -0.3554
  183MOL0     O24571   7.470   5.221   1.269  0.1883 -0.4339  0.3514
  183MOL0     C24572   7.384   5.295   1.229  0.0814  1.0514  0.3595
  183MOL0     O24573   7.401   5.427   1.194  0.2758 -0.1783  0.0703
  183MOL0     C24574   7.524   5.494   1.186 -0.0242 -0.7774  0.1691
  183MOL0     C24575   7.650   5.425   1.177  0.0672 -0.5336  0.1629
  183MOL0     C24576   7.760   5.509   1.162 -0.2089  0.0565 -0.4190
  183MOL0     C24577   7.756   5.648   1.168 -0.0164 -0.4858 -0.5923
  183MOL0     O24578   7.869   5.733   1.159 -0.2666  0.7303  0.1926
  183MOL0     C24579   7.990   5.660   1.116 -0.2042 -0.4392 -0.2408
  183MOL0     C24580   8.106   5.767   1.095  0.1137  0.4088  0.0011
  183MOL0     C24581   8.233   5.684   1.079 -0.0977  0.3132 -0.2941
  183MOL0     C24582   8.338   5.774   1.024 -0.2059 -0.0607 -0.7463
  183MOL0     C24583   8.474   5.704   1.011  0.5171  0.3170  0.6878
  183MOL0     C24584   8.535   5.644   1.138 -0.0753  0.4970  0.1576
  183MOL0     C24585   8.676   5.612   1.126 -0.2960 -0.4917  0.2467
  183MOL0     C24586   8.730   5.528   1.000  0.5656 -0.2051 -0.2138
  183MOL0     N24587   8.878   5.510   1.016 -0.4554 -0.2842  0.5916
  183MOL0     C24588   8.955   5.448   1.109  0.6007  1.9836 -0.0530
  183MOL0     C24589   9.080   5.492   1.093  0.1042  0.1593  0.1195
  183MOL0     C24590   9.202   5.465   1.174  1.1167  0.5349 -0.0530
  183MOL0     C24591   9.228   5.310   1.174  0.7874  0.4746  0.0393
  183MOL0     C24592   9.360   5.284   1.233  0.6826  0.5521 -0.5259
  183MOL0     C24593   9.407   5.141   1.206 -0.3986 -0.1227 -0.4167
  183MOL0     O24594   9.543   5.123   1.248 -0.2217 -0.2461 -0.5959
  183MOL0     C24595   9.608   5.006   1.225  0.8161  0.5389  0.6870
  183MOL0     C24596   9.579   4.915   1.116 -0.5610  0.2984  0.2576
  183MOL0     C24597   9.660   4.801   1.101 -0.6601  0.4250  0.0440
  183MOL0     C24598   9.756   4.766   1.192  0.6805  0.6299  0.9827
  183MOL0     C24599   9.836   4.636   1.177  0.8101 -0.0750 -0.5989
  183MOL0     O24600   9.906   4.610   1.288 -0.4319  0.2323  0.4488
  183MOL0     C24601  10.006   4.518   1.290 -0.5090  0.2921 -0.0463
  183MOL0     C24602  10.090   4.528   1.401  0.4954  0.2021  0.0804
  183MOL0     C24603  10.193   4.437   1.424 -0.2120  0.1376 -0.2537
  183MOL0     C24604  10.220   4.334   1.332  0.7866 -0.0495 -0.0647
  183MOL0     O24605  10.324   4.252   1.341  0.2842  0.0224  1.1672
  183MOL0     C24606  10.425   4.258   1.235  0.5925 -0.0825  0.3091
  183MOL0     C24607  10.461   4.412   1.216 -0.6003 -0.0610 -0.0547
  183MOL0     C24608  10.586   4.416   1.124  0.0738 -0.5313  0.3237
  183MOL0     C24609  10.641   4.557   1.114  0.3979  0.5431 -0.1539
  183MOL0     C24610  10.759   4.549   1.011 -0.0379 -0.1853 -0.0950
  183MOL0     C24611  10.842   4.681   1.004  0.8283 -0.3804  0.3413
  183MOL0     C24612  10.990   4.663   0.949  1.1868 -0.3255 -0.1617
  183MOL0     C24613  11.042   4.799   0.900 -0.7810 -0.6673 -0.1791
  183MOL0    Cl24614  11.220   4.788   0.853 -0.3101 -0.1687  0.0850
  183MOL0     C24615  10.146   4.331   1.214  0.2158 -1.0186  0.6479
  183MOL0     C24616  10.042   4.418   1.194  0.5274 -0.5642  0.3024
  183MOL0     O24617   9.832   4.576   1.076  1.0720  0.2216  0.1749
  183MOL0     C24618   9.786   4.856   1.292 -0.2013 -0.3745  0.6822
  183MOL0     C24619   9.711   4.970   1.310  0.1684  0.4997 -0.1697
  183MOL0     N24620   9.084   5.570   0.982 -0.0185 -0.3335  0.0932
  183MOL0     N24621   8.965   5.589   0.949  0.4721  0.4785 -0.2254
  183MOL0     C24622   7.627   5.710   1.182 -0.4626 -0.0377 -0.7880
  183MOL0     C24623   7.510   5.633   1.184  0.2145 -0.2213  0.2666
  183MOL0     C24624   7.242   5.240   1.240  0.4383 -0.1435 -1.2820
  183MOL0     C24625   7.153   5.266   1.135  0.0569 -0.1221 -0.0147
  183MOL0     C24626   7.028   5.226   1.152  0.4652  0.7119 -0.9385
  183MOL0     C24627   6.981   5.155   1.262  0.7688 -0.7052  0.2780
  183MOL0     O24628   6.857   5.114   1.249 -0.0307  0.2114 -0.0771
  183MOL0     C24629   6.817   4.985   1.311 -0.1022  0.2063  0.0603
  183MOL0     C24630   6.770   5.011   1.451  0.2398  0.8050  0.3408
  183MOL0     C24631   6.774   4.876   1.520  0.0416  0.6432  0.5886
  183MOL0     C24632   6.916   4.820   1.550  0.4538 -0.3803  0.2367
  183MOL0     C24633   6.973   4.712   1.465 -0.2951  0.2453 -0.3784
  183MOL0     C24634   7.029   4.621   1.407 -0.8577  0.5227 -0.2091
  183MOL0     C24635   7.075   5.133   1.364  0.2644  0.5917 -0.4323
  183MOL0     C24636   7.202   5.172   1.356 -0.6482 -0.1923 -0.4980
  183MOL0     C24637   7.287   5.144   1.473  0.5205  0.1684 -0.2906
  183MOL0     H24638   7.668   5.318   1.185  0.9275 -0.2536  4.3750
  183MOL0     H24639   7.853   5.453   1.156  0.3980  0.5444  2.5780
  183MOL0     H24640   8.011   5.587   1.195  1.4581 -1.5867 -1.6914
  183MOL0     H24641   7.980   5.602   1.024 -1.3040  3.0004 -2.4870
  183MOL0     H24642   8.120   5.831   1.183  2.5664  0.3327 -0.2528
  183MOL0     H24643   8.092   5.832   1.008 -1.5557  4.0405  2.6928
  183MOL0     H24644   8.223   5.592   1.020  1.2937 -0.4904  0.6660
  183MOL0     H24645   8.261   5.641   1.176  0.9157  0.0471 -0.6949
  183MOL0     H24646   8.314   5.819   0.928  0.4423  0.0651 -0.8566
  183MOL0     H24647   8.349   5.854   1.098  0.3267  0.8419 -1.7823
  183MOL0     H24648   8.466   5.623   0.938  2.5550 -0.6396  1.4453
  183MOL0     H24649   8.546   5.774   0.969  0.3425 -0.5785 -1.1794
  183MOL0     H24650   8.517   5.716   1.218 -0.3576  0.0483  0.5037
  183MOL0     H24651   8.483   5.548   1.150 -0.1631  0.3742 -1.1299
  183MOL0     H24652   8.701   5.548   1.211 -0.1472 -2.7095 -1.3570
  183MOL0     H24653   8.742   5.699   1.131 -0.1457 -0.6320  0.7792
  183MOL0     H24654   8.693   5.426   0.992 -1.5695  0.5147 -0.2209
  183MOL0     H24655   8.708   5.588   0.911 -2.6779  2.0056  1.8564
  183MOL0     H24656   8.922   5.383   1.189  2.4658  0.5259 -0.3939
  183MOL0     H24657   9.288   5.512   1.125  1.2562 -0.1501 -0.4895
  183MOL0     H24658   9.196   5.497   1.279 -2.8250 -1.9301  0.6704
  183MOL0     H24659   9.146   5.264   1.230 -0.4062  2.2641 -0.1420
  183MOL0     H24660   9.232   5.272   1.071  1.8253 -0.6812  0.4939
  183MOL0     H24661   9.352   5.288   1.342  2.0729  0.2658 -0.3945
  183MOL0     H24662   9.437   5.350   1.192  0.8223  0.9978  0.4445
  183MOL0     H24663   9.398   5.125   1.098  1.0146  1.1285 -0.7543
  183MOL0     H24664   9.337   5.081   1.264 -0.7082  2.6665  2.3503
  183MOL0     H24665   9.500   4.937   1.044 -1.9873 -0.8906  1.3732
  183MOL0     H24666   9.627   4.736   1.021 -1.3482  4.2647 -3.0679
  183MOL0     H24667  10.076   4.612   1.467  1.4544  1.8505 -1.7072
  183MOL0     H24668  10.250   4.448   1.516  1.2334 -1.6109 -0.8873
  183MOL0     H24669  10.508   4.196   1.268  1.6147 -0.7937 -3.2131
  183MOL0     H24670  10.401   4.214   1.138  0.9043 -3.0129  1.4607
  183MOL0     H24671  10.381   4.453   1.154 -1.7815 -0.6900  1.0260
  183MOL0     H24672  10.460   4.454   1.317  0.0578 -0.2832  0.0497
  183MOL0     H24673  10.654   4.336   1.155 -0.2707 -0.3744  1.5201
  183MOL0     H24674  10.540   4.387   1.029 -1.4618 -1.4369  1.2945
  183MOL0     H24675  10.682   4.593   1.209  1.1078  1.1462 -0.6744
  183MOL0     H24676  10.559   4.620   1.081 -1.4233 -1.8072 -0.4062
  183MOL0     H24677  10.721   4.523   0.912  0.9798  2.1267 -1.1914
  183MOL0     H24678  10.830   4.471   1.040  1.5799  0.9581 -0.8052
  183MOL0     H24679  10.775   4.750   0.951 -0.4652 -1.6674  0.2364
  183MOL0     H24680  10.851   4.720   1.105  0.3570  2.1503 -0.5269
  183MOL0     H24681  10.988   4.589   0.869  2.1914 -0.9622  0.3736
  183MOL0     H24682  11.061   4.623   1.022  2.6775  1.5718 -0.4926
  183MOL0     H24683  10.974   4.829   0.819 -2.1875 -1.2542  0.7391
  183MOL0     H24684  11.037   4.880   0.972  0.0707 -0.7897  0.0253
  183MOL0     H24685  10.166   4.257   1.137 -5.2078  0.5349 -2.8230
  183MOL0     H24686  10.002   4.412   1.093  2.5606  0.2519 -0.6067
  183MOL0     H24687   9.868   4.828   1.358 -0.5382  1.7476  2.1012
  183MOL0     H24688   9.739   5.031   1.395  1.6593 -0.8050  0.3277
  183MOL0     H24689   7.615   5.816   1.201 -2.2639  0.1192 -2.4051
  183MOL0     H24690   7.421   5.689   1.211  0.1680 -0.6039  0.9122
  183MOL0     H24691   7.177   5.326   1.048  0.4040  0.5528  0.5344
  183MOL0     H24692   6.963   5.247   1.068 -1.3708  2.5277  0.8073
  183MOL0     H24693   6.908   4.926   1.297 -1.3642 -1.2142 -3.3498
  183MOL0     H24694   6.731   4.938   1.262 -0.7234  1.3430  0.0140
  183MOL0     H24695   6.679   5.070   1.448  0.4327  1.0921 -1.6081
  183MOL0     H24696   6.840   5.077   1.503 -0.9562  2.1895  0.2488
  183MOL0     H24697   6.713   4.801   1.468 -1.2112  1.3789  0.9656
  183MOL0     H24698   6.719   4.891   1.613  1.2217  0.5958  1.3065
  183MOL0     H24699   6.987   4.904   1.551 -2.6062  2.4094  0.3148
  183MOL0     H24700   6.910   4.762   1.642 -1.6610 -1.6135 -0.6075
  183MOL0     H24701   7.073   4.540   1.353  0.5873  0.3369  1.2021
  183MOL0     H24702   7.040   5.082   1.453  1.8354  0.4175  0.1259
  183MOL0     H24703   7.358   5.066   1.443 -1.0120 -1.7409  0.8141
  183MOL0     H24704   7.336   5.235   1.509  1.7400 -0.2082 -0.9142
  183MOL0     H24705   7.230   5.109   1.559  1.6772  0.1026  0.4667
  184MOL0     O24706   8.542   6.312  10.261  0.5358  0.2779  1.1011
  184MOL0     C24707   8.611   6.389  10.316  0.6734 -0.2118  0.4405
  184MOL0     O24708   8.589   6.448  10.433  0.0362  0.7002 -0.9304
  184MOL0     C24709   8.460   6.445  10.476 -0.6576 -0.0764 -0.3665
  184MOL0     C24710   8.403   6.320  10.508 -0.7092 -0.1570  0.4193
  184MOL0     C24711   8.267   6.303  10.529  1.1646  0.4181  0.0607
  184MOL0     C24712   8.182   6.415  10.511  0.2466 -0.0478 -0.4473
  184MOL0     O24713   8.046   6.396  10.522  0.4167  0.1357 -0.3076
  184MOL0     C24714   7.972   6.512  10.529  0.8338 -1.1775  0.2899
  184MOL0     C24715   7.835   6.477  10.583  0.2022 -0.1360 -0.0570
  184MOL0     C24716   7.767   6.402  10.467  0.6876  1.1336  0.1616
  184MOL0     C24717   7.615   6.371  10.502 -0.3306  1.1022  1.0547
  184MOL0     C24718   7.542   6.281  10.409 -0.4126  0.0834  0.9335
  184MOL0     C24719   7.393   6.263  10.450  0.0551  0.4758  0.3808
  184MOL0     C24720   7.331   6.147  10.360  0.3270 -0.1204 -0.0739
  184MOL0     C24721   7.191   6.106  10.422  0.2571 -0.0404  0.0829
  184MOL0     N24722   7.091   6.217  10.434  0.1659 -0.6010 -0.0994
  184MOL0     C24723   7.053   6.303  10.332 -0.5392 -0.9122 -0.6374
  184MOL0     C24724   6.998   6.403  10.398 -0.6673 -0.1832 -0.3085
  184MOL0     C24725   6.945   6.531  10.340 -0.2773  0.7747 -0.3662
  184MOL0     C24726   7.018   6.593  10.225 -0.6174 -0.9600  0.8029
  184MOL0     C24727   6.965   6.574  10.083 -0.2809  0.0718  0.2626
  184MOL0     C24728   7.076   6.581   9.979  0.1480 -0.2340 -0.7369
  184MOL0     O24729   7.172   6.472   9.980 -0.5848 -0.1878  0.4544
  184MOL0     C24730   7.297   6.508   9.931  0.0596 -0.3842 -0.2622
  184MOL0     C24731   7.390   6.411   9.965 -0.4283 -0.5268  0.2996
  184MOL0     C24732   7.526   6.420   9.922  0.0159  0.5830 -0.1859
  184MOL0     C24733   7.571   6.538   9.863 -0.2497 -0.6470 -0.1790
  184MOL0     C24734   7.717   6.554   9.816  0.0898 -0.1380 -0.3070
  184MOL0     O24735   7.783   6.443   9.796 -0.3070  0.7121 -0.6818
  184MOL0     C24736   7.900   6.446   9.729 -0.0128  0.7369  0.5891
  184MOL0     C24737   8.019   6.407   9.793  0.5967  0.6100  0.2834
  184MOL0     C24738   8.136   6.411   9.716  0.0456  0.4090  0.2290
  184MOL0     C24739   8.136   6.435   9.581 -0.4251 -0.0542 -0.0209
  184MOL0     O24740   8.246   6.430   9.500  0.1622 -0.1140  0.2812
  184MOL0     C24741   8.346   6.337   9.546 -0.3341 -0.9005 -0.2590
  184MOL0     C24742   8.455   6.303   9.434 -0.1897  0.7067  0.5687
  184MOL0     C24743   8.544   6.184   9.473  0.1070 -0.2238 -0.0941
  184MOL0     C24744   8.645   6.147   9.356 -0.5684  0.2162 -0.4407
  184MOL0     C24745   8.703   6.011   9.374 -0.4965  1.3280 -0.4844
  184MOL0     C24746   8.789   5.990   9.509  0.1975  0.3042 -0.7298
  184MOL0     C24747   8.858   5.857   9.520 -0.2470 -0.2151 -0.1204
  184MOL0     C24748   8.773   5.739   9.546  0.1494  0.5668 -0.3118
  184MOL0    Cl24749   8.709   5.754   9.724  0.1501  0.4464 -0.2768
  184MOL0     C24750   8.023   6.473   9.521  0.5128 -1.0858 -1.3293
  184MOL0     C24751   7.902   6.482   9.591  0.1115  0.6146 -0.6850
  184MOL0     O24752   7.757   6.674   9.796 -0.6353 -0.2959  0.3464
  184MOL0     C24753   7.475   6.638   9.844  0.9244 -0.4082 -0.8777
  184MOL0     C24754   7.340   6.631   9.878  0.7505  0.2914 -0.4387
  184MOL0     N24755   6.992   6.377  10.530 -0.2829  1.0789 -0.2955
  184MOL0     N24756   7.045   6.265  10.553  0.5232 -0.1075 -0.1120
  184MOL0     C24757   8.241   6.539  10.474 -0.1339  0.3823  0.6360
  184MOL0     C24758   8.379   6.558  10.455  0.0868 -0.4852 -0.0629
  184MOL0     C24759   8.737   6.418  10.264 -0.6266  0.5019  1.0149
  184MOL0     C24760   8.824   6.305  10.251  0.2013  0.1818 -0.2370
  184MOL0     C24761   8.950   6.318  10.198 -0.7932  0.5897  0.2358
  184MOL0     C24762   8.993   6.441  10.159 -0.3622  0.7056 -0.4389
  184MOL0     O24763   9.128   6.446  10.124  1.2064 -0.2095 -0.2659
  184MOL0     C24764   9.202   6.567  10.145 -0.0070  0.5521  0.2080
  184MOL0     C24765   9.357   6.532  10.145 -0.1317  0.1482 -0.3760
  184MOL0     C24766   9.437   6.664  10.166  0.4037  0.0892  0.2212
  184MOL0     C24767   9.587   6.646  10.155  0.1404 -0.1751  0.2084
  184MOL0     C24768   9.650   6.577  10.269 -0.0707 -0.1587 -0.2975
  184MOL0     C24769   9.712   6.528  10.356 -0.9267  0.0745  0.6623
  184MOL0     C24770   8.909   6.558  10.170 -0.0683 -0.2669  0.3633
  184MOL0     C24771   8.786   6.546  10.222 -0.3580  0.4766 -0.1890
  184MOL0     C24772   8.697   6.665  10.222  0.0168  0.0559 -0.8914
  184MOL0     H24773   8.477   6.241  10.514 -0.9516 -0.6985 -2.3714
  184MOL0     H24774   8.230   6.203  10.552 -2.0686  0.9425 -2.0908
  184MOL0     H24775   8.018   6.585  10.598  0.6668 -0.9284  0.1395
  184MOL0     H24776   7.975   6.555  10.429 -0.2029 -3.5011 -0.7895
  184MOL0     H24777   7.790   6.574  10.607  2.3469  1.3766 -1.6734
  184MOL0     H24778   7.830   6.423  10.678 -2.2682  1.2510  0.6710
  184MOL0     H24779   7.814   6.303  10.465 -1.6204 -0.0283 -0.8220
  184MOL0     H24780   7.780   6.462  10.376 -1.1776  1.2285 -0.0768
  184MOL0     H24781   7.613   6.331  10.604 -2.2789 -1.1175  0.2421
  184MOL0     H24782   7.556   6.463  10.506 -0.3719  1.2100 -0.8630
  184MOL0     H24783   7.555   6.327  10.310  0.8772  0.2878  1.1800
  184MOL0     H24784   7.592   6.184  10.400 -0.9329 -0.2355  1.4660
  184MOL0     H24785   7.395   6.231  10.555 -1.6298 -0.3770  0.1800
  184MOL0     H24786   7.332   6.354  10.451  0.9708  1.1178 -0.4438
  184MOL0     H24787   7.395   6.059  10.367 -0.4588 -0.7822 -1.0042
  184MOL0     H24788   7.327   6.184  10.257 -0.3173 -0.3386 -0.1301
  184MOL0     H24789   7.134   6.034  10.363  0.2785 -0.6566  0.7925
  184MOL0     H24790   7.206   6.071  10.525  2.9733 -0.3085 -0.3370
  184MOL0     H24791   7.086   6.314  10.229 -0.3058  2.3380 -0.3173
  184MOL0     H24792   6.839   6.515  10.321 -0.3668 -0.4117  0.9756
  184MOL0     H24793   6.949   6.608  10.417 -0.7819 -0.4125  0.8896
  184MOL0     H24794   7.029   6.701  10.233  0.0489 -0.5746 -3.1314
  184MOL0     H24795   7.121   6.557  10.228  0.2967  1.2936 -0.8800
  184MOL0     H24796   6.893   6.653  10.057 -1.0576 -0.0511  1.9603
  184MOL0     H24797   6.905   6.484  10.069 -2.0739  1.2998 -0.3656
  184MOL0     H24798   7.128   6.674  10.004  1.5126 -1.0244 -0.5432
  184MOL0     H24799   7.026   6.598   9.883 -1.6717  0.2902  0.2644
  184MOL0     H24800   7.361   6.320  10.016 -0.1883 -0.8810 -0.1915
  184MOL0     H24801   7.588   6.331   9.929  1.7196  1.6833 -0.5840
  184MOL0     H24802   8.014   6.370   9.894  0.4550  0.9335  0.3969
  184MOL0     H24803   8.228   6.391   9.770  1.3926  1.6306 -1.5012
  184MOL0     H24804   8.393   6.385   9.633  1.2695  0.7743 -1.9467
  184MOL0     H24805   8.294   6.247   9.579 -0.1354 -1.0181 -0.2715
  184MOL0     H24806   8.398   6.273   9.346  0.3004  0.4801  0.3263
  184MOL0     H24807   8.510   6.391   9.399 -1.6083  1.1651 -0.5821
  184MOL0     H24808   8.593   6.205   9.568  0.5063  0.8818 -0.5272
  184MOL0     H24809   8.480   6.096   9.485  1.4742 -1.1549  0.6471
  184MOL0     H24810   8.719   6.226   9.342 -0.0522 -0.5404 -2.2873
  184MOL0     H24811   8.593   6.150   9.260  2.5658  0.3246 -2.2832
  184MOL0     H24812   8.769   5.980   9.292  0.3712  0.5519  0.4760
  184MOL0     H24813   8.623   5.936   9.380  1.0541 -0.2678  1.9753
  184MOL0     H24814   8.870   6.064   9.518  2.1345 -1.8702  1.0254
  184MOL0     H24815   8.735   6.006   9.603  0.4872  1.5426 -0.7520
  184MOL0     H24816   8.931   5.877   9.600 -3.0768  1.7057  2.1757
  184MOL0     H24817   8.905   5.848   9.422  1.8879 -0.1131  0.8350
  184MOL0     H24818   8.691   5.729   9.474 -0.5820 -0.6995  0.6405
  184MOL0     H24819   8.834   5.649   9.543  0.7418  0.9866 -1.5466
  184MOL0     H24820   8.018   6.501   9.416  3.3478  3.8651 -0.5184
  184MOL0     H24821   7.808   6.500   9.540  0.0600 -2.2488 -1.7828
  184MOL0     H24822   7.505   6.737   9.813 -2.2759  2.4597  3.9279
  184MOL0     H24823   7.285   6.724   9.872  1.2426  0.8038  1.9249
  184MOL0     H24824   8.180   6.623  10.441  2.1484  1.9482  0.1586
  184MOL0     H24825   8.421   6.655  10.432 -1.2942  0.5719  1.6200
  184MOL0     H24826   8.780   6.214  10.289  1.1473 -0.1040  0.1950
  184MOL0     H24827   9.016   6.234  10.179 -2.5314 -0.9076  0.5910
  184MOL0     H24828   9.173   6.611  10.241  1.0334  0.4316  0.5933
  184MOL0     H24829   9.177   6.644  10.072 -2.3175 -0.0985  0.2318
  184MOL0     H24830   9.392   6.482  10.055  2.2400 -2.0504  1.6043
  184MOL0     H24831   9.385   6.476  10.235 -1.4105  1.1086  0.6661
  184MOL0     H24832   9.405   6.705  10.263  0.7940 -1.8188  1.2003
  184MOL0     H24833   9.407   6.734  10.088 -0.9960 -1.6593 -0.8723
  184MOL0     H24834   9.602   6.589  10.063  1.0272  1.1102 -0.4897
  184MOL0     H24835   9.647   6.733  10.127 -0.6238  0.1219 -0.5502
  184MOL0     H24836   9.762   6.464  10.427  2.1788 -1.7567 -2.7747
  184MOL0     H24837   8.951   6.655  10.145  2.2963 -1.3680 -0.1961
  184MOL0     H24838   8.671   6.694  10.324 -0.1081 -5.2888  0.9195
  184MOL0     H24839   8.740   6.752  10.171 -1.2368  0.2012 -1.7528
  184MOL0     H24840   8.603   6.631  10.176 -0.6711 -0.8629  1.0634
  185MOL0     O24841   9.922   5.217   9.199  0.0329  0.4191 -0.5229
  185MOL0     C24842   9.924   5.233   9.076 -1.0190  0.7601 -1.6898
  185MOL0     O24843  10.032   5.216   9.001 -0.2028  0.0875  0.1909
  185MOL0     C24844  10.152   5.168   9.047  0.2224 -0.9402 -1.2669
  185MOL0     C24845  10.234   5.118   8.951  0.1143 -0.4612 -0.4263
  185MOL0     C24846  10.356   5.063   8.982 -0.0782 -0.4056  0.3893
  185MOL0     C24847  10.403   5.055   9.112  0.4787 -0.7028  0.4549
  185MOL0     O24848  10.513   4.974   9.157 -0.0966 -0.2050  0.0731
  185MOL0     C24849  10.605   4.919   9.060  1.0334  0.4841  0.4685
  185MOL0     C24850  10.732   4.892   9.137  0.0281  0.2447  0.9085
  185MOL0     C24851  10.841   4.851   9.038 -0.2299 -0.5156 -0.2597
  185MOL0     C24852  10.974   4.809   9.104  0.0380 -0.2008  0.0830
  185MOL0     C24853  11.076   4.750   8.995  0.3797  0.3878  0.7076
  185MOL0     C24854  11.127   4.861   8.909  0.2171  0.7929 -0.1579
  185MOL0     C24855  11.273   4.835   8.873  1.3996  0.1192 -0.6594
  185MOL0     C24856  11.375   4.853   8.985 -0.0970 -0.5846  0.4563
  185MOL0     N24857  11.510   4.846   8.923 -0.0971 -0.2594  0.1474
  185MOL0     C24858  11.576   4.950   8.864  0.4799  0.4857 -0.2239
  185MOL0     C24859  11.684   4.897   8.811  0.3226  0.4516 -1.1918
  185MOL0     C24860  11.792   4.984   8.761  0.2019  0.7525  0.8889
  185MOL0     C24861  11.825   4.961   8.608 -0.1042  0.2939 -1.0472
  185MOL0     C24862  11.906   5.075   8.543 -0.5234 -0.0340 -0.3769
  185MOL0     C24863  12.052   5.053   8.521 -0.4917  0.8433 -0.4631
  185MOL0     O24864  12.110   5.076   8.650  0.0139 -0.4977  0.7281
  185MOL0     C24865  12.208   4.983   8.679 -0.3056 -0.0576 -0.2650
  185MOL0     C24866  12.174   4.848   8.722 -0.3782 -0.8425  0.2458
  185MOL0     C24867  12.285   4.761   8.738 -0.6962 -0.1465 -0.3014
  185MOL0     C24868  12.422   4.795   8.725  0.0182 -0.7873  0.4958
  185MOL0     C24869  12.535   4.713   8.759 -1.0514 -0.0080 -0.4322
  185MOL0     O24870  12.654   4.775   8.764  0.6663  0.0367 -1.0670
  185MOL0     C24871  12.776   4.708   8.760  0.0174 -0.1607 -0.1805
  185MOL0     C24872  12.791   4.592   8.689 -0.1957 -0.3710  0.5493
  185MOL0     C24873  12.914   4.533   8.668 -0.1193 -0.3420 -0.1720
  185MOL0     C24874  13.031   4.589   8.725  0.2592  1.2517 -0.9827
  185MOL0     O24875  13.154   4.528   8.724  0.2331  0.0450 -0.5417
  185MOL0     C24876  13.178   4.444   8.610  0.5088 -0.6614 -0.1323
  185MOL0     C24877  13.317   4.478   8.560  0.3023  0.1681 -0.5830
  185MOL0     C24878  13.416   4.393   8.631 -0.3794 -0.4382  0.5938
  185MOL0     C24879  13.471   4.431   8.766  0.4751  0.0011  0.2627
  185MOL0     C24880  13.581   4.330   8.815 -0.6272 -0.0564 -0.5195
  185MOL0     C24881  13.663   4.394   8.921  0.6816  0.7299 -0.3594
  185MOL0     C24882  13.751   4.291   8.990 -0.3638 -0.9270 -1.5256
  185MOL0     C24883  13.836   4.353   9.099  0.6703 -0.5512  0.9708
  185MOL0    Cl24884  13.973   4.446   9.052  0.0940  0.5027  0.0687
  185MOL0     C24885  13.019   4.707   8.805 -0.5354  0.2793 -0.1525
  185MOL0     C24886  12.894   4.767   8.805 -0.0941  0.4297  0.0545
  185MOL0     O24887  12.512   4.591   8.767 -0.2642  0.5040  0.5953
  185MOL0     C24888  12.445   4.927   8.683  0.3490  0.0407 -0.0949
  185MOL0     C24889  12.338   5.015   8.666  0.5281  0.0557 -0.0588
  185MOL0     N24890  11.683   4.764   8.824  0.3484  0.3210  0.7817
  185MOL0     N24891  11.583   4.731   8.896  0.7520 -0.6385 -1.5754
  185MOL0     C24892  10.319   5.105   9.218 -0.0409 -0.1640  0.1204
  185MOL0     C24893  10.202   5.170   9.184 -0.7797 -0.3048 -0.6332
  185MOL0     C24894   9.790   5.271   9.025 -0.4201 -0.3710  1.0443
  185MOL0     C24895   9.708   5.359   9.101  0.3400  0.5857  0.3283
  185MOL0     C24896   9.585   5.408   9.054 -0.9017  0.0926 -0.1463
  185MOL0     C24897   9.551   5.390   8.925 -0.9287  0.0016  0.2485
  185MOL0     O24898   9.430   5.406   8.870  0.1703  0.6465 -0.3942
  185MOL0     C24899   9.395   5.536   8.816 -0.0878  0.7861 -0.8314
  185MOL0     C24900   9.276   5.587   8.906 -0.5122 -0.0700  0.3983
  185MOL0     C24901   9.141   5.520   8.910  0.2043 -0.8268 -0.5361
  185MOL0     C24902   9.076   5.522   8.765 -0.4486  0.3488 -0.4187
  185MOL0     C24903   9.061   5.658   8.713 -0.6674  0.7747 -0.0875
  185MOL0     C24904   9.066   5.770   8.671  1.3434  0.6168 -0.4309
  185MOL0     C24905   9.638   5.324   8.838 -0.3715  0.5440 -0.3524
  185MOL0     C24906   9.758   5.263   8.887  0.6296  0.4970 -0.4413
  185MOL0     C24907   9.830   5.162   8.804 -0.4736  0.2812 -0.1699
  185MOL0     H24908  10.197   5.108   8.850  2.7115 -0.4325 -1.4786
  185MOL0     H24909  10.407   5.010   8.902  1.8791 -0.0245  1.3114
  185MOL0     H24910  10.565   4.833   9.004  0.9157  1.3025 -0.7382
  185MOL0     H24911  10.618   4.997   8.985 -0.3666 -0.3661 -0.7191
  185MOL0     H24912  10.708   4.815   9.211  0.9113  2.1237  3.2931
  185MOL0     H24913  10.766   4.974   9.201 -1.4565  1.8480 -0.2577
  185MOL0     H24914  10.865   4.933   8.969 -1.0051 -1.6513 -1.9329
  185MOL0     H24915  10.810   4.763   8.982  2.2761 -1.3422 -0.4962
  185MOL0     H24916  11.026   4.890   9.155 -2.1597  0.2945  1.6941
  185MOL0     H24917  10.963   4.727   9.176  2.5366 -1.2719 -0.6620
  185MOL0     H24918  11.150   4.687   9.047 -2.2996 -3.4084  0.2978
  185MOL0     H24919  11.034   4.674   8.929 -1.0475  1.7277  0.0150
  185MOL0     H24920  11.063   4.883   8.823  1.8024 -1.4968 -2.0520
  185MOL0     H24921  11.133   4.951   8.972  2.1227  2.4509 -2.4990
  185MOL0     H24922  11.307   4.893   8.786  0.4339 -2.2881 -2.7612
  185MOL0     H24923  11.271   4.733   8.834  0.2917  0.3483 -1.2428
  185MOL0     H24924  11.367   4.958   9.014 -1.6571 -0.7240  0.5923
  185MOL0     H24925  11.371   4.779   9.065 -1.3402 -1.1056 -0.0683
  185MOL0     H24926  11.547   5.053   8.882 -1.8246 -0.3262  1.1164
  185MOL0     H24927  11.772   5.089   8.781 -2.9780  0.0196  2.2185
  185MOL0     H24928  11.879   4.956   8.821  2.4916  3.1122 -1.0890
  185MOL0     H24929  11.886   4.872   8.591  1.0350  0.0280  3.3185
  185MOL0     H24930  11.730   4.943   8.557 -1.0042  1.4602  0.1313
  185MOL0     H24931  11.896   5.168   8.600 -2.0477 -1.3358  1.5939
  185MOL0     H24932  11.872   5.095   8.441 -0.6859  1.7222 -0.0124
  185MOL0     H24933  12.093   5.115   8.441  2.3638 -1.7882 -1.2463
  185MOL0     H24934  12.059   4.949   8.488  1.6502  0.5350  0.7976
  185MOL0     H24935  12.072   4.820   8.745 -0.3042 -1.2828  0.0449
  185MOL0     H24936  12.274   4.657   8.766  0.9734  0.4805  3.1657
  185MOL0     H24937  12.720   4.522   8.647 -0.7579  0.2401  0.4578
  185MOL0     H24938  12.912   4.438   8.616  3.0606  0.5874 -2.3337
  185MOL0     H24939  13.170   4.337   8.633 -1.7820 -1.0291 -2.2128
  185MOL0     H24940  13.105   4.459   8.530 -0.9657  2.6394  1.6408
  185MOL0     H24941  13.317   4.451   8.454 -1.3735 -0.4915 -0.4573
  185MOL0     H24942  13.338   4.585   8.569 -1.4352  0.5383 -0.4486
  185MOL0     H24943  13.378   4.290   8.630 -1.6109  0.0095  0.0109
  185MOL0     H24944  13.503   4.392   8.565  0.2315 -1.7752  1.3743
  185MOL0     H24945  13.386   4.451   8.833  2.5659  3.2510  2.2086
  185MOL0     H24946  13.513   4.529   8.744 -1.3376  0.3734 -2.0403
  185MOL0     H24947  13.647   4.296   8.734  2.1809  0.8460  1.2505
  185MOL0     H24948  13.533   4.243   8.859 -2.6095  1.1135 -0.2477
  185MOL0     H24949  13.733   4.471   8.888  1.2530  0.5574  0.4242
  185MOL0     H24950  13.594   4.443   8.991 -1.6030 -1.2445 -1.0997
  185MOL0     H24951  13.813   4.237   8.918  0.3588 -1.1287 -0.7667
  185MOL0     H24952  13.684   4.223   9.043  0.0662 -0.6418 -0.5860
  185MOL0     H24953  13.768   4.421   9.151  1.4016 -1.2657  2.9800
  185MOL0     H24954  13.865   4.281   9.176 -0.5529 -0.2381  1.7588
  185MOL0     H24955  13.108   4.739   8.857 -1.6812 -0.5646  2.4942
  185MOL0     H24956  12.893   4.858   8.864  1.6375  0.4329  0.1108
  185MOL0     H24957  12.542   4.970   8.663 -1.2873  2.6719 -3.3917
  185MOL0     H24958  12.361   5.120   8.649  2.2325  0.2074  2.5390
  185MOL0     H24959  10.344   5.088   9.322  0.7153 -0.8415 -0.1591
  185MOL0     H24960  10.150   5.219   9.266  0.7971  2.0139 -0.9065
  185MOL0     H24961   9.744   5.378   9.202  2.0322  0.4502 -0.2100
  185MOL0     H24962   9.525   5.474   9.117 -0.1698 -1.3959  2.2530
  185MOL0     H24963   9.374   5.532   8.709  3.3823  0.8764 -1.6080
  185MOL0     H24964   9.488   5.593   8.826 -1.3888  2.8573  0.1046
  185MOL0     H24965   9.250   5.687   8.871 -1.8379 -1.1253 -1.8703
  185MOL0     H24966   9.321   5.586   9.006  1.3893 -2.4022 -0.3833
  185MOL0     H24967   9.081   5.584   8.975  0.3155  0.1258 -1.3435
  185MOL0     H24968   9.149   5.416   8.943  0.9750 -0.9997 -1.2142
  185MOL0     H24969   9.130   5.457   8.694  1.3211  0.2738  0.9318
  185MOL0     H24970   8.976   5.478   8.763 -1.0408  1.6530 -2.1928
  185MOL0     H24971   9.065   5.870   8.632 -0.4307  0.2033 -1.5632
  185MOL0     H24972   9.605   5.298   8.738 -2.6992 -0.9707  0.7173
  185MOL0     H24973   9.830   5.062   8.849 -2.1731  1.4418  2.6322
  185MOL0     H24974   9.772   5.142   8.713  1.0517 -1.0558 -0.8992
  185MOL0     H24975   9.930   5.188   8.767 -0.7753 -0.7195 -1.8197
  186MOL0     O24976   7.927  11.016   8.493  0.6917 -0.7387 -0.2808
  186MOL0     C24977   7.897  11.103   8.578 -0.8580 -0.1323 -0.1526
  186MOL0     O24978   7.989  11.195   8.633 -0.3037  0.4177 -0.0853
  186MOL0     C24979   8.110  11.208   8.572 -0.7151  0.0175 -0.3095
  186MOL0     C24980   8.151  11.341   8.581 -0.0946  0.1057 -0.8648
  186MOL0     C24981   8.266  11.392   8.515  0.5726 -0.6376  0.0513
  186MOL0     C24982   8.347  11.304   8.438 -0.5039 -0.8042  0.4179
  186MOL0     O24983   8.459  11.343   8.375  0.2820  0.4561  0.1873
  186MOL0     C24984   8.423  11.385   8.245  0.8356 -0.8806  0.0163
  186MOL0     C24985   8.503  11.503   8.187 -1.0454 -0.3748 -0.9247
  186MOL0     C24986   8.648  11.475   8.160  0.2000 -0.6168  0.2945
  186MOL0     C24987   8.747  11.578   8.210 -0.0323  1.1601 -0.6898
  186MOL0     C24988   8.886  11.534   8.188  0.1368  0.1057 -0.3025
  186MOL0     C24989   8.995  11.623   8.251 -0.4076 -0.1268 -0.2152
  186MOL0     C24990   9.023  11.753   8.168 -0.7082 -0.0707  1.0306
  186MOL0     C24991   9.149  11.825   8.235  0.4628  0.7182  0.2138
  186MOL0     N24992   9.271  11.743   8.219 -0.4076  0.8300  0.0267
  186MOL0     C24993   9.340  11.688   8.323 -0.0501 -0.6686  0.0878
  186MOL0     C24994   9.444  11.620   8.260  0.4893 -0.9279 -0.3002
  186MOL0     C24995   9.565  11.558   8.321 -0.1036 -1.0320  0.3457
  186MOL0     C24996   9.539  11.521   8.472 -0.0868 -0.2689  0.7821
  186MOL0     C24997   9.628  11.403   8.527  0.0505 -0.4486 -0.4141
  186MOL0     C24998   9.783  11.416   8.529  0.1040  1.5783  0.3812
  186MOL0     O24999   9.830  11.284   8.562 -0.2942  0.0120  0.1232
  186MOL0     C25000   9.963  11.252   8.569 -0.3178 -0.1869  0.1810
  186MOL0     C25001  10.067  11.345   8.566  0.1865  0.0450  0.8309
  186MOL0     C25002  10.198  11.310   8.582  0.5437 -0.1572  0.5660
  186MOL0     C25003  10.226  11.182   8.611  0.5371 -0.1972 -0.3336
  186MOL0     C25004  10.375  11.153   8.618  0.9604  0.5671  0.3306
  186MOL0     O25005  10.468  11.247   8.591  0.1420  1.2349 -1.0068
  186MOL0     C25006  10.605  11.234   8.581 -0.3935 -0.7884  1.1617
  186MOL0     C25007  10.672  11.348   8.539  0.4187  0.0072 -0.2140
  186MOL0     C25008  10.802  11.343   8.501 -0.8032 -0.3208 -0.1523
  186MOL0     C25009  10.880  11.228   8.520 -0.0593  0.7641  0.8757
  186MOL0     O25010  11.010  11.233   8.475 -0.3191 -0.0171  1.0001
  186MOL0     C25011  11.110  11.161   8.554  0.1264  0.4239 -0.5284
  186MOL0     C25012  11.150  11.033   8.472  0.2950  0.4030 -0.6497
  186MOL0     C25013  11.232  10.930   8.555 -0.0543  0.7891  0.1280
  186MOL0     C25014  11.374  10.986   8.564 -0.1182  0.6758 -0.4093
  186MOL0     C25015  11.441  10.902   8.676 -0.2942  0.5573  0.0159
  186MOL0     C25016  11.583  10.948   8.706 -0.5884 -0.8454  0.4423
  186MOL0     C25017  11.685  10.886   8.612 -0.6645 -0.0231  0.6401
  186MOL0     C25018  11.843  10.915   8.634 -0.0629  0.1717  0.1134
  186MOL0    Cl25019  11.901  10.866   8.792 -0.4972  0.1351 -0.3465
  186MOL0     C25020  10.818  11.112   8.576  0.8837  0.2749  0.2282
  186MOL0     C25021  10.681  11.117   8.597  0.2256  0.3368 -0.5960
  186MOL0     O25022  10.398  11.036   8.646  0.5010 -0.1498 -0.0192
  186MOL0     C25023  10.124  11.089   8.637  0.3915 -0.5006  0.5036
  186MOL0     C25024   9.997  11.126   8.601  0.0706  0.8948  0.0330
  186MOL0     N25025   9.431  11.634   8.120  0.1323  0.4396  0.3389
  186MOL0     N25026   9.334  11.720   8.103  0.7547  0.9584  0.1281
  186MOL0     C25027   8.305  11.170   8.421 -0.7731  0.0526 -0.1806
  186MOL0     C25028   8.193  11.121   8.492  0.3533  0.2221  0.5005
  186MOL0     C25029   7.755  11.128   8.607 -0.0089 -0.0670  0.5451
  186MOL0     C25030   7.712  11.256   8.637 -0.2569 -0.7534 -0.0978
  186MOL0     C25031   7.578  11.279   8.667 -0.5246 -0.5108  0.1639
  186MOL0     C25032   7.478  11.180   8.670 -0.3578  0.1685 -0.3346
  186MOL0     O25033   7.353  11.195   8.720  0.4474 -0.0470  0.2528
  186MOL0     C25034   7.292  11.324   8.717  0.2727  0.8668 -0.4344
  186MOL0     C25035   7.142  11.310   8.754 -0.7183  0.5976 -0.4484
  186MOL0     C25036   7.078  11.451   8.769  0.3415 -0.2119  0.1826
  186MOL0     C25037   6.926  11.451   8.817  0.3954 -0.2800  0.2464
  186MOL0     C25038   6.847  11.344   8.750 -0.6224  0.5558  0.4071
  186MOL0     C25039   6.776  11.262   8.689 -0.4762  0.0788  0.4732
  186MOL0     C25040   7.518  11.054   8.628 -0.4144 -0.6407 -0.6232
  186MOL0     C25041   7.655  11.029   8.596  0.4676  0.2248 -0.7955
  186MOL0     C25042   7.683  10.889   8.566  0.2633 -0.0977 -0.4224
  186MOL0     H25043   8.088  11.403   8.644  0.7796  0.8050 -0.6614
  186MOL0     H25044   8.299  11.491   8.545 -0.5384 -0.0051 -0.7102
  186MOL0     H25045   8.444  11.305   8.173 -1.1932 -1.4836  0.0491
  186MOL0     H25046   8.322  11.425   8.236  1.1111 -0.6565 -3.8888
  186MOL0     H25047   8.498  11.594   8.247 -1.2260  0.2938 -1.9225
  186MOL0     H25048   8.454  11.525   8.092 -1.3555 -0.2987 -0.7492
  186MOL0     H25049   8.671  11.455   8.055  1.9726  1.9431  0.0938
  186MOL0     H25050   8.660  11.376   8.203  1.2350 -2.3597 -3.6068
  186MOL0     H25051   8.725  11.670   8.156 -0.0756  2.2726  1.1223
  186MOL0     H25052   8.721  11.593   8.316  1.1356 -1.3088  0.0240
  186MOL0     H25053   8.892  11.430   8.223 -0.1449  0.5765  1.1991
  186MOL0     H25054   8.889  11.539   8.079  0.0857  0.5775 -0.2805
  186MOL0     H25055   8.969  11.649   8.354  3.4117 -2.6041  1.5990
  186MOL0     H25056   9.093  11.577   8.263  0.9995  1.8158 -3.0100
  186MOL0     H25057   8.936  11.820   8.166  0.1308  1.1069  1.9692
  186MOL0     H25058   9.050  11.742   8.063  1.9269  0.0795  1.6268
  186MOL0     H25059   9.174  11.918   8.185  0.6075  1.0642  0.9202
  186MOL0     H25060   9.121  11.851   8.337  2.8679  1.2000  0.7988
  186MOL0     H25061   9.339  11.701   8.431 -0.8277  0.3629 -0.0227
  186MOL0     H25062   9.590  11.465   8.270 -2.2263 -2.4098  1.6677
  186MOL0     H25063   9.654  11.623   8.321 -0.0064 -1.0871  2.5195
  186MOL0     H25064   9.547  11.604   8.542  1.2697 -0.3255  0.7089
  186MOL0     H25065   9.442  11.469   8.474 -0.2281 -0.1154 -0.6561
  186MOL0     H25066   9.600  11.314   8.469 -2.2945 -0.6761  0.9094
  186MOL0     H25067   9.594  11.377   8.628  1.5584  1.4204  0.6363
  186MOL0     H25068   9.799  11.496   8.602 -1.6350  1.4385  0.9486
  186MOL0     H25069   9.826  11.453   8.436  0.9190  2.7025  1.1810
  186MOL0     H25070  10.042  11.446   8.536  0.6671 -0.6435 -2.2005
  186MOL0     H25071  10.275  11.385   8.566  0.3860 -0.0310  0.4044
  186MOL0     H25072  10.625  11.442   8.513  2.7329  0.8098 -1.8867
  186MOL0     H25073  10.871  11.421   8.471  2.2192 -2.9034 -0.3884
  186MOL0     H25074  11.190  11.234   8.573  2.4328 -2.5890  2.5544
  186MOL0     H25075  11.081  11.135   8.656 -1.1397 -2.6414 -1.5630
  186MOL0     H25076  11.065  10.979   8.430  0.4341 -1.0986  0.8729
  186MOL0     H25077  11.202  11.064   8.381  0.1705 -3.5268 -2.2815
  186MOL0     H25078  11.186  10.913   8.653 -0.4902 -0.2441 -0.2418
  186MOL0     H25079  11.237  10.838   8.497  0.0797  0.8352  0.0670
  186MOL0     H25080  11.366  11.089   8.599  0.9606 -0.7969  4.9476
  186MOL0     H25081  11.424  10.998   8.467 -1.6371  1.2529 -1.1736
  186MOL0     H25082  11.439  10.797   8.646 -2.0861  0.5901 -0.1301
  186MOL0     H25083  11.384  10.910   8.769 -2.4671  0.7871 -1.2480
  186MOL0     H25084  11.581  11.057   8.698 -2.1287 -0.7987  0.9360
  186MOL0     H25085  11.624  10.920   8.803  0.7629 -0.5923 -0.0442
  186MOL0     H25086  11.664  10.947   8.523 -0.5949  1.5699  1.6676
  186MOL0     H25087  11.665  10.780   8.596  2.7159 -1.4373  4.2353
  186MOL0     H25088  11.900  10.869   8.553  0.0403  2.7428 -1.4004
  186MOL0     H25089  11.860  11.023   8.623 -0.4290  0.0506 -2.0471
  186MOL0     H25090  10.877  11.022   8.590  1.4552  0.7323  0.8528
  186MOL0     H25091  10.628  11.029   8.631  1.4417 -1.1799 -2.4311
  186MOL0     H25092  10.149  10.986   8.659  1.2186 -0.5395 -0.5613
  186MOL0     H25093   9.919  11.052   8.587 -2.1856  2.8814  1.4350
  186MOL0     H25094   8.356  11.091   8.368 -1.2420 -0.5693  0.2736
  186MOL0     H25095   8.165  11.016   8.487  0.5074  0.2306 -0.7768
  186MOL0     H25096   7.781  11.340   8.637 -0.5711 -0.4789 -0.9661
  186MOL0     H25097   7.549  11.381   8.692  0.7812 -0.1184  0.1501
  186MOL0     H25098   7.298  11.369   8.617 -0.7958  1.3885 -0.2692
  186MOL0     H25099   7.349  11.388   8.785  0.8181 -0.0662  0.0121
  186MOL0     H25100   7.129  11.249   8.844 -0.0715 -0.3656 -0.9830
  186MOL0     H25101   7.102  11.251   8.671  0.3622  0.2940 -0.7773
  186MOL0     H25102   7.102  11.514   8.682  0.7068 -1.4502 -0.6397
  186MOL0     H25103   7.130  11.502   8.850  2.0929 -2.5776  0.6273
  186MOL0     H25104   6.942  11.436   8.924 -1.6118  1.2250  0.8219
  186MOL0     H25105   6.881  11.548   8.796  1.2437  0.4901  1.8072
  186MOL0     H25106   6.726  11.185   8.633  2.3251 -1.3255 -0.2745
  186MOL0     H25107   7.442  10.976   8.631 -0.5091 -0.5742 -1.1930
  186MOL0     H25108   7.775  10.852   8.612  0.9833  0.3732 -1.4497
  186MOL0     H25109   7.604  10.829   8.612 -0.4204  0.3506 -0.9923
  186MOL0     H25110   7.683  10.880   8.457  1.1439  2.0862 -0.6577
  187MOL0     O25111  10.030   5.661   9.721  0.4353  0.5694 -0.4399
  187MOL0     C25112  10.066   5.746   9.645  0.1033  0.2973 -0.0948
  187MOL0     O25113  10.198   5.789   9.631  0.2134  0.6321 -0.8765
  187MOL0     C25114  10.300   5.730   9.707  0.0466 -0.5586  0.3111
  187MOL0     C25115  10.297   5.731   9.841 -0.3854 -0.4832 -0.7479
  187MOL0     C25116  10.406   5.679   9.922  0.3904  0.2944  0.1648
  187MOL0     C25117  10.499   5.596   9.865  0.1897  0.3073  0.6936
  187MOL0     O25118  10.566   5.509   9.943  0.7967  0.1509  0.1038
  187MOL0     C25119  10.706   5.539   9.949  0.1128 -1.1194 -0.5297
  187MOL0     C25120  10.781   5.441  10.040 -0.5830 -0.4189 -0.0456
  187MOL0     C25121  10.932   5.474  10.029 -0.4987 -0.4657 -0.0077
  187MOL0     C25122  11.005   5.401  10.149  0.0396 -1.3134  0.0553
  187MOL0     C25123  11.156   5.376  10.136  0.2873 -0.3581 -0.1368
  187MOL0     C25124  11.215   5.314  10.005  0.8025 -0.5356  0.0651
  187MOL0     C25125  11.363   5.297   9.994  0.4818  1.2651  0.6979
  187MOL0     C25126  11.442   5.410  10.055  0.2456 -0.2696 -0.2238
  187MOL0     N25127  11.582   5.395  10.020  0.2813 -0.6511 -0.3625
  187MOL0     C25128  11.672   5.296  10.041  0.6106  0.3863 -0.4465
  187MOL0     C25129  11.781   5.331   9.974 -0.6483  0.1442  0.0879
  187MOL0     C25130  11.916   5.259   9.969 -0.3253  0.1252 -0.5239
  187MOL0     C25131  12.013   5.346  10.050 -0.1542 -0.4214  0.0312
  187MOL0     C25132  12.000   5.304  10.198 -0.7866  0.0110 -0.2028
  187MOL0     C25133  12.078   5.398  10.288 -0.2702 -0.3767  0.9669
  187MOL0     O25134  12.098   5.355  10.419  0.0479  0.6652 -0.0018
  187MOL0     C25135  12.207   5.277  10.448  0.3727  0.4423  0.8350
  187MOL0     C25136  12.220   5.206  10.566  0.3821 -0.6044  0.3777
  187MOL0     C25137  12.329   5.121  10.580  0.1957  0.3006  0.1674
  187MOL0     C25138  12.421   5.097  10.482  0.0804 -0.2193 -0.1748
  187MOL0     C25139  12.513   4.983  10.503  0.0972  1.3423  0.0334
  187MOL0     O25140  12.626   4.980  10.423  0.3550 -0.5033  0.8222
  187MOL0     C25141  12.696   4.860  10.424 -0.2240 -0.1731  0.1578
  187MOL0     C25142  12.636   4.743  10.373  0.1816  0.3692  1.2592
  187MOL0     C25143  12.707   4.626  10.357 -1.8753 -0.4071  0.2637
  187MOL0     C25144  12.840   4.627  10.401  0.5132 -0.3552  0.5847
  187MOL0     O25145  12.930   4.529  10.387  0.0444  0.3484  0.2896
  187MOL0     C25146  12.900   4.415  10.306 -0.0337  0.9631  0.5457
  187MOL0     C25147  13.015   4.322  10.293 -0.4661  0.1528  0.2457
  187MOL0     C25148  12.998   4.227  10.174  0.2774 -0.3129 -0.6668
  187MOL0     C25149  13.058   4.280  10.042  0.4721 -0.5360  0.4284
  187MOL0     C25150  13.164   4.181   9.992  0.0539 -0.4603 -0.6096
  187MOL0     C25151  13.149   4.188   9.841 -0.2011 -0.7938 -0.9229
  187MOL0     C25152  13.252   4.111   9.765 -0.6706  0.7092 -0.2947
  187MOL0     C25153  13.252   4.167   9.632 -0.3757 -0.1000  0.3480
  187MOL0    Cl25154  13.102   4.127   9.542 -0.0791 -0.3454  0.1565
  187MOL0     C25155  12.903   4.744  10.459 -0.0131 -0.1423 -0.2390
  187MOL0     C25156  12.828   4.860  10.463 -0.8109  0.0532  0.0306
  187MOL0     O25157  12.494   4.913  10.602 -0.2688  0.6955  0.4308
  187MOL0     C25158  12.415   5.171  10.365 -0.8344 -0.6113 -0.2280
  187MOL0     C25159  12.309   5.256  10.338  0.0606 -0.2280  0.2483
  187MOL0     N25160  11.758   5.450   9.907 -0.3942 -1.0921  0.2328
  187MOL0     N25161  11.638   5.481   9.929  0.4240  0.3259 -0.6514
  187MOL0     C25162  10.498   5.588   9.722 -0.7302  0.3894  0.2966
  187MOL0     C25163  10.398   5.656   9.645  0.8272 -0.5148  0.1822
  187MOL0     C25164   9.975   5.794   9.544  0.7619 -0.3058  0.4707
  187MOL0     C25165  10.027   5.839   9.429  0.6260  0.0688  0.1674
  187MOL0     C25166   9.945   5.875   9.323 -0.2223  0.0703  0.0222
  187MOL0     C25167   9.810   5.880   9.342 -0.5676  0.3505 -0.2634
  187MOL0     O25168   9.737   5.935   9.243  0.7088  0.2510  0.2784
  187MOL0     C25169   9.603   5.885   9.226  0.2295 -0.9024 -0.2390
  187MOL0     C25170   9.557   5.921   9.088 -0.3102 -0.1576 -0.3944
  187MOL0     C25171   9.534   6.071   9.067 -0.6106  0.1832 -0.4894
  187MOL0     C25172   9.543   6.118   8.917 -0.3121 -0.0004 -0.7975
  187MOL0     C25173   9.443   6.045   8.841 -0.0551  0.8384  0.3320
  187MOL0     C25174   9.376   5.973   8.773  0.6729  0.3239  0.3767
  187MOL0     C25175   9.753   5.838   9.463 -0.1431  0.5180 -0.5857
  187MOL0     C25176   9.830   5.785   9.566  0.0605 -0.4163  0.0194
  187MOL0     C25177   9.760   5.742   9.697  0.0339 -0.3341  0.9675
  187MOL0     H25178  10.213   5.783   9.884 -0.8397 -0.0080 -2.1589
  187MOL0     H25179  10.388   5.712  10.023 -2.5249  2.7974 -1.0108
  187MOL0     H25180  10.760   5.539   9.854  0.2609 -1.5020 -0.4502
  187MOL0     H25181  10.713   5.634  10.002  2.9234 -2.0516  0.9860
  187MOL0     H25182  10.751   5.343   9.999  1.0061 -0.4570 -1.1984
  187MOL0     H25183  10.742   5.468  10.138  2.2978  2.9854  0.3595
  187MOL0     H25184  10.946   5.581  10.045  1.6285 -0.9313  1.6893
  187MOL0     H25185  10.984   5.446   9.938  2.5646 -0.9421  1.7634
  187MOL0     H25186  10.991   5.469  10.234  2.5763  0.8960 -1.1214
  187MOL0     H25187  10.954   5.307  10.170 -0.1597 -1.4045 -0.8134
  187MOL0     H25188  11.189   5.477  10.159 -0.1271 -0.4304  0.8622
  187MOL0     H25189  11.178   5.312  10.223 -2.1970  2.9625  3.2683
  187MOL0     H25190  11.171   5.215   9.995  0.0868 -0.1910 -0.2607
  187MOL0     H25191  11.192   5.371   9.914  1.5359 -2.6747 -1.5542
  187MOL0     H25192  11.400   5.283   9.892  1.7435 -1.4378  1.4398
  187MOL0     H25193  11.387   5.207  10.051  1.0841  0.6787 -0.4645
  187MOL0     H25194  11.414   5.511  10.023  1.1368 -0.0326 -0.2939
  187MOL0     H25195  11.422   5.410  10.163 -0.8080  0.0342 -0.4062
  187MOL0     H25196  11.650   5.209  10.103 -1.8862  2.0135  1.1253
  187MOL0     H25197  11.918   5.155  10.004  0.7541 -0.0009 -0.9184
  187MOL0     H25198  11.944   5.260   9.863 -0.8227 -1.7141 -0.7129
  187MOL0     H25199  12.113   5.331  10.008 -0.5303  2.0219 -1.9549
  187MOL0     H25200  11.983   5.451  10.053 -0.1083 -0.3728  4.2470
  187MOL0     H25201  12.032   5.200  10.213  3.8842  1.1040 -0.9417
  187MOL0     H25202  11.896   5.311  10.230 -0.8014  0.4187 -0.3334
  187MOL0     H25203  12.018   5.487  10.310 -0.1958 -0.8580  3.3018
  187MOL0     H25204  12.163   5.437  10.231 -2.6638  0.5286 -2.3265
  187MOL0     H25205  12.145   5.214  10.645  2.2298  1.9088  2.0379
  187MOL0     H25206  12.316   5.045  10.656  0.6370  1.1881  1.1584
  187MOL0     H25207  12.537   4.747  10.329  0.5186  1.4171  0.5639
  187MOL0     H25208  12.657   4.543  10.307  0.8180 -2.4037  0.6617
  187MOL0     H25209  12.822   4.351  10.348 -0.4923  2.1499  1.5296
  187MOL0     H25210  12.872   4.456  10.208 -0.6996 -1.6215 -0.4340
  187MOL0     H25211  13.106   4.380  10.281  2.1766 -3.6465  0.0940
  187MOL0     H25212  13.032   4.260  10.381  0.7686 -3.2437 -2.1524
  187MOL0     H25213  13.049   4.134  10.202 -0.9746 -0.9074 -0.2700
  187MOL0     H25214  12.891   4.215  10.152  0.5523 -0.7526 -1.7924
  187MOL0     H25215  13.095   4.383  10.040 -3.2216  1.0128 -3.0159
  187MOL0     H25216  12.976   4.287   9.970  1.2107 -3.3605 -0.8191
  187MOL0     H25217  13.144   4.081  10.031 -0.6544 -0.5299 -1.1417
  187MOL0     H25218  13.258   4.226  10.027 -1.2322  1.5455  0.4943
  187MOL0     H25219  13.047   4.167   9.808 -2.2326  2.6264  2.3735
  187MOL0     H25220  13.161   4.291   9.807  1.4055 -1.8529 -3.8432
  187MOL0     H25221  13.231   4.004   9.758  0.5470  0.4821 -0.5838
  187MOL0     H25222  13.350   4.125   9.811 -0.4011 -1.3786 -0.1283
  187MOL0     H25223  13.266   4.275   9.629 -2.3088  0.1961  0.7784
  187MOL0     H25224  13.344   4.129   9.585 -1.4098 -3.9230  1.0553
  187MOL0     H25225  13.008   4.740  10.487  0.2037  0.7704 -0.8859
  187MOL0     H25226  12.864   4.956  10.499 -3.3555  1.1616 -0.1583
  187MOL0     H25227  12.494   5.167  10.291  0.8191  0.1865  1.4264
  187MOL0     H25228  12.307   5.298  10.238 -2.2662  3.6431  1.6929
  187MOL0     H25229  10.572   5.525   9.674 -0.7585 -0.8936  1.8530
  187MOL0     H25230  10.412   5.664   9.538 -0.1499 -3.5321 -0.2572
  187MOL0     H25231  10.131   5.858   9.407  0.8734  0.0371  1.2428
  187MOL0     H25232   9.985   5.904   9.227 -0.5444  0.8581  0.1189
  187MOL0     H25233   9.531   5.929   9.296  1.2857  1.2423 -0.4140
  187MOL0     H25234   9.597   5.778   9.251 -1.6945 -0.2257  2.8562
  187MOL0     H25235   9.462   5.869   9.072 -0.7399  0.1966  0.8462
  187MOL0     H25236   9.638   5.887   9.022  1.1902  0.3556  1.1094
  187MOL0     H25237   9.622   6.108   9.120  0.1257 -2.9159  0.6590
  187MOL0     H25238   9.443   6.106   9.118 -0.1224  3.5969 -1.6398
  187MOL0     H25239   9.534   6.227   8.906 -1.1287 -0.1202 -1.4066
  187MOL0     H25240   9.641   6.083   8.884  0.1164 -0.0664  0.4815
  187MOL0     H25241   9.310   5.909   8.718 -0.8868  3.1555 -1.3032
  187MOL0     H25242   9.645   5.845   9.476 -0.1495  3.0175 -1.5454
  187MOL0     H25243   9.785   5.640   9.728 -2.7930 -1.3560  0.2659
  187MOL0     H25244   9.784   5.813   9.777  3.5094  1.8505 -1.7344
  187MOL0     H25245   9.652   5.742   9.679  0.2158  2.7512 -0.8653
  188MOL0     O25246   8.527   5.592   9.324 -0.4379  0.1263 -0.5453
  188MOL0     C25247   8.466   5.594   9.215  0.4511  0.6940 -0.3832
  188MOL0     O25248   8.523   5.603   9.090 -0.5736 -0.3106  0.7017
  188MOL0     C25249   8.656   5.651   9.094  0.0215  0.2489  0.5990
  188MOL0     C25250   8.770   5.580   9.145 -0.5687 -0.3100  0.7508
  188MOL0     C25251   8.895   5.648   9.157  0.3211 -0.5911  0.1123
  188MOL0     C25252   8.916   5.774   9.090 -0.7367  0.1397  0.3084
  188MOL0     O25253   9.049   5.819   9.091  0.6116  0.1233  0.8174
  188MOL0     C25254   9.079   5.932   9.006  0.9284  1.2094  0.0969
  188MOL0     C25255   9.183   6.016   9.075  0.8649  0.6492 -0.8626
  188MOL0     C25256   9.146   6.102   9.198 -0.3251  0.3533  0.5087
  188MOL0     C25257   9.060   6.217   9.161  0.0420 -0.4003 -0.0149
  188MOL0     C25258   9.044   6.323   9.279 -0.6053 -0.2212 -0.7420
  188MOL0     C25259   9.004   6.458   9.215 -0.8399  0.0473 -0.3012
  188MOL0     C25260   9.007   6.575   9.316 -0.5555  0.1306 -0.1331
  188MOL0     C25261   8.970   6.713   9.244 -0.0585 -0.0658  0.2299
  188MOL0     N25262   8.956   6.815   9.350  0.7781  0.4987  0.8103
  188MOL0     C25263   8.859   6.828   9.446  0.4834  0.9346 -0.7210
  188MOL0     C25264   8.905   6.909   9.542 -0.1753  0.3799  0.0443
  188MOL0     C25265   8.824   6.937   9.673  0.1471 -1.4106  1.3318
  188MOL0     C25266   8.746   7.072   9.656  0.6856 -0.3911 -0.0377
  188MOL0     C25267   8.684   7.120   9.792 -0.0550 -0.5244  0.8755
  188MOL0     C25268   8.553   7.189   9.763 -0.1555  0.3059  0.2618
  188MOL0     O25269   8.503   7.219   9.889 -0.4867 -0.8161 -0.1193
  188MOL0     C25270   8.373   7.253   9.901 -0.4205 -0.1951  0.7005
  188MOL0     C25271   8.328   7.287  10.028 -0.0740  0.1917  0.5682
  188MOL0     C25272   8.194   7.329  10.041 -0.7621 -0.1809  0.7226
  188MOL0     C25273   8.111   7.333   9.936  0.8235  0.3296  0.5878
  188MOL0     C25274   7.971   7.378   9.948 -0.6730 -0.7876 -0.1276
  188MOL0     O25275   7.917   7.407   9.825  0.4849  0.4280  0.6039
  188MOL0     C25276   7.787   7.452   9.809  0.0961 -0.0467 -0.3203
  188MOL0     C25277   7.758   7.545   9.714  0.0286  0.0893 -0.1609
  188MOL0     C25278   7.632   7.611   9.710  0.1454  0.0560  0.3199
  188MOL0     C25279   7.535   7.572   9.807  0.4664 -0.2320 -0.7026
  188MOL0     O25280   7.415   7.638   9.812 -0.1179  0.3510  0.3398
  188MOL0     C25281   7.310   7.598   9.901  0.2232 -0.5437 -0.2652
  188MOL0     C25282   7.177   7.669   9.875  0.2598  0.7331 -0.5491
  188MOL0     C25283   7.082   7.647   9.997 -0.6579  0.2244  0.5831
  188MOL0     C25284   6.945   7.685   9.955 -0.6802  0.2619 -0.2993
  188MOL0     C25285   6.847   7.679  10.082  0.6022  0.1211  0.3777
  188MOL0     C25286   6.701   7.701  10.051  0.4739  0.7557 -0.0978
  188MOL0     C25287   6.616   7.743  10.178  0.1190  0.6984  0.2283
  188MOL0     C25288   6.468   7.747  10.121  0.7067 -0.6768  0.5551
  188MOL0    Cl25289   6.411   7.584  10.068  0.3144  0.5036 -0.4207
  188MOL0     C25290   7.562   7.463   9.890 -0.7711  0.2333 -0.3336
  188MOL0     C25291   7.684   7.401   9.892 -0.3711  0.7554  0.7031
  188MOL0     O25292   7.932   7.409  10.059  0.1931 -0.6591  0.6022
  188MOL0     C25293   8.163   7.310   9.806  0.1020  0.4748 -0.3756
  188MOL0     C25294   8.290   7.260   9.791 -0.3027  0.6849  0.1822
  188MOL0     N25295   9.029   6.944   9.500  0.1004  0.2700  1.2635
  188MOL0     N25296   9.062   6.887   9.385 -0.5825  0.6180 -0.3781
  188MOL0     C25297   8.807   5.833   9.038 -0.2668  0.1968 -0.0272
  188MOL0     C25298   8.677   5.775   9.036  0.6982  0.1798  0.3407
  188MOL0     C25299   8.328   5.581   9.223  0.9797  0.3896 -0.1863
  188MOL0     C25300   8.250   5.644   9.127 -0.8897  0.8464  0.9214
  188MOL0     C25301   8.108   5.628   9.120  0.0171  0.5397  0.2388
  188MOL0     C25302   8.044   5.546   9.214  0.0150 -1.1237 -0.4670
  188MOL0     O25303   7.908   5.529   9.211 -0.1815  0.0387  0.0945
  188MOL0     C25304   7.840   5.651   9.250 -0.1907  0.2392 -0.1196
  188MOL0     C25305   7.701   5.602   9.270 -0.0592 -0.0653 -0.2617
  188MOL0     C25306   7.608   5.718   9.284  0.7146 -0.3658  0.2133
  188MOL0     C25307   7.458   5.696   9.315  0.4030  0.4520 -0.9354
  188MOL0     C25308   7.432   5.621   9.442  0.1542  0.5826  0.5121
  188MOL0     C25309   7.407   5.562   9.546 -0.7422 -0.2653  0.1965
  188MOL0     C25310   8.117   5.484   9.317 -1.0707 -0.5835 -0.6752
  188MOL0     C25311   8.258   5.500   9.333 -0.0039  0.6400  0.6559
  188MOL0     C25312   8.337   5.420   9.437  0.9020 -0.1387 -0.2127
  188MOL0     H25313   8.747   5.486   9.193  0.4977 -0.8355  0.2761
  188MOL0     H25314   8.980   5.610   9.214  3.6794  3.2681 -1.7615
  188MOL0     H25315   9.112   5.892   8.909  2.3998 -1.6259  1.6319
  188MOL0     H25316   8.989   5.993   8.994  0.3762  0.6673  1.2680
  188MOL0     H25317   9.234   6.081   9.003 -0.9760  2.3771 -0.6960
  188MOL0     H25318   9.255   5.941   9.111  1.4465  1.4810 -0.2223
  188MOL0     H25319   9.226   6.153   9.253  0.5411  1.2381 -1.4995
  188MOL0     H25320   9.088   6.045   9.271 -2.9288 -1.0774 -2.4431
  188MOL0     H25321   9.087   6.272   9.070 -0.0657 -0.5501 -0.1386
  188MOL0     H25322   8.962   6.173   9.143  0.8728 -3.3520  1.9890
  188MOL0     H25323   8.968   6.299   9.353 -0.1161 -2.7452 -0.9618
  188MOL0     H25324   9.142   6.342   9.324 -1.2300  1.3825 -0.0154
  188MOL0     H25325   9.065   6.481   9.128 -3.3516  1.0981 -1.8699
  188MOL0     H25326   8.905   6.450   9.169 -0.8643  1.3256 -0.4986
  188MOL0     H25327   9.111   6.582   9.348 -0.0147 -0.5423 -1.6439
  188MOL0     H25328   8.936   6.552   9.396 -1.3519  2.5577 -0.0580
  188MOL0     H25329   9.043   6.750   9.171  0.1634  0.6824  0.8180
  188MOL0     H25330   8.877   6.697   9.189 -0.3826 -0.4079  0.8575
  188MOL0     H25331   8.783   6.751   9.455  1.9117 -0.6525 -1.4739
  188MOL0     H25332   8.751   6.859   9.697  0.5556 -0.7302  5.5721
  188MOL0     H25333   8.894   6.936   9.757  1.6592 -1.3506  0.1084
  188MOL0     H25334   8.808   7.152   9.616 -1.8405  0.4487 -2.6540
  188MOL0     H25335   8.674   7.050   9.576 -0.0702  0.3191  0.4354
  188MOL0     H25336   8.756   7.187   9.841  0.0483  1.2658 -1.5409
  188MOL0     H25337   8.673   7.036   9.860 -2.6482 -1.3428 -0.4183
  188MOL0     H25338   8.483   7.117   9.720  2.3512 -1.3488 -1.3372
  188MOL0     H25339   8.560   7.280   9.703  1.1027  2.3742  3.2975
  188MOL0     H25340   8.388   7.293  10.118  0.0540  0.6881  0.4570
  188MOL0     H25341   8.150   7.362  10.134 -3.8658  0.6930 -0.9488
  188MOL0     H25342   7.834   7.579   9.645 -0.0646  2.4302  0.8098
  188MOL0     H25343   7.619   7.690   9.637 -1.0724 -0.6793 -0.2891
  188MOL0     H25344   7.283   7.493   9.888 -4.5068  0.2357  1.3536
  188MOL0     H25345   7.350   7.613  10.002  0.9852  0.0683 -0.6505
  188MOL0     H25346   7.202   7.774   9.858  1.2727  0.5766 -0.1077
  188MOL0     H25347   7.138   7.637   9.778  1.1368 -3.9842  0.3682
  188MOL0     H25348   7.070   7.543  10.030 -2.5615  0.8230  1.9594
  188MOL0     H25349   7.110   7.700  10.088  0.5341 -0.2835  0.5356
  188MOL0     H25350   6.913   7.613   9.879  0.9806 -0.4678 -0.3455
  188MOL0     H25351   6.928   7.786   9.918 -2.0816  0.5601  1.0706
  188MOL0     H25352   6.871   7.750  10.162  0.9699 -0.7266  1.0452
  188MOL0     H25353   6.857   7.580  10.127  0.6638  0.0238  0.1483
  188MOL0     H25354   6.704   7.790   9.989  0.0275  1.6015  1.0495
  188MOL0     H25355   6.665   7.609  10.004  1.9357  0.3191 -0.4026
  188MOL0     H25356   6.643   7.843  10.213  1.1164  1.1577 -1.7059
  188MOL0     H25357   6.619   7.664  10.255  1.1371 -0.8279 -1.3042
  188MOL0     H25358   6.405   7.773  10.206  3.5120 -0.2464  2.6537
  188MOL0     H25359   6.463   7.822  10.042  1.1836 -1.7145 -0.4935
  188MOL0     H25360   7.499   7.418   9.966 -1.6586 -0.8207 -1.6457
  188MOL0     H25361   7.708   7.318   9.957  0.2104 -1.2854 -1.9606
  188MOL0     H25362   8.102   7.328   9.719  0.2309  2.8578 -0.0407
  188MOL0     H25363   8.323   7.250   9.689  0.6907 -0.7143  0.6003
  188MOL0     H25364   8.819   5.908   8.960  0.9256 -1.3935 -1.4322
  188MOL0     H25365   8.593   5.826   8.991 -0.5989 -0.0690  2.3621
  188MOL0     H25366   8.290   5.701   9.044 -0.5798 -1.3649 -0.5544
  188MOL0     H25367   8.056   5.678   9.039 -2.0170 -1.8535 -0.0410
  188MOL0     H25368   7.842   5.730   9.174  0.3777  1.0322  0.6885
  188MOL0     H25369   7.877   5.689   9.346  1.8599 -1.7808 -0.0318
  188MOL0     H25370   7.696   5.545   9.363 -2.2824  1.3127  0.5613
  188MOL0     H25371   7.670   5.529   9.195  1.2203 -0.2237 -0.6503
  188MOL0     H25372   7.613   5.771   9.188 -0.2528 -0.0019  0.3550
  188MOL0     H25373   7.648   5.779   9.366  0.7542 -0.1266  0.0189
  188MOL0     H25374   7.407   5.790   9.338  3.2241  1.2385  3.1045
  188MOL0     H25375   7.418   5.633   9.235 -0.5233 -2.2841  1.5094
  188MOL0     H25376   7.404   5.496   9.630  1.3836 -1.0044 -0.2526
  188MOL0     H25377   8.065   5.420   9.388  0.8705 -1.4881 -0.0054
  188MOL0     H25378   8.372   5.478   9.523  0.2342  1.3104 -0.8862
  188MOL0     H25379   8.273   5.344   9.485 -1.6310  0.5896 -2.2046
  188MOL0     H25380   8.426   5.373   9.394 -0.4563 -2.6408 -0.4651
  189MOL0     O25381  11.284   2.384  10.293 -0.4452  0.3021  0.5176
  189MOL0     C25382  11.364   2.296  10.255 -0.5274  0.9206 -0.8333
  189MOL0     O25383  11.351   2.171  10.287  0.0323  0.0026  0.6218
  189MOL0     C25384  11.245   2.131  10.367 -0.1350  0.7403 -0.6608
  189MOL0     C25385  11.268   2.088  10.497  0.3955  0.7278  0.0674
  189MOL0     C25386  11.165   2.047  10.579  0.4583  0.1002 -0.0517
  189MOL0     C25387  11.032   2.063  10.539  0.0722 -0.2964 -0.4159
  189MOL0     O25388  10.936   2.036  10.634 -0.2395 -0.2184 -0.7338
  189MOL0     C25389  10.802   2.025  10.590 -0.2933  0.0068  0.4527
  189MOL0     C25390  10.706   2.030  10.710  0.0108 -0.4096 -0.2230
  189MOL0     C25391  10.555   2.017  10.690 -0.2926  0.3433 -0.4411
  189MOL0     C25392  10.517   1.871  10.659  0.0714 -0.6654  0.3596
  189MOL0     C25393  10.379   1.870  10.591  0.1687  0.1528 -0.0050
  189MOL0     C25394  10.315   1.734  10.590  0.4158  0.5093  1.0309
  189MOL0     C25395  10.194   1.725  10.489  0.1721  0.0673  0.5581
  189MOL0     C25396  10.116   1.595  10.513 -0.2003  0.3432  0.6711
  189MOL0     N25397  10.023   1.554  10.410  0.5237 -0.5955 -0.3081
  189MOL0     C25398   9.921   1.455  10.433  0.6416 -0.8151  0.0087
  189MOL0     C25399   9.843   1.462  10.321 -0.3639 -0.7513 -0.0542
  189MOL0     C25400   9.715   1.403  10.275 -0.1504  0.0223  0.4694
  189MOL0     C25401   9.757   1.275  10.193 -0.8179 -0.4208  0.7841
  189MOL0     C25402   9.875   1.293  10.091 -1.0344  0.9821  0.2830
  189MOL0     C25403   9.905   1.155  10.014 -1.1237  0.4250  0.1166
  189MOL0     O25404   9.992   1.172   9.899 -0.9696  0.6027 -0.8096
  189MOL0     C25405  10.118   1.224   9.925 -1.1189  0.0375  0.2148
  189MOL0     C25406  10.196   1.258   9.807  0.1287  0.6824  0.2840
  189MOL0     C25407  10.332   1.255   9.812  0.1196  0.8303  0.2512
  189MOL0     C25408  10.406   1.242   9.934 -0.5842  0.4993 -0.6668
  189MOL0     C25409  10.554   1.247   9.930 -0.5188  0.3591  0.3745
  189MOL0     O25410  10.627   1.252  10.046  0.1330  0.3551  0.1047
  189MOL0     C25411  10.759   1.283  10.036  0.0837 -0.7184  0.0620
  189MOL0     C25412  10.813   1.395  10.094  0.3469 -0.5865 -0.6838
  189MOL0     C25413  10.947   1.412  10.106 -1.1600 -0.0299  0.0735
  189MOL0     C25414  11.046   1.324  10.061  0.1828 -0.1984  0.1498
  189MOL0     O25415  11.179   1.357  10.050 -0.5025 -0.1574  0.5863
  189MOL0     C25416  11.233   1.414  10.169 -0.7904  0.3276  0.2626
  189MOL0     C25417  11.361   1.496  10.142  0.4492  0.7683  0.2130
  189MOL0     C25418  11.487   1.428  10.097  0.1391  0.6220  0.6630
  189MOL0     C25419  11.603   1.535  10.092  0.6760  0.8854 -0.1867
  189MOL0     C25420  11.622   1.609   9.958  0.5105 -0.4175  0.4315
  189MOL0     C25421  11.677   1.514   9.842 -0.8975 -0.1324 -0.2355
  189MOL0     C25422  11.723   1.572   9.714 -0.0422 -0.2920  0.1546
  189MOL0     C25423  11.764   1.463   9.608 -0.2113  0.2300 -0.2776
  189MOL0    Cl25424  11.789   1.528   9.444  0.1500  0.4287  0.0443
  189MOL0     C25425  10.988   1.215   9.992 -0.8893  0.6737  0.9612
  189MOL0     C25426  10.849   1.189   9.979  0.3330 -0.4785  0.5128
  189MOL0     O25427  10.597   1.273   9.817 -0.5280 -0.2547 -0.7179
  189MOL0     C25428  10.323   1.222  10.053 -0.4623  0.3903  0.0243
  189MOL0     C25429  10.183   1.211  10.048 -0.2936 -0.4459 -0.5380
  189MOL0     N25430   9.893   1.559  10.244  0.3099  0.1699  0.1234
  189MOL0     N25431   9.996   1.620  10.295  0.4922  0.2543  0.2587
  189MOL0     C25432  11.008   2.117  10.415 -0.8277 -0.6652  0.4165
  189MOL0     C25433  11.114   2.148  10.324  0.8501  0.7300 -0.4149
  189MOL0     C25434  11.477   2.333  10.164  0.8703 -1.0226  0.3422
  189MOL0     C25435  11.558   2.232  10.114 -0.2012  0.3856 -0.9462
  189MOL0     C25436  11.672   2.256  10.046 -0.0418  0.1124  0.8983
  189MOL0     C25437  11.706   2.385  10.002 -0.3536  0.9397 -0.5377
  189MOL0     O25438  11.814   2.411   9.928  0.0362 -0.0833 -0.4345
  189MOL0     C25439  11.920   2.319   9.916 -0.4080  0.4420  0.4882
  189MOL0     C25440  12.048   2.407   9.906 -0.1803  1.0624 -0.1186
  189MOL0     C25441  12.171   2.317   9.875  0.3435 -0.3511 -0.3642
  189MOL0     C25442  12.148   2.266   9.734 -0.1165 -0.8015 -0.6669
  189MOL0     C25443  12.281   2.236   9.682  1.0609  0.2198 -0.5987
  189MOL0     C25444  12.384   2.197   9.630 -0.0870  0.1554  0.1469
  189MOL0     C25445  11.620   2.490  10.042 -0.9673  0.5415  0.0602
  189MOL0     C25446  11.507   2.467  10.128 -0.2611 -0.6193  0.1208
  189MOL0     C25447  11.427   2.594  10.162 -0.4133 -0.2382 -0.3213
  189MOL0     H25448  11.374   2.087  10.523  0.1692 -2.4907  1.4091
  189MOL0     H25449  11.200   2.008  10.674  4.7636  0.3248 -1.3338
  189MOL0     H25450  10.782   2.110  10.524 -0.0453 -0.3992 -0.1508
  189MOL0     H25451  10.786   1.934  10.531 -1.1948  1.4154 -1.5949
  189MOL0     H25452  10.717   2.128  10.758  0.3733 -0.4232 -0.2724
  189MOL0     H25453  10.736   1.942  10.769  0.2549  1.1638  2.1296
  189MOL0     H25454  10.531   2.077  10.602 -1.2926  3.2007  1.6628
  189MOL0     H25455  10.494   2.059  10.770  0.3866  3.1637 -1.3191
  189MOL0     H25456  10.597   1.833  10.595 -1.6076 -0.0142 -2.3011
  189MOL0     H25457  10.509   1.820  10.755 -2.5955 -1.3749 -0.1473
  189MOL0     H25458  10.312   1.941  10.639  0.8692  1.9060 -1.4976
  189MOL0     H25459  10.391   1.905  10.488 -0.7367 -0.2057 -0.2365
  189MOL0     H25460  10.388   1.658  10.561  0.2767  0.3087  1.2030
  189MOL0     H25461  10.259   1.715  10.682 -1.7041  1.3419 -0.0034
  189MOL0     H25462  10.235   1.722  10.388 -4.5447  1.2233 -1.6434
  189MOL0     H25463  10.138   1.819  10.494  1.5910  0.9669  0.2707
  189MOL0     H25464  10.192   1.517  10.520 -2.5039 -2.3062 -1.5050
  189MOL0     H25465  10.060   1.602  10.607  0.9081  3.7312  1.2030
  189MOL0     H25466   9.921   1.411  10.532 -0.1558 -0.5497  0.1359
  189MOL0     H25467   9.648   1.388  10.359 -1.0349 -1.9468 -0.5119
  189MOL0     H25468   9.666   1.468  10.203  0.4656  0.0011  0.0217
  189MOL0     H25469   9.801   1.202  10.261  0.5480 -1.6163 -1.2566
  189MOL0     H25470   9.669   1.245  10.136 -1.9400  1.1880  1.5858
  189MOL0     H25471   9.962   1.318  10.152 -0.1916 -0.6571 -0.2098
  189MOL0     H25472   9.840   1.374  10.026  0.0577  0.0211 -1.5940
  189MOL0     H25473   9.812   1.121   9.967 -0.3504 -0.7464 -0.6248
  189MOL0     H25474   9.933   1.073  10.082 -0.1994  0.5314 -0.1350
  189MOL0     H25475  10.145   1.257   9.711 -2.7212  0.8710  1.7156
  189MOL0     H25476  10.377   1.272   9.715 -2.8184  1.6078 -1.0759
  189MOL0     H25477  10.755   1.473  10.142 -0.7142 -0.6880 -1.7578
  189MOL0     H25478  10.983   1.502  10.156  0.3778 -0.5160 -0.0887
  189MOL0     H25479  11.169   1.491  10.212 -2.2469 -1.9210  2.4013
  189MOL0     H25480  11.249   1.336  10.244  0.7733 -2.4280 -2.6756
  189MOL0     H25481  11.332   1.576  10.073  0.3691  0.7298  0.2016
  189MOL0     H25482  11.395   1.544  10.235  3.3462  1.5957 -1.1625
  189MOL0     H25483  11.512   1.357  10.176 -3.2299  1.0689  2.3262
  189MOL0     H25484  11.472   1.387   9.997  0.3713  3.2317 -0.5378
  189MOL0     H25485  11.698   1.481  10.100  0.8568  1.1731 -0.4077
  189MOL0     H25486  11.586   1.598  10.179 -3.2659 -0.6394  0.3692
  189MOL0     H25487  11.689   1.693   9.976  0.9417 -0.8346  0.7833
  189MOL0     H25488  11.520   1.643   9.938 -0.4356 -3.1615  0.1933
  189MOL0     H25489  11.770   1.469   9.878 -0.7671  0.0416 -0.3572
  189MOL0     H25490  11.610   1.433   9.812  0.7210 -1.5074 -0.3003
  189MOL0     H25491  11.810   1.635   9.734 -0.6038  0.3068  0.7466
  189MOL0     H25492  11.646   1.634   9.668 -1.2093 -2.5571 -1.1245
  189MOL0     H25493  11.861   1.421   9.633 -0.3812  0.4921  0.8946
  189MOL0     H25494  11.688   1.384   9.602 -1.3031  1.2418 -0.1855
  189MOL0     H25495  11.046   1.142   9.937 -4.2552 -1.5697  0.1217
  189MOL0     H25496  10.816   1.102   9.923 -1.9202  0.0279  0.9559
  189MOL0     H25497  10.377   1.196  10.144 -1.5372 -4.1593 -0.3870
  189MOL0     H25498  10.136   1.170  10.136  1.3746 -2.9627 -0.7174
  189MOL0     H25499  10.908   2.123  10.373 -1.3681 -1.8201  1.4750
  189MOL0     H25500  11.095   2.167  10.218 -1.2971 -3.3558 -0.9963
  189MOL0     H25501  11.544   2.126  10.134 -0.6005  0.7836  1.0939
  189MOL0     H25502  11.731   2.171  10.014  0.0009 -1.3461  4.3829
  189MOL0     H25503  11.902   2.254   9.831 -1.9312  2.1607 -0.5631
  189MOL0     H25504  11.929   2.252  10.003  0.7866 -2.2606 -1.5792
  189MOL0     H25505  12.058   2.456  10.003 -0.4954  2.8265 -0.9263
  189MOL0     H25506  12.043   2.485   9.829 -0.2114 -0.1654 -1.3993
  189MOL0     H25507  12.168   2.227   9.936 -0.0682 -0.7134 -0.9092
  189MOL0     H25508  12.263   2.376   9.883 -0.3952  0.9073 -0.7792
  189MOL0     H25509  12.085   2.178   9.750 -0.4031 -0.3526  0.8351
  189MOL0     H25510  12.096   2.335   9.667 -1.8104 -2.0181 -0.6653
  189MOL0     H25511  12.481   2.169   9.593  0.9719  1.9924  1.3740
  189MOL0     H25512  11.647   2.593  10.022 -3.2082  1.5985  2.0117
  189MOL0     H25513  11.432   2.601  10.271  1.7335 -1.0097 -0.3282
  189MOL0     H25514  11.482   2.684  10.132  1.3878 -1.7318 -1.7695
  189MOL0     H25515  11.324   2.586  10.124 -0.2441 -3.0265 -0.3879
  190MOL0     O25516   3.066   2.271   8.527  0.4475 -0.7738 -0.5627
  190MOL0     C25517   2.965   2.316   8.475  0.0725  0.5482  0.3476
  190MOL0     O25518   2.952   2.346   8.342  0.1545 -0.3137 -0.0296
  190MOL0     C25519   3.069   2.335   8.265 -0.6979 -0.5326 -0.6027
  190MOL0     C25520   3.113   2.210   8.223 -0.1029 -0.0742  0.2453
  190MOL0     C25521   3.195   2.195   8.110 -0.7914 -0.7914 -0.4639
  190MOL0     C25522   3.249   2.318   8.052  0.3946 -0.2425 -0.7305
  190MOL0     O25523   3.327   2.304   7.941 -0.7555 -0.0147  0.3892
  190MOL0     C25524   3.374   2.413   7.860  0.1610  0.2318 -0.0589
  190MOL0     C25525   3.503   2.365   7.798  0.0440 -0.1845 -0.5098
  190MOL0     C25526   3.474   2.255   7.688  0.0480  0.0600  0.2938
  190MOL0     C25527   3.605   2.192   7.642  0.4850  0.2174  0.6053
  190MOL0     C25528   3.582   2.071   7.548 -0.5369  0.2042 -0.2066
  190MOL0     C25529   3.546   2.096   7.403 -0.0422  0.0278 -0.0401
  190MOL0     C25530   3.648   2.197   7.331  0.4942  0.6536  0.0817
  190MOL0     C25531   3.627   2.188   7.173  0.1418  0.5901 -0.6448
  190MOL0     N25532   3.749   2.249   7.118  0.6431 -0.5048  0.3070
  190MOL0     C25533   3.863   2.185   7.075  0.5459 -1.2426 -0.0350
  190MOL0     C25534   3.951   2.277   7.024 -0.7105 -0.0752 -0.4752
  190MOL0     C25535   4.094   2.256   6.968 -1.2869  0.6215  0.8541
  190MOL0     C25536   4.105   2.279   6.819 -0.3509  0.1198 -0.3627
  190MOL0     C25537   4.254   2.258   6.774  0.2730 -0.8032 -0.4607
  190MOL0     C25538   4.287   2.330   6.637 -0.5624  0.2939 -0.1454
  190MOL0     O25539   4.423   2.294   6.600 -0.4843  0.2739  0.6767
  190MOL0     C25540   4.463   2.351   6.487 -1.0754 -0.4005  0.6966
  190MOL0     C25541   4.390   2.349   6.368  0.7028 -0.8613  0.1520
  190MOL0     C25542   4.432   2.401   6.245  0.3249  0.0761  0.8095
  190MOL0     C25543   4.560   2.462   6.238 -0.3259 -0.3430  0.0907
  190MOL0     C25544   4.611   2.521   6.107 -0.1995  0.8254 -0.8885
  190MOL0     O25545   4.740   2.558   6.110  0.3110 -0.5450  0.0448
  190MOL0     C25546   4.797   2.598   5.989  0.8000 -0.2267  0.7308
  190MOL0     C25547   4.858   2.493   5.921  0.0438  0.2576 -0.6969
  190MOL0     C25548   4.907   2.516   5.791  0.8443 -0.0794 -0.7430
  190MOL0     C25549   4.904   2.645   5.737  0.6433  0.3233  0.0328
  190MOL0     O25550   4.945   2.649   5.605 -0.5659  0.8246  0.3633
  190MOL0     C25551   4.946   2.781   5.552 -0.5107  0.3409 -0.1256
  190MOL0     C25552   4.985   2.789   5.401 -0.0948 -0.5760 -0.4425
  190MOL0     C25553   4.884   2.720   5.310  0.4386 -0.4991  0.8265
  190MOL0     C25554   4.912   2.738   5.160  0.3840 -0.1013 -0.2746
  190MOL0     C25555   4.793   2.698   5.063 -0.5692  0.1049 -0.3703
  190MOL0     C25556   4.738   2.558   5.078 -0.1692  0.9856  0.0494
  190MOL0     C25557   4.742   2.470   4.943 -0.2308 -1.3023 -0.7234
  190MOL0     C25558   4.676   2.335   4.952 -0.0058  0.8382  0.0848
  190MOL0    Cl25559   4.515   2.350   5.026  0.2776  0.0379  0.1952
  190MOL0     C25560   4.851   2.752   5.815 -0.1422  0.2929  0.4126
  190MOL0     C25561   4.799   2.723   5.935 -0.4146 -0.0512 -0.4892
  190MOL0     O25562   4.531   2.537   6.016  0.2197  0.5400  0.9705
  190MOL0     C25563   4.636   2.462   6.356 -0.0501 -0.5750 -0.0790
  190MOL0     C25564   4.584   2.411   6.478  0.4834 -0.0361  0.9579
  190MOL0     N25565   3.891   2.402   7.038  0.3600  0.0870 -0.1947
  190MOL0     N25566   3.777   2.381   7.088  0.3822  0.2022  0.1890
  190MOL0     C25567   3.215   2.445   8.110 -0.2736 -0.5315  0.1217
  190MOL0     C25568   3.125   2.450   8.218 -0.7388 -0.1844 -0.7066
  190MOL0     C25569   2.847   2.330   8.558 -0.6916  0.0405  0.0948
  190MOL0     C25570   2.732   2.387   8.491  0.9244  0.9594 -0.9183
  190MOL0     C25571   2.605   2.409   8.553 -0.7408  0.1436 -0.3915
  190MOL0     C25572   2.591   2.389   8.690 -0.6635  0.5060  0.2168
  190MOL0     O25573   2.478   2.411   8.757  0.1635 -0.4072  0.1111
  190MOL0     C25574   2.402   2.532   8.731  0.1525  0.6138 -0.1728
  190MOL0     C25575   2.292   2.548   8.837  0.2741 -0.2871  0.6690
  190MOL0     C25576   2.192   2.429   8.858  0.0960 -0.3802  0.4099
  190MOL0     C25577   2.093   2.457   8.970  0.2773  0.4143 -0.2139
  190MOL0     C25578   2.004   2.346   8.999  0.2556  0.2467 -0.0894
  190MOL0     C25579   1.925   2.261   9.033  0.3561  0.8209  0.8055
  190MOL0     C25580   2.705   2.347   8.757 -0.9722 -0.1847  0.0763
  190MOL0     C25581   2.835   2.315   8.699 -0.3008  0.2974 -0.3208
  190MOL0     C25582   2.950   2.274   8.784 -0.0631  0.4579  0.3024
  190MOL0     H25583   3.067   2.119   8.259  0.3916  0.2168  1.6898
  190MOL0     H25584   3.232   2.099   8.075  0.1413  0.1142 -2.0872
  190MOL0     H25585   3.309   2.455   7.783  2.5507 -0.4619 -2.5712
  190MOL0     H25586   3.392   2.499   7.926 -2.1480 -0.0113  1.0149
  190MOL0     H25587   3.577   2.338   7.874 -1.3901 -0.5109  0.7936
  190MOL0     H25588   3.553   2.450   7.751 -1.1361  0.5611 -0.4511
  190MOL0     H25589   3.433   2.312   7.604  2.2630  3.4710  1.3143
  190MOL0     H25590   3.404   2.182   7.728 -0.0377 -0.4412 -0.7299
  190MOL0     H25591   3.672   2.263   7.593  1.0176 -1.2340 -0.8850
  190MOL0     H25592   3.652   2.147   7.731 -1.1861  0.3185  1.5850
  190MOL0     H25593   3.673   2.013   7.534 -1.0132 -0.2485 -1.6108
  190MOL0     H25594   3.511   1.996   7.586  1.5157 -3.6312 -3.2846
  190MOL0     H25595   3.559   2.007   7.342 -1.3906  0.4813 -1.0383
  190MOL0     H25596   3.444   2.136   7.395  0.9467  2.4515 -2.6108
  190MOL0     H25597   3.753   2.173   7.348  0.2432 -0.7011 -0.0899
  190MOL0     H25598   3.640   2.295   7.377  0.5556 -0.5944  2.9830
  190MOL0     H25599   3.629   2.089   7.128  1.0720  0.9707 -1.4669
  190MOL0     H25600   3.536   2.246   7.158 -1.0544 -0.5935  1.4912
  190MOL0     H25601   3.899   2.083   7.087  1.9077 -0.7220  0.5619
  190MOL0     H25602   4.171   2.315   7.018 -0.4357  0.1737  0.0937
  190MOL0     H25603   4.133   2.156   6.989 -1.6431  0.0901 -0.8526
  190MOL0     H25604   4.039   2.211   6.765 -0.1605 -0.4083  0.0631
  190MOL0     H25605   4.082   2.386   6.808 -0.9659  0.0766  0.4336
  190MOL0     H25606   4.276   2.151   6.770  0.2312 -0.7905 -1.1888
  190MOL0     H25607   4.318   2.300   6.851 -0.2597  1.2079 -1.0618
  190MOL0     H25608   4.294   2.439   6.646  1.4154  0.3829 -1.9510
  190MOL0     H25609   4.212   2.317   6.559  0.1756  1.4338 -1.0747
  190MOL0     H25610   4.299   2.290   6.362  0.2466 -0.0712 -1.0029
  190MOL0     H25611   4.372   2.389   6.156 -1.0766 -2.5287  1.9799
  190MOL0     H25612   4.862   2.390   5.954 -0.2895  1.1224  2.2784
  190MOL0     H25613   4.929   2.433   5.724 -1.7533 -0.6001 -1.0452
  190MOL0     H25614   4.849   2.829   5.566  0.1992  1.8782 -0.2128
  190MOL0     H25615   5.022   2.848   5.594 -1.8000  2.3249 -0.8050
  190MOL0     H25616   4.990   2.895   5.374 -1.1813 -0.3383  0.2130
  190MOL0     H25617   5.082   2.741   5.386 -1.3421 -3.1738 -0.7962
  190MOL0     H25618   4.867   2.613   5.320 -0.2846 -0.3305  1.5368
  190MOL0     H25619   4.786   2.769   5.318 -0.9589 -2.5474 -2.0922
  190MOL0     H25620   4.995   2.671   5.134 -0.4578 -1.5638  0.6199
  190MOL0     H25621   4.934   2.841   5.132  3.3104 -0.3736  0.6743
  190MOL0     H25622   4.839   2.710   4.965 -0.0688 -3.4738 -0.7190
  190MOL0     H25623   4.708   2.765   5.081  0.3460  1.5894 -1.3427
  190MOL0     H25624   4.784   2.497   5.157 -1.0235  1.5131  0.9838
  190MOL0     H25625   4.632   2.572   5.103 -0.3521 -0.6642  0.3625
  190MOL0     H25626   4.847   2.448   4.921 -0.0723 -2.2058  0.8495
  190MOL0     H25627   4.698   2.528   4.861 -0.6407 -2.2582 -1.1962
  190MOL0     H25628   4.672   2.286   4.855 -0.1112  1.8938 -0.4657
  190MOL0     H25629   4.723   2.274   5.029 -4.0247  0.8845  2.9353
  190MOL0     H25630   4.849   2.855   5.781 -0.0342 -0.2840 -1.4409
  190MOL0     H25631   4.757   2.799   6.001 -0.6181 -0.7553  0.2115
  190MOL0     H25632   4.731   2.514   6.352  0.5620 -1.7226 -2.2731
  190MOL0     H25633   4.653   2.400   6.561 -0.0910 -0.5665  1.3678
  190MOL0     H25634   3.254   2.537   8.068 -2.2714 -1.1611 -3.6002
  190MOL0     H25635   3.093   2.545   8.260  1.4055 -0.0987  0.9466
  190MOL0     H25636   2.728   2.413   8.385  1.4071 -2.3435 -1.8528
  190MOL0     H25637   2.520   2.437   8.492 -0.1677 -0.6947 -1.6107
  190MOL0     H25638   2.371   2.526   8.626  0.1956 -2.1915 -0.0892
  190MOL0     H25639   2.484   2.604   8.729  0.8477 -0.1672 -2.5152
  190MOL0     H25640   2.235   2.641   8.825 -1.1810 -0.8604  2.5682
  190MOL0     H25641   2.338   2.566   8.935 -0.2434  0.1976  0.8270
  190MOL0     H25642   2.242   2.333   8.870  0.5412 -0.2204 -0.1104
  190MOL0     H25643   2.139   2.439   8.763 -1.7906  0.3013  1.4796
  190MOL0     H25644   2.143   2.487   9.062 -0.2598  1.0776 -0.1344
  190MOL0     H25645   2.036   2.544   8.938  1.0962  0.9717 -0.2038
  190MOL0     H25646   1.844   2.199   9.065 -0.0543  2.7314  3.8690
  190MOL0     H25647   2.683   2.336   8.863 -0.6567 -4.1249 -0.1507
  190MOL0     H25648   3.030   2.349   8.774  2.4953 -2.1762 -0.1439
  190MOL0     H25649   2.921   2.263   8.889  0.5467  0.1094  0.4363
  190MOL0     H25650   2.995   2.180   8.754  0.5291  0.9327 -0.3346
  191MOL0     O25651   2.174   5.896   2.660 -0.3034 -0.0122  0.0120
  191MOL0     C25652   2.069   5.908   2.727 -1.2117  0.6973  0.2887
  191MOL0     O25653   2.042   6.009   2.810 -0.3600  0.0547 -0.4166
  191MOL0     C25654   2.139   6.106   2.840  0.9612  0.0917 -0.5184
  191MOL0     C25655   2.278   6.086   2.848 -0.4986 -0.0628 -0.2672
  191MOL0     C25656   2.352   6.177   2.917 -0.5588  0.1679  0.0646
  191MOL0     C25657   2.302   6.288   2.977  0.1598  0.4602 -0.5566
  191MOL0     O25658   2.380   6.371   3.059  1.1823 -0.1280  0.0031
  191MOL0     C25659   2.511   6.410   3.002 -0.4701 -1.0778 -0.9783
  191MOL0     C25660   2.601   6.479   3.111 -0.3230 -0.1908  1.2172
  191MOL0     C25661   2.699   6.380   3.178 -0.8210 -0.8937  0.0167
  191MOL0     C25662   2.792   6.463   3.270  0.6946 -0.9807  0.5489
  191MOL0     C25663   2.916   6.382   3.310 -0.2446  0.2889 -0.5651
  191MOL0     C25664   3.031   6.477   3.359  0.7609  0.5176  0.4171
  191MOL0     C25665   3.013   6.552   3.495  0.7259 -0.0051  0.5097
  191MOL0     C25666   3.115   6.666   3.514 -0.3801 -0.3634  0.5389
  191MOL0     N25667   3.254   6.619   3.542 -1.0299 -0.3765 -0.7209
  191MOL0     C25668   3.301   6.571   3.659 -0.2166 -0.3589 -0.3701
  191MOL0     C25669   3.439   6.570   3.654 -0.7038  0.1980 -0.0697
  191MOL0     C25670   3.530   6.510   3.755  0.2765 -0.5447 -0.2311
  191MOL0     C25671   3.569   6.603   3.867  0.2295 -0.4311 -0.3782
  191MOL0     C25672   3.674   6.558   3.966  0.3130 -0.6905 -0.3445
  191MOL0     C25673   3.801   6.513   3.899 -0.8977 -0.8137  0.7511
  191MOL0     O25674   3.860   6.638   3.852  0.1134 -0.5278  0.2505
  191MOL0     C25675   3.986   6.617   3.789 -0.1882 -0.5597 -0.1881
  191MOL0     C25676   4.042   6.492   3.748 -0.6848  0.1401 -0.0551
  191MOL0     C25677   4.166   6.482   3.683  0.3993  0.2795 -0.3015
  191MOL0     C25678   4.249   6.594   3.662  0.5397 -0.2495 -0.0190
  191MOL0     C25679   4.382   6.579   3.589 -0.7480  0.0169 -0.6345
  191MOL0     O25680   4.456   6.697   3.563 -0.5450  0.2994 -0.2406
  191MOL0     C25681   4.579   6.691   3.495 -0.1232 -0.1304  1.1346
  191MOL0     C25682   4.644   6.592   3.415  0.0648  0.1552 -0.0966
  191MOL0     C25683   4.770   6.621   3.357 -0.0365 -0.1501 -0.5093
  191MOL0     C25684   4.829   6.744   3.375  0.4892 -0.5292  0.3138
  191MOL0     O25685   4.943   6.792   3.331 -0.4750 -0.4969 -0.4198
  191MOL0     C25686   5.011   6.721   3.226 -0.6405  0.0742  0.1079
  191MOL0     C25687   5.147   6.789   3.210 -0.1114 -0.2242  0.8085
  191MOL0     C25688   5.251   6.743   3.313  0.4838  0.8784  0.7141
  191MOL0     C25689   5.394   6.760   3.266 -0.4517  0.3030  0.7594
  191MOL0     C25690   5.485   6.748   3.390  0.4480 -0.8055  0.6482
  191MOL0     C25691   5.608   6.671   3.362 -0.1048  0.5705 -0.0252
  191MOL0     C25692   5.697   6.675   3.479 -0.4799  0.2805 -0.4082
  191MOL0     C25693   5.740   6.816   3.531  0.3813  0.1755 -0.1085
  191MOL0    Cl25694   5.846   6.901   3.409 -0.4932  0.3289  0.2137
  191MOL0     C25695   4.762   6.844   3.457  0.1735  0.0613  0.6048
  191MOL0     C25696   4.642   6.806   3.519 -0.2108 -0.5378 -0.2967
  191MOL0     O25697   4.418   6.464   3.553 -0.4175  0.2173 -0.6048
  191MOL0     C25698   4.196   6.719   3.704 -0.6828 -0.0732  0.7844
  191MOL0     C25699   4.068   6.734   3.758 -0.2871 -0.2298  0.1483
  191MOL0     N25700   3.469   6.642   3.543  0.0341 -0.4232  0.3708
  191MOL0     N25701   3.364   6.674   3.476  0.1925 -0.0405 -0.3892
  191MOL0     C25702   2.164   6.317   2.966 -0.1239 -0.3115  0.4423
  191MOL0     C25703   2.083   6.225   2.890  0.8708 -0.4764 -0.0863
  191MOL0     C25704   1.968   5.802   2.712  0.4384  0.1908 -0.2150
  191MOL0     C25705   1.839   5.838   2.747  0.4778  0.6129 -0.7051
  191MOL0     C25706   1.741   5.734   2.736 -0.0040 -0.0807 -0.0499
  191MOL0     C25707   1.761   5.601   2.689 -0.9304  0.3318 -0.1547
  191MOL0     O25708   1.665   5.498   2.684 -0.0145 -0.3433  0.5420
  191MOL0     C25709   1.545   5.512   2.759 -0.2880  0.0107 -0.1604
  191MOL0     C25710   1.466   5.385   2.764  0.8028 -0.1289  0.3673
  191MOL0     C25711   1.334   5.391   2.833 -0.1242 -0.5479 -0.2111
  191MOL0     C25712   1.217   5.427   2.744  0.9186  0.5370  0.1405
  191MOL0     C25713   1.104   5.483   2.817  0.7006 -0.0287 -0.6002
  191MOL0     C25714   1.016   5.534   2.886 -0.6031  1.0454  0.2117
  191MOL0     C25715   1.889   5.575   2.637 -0.9113  0.5725 -0.7325
  191MOL0     C25716   1.996   5.676   2.653  0.0752 -0.4669  0.0874
  191MOL0     C25717   2.138   5.638   2.606  0.5449 -0.2257 -0.5192
  191MOL0     H25718   2.330   6.002   2.801 -0.6599 -1.0577  1.2644
  191MOL0     H25719   2.457   6.149   2.923 -0.8042 -0.7052  0.4405
  191MOL0     H25720   2.570   6.321   2.980  1.9177  0.4342 -0.9841
  191MOL0     H25721   2.494   6.475   2.916 -2.0923  1.0337  0.7982
  191MOL0     H25722   2.559   6.528   3.199  2.2932 -1.0251  3.0409
  191MOL0     H25723   2.656   6.558   3.059 -1.2438  1.7906  3.0876
  191MOL0     H25724   2.765   6.328   3.109  1.5935  1.6788  0.1937
  191MOL0     H25725   2.646   6.309   3.243 -1.3024  2.1986  3.3719
  191MOL0     H25726   2.833   6.553   3.224  0.8026 -0.7408  1.1070
  191MOL0     H25727   2.748   6.484   3.368  0.3123  3.4359 -0.3563
  191MOL0     H25728   2.899   6.314   3.394 -3.1713  1.3622 -0.1692
  191MOL0     H25729   2.957   6.325   3.226 -1.2156  0.1938 -0.9841
  191MOL0     H25730   3.120   6.414   3.365  0.6240  0.0252 -1.6527
  191MOL0     H25731   3.056   6.555   3.286  3.6342  2.7649  3.5432
  191MOL0     H25732   3.031   6.481   3.576  0.9256 -1.4207 -0.7397
  191MOL0     H25733   2.916   6.601   3.505  1.1440  1.3402 -1.4003
  191MOL0     H25734   3.128   6.730   3.426  2.8839 -2.7690 -0.9484
  191MOL0     H25735   3.086   6.724   3.601  0.0297 -1.0104  1.1141
  191MOL0     H25736   3.236   6.524   3.733 -0.0312 -1.8876 -1.1356
  191MOL0     H25737   3.477   6.421   3.790 -0.7881  0.6319  1.2898
  191MOL0     H25738   3.616   6.465   3.704  0.9737 -0.4450  0.8177
  191MOL0     H25739   3.599   6.703   3.837 -2.5146  0.6296  0.1642
  191MOL0     H25740   3.474   6.619   3.918  1.9429  2.7807  2.1985
  191MOL0     H25741   3.635   6.471   4.020  0.3159  0.2747  1.2749
  191MOL0     H25742   3.695   6.634   4.041  0.8740 -2.4077  1.3122
  191MOL0     H25743   3.784   6.446   3.814  5.1548 -1.2816 -0.4997
  191MOL0     H25744   3.881   6.472   3.961  2.0494  0.4047 -1.9585
  191MOL0     H25745   3.980   6.405   3.768 -2.7340  0.8437 -2.7076
  191MOL0     H25746   4.206   6.382   3.673 -3.9141 -2.0600  2.4403
  191MOL0     H25747   4.589   6.500   3.399 -0.1536  0.2476  0.1128
  191MOL0     H25748   4.826   6.550   3.298  4.6254  2.0852  0.7521
  191MOL0     H25749   5.019   6.614   3.246 -1.9861 -0.0963 -0.1463
  191MOL0     H25750   4.968   6.738   3.127  2.5223 -0.2829 -1.4303
  191MOL0     H25751   5.169   6.773   3.104  5.5792 -1.0213  1.7719
  191MOL0     H25752   5.135   6.898   3.216  0.8377  0.0686 -1.5803
  191MOL0     H25753   5.228   6.792   3.408 -1.8324  2.7713 -0.7043
  191MOL0     H25754   5.242   6.638   3.344 -1.8289  0.4912 -1.0235
  191MOL0     H25755   5.416   6.862   3.233 -4.2045  0.9156 -0.2657
  191MOL0     H25756   5.420   6.697   3.181 -0.1760  0.6220  0.6027
  191MOL0     H25757   5.439   6.693   3.473  0.6807 -0.9230  0.7024
  191MOL0     H25758   5.513   6.848   3.423 -1.2136  0.3681 -1.3577
  191MOL0     H25759   5.579   6.566   3.348 -0.3844  0.8034 -1.3596
  191MOL0     H25760   5.656   6.704   3.269  2.1227  3.9134  2.0729
  191MOL0     H25761   5.786   6.620   3.447 -0.7997 -0.2275 -0.4393
  191MOL0     H25762   5.651   6.610   3.554 -0.2947 -2.2781 -2.3477
  191MOL0     H25763   5.664   6.890   3.557  0.1580  0.0360 -0.3580
  191MOL0     H25764   5.795   6.788   3.621  0.4401 -3.1203 -1.0448
  191MOL0     H25765   4.806   6.943   3.466 -1.8470  0.8120  3.3724
  191MOL0     H25766   4.600   6.882   3.585  1.4530  1.5233 -1.4934
  191MOL0     H25767   4.250   6.811   3.685 -2.2325  0.5404 -0.9178
  191MOL0     H25768   4.039   6.833   3.792  1.8403  0.3268  0.4634
  191MOL0     H25769   2.127   6.403   3.020  2.4536  2.4919 -1.9338
  191MOL0     H25770   1.975   6.235   2.884  0.7744 -1.0046  0.6151
  191MOL0     H25771   1.806   5.936   2.780 -1.1356  0.3803 -1.5182
  191MOL0     H25772   1.640   5.768   2.758 -0.0486  1.9176 -2.8622
  191MOL0     H25773   1.487   5.592   2.713 -0.3727  1.3212  2.0755
  191MOL0     H25774   1.580   5.533   2.861 -0.9999 -2.0966  0.5733
  191MOL0     H25775   1.527   5.305   2.808 -0.8021 -1.8726 -0.4127
  191MOL0     H25776   1.447   5.366   2.657 -0.9491  1.5260  0.3408
  191MOL0     H25777   1.344   5.463   2.914 -0.5102 -0.1831 -0.4861
  191MOL0     H25778   1.306   5.295   2.876 -0.8562 -0.0823  0.3685
  191MOL0     H25779   1.253   5.489   2.662 -1.0122  3.0092  1.0461
  191MOL0     H25780   1.183   5.332   2.700 -0.6838 -0.0514  2.4500
  191MOL0     H25781   0.936   5.582   2.939  0.0807  2.1851  0.2379
  191MOL0     H25782   1.923   5.478   2.600 -0.3989  0.5424 -0.1961
  191MOL0     H25783   2.211   5.674   2.679  0.8448 -1.3858 -0.2228
  191MOL0     H25784   2.157   5.531   2.617  1.7685  0.0540  0.3034
  191MOL0     H25785   2.159   5.677   2.506 -1.8466 -2.0822 -1.8613
  192MOL0     O25786   7.776   0.500   9.529  1.0995 -0.3484  0.1993
  192MOL0     C25787   7.729   0.526   9.417  0.6248 -0.4616 -0.1786
  192MOL0     O25788   7.802   0.566   9.309 -0.0676  0.5104 -0.0971
  192MOL0     C25789   7.933   0.614   9.326 -0.2503  0.0446  0.2344
  192MOL0     C25790   8.026   0.512   9.335  0.1363 -0.2816  0.1775
  192MOL0     C25791   8.162   0.540   9.325  0.4308  0.7120  0.4514
  192MOL0     C25792   8.210   0.672   9.324 -0.9049 -0.4777  0.0731
  192MOL0     O25793   8.345   0.694   9.313 -0.1906  0.4630  0.2852
  192MOL0     C25794   8.393   0.821   9.274  0.4271 -0.0105  0.3305
  192MOL0     C25795   8.380   0.850   9.122  0.6456 -0.4334 -0.2917
  192MOL0     C25796   8.446   0.766   9.025  0.2162  0.2579 -0.2055
  192MOL0     C25797   8.599   0.782   9.022 -0.1880 -0.2249 -0.3884
  192MOL0     C25798   8.675   0.672   8.931  1.5432 -0.5019  0.2358
  192MOL0     C25799   8.819   0.657   8.963 -0.4962  0.2117  0.2782
  192MOL0     C25800   8.880   0.553   8.860  0.2186 -0.1961 -0.0898
  192MOL0     C25801   9.027   0.531   8.891  0.1793  0.2358  0.3060
  192MOL0     N25802   9.081   0.419   8.797 -0.3119 -0.1354 -0.2150
  192MOL0     C25803   9.071   0.286   8.817  0.3926  0.1038  0.4092
  192MOL0     C25804   9.110   0.231   8.699 -0.1638  0.5189 -0.5305
  192MOL0     C25805   9.113   0.085   8.663 -0.2434  0.7193  0.1117
  192MOL0     C25806   8.977   0.045   8.612 -0.0087 -0.0672  0.5568
  192MOL0     C25807   8.983  -0.087   8.533 -0.9632 -0.0823 -0.3327
  192MOL0     C25808   8.858  -0.169   8.544 -0.1278  0.1308  0.4106
  192MOL0     O25809   8.835  -0.212   8.676 -0.2280  0.3421 -0.2747
  192MOL0     C25810   8.710  -0.257   8.710  0.6075  0.4146  0.0745
  192MOL0     C25811   8.703  -0.271   8.848 -0.0600  0.3362 -0.0732
  192MOL0     C25812   8.592  -0.311   8.917  0.7208 -0.4624 -0.4523
  192MOL0     C25813   8.478  -0.353   8.841 -0.0652  0.3458  0.3279
  192MOL0     C25814   8.359  -0.397   8.907 -0.3719  0.4999 -0.8092
  192MOL0     O25815   8.274  -0.466   8.835  0.1587 -0.5426  0.3072
  192MOL0     C25816   8.150  -0.494   8.880 -0.2314  0.1570  0.4435
  192MOL0     C25817   8.113  -0.622   8.921  0.0789  0.5011  0.1021
  192MOL0     C25818   7.981  -0.649   8.948  0.5413  0.3221 -0.6289
  192MOL0     C25819   7.884  -0.556   8.920  0.1239 -0.4725 -0.4908
  192MOL0     O25820   7.753  -0.582   8.940 -0.0158  0.6817 -0.5560
  192MOL0     C25821   7.697  -0.714   8.921 -0.5515  0.3156  0.2856
  192MOL0     C25822   7.552  -0.696   8.879 -0.8770 -0.3693  0.6211
  192MOL0     C25823   7.466  -0.611   8.978 -0.2507 -0.4451  0.0646
  192MOL0     C25824   7.343  -0.561   8.917  0.0562  0.2877  0.1441
  192MOL0     C25825   7.235  -0.547   9.035 -0.1870 -0.5867 -0.2147
  192MOL0     C25826   7.160  -0.674   9.066 -0.0276 -0.4439 -0.0321
  192MOL0     C25827   7.056  -0.649   9.176  0.0247 -0.0668 -0.2859
  192MOL0     C25828   6.963  -0.772   9.184 -0.3297 -0.0002 -0.3315
  192MOL0    Cl25829   6.887  -0.781   9.344  0.0312 -0.0403  0.2588
  192MOL0     C25830   7.914  -0.429   8.875 -0.1492  0.3002 -0.6181
  192MOL0     C25831   8.053  -0.401   8.857  0.3380 -1.0965  0.7951
  192MOL0     O25832   8.342  -0.384   9.030  0.0929  0.0458  0.4846
  192MOL0     C25833   8.474  -0.333   8.704 -0.3703  0.2125  0.1748
  192MOL0     C25834   8.593  -0.286   8.633 -0.6025  0.0528  0.4108
  192MOL0     N25835   9.139   0.332   8.608  0.1121  0.4934 -0.4149
  192MOL0     N25836   9.119   0.444   8.667 -0.0919  0.3401  0.1823
  192MOL0     C25837   8.109   0.775   9.317  0.3102  0.4347 -0.0681
  192MOL0     C25838   7.970   0.749   9.329 -0.0022 -0.3893  0.1008
  192MOL0     C25839   7.577   0.515   9.403  0.4338 -0.4921 -0.2006
  192MOL0     C25840   7.506   0.436   9.496 -0.0508 -0.2546 -0.3536
  192MOL0     C25841   7.368   0.423   9.485  0.3907  0.2966  0.4153
  192MOL0     C25842   7.292   0.498   9.391  0.2805  0.3102 -0.0458
  192MOL0     O25843   7.155   0.502   9.368 -0.4931 -0.2645  0.5844
  192MOL0     C25844   7.069   0.430   9.455 -0.9075 -1.1717  0.0216
  192MOL0     C25845   6.939   0.443   9.395  0.7673 -0.0895  0.7774
  192MOL0     C25846   6.821   0.359   9.472  1.0149  1.0606  0.2714
  192MOL0     C25847   6.681   0.392   9.416  0.1524  0.0206 -0.0138
  192MOL0     C25848   6.658   0.346   9.278 -0.6059 -0.6519  0.0165
  192MOL0     C25849   6.637   0.296   9.174 -0.2384 -0.1771  0.4860
  192MOL0     C25850   7.360   0.573   9.301  0.3822  0.3858  0.8298
  192MOL0     C25851   7.497   0.586   9.303 -0.6217  0.8867 -0.2954
  192MOL0     C25852   7.555   0.697   9.212 -0.0455  0.5140 -0.2109
  192MOL0     H25853   7.988   0.410   9.336  0.0508 -0.2494  0.1484
  192MOL0     H25854   8.230   0.456   9.323 -2.5030 -2.1940 -5.5503
  192MOL0     H25855   8.345   0.903   9.329  0.2641  0.0358  0.1223
  192MOL0     H25856   8.493   0.844   9.312  0.6510  0.9951 -0.8177
  192MOL0     H25857   8.428   0.949   9.120  0.9176 -0.5042  1.3847
  192MOL0     H25858   8.275   0.869   9.096 -0.0228  0.8631  2.9119
  192MOL0     H25859   8.406   0.784   8.925 -0.3661  1.7946  0.2742
  192MOL0     H25860   8.417   0.661   9.040  1.0457  0.2098  1.2488
  192MOL0     H25861   8.633   0.878   8.981  1.0145 -1.3845 -2.3037
  192MOL0     H25862   8.638   0.784   9.124 -0.4282  3.5857 -0.2232
  192MOL0     H25863   8.626   0.574   8.937 -1.6815  0.9455 -0.4407
  192MOL0     H25864   8.666   0.690   8.823 -0.7686 -0.7905  0.3239
  192MOL0     H25865   8.869   0.751   8.940 -0.1019 -0.3350 -1.2621
  192MOL0     H25866   8.835   0.634   9.069 -1.1087 -1.5740  0.0174
  192MOL0     H25867   8.873   0.582   8.755  0.9247 -3.5857 -1.2271
  192MOL0     H25868   8.823   0.460   8.875 -0.4911  0.6118  2.7706
  192MOL0     H25869   9.081   0.624   8.872 -1.7187  0.9099 -2.3221
  192MOL0     H25870   9.048   0.497   8.993 -1.2757 -1.7516  0.0069
  192MOL0     H25871   9.036   0.228   8.902  1.4415 -1.5986 -0.2618
  192MOL0     H25872   9.186   0.063   8.584  1.4834  0.5776  1.6657
  192MOL0     H25873   9.131   0.024   8.752  1.1519  1.1657  0.1560
  192MOL0     H25874   8.909   0.039   8.698 -0.8090  0.6718 -0.0064
  192MOL0     H25875   8.940   0.130   8.553  0.0886  0.6107  1.4530
  192MOL0     H25876   9.067  -0.153   8.557 -1.7717 -1.0355 -0.0806
  192MOL0     H25877   9.006  -0.052   8.432  0.6001  0.1084  0.0632
  192MOL0     H25878   8.886  -0.254   8.481  4.0279  1.4146  0.2045
  192MOL0     H25879   8.781  -0.117   8.487 -0.5909 -0.3080  0.6306
  192MOL0     H25880   8.788  -0.242   8.909 -0.6320 -0.1009  0.9523
  192MOL0     H25881   8.583  -0.318   9.025 -4.0743 -0.4275 -0.6306
  192MOL0     H25882   8.196  -0.691   8.935  0.4315  0.8752 -0.1240
  192MOL0     H25883   7.959  -0.749   8.986 -2.2148  1.8300  2.2079
  192MOL0     H25884   7.752  -0.764   8.841 -0.3863 -0.5498  0.9405
  192MOL0     H25885   7.707  -0.775   9.011  1.4190 -0.0600 -0.1359
  192MOL0     H25886   7.550  -0.657   8.777 -2.7335 -3.2723 -0.5911
  192MOL0     H25887   7.511  -0.797   8.865 -0.3939 -0.7717  1.9556
  192MOL0     H25888   7.440  -0.670   9.066  0.5759 -0.9832 -0.0370
  192MOL0     H25889   7.529  -0.529   9.014  0.2418  0.6835 -3.0207
  192MOL0     H25890   7.297  -0.623   8.840 -0.5825  0.9114  0.0147
  192MOL0     H25891   7.361  -0.465   8.867  4.0510 -0.3432  0.0531
  192MOL0     H25892   7.162  -0.470   9.009  0.8160  0.2807 -0.5498
  192MOL0     H25893   7.286  -0.499   9.120  3.2726 -2.3323 -1.1062
  192MOL0     H25894   7.114  -0.702   8.970 -0.9034 -1.7771  0.7457
  192MOL0     H25895   7.229  -0.750   9.103  1.3489  0.5274 -0.5390
  192MOL0     H25896   7.005  -0.556   9.149  0.2617  0.0515 -0.3336
  192MOL0     H25897   7.100  -0.631   9.274  0.1377  2.0725 -0.6810
  192MOL0     H25898   6.884  -0.763   9.109 -0.6764  0.5316  0.0820
  192MOL0     H25899   7.022  -0.859   9.155  2.1393  1.2934  0.4902
  192MOL0     H25900   7.839  -0.356   8.846  0.7030  1.5511  0.2383
  192MOL0     H25901   8.079  -0.311   8.803 -3.9454 -1.4125 -2.3570
  192MOL0     H25902   8.380  -0.361   8.657  0.6629 -2.5333 -0.4868
  192MOL0     H25903   8.582  -0.264   8.528 -2.9155 -1.2015  0.3299
  192MOL0     H25904   8.147   0.877   9.318 -1.2162  1.0555 -0.7870
  192MOL0     H25905   7.896   0.828   9.315  0.5630  0.4154  1.4675
  192MOL0     H25906   7.561   0.392   9.579 -0.8230 -1.1530 -0.3033
  192MOL0     H25907   7.325   0.360   9.562  1.5546 -1.7472 -0.5284
  192MOL0     H25908   7.078   0.472   9.556 -1.9655  2.1287 -1.1474
  192MOL0     H25909   7.094   0.323   9.461 -0.4311 -1.1389 -1.1447
  192MOL0     H25910   6.945   0.402   9.294  1.1907  0.2194  0.6720
  192MOL0     H25911   6.906   0.546   9.377 -1.0952 -0.6938  0.5018
  192MOL0     H25912   6.811   0.382   9.578 -1.3030 -3.2077  1.1741
  192MOL0     H25913   6.850   0.254   9.464 -0.5409  0.5294  1.2450
  192MOL0     H25914   6.610   0.339   9.480  0.3301 -0.7727 -0.4612
  192MOL0     H25915   6.661   0.499   9.408  1.1458  0.1405 -1.0843
  192MOL0     H25916   6.610   0.248   9.082  4.2050 -2.1167 -0.0647
  192MOL0     H25917   7.301   0.609   9.217 -0.0298 -1.6904  0.1859
  192MOL0     H25918   7.468   0.739   9.161  0.7343  1.8060 -0.5150
  192MOL0     H25919   7.608   0.777   9.265  0.9385  0.0946 -0.5450
  192MOL0     H25920   7.635   0.655   9.150 -0.2369  0.7408 -0.6127
  193MOL0     O25921   5.612   6.638   7.010  0.0554 -0.0702 -0.4102
  193MOL0     C25922   5.605   6.754   7.060  0.5728 -0.4130 -0.3486
  193MOL0     O25923   5.706   6.849   7.055  0.6886  0.4032  0.7163
  193MOL0     C25924   5.834   6.821   7.024 -0.3603 -0.2217  0.7211
  193MOL0     C25925   5.895   6.693   7.041  0.0186  0.1016 -0.0100
  193MOL0     C25926   6.025   6.674   7.019  0.2799 -0.2678 -0.0253
  193MOL0     C25927   6.116   6.773   6.985 -0.2236  0.2784  0.7048
  193MOL0     O25928   6.244   6.742   6.964  1.0812 -0.1607 -0.3160
  193MOL0     C25929   6.322   6.825   6.879 -0.7439  0.1215  0.4796
  193MOL0     C25930   6.453   6.753   6.832  0.2150 -0.2286 -1.0225
  193MOL0     C25931   6.536   6.730   6.963 -0.7830  0.1953 -0.1138
  193MOL0     C25932   6.656   6.643   6.931  0.0493 -0.7553 -0.1719
  193MOL0     C25933   6.750   6.621   7.046  1.2533  0.0054  0.5068
  193MOL0     C25934   6.851   6.516   7.019  0.2052  0.2422 -0.8449
  193MOL0     C25935   6.958   6.576   6.933  0.5812  0.5311  0.0230
  193MOL0     C25936   7.055   6.459   6.885  0.3522 -0.0897 -0.1499
  193MOL0     N25937   7.155   6.503   6.789  0.8904  0.3417  0.7835
  193MOL0     C25938   7.289   6.488   6.805 -0.4604 -0.2441 -0.1263
  193MOL0     C25939   7.350   6.556   6.709 -0.1482 -0.1916  0.7664
  193MOL0     C25940   7.496   6.565   6.691 -0.4108  0.2479  0.3185
  193MOL0     C25941   7.532   6.506   6.555  0.5566 -0.5147 -0.4789
  193MOL0     C25942   7.676   6.539   6.528  0.3935 -0.4543 -0.8795
  193MOL0     C25943   7.699   6.569   6.379  0.8237 -1.0030 -0.6840
  193MOL0     O25944   7.827   6.641   6.363  0.4458 -0.4272 -0.6559
  193MOL0     C25945   7.940   6.570   6.393  0.1420  0.6155 -0.2176
  193MOL0     C25946   8.031   6.654   6.448 -0.1667  0.3233  0.3313
  193MOL0     C25947   8.157   6.604   6.489  0.1407 -0.4659  0.1050
  193MOL0     C25948   8.177   6.459   6.475 -0.5446  0.1513  0.4030
  193MOL0     C25949   8.296   6.395   6.527 -0.3736  0.6250 -0.3573
  193MOL0     O25950   8.326   6.280   6.465 -0.0591  0.1376 -0.1215
  193MOL0     C25951   8.447   6.216   6.476 -0.4885 -0.6672  0.7109
  193MOL0     C25952   8.443   6.088   6.429 -0.4220  0.0662 -1.0609
  193MOL0     C25953   8.555   6.005   6.439 -0.0874  0.9059  0.4910
  193MOL0     C25954   8.675   6.048   6.485  0.5071  0.1806  0.2310
  193MOL0     O25955   8.779   5.958   6.490 -0.3273 -0.6039  0.4410
  193MOL0     C25956   8.912   5.984   6.529  0.3097 -0.0086 -0.6113
  193MOL0     C25957   8.980   6.037   6.406  0.1645 -0.5022 -0.4150
  193MOL0     C25958   9.123   6.078   6.433 -0.5782 -0.2593 -1.2643
  193MOL0     C25959   9.211   5.953   6.436 -0.0486  0.5968 -0.3857
  193MOL0     C25960   9.356   5.987   6.458 -0.5642 -0.5029 -0.2965
  193MOL0     C25961   9.435   5.870   6.512  0.5254  0.2985 -0.3355
  193MOL0     C25962   9.587   5.900   6.536 -0.2070  1.0188 -0.1174
  193MOL0     C25963   9.642   5.799   6.641  0.2985  0.6800  0.5817
  193MOL0    Cl25964   9.611   5.624   6.591  0.1441 -0.3737 -0.3417
  193MOL0     C25965   8.693   6.184   6.510  0.6150  0.0405 -0.3390
  193MOL0     C25966   8.578   6.266   6.510 -0.5138 -0.3706  0.1410
  193MOL0     O25967   8.357   6.443   6.626  0.6702 -1.0649 -0.7238
  193MOL0     C25968   8.073   6.380   6.420 -1.3402  0.2677  0.9272
  193MOL0     C25969   7.958   6.438   6.373 -0.2525 -0.0930  0.0698
  193MOL0     N25970   7.245   6.608   6.631  1.0519  0.7473 -0.3897
  193MOL0     N25971   7.130   6.576   6.671  0.8026 -0.0254 -0.6348
  193MOL0     C25972   6.065   6.903   6.972 -0.0171 -0.5733  1.0483
  193MOL0     C25973   5.927   6.929   6.993  0.3533  0.4682 -0.7172
  193MOL0     C25974   5.475   6.794   7.112  0.3072 -1.1083  0.1811
  193MOL0     C25975   5.448   6.941   7.112 -0.4363  0.4438 -0.5637
  193MOL0     C25976   5.340   7.000   7.176 -0.0501  0.1361  1.1242
  193MOL0     C25977   5.235   6.913   7.217  0.1766  0.2889 -0.0053
  193MOL0     O25978   5.124   6.962   7.275  0.6062 -0.3899 -0.5614
  193MOL0     C25979   5.011   6.885   7.325  0.9708  0.0303 -0.1241
  193MOL0     C25980   4.911   6.983   7.397  0.2504  0.2371 -0.3254
  193MOL0     C25981   4.765   6.926   7.411  0.6527 -0.2385  0.4058
  193MOL0     C25982   4.691   7.006   7.518  0.5022  0.1116  0.1963
  193MOL0     C25983   4.546   6.995   7.511  0.4524  0.1508 -1.6707
  193MOL0     C25984   4.425   6.991   7.521  0.7012 -0.6682 -0.3010
  193MOL0     C25985   5.245   6.775   7.188 -0.9511 -0.8121  1.1699
  193MOL0     C25986   5.361   6.712   7.147 -0.4755 -0.2563  0.4941
  193MOL0     C25987   5.360   6.559   7.134  0.4129  0.0284 -0.1710
  193MOL0     H25988   5.835   6.616   7.087 -0.1481  1.3407  1.9716
  193MOL0     H25989   6.063   6.572   7.018 -0.0110 -0.3852 -2.1594
  193MOL0     H25990   6.257   6.842   6.793 -2.5490 -1.7953  1.3774
  193MOL0     H25991   6.342   6.920   6.930 -0.4833 -0.2972  1.1650
  193MOL0     H25992   6.496   6.819   6.756 -0.4180  1.3107 -0.0953
  193MOL0     H25993   6.429   6.657   6.787 -1.0766 -0.4983  0.1839
  193MOL0     H25994   6.475   6.700   7.049  1.2208  1.1913  1.7750
  193MOL0     H25995   6.589   6.823   6.985  0.3597 -0.3306 -0.5843
  193MOL0     H25996   6.621   6.549   6.886 -0.0448  0.8597 -3.8076
  193MOL0     H25997   6.717   6.700   6.860 -1.5292  2.7650  1.0565
  193MOL0     H25998   6.803   6.713   7.076 -1.7127  1.9025  0.3262
  193MOL0     H25999   6.696   6.581   7.133 -1.7263 -1.3707 -1.8017
  193MOL0     H26000   6.895   6.474   7.110 -0.9342  0.3784 -0.2073
  193MOL0     H26001   6.791   6.443   6.964 -2.0053  2.6141 -1.7829
  193MOL0     H26002   7.014   6.656   6.983  2.5486 -0.6381 -0.2062
  193MOL0     H26003   6.920   6.617   6.839  0.1827 -2.9005 -1.4569
  193MOL0     H26004   7.106   6.396   6.958 -1.3262 -0.5487  0.6772
  193MOL0     H26005   6.985   6.395   6.830  0.8968  1.3153 -2.6455
  193MOL0     H26006   7.331   6.431   6.887 -1.3477 -0.0882  0.4511
  193MOL0     H26007   7.538   6.666   6.696  0.3250  0.1211 -1.9491
  193MOL0     H26008   7.556   6.506   6.761 -0.6563  0.5800  0.8108
  193MOL0     H26009   7.515   6.399   6.540  2.2210 -0.6153 -2.0426
  193MOL0     H26010   7.461   6.560   6.491 -0.1290  1.2881  1.6888
  193MOL0     H26011   7.745   6.460   6.557 -1.4332 -1.8080 -0.0064
  193MOL0     H26012   7.705   6.622   6.593 -1.0286 -0.2515 -0.4713
  193MOL0     H26013   7.621   6.638   6.347  0.6229 -0.2650  1.2355
  193MOL0     H26014   7.675   6.477   6.324  0.1081  0.4659 -2.9466
  193MOL0     H26015   8.010   6.760   6.453 -1.9166  0.1988 -2.2618
  193MOL0     H26016   8.236   6.665   6.531 -0.0703  0.8800 -1.3914
  193MOL0     H26017   8.352   6.044   6.389 -1.4246  0.4032  0.7228
  193MOL0     H26018   8.537   5.904   6.405  1.3156  0.5256  0.8304
  193MOL0     H26019   8.902   6.044   6.619 -1.4606 -1.5372  0.2837
  193MOL0     H26020   8.959   5.888   6.552  3.1488  1.4737  0.2318
  193MOL0     H26021   8.979   5.959   6.329  0.4802 -0.3076 -0.6155
  193MOL0     H26022   8.923   6.124   6.375 -0.8021 -0.7270  0.6468
  193MOL0     H26023   9.156   6.153   6.360 -0.7154  2.8706  1.6585
  193MOL0     H26024   9.126   6.133   6.527 -0.2343  0.8977 -1.9325
  193MOL0     H26025   9.186   5.898   6.345 -5.6737  0.7836  0.6698
  193MOL0     H26026   9.183   5.892   6.522  1.6632  1.5760  0.9314
  193MOL0     H26027   9.371   6.079   6.515 -1.5518 -0.1444 -0.6064
  193MOL0     H26028   9.399   6.023   6.364  0.6603  1.0337  0.7808
  193MOL0     H26029   9.389   5.838   6.606 -1.5714  0.9027 -1.0863
  193MOL0     H26030   9.408   5.787   6.446 -2.1158 -0.4759  1.5160
  193MOL0     H26031   9.596   6.006   6.562  2.0831  1.6115 -2.8764
  193MOL0     H26032   9.654   5.891   6.450  1.3868  3.1786  0.8178
  193MOL0     H26033   9.741   5.828   6.678  2.1716 -0.8149 -2.8752
  193MOL0     H26034   9.578   5.818   6.728  0.4281  0.5089  0.7155
  193MOL0     H26035   8.788   6.223   6.543  0.3286 -1.3197  2.3332
  193MOL0     H26036   8.578   6.367   6.549 -2.3048  0.2105 -1.1876
  193MOL0     H26037   8.102   6.276   6.407 -0.1864  0.4719  1.7815
  193MOL0     H26038   7.880   6.374   6.334 -0.2296  0.1060 -0.3133
  193MOL0     H26039   6.132   6.980   6.933  0.8033 -1.2820  1.0249
  193MOL0     H26040   5.883   7.027   6.978 -0.2784 -0.0692 -2.8122
  193MOL0     H26041   5.522   7.012   7.078  0.2351  0.6189  1.1672
  193MOL0     H26042   5.327   7.108   7.178  0.3999  0.1833  1.9242
  193MOL0     H26043   5.041   6.794   7.377 -0.7228 -0.7212 -0.3881
  193MOL0     H26044   4.969   6.849   7.231 -1.2153  0.9253  0.4407
  193MOL0     H26045   4.916   7.077   7.340 -2.4051 -0.0198 -1.1162
  193MOL0     H26046   4.955   7.003   7.496 -0.5683  1.8642 -0.2569
  193MOL0     H26047   4.769   6.824   7.452 -0.0448 -1.0226 -1.4006
  193MOL0     H26048   4.717   6.940   7.314 -0.3868 -0.4292  0.8766
  193MOL0     H26049   4.715   6.972   7.619 -4.6355 -0.6998  1.4571
  193MOL0     H26050   4.720   7.111   7.509  0.3664  0.1912  0.6342
  193MOL0     H26051   4.323   7.006   7.548  0.1549  0.3131 -2.6431
  193MOL0     H26052   5.161   6.709   7.207 -0.7035 -0.9914  1.6783
  193MOL0     H26053   5.286   6.521   7.205  1.1727  1.8776  1.7187
  193MOL0     H26054   5.349   6.523   7.031 -1.5378  0.0486 -0.0067
  193MOL0     H26055   5.450   6.517   7.179 -0.1734 -0.8525  0.2080
  194MOL0     O26056   3.350   0.037   8.289 -0.2003  0.9629  0.0298
  194MOL0     C26057   3.295   0.144   8.272  0.8787  0.3961  0.0778
  194MOL0     O26058   3.351   0.257   8.242 -0.1942 -0.6426  0.0810
  194MOL0     C26059   3.488   0.248   8.224 -0.3003 -0.0153 -0.1534
  194MOL0     C26060   3.576   0.260   8.333 -0.3925  0.6503  0.7761
  194MOL0     C26061   3.720   0.266   8.321  0.6804  0.6076 -0.5763
  194MOL0     C26062   3.777   0.254   8.196 -0.2360 -0.0439  0.4227
  194MOL0     O26063   3.916   0.245   8.173 -0.1486  0.4732 -0.8019
  194MOL0     C26064   3.988   0.198   8.289 -0.1909 -0.0029  0.1693
  194MOL0     C26065   4.131   0.168   8.239  0.6279 -0.8625 -0.3685
  194MOL0     C26066   4.206   0.299   8.220  0.2710 -0.4106  0.6601
  194MOL0     C26067   4.324   0.254   8.132 -0.6332  0.2681 -0.3484
  194MOL0     C26068   4.438   0.348   8.148  0.2804 -1.5639  0.3058
  194MOL0     C26069   4.566   0.302   8.083  0.1825 -0.5605 -0.3637
  194MOL0     C26070   4.671   0.417   8.094 -0.6998 -0.8488  0.1317
  194MOL0     C26071   4.805   0.351   8.098  0.0093 -0.6326  0.7898
  194MOL0     N26072   4.850   0.274   7.978  0.3597 -0.2353 -0.3276
  194MOL0     C26073   4.881   0.138   7.965 -0.0119 -0.6339  0.2814
  194MOL0     C26074   4.900   0.127   7.828  0.5202  0.3524 -0.0129
  194MOL0     C26075   4.954  -0.000   7.759  0.1541  0.4349 -0.1423
  194MOL0     C26076   5.109  -0.004   7.783  0.6181 -0.1702  0.3850
  194MOL0     C26077   5.178  -0.101   7.689  0.0593 -0.0748 -1.0230
  194MOL0     C26078   5.327  -0.073   7.683  0.6921 -0.0353  0.4923
  194MOL0     O26079   5.386  -0.100   7.813  0.7148 -0.4107  0.4254
  194MOL0     C26080   5.520  -0.098   7.835 -0.2736  0.4456 -0.5724
  194MOL0     C26081   5.609  -0.078   7.723  0.8665  0.2748 -0.2300
  194MOL0     C26082   5.747  -0.077   7.739  0.1451  0.6564 -0.6812
  194MOL0     C26083   5.797  -0.089   7.865 -0.0425  0.4889 -0.6489
  194MOL0     C26084   5.949  -0.081   7.877 -0.3046  0.4536 -0.3260
  194MOL0     O26085   6.004  -0.114   7.999  0.1530  0.4461  0.3770
  194MOL0     C26086   6.139  -0.095   8.009  0.5226  0.3737  0.5861
  194MOL0     C26087   6.219  -0.205   7.998  0.0334  0.5628 -1.4477
  194MOL0     C26088   6.356  -0.192   8.004 -0.5140 -0.3333 -0.9998
  194MOL0     C26089   6.413  -0.062   8.022 -0.2433 -0.0252 -0.6619
  194MOL0     O26090   6.544  -0.043   8.027 -0.0276  0.2156  0.2775
  194MOL0     C26091   6.628  -0.159   8.048  0.6042 -0.2301 -0.1270
  194MOL0     C26092   6.768  -0.106   8.066  0.3842  0.5210  1.1874
  194MOL0     C26093   6.800  -0.071   8.213 -0.2645  0.4777 -0.0053
  194MOL0     C26094   6.945  -0.011   8.211  0.6064  0.1366 -0.8695
  194MOL0     C26095   7.010  -0.040   8.345  0.2114 -0.5397 -1.0327
  194MOL0     C26096   7.138   0.037   8.347  0.6847 -0.0301  0.8196
  194MOL0     C26097   7.129   0.193   8.321  0.5399  1.1804 -0.2820
  194MOL0     C26098   7.255   0.252   8.379 -0.0506 -0.1478 -0.5300
  194MOL0    Cl26099   7.253   0.430   8.360  0.1228  0.1484  0.3568
  194MOL0     C26100   6.332   0.045   8.035 -0.1075  0.0979 -0.7178
  194MOL0     C26101   6.191   0.030   8.036 -0.1929  0.1594  0.8784
  194MOL0     O26102   6.011  -0.041   7.779  0.3146 -0.3149 -0.4126
  194MOL0     C26103   5.712  -0.118   7.975 -0.7200  0.3681 -0.1100
  194MOL0     C26104   5.578  -0.127   7.961  0.5792  0.6674  0.6262
  194MOL0     N26105   4.883   0.244   7.768  0.0507 -0.8183 -0.1943
  194MOL0     N26106   4.853   0.335   7.854  0.1647 -0.5441  0.1995
  194MOL0     C26107   3.692   0.248   8.083  0.6760  0.0186 -0.6682
  194MOL0     C26108   3.552   0.240   8.100 -0.3394 -0.8351  0.0687
  194MOL0     C26109   3.144   0.141   8.279 -0.5390 -1.2242 -0.6192
  194MOL0     C26110   3.084   0.039   8.354 -0.0262  0.7014 -0.0897
  194MOL0     C26111   2.951   0.035   8.378  0.1819 -0.8006  0.5304
  194MOL0     C26112   2.866   0.135   8.325 -0.3124  0.3284  0.3282
  194MOL0     O26113   2.732   0.147   8.351  0.4522  0.3904 -1.4378
  194MOL0     C26114   2.671   0.026   8.406  0.2304 -0.6245  0.9293
  194MOL0     C26115   2.517   0.043   8.424 -0.1948 -0.5663  0.0552
  194MOL0     C26116   2.447   0.016   8.290 -0.3794  0.1121 -0.8794
  194MOL0     C26117   2.296  -0.021   8.301 -1.2810 -0.8898 -0.3770
  194MOL0     C26118   2.211   0.104   8.343  0.0161  0.1658  0.0289
  194MOL0     C26119   2.130   0.191   8.364  0.2075 -0.1492  0.3231
  194MOL0     C26120   2.923   0.246   8.258 -0.1702 -0.5350 -0.2490
  194MOL0     C26121   3.062   0.251   8.233  0.8294 -0.7324  0.7846
  194MOL0     C26122   3.112   0.367   8.150 -0.8594  0.4478 -0.2755
  194MOL0     H26123   3.535   0.259   8.434 -0.1034  0.4057  0.8950
  194MOL0     H26124   3.770   0.284   8.415 -1.9032 -0.5129  1.1392
  194MOL0     H26125   3.977   0.273   8.369 -0.1733  0.6808 -0.4591
  194MOL0     H26126   3.939   0.106   8.322 -1.2628  0.0224 -1.2622
  194MOL0     H26127   4.134   0.117   8.142 -0.9740 -0.8757 -0.4229
  194MOL0     H26128   4.192   0.114   8.313  2.9000  1.0681 -0.7014
  194MOL0     H26129   4.244   0.335   8.315  2.8494 -1.5293  0.1404
  194MOL0     H26130   4.140   0.373   8.173 -1.4383 -1.1040  1.8693
  194MOL0     H26131   4.357   0.153   8.157 -0.1434  0.2566 -1.0208
  194MOL0     H26132   4.292   0.252   8.028  0.0255  1.7385 -0.6112
  194MOL0     H26133   4.419   0.446   8.104  4.0745  0.7123  3.1060
  194MOL0     H26134   4.455   0.370   8.254  1.3370  1.6104 -0.4146
  194MOL0     H26135   4.593   0.203   8.122 -1.2100 -1.2694 -1.1093
  194MOL0     H26136   4.550   0.274   7.979 -3.1815  0.9453 -0.4052
  194MOL0     H26137   4.659   0.460   8.193 -1.5498  0.9606 -0.7183
  194MOL0     H26138   4.665   0.488   8.011 -0.6080  0.1612  0.9856
  194MOL0     H26139   4.879   0.425   8.129 -0.7584  0.6586 -0.3295
  194MOL0     H26140   4.806   0.290   8.189  1.4289  2.1597  2.8180
  194MOL0     H26141   4.906   0.058   8.034  2.4607 -1.4140 -1.3729
  194MOL0     H26142   4.915  -0.088   7.812  2.5489  1.6048  4.0557
  194MOL0     H26143   4.909  -0.002   7.659 -2.4407  2.1776  0.8694
  194MOL0     H26144   5.140   0.096   7.752  1.8283 -0.4262  0.6918
  194MOL0     H26145   5.137  -0.024   7.887 -2.0641  1.3070  1.4738
  194MOL0     H26146   5.151  -0.096   7.583 -0.4244 -1.9931 -1.0216
  194MOL0     H26147   5.169  -0.197   7.740  4.3538  0.8646  2.0717
  194MOL0     H26148   5.344   0.030   7.650 -0.4767 -0.4271 -1.4965
  194MOL0     H26149   5.374  -0.141   7.611  0.1778 -1.6462  1.6306
  194MOL0     H26150   5.574  -0.053   7.623  0.1608 -1.6788 -0.5000
  194MOL0     H26151   5.802  -0.063   7.646 -0.8023 -0.0214 -1.3670
  194MOL0     H26152   6.164  -0.298   8.006 -0.6204  0.9899 -0.9014
  194MOL0     H26153   6.410  -0.286   8.008  0.7191  0.3706 -0.0923
  194MOL0     H26154   6.601  -0.215   8.138  0.0338 -1.0845 -0.8183
  194MOL0     H26155   6.626  -0.224   7.960 -0.0956 -0.2852 -0.0689
  194MOL0     H26156   6.829  -0.186   8.023 -0.3551  1.3349 -1.5712
  194MOL0     H26157   6.777  -0.025   7.993 -0.7200 -1.2393 -1.0213
  194MOL0     H26158   6.724  -0.001   8.248 -0.5091  0.4956 -0.5727
  194MOL0     H26159   6.804  -0.167   8.267  1.3948  0.7892  0.4732
  194MOL0     H26160   6.927   0.096   8.199  3.6494  0.6762 -1.3278
  194MOL0     H26161   6.998  -0.068   8.134  0.5946  1.4599 -1.9116
  194MOL0     H26162   7.020  -0.149   8.349  2.1164 -0.3706 -0.1642
  194MOL0     H26163   6.951  -0.007   8.431  0.9143 -0.2440 -0.6539
  194MOL0     H26164   7.189   0.016   8.441 -1.0164 -1.2567  1.5374
  194MOL0     H26165   7.194  -0.007   8.264 -2.5229 -1.0306 -1.0093
  194MOL0     H26166   7.035   0.220   8.371 -1.2642 -3.0734 -0.9488
  194MOL0     H26167   7.119   0.221   8.216  5.3110  0.1365 -1.2626
  194MOL0     H26168   7.271   0.217   8.482  0.0104 -1.9473 -1.1252
  194MOL0     H26169   7.343   0.219   8.323 -0.3662 -1.7950 -0.1126
  194MOL0     H26170   6.367   0.142   8.068 -1.2211 -0.5681  2.9166
  194MOL0     H26171   6.119   0.110   8.054 -2.3722 -1.3995 -0.3999
  194MOL0     H26172   5.754  -0.123   8.075 -2.9525  0.0375  0.8607
  194MOL0     H26173   5.513  -0.167   8.038 -1.0904 -0.6417 -1.3450
  194MOL0     H26174   3.753   0.243   7.993  2.7988 -0.8287  0.7580
  194MOL0     H26175   3.489   0.218   8.015 -2.4800 -6.1615  2.5324
  194MOL0     H26176   3.140  -0.038   8.405  1.2270  2.5989  1.6059
  194MOL0     H26177   2.920  -0.046   8.443 -3.2224  1.2901  1.7817
  194MOL0     H26178   2.719   0.002   8.502  0.9902 -1.2083  0.4184
  194MOL0     H26179   2.700  -0.046   8.329 -0.0257  0.9759 -0.7388
  194MOL0     H26180   2.495   0.148   8.444 -0.8745 -0.7247  0.1845
  194MOL0     H26181   2.478  -0.021   8.504 -1.7567  0.6340  0.2969
  194MOL0     H26182   2.498  -0.064   8.235 -0.2550  0.6186 -1.5036
  194MOL0     H26183   2.453   0.107   8.229  0.4888 -2.4558 -5.0389
  194MOL0     H26184   2.259  -0.051   8.203  1.8488  0.3046 -2.0678
  194MOL0     H26185   2.277  -0.100   8.374  1.3765 -0.8612  0.4632
  194MOL0     H26186   2.052   0.262   8.385  0.9592  0.4729  1.0864
  194MOL0     H26187   2.846   0.306   8.209 -2.1772 -2.8147 -0.0648
  194MOL0     H26188   3.179   0.428   8.212  0.2058 -1.0068  0.0644
  194MOL0     H26189   3.158   0.324   8.061 -2.9011  2.7792 -2.6072
  194MOL0     H26190   3.040   0.443   8.121 -3.6224 -1.5829  0.8092
  195MOL0     O26191  10.841   0.318   4.551  0.4174 -0.1703 -0.7556
  195MOL0     C26192  10.847   0.205   4.523  0.4865  0.6248 -0.8209
  195MOL0     O26193  10.966   0.144   4.486 -0.5980  0.0117 -0.3043
  195MOL0     C26194  11.064   0.228   4.452  0.0241 -0.0370 -0.0306
  195MOL0     C26195  11.090   0.255   4.316 -0.3241 -1.2377 -0.2391
  195MOL0     C26196  11.207   0.334   4.290  0.0205  0.2138  0.0876
  195MOL0     C26197  11.286   0.379   4.386 -0.6904  0.3881 -0.3539
  195MOL0     O26198  11.407   0.434   4.345  0.1017 -0.1644  0.1535
  195MOL0     C26199  11.536   0.385   4.391 -0.7661 -0.4555  0.3047
  195MOL0     C26200  11.654   0.475   4.352  0.6108 -0.1146  0.6924
  195MOL0     C26201  11.776   0.425   4.425 -0.1830  0.1089  0.3109
  195MOL0     C26202  11.895   0.509   4.402 -0.2750  0.2674 -0.9461
  195MOL0     C26203  12.035   0.460   4.429 -0.0060  0.8659  0.2714
  195MOL0     C26204  12.045   0.406   4.572 -0.3526  0.4861  0.1528
  195MOL0     C26205  12.197   0.381   4.596  0.6260  0.9280 -0.0309
  195MOL0     C26206  12.212   0.347   4.747 -0.2409 -0.2233  0.2811
  195MOL0     N26207  12.336   0.276   4.772  0.3754  0.3215 -0.0727
  195MOL0     C26208  12.455   0.332   4.808  0.2912  0.3596  0.0080
  195MOL0     C26209  12.534   0.225   4.832  0.6149  1.0330  0.6201
  195MOL0     C26210  12.675   0.239   4.865 -1.2504  0.3601  0.2269
  195MOL0     C26211  12.711   0.214   5.018  0.1496  0.8134  0.8579
  195MOL0     C26212  12.847   0.266   5.061 -0.2725 -0.8954  0.0973
  195MOL0     C26213  12.964   0.178   5.011  0.0086 -0.7007  0.0548
  195MOL0     O26214  12.965   0.159   4.869 -0.0649 -0.0907  0.0183
  195MOL0     C26215  13.059   0.095   4.791 -0.4703  0.5765  0.1366
  195MOL0     C26216  13.028   0.080   4.659  0.0186 -0.7882 -0.9979
  195MOL0     C26217  13.131   0.037   4.574 -0.6012  0.3678  0.0691
  195MOL0     C26218  13.258   0.007   4.629 -0.1374  0.0682  0.0685
  195MOL0     C26219  13.363  -0.034   4.538 -0.4869  0.0126 -0.3339
  195MOL0     O26220  13.469  -0.105   4.602  0.1588  0.1907 -1.0446
  195MOL0     C26221  13.573  -0.179   4.541  0.4174  0.1812 -0.1999
  195MOL0     C26222  13.610  -0.150   4.412 -0.7779 -0.4250 -0.6557
  195MOL0     C26223  13.722  -0.216   4.352  0.1124  0.2919  0.0238
  195MOL0     C26224  13.781  -0.325   4.418 -0.2777  0.0965  0.3634
  195MOL0     O26225  13.896  -0.389   4.368  0.2266 -0.3091 -0.0379
  195MOL0     C26226  13.952  -0.351   4.245  0.4231 -0.0459 -0.4859
  195MOL0     C26227  14.088  -0.424   4.232 -0.2846 -0.0059  0.2084
  195MOL0     C26228  14.168  -0.390   4.113  0.4418  0.0288  0.6638
  195MOL0     C26229  14.312  -0.421   4.126 -0.1365  0.2305 -0.8824
  195MOL0     C26230  14.401  -0.360   4.028 -0.7615 -0.4765  0.0081
  195MOL0     C26231  14.545  -0.382   4.069 -0.3292  0.3692  0.4442
  195MOL0     C26232  14.645  -0.297   3.982 -0.0203 -0.0353 -0.0572
  195MOL0     C26233  14.777  -0.301   4.052  0.7880  0.2417  0.0693
  195MOL0    Cl26234  14.885  -0.192   3.961 -0.2026  0.3468 -0.6248
  195MOL0     C26235  13.718  -0.375   4.537  0.3967 -0.9480  0.6742
  195MOL0     C26236  13.621  -0.303   4.597 -0.4124 -0.1044 -0.4188
  195MOL0     O26237  13.359  -0.014   4.412 -0.2178 -0.3090 -0.2598
  195MOL0     C26238  13.284   0.021   4.764  0.3539 -0.1605 -0.9974
  195MOL0     C26239  13.185   0.066   4.847  0.4091  0.0395 -0.6946
  195MOL0     N26240  12.465   0.108   4.813  0.2623 -0.2917 -0.0670
  195MOL0     N26241  12.340   0.138   4.782  0.2394 -0.9669  0.0922
  195MOL0     C26242  11.262   0.350   4.520 -0.0716 -1.1666  0.5939
  195MOL0     C26243  11.155   0.271   4.549 -0.0912 -0.6659 -1.0674
  195MOL0     C26244  10.720   0.125   4.510  0.9789  1.2060 -0.3397
  195MOL0     C26245  10.748  -0.016   4.471  0.1902 -0.8113  0.0477
  195MOL0     C26246  10.639  -0.099   4.447  0.0136  0.6028 -0.5811
  195MOL0     C26247  10.508  -0.042   4.443  0.3098  0.0384  0.5575
  195MOL0     O26248  10.388  -0.096   4.394  0.2287  0.6389  0.0051
  195MOL0     C26249  10.398  -0.230   4.333  0.0095 -0.5459 -0.0616
  195MOL0     C26250  10.331  -0.333   4.417  0.1753  0.4932 -0.2575
  195MOL0     C26251  10.410  -0.364   4.546  0.7175 -0.0962 -0.3730
  195MOL0     C26252  10.364  -0.495   4.620 -0.0559  0.0792  0.2673
  195MOL0     C26253  10.225  -0.523   4.602  0.4323 -0.6658  0.4605
  195MOL0     C26254  10.114  -0.553   4.594 -0.1753 -0.7433  0.5248
  195MOL0     C26255  10.485   0.093   4.488  0.0446 -0.7793 -0.3776
  195MOL0     C26256  10.582   0.174   4.522 -0.2943 -0.8560  0.0238
  195MOL0     C26257  10.549   0.316   4.580  0.3598  0.4420 -0.1631
  195MOL0     H26258  11.024   0.203   4.247 -0.7902  0.2003 -0.9165
  195MOL0     H26259  11.235   0.365   4.190 -3.6132 -0.3354 -1.2549
  195MOL0     H26260  11.536   0.379   4.500 -1.1903 -0.6636  0.2945
  195MOL0     H26261  11.568   0.285   4.358  2.6623  1.2293 -2.1648
  195MOL0     H26262  11.642   0.582   4.368  0.8475  0.0966 -0.4316
  195MOL0     H26263  11.676   0.470   4.245  3.5436  2.5124  1.0152
  195MOL0     H26264  11.804   0.322   4.402  0.5996  0.1639  0.9520
  195MOL0     H26265  11.760   0.423   4.534 -1.8133 -0.1282  0.0971
  195MOL0     H26266  11.892   0.547   4.299 -4.3006 -1.0212 -1.4754
  195MOL0     H26267  11.883   0.593   4.471 -0.1380  0.4042 -1.0894
  195MOL0     H26268  12.053   0.376   4.360  0.7079  2.8894 -2.1810
  195MOL0     H26269  12.111   0.533   4.400  0.4848  0.0189 -0.6529
  195MOL0     H26270  12.002   0.475   4.645  1.5867  2.1396 -0.1975
  195MOL0     H26271  11.993   0.310   4.571  1.1081 -0.3459 -1.7882
  195MOL0     H26272  12.249   0.477   4.583 -0.7209  1.6504 -0.3014
  195MOL0     H26273  12.227   0.293   4.538 -0.4659 -1.0876  2.2962
  195MOL0     H26274  12.212   0.443   4.799  1.9136  0.6849 -1.2711
  195MOL0     H26275  12.120   0.296   4.780 -2.0580  1.6907 -1.4818
  195MOL0     H26276  12.479   0.437   4.797  2.0020 -0.2505 -3.8516
  195MOL0     H26277  12.740   0.177   4.802  0.5447 -0.3832  2.6444
  195MOL0     H26278  12.704   0.345   4.861 -2.0334  0.5786  0.3309
  195MOL0     H26279  12.631   0.260   5.076 -1.8368  1.2020 -1.9921
  195MOL0     H26280  12.694   0.107   5.033 -1.3959  0.9897  0.5119
  195MOL0     H26281  12.850   0.274   5.170  0.3251 -0.1345  0.0311
  195MOL0     H26282  12.859   0.368   5.024  0.7837 -1.4412 -1.1545
  195MOL0     H26283  12.972   0.084   5.067  1.2531 -0.8179 -0.2746
  195MOL0     H26284  13.050   0.245   5.025 -2.0227  1.8280  1.0670
  195MOL0     H26285  12.931   0.103   4.614 -0.8071  1.8414  1.7387
  195MOL0     H26286  13.123   0.018   4.468 -1.0633 -1.0169  0.3325
  195MOL0     H26287  13.569  -0.061   4.365  0.5064  1.0619  0.9057
  195MOL0     H26288  13.755  -0.173   4.258 -2.0374 -0.1170 -0.9743
  195MOL0     H26289  13.892  -0.367   4.155  0.7601  0.6174 -0.8332
  195MOL0     H26290  13.967  -0.243   4.253 -2.3295  0.3545  0.5208
  195MOL0     H26291  14.148  -0.400   4.320  2.4126 -3.4363 -0.4911
  195MOL0     H26292  14.060  -0.530   4.228 -2.2982  0.4192  1.4428
  195MOL0     H26293  14.119  -0.442   4.030 -2.6697  2.3216  0.8959
  195MOL0     H26294  14.164  -0.285   4.082 -0.0392 -0.4480 -1.0085
  195MOL0     H26295  14.319  -0.527   4.100 -0.4510  0.1113 -0.4979
  195MOL0     H26296  14.351  -0.405   4.227 -0.6902 -1.3115 -0.3962
  195MOL0     H26297  14.387  -0.251   4.021  0.7494 -0.3129 -0.8641
  195MOL0     H26298  14.391  -0.404   3.929  2.9256 -1.6524  0.0056
  195MOL0     H26299  14.565  -0.345   4.170  1.6900  3.2974 -0.8815
  195MOL0     H26300  14.568  -0.488   4.052  3.5669  0.9119  1.3657
  195MOL0     H26301  14.615  -0.193   3.994  0.7220  0.1085  0.6932
  195MOL0     H26302  14.656  -0.323   3.876  2.1829  3.0281 -0.7286
  195MOL0     H26303  14.767  -0.274   4.158 -1.2926 -0.7724  0.1872
  195MOL0     H26304  14.825  -0.399   4.051 -0.2048 -0.2518 -0.8589
  195MOL0     H26305  13.768  -0.455   4.590  1.3311 -0.0872  1.1284
  195MOL0     H26306  13.574  -0.333   4.690 -2.1679 -3.4360 -2.1883
  195MOL0     H26307  13.381  -0.002   4.809  1.2174 -1.0962 -3.2232
  195MOL0     H26308  13.193   0.084   4.954 -3.7520 -1.3671  0.0429
  195MOL0     H26309  11.315   0.408   4.594 -1.6108  0.1256  0.7408
  195MOL0     H26310  11.144   0.243   4.653 -2.5359  0.5379 -0.9370
  195MOL0     H26311  10.846  -0.061   4.457 -0.9453 -3.5757  0.4276
  195MOL0     H26312  10.658  -0.205   4.427  0.9452  1.0499 -2.2835
  195MOL0     H26313  10.500  -0.260   4.310 -0.0161 -0.4738 -0.2722
  195MOL0     H26314  10.355  -0.226   4.232  2.1950  2.3643 -1.0182
  195MOL0     H26315  10.319  -0.426   4.360 -1.7459  0.0516  0.7948
  195MOL0     H26316  10.231  -0.292   4.429  0.0179 -0.2526  1.1508
  195MOL0     H26317  10.400  -0.281   4.616 -0.5104 -1.0614  0.6553
  195MOL0     H26318  10.513  -0.370   4.510 -0.0614 -1.6027 -2.5911
  195MOL0     H26319  10.417  -0.583   4.582  1.5414  0.5830  1.2278
  195MOL0     H26320  10.388  -0.487   4.726  1.7037 -1.5786  0.0658
  195MOL0     H26321  10.008  -0.571   4.586  0.1590 -1.9815 -4.0412
  195MOL0     H26322  10.384   0.125   4.512 -0.6370 -2.6958 -0.5463
  195MOL0     H26323  10.442   0.314   4.603 -0.5969 -2.7624 -3.7552
  195MOL0     H26324  10.594   0.325   4.679 -2.6319 -1.4643  1.4935
  195MOL0     H26325  10.590   0.393   4.513  3.7241 -0.9359  0.1378
  196MOL0     O26326   3.278   7.079   8.992 -0.0184  0.0801  0.4807
  196MOL0     C26327   3.331   7.159   8.916 -0.9087 -0.4759 -0.5201
  196MOL0     O26328   3.468   7.196   8.921 -0.0293  0.2654 -0.2345
  196MOL0     C26329   3.565   7.114   8.981 -0.2775  0.6393 -0.6978
  196MOL0     C26330   3.557   6.975   9.003 -0.0642 -0.0479 -0.8384
  196MOL0     C26331   3.674   6.908   9.041  0.7920 -0.7100  0.7199
  196MOL0     C26332   3.798   6.963   9.052 -0.4732 -1.1051  0.0660
  196MOL0     O26333   3.895   6.872   9.083 -0.5159 -0.3104  0.2840
  196MOL0     C26334   4.017   6.929   9.145 -0.5177  0.6386  1.2831
  196MOL0     C26335   4.134   6.911   9.034 -0.3576  0.2662 -0.5417
  196MOL0     C26336   4.097   6.968   8.895  0.4550 -0.6723 -0.9450
  196MOL0     C26337   4.199   6.936   8.797 -0.1058 -0.8566  0.0444
  196MOL0     C26338   4.146   6.994   8.660 -0.0759  0.1483  0.7661
  196MOL0     C26339   4.239   6.961   8.545  0.2691  0.2099  0.0437
  196MOL0     C26340   4.376   7.014   8.567  0.4609 -0.6132  0.4662
  196MOL0     C26341   4.451   7.021   8.426  0.0500 -0.6364  0.3671
  196MOL0     N26342   4.595   7.037   8.439  0.4930  0.0263 -0.9961
  196MOL0     C26343   4.658   7.140   8.512 -0.3372  0.6307 -0.6604
  196MOL0     C26344   4.790   7.111   8.486 -0.8263 -0.2510  0.7097
  196MOL0     C26345   4.906   7.182   8.550 -0.3449  0.7567 -0.1018
  196MOL0     C26346   4.985   7.271   8.454 -0.1300 -0.3326  0.0848
  196MOL0     C26347   5.087   7.193   8.375  0.3344  0.8376 -0.2401
  196MOL0     C26348   5.170   7.294   8.301 -0.1461 -0.7151  0.1508
  196MOL0     O26349   5.286   7.227   8.250  0.6703 -0.9009 -0.2093
  196MOL0     C26350   5.369   7.296   8.166  0.0176 -0.0427  0.3669
  196MOL0     C26351   5.479   7.363   8.215 -0.8094  0.4177 -1.0768
  196MOL0     C26352   5.568   7.421   8.123 -0.5084  1.4508 -0.1685
  196MOL0     C26353   5.564   7.391   7.983  0.2786 -0.1517 -0.3815
  196MOL0     C26354   5.673   7.428   7.883  0.2354 -0.1562 -0.4407
  196MOL0     O26355   5.764   7.513   7.928  0.6566 -0.4630 -0.2815
  196MOL0     C26356   5.864   7.550   7.842  0.3649  0.0009  0.3399
  196MOL0     C26357   5.900   7.684   7.830 -0.8512  0.1292 -0.0887
  196MOL0     C26358   6.006   7.719   7.744  0.5927 -0.2200  0.5454
  196MOL0     C26359   6.080   7.624   7.675 -0.4371  0.0949 -0.5121
  196MOL0     O26360   6.178   7.650   7.581  0.6112 -0.1468 -0.5320
  196MOL0     C26361   6.191   7.773   7.508 -0.7422 -0.5456 -0.3713
  196MOL0     C26362   6.293   7.865   7.583 -0.1561  0.3309 -0.8233
  196MOL0     C26363   6.424   7.793   7.610 -0.5836  0.1334 -0.0053
  196MOL0     C26364   6.539   7.892   7.645  0.2454 -0.1004 -0.0749
  196MOL0     C26365   6.657   7.800   7.669  0.4108  0.4683  0.3434
  196MOL0     C26366   6.783   7.878   7.673 -0.7009  0.7529 -0.3325
  196MOL0     C26367   6.848   7.916   7.537  0.4038  0.4205 -0.3458
  196MOL0     C26368   6.992   7.873   7.525 -0.4276  0.3111  0.2736
  196MOL0    Cl26369   7.000   7.700   7.512 -0.4148 -0.2249 -0.4153
  196MOL0     C26370   6.057   7.488   7.706 -0.0674  1.1865  0.1131
  196MOL0     C26371   5.948   7.451   7.790  0.6512  0.4986 -0.1175
  196MOL0     O26372   5.668   7.381   7.768 -0.2590  0.0228  0.3136
  196MOL0     C26373   5.444   7.332   7.937 -0.0274 -0.1486 -0.2491
  196MOL0     C26374   5.347   7.283   8.027 -0.3587 -0.0129  0.8679
  196MOL0     N26375   4.800   6.994   8.409 -0.4357 -0.7894 -0.7906
  196MOL0     N26376   4.682   6.947   8.392 -0.5792  0.1312  0.5524
  196MOL0     C26377   3.806   7.104   9.041  1.0649  0.0181  0.8017
  196MOL0     C26378   3.688   7.171   9.005  0.2450 -0.5218 -0.9796
  196MOL0     C26379   3.252   7.231   8.815 -0.8917  0.7845 -0.0567
  196MOL0     C26380   3.301   7.349   8.766  0.4010  0.3154 -0.0241
  196MOL0     C26381   3.225   7.429   8.681  0.5277  0.0807  0.1722
  196MOL0     C26382   3.096   7.391   8.645 -0.5326 -0.5678  0.1841
  196MOL0     O26383   3.018   7.460   8.554  0.0952  0.3679 -0.0311
  196MOL0     C26384   3.051   7.599   8.530 -0.0139 -1.0640 -0.5973
  196MOL0     C26385   2.923   7.675   8.483  0.2025 -0.0072  0.4244
  196MOL0     C26386   2.798   7.660   8.574  0.2286 -0.6584 -0.3280
  196MOL0     C26387   2.668   7.690   8.500  0.1032  0.0477 -0.3317
  196MOL0     C26388   2.661   7.830   8.466  0.3886 -0.0780  0.5839
  196MOL0     C26389   2.667   7.945   8.433 -0.4215 -0.1953  0.0132
  196MOL0     C26390   3.051   7.265   8.688 -0.5403  0.4336  0.0963
  196MOL0     C26391   3.120   7.185   8.771 -0.4579  1.0079 -0.7522
  196MOL0     C26392   3.044   7.060   8.821 -0.9922 -0.1161  0.1313
  196MOL0     H26393   3.465   6.918   8.995  0.0361 -0.3997  0.2968
  196MOL0     H26394   3.658   6.802   9.060 -1.0104 -1.5223 -3.9023
  196MOL0     H26395   4.001   7.033   9.174 -3.8543  0.2404  1.3212
  196MOL0     H26396   4.052   6.873   9.232  2.8307  1.9980  0.9520
  196MOL0     H26397   4.159   6.805   9.019  0.5985  0.5972 -1.4550
  196MOL0     H26398   4.225   6.961   9.067  0.2697 -1.7118  0.9151
  196MOL0     H26399   4.085   7.076   8.911  1.6754 -0.8181  1.6146
  196MOL0     H26400   4.002   6.929   8.859 -2.3838  3.4959  1.2373
  196MOL0     H26401   4.283   6.989   8.841  0.3476 -0.9925 -0.6458
  196MOL0     H26402   4.225   6.831   8.782  0.7491 -0.7888  0.9545
  196MOL0     H26403   4.046   6.952   8.642 -0.8700  2.3072 -0.2540
  196MOL0     H26404   4.126   7.101   8.661 -0.8751  0.0732 -1.1492
  196MOL0     H26405   4.236   6.854   8.519 -2.3769  0.9819 -3.6213
  196MOL0     H26406   4.202   7.008   8.454 -0.9406 -1.5403 -0.4306
  196MOL0     H26407   4.423   6.949   8.641  0.2793 -0.0677  1.0708
  196MOL0     H26408   4.370   7.114   8.612  1.6842 -0.4003  0.1880
  196MOL0     H26409   4.443   6.932   8.363 -1.4163 -0.3650  0.1197
  196MOL0     H26410   4.416   7.107   8.368  2.3809 -0.6197 -1.1500
  196MOL0     H26411   4.611   7.222   8.566 -2.3217 -1.5282  1.0912
  196MOL0     H26412   4.874   7.246   8.633 -0.2299 -0.0014  0.5391
  196MOL0     H26413   4.970   7.103   8.591 -2.4468 -1.2198 -0.4016
  196MOL0     H26414   4.918   7.335   8.396  0.8363  1.9011  1.2820
  196MOL0     H26415   5.048   7.340   8.512 -0.9870  0.9065 -0.4298
  196MOL0     H26416   5.035   7.122   8.311  3.5967  0.1302 -2.3275
  196MOL0     H26417   5.158   7.144   8.442 -0.7447  0.9656  1.0496
  196MOL0     H26418   5.194   7.375   8.371  4.4711 -1.1462 -0.5846
  196MOL0     H26419   5.106   7.336   8.223  1.1736  3.8544  1.1892
  196MOL0     H26420   5.498   7.393   8.317  0.4644  0.1628 -1.2246
  196MOL0     H26421   5.653   7.477   8.161  1.0664 -0.4566 -0.7305
  196MOL0     H26422   5.831   7.754   7.876 -2.0532 -0.6014 -0.7287
  196MOL0     H26423   6.023   7.821   7.713  1.1083 -0.6059 -0.5073
  196MOL0     H26424   6.218   7.743   7.407  0.1615 -5.3661  1.0328
  196MOL0     H26425   6.087   7.808   7.502 -2.5666 -4.8468  1.2177
  196MOL0     H26426   6.308   7.956   7.523  1.0661  1.5139  1.1354
  196MOL0     H26427   6.256   7.885   7.684  0.4276 -2.4579  0.0194
  196MOL0     H26428   6.412   7.752   7.711  1.7028  3.0842  1.6322
  196MOL0     H26429   6.452   7.714   7.540 -0.4581 -0.6606  0.9142
  196MOL0     H26430   6.526   7.948   7.738  1.0695  1.5523 -0.9187
  196MOL0     H26431   6.555   7.964   7.565  0.0583  1.1254  0.9612
  196MOL0     H26432   6.663   7.715   7.599 -3.1782  1.6214 -1.6401
  196MOL0     H26433   6.646   7.754   7.767 -3.7751  2.4821  1.0477
  196MOL0     H26434   6.774   7.972   7.729 -1.3280  0.8762 -0.6306
  196MOL0     H26435   6.847   7.807   7.726  1.0477  0.4408 -2.7079
  196MOL0     H26436   6.815   8.019   7.519 -3.2588 -0.1268  2.1931
  196MOL0     H26437   6.789   7.859   7.464  0.6919  0.4213 -0.5826
  196MOL0     H26438   7.046   7.921   7.442  2.1373  0.4770  1.9096
  196MOL0     H26439   7.044   7.908   7.615 -0.1026 -2.6339  1.3333
  196MOL0     H26440   6.105   7.410   7.648 -2.5521  0.6828 -1.4399
  196MOL0     H26441   5.923   7.346   7.802 -0.2254  0.7232  0.1019
  196MOL0     H26442   5.437   7.330   7.828  0.0661  0.6545 -0.2783
  196MOL0     H26443   5.269   7.228   7.975 -0.5956 -0.6775  1.8980
  196MOL0     H26444   3.902   7.152   9.060  1.4388 -0.2336 -0.3651
  196MOL0     H26445   3.697   7.276   8.978  0.9961 -0.6496 -1.2338
  196MOL0     H26446   3.401   7.384   8.791  0.6156  1.8448 -2.7062
  196MOL0     H26447   3.270   7.523   8.650  2.5722 -0.4747  1.2568
  196MOL0     H26448   3.115   7.594   8.441 -1.1677  1.1364 -1.6241
  196MOL0     H26449   3.092   7.642   8.621 -0.8574  0.0174 -0.7039
  196MOL0     H26450   2.897   7.631   8.386  1.4783  1.0746 -0.4579
  196MOL0     H26451   2.936   7.780   8.453  1.4759 -0.6677 -1.5236
  196MOL0     H26452   2.813   7.732   8.656  2.7457  0.7691 -1.9102
  196MOL0     H26453   2.786   7.563   8.624 -0.9232 -0.0002  0.7536
  196MOL0     H26454   2.674   7.630   8.409  1.7840 -2.2474  1.1796
  196MOL0     H26455   2.578   7.663   8.556  1.1759  0.7369  1.8718
  196MOL0     H26456   2.692   8.046   8.407  1.3727 -0.5333  0.3004
  196MOL0     H26457   2.954   7.234   8.652  0.8312 -1.7011 -2.0059
  196MOL0     H26458   2.938   7.070   8.800 -0.7281  0.2079 -1.1429
  196MOL0     H26459   3.089   6.975   8.767 -0.2006  1.2320 -1.4239
  196MOL0     H26460   3.058   7.058   8.929  3.6193  1.3580 -0.1864
  197MOL0     O26461   6.887  10.958   4.361 -0.3601  0.4602 -0.4755
  197MOL0     C26462   6.829  11.031   4.442  0.8983 -0.3124 -0.6003
  197MOL0     O26463   6.741  10.986   4.538 -0.1350  0.4234 -0.2516
  197MOL0     C26464   6.704  10.857   4.523 -0.6608  0.9256  0.4848
  197MOL0     C26465   6.771  10.759   4.604 -0.7065 -0.3622  0.3581
  197MOL0     C26466   6.742  10.625   4.577 -0.5087  0.7162 -0.4382
  197MOL0     C26467   6.654  10.582   4.471 -0.9461 -0.1453  0.5984
  197MOL0     O26468   6.629  10.449   4.442 -0.3238  0.4576  0.4515
  197MOL0     C26469   6.611  10.421   4.299  0.1275  0.1162  0.6281
  197MOL0     C26470   6.627  10.277   4.266  0.1573  0.6731  0.3763
  197MOL0     C26471   6.764  10.218   4.290  0.2862  1.2593 -0.0035
  197MOL0     C26472   6.840  10.233   4.165 -0.0231 -0.1698  0.4785
  197MOL0     C26473   6.988  10.212   4.205 -0.0995  0.5870 -0.4794
  197MOL0     C26474   7.065  10.344   4.229 -0.0953  0.4043 -0.1044
  197MOL0     C26475   7.217  10.321   4.234 -0.0762  0.1223  0.2330
  197MOL0     C26476   7.271  10.318   4.096 -0.9766 -0.3781  0.5331
  197MOL0     N26477   7.419  10.357   4.107  0.5913  0.4274 -0.1563
  197MOL0     C26478   7.461  10.484   4.114 -0.7603 -0.4805 -0.1886
  197MOL0     C26479   7.596  10.468   4.115  0.7800  0.2365 -0.2778
  197MOL0     C26480   7.690  10.575   4.118 -0.4612  0.1989  0.3541
  197MOL0     C26481   7.754  10.576   4.260 -0.2023 -0.0899 -0.4137
  197MOL0     C26482   7.875  10.490   4.275  0.2339 -0.5443 -0.7097
  197MOL0     C26483   7.966  10.528   4.399  0.6787  0.1781  0.9113
  197MOL0     O26484   8.039  10.654   4.389 -0.1126  0.4420 -0.1377
  197MOL0     C26485   8.149  10.670   4.470 -0.5312 -0.0667 -0.6463
  197MOL0     C26486   8.166  10.618   4.597  0.2936  0.3576  0.3417
  197MOL0     C26487   8.289  10.625   4.665  1.1507 -0.1077 -0.3120
  197MOL0     C26488   8.394  10.690   4.604  0.3290 -0.0661  0.0791
  197MOL0     C26489   8.520  10.712   4.674 -0.0555 -0.6847 -0.0207
  197MOL0     O26490   8.587  10.821   4.633  0.7166 -0.2733  0.5555
  197MOL0     C26491   8.718  10.837   4.660  0.2444 -0.2579 -0.4290
  197MOL0     C26492   8.820  10.760   4.600 -0.3781  0.4358 -0.5050
  197MOL0     C26493   8.951  10.776   4.635 -0.2924 -0.3509 -0.1498
  197MOL0     C26494   8.995  10.866   4.735  0.3504 -0.5283 -0.0744
  197MOL0     O26495   9.131  10.872   4.764 -0.8789 -0.0231  0.2553
  197MOL0     C26496   9.178  10.920   4.887 -0.0956 -0.3313 -0.8079
  197MOL0     C26497   9.322  10.899   4.905 -0.3957 -0.1523  0.5046
  197MOL0     C26498   9.400  11.000   4.808  0.0300  0.1631  0.0567
  197MOL0     C26499   9.530  10.939   4.781  0.5544  0.4911  0.7751
  197MOL0     C26500   9.627  11.033   4.714 -0.5351  0.4458  0.6915
  197MOL0     C26501   9.734  10.944   4.665  0.0328 -0.6632  0.5304
  197MOL0     C26502   9.852  11.031   4.612 -0.7164 -0.3703 -0.1648
  197MOL0     C26503   9.967  11.061   4.710 -0.0978  0.3530 -0.4654
  197MOL0    Cl26504  10.087  11.140   4.615 -0.2685 -0.2146 -0.0646
  197MOL0     C26505   8.888  10.938   4.803  0.1539 -0.4435 -0.3417
  197MOL0     C26506   8.753  10.925   4.763 -1.0990 -1.0904  0.7114
  197MOL0     O26507   8.570  10.631   4.752  0.0766  0.3730  0.5450
  197MOL0     C26508   8.386  10.726   4.465  0.5886 -0.3429 -0.5153
  197MOL0     C26509   8.264  10.718   4.404  0.5338 -0.1849 -1.0073
  197MOL0     N26510   7.630  10.328   4.110 -0.5840 -0.1902 -0.0913
  197MOL0     N26511   7.521  10.268   4.092  0.5523  0.8939 -0.2662
  197MOL0     C26512   6.598  10.686   4.394  0.4452  1.2104  0.3001
  197MOL0     C26513   6.621  10.816   4.423 -0.3706  0.2742  1.1248
  197MOL0     C26514   6.865  11.171   4.448  0.0507 -0.0705 -0.2805
  197MOL0     C26515   6.786  11.257   4.530  0.1440 -1.0215  0.1955
  197MOL0     C26516   6.793  11.390   4.527  0.2394 -0.0234  0.3443
  197MOL0     C26517   6.888  11.449   4.443 -0.2082 -0.5215  0.0032
  197MOL0     O26518   6.904  11.583   4.453 -0.1272 -0.2016  0.1989
  197MOL0     C26519   6.879  11.657   4.331 -0.6414 -0.5961 -0.6993
  197MOL0     C26520   6.890  11.797   4.370  0.4096 -0.4502 -0.7447
  197MOL0     C26521   6.776  11.838   4.455  0.0358  0.0588  0.6310
  197MOL0     C26522   6.694  11.957   4.394  0.4152  0.1843 -0.0573
  197MOL0     C26523   6.564  11.979   4.456 -0.0468  0.2090 -0.4810
  197MOL0     C26524   6.459  12.014   4.504  0.5713 -0.7387  0.1337
  197MOL0     C26525   6.968  11.373   4.367 -0.7441  0.2326  0.2873
  197MOL0     C26526   6.963  11.235   4.370  0.8560 -0.4070  0.1827
  197MOL0     C26527   7.059  11.168   4.269  0.4506  0.8974  1.0151
  197MOL0     H26528   6.847  10.787   4.675  0.6568  1.6629 -1.7421
  197MOL0     H26529   6.780  10.557   4.652  1.5513  0.8123 -1.3366
  197MOL0     H26530   6.508  10.442   4.268  0.1133  2.2084  1.8770
  197MOL0     H26531   6.690  10.469   4.240 -0.9438  0.5257 -0.5196
  197MOL0     H26532   6.598  10.266   4.161  1.4332 -1.6268  0.2153
  197MOL0     H26533   6.556  10.224   4.329  2.0318 -0.0607  1.9785
  197MOL0     H26534   6.747  10.114   4.321 -0.4635  0.9308 -1.4708
  197MOL0     H26535   6.811  10.265   4.378  0.4174  0.7770  0.1885
  197MOL0     H26536   6.799  10.174   4.083 -3.0888  1.0630  0.9888
  197MOL0     H26537   6.836  10.337   4.131  2.7467  0.0796  0.6641
  197MOL0     H26538   7.001  10.142   4.287 -1.4009  1.5518  0.5962
  197MOL0     H26539   7.021  10.155   4.117 -1.7512 -0.4415 -0.4673
  197MOL0     H26540   7.035  10.408   4.146  0.3629  0.6005 -0.1199
  197MOL0     H26541   7.020  10.386   4.319 -0.0649 -1.8417  1.0449
  197MOL0     H26542   7.238  10.227   4.284 -2.6981  0.1323  1.5329
  197MOL0     H26543   7.266  10.401   4.291  1.3179  0.6781 -1.6688
  197MOL0     H26544   7.262  10.222   4.044 -0.2584 -0.5770  0.7708
  197MOL0     H26545   7.206  10.390   4.046 -0.9350 -2.1681 -2.3299
  197MOL0     H26546   7.410  10.579   4.125  2.5091  1.1686  2.3477
  197MOL0     H26547   7.752  10.566   4.028 -2.4465  0.0572 -1.0560
  197MOL0     H26548   7.631  10.664   4.099 -3.0442 -1.3655  0.5484
  197MOL0     H26549   7.776  10.681   4.284 -3.3377  0.2756  1.5470
  197MOL0     H26550   7.681  10.552   4.339  0.8960 -0.5836  0.4828
  197MOL0     H26551   7.940  10.492   4.186  4.1245  0.0355  1.8830
  197MOL0     H26552   7.846  10.385   4.272  1.2785 -0.8341 -1.4283
  197MOL0     H26553   8.037  10.447   4.413  4.8339  3.2679 -0.3682
  197MOL0     H26554   7.894  10.547   4.480 -4.4619 -2.4681 -2.4571
  197MOL0     H26555   8.082  10.588   4.660  0.3523 -1.6510 -0.4479
  197MOL0     H26556   8.296  10.577   4.762 -0.2403 -0.2407 -0.2647
  197MOL0     H26557   8.805  10.682   4.527 -0.4538 -0.6275  0.6187
  197MOL0     H26558   9.031  10.717   4.592  1.7172  3.2969 -1.9074
  197MOL0     H26559   9.144  11.023   4.899 -1.2010 -0.9673  2.3919
  197MOL0     H26560   9.129  10.870   4.972  1.2107  2.1109  1.5304
  197MOL0     H26561   9.349  10.913   5.010  1.9803 -4.3553  0.6806
  197MOL0     H26562   9.345  10.794   4.886 -0.5840  0.0667 -1.0519
  197MOL0     H26563   9.348  11.023   4.715 -0.0257  3.9745  0.8703
  197MOL0     H26564   9.420  11.091   4.867 -0.7233 -0.4998  1.3680
  197MOL0     H26565   9.489  10.865   4.711 -2.2176  0.6067  2.1219
  197MOL0     H26566   9.574  10.899   4.872 -1.5651  0.0614  1.6797
  197MOL0     H26567   9.675  11.106   4.781  2.7354 -1.5444  0.7377
  197MOL0     H26568   9.582  11.073   4.623  0.2765 -1.7044 -0.7407
  197MOL0     H26569   9.770  10.869   4.736  1.8883 -1.1849 -0.8812
  197MOL0     H26570   9.691  10.889   4.580 -2.5737  1.4085  0.3801
  197MOL0     H26571   9.813  11.130   4.587 -0.6715 -0.1086  0.7523
  197MOL0     H26572   9.897  10.989   4.522  0.4027  0.1389  0.1361
  197MOL0     H26573   9.929  11.124   4.791 -3.3185 -1.5934 -0.2638
  197MOL0     H26574   9.994  10.969   4.762 -0.5624  1.3758  1.6814
  197MOL0     H26575   8.908  11.001   4.889 -2.0701  1.0041 -0.7821
  197MOL0     H26576   8.666  10.975   4.805 -0.0301 -1.3120  3.4063
  197MOL0     H26577   8.475  10.766   4.416 -0.9499  0.9180 -2.4036
  197MOL0     H26578   8.254  10.742   4.299 -0.2650  2.0170 -0.4770
  197MOL0     H26579   6.534  10.657   4.311  1.3144 -1.7408  0.5415
  197MOL0     H26580   6.577  10.892   4.360 -0.5582 -3.0574 -3.2553
  197MOL0     H26581   6.699  11.227   4.588  0.0823  0.8122  1.1018
  197MOL0     H26582   6.729  11.450   4.591 -0.7002  1.2808 -1.7147
  197MOL0     H26583   6.787  11.632   4.278  0.4883 -2.2432 -1.9702
  197MOL0     H26584   6.962  11.642   4.261 -0.2152  0.2330 -0.3879
  197MOL0     H26585   6.889  11.848   4.273  1.2792  1.2443  0.1052
  197MOL0     H26586   6.990  11.814   4.409  0.8021 -0.4797 -1.7090
  197MOL0     H26587   6.824  11.859   4.551  1.5812 -1.0239  0.1312
  197MOL0     H26588   6.712  11.751   4.467 -0.1830 -0.0823 -1.2577
  197MOL0     H26589   6.746  12.051   4.415 -1.0094  0.6333  1.6876
  197MOL0     H26590   6.677  11.935   4.288 -1.0866  1.2074 -0.0549
  197MOL0     H26591   6.365  12.049   4.543 -0.3769 -1.8819 -1.0134
  197MOL0     H26592   7.053  11.407   4.309  1.0190 -3.6395  0.3521
  197MOL0     H26593   7.139  11.234   4.235  0.9153  0.8498  1.9771
  197MOL0     H26594   7.113  11.080   4.304  0.2665  0.1964 -0.3741
  197MOL0     H26595   6.996  11.136   4.185  0.4736  1.0331  0.9472
  198MOL0     O26596  11.103   1.907   8.071  0.6070  0.2798 -0.6373
  198MOL0     C26597  11.133   1.974   8.167 -0.2094  0.2014 -0.0449
  198MOL0     O26598  11.245   1.954   8.235  0.1185  0.3425  0.0249
  198MOL0     C26599  11.348   1.877   8.193 -1.0804  0.5391  0.5979
  198MOL0     C26600  11.480   1.925   8.189 -0.2924 -0.0080 -0.2508
  198MOL0     C26601  11.591   1.838   8.149 -0.0182  0.0845 -0.7449
  198MOL0     C26602  11.557   1.703   8.136  0.6499  1.2351 -0.5670
  198MOL0     O26603  11.655   1.608   8.124 -0.0228  0.4300 -0.0549
  198MOL0     C26604  11.742   1.612   8.004 -0.1314  0.6402  0.2341
  198MOL0     C26605  11.866   1.515   8.022 -0.1959 -0.1251  0.4625
  198MOL0     C26606  11.966   1.527   7.904  0.0158  0.8878 -0.8757
  198MOL0     C26607  12.081   1.421   7.920  1.1068 -0.4563  0.5285
  198MOL0     C26608  12.204   1.463   7.839 -0.3858 -0.1420  0.0526
  198MOL0     C26609  12.298   1.572   7.908  0.1876  0.8734 -0.1648
  198MOL0     C26610  12.389   1.634   7.802  0.0818  0.2026 -0.2743
  198MOL0     C26611  12.466   1.538   7.708 -0.1575  0.6657 -0.2556
  198MOL0     N26612  12.564   1.610   7.631 -0.1747  0.4477 -0.0428
  198MOL0     C26613  12.530   1.684   7.522 -0.4502 -0.0356 -0.1282
  198MOL0     C26614  12.645   1.746   7.489  0.7033  0.2554 -0.2042
  198MOL0     C26615  12.659   1.832   7.366  0.9145  1.1549 -0.3048
  198MOL0     C26616  12.793   1.846   7.297 -0.1781  0.0638  0.7595
  198MOL0     C26617  12.851   1.704   7.257 -0.1124 -0.6292  0.0383
  198MOL0     C26618  12.997   1.695   7.288  0.3972  0.3895  0.6628
  198MOL0     O26619  13.070   1.798   7.205 -0.2996  0.3782  0.1397
  198MOL0     C26620  13.164   1.873   7.272 -1.1634 -0.0428  0.5569
  198MOL0     C26621  13.142   1.937   7.396  0.2306 -0.7052  0.3470
  198MOL0     C26622  13.246   2.011   7.450 -0.8495  0.2098  0.8299
  198MOL0     C26623  13.371   2.015   7.389  0.2042 -0.2766  0.7206
  198MOL0     C26624  13.493   2.056   7.471 -0.9588  0.2239  0.1066
  198MOL0     O26625  13.466   2.111   7.596  0.0766 -0.1094  0.3409
  198MOL0     C26626  13.555   2.089   7.696 -1.1034 -0.6568  0.2618
  198MOL0     C26627  13.510   2.023   7.805  0.6595 -0.1911 -0.0416
  198MOL0     C26628  13.603   2.006   7.911 -0.2222  0.5524  0.1121
  198MOL0     C26629  13.735   2.043   7.897  0.5041 -0.0638  0.6409
  198MOL0     O26630  13.815   2.005   8.005  0.1689  0.9430  0.1502
  198MOL0     C26631  13.916   1.921   7.966 -0.4982  0.5482  0.4375
  198MOL0     C26632  13.945   1.833   8.088 -1.0072 -0.8362 -0.5007
  198MOL0     C26633  14.031   1.913   8.196  1.2299  0.0406 -0.4702
  198MOL0     C26634  13.958   1.927   8.325  0.5101  0.5237  0.5942
  198MOL0     C26635  14.052   1.986   8.441 -0.0052  1.1147 -0.0023
  198MOL0     C26636  13.986   2.036   8.571  0.2340  0.7739  0.3937
  198MOL0     C26637  13.883   1.949   8.646 -0.6190  0.3459  0.2227
  198MOL0     C26638  13.855   2.020   8.779 -0.2975 -0.1510  0.4774
  198MOL0    Cl26639  13.719   1.961   8.867  0.5337 -0.3078 -0.1044
  198MOL0     C26640  13.779   2.122   7.795 -0.0131 -0.2525  0.0624
  198MOL0     C26641  13.694   2.131   7.686 -0.4345 -0.7021 -0.3865
  198MOL0     O26642  13.610   2.021   7.439 -0.5084  0.2756 -0.6177
  198MOL0     C26643  13.393   1.946   7.267 -0.3454  0.8041  0.3941
  198MOL0     C26644  13.289   1.872   7.212 -0.0608  0.7316  0.2007
  198MOL0     N26645  12.747   1.708   7.575  0.0102  0.6905  0.8412
  198MOL0     N26646  12.698   1.624   7.657  0.7137  0.0194 -0.4230
  198MOL0     C26647  11.425   1.653   8.153  0.7142 -0.1787 -0.4740
  198MOL0     C26648  11.325   1.743   8.176 -0.7282  0.1514 -0.7925
  198MOL0     C26649  11.047   2.070   8.234  0.0447 -0.4080 -0.1076
  198MOL0     C26650  11.057   2.103   8.371  0.0866 -0.2593  0.0924
  198MOL0     C26651  10.973   2.188   8.437  0.0545 -0.2185 -0.4066
  198MOL0     C26652  10.858   2.249   8.367  0.2124 -0.3199 -0.2109
  198MOL0     O26653  10.771   2.327   8.431 -0.3171  0.2834 -0.1314
  198MOL0     C26654  10.637   2.307   8.389 -0.5708  0.1445  0.3175
  198MOL0     C26655  10.554   2.386   8.482  0.4355  0.1013  0.7951
  198MOL0     C26656  10.409   2.403   8.439  0.1856 -0.0381  0.0226
  198MOL0     C26657  10.333   2.492   8.539  0.0256  0.1833 -0.6922
  198MOL0     C26658  10.188   2.498   8.519  0.0777  0.3427  0.3087
  198MOL0     C26659  10.069   2.486   8.506  0.5081 -0.2958  0.9764
  198MOL0     C26660  10.858   2.224   8.228 -0.3600  0.1827  0.3920
  198MOL0     C26661  10.943   2.135   8.156 -0.5770 -0.0275  0.4752
  198MOL0     C26662  10.930   2.119   8.002  0.2869 -0.0393  0.2470
  198MOL0     H26663  11.503   2.028   8.212 -0.2517 -0.0796  0.0265
  198MOL0     H26664  11.692   1.871   8.168  0.0248 -1.5288  2.3602
  198MOL0     H26665  11.683   1.591   7.915  1.0915  2.8060 -1.1644
  198MOL0     H26666  11.788   1.708   7.982  0.4825  0.1194 -0.8301
  198MOL0     H26667  11.830   1.412   8.034  1.5441 -1.1669 -2.4064
  198MOL0     H26668  11.912   1.542   8.117 -0.9395  1.1999  0.4729
  198MOL0     H26669  12.006   1.627   7.886 -1.1061  1.3301 -0.9713
  198MOL0     H26670  11.908   1.502   7.815  0.2023  1.4071 -1.1444
  198MOL0     H26671  12.108   1.406   8.025 -1.8491  0.3226  1.5014
  198MOL0     H26672  12.047   1.324   7.882  1.3562  0.1836 -1.4474
  198MOL0     H26673  12.263   1.371   7.829  1.7637  1.2566 -0.9695
  198MOL0     H26674  12.177   1.503   7.741  2.8029  1.4031 -0.3308
  198MOL0     H26675  12.251   1.651   7.967 -1.3178 -0.2024  0.1156
  198MOL0     H26676  12.353   1.521   7.988 -0.1638  3.3866  1.7875
  198MOL0     H26677  12.465   1.692   7.854  2.0477 -2.2251 -0.2829
  198MOL0     H26678  12.333   1.712   7.748 -2.0657 -0.3200  1.0527
  198MOL0     H26679  12.520   1.457   7.758 -0.1553 -0.1450 -1.5188
  198MOL0     H26680  12.401   1.482   7.639 -0.0126 -1.4288  1.2108
  198MOL0     H26681  12.434   1.715   7.483 -0.3052  2.6357  1.3982
  198MOL0     H26682  12.596   1.784   7.291 -2.4217  0.4746  2.6934
  198MOL0     H26683  12.618   1.930   7.390 -0.7642  0.6530 -0.9735
  198MOL0     H26684  12.788   1.904   7.204 -2.8744  0.4511  1.0599
  198MOL0     H26685  12.859   1.893   7.370  0.9454  1.7428 -1.2001
  198MOL0     H26686  12.831   1.696   7.150  0.2949  0.0104 -0.0875
  198MOL0     H26687  12.806   1.618   7.309  3.2927 -2.0995  0.8259
  198MOL0     H26688  13.025   1.592   7.265 -1.1891 -0.3757  1.9857
  198MOL0     H26689  13.005   1.704   7.397  2.0581 -2.6813  0.9155
  198MOL0     H26690  13.039   1.920   7.425 -1.1833 -0.6033 -3.9216
  198MOL0     H26691  13.229   2.067   7.541  0.6416 -1.0192  1.9278
  198MOL0     H26692  13.406   1.993   7.816  0.4345  0.1408 -1.1272
  198MOL0     H26693  13.564   1.954   7.999  0.2870 -0.6128 -0.3299
  198MOL0     H26694  13.880   1.848   7.892  2.6704 -0.7233  0.0186
  198MOL0     H26695  13.998   1.973   7.917  0.7969 -1.6345  0.1685
  198MOL0     H26696  13.851   1.799   8.133 -1.1803  0.1341 -0.0948
  198MOL0     H26697  13.997   1.742   8.055 -0.8016 -1.0344  0.3326
  198MOL0     H26698  14.125   1.857   8.197 -0.3524 -2.8060 -0.1946
  198MOL0     H26699  14.050   2.013   8.156  1.9249 -0.0797 -0.4522
  198MOL0     H26700  13.917   1.830   8.355 -0.3375  1.5844  3.1039
  198MOL0     H26701  13.876   1.998   8.311  0.8070  0.8620  0.5824
  198MOL0     H26702  14.111   2.072   8.409 -0.8448  2.0117  0.8044
  198MOL0     H26703  14.123   1.908   8.471  0.6777  2.2684  1.4837
  198MOL0     H26704  14.070   2.062   8.636 -0.1194 -1.7844  1.9835
  198MOL0     H26705  13.940   2.130   8.538 -0.2977  0.7725  1.1166
  198MOL0     H26706  13.922   1.848   8.658 -2.8833 -0.7118 -0.6548
  198MOL0     H26707  13.798   1.938   8.578 -1.0516 -1.5557  0.9989
  198MOL0     H26708  13.940   2.005   8.847 -1.7503 -0.5855  2.2810
  198MOL0     H26709  13.847   2.129   8.771 -3.3989 -0.4237 -3.6855
  198MOL0     H26710  13.882   2.157   7.799 -0.1327  0.0144  0.9740
  198MOL0     H26711  13.717   2.186   7.596  0.8530  0.6664  0.7053
  198MOL0     H26712  13.486   1.948   7.211  0.0059  0.5149  0.9467
  198MOL0     H26713  13.314   1.804   7.131 -0.4779 -2.9092  2.8766
  198MOL0     H26714  11.399   1.548   8.143  0.0566 -0.1088  0.3607
  198MOL0     H26715  11.224   1.705   8.180 -0.3948 -1.0083 -2.1762
  198MOL0     H26716  11.145   2.077   8.428  0.7084 -1.0140 -1.1575
  198MOL0     H26717  10.975   2.225   8.538 -1.3742  1.6535 -0.9947
  198MOL0     H26718  10.606   2.203   8.404  2.6891 -0.7017  2.2917
  198MOL0     H26719  10.618   2.334   8.285 -0.2361 -0.0722  0.1994
  198MOL0     H26720  10.597   2.486   8.496  0.0265  0.4735 -0.4644
  198MOL0     H26721  10.552   2.328   8.575  0.8355  0.8525  1.2805
  198MOL0     H26722  10.361   2.305   8.438  2.9065 -1.4938  0.5521
  198MOL0     H26723  10.407   2.460   8.346  2.8819 -0.5179 -0.4122
  198MOL0     H26724  10.363   2.457   8.639  0.1061  1.3992 -0.2793
  198MOL0     H26725  10.368   2.595   8.543 -0.6257  0.3735  0.3307
  198MOL0     H26726   9.962   2.478   8.506  0.3947  0.3114 -1.5681
  198MOL0     H26727  10.785   2.275   8.167  0.3580  1.0793  0.2695
  198MOL0     H26728  10.929   2.013   7.973  0.6859 -0.4946  1.7792
  198MOL0     H26729  10.836   2.164   7.969  0.0925 -1.3315 -1.0887
  198MOL0     H26730  11.016   2.172   7.962  0.5862  0.1289  1.0935
  199MOL0     O26731   7.399   8.482  11.026  0.0164  0.2300 -0.1439
  199MOL0     C26732   7.366   8.514  11.143  0.1640  1.0026  0.1524
  199MOL0     O26733   7.461   8.546  11.240 -0.1571  0.1820 -0.1502
  199MOL0     C26734   7.594   8.561  11.210  0.0232 -0.4875  0.0029
  199MOL0     C26735   7.646   8.690  11.196  0.5376 -0.5461  0.5156
  199MOL0     C26736   7.772   8.711  11.156 -0.2735  0.3390 -0.6078
  199MOL0     C26737   7.866   8.603  11.149  0.9134 -0.4364 -0.6776
  199MOL0     O26738   7.999   8.624  11.143 -0.3471  0.0166  0.0886
  199MOL0     C26739   8.050   8.762  11.125  0.6840  1.1890  0.1480
  199MOL0     C26740   8.204   8.767  11.128 -0.5618  0.4193  0.1233
  199MOL0     C26741   8.249   8.901  11.082  0.4582  0.0580  0.4594
  199MOL0     C26742   8.393   8.921  11.123 -0.2040  1.1038  0.3139
  199MOL0     C26743   8.469   9.040  11.073  0.7543 -0.6007  1.4103
  199MOL0     C26744   8.603   9.026  11.141  0.2629  0.0159  0.0580
  199MOL0     C26745   8.682   9.156  11.117 -0.0102 -0.2386  0.5512
  199MOL0     C26746   8.798   9.159  11.217  0.1875 -0.4953 -0.1071
  199MOL0     N26747   8.885   9.277  11.190 -0.3696 -0.1334  0.2720
  199MOL0     C26748   8.835   9.405  11.173 -0.2320 -0.2274 -0.5362
  199MOL0     C26749   8.935   9.473  11.128 -0.0139 -0.2300  0.7155
  199MOL0     C26750   8.925   9.610  11.081  0.7580 -0.2190  0.1122
  199MOL0     C26751   8.962   9.704  11.194  0.0159  0.9532 -0.8231
  199MOL0     C26752   9.106   9.693  11.230 -0.3662 -1.9438 -0.4020
  199MOL0     C26753   9.166   9.799  11.325  0.2083 -0.3153  0.7814
  199MOL0     O26754   9.290   9.743  11.375 -0.4240 -0.2603  0.3623
  199MOL0     C26755   9.386   9.813  11.441  0.2196  0.1148 -0.5226
  199MOL0     C26756   9.514   9.748  11.469  0.5238  0.1414  0.2357
  199MOL0     C26757   9.629   9.821  11.504 -0.6251 -0.1903 -0.4565
  199MOL0     C26758   9.620   9.961  11.514  0.3919  0.7372 -1.1480
  199MOL0     C26759   9.739  10.034  11.556  0.1626  0.4448 -0.0666
  199MOL0     O26760   9.842   9.959  11.611  0.1066 -0.0821  0.4809
  199MOL0     C26761   9.950  10.021  11.673 -0.3213  0.0502 -0.5431
  199MOL0     C26762   9.965  10.006  11.814  0.3925  0.0650  0.1303
  199MOL0     C26763  10.065  10.081  11.880 -0.7461 -0.8051 -0.2834
  199MOL0     C26764  10.146  10.167  11.810 -0.1419  0.0876  0.5224
  199MOL0     O26765  10.255  10.224  11.886  0.3139 -0.6827  0.2926
  199MOL0     C26766  10.353  10.300  11.820 -0.6237  0.3004  0.2290
  199MOL0     C26767  10.447  10.367  11.923  0.1916 -0.6125  0.2875
  199MOL0     C26768  10.579  10.408  11.865  0.1375  0.0425  0.2396
  199MOL0     C26769  10.691  10.426  11.976  0.1742  0.4390  0.3670
  199MOL0     C26770  10.830  10.454  11.911 -0.8526 -0.0830  0.0976
  199MOL0     C26771  10.939  10.403  12.004 -0.8733 -0.7630  0.8719
  199MOL0     C26772  11.078  10.440  11.943  0.7537  0.6890 -0.0738
  199MOL0     C26773  11.180  10.407  12.059  0.5862 -0.3134  0.2209
  199MOL0    Cl26774  11.342  10.375  11.979 -0.3402 -0.1840 -0.1446
  199MOL0     C26775  10.136  10.169  11.668  0.6700 -0.0585 -0.6752
  199MOL0     C26776  10.037  10.105  11.598  0.1915  0.3697 -1.1622
  199MOL0     O26777   9.743  10.151  11.544  0.5248  0.0467 -0.4659
  199MOL0     C26778   9.491  10.026  11.496  0.1325 -0.6381 -0.5345
  199MOL0     C26779   9.376   9.951  11.460  0.3637  0.1523  0.0320
  199MOL0     N26780   9.045   9.386  11.108  0.3207 -0.2585 -0.2303
  199MOL0     N26781   9.014   9.271  11.159 -0.3453 -0.0644  0.0452
  199MOL0     C26782   7.817   8.474  11.155 -0.1347 -0.4074  1.3580
  199MOL0     C26783   7.681   8.458  11.186 -0.1779 -0.1475 -0.8344
  199MOL0     C26784   7.226   8.536  11.181 -0.7281 -0.4600  0.5581
  199MOL0     C26785   7.211   8.589  11.311 -0.1704 -0.0470  0.3251
  199MOL0     C26786   7.078   8.615  11.359  0.0914  0.8036 -0.4973
  199MOL0     C26787   6.964   8.613  11.280  0.9277  0.1509 -0.2142
  199MOL0     O26788   6.846   8.644  11.345 -0.6369  0.2267  0.1009
  199MOL0     C26789   6.725   8.624  11.281 -0.7280 -0.0772  0.1008
  199MOL0     C26790   6.607   8.669  11.366  0.1649 -0.2684 -0.0288
  199MOL0     C26791   6.615   8.820  11.393 -0.2335  0.1369  0.3983
  199MOL0     C26792   6.618   8.907  11.264 -0.7109  0.3260  0.0440
  199MOL0     C26793   6.500   8.891  11.180  0.6240 -0.3182 -0.0240
  199MOL0     C26794   6.409   8.865  11.099  0.8114  0.6981 -0.2092
  199MOL0     C26795   6.976   8.552  11.152 -0.1838 -0.6050  0.5874
  199MOL0     C26796   7.105   8.514  11.100 -0.3314 -0.2665 -0.5185
  199MOL0     C26797   7.122   8.466  10.961  0.2253  0.0956 -1.4390
  199MOL0     H26798   7.574   8.771  11.209  0.6112  0.2282 -2.9101
  199MOL0     H26799   7.794   8.816  11.137 -1.7947  0.8981  0.4599
  199MOL0     H26800   8.003   8.796  11.032 -2.7179  1.2448  1.7128
  199MOL0     H26801   8.016   8.826  11.207 -2.8972 -0.5780  0.2162
  199MOL0     H26802   8.248   8.697  11.056  0.2533  1.1877 -0.1492
  199MOL0     H26803   8.247   8.735  11.224  2.1158  0.3622 -0.9906
  199MOL0     H26804   8.186   8.974  11.134 -0.0413 -0.0041 -0.0612
  199MOL0     H26805   8.235   8.919  10.975  3.4935  0.7228  0.0677
  199MOL0     H26806   8.384   8.928  11.232 -1.5430  0.0009  0.3065
  199MOL0     H26807   8.441   8.826  11.097 -2.9913 -1.5897  3.8691
  199MOL0     H26808   8.497   9.030  10.967 -2.7008 -0.2861  0.3225
  199MOL0     H26809   8.416   9.134  11.089 -0.7944 -1.2110  0.2268
  199MOL0     H26810   8.585   9.008  11.247  1.1095 -1.6438 -0.0391
  199MOL0     H26811   8.661   8.936  11.115  0.1505  0.0804 -0.4164
  199MOL0     H26812   8.620   9.244  11.136 -0.7317  0.2124 -3.1396
  199MOL0     H26813   8.711   9.171  11.013  0.1338 -6.1541 -0.6269
  199MOL0     H26814   8.745   9.159  11.313 -3.1535 -0.6845 -1.8025
  199MOL0     H26815   8.859   9.069  11.214 -0.6425 -1.2268  2.4580
  199MOL0     H26816   8.732   9.436  11.187 -0.5082  0.3674 -3.3068
  199MOL0     H26817   8.991   9.615  10.993  0.5860 -3.1317 -0.2819
  199MOL0     H26818   8.820   9.616  11.053  0.8687 -0.2508 -0.3275
  199MOL0     H26819   8.951   9.808  11.165 -0.3595  1.8572  2.1926
  199MOL0     H26820   8.900   9.691  11.284  1.1207  1.1452 -0.0099
  199MOL0     H26821   9.162   9.688  11.136 -2.0964  0.3802 -1.6567
  199MOL0     H26822   9.132   9.596  11.273  1.0138 -0.9325  1.1841
  199MOL0     H26823   9.104   9.819  11.412 -1.0651 -1.1238  0.0826
  199MOL0     H26824   9.186   9.893  11.272 -1.3759  0.2032  1.0732
  199MOL0     H26825   9.540   9.645  11.446  1.2079  0.6168 -1.2160
  199MOL0     H26826   9.721   9.765  11.513  1.0998  2.7016  1.0868
  199MOL0     H26827   9.908   9.929  11.864  0.0379  0.1451 -0.1515
  199MOL0     H26828  10.080  10.086  11.988 -0.1364 -1.2906 -0.3417
  199MOL0     H26829  10.419  10.244  11.753  1.8324  0.2151  2.5302
  199MOL0     H26830  10.304  10.384  11.769 -1.1806 -0.6801 -0.8919
  199MOL0     H26831  10.392  10.456  11.955 -3.2443 -1.8060 -1.7085
  199MOL0     H26832  10.461  10.302  12.011 -0.4910  0.0772  0.9183
  199MOL0     H26833  10.606  10.342  11.782 -1.5365  0.9610 -1.1026
  199MOL0     H26834  10.564  10.504  11.815  1.3612  1.0289  1.6865
  199MOL0     H26835  10.696  10.329  12.026 -0.0684  0.7623  1.0294
  199MOL0     H26836  10.665  10.502  12.050 -1.2980  1.5849 -1.2375
  199MOL0     H26837  10.843  10.561  11.891  0.1587 -0.1420  0.3816
  199MOL0     H26838  10.837  10.403  11.815  0.4381 -1.6010  0.9597
  199MOL0     H26839  10.918  10.460  12.095 -1.0798  1.1803 -0.3374
  199MOL0     H26840  10.918  10.298  12.025 -1.9536 -0.6649  0.3499
  199MOL0     H26841  11.093  10.540  11.901  1.7161  0.0424 -1.3179
  199MOL0     H26842  11.085  10.368  11.862 -1.7796 -0.9953  1.0754
  199MOL0     H26843  11.190  10.494  12.126 -0.3204  0.4893 -0.6589
  199MOL0     H26844  11.152  10.319  12.117 -0.9063  2.1853  3.6300
  199MOL0     H26845  10.205  10.234  11.616  0.4489  1.4166  0.7704
  199MOL0     H26846  10.026  10.118  11.490  2.5605 -1.6145 -1.7246
  199MOL0     H26847   9.477  10.133  11.498 -1.9654 -0.8742  0.0976
  199MOL0     H26848   9.288  10.012  11.441  1.4437  2.2449  1.3724
  199MOL0     H26849   7.877   8.383  11.154  1.1293  0.3406 -1.8676
  199MOL0     H26850   7.640   8.362  11.212 -0.2060  0.4620  1.5577
  199MOL0     H26851   7.289   8.605  11.384 -1.8004  4.0757  1.4442
  199MOL0     H26852   7.069   8.639  11.464  1.5340 -0.6367  0.0056
  199MOL0     H26853   6.722   8.515  11.273 -0.7311 -0.0774  0.1048
  199MOL0     H26854   6.730   8.671  11.183 -1.1011 -0.3302 -0.0426
  199MOL0     H26855   6.591   8.610  11.457  0.3402  0.7179  0.6521
  199MOL0     H26856   6.518   8.658  11.304 -1.5158  0.9383  2.0275
  199MOL0     H26857   6.710   8.834  11.446  0.2984 -1.2040 -0.1567
  199MOL0     H26858   6.528   8.852  11.452 -0.8616 -1.2299  0.2550
  199MOL0     H26859   6.630   9.007  11.305  5.3100 -0.7790  2.0338
  199MOL0     H26860   6.705   8.885  11.200 -1.6936  0.8348 -1.5315
  199MOL0     H26861   6.352   8.838  11.013 -0.2562 -1.3549  1.0682
  199MOL0     H26862   6.887   8.554  11.090  0.1850  3.7685 -0.1465
  199MOL0     H26863   7.180   8.536  10.901 -1.7032  3.3331  0.2186
  199MOL0     H26864   7.161   8.364  10.960  0.1515 -0.0405  1.3934
  199MOL0     H26865   7.019   8.453  10.926  0.8090  0.4857 -3.4306
  200MOL0     O26866   7.120  10.675   0.318 -0.3487 -0.4290  0.4398
  200MOL0     C26867   7.114  10.625   0.424 -0.2218 -0.4015 -0.9039
  200MOL0     O26868   7.213  10.591   0.510  0.7433 -0.0963  0.7045
  200MOL0     C26869   7.336  10.644   0.473 -0.0846  0.3518  0.1594
  200MOL0     C26870   7.420  10.565   0.395 -0.7157 -0.2199  1.1237
  200MOL0     C26871   7.553  10.605   0.381 -0.0521 -0.1748 -0.4270
  200MOL0     C26872   7.609  10.715   0.445 -0.1354 -0.2222 -0.5780
  200MOL0     O26873   7.740  10.729   0.418 -0.6271 -0.2860 -0.0405
  200MOL0     C26874   7.815  10.836   0.471 -0.6691 -0.2911 -0.2716
  200MOL0     C26875   7.955  10.857   0.410  0.5564  0.3492 -0.3155
  200MOL0     C26876   8.037  10.730   0.423 -0.3282 -0.0048  0.6803
  200MOL0     C26877   8.169  10.764   0.360  0.0042  0.3433  1.1013
  200MOL0     C26878   8.271  10.655   0.351  0.0132 -0.2515 -0.5346
  200MOL0     C26879   8.396  10.697   0.265 -0.5876  0.5957 -0.3402
  200MOL0     C26880   8.509  10.593   0.258  0.0279 -0.6650  0.1677
  200MOL0     C26881   8.624  10.591   0.371  0.5280  0.4490  0.4995
  200MOL0     N26882   8.684  10.724   0.398 -0.3634  0.6197  0.6701
  200MOL0     C26883   8.747  10.797   0.299  0.5679  0.5623  0.6449
  200MOL0     C26884   8.791  10.912   0.359 -0.0816 -1.0472 -0.5561
  200MOL0     C26885   8.874  11.023   0.311 -1.2527  0.5521 -1.0172
  200MOL0     C26886   8.886  11.032   0.155 -0.1422 -0.4616 -0.3750
  200MOL0     C26887   8.973  11.163   0.128  0.3739 -0.2144 -0.2368
  200MOL0     C26888   9.116  11.162   0.173  1.0502 -0.2057  0.1995
  200MOL0     O26889   9.184  11.259   0.094 -0.6700  0.3068 -0.2845
  200MOL0     C26890   9.300  11.319   0.138  0.0733  0.4174 -1.2691
  200MOL0     C26891   9.359  11.399   0.049  0.9029 -0.5989 -0.2288
  200MOL0     C26892   9.472  11.469   0.065 -0.4920  0.0918 -0.2819
  200MOL0     C26893   9.536  11.456   0.195 -0.2776  0.3355  0.2587
  200MOL0     C26894   9.677  11.492   0.222 -0.3364 -0.1595  0.3072
  200MOL0     O26895   9.733  11.467   0.343 -0.5514  0.4713  1.0473
  200MOL0     C26896   9.850  11.537   0.363  0.0663  0.2031  0.0647
  200MOL0     C26897   9.853  11.629   0.470 -0.0926 -0.1860  0.6389
  200MOL0     C26898   9.968  11.703   0.493 -0.3880  0.6478 -0.8541
  200MOL0     C26899  10.082  11.694   0.405 -1.0684  0.5902  0.1767
  200MOL0     O26900  10.202  11.754   0.421  0.0224 -0.9479  0.4977
  200MOL0     C26901  10.229  11.856   0.514  0.2767  0.2313 -0.0721
  200MOL0     C26902  10.324  11.963   0.461  0.1629  0.0040 -0.1684
  200MOL0     C26903  10.463  11.904   0.434  0.3344 -0.7138 -0.1698
  200MOL0     C26904  10.566  12.016   0.423 -0.9998  0.1597  0.0338
  200MOL0     C26905  10.694  11.961   0.363 -0.8696 -0.0118  0.0894
  200MOL0     C26906  10.819  12.043   0.382 -0.0369 -0.0935  0.4167
  200MOL0     C26907  10.937  11.974   0.446 -0.7935  0.4145 -0.0927
  200MOL0     C26908  11.069  12.025   0.407  0.4557  0.2782 -0.7261
  200MOL0    Cl26909  11.112  11.978   0.248  0.0665  0.0747  0.1313
  200MOL0     C26910  10.079  11.594   0.310 -0.0203  0.1469 -0.2953
  200MOL0     C26911   9.971  11.515   0.287 -0.2586 -0.3035 -0.0676
  200MOL0     O26912   9.732  11.552   0.133 -0.5824 -0.1890  0.3436
  200MOL0     C26913   9.477  11.378   0.290 -0.2859  0.7820 -0.3505
  200MOL0     C26914   9.359  11.318   0.264  0.1216 -0.5910 -0.3000
  200MOL0     N26915   8.731  10.918   0.486 -0.4222 -0.9015  0.1662
  200MOL0     N26916   8.672  10.806   0.509  0.2371  0.0437 -0.2550
  200MOL0     C26917   7.526  10.798   0.520  0.1839  0.2549  0.1220
  200MOL0     C26918   7.390  10.763   0.535 -0.1642 -0.1098  0.8925
  200MOL0     C26919   6.979  10.590   0.482 -0.0489 -0.7640 -0.9102
  200MOL0     C26920   6.884  10.540   0.395 -0.0880  0.3231  0.0021
  200MOL0     C26921   6.760  10.498   0.443  0.4079 -0.3052 -0.9046
  200MOL0     C26922   6.725  10.522   0.579  0.9478  0.3640 -0.5640
  200MOL0     O26923   6.602  10.466   0.615 -0.5793 -0.3956  0.3701
  200MOL0     C26924   6.557  10.472   0.747 -0.3611  0.1536  0.8498
  200MOL0     C26925   6.485  10.602   0.773 -0.3171 -0.1083 -0.5677
  200MOL0     C26926   6.345  10.605   0.710  0.1307  0.0735  0.7558
  200MOL0     C26927   6.280  10.740   0.711  0.0238 -0.8735 -0.1880
  200MOL0     C26928   6.252  10.784   0.847 -0.3848 -0.2999 -0.4839
  200MOL0     C26929   6.252  10.827   0.962  0.1740  0.1815 -0.1225
  200MOL0     C26930   6.818  10.571   0.667  0.0903 -0.3694 -0.8372
  200MOL0     C26931   6.949  10.606   0.625  0.3536  0.5351  0.7634
  200MOL0     C26932   7.041  10.647   0.725 -0.3544 -0.1452 -0.0772
  200MOL0     H26933   7.385  10.488   0.328  1.6037  1.1919 -1.9437
  200MOL0     H26934   7.613  10.538   0.318 -0.1250 -0.3892 -0.2689
  200MOL0     H26935   7.765  10.934   0.470 -1.2148 -0.5501 -1.9028
  200MOL0     H26936   7.836  10.816   0.577 -1.9467 -0.1688  0.0217
  200MOL0     H26937   8.004  10.948   0.445  1.9880 -0.2383 -0.7138
  200MOL0     H26938   7.942  10.881   0.304 -2.2094  3.6837  0.5759
  200MOL0     H26939   7.991  10.639   0.381  1.5848 -0.9365  0.5019
  200MOL0     H26940   8.058  10.713   0.529  1.8665 -0.9313  0.1619
  200MOL0     H26941   8.146  10.806   0.262 -0.2155 -2.4475 -0.1338
  200MOL0     H26942   8.212  10.839   0.427 -2.1110 -0.4023  3.4542
  200MOL0     H26943   8.294  10.625   0.454  1.5541  3.2134  0.2719
  200MOL0     H26944   8.228  10.563   0.312  0.9718 -0.7294 -0.4962
  200MOL0     H26945   8.358  10.717   0.165 -0.8416  0.5685 -0.2490
  200MOL0     H26946   8.440  10.785   0.314 -1.6649  0.5807  0.6864
  200MOL0     H26947   8.570  10.606   0.168 -0.4145  1.0289  0.0768
  200MOL0     H26948   8.466  10.493   0.247 -0.5302 -0.6133  1.7056
  200MOL0     H26949   8.571  10.551   0.458 -3.5572  0.5080 -1.6771
  200MOL0     H26950   8.710  10.528   0.344  1.3999  1.3234  1.1941
  200MOL0     H26951   8.768  10.755   0.201 -2.8927 -0.1061  0.0768
  200MOL0     H26952   8.826  11.108   0.360 -0.4066 -0.5521  1.9664
  200MOL0     H26953   8.973  11.021   0.357 -2.6883 -0.6454  2.3476
  200MOL0     H26954   8.928  10.944   0.105 -3.1386 -1.6121 -1.0862
  200MOL0     H26955   8.785  11.042   0.114 -0.1234  0.8026 -0.1774
  200MOL0     H26956   8.933  11.252   0.177  2.2977  0.2989  0.5147
  200MOL0     H26957   8.979  11.177   0.020 -0.6574  4.2797  0.0919
  200MOL0     H26958   9.171  11.068   0.159  1.5725 -0.2750  2.3755
  200MOL0     H26959   9.114  11.190   0.279 -1.5174  0.7118 -0.0164
  200MOL0     H26960   9.302  11.400  -0.043  0.0387  1.8174  0.2581
  200MOL0     H26961   9.520  11.521  -0.017  1.1675  0.3217  0.7942
  200MOL0     H26962   9.769  11.662   0.531 -0.2815 -1.5549  1.1584
  200MOL0     H26963   9.970  11.779   0.570 -0.4960  0.4697 -0.6737
  200MOL0     H26964  10.143  11.908   0.557  0.7863 -0.8274  2.3596
  200MOL0     H26965  10.290  11.817   0.595 -0.7431 -1.2437  0.0218
  200MOL0     H26966  10.286  12.005   0.367  0.4210  2.7864  0.8714
  200MOL0     H26967  10.343  12.042   0.535 -0.4733 -0.8362  0.9300
  200MOL0     H26968  10.503  11.837   0.511  1.5323  0.1059 -0.0407
  200MOL0     H26969  10.456  11.848   0.341  2.7863 -0.3079 -0.6740
  200MOL0     H26970  10.586  12.044   0.527 -2.4697  0.1353  0.3489
  200MOL0     H26971  10.531  12.100   0.363  2.0954  0.5050 -1.4784
  200MOL0     H26972  10.678  11.936   0.258  1.4873 -1.2211 -0.0592
  200MOL0     H26973  10.723  11.863   0.404  2.3237  0.5955 -0.4249
  200MOL0     H26974  10.848  12.071   0.280  1.7623  2.6791  1.5881
  200MOL0     H26975  10.791  12.131   0.440 -2.1037 -0.8574  0.6692
  200MOL0     H26976  10.936  11.867   0.423 -3.3626  0.2505  0.5086
  200MOL0     H26977  10.927  11.986   0.554  1.4873 -1.8101  0.4589
  200MOL0     H26978  11.064  12.135   0.411 -0.0060  0.2297  1.1333
  200MOL0     H26979  11.137  11.988   0.484 -2.3148  0.9074  2.2504
  200MOL0     H26980  10.161  11.581   0.240 -1.4551 -0.1607 -1.9863
  200MOL0     H26981   9.969  11.441   0.207 -2.1319 -0.9588  0.5320
  200MOL0     H26982   9.514  11.368   0.391 -0.7234  2.6656  0.0481
  200MOL0     H26983   9.313  11.252   0.337 -0.5314 -0.8983 -0.9743
  200MOL0     H26984   7.554  10.884   0.580 -0.5482 -0.5680  1.7331
  200MOL0     H26985   7.319  10.819   0.596 -2.2796  1.0348 -2.3651
  200MOL0     H26986   6.917  10.526   0.293  2.7357  0.5418  0.7989
  200MOL0     H26987   6.685  10.453   0.379 -0.7087  0.6090 -0.2732
  200MOL0     H26988   6.635  10.452   0.820 -0.7008  0.2908  1.2541
  200MOL0     H26989   6.489  10.388   0.762 -0.1790 -0.2294 -0.3627
  200MOL0     H26990   6.551  10.681   0.738  2.7339 -1.9009  0.8048
  200MOL0     H26991   6.457  10.612   0.878  0.9925  1.2828 -0.3221
  200MOL0     H26992   6.283  10.523   0.747  0.6704 -0.1709  1.1274
  200MOL0     H26993   6.358  10.591   0.602  2.2958  0.0465  0.9712
  200MOL0     H26994   6.325  10.816   0.647  1.5997 -2.1280 -0.6375
  200MOL0     H26995   6.185  10.719   0.661 -0.1980 -2.9077  0.9784
  200MOL0     H26996   6.239  10.862   1.062  0.0740 -2.3572  0.8074
  200MOL0     H26997   6.797  10.581   0.773 -3.7194 -1.5602 -1.3146
  200MOL0     H26998   7.126  10.708   0.692 -0.8646  0.4407 -0.3378
  200MOL0     H26999   6.988  10.702   0.803 -0.8320 -1.2354  0.3891
  200MOL0     H27000   7.090  10.560   0.770 -1.2847 -2.0301 -2.5008
  201MOL0     O27001   6.383   1.805   3.165  0.1519  0.3638  0.2829
  201MOL0     C27002   6.368   1.864   3.064 -1.4004 -0.4421  0.4467
  201MOL0     O27003   6.254   1.890   2.999  0.5389  0.4332 -0.0289
  201MOL0     C27004   6.131   1.867   3.048 -0.1766  0.0061  1.1213
  201MOL0     C27005   6.097   1.858   3.183  0.6314  0.2308  0.4302
  201MOL0     C27006   5.966   1.820   3.221  0.3656  0.6781  0.5622
  201MOL0     C27007   5.863   1.809   3.127 -0.5947 -1.4306  0.1452
  201MOL0     O27008   5.738   1.789   3.169  0.1469 -0.4201  0.2446
  201MOL0     C27009   5.632   1.785   3.078 -1.0525  0.0068 -0.3931
  201MOL0     C27010   5.630   1.648   2.998  0.0599  0.3094  0.1362
  201MOL0     C27011   5.615   1.532   3.099  1.1874 -0.4932  0.1765
  201MOL0     C27012   5.464   1.539   3.150  0.9048  0.0193 -0.7661
  201MOL0     C27013   5.428   1.414   3.211  0.2194 -0.1788 -0.0820
  201MOL0     C27014   5.325   1.435   3.318  1.0105 -0.2313  0.0125
  201MOL0     C27015   5.298   1.299   3.388 -0.0571  0.6080  0.0713
  201MOL0     C27016   5.202   1.302   3.506  0.5058 -0.2024  0.1448
  201MOL0     N27017   5.279   1.336   3.626 -0.1931  0.0945 -0.8200
  201MOL0     C27018   5.290   1.461   3.682  1.0215  0.4303  0.1543
  201MOL0     C27019   5.365   1.434   3.796  0.9832 -0.9393 -0.4449
  201MOL0     C27020   5.390   1.534   3.906 -0.5786 -0.5190 -0.1909
  201MOL0     C27021   5.526   1.610   3.883 -0.3049  0.0162  0.5646
  201MOL0     C27022   5.648   1.520   3.938  0.4774 -0.1851 -0.2115
  201MOL0     C27023   5.789   1.561   3.903  0.6462  0.2773 -0.3860
  201MOL0     O27024   5.868   1.440   3.918  0.4322  0.3556  0.3022
  201MOL0     C27025   5.999   1.442   3.897 -0.4084  0.4734  0.6297
  201MOL0     C27026   6.071   1.323   3.925 -0.4605 -0.4148  0.0065
  201MOL0     C27027   6.212   1.306   3.918 -1.1003 -0.5055 -1.0256
  201MOL0     C27028   6.280   1.420   3.876 -0.3160 -0.5913 -0.1945
  201MOL0     C27029   6.432   1.407   3.856  0.0841  0.5368 -0.4243
  201MOL0     O27030   6.490   1.285   3.889 -0.3596  0.0279  0.4753
  201MOL0     C27031   6.624   1.244   3.878 -1.0199 -0.8898 -0.2133
  201MOL0     C27032   6.649   1.107   3.858  0.0847 -0.0390 -0.2120
  201MOL0     C27033   6.779   1.057   3.850  0.4115  0.2582 -0.4771
  201MOL0     C27034   6.889   1.138   3.850  0.8919  0.4428  0.1079
  201MOL0     O27035   7.022   1.097   3.842  0.6551 -0.5098 -0.0930
  201MOL0     C27036   7.059   0.956   3.822  0.3045 -0.0150  0.0005
  201MOL0     C27037   7.199   0.947   3.772  0.2989 -0.0939 -1.0409
  201MOL0     C27038   7.234   0.798   3.742  0.7095  0.1147  0.2822
  201MOL0     C27039   7.371   0.783   3.679  0.2594 -0.3644  0.1491
  201MOL0     C27040   7.407   0.639   3.662  0.8082  0.4104  0.3561
  201MOL0     C27041   7.470   0.579   3.802 -0.1286 -0.1165  0.4922
  201MOL0     C27042   7.525   0.439   3.782  0.2466  0.2863  0.3384
  201MOL0     C27043   7.565   0.381   3.918 -0.8283  0.3615 -0.2374
  201MOL0    Cl27044   7.736   0.437   3.951  0.3626  0.2526  0.0774
  201MOL0     C27045   6.862   1.272   3.866  0.1463 -0.2542  0.6355
  201MOL0     C27046   6.736   1.330   3.877 -0.2745  0.3326  0.1643
  201MOL0     O27047   6.495   1.505   3.815  0.5579 -0.1403  0.0710
  201MOL0     C27048   6.214   1.543   3.855 -0.1563 -0.5896  0.4963
  201MOL0     C27049   6.073   1.551   3.860  0.5432 -0.7111  0.0391
  201MOL0     N27050   5.395   1.296   3.808  0.2253  0.1721 -0.2154
  201MOL0     N27051   5.344   1.244   3.705  1.0437 -0.0902  0.3865
  201MOL0     C27052   5.890   1.835   2.991  0.1713 -0.2050  0.3534
  201MOL0     C27053   6.025   1.865   2.954 -0.0473  0.2118  0.3779
  201MOL0     C27054   6.491   1.898   2.993 -0.3385  0.9717  0.5249
  201MOL0     C27055   6.479   1.930   2.856 -0.3583 -0.1485  0.1598
  201MOL0     C27056   6.595   1.964   2.778  0.2443 -0.0790  0.3066
  201MOL0     C27057   6.724   1.946   2.831  0.2759 -0.2514  0.4747
  201MOL0     O27058   6.823   1.962   2.740 -0.9571 -0.0341 -0.7690
  201MOL0     C27059   6.960   1.958   2.778 -1.0261 -0.2040 -0.7362
  201MOL0     C27060   7.011   2.080   2.821  0.3460 -0.2427 -0.5064
  201MOL0     C27061   7.144   2.051   2.892  0.6382 -0.3843  0.0538
  201MOL0     C27062   7.251   1.984   2.803  1.5122  0.2824 -0.3453
  201MOL0     C27063   7.319   2.088   2.731 -0.3339 -0.0914  0.4566
  201MOL0     C27064   7.372   2.186   2.680  0.0767  0.2934  0.2804
  201MOL0     C27065   6.733   1.910   2.967 -0.0339  0.0637  0.4756
  201MOL0     C27066   6.622   1.884   3.045 -0.2474  0.3722  0.0355
  201MOL0     C27067   6.660   1.834   3.185  0.4009  0.3489 -0.0102
  201MOL0     H27068   6.176   1.860   3.257 -0.5519 -0.0255  1.7295
  201MOL0     H27069   5.950   1.794   3.325  1.8448  1.1850  0.9495
  201MOL0     H27070   5.541   1.792   3.138 -0.9156 -0.4815 -0.1222
  201MOL0     H27071   5.626   1.856   2.995 -2.4657  3.1289  2.1360
  201MOL0     H27072   5.716   1.646   2.929 -0.6149 -1.5599 -0.7285
  201MOL0     H27073   5.542   1.645   2.933  0.4815 -2.0417 -0.4178
  201MOL0     H27074   5.679   1.539   3.187 -1.4172 -0.9436  2.2368
  201MOL0     H27075   5.642   1.440   3.047  1.7549 -1.2557  1.7470
  201MOL0     H27076   5.465   1.618   3.226 -1.1043 -1.2873  0.6989
  201MOL0     H27077   5.385   1.560   3.078  1.3149 -0.4532 -1.3680
  201MOL0     H27078   5.397   1.345   3.133  1.9120 -0.8503 -0.2216
  201MOL0     H27079   5.514   1.362   3.255 -0.5559  0.3144  2.1592
  201MOL0     H27080   5.358   1.499   3.399 -1.1753 -2.6506  3.0334
  201MOL0     H27081   5.222   1.461   3.291  0.6579  0.2435  1.7556
  201MOL0     H27082   5.390   1.265   3.437 -1.3182 -1.3064  1.2320
  201MOL0     H27083   5.281   1.222   3.312  0.7712  1.3386 -0.8965
  201MOL0     H27084   5.124   1.375   3.480 -1.1759 -2.4424 -1.5354
  201MOL0     H27085   5.153   1.205   3.520 -0.9962  0.4827 -0.1802
  201MOL0     H27086   5.265   1.563   3.654  2.8603  0.5390 -1.2988
  201MOL0     H27087   5.306   1.603   3.911  1.4126  2.1177 -0.8837
  201MOL0     H27088   5.395   1.480   4.001  0.5429 -1.9695 -1.0242
  201MOL0     H27089   5.535   1.630   3.776  0.0437 -1.3198  0.3332
  201MOL0     H27090   5.522   1.701   3.945 -4.4551 -0.7402  1.6954
  201MOL0     H27091   5.635   1.420   3.894 -3.0865 -0.7452  1.7061
  201MOL0     H27092   5.636   1.499   4.045  1.7558  0.4576  0.0797
  201MOL0     H27093   5.826   1.631   3.977  2.5053 -0.5348 -0.4901
  201MOL0     H27094   5.798   1.603   3.802  2.0677  0.3454 -0.2521
  201MOL0     H27095   6.014   1.235   3.952 -1.1148 -0.1513 -0.4910
  201MOL0     H27096   6.242   1.203   3.937 -1.4107 -0.3291  0.5658
  201MOL0     H27097   6.563   1.041   3.862 -0.8630  1.1381 -0.9426
  201MOL0     H27098   6.778   0.948   3.849 -2.3631  0.1967  0.0672
  201MOL0     H27099   7.046   0.898   3.914 -0.0331 -1.9931 -1.2458
  201MOL0     H27100   6.993   0.912   3.747  0.5912  0.5822 -0.6080
  201MOL0     H27101   7.212   0.998   3.675 -1.7831 -0.5655 -1.6042
  201MOL0     H27102   7.264   0.994   3.847 -0.4079 -0.7907  0.0248
  201MOL0     H27103   7.224   0.741   3.835  1.8329 -2.8688 -1.2852
  201MOL0     H27104   7.162   0.765   3.665  0.9542  4.8247 -2.3514
  201MOL0     H27105   7.440   0.817   3.757  1.1877 -2.2250  0.2128
  201MOL0     H27106   7.385   0.847   3.592 -3.1831  0.1401 -0.1641
  201MOL0     H27107   7.483   0.637   3.582  0.8006 -0.9877  0.3539
  201MOL0     H27108   7.328   0.572   3.628  2.1629 -0.4974 -1.2106
  201MOL0     H27109   7.552   0.644   3.832  0.3654 -1.2846  1.7753
  201MOL0     H27110   7.388   0.580   3.875 -1.3726  1.4991 -0.8591
  201MOL0     H27111   7.609   0.435   3.713  0.6284 -2.4963  0.8391
  201MOL0     H27112   7.446   0.382   3.733 -0.7726  3.0619 -1.4788
  201MOL0     H27113   7.506   0.399   4.008  1.8802  0.7636  1.5639
  201MOL0     H27114   7.572   0.272   3.922  0.1046  0.4074 -0.5080
  201MOL0     H27115   6.940   1.346   3.862 -0.9830  0.9110 -1.1453
  201MOL0     H27116   6.707   1.434   3.870 -2.8106 -0.2729  0.6067
  201MOL0     H27117   6.277   1.627   3.826 -0.8345 -0.6774 -1.3763
  201MOL0     H27118   6.036   1.653   3.854  2.2428  0.3236  3.8563
  201MOL0     H27119   5.815   1.826   2.914 -0.8805 -0.3819  1.3737
  201MOL0     H27120   6.049   1.883   2.850 -1.2489 -2.6874 -0.4903
  201MOL0     H27121   6.386   1.944   2.803  0.0917 -0.2915 -0.6828
  201MOL0     H27122   6.586   2.006   2.679  0.0992  4.0640  1.9011
  201MOL0     H27123   7.013   1.921   2.689 -2.9090 -1.9377 -1.2119
  201MOL0     H27124   6.982   1.883   2.855 -0.9466 -0.2574 -0.8107
  201MOL0     H27125   6.944   2.135   2.888 -2.2926 -1.1988 -2.1902
  201MOL0     H27126   7.035   2.140   2.734  0.7672  2.0875  1.1274
  201MOL0     H27127   7.129   1.984   2.977 -0.8745 -0.1599 -0.0035
  201MOL0     H27128   7.177   2.147   2.933 -3.0701  0.1687  2.1955
  201MOL0     H27129   7.324   1.938   2.870 -1.2402 -2.0847  1.3118
  201MOL0     H27130   7.223   1.893   2.748  1.9005 -0.4508  0.6386
  201MOL0     H27131   7.429   2.268   2.640  0.9634  0.2315  1.3411
  201MOL0     H27132   6.831   1.910   3.013  0.6228  2.7108 -0.7038
  201MOL0     H27133   6.739   1.906   3.207 -0.3473  0.8248  1.1895
  201MOL0     H27134   6.581   1.841   3.260 -1.9814 -1.3518 -2.1897
  201MOL0     H27135   6.705   1.735   3.196 -0.5335  0.1293  2.4991
  202MOL0     O27136   6.781   9.738   5.160 -0.2183 -0.0785  0.3903
  202MOL0     C27137   6.710   9.681   5.241  0.5919 -0.2415 -0.5271
  202MOL0     O27138   6.751   9.622   5.354  0.3595  0.0792  0.7983
  202MOL0     C27139   6.889   9.599   5.366  0.5706  0.3201 -0.7175
  202MOL0     C27140   6.950   9.637   5.489  0.6237 -0.3740  0.3529
  202MOL0     C27141   7.084   9.637   5.505  0.3393  0.2567  0.5212
  202MOL0     C27142   7.169   9.608   5.397 -0.0112 -0.1574 -0.6311
  202MOL0     O27143   7.307   9.621   5.404  0.5731 -0.2766  0.0809
  202MOL0     C27144   7.359   9.756   5.418  0.4833  0.0608  0.1717
  202MOL0     C27145   7.293   9.872   5.339  0.6291  0.4334 -0.2924
  202MOL0     C27146   7.373  10.003   5.329  0.7110 -0.5017 -0.4406
  202MOL0     C27147   7.464  10.009   5.205  0.8962  0.4562 -0.5811
  202MOL0     C27148   7.550  10.130   5.222 -0.2496  0.8737  0.2673
  202MOL0     C27149   7.637  10.138   5.093 -0.6731 -0.5327 -0.1725
  202MOL0     C27150   7.706  10.267   5.112 -0.0061 -0.8078  0.2584
  202MOL0     C27151   7.791  10.307   4.992 -0.7419 -0.4875  0.1731
  202MOL0     N27152   7.898  10.397   5.020 -0.0074 -0.7514  0.3023
  202MOL0     C27153   7.912  10.529   4.973  0.1655  0.2639  0.0933
  202MOL0     C27154   8.027  10.578   5.021  0.2119 -0.2571 -0.0118
  202MOL0     C27155   8.091  10.716   4.998 -0.3644 -0.2991  0.2437
  202MOL0     C27156   8.239  10.721   5.035 -0.2281  0.0021  0.4194
  202MOL0     C27157   8.301  10.853   5.001  0.2749 -0.0740 -0.2587
  202MOL0     C27158   8.449  10.856   5.044 -0.2008  0.1546 -0.2176
  202MOL0     O27159   8.502  10.984   5.012  0.5164 -0.6910 -0.6474
  202MOL0     C27160   8.630  11.008   5.075 -0.3960  0.0013  0.2380
  202MOL0     C27161   8.702  10.909   5.152  0.7215 -0.5029  0.9509
  202MOL0     C27162   8.824  10.937   5.203 -0.4258  0.3832  0.7101
  202MOL0     C27163   8.886  11.062   5.190  0.1234 -0.9938  0.0951
  202MOL0     C27164   9.019  11.105   5.256 -0.5151  0.3939 -0.1179
  202MOL0     O27165   9.113  11.008   5.285  0.0011 -0.6930 -0.5293
  202MOL0     C27166   9.236  11.041   5.340 -0.3012 -0.0371  0.4481
  202MOL0     C27167   9.261  11.010   5.474  0.4454 -0.5661  0.0192
  202MOL0     C27168   9.376  11.056   5.535  0.6811 -0.3920  0.0405
  202MOL0     C27169   9.472  11.132   5.470  0.7525 -0.4416 -0.7119
  202MOL0     O27170   9.576  11.200   5.516 -0.5824 -0.3521 -0.8628
  202MOL0     C27171   9.639  11.149   5.627  0.1337  0.4994 -0.4537
  202MOL0     C27172   9.712  11.018   5.619  0.1569  0.4782 -0.2820
  202MOL0     C27173   9.740  10.951   5.757  0.3729 -0.4933 -0.3341
  202MOL0     C27174   9.618  10.908   5.833  0.1239  0.2544 -0.3381
  202MOL0     C27175   9.657  10.787   5.925  0.9249  0.3315 -0.2154
  202MOL0     C27176   9.539  10.719   6.009 -0.3402  0.2876  0.5465
  202MOL0     C27177   9.584  10.578   6.058  0.1984  0.0382  0.3626
  202MOL0     C27178   9.474  10.503   6.114 -0.0643 -0.1813  0.0609
  202MOL0    Cl27179   9.533  10.345   6.157 -0.6314  0.0629 -0.1545
  202MOL0     C27180   9.452  11.157   5.332  0.0340  0.0188  0.4824
  202MOL0     C27181   9.332  11.110   5.273 -1.1453 -0.3456 -0.1876
  202MOL0     O27182   9.026  11.223   5.279  0.4057 -0.1690 -0.0208
  202MOL0     C27183   8.813  11.166   5.126  0.2196 -0.0210 -0.3965
  202MOL0     C27184   8.689  11.135   5.068 -0.3513  0.1292  0.0936
  202MOL0     N27185   8.074  10.477   5.101 -0.2844 -0.2479  0.3193
  202MOL0     N27186   8.009  10.364   5.091 -0.0179 -0.2833  0.2676
  202MOL0     C27187   7.110   9.571   5.275  0.2643  0.1498 -1.0198
  202MOL0     C27188   6.970   9.552   5.262 -0.0757  1.1795 -0.6796
  202MOL0     C27189   6.563   9.666   5.206 -0.0404  0.6076  0.0117
  202MOL0     C27190   6.508   9.532   5.203  0.2102  0.8911 -0.0965
  202MOL0     C27191   6.375   9.514   5.155  0.2397 -0.7416  0.1962
  202MOL0     C27192   6.294   9.624   5.118  0.5629 -0.2276  0.2336
  202MOL0     O27193   6.162   9.595   5.085  0.1161  0.6238 -0.1379
  202MOL0     C27194   6.068   9.679   5.026  0.0559  0.2241  0.8780
  202MOL0     C27195   5.937   9.607   4.997 -0.0104 -0.2419 -0.8022
  202MOL0     C27196   5.848   9.603   5.114 -0.0155  0.0870 -0.3630
  202MOL0     C27197   5.695   9.610   5.078 -0.5298  0.7590  0.1707
  202MOL0     C27198   5.617   9.514   5.154 -0.3699  0.0726  0.0550
  202MOL0     C27199   5.552   9.441   5.223 -0.7729  0.0428  0.1772
  202MOL0     C27200   6.348   9.748   5.123  0.4454  1.2453 -0.0962
  202MOL0     C27201   6.475   9.775   5.177  0.0251 -0.2658  0.1304
  202MOL0     C27202   6.522   9.914   5.187 -0.1144 -0.3736 -0.0752
  202MOL0     H27203   6.881   9.664   5.568  0.3821  1.1463 -0.3448
  202MOL0     H27204   7.123   9.658   5.604 -1.8214  1.3859  1.2194
  202MOL0     H27205   7.354   9.779   5.525  0.0426  1.5169 -0.1412
  202MOL0     H27206   7.460   9.756   5.375  0.1568  0.1407 -0.6083
  202MOL0     H27207   7.198   9.890   5.390 -0.3999  1.6451 -2.4598
  202MOL0     H27208   7.268   9.833   5.239 -0.6999  0.8101 -0.1384
  202MOL0     H27209   7.426  10.020   5.423  0.1223 -0.2095 -0.1531
  202MOL0     H27210   7.313  10.095   5.333  1.9621  0.3160  1.2428
  202MOL0     H27211   7.524   9.917   5.202 -1.5992 -1.2605 -2.2477
  202MOL0     H27212   7.398  10.007   5.118 -0.1224  1.2326  0.1464
  202MOL0     H27213   7.494  10.222   5.236  0.0924  0.9689  1.0302
  202MOL0     H27214   7.612  10.121   5.311 -0.7900 -1.3114  0.4764
  202MOL0     H27215   7.700  10.050   5.110 -0.4395 -0.1037  1.2951
  202MOL0     H27216   7.577  10.136   5.001  0.4746 -0.9616 -0.9322
  202MOL0     H27217   7.771  10.255   5.199  0.3189  2.4485  0.5891
  202MOL0     H27218   7.636  10.350   5.118  0.9625  0.4171 -3.0399
  202MOL0     H27219   7.847  10.218   4.962  2.3465  0.6658  1.9830
  202MOL0     H27220   7.726  10.328   4.907 -2.1540 -3.7924  0.3029
  202MOL0     H27221   7.847  10.595   4.917 -0.9984  0.2201  1.3445
  202MOL0     H27222   8.086  10.730   4.890  2.3669 -1.0430 -0.0663
  202MOL0     H27223   8.034  10.791   5.054  1.3012  0.9255  0.3858
  202MOL0     H27224   8.257  10.700   5.141 -0.3201  4.6468  1.5980
  202MOL0     H27225   8.287  10.633   4.991  1.5930  1.0863  0.1172
  202MOL0     H27226   8.248  10.927   5.061  1.3927 -0.2008  0.9241
  202MOL0     H27227   8.289  10.874   4.894 -1.3998 -2.0221 -0.5030
  202MOL0     H27228   8.499  10.776   4.988  1.7823  0.8073  0.5062
  202MOL0     H27229   8.439  10.839   5.152 -1.6472  3.4148  0.2672
  202MOL0     H27230   8.654  10.815   5.177  3.2185 -2.7260 -1.7945
  202MOL0     H27231   8.866  10.858   5.264 -0.3162  0.2198  0.4209
  202MOL0     H27232   9.187  10.963   5.538 -0.9404  1.8786  0.3374
  202MOL0     H27233   9.391  11.033   5.640 -1.1824 -3.7737 -0.3187
  202MOL0     H27234   9.715  11.225   5.647  0.0453  0.7539 -1.0627
  202MOL0     H27235   9.564  11.141   5.706  1.4275  3.2317  1.1886
  202MOL0     H27236   9.657  10.943   5.562  0.4929  0.1738 -0.2089
  202MOL0     H27237   9.803  11.039   5.562  0.3147  1.1802  0.2088
  202MOL0     H27238   9.804  10.866   5.732 -2.1766 -2.4345 -0.6392
  202MOL0     H27239   9.792  11.027   5.817 -0.8108  1.0578 -1.2182
  202MOL0     H27240   9.549  10.871   5.756  2.0566  1.2686 -2.6764
  202MOL0     H27241   9.578  10.988   5.896  3.7765  3.3016 -1.5990
  202MOL0     H27242   9.727  10.818   6.003  1.3131  0.1922 -0.5049
  202MOL0     H27243   9.702  10.712   5.858 -2.5977 -2.6933  0.4455
  202MOL0     H27244   9.518  10.782   6.096  0.3494 -0.3978  1.2238
  202MOL0     H27245   9.450  10.721   5.946  0.3310  1.7703 -0.4213
  202MOL0     H27246   9.660  10.588   6.136 -2.3368  1.4101  2.8248
  202MOL0     H27247   9.619  10.521   5.972  0.2288  1.9048 -0.9321
  202MOL0     H27248   9.437  10.568   6.194  0.2804  1.3768 -0.9906
  202MOL0     H27249   9.392  10.497   6.040  0.3637 -2.6151 -0.3089
  202MOL0     H27250   9.515  11.230   5.281  0.4241  0.5787  1.6968
  202MOL0     H27251   9.307  11.136   5.171  1.3787  1.1347 -0.4893
  202MOL0     H27252   8.854  11.266   5.115 -0.1321  0.2258  0.4681
  202MOL0     H27253   8.639  11.219   5.020 -1.3770 -1.0665 -0.9908
  202MOL0     H27254   7.170   9.547   5.188 -1.5290 -0.6537 -2.1090
  202MOL0     H27255   6.926   9.502   5.176  0.1846  0.5786 -0.4759
  202MOL0     H27256   6.566   9.442   5.223 -1.9462 -0.6912 -0.5285
  202MOL0     H27257   6.314   9.424   5.152 -0.3103 -0.3626 -1.5961
  202MOL0     H27258   6.116   9.699   4.929 -1.6797  1.7846  0.2868
  202MOL0     H27259   6.057   9.776   5.075  0.6329  2.2115 -2.5922
  202MOL0     H27260   5.964   9.504   4.970  0.4974 -1.3589  3.2966
  202MOL0     H27261   5.882   9.651   4.913  1.1529 -1.6877 -2.4059
  202MOL0     H27262   5.860   9.682   5.189 -1.1014  0.8228 -0.9409
  202MOL0     H27263   5.880   9.511   5.164  0.7536 -1.2170 -3.0863
  202MOL0     H27264   5.659   9.712   5.096  0.3956  1.0466  0.4610
  202MOL0     H27265   5.678   9.584   4.973  3.4606 -0.7583 -0.2743
  202MOL0     H27266   5.509   9.365   5.285  1.7581 -1.3263  0.3974
  202MOL0     H27267   6.291   9.827   5.077 -0.0617  1.7498  1.3399
  202MOL0     H27268   6.443   9.969   5.239 -1.2566 -0.3094 -1.8143
  202MOL0     H27269   6.620   9.922   5.235 -1.1369 -0.5654  2.1579
  202MOL0     H27270   6.534   9.953   5.085  3.4428  1.3421  0.8513
  203MOL0     O27271   3.857   1.023   6.540  0.3786 -0.2504 -0.3648
  203MOL0     C27272   3.786   1.120   6.517  0.8074 -0.0250 -0.2008
  203MOL0     O27273   3.836   1.247   6.488  0.1947 -0.1051  0.3442
  203MOL0     C27274   3.963   1.276   6.456 -0.3638 -0.5339  0.1534
  203MOL0     C27275   4.068   1.187   6.451 -0.7094 -0.1526  0.2943
  203MOL0     C27276   4.198   1.236   6.426  0.4346 -0.2891 -0.3187
  203MOL0     C27277   4.227   1.377   6.417  0.1392 -0.1561 -0.5959
  203MOL0     O27278   4.353   1.434   6.386 -0.3956  0.7200  0.1010
  203MOL0     C27279   4.454   1.333   6.369  0.1748  0.8946  0.1205
  203MOL0     C27280   4.581   1.407   6.322  0.1894 -0.1345  0.1517
  203MOL0     C27281   4.652   1.493   6.430  0.1166 -0.1548  0.8573
  203MOL0     C27282   4.769   1.571   6.374 -1.3065 -0.3940 -0.2249
  203MOL0     C27283   4.822   1.681   6.470  0.0909 -0.0231  0.3010
  203MOL0     C27284   4.941   1.743   6.393  0.0952  0.6852  0.1160
  203MOL0     C27285   5.019   1.843   6.487  0.4126 -0.2975 -0.1090
  203MOL0     C27286   5.145   1.912   6.433  0.2640  0.1273 -0.2742
  203MOL0     N27287   5.233   1.975   6.534  0.3324 -0.3629  0.8166
  203MOL0     C27288   5.193   2.050   6.645 -0.6505 -0.6553 -0.7990
  203MOL0     C27289   5.314   2.084   6.704 -0.0641 -0.1397 -0.1209
  203MOL0     C27290   5.323   2.150   6.836 -0.3866 -0.5711  0.1367
  203MOL0     C27291   5.266   2.056   6.944  0.4637  1.0029  0.4398
  203MOL0     C27292   5.334   1.917   6.952 -0.1524  0.3681  0.8808
  203MOL0     C27293   5.482   1.928   6.978  0.5782  0.4663 -0.2642
  203MOL0     O27294   5.539   1.796   6.976 -0.2444  0.4982 -0.2422
  203MOL0     C27295   5.674   1.781   6.958 -0.0281 -1.2856 -0.0290
  203MOL0     C27296   5.716   1.668   6.877  0.4535 -0.6611  0.3439
  203MOL0     C27297   5.852   1.659   6.844  0.2712  0.5910  0.1379
  203MOL0     C27298   5.942   1.756   6.886  0.2418 -0.6725  0.3738
  203MOL0     C27299   6.078   1.743   6.829 -0.5079 -0.8641  0.4101
  203MOL0     O27300   6.171   1.828   6.871  0.4685 -0.3406  0.2059
  203MOL0     C27301   6.294   1.815   6.826 -1.2538  0.0394  0.2261
  203MOL0     C27302   6.369   1.712   6.877  0.7494  0.3496  0.4099
  203MOL0     C27303   6.500   1.694   6.854 -0.4579 -0.7917 -0.5170
  203MOL0     C27304   6.566   1.786   6.767 -0.5750  0.5473 -0.5976
  203MOL0     O27305   6.693   1.761   6.725 -0.3183 -0.2396 -0.4864
  203MOL0     C27306   6.716   1.623   6.689 -0.4318 -0.3077 -0.3403
  203MOL0     C27307   6.816   1.634   6.576  1.4611 -0.2766  0.6064
  203MOL0     C27308   6.954   1.659   6.636  0.8464  0.3278  0.0315
  203MOL0     C27309   7.043   1.739   6.548 -1.0659 -0.8644 -0.2156
  203MOL0     C27310   7.166   1.793   6.631 -0.0076  0.8968 -0.7370
  203MOL0     C27311   7.297   1.718   6.583 -0.3572  0.1942  0.6920
  203MOL0     C27312   7.421   1.766   6.657  0.4822 -0.3513 -0.8447
  203MOL0     C27313   7.555   1.719   6.607  0.5799  0.6119  0.0650
  203MOL0    Cl27314   7.590   1.761   6.427 -0.2491 -0.0594 -0.2376
  203MOL0     C27315   6.495   1.893   6.716  0.2330  0.2217  0.1666
  203MOL0     C27316   6.355   1.909   6.745 -1.1778  0.0526  0.1289
  203MOL0     O27317   6.095   1.657   6.747  0.5815  0.6883 -0.1009
  203MOL0     C27318   5.904   1.863   6.973 -0.2696 -0.0681  0.3562
  203MOL0     C27319   5.769   1.879   7.003 -0.7164  0.5655 -0.1226
  203MOL0     N27320   5.419   2.026   6.622 -0.5282  0.3168 -0.5851
  203MOL0     N27321   5.370   1.966   6.520  0.5843 -0.3602  0.2423
  203MOL0     C27322   4.120   1.466   6.440  0.7382  0.3145 -0.1422
  203MOL0     C27323   3.992   1.417   6.461  0.6574  0.0253  0.3392
  203MOL0     C27324   3.640   1.125   6.534  0.2434  0.5565 -0.5524
  203MOL0     C27325   3.566   1.250   6.549 -0.2053  0.0781  0.3908
  203MOL0     C27326   3.431   1.258   6.570 -1.2669  0.4705 -0.1535
  203MOL0     C27327   3.355   1.139   6.577  0.5418 -0.5578  0.8060
  203MOL0     O27328   3.224   1.143   6.591  0.0717  0.2849  0.3544
  203MOL0     C27329   3.158   1.270   6.600  0.4610 -0.6354  0.0064
  203MOL0     C27330   3.009   1.241   6.617  0.2646  0.6906  0.6281
  203MOL0     C27331   2.940   1.190   6.487  0.2863  0.1983  0.3828
  203MOL0     C27332   2.784   1.174   6.483 -0.5774 -0.0229  0.1473
  203MOL0     C27333   2.736   1.125   6.350 -0.3100 -0.0536 -0.5670
  203MOL0     C27334   2.701   1.100   6.237  0.3690  0.1329 -0.0804
  203MOL0     C27335   3.423   1.016   6.566 -0.3407  0.0961  0.6408
  203MOL0     C27336   3.561   1.009   6.541 -0.0008 -0.4690 -0.1944
  203MOL0     C27337   3.604   0.865   6.531  1.5532  0.5521 -0.5663
  203MOL0     H27338   4.056   1.080   6.469 -3.6673  0.4381  2.7146
  203MOL0     H27339   4.267   1.154   6.408 -1.2109 -1.5457 -1.2752
  203MOL0     H27340   4.476   1.287   6.466  0.3946 -1.9342 -1.1700
  203MOL0     H27341   4.415   1.252   6.307 -2.4844 -0.3276  3.1177
  203MOL0     H27342   4.545   1.470   6.240 -1.8680 -1.1763  0.1925
  203MOL0     H27343   4.655   1.333   6.292 -1.9285 -2.1772 -0.3188
  203MOL0     H27344   4.699   1.430   6.506  0.4351 -1.4850 -0.3797
  203MOL0     H27345   4.584   1.568   6.471 -0.1712 -0.3493  0.7421
  203MOL0     H27346   4.853   1.508   6.345 -1.6697 -0.1350 -1.8953
  203MOL0     H27347   4.728   1.623   6.287  0.5844 -0.1708 -1.0503
  203MOL0     H27348   4.749   1.761   6.481  0.0253 -0.2394  1.7182
  203MOL0     H27349   4.858   1.634   6.563 -1.3161 -0.1675  0.7866
  203MOL0     H27350   5.022   1.670   6.379  2.0892  2.4112  1.8587
  203MOL0     H27351   4.906   1.790   6.301 -0.1389 -1.6220 -1.0579
  203MOL0     H27352   5.045   1.803   6.586 -2.2475  2.0864  1.7222
  203MOL0     H27353   4.940   1.918   6.499 -1.8273 -2.6442  0.8058
  203MOL0     H27354   5.198   1.836   6.375  0.3506 -1.4848  1.7648
  203MOL0     H27355   5.104   1.985   6.364  1.3540 -0.0487 -1.1396
  203MOL0     H27356   5.097   2.081   6.686  0.4037  2.2086 -0.2035
  203MOL0     H27357   5.427   2.171   6.861 -0.5099 -1.3162  1.3753
  203MOL0     H27358   5.262   2.239   6.820  0.8244  0.1271 -0.7645
  203MOL0     H27359   5.279   2.110   7.038 -0.8853 -0.0635  1.2868
  203MOL0     H27360   5.160   2.032   6.930  0.6011 -0.3619  1.4230
  203MOL0     H27361   5.316   1.873   6.854  2.6997  2.2397 -0.6351
  203MOL0     H27362   5.293   1.843   7.021  0.5564  0.4942  1.4531
  203MOL0     H27363   5.495   1.984   7.071  0.7808 -1.2663  0.8048
  203MOL0     H27364   5.538   1.991   6.909  0.5643  0.6793 -0.0837
  203MOL0     H27365   5.641   1.597   6.844 -0.8027  0.6915  0.1580
  203MOL0     H27366   5.885   1.573   6.785  1.8181  2.7721 -2.4580
  203MOL0     H27367   6.322   1.642   6.945  4.2401 -0.9677  1.6966
  203MOL0     H27368   6.561   1.625   6.913  0.2061 -0.6999 -1.0872
  203MOL0     H27369   6.755   1.555   6.765 -1.8064 -1.6487 -0.7762
  203MOL0     H27370   6.624   1.572   6.658 -1.7850  2.2910 -0.9104
  203MOL0     H27371   6.822   1.541   6.519  0.3161 -0.2443  0.4036
  203MOL0     H27372   6.782   1.710   6.506 -1.3341 -2.6191 -0.7876
  203MOL0     H27373   6.943   1.711   6.732  2.1484 -2.1353  1.6542
  203MOL0     H27374   6.995   1.558   6.647  0.9365  0.5490  2.1512
  203MOL0     H27375   6.986   1.823   6.509 -0.7184 -1.1410 -1.3827
  203MOL0     H27376   7.072   1.678   6.461  1.8032 -0.7641  0.5765
  203MOL0     H27377   7.157   1.780   6.739  3.7873 -1.3236 -0.4867
  203MOL0     H27378   7.180   1.899   6.606  0.7978  0.9913  0.0611
  203MOL0     H27379   7.294   1.612   6.610 -0.6863  0.5596  2.2304
  203MOL0     H27380   7.298   1.734   6.475  3.3397  4.0915  1.0611
  203MOL0     H27381   7.420   1.738   6.763  1.7609  0.6968 -0.5141
  203MOL0     H27382   7.414   1.875   6.654  1.3830 -0.1654  1.3465
  203MOL0     H27383   7.629   1.761   6.676  0.9457  0.1042 -0.0122
  203MOL0     H27384   7.572   1.611   6.603 -1.8711  0.2149 -1.4356
  203MOL0     H27385   6.541   1.965   6.649 -1.2418 -0.2668 -1.4358
  203MOL0     H27386   6.296   1.995   6.714  0.8805  1.3080 -0.5320
  203MOL0     H27387   5.978   1.933   7.010 -0.8969  0.3517  0.8398
  203MOL0     H27388   5.736   1.955   7.072 -0.3514 -0.8384  1.6665
  203MOL0     H27389   4.142   1.573   6.447  0.6662  0.5266 -2.3652
  203MOL0     H27390   3.905   1.480   6.474  2.3525  2.7619 -0.8264
  203MOL0     H27391   3.620   1.344   6.554 -1.0168  0.7206 -1.6388
  203MOL0     H27392   3.393   1.357   6.590 -1.9277 -0.0897  1.4774
  203MOL0     H27393   3.165   1.333   6.511 -1.2980  0.5743  0.6680
  203MOL0     H27394   3.193   1.327   6.686  3.3725 -1.1970 -0.7012
  203MOL0     H27395   2.972   1.335   6.659  0.7871 -1.5485  7.0903
  203MOL0     H27396   2.991   1.177   6.704 -0.8394 -0.0378 -0.0988
  203MOL0     H27397   2.989   1.092   6.482  2.6283  1.2293  1.4485
  203MOL0     H27398   2.971   1.256   6.405  1.5296  1.2866  1.6615
  203MOL0     H27399   2.763   1.104   6.565 -1.0637  0.3565  0.3524
  203MOL0     H27400   2.728   1.265   6.508 -1.1559 -0.2242 -0.3852
  203MOL0     H27401   2.674   1.074   6.137 -0.6555 -0.5276  0.3599
  203MOL0     H27402   3.378   0.917   6.562  1.0431 -0.5364 -1.5266
  203MOL0     H27403   3.613   0.832   6.634 -1.4399 -0.5145 -0.5545
  203MOL0     H27404   3.536   0.803   6.472 -1.0515  2.5520  0.1207
  203MOL0     H27405   3.702   0.860   6.482  0.9761 -2.4537 -1.5893
  204MOL0     O27406   9.510   1.190   9.693 -0.1965  0.4594  0.0517
  204MOL0     C27407   9.470   1.293   9.639  0.0791  1.5800 -0.1646
  204MOL0     O27408   9.544   1.386   9.582 -0.1570 -0.8610  0.1180
  204MOL0     C27409   9.682   1.374   9.558 -0.7437 -0.0569  0.8389
  204MOL0     C27410   9.745   1.473   9.473 -0.1359  0.3619  0.2294
  204MOL0     C27411   9.877   1.477   9.444  0.0518 -0.7457 -0.4005
  204MOL0     C27412   9.967   1.380   9.491  0.0362  0.0962 -0.8809
  204MOL0     O27413  10.097   1.371   9.463 -1.1781  0.3796  0.0481
  204MOL0     C27414  10.150   1.435   9.345  0.6226  0.0494  0.0276
  204MOL0     C27415  10.290   1.401   9.313  0.7717 -0.5040  0.1347
  204MOL0     C27416  10.401   1.443   9.410  0.4037 -0.5779  0.0322
  204MOL0     C27417  10.538   1.401   9.358 -0.2310  0.8722 -0.5582
  204MOL0     C27418  10.656   1.431   9.451 -0.7065  0.8641 -0.1904
  204MOL0     C27419  10.641   1.568   9.523 -0.3853 -0.1622 -0.0424
  204MOL0     C27420  10.746   1.606   9.633 -0.3031  0.4865  0.4536
  204MOL0     C27421  10.740   1.759   9.642 -0.4393  0.0655 -0.0794
  204MOL0     N27422  10.828   1.805   9.751 -0.1753  0.1246 -0.2457
  204MOL0     C27423  10.961   1.810   9.741 -0.0526 -0.4284  0.4915
  204MOL0     C27424  10.993   1.870   9.860 -0.4148  0.0965 -0.3438
  204MOL0     C27425  11.130   1.902   9.922  0.3752 -0.3711 -0.6809
  204MOL0     C27426  11.233   1.940   9.814  0.0065 -0.0042 -0.4379
  204MOL0     C27427  11.359   1.967   9.900  0.6648  0.1805  0.2334
  204MOL0     C27428  11.477   1.983   9.805 -0.0051 -0.2226  0.4828
  204MOL0     O27429  11.602   1.989   9.883 -0.8599 -0.5320 -0.2436
  204MOL0     C27430  11.712   1.966   9.808 -0.3391  0.2366 -0.4335
  204MOL0     C27431  11.819   1.921   9.884  0.3827  0.4570  0.0637
  204MOL0     C27432  11.941   1.881   9.824  0.2271 -0.3118 -0.5957
  204MOL0     C27433  11.958   1.901   9.685 -0.6179 -0.0313 -0.1052
  204MOL0     C27434  12.089   1.856   9.626 -0.5960 -0.6397  1.1734
  204MOL0     O27435  12.104   1.879   9.492  0.6817 -0.9751  0.8609
  204MOL0     C27436  12.229   1.875   9.438 -0.2372  0.3417  0.6656
  204MOL0     C27437  12.323   1.768   9.445  0.6078  0.0303 -0.1258
  204MOL0     C27438  12.450   1.775   9.387 -0.1053  0.0178 -0.9997
  204MOL0     C27439  12.489   1.890   9.321 -0.1061  0.1329  1.2793
  204MOL0     O27440  12.615   1.903   9.260 -0.0149 -0.1617 -0.0027
  204MOL0     C27441  12.708   1.793   9.248 -0.3800 -0.4696  0.5919
  204MOL0     C27442  12.774   1.747   9.375 -0.7640  0.1269  0.3585
  204MOL0     C27443  12.885   1.837   9.409 -0.6323 -0.7231 -0.1639
  204MOL0     C27444  13.012   1.789   9.342  0.2518 -0.1031 -0.1141
  204MOL0     C27445  13.132   1.878   9.372  0.0186  0.2316  0.1909
  204MOL0     C27446  13.269   1.832   9.313  0.4293 -0.2461  0.0259
  204MOL0     C27447  13.363   1.954   9.309  0.3257 -0.0026  0.3259
  204MOL0     C27448  13.511   1.913   9.287 -0.0239 -0.0628  0.7927
  204MOL0    Cl27449  13.609   2.062   9.288  0.0247  0.6700  0.0206
  204MOL0     C27450  12.394   1.995   9.309 -0.1549  0.0875 -0.1170
  204MOL0     C27451  12.268   1.989   9.371  0.8576  0.2504  0.5365
  204MOL0     O27452  12.179   1.812   9.697  0.4469  0.3333  0.3925
  204MOL0     C27453  11.858   1.956   9.619  1.3109  0.3631  0.1730
  204MOL0     C27454  11.731   1.986   9.670  0.6720 -0.2602 -0.0780
  204MOL0     N27455  10.878   1.910   9.930  0.6330 -0.4293  0.2921
  204MOL0     N27456  10.778   1.856   9.869 -0.6402  0.1275  0.6122
  204MOL0     C27457   9.909   1.287   9.580 -0.0018  0.0321  1.4213
  204MOL0     C27458   9.775   1.280   9.613  0.1976  0.0567  0.2682
  204MOL0     C27459   9.337   1.329   9.639  0.1860  0.7871 -0.7731
  204MOL0     C27460   9.287   1.414   9.538  0.4523 -0.2009  0.0219
  204MOL0     C27461   9.152   1.443   9.523  0.2461 -0.1200 -0.9829
  204MOL0     C27462   9.060   1.387   9.607  0.1945  0.0319  0.6991
  204MOL0     O27463   8.929   1.416   9.581 -0.4025  0.2110 -0.2546
  204MOL0     C27464   8.823   1.387   9.675 -0.2286  0.5281 -0.5756
  204MOL0     C27465   8.820   1.511   9.767 -0.1788  0.0968  0.8126
  204MOL0     C27466   8.790   1.640   9.683  0.4317 -0.4765  0.2243
  204MOL0     C27467   8.802   1.769   9.766  0.8483 -0.0050 -0.4702
  204MOL0     C27468   8.936   1.803   9.804 -0.6678  0.7812  0.1354
  204MOL0     C27469   9.048   1.856   9.827  0.6687 -0.0411  0.2387
  204MOL0     C27470   9.100   1.302   9.711  1.0706 -0.3571 -0.6664
  204MOL0     C27471   9.237   1.274   9.731  1.1214 -0.1958 -0.3639
  204MOL0     C27472   9.277   1.190   9.848 -0.1608 -0.0611  0.9792
  204MOL0     H27473   9.678   1.549   9.433  0.8854  2.1099  1.7137
  204MOL0     H27474   9.915   1.567   9.397  1.4060  0.8116  3.2998
  204MOL0     H27475  10.084   1.400   9.265 -0.6166 -0.4397  1.2197
  204MOL0     H27476  10.138   1.543   9.354  1.4178  0.1550 -0.1168
  204MOL0     H27477  10.306   1.446   9.215 -1.2388 -0.7222 -0.3309
  204MOL0     H27478  10.296   1.292   9.306 -0.7354 -0.5521 -0.7691
  204MOL0     H27479  10.379   1.403   9.509 -0.3506  0.7794  0.4462
  204MOL0     H27480  10.409   1.552   9.416  0.5770 -0.5230 -0.9932
  204MOL0     H27481  10.540   1.295   9.334 -0.6024  0.7590 -0.0979
  204MOL0     H27482  10.552   1.454   9.263  1.6475 -1.9736 -1.9896
  204MOL0     H27483  10.653   1.352   9.527  2.1441 -0.4705 -1.3393
  204MOL0     H27484  10.754   1.418   9.405 -0.6698 -3.5641  0.7474
  204MOL0     H27485  10.633   1.644   9.445 -1.9991  0.4108  0.6290
  204MOL0     H27486  10.549   1.571   9.583  1.0783 -2.1520  2.4706
  204MOL0     H27487  10.846   1.566   9.612  0.1754  0.8671  1.9169
  204MOL0     H27488  10.696   1.560   9.719 -1.3099 -0.8835 -0.8070
  204MOL0     H27489  10.769   1.800   9.545 -2.0219 -4.4855 -2.8400
  204MOL0     H27490  10.641   1.790   9.676  0.8383  0.2737  3.8664
  204MOL0     H27491  11.020   1.767   9.660 -2.7390  2.3690 -3.3061
  204MOL0     H27492  11.119   1.972  10.005  2.4023  0.6917 -1.2364
  204MOL0     H27493  11.144   1.801   9.963 -1.6323 -0.5682 -0.3754
  204MOL0     H27494  11.244   1.851   9.752 -3.0835  0.1053 -1.3175
  204MOL0     H27495  11.195   2.021   9.750 -0.0392 -1.2671 -2.0695
  204MOL0     H27496  11.390   1.890   9.971  1.5279  0.5512  0.2611
  204MOL0     H27497  11.328   2.059   9.951 -0.5192  1.4428 -2.5481
  204MOL0     H27498  11.464   2.066   9.735  0.9832  1.4171  2.1442
  204MOL0     H27499  11.488   1.899   9.737  0.2779  1.3095 -1.4519
  204MOL0     H27500  11.818   1.917   9.993  0.7754 -0.6249  0.0471
  204MOL0     H27501  12.025   1.828   9.868  0.8836  2.4740  1.8989
  204MOL0     H27502  12.298   1.673   9.490  0.5569  1.0278  2.1070
  204MOL0     H27503  12.501   1.679   9.394 -0.0600 -0.0847 -2.5148
  204MOL0     H27504  12.644   1.714   9.208 -4.6797  3.2559 -0.8903
  204MOL0     H27505  12.781   1.825   9.173 -1.5324  1.7656  0.3349
  204MOL0     H27506  12.704   1.735   9.458 -0.1058 -1.8260  0.6869
  204MOL0     H27507  12.813   1.646   9.360 -1.7847 -0.2734  0.2849
  204MOL0     H27508  12.866   1.935   9.366 -0.5292 -1.1646 -1.2547
  204MOL0     H27509  12.904   1.839   9.517  0.3225 -0.6073 -0.3255
  204MOL0     H27510  13.007   1.786   9.233 -1.7650 -2.0091 -0.0343
  204MOL0     H27511  13.029   1.683   9.363 -1.9968 -0.6543 -0.8836
  204MOL0     H27512  13.151   1.876   9.480 -1.6270  1.2505  0.5405
  204MOL0     H27513  13.118   1.979   9.332 -0.5810  0.6099  1.2978
  204MOL0     H27514  13.312   1.752   9.374 -0.1013 -0.0066  0.7228
  204MOL0     H27515  13.262   1.795   9.210  0.9522  1.2700 -0.5964
  204MOL0     H27516  13.354   1.995   9.410  0.7949  0.3272  0.2386
  204MOL0     H27517  13.337   2.035   9.241  1.6098 -0.9332 -1.3554
  204MOL0     H27518  13.550   1.841   9.361  0.7323 -1.0908 -0.5538
  204MOL0     H27519  13.515   1.866   9.188  1.2876  0.4858  0.5577
  204MOL0     H27520  12.427   2.083   9.255  2.5366 -1.6349 -1.4817
  204MOL0     H27521  12.208   2.079   9.370 -0.8606 -0.8683 -0.2219
  204MOL0     H27522  11.879   1.968   9.513  0.2913  0.5918 -0.0111
  204MOL0     H27523  11.670   2.041   9.600 -0.0516 -0.3434  0.4824
  204MOL0     H27524   9.976   1.213   9.624 -1.1429 -1.7986  0.2163
  204MOL0     H27525   9.748   1.187   9.662 -0.5078 -0.7186 -1.5088
  204MOL0     H27526   9.344   1.456   9.455 -1.8185  0.8511 -1.0685
  204MOL0     H27527   9.110   1.511   9.450 -1.7064 -0.1360  0.0722
  204MOL0     H27528   8.823   1.292   9.730  0.6369 -0.1313 -1.6693
  204MOL0     H27529   8.724   1.390   9.629 -0.7551 -2.3890  0.1236
  204MOL0     H27530   8.916   1.522   9.819  0.7947  2.2115 -1.2137
  204MOL0     H27531   8.736   1.491   9.834  0.2361 -0.6702  1.1165
  204MOL0     H27532   8.690   1.632   9.639  0.1320 -0.7995  0.9504
  204MOL0     H27533   8.863   1.655   9.603 -1.4865 -0.5795 -1.6239
  204MOL0     H27534   8.757   1.848   9.705  0.4550 -0.1997 -0.4378
  204MOL0     H27535   8.741   1.759   9.856  0.0298  0.4188 -0.9722
  204MOL0     H27536   9.146   1.896   9.840 -0.3154  2.1698  1.5730
  204MOL0     H27537   9.025   1.261   9.778 -1.2168  0.0860 -2.8198
  204MOL0     H27538   9.371   1.228   9.887  0.5938  0.6907 -1.3607
  204MOL0     H27539   9.199   1.172   9.923  0.0174 -2.2526  0.7014
  204MOL0     H27540   9.291   1.090   9.806 -0.3645  1.7053 -3.9931
  205MOL0     O27541   6.217   8.479   0.934  0.4448  0.2382  0.1296
  205MOL0     C27542   6.261   8.593   0.913  0.0027  1.2082 -0.2939
  205MOL0     O27543   6.216   8.704   0.979 -1.1000  0.2463  1.3016
  205MOL0     C27544   6.108   8.697   1.056  0.7003  0.2788  0.5350
  205MOL0     C27545   5.984   8.735   0.998  0.0768 -0.6687 -0.1776
  205MOL0     C27546   5.873   8.717   1.080  0.3994 -0.1471  0.8947
  205MOL0     C27547   5.884   8.669   1.206 -0.8222  1.1076  0.1734
  205MOL0     O27548   5.768   8.657   1.274 -0.2146  0.5204 -1.2911
  205MOL0     C27549   5.771   8.695   1.417  0.1290  0.1210  1.0219
  205MOL0     C27550   5.642   8.778   1.447 -0.2931 -0.7715  0.4589
  205MOL0     C27551   5.633   8.900   1.352  0.4462 -0.2317 -0.6511
  205MOL0     C27552   5.533   9.003   1.396 -0.4943 -0.5715 -0.1402
  205MOL0     C27553   5.532   9.116   1.286 -0.7064 -0.3221 -0.1535
  205MOL0     C27554   5.431   9.230   1.311  0.1487  0.4117 -0.0032
  205MOL0     C27555   5.408   9.311   1.179 -0.0790 -0.5070  0.9108
  205MOL0     C27556   5.537   9.386   1.136 -0.4715 -0.2597 -0.1378
  205MOL0     N27557   5.515   9.463   1.021 -0.4221  0.8573  0.0808
  205MOL0     C27558   5.492   9.409   0.896  0.4147  0.9262  0.1244
  205MOL0     C27559   5.486   9.517   0.814 -0.5744 -0.2377 -0.6323
  205MOL0     C27560   5.460   9.526   0.668  0.6745 -0.3246 -0.7342
  205MOL0     C27561   5.589   9.542   0.574  0.0316 -0.0712  0.2507
  205MOL0     C27562   5.549   9.564   0.431 -0.8492 -0.5461  0.1995
  205MOL0     C27563   5.682   9.596   0.351 -0.5674 -0.2492  0.1110
  205MOL0     O27564   5.716   9.735   0.393 -0.9845  0.8179 -0.8771
  205MOL0     C27565   5.850   9.751   0.385  0.1623 -0.2151 -0.7376
  205MOL0     C27566   5.918   9.790   0.495  0.5178 -0.7691 -0.2390
  205MOL0     C27567   6.056   9.781   0.493 -0.7624 -0.6918 -0.4180
  205MOL0     C27568   6.132   9.745   0.384 -0.5851 -0.5373  0.1478
  205MOL0     C27569   6.278   9.749   0.366 -0.4650  0.7326  0.8900
  205MOL0     O27570   6.325   9.726   0.240  0.0863  0.7685  0.0867
  205MOL0     C27571   6.460   9.729   0.200  0.2448 -0.2368 -0.2725
  205MOL0     C27572   6.578   9.707   0.273 -0.9412  0.2200 -0.2496
  205MOL0     C27573   6.712   9.706   0.220 -0.8799 -0.3604  0.8872
  205MOL0     C27574   6.723   9.734   0.084  0.2302  0.1999 -0.4442
  205MOL0     O27575   6.847   9.725   0.027  0.5444  0.2977  1.0837
  205MOL0     C27576   6.866   9.803  -0.099  0.4235  0.1110  0.0359
  205MOL0     C27577   7.011   9.785  -0.134  0.3738 -0.1519  0.9265
  205MOL0     C27578   7.113   9.803  -0.020  1.1787 -0.3165 -0.6192
  205MOL0     C27579   7.250   9.860  -0.076  0.0307 -0.4650 -0.5614
  205MOL0     C27580   7.362   9.894   0.029 -0.2549  0.5052  0.2776
  205MOL0     C27581   7.403   9.782   0.117 -0.2965  0.1632  0.0449
  205MOL0     C27582   7.521   9.824   0.219  0.6849 -0.3493 -0.3187
  205MOL0     C27583   7.590   9.705   0.283  0.2535 -0.4683 -0.5724
  205MOL0    Cl27584   7.691   9.623   0.154 -0.3799 -0.3974 -0.2806
  205MOL0     C27585   6.602   9.747   0.005 -1.5535  0.0405 -0.1192
  205MOL0     C27586   6.476   9.746   0.058 -1.0245 -0.0754 -1.1548
  205MOL0     O27587   6.344   9.793   0.456  0.3489  0.3284 -0.5324
  205MOL0     C27588   6.056   9.721   0.267  0.0948  0.8373 -0.5373
  205MOL0     C27589   5.918   9.733   0.270 -0.4000  0.1773  0.5150
  205MOL0     N27590   5.510   9.628   0.891 -0.2522  0.2812 -0.0520
  205MOL0     N27591   5.530   9.592   1.014  0.6927  0.1642 -0.1582
  205MOL0     C27592   6.007   8.647   1.261  0.7914  0.6150  0.5315
  205MOL0     C27593   6.120   8.665   1.192  0.3548  0.7407 -0.0991
  205MOL0     C27594   6.365   8.616   0.813 -0.5321 -0.1099 -0.8653
  205MOL0     C27595   6.340   8.601   0.679  0.2062 -0.0469  0.2411
  205MOL0     C27596   6.444   8.605   0.584  0.1997  0.1154 -0.6524
  205MOL0     C27597   6.579   8.623   0.631  0.3432  0.1011  0.2834
  205MOL0     O27598   6.691   8.622   0.559 -0.0945 -0.6780  0.2169
  205MOL0     C27599   6.685   8.583   0.425  0.6653  0.0861 -0.5720
  205MOL0     C27600   6.823   8.596   0.363 -0.3364 -0.2925  0.3122
  205MOL0     C27601   6.936   8.535   0.447  0.1425  0.2653 -0.0561
  205MOL0     C27602   6.942   8.383   0.459  0.8571  0.3247 -0.0518
  205MOL0     C27603   6.963   8.307   0.330 -0.3468 -0.5698  0.6121
  205MOL0     C27604   6.994   8.249   0.224 -0.1885  0.0015  0.5901
  205MOL0     C27605   6.599   8.649   0.765 -0.4256 -0.6898  0.0643
  205MOL0     C27606   6.502   8.635   0.859 -0.0491 -0.7414  0.1288
  205MOL0     C27607   6.525   8.651   1.009  0.2519 -0.2311 -0.8290
  205MOL0     H27608   5.973   8.745   0.890 -0.5005  0.1539 -0.0542
  205MOL0     H27609   5.771   8.745   1.055 -0.3816 -1.0539  2.8764
  205MOL0     H27610   5.777   8.603   1.475  0.3147 -0.5118  0.0220
  205MOL0     H27611   5.861   8.754   1.432  1.2878 -0.2095 -3.4181
  205MOL0     H27612   5.652   8.822   1.547  1.7135  0.3313 -0.1663
  205MOL0     H27613   5.553   8.716   1.437  0.5848 -2.1007  0.5816
  205MOL0     H27614   5.612   8.874   1.248 -3.1427 -2.5476  0.4547
  205MOL0     H27615   5.728   8.954   1.352 -0.1653  0.9017  0.2038
  205MOL0     H27616   5.430   8.965   1.403 -0.4275 -1.1767 -1.8716
  205MOL0     H27617   5.569   9.048   1.489 -2.1277  4.1954 -1.5146
  205MOL0     H27618   5.634   9.154   1.276 -0.9329  0.0393 -1.1835
  205MOL0     H27619   5.515   9.085   1.183 -0.0349  1.9983 -1.0168
  205MOL0     H27620   5.333   9.188   1.333  0.2810 -0.5865 -1.1980
  205MOL0     H27621   5.470   9.301   1.384 -0.7741  2.3636 -1.3028
  205MOL0     H27622   5.331   9.386   1.202 -1.7446 -2.0632  0.5622
  205MOL0     H27623   5.364   9.246   1.104  4.6115 -1.4440 -1.3976
  205MOL0     H27624   5.580   9.437   1.222 -3.3298  1.1913  0.5402
  205MOL0     H27625   5.608   9.309   1.104 -1.7846 -1.3816 -0.4304
  205MOL0     H27626   5.481   9.307   0.860 -0.3046  1.0762 -0.0945
  205MOL0     H27627   5.413   9.431   0.641  1.2080 -1.3540  1.6495
  205MOL0     H27628   5.380   9.598   0.648 -0.8089 -1.6002  0.3005
  205MOL0     H27629   5.660   9.608   0.624  0.4643 -1.7007  1.9193
  205MOL0     H27630   5.642   9.447   0.567  0.0378  0.0017 -0.6918
  205MOL0     H27631   5.489   9.655   0.420  1.2137  0.7213 -1.2098
  205MOL0     H27632   5.502   9.471   0.398 -1.8216 -0.3305  0.9257
  205MOL0     H27633   5.657   9.584   0.245 -0.8682 -0.0643  0.1598
  205MOL0     H27634   5.754   9.520   0.380 -1.3828 -0.1171  2.7505
  205MOL0     H27635   5.873   9.813   0.591  3.2276  0.8120  0.7374
  205MOL0     H27636   6.108   9.807   0.585 -0.7486  1.9750 -1.0753
  205MOL0     H27637   6.552   9.677   0.374 -3.3820 -1.1158 -1.1896
  205MOL0     H27638   6.799   9.678   0.278 -0.4130  0.7727  0.7776
  205MOL0     H27639   6.805   9.764  -0.181  0.6792 -1.7637  0.6942
  205MOL0     H27640   6.849   9.909  -0.080  0.9557  0.0624  0.8341
  205MOL0     H27641   7.009   9.682  -0.170  0.7563 -0.3127  1.3523
  205MOL0     H27642   7.037   9.854  -0.214 -3.4156  2.2996  1.5662
  205MOL0     H27643   7.065   9.872   0.049  1.4171  0.5849 -1.3335
  205MOL0     H27644   7.133   9.704   0.023 -1.4506 -1.6434 -2.2015
  205MOL0     H27645   7.227   9.950  -0.133 -3.9672 -1.4671 -0.8044
  205MOL0     H27646   7.289   9.787  -0.148  1.3803 -0.8530  0.4947
  205MOL0     H27647   7.331   9.976   0.093 -1.5635 -0.4183  0.8776
  205MOL0     H27648   7.458   9.914  -0.020  0.6608 -4.3199 -0.4241
  205MOL0     H27649   7.313   9.748   0.168 -0.2773 -2.3647 -1.4104
  205MOL0     H27650   7.443   9.705   0.050  2.9825  0.3987  1.5042
  205MOL0     H27651   7.478   9.884   0.299 -1.6516 -0.3722 -1.4452
  205MOL0     H27652   7.590   9.891   0.166  1.4286  0.1368  1.2255
  205MOL0     H27653   7.648   9.736   0.370 -0.0178  1.1022 -0.9259
  205MOL0     H27654   7.519   9.632   0.324  0.5616  0.7776  2.4438
  205MOL0     H27655   6.598   9.749  -0.103  1.3868 -2.1828 -0.3997
  205MOL0     H27656   6.385   9.767   0.003 -1.0797 -0.3760 -1.1801
  205MOL0     H27657   6.102   9.686   0.175 -2.7905 -2.7127 -0.8267
  205MOL0     H27658   5.874   9.711   0.173  1.9244 -2.1223 -0.1555
  205MOL0     H27659   6.021   8.605   1.360 -3.2781 -0.0327  0.9979
  205MOL0     H27660   6.218   8.635   1.227  0.2754  1.6826  0.9798
  205MOL0     H27661   6.241   8.587   0.636  0.9035  0.9961 -1.8199
  205MOL0     H27662   6.423   8.582   0.480  1.9759 -2.7339 -0.4850
  205MOL0     H27663   6.612   8.651   0.380 -1.4473 -0.9019  1.1515
  205MOL0     H27664   6.645   8.481   0.421  1.1021 -0.1582  0.7846
  205MOL0     H27665   6.859   8.698   0.346  2.2204 -0.9475  1.4100
  205MOL0     H27666   6.818   8.544   0.266 -2.2736  0.1637  0.1258
  205MOL0     H27667   6.938   8.589   0.542  0.2566 -0.3468  0.2947
  205MOL0     H27668   7.027   8.562   0.392 -0.9758  1.4385 -1.4218
  205MOL0     H27669   7.016   8.356   0.536  0.0614  2.9510  1.7763
  205MOL0     H27670   6.846   8.344   0.496  1.4114 -1.7496 -0.6495
  205MOL0     H27671   7.022   8.190   0.140 -2.0741 -0.6583  0.3902
  205MOL0     H27672   6.699   8.659   0.808 -2.0286  1.7056  3.7251
  205MOL0     H27673   6.474   8.578   1.073  1.8279 -1.0735 -0.4861
  205MOL0     H27674   6.629   8.628   1.032 -0.5854 -2.8521  0.8942
  205MOL0     H27675   6.495   8.752   1.039 -1.4757 -0.1465 -2.6163
  206MOL0     O27676   5.914   0.370   3.150 -0.6066 -0.7414  0.4947
  206MOL0     C27677   5.955   0.471   3.211 -0.8346  0.6287 -0.0788
  206MOL0     O27678   5.899   0.514   3.329 -0.3974  0.7802  0.0137
  206MOL0     C27679   5.812   0.435   3.399  0.1090  1.0031 -0.0693
  206MOL0     C27680   5.860   0.337   3.485 -1.3001  0.1626  0.0218
  206MOL0     C27681   5.775   0.258   3.559 -0.1856  0.0996 -0.1056
  206MOL0     C27682   5.637   0.277   3.556 -0.3848  0.4796  0.4329
  206MOL0     O27683   5.557   0.186   3.621 -0.0385  0.2174 -0.3835
  206MOL0     C27684   5.424   0.151   3.583 -0.8634  0.1612  0.0648
  206MOL0     C27685   5.304   0.223   3.652  0.1729  0.1801  0.8570
  206MOL0     C27686   5.176   0.145   3.627  0.2364  0.8176 -1.4354
  206MOL0     C27687   5.057   0.224   3.653 -1.1736 -0.0905  0.2421
  206MOL0     C27688   4.939   0.148   3.591 -0.8034  0.2638  1.0051
  206MOL0     C27689   4.801   0.211   3.619 -0.3325 -0.2131  0.6352
  206MOL0     C27690   4.715   0.141   3.726 -0.1446  0.4455 -0.3795
  206MOL0     C27691   4.787   0.154   3.855  0.0723 -0.8903 -0.1178
  206MOL0     N27692   4.712   0.092   3.964  0.1521 -0.5101  0.4640
  206MOL0     C27693   4.648   0.147   4.072  0.2510 -1.3901  0.2349
  206MOL0     C27694   4.581   0.040   4.129 -0.7134 -0.0321 -0.8548
  206MOL0     C27695   4.511   0.066   4.258  0.6612  0.0598 -0.2225
  206MOL0     C27696   4.363   0.071   4.228 -1.0679  0.3400  0.2608
  206MOL0     C27697   4.276   0.092   4.349 -0.3432  0.3458  0.5442
  206MOL0     C27698   4.131   0.038   4.321 -0.6685  0.6791  0.2392
  206MOL0     O27699   4.068   0.035   4.448 -0.4989  0.3792  0.4132
  206MOL0     C27700   3.932   0.002   4.457  0.7051 -0.2091  0.0326
  206MOL0     C27701   3.870   0.025   4.586 -0.4699 -0.1078  0.5695
  206MOL0     C27702   3.741  -0.012   4.621 -0.2514 -0.2445  0.2637
  206MOL0     C27703   3.660  -0.066   4.526  0.5154 -0.3329  0.2441
  206MOL0     C27704   3.516  -0.106   4.561 -0.0087 -0.9080 -0.2915
  206MOL0     O27705   3.432  -0.150   4.463 -0.3864 -0.6864  0.6021
  206MOL0     C27706   3.297  -0.183   4.477 -0.1671  0.0643  0.7370
  206MOL0     C27707   3.237  -0.236   4.590 -0.1062  0.9947 -0.1293
  206MOL0     C27708   3.096  -0.253   4.591  0.4694 -0.4115  0.2196
  206MOL0     C27709   3.013  -0.227   4.470 -0.7861  0.7788  0.1833
  206MOL0     O27710   2.873  -0.225   4.464 -0.5779  0.6313 -0.3405
  206MOL0     C27711   2.789  -0.251   4.581 -0.2862 -0.8529 -0.3567
  206MOL0     C27712   2.699  -0.130   4.588  0.1079  0.2198 -0.0199
  206MOL0     C27713   2.606  -0.130   4.710 -0.6636 -0.1693 -1.1161
  206MOL0     C27714   2.646  -0.210   4.830  0.2275  0.3520  0.4376
  206MOL0     C27715   2.541  -0.211   4.946  0.0515 -1.4766 -0.8498
  206MOL0     C27716   2.546  -0.090   5.033 -0.0782 -0.1201  0.7536
  206MOL0     C27717   2.442  -0.096   5.143  0.4307 -0.6810 -0.0908
  206MOL0     C27718   2.447   0.040   5.222  0.3239  0.3335 -0.2494
  206MOL0    Cl27719   2.352   0.025   5.377 -0.2124  0.0947  0.4819
  206MOL0     C27720   3.077  -0.170   4.371  0.2284 -0.4772 -0.2174
  206MOL0     C27721   3.213  -0.153   4.369 -0.0876  1.0412 -0.2858
  206MOL0     O27722   3.487  -0.075   4.677  0.4203  0.4879 -0.8267
  206MOL0     C27723   3.709  -0.074   4.397 -0.6306  0.0681  1.0229
  206MOL0     C27724   3.847  -0.051   4.359 -0.6332  0.5540 -0.4441
  206MOL0     N27725   4.618  -0.078   4.069  1.1902 -0.8833  0.1896
  206MOL0     N27726   4.691  -0.046   3.972 -0.0732 -0.7556 -0.4157
  206MOL0     C27727   5.592   0.376   3.463  0.1464  0.1382 -0.2381
  206MOL0     C27728   5.679   0.457   3.389  0.5194 -1.5373  0.1673
  206MOL0     C27729   6.060   0.553   3.143 -0.5749  0.0202 -0.4654
  206MOL0     C27730   6.051   0.686   3.176 -0.6489  0.1640 -0.4803
  206MOL0     C27731   6.133   0.776   3.118 -0.1297  0.0212  0.3101
  206MOL0     C27732   6.221   0.744   3.019  0.0527  0.1233  0.0422
  206MOL0     O27733   6.283   0.832   2.933 -0.6928 -0.1391 -0.2275
  206MOL0     C27734   6.254   0.969   2.944  0.0508 -0.5063 -0.2873
  206MOL0     C27735   6.307   1.050   2.827 -0.7880 -0.0896 -0.1944
  206MOL0     C27736   6.454   1.052   2.824 -0.8173 -0.9870 -0.9018
  206MOL0     C27737   6.510   1.161   2.728  0.1716  0.2256  0.3854
  206MOL0     C27738   6.660   1.152   2.744  0.5005 -0.2279  0.9015
  206MOL0     C27739   6.783   1.146   2.747 -0.5163  0.1889  0.1518
  206MOL0     C27740   6.245   0.610   2.998 -0.0312  0.8918  0.6367
  206MOL0     C27741   6.162   0.512   3.055  0.5791 -0.8632 -0.4045
  206MOL0     C27742   6.185   0.371   3.017 -0.5644 -0.3733 -0.9149
  206MOL0     H27743   5.968   0.322   3.484 -0.9638  2.3310 -1.1154
  206MOL0     H27744   5.828   0.182   3.615  1.2783  0.2489 -1.2239
  206MOL0     H27745   5.415   0.146   3.474 -0.7465 -0.5770  0.0841
  206MOL0     H27746   5.420   0.049   3.622 -0.0751  0.2949  0.5155
  206MOL0     H27747   5.287   0.316   3.596 -0.2764 -0.2120  0.3236
  206MOL0     H27748   5.311   0.249   3.758  0.5258  1.2852  0.5714
  206MOL0     H27749   5.173   0.059   3.695 -0.1765  1.8502 -0.0981
  206MOL0     H27750   5.170   0.103   3.526  0.1056 -0.4146 -0.9411
  206MOL0     H27751   5.043   0.234   3.761  0.7799  1.6202  0.3977
  206MOL0     H27752   5.077   0.320   3.605 -1.5394 -0.2747 -0.2825
  206MOL0     H27753   4.943   0.139   3.482  0.7273  0.0828  1.0467
  206MOL0     H27754   4.936   0.043   3.623  0.5361 -0.2417 -0.4222
  206MOL0     H27755   4.827   0.316   3.636 -0.5751  0.0689 -0.6780
  206MOL0     H27756   4.746   0.201   3.525 -0.9176 -3.8150  1.2123
  206MOL0     H27757   4.713   0.034   3.700  0.9470  0.8979 -2.6361
  206MOL0     H27758   4.618   0.190   3.735  0.5119  1.6397  0.5460
  206MOL0     H27759   4.885   0.104   3.854  0.0925 -0.9305  1.5418
  206MOL0     H27760   4.796   0.258   3.889  2.4780 -0.8921 -0.5559
  206MOL0     H27761   4.650   0.251   4.103 -0.5743 -0.2961 -3.0452
  206MOL0     H27762   4.540  -0.014   4.327 -1.0543 -1.9411 -1.6695
  206MOL0     H27763   4.530   0.166   4.299  1.1570 -0.9935  2.3048
  206MOL0     H27764   4.333   0.145   4.153  0.5158  1.4171  0.6499
  206MOL0     H27765   4.327  -0.016   4.172 -0.8972  2.1705 -2.9127
  206MOL0     H27766   4.266   0.200   4.366 -1.6186  0.6620 -1.8392
  206MOL0     H27767   4.326   0.054   4.438  0.8141  2.5576  0.9024
  206MOL0     H27768   4.144  -0.062   4.280 -2.1804  0.0206  1.2586
  206MOL0     H27769   4.076   0.099   4.249  0.1971  0.9049 -0.2506
  206MOL0     H27770   3.929   0.072   4.663  0.5865  1.1682 -0.9504
  206MOL0     H27771   3.701   0.017   4.718 -0.7109 -1.8243  0.5830
  206MOL0     H27772   3.299  -0.260   4.676  0.5530 -0.1961 -0.9031
  206MOL0     H27773   3.050  -0.303   4.675 -0.8472 -2.2213 -1.5115
  206MOL0     H27774   2.731  -0.343   4.578 -0.2002 -0.9365  0.3667
  206MOL0     H27775   2.849  -0.267   4.672  1.6533 -1.0933 -1.6081
  206MOL0     H27776   2.754  -0.036   4.579 -1.2328  1.0511  0.0637
  206MOL0     H27777   2.637  -0.143   4.498  1.6649  0.0926 -1.1165
  206MOL0     H27778   2.593  -0.028   4.745  1.4240 -0.3636  0.4023
  206MOL0     H27779   2.506  -0.160   4.676 -2.4156  3.5817  0.2318
  206MOL0     H27780   2.748  -0.177   4.854  0.6630  1.9840 -3.1168
  206MOL0     H27781   2.644  -0.317   4.809  2.7273  0.4607 -0.6656
  206MOL0     H27782   2.563  -0.290   5.018  1.0039 -1.1170 -0.7337
  206MOL0     H27783   2.446  -0.235   4.899  0.6304 -3.9286 -0.8860
  206MOL0     H27784   2.649  -0.080   5.068  1.2043 -0.0128 -2.6675
  206MOL0     H27785   2.539   0.008   4.985  1.3663 -0.4287 -0.1372
  206MOL0     H27786   2.462  -0.186   5.202  2.1634 -0.0346  0.3755
  206MOL0     H27787   2.347  -0.106   5.091  1.0093 -0.9070 -1.1390
  206MOL0     H27788   2.549   0.067   5.252  1.6217 -3.2716 -0.9088
  206MOL0     H27789   2.411   0.126   5.164  3.1432  2.1800  0.4856
  206MOL0     H27790   3.021  -0.138   4.283  0.6609 -1.7090 -0.9656
  206MOL0     H27791   3.258  -0.101   4.285  0.2682  0.4720 -0.4521
  206MOL0     H27792   3.650  -0.115   4.315  1.9511  1.2240 -1.5626
  206MOL0     H27793   3.880  -0.079   4.259  0.8219 -0.1189  0.1977
  206MOL0     H27794   5.484   0.390   3.455  0.1994  0.1433 -0.9816
  206MOL0     H27795   5.631   0.526   3.320  0.0974  0.6204  2.4619
  206MOL0     H27796   5.974   0.726   3.241 -1.5764  0.1987 -1.5823
  206MOL0     H27797   6.107   0.879   3.138 -0.8094  0.2382 -1.4945
  206MOL0     H27798   6.300   1.004   3.036 -0.5970 -0.7926  0.1521
  206MOL0     H27799   6.146   0.984   2.947 -0.1189 -1.6794  2.3432
  206MOL0     H27800   6.259   1.148   2.816 -1.0057 -0.2387 -0.5885
  206MOL0     H27801   6.291   0.995   2.734  1.0443 -0.0293 -0.5756
  206MOL0     H27802   6.490   0.953   2.796 -2.2351 -0.9523 -3.1497
  206MOL0     H27803   6.494   1.083   2.921 -1.9445 -1.6241 -0.2174
  206MOL0     H27804   6.473   1.144   2.626 -2.0780  0.7263  1.0717
  206MOL0     H27805   6.476   1.261   2.754 -1.6687  0.2191 -1.6941
  206MOL0     H27806   6.890   1.154   2.742 -0.5970  0.8003 -0.7919
  206MOL0     H27807   6.335   0.576   2.947  1.6927 -1.2672  4.6152
  206MOL0     H27808   6.291   0.346   3.005  0.2483  2.3959 -0.2799
  206MOL0     H27809   6.145   0.306   3.096 -0.9879  0.0971 -0.7303
  206MOL0     H27810   6.136   0.351   2.922 -2.5857 -0.1373  0.0244
  207MOL0     O27811   1.468   1.574   2.488  0.2557 -0.0769 -0.0013
  207MOL0     C27812   1.522   1.615   2.388 -0.0052  0.5332  0.8172
  207MOL0     O27813   1.470   1.609   2.267 -0.5276 -0.2177 -0.1002
  207MOL0     C27814   1.338   1.600   2.234 -0.0300 -0.0806 -0.2516
  207MOL0     C27815   1.235   1.552   2.317  1.5135  0.4927 -0.4484
  207MOL0     C27816   1.102   1.567   2.282 -0.0299 -0.3837 -0.3979
  207MOL0     C27817   1.057   1.621   2.162  0.8354 -0.1601  0.4893
  207MOL0     O27818   0.929   1.637   2.125  0.1593 -0.2951  0.4091
  207MOL0     C27819   0.820   1.594   2.207  0.3418  0.3517  0.9591
  207MOL0     C27820   0.690   1.648   2.143  0.6394 -0.5074  0.6357
  207MOL0     C27821   0.684   1.619   1.987 -0.2314 -0.4534 -0.3047
  207MOL0     C27822   0.567   1.694   1.917 -0.1860 -0.2492 -1.0133
  207MOL0     C27823   0.521   1.635   1.785 -0.3599 -0.0506 -0.0144
  207MOL0     C27824   0.622   1.666   1.670 -0.7583 -1.1022  0.9261
  207MOL0     C27825   0.576   1.588   1.546 -0.1494  0.4894 -0.0490
  207MOL0     C27826   0.674   1.613   1.422  0.2240  0.0819  0.8690
  207MOL0     N27827   0.816   1.584   1.451  0.2283 -0.5906  1.1534
  207MOL0     C27828   0.914   1.677   1.460  0.4769  0.1366 -0.2115
  207MOL0     C27829   1.029   1.605   1.447  0.5320 -0.7410 -0.6416
  207MOL0     C27830   1.166   1.673   1.456  0.5413 -0.1538 -0.0042
  207MOL0     C27831   1.226   1.630   1.590  0.4860  0.3278 -0.2917
  207MOL0     C27832   1.287   1.483   1.588 -0.0555 -0.7194  0.0754
  207MOL0     C27833   1.406   1.467   1.497 -0.5920 -0.5626 -0.1967
  207MOL0     O27834   1.516   1.530   1.554 -0.1037 -0.4164  0.4686
  207MOL0     C27835   1.605   1.465   1.637 -0.2639 -0.0220 -0.4659
  207MOL0     C27836   1.604   1.330   1.673  0.6072 -0.4932 -0.2204
  207MOL0     C27837   1.700   1.274   1.759 -0.0840 -0.7992  0.4965
  207MOL0     C27838   1.799   1.354   1.807  0.5423  0.1891 -0.2017
  207MOL0     C27839   1.904   1.297   1.894  1.0054  0.5193  0.1175
  207MOL0     O27840   1.977   1.392   1.964  0.1097 -0.0790  0.1368
  207MOL0     C27841   2.097   1.358   2.010 -0.0647  0.2190 -0.3843
  207MOL0     C27842   2.117   1.280   2.123 -0.6733  0.6492 -0.0335
  207MOL0     C27843   2.249   1.248   2.161 -0.2560  0.1992 -0.1180
  207MOL0     C27844   2.358   1.290   2.082  0.2162  0.4911 -0.7197
  207MOL0     O27845   2.491   1.263   2.106  0.3322  0.4494 -0.3000
  207MOL0     C27846   2.530   1.173   2.212 -0.0374  0.5387 -0.8131
  207MOL0     C27847   2.675   1.125   2.189  0.2028 -0.9097 -0.0034
  207MOL0     C27848   2.725   1.095   2.044  0.4306  0.5754  0.3512
  207MOL0     C27849   2.861   1.032   2.042 -0.5030 -0.1602 -0.7630
  207MOL0     C27850   2.919   1.024   1.899  0.0969  0.1244 -0.6686
  207MOL0     C27851   3.078   1.019   1.897 -0.2854  0.6394 -0.2671
  207MOL0     C27852   3.132   0.882   1.962  0.2480  0.5418  0.7417
  207MOL0     C27853   3.253   0.825   1.893 -0.3996 -0.2576  0.1828
  207MOL0    Cl27854   3.404   0.920   1.919  0.0150  0.3009 -0.1198
  207MOL0     C27855   2.336   1.361   1.964  1.0258  0.4292  0.2800
  207MOL0     C27856   2.203   1.396   1.927  0.2288  0.5577 -0.1227
  207MOL0     O27857   1.923   1.173   1.893 -0.0210  0.0857  0.5838
  207MOL0     C27858   1.793   1.493   1.776 -0.3172  0.0098 -0.1645
  207MOL0     C27859   1.701   1.544   1.690  0.3990  0.1569 -0.5773
  207MOL0     N27860   0.996   1.476   1.428  0.1426  0.4640  1.1229
  207MOL0     N27861   0.869   1.466   1.430 -0.4927  0.0401 -0.2958
  207MOL0     C27862   1.161   1.687   2.093  0.7390  0.4896 -0.0302
  207MOL0     C27863   1.298   1.676   2.125 -0.6255 -0.8400 -0.0186
  207MOL0     C27864   1.669   1.637   2.385 -0.2523  1.1915 -0.2139
  207MOL0     C27865   1.723   1.672   2.510  0.2926  0.8738 -0.0235
  207MOL0     C27866   1.858   1.691   2.531 -0.4269  0.5384 -0.2265
  207MOL0     C27867   1.949   1.660   2.424  0.7122  0.2298 -1.2024
  207MOL0     O27868   2.077   1.687   2.452 -0.4347 -0.1147  0.4633
  207MOL0     C27869   2.180   1.643   2.361  0.4769 -0.1258  0.5401
  207MOL0     C27870   2.313   1.708   2.377 -0.6581 -0.1466 -0.1625
  207MOL0     C27871   2.413   1.643   2.291  0.3753  0.4259 -0.2207
  207MOL0     C27872   2.406   1.684   2.143  0.1832 -0.2493 -0.0093
  207MOL0     C27873   2.511   1.622   2.066  0.4103  0.8371 -0.3689
  207MOL0     C27874   2.598   1.552   2.014  0.8282  0.1256 -0.1160
  207MOL0     C27875   1.891   1.616   2.299  0.4667  0.2607 -1.0105
  207MOL0     C27876   1.755   1.611   2.276 -0.8569 -0.4192  0.7824
  207MOL0     C27877   1.707   1.544   2.149 -0.1367  0.0948 -0.0116
  207MOL0     H27878   1.249   1.493   2.407  1.0690 -1.1313 -1.3896
  207MOL0     H27879   1.021   1.520   2.336 -1.2919  1.7096 -0.3615
  207MOL0     H27880   0.824   1.484   2.207  0.6452  0.3580  0.3824
  207MOL0     H27881   0.832   1.626   2.310  1.7307 -1.8097  1.5233
  207MOL0     H27882   0.688   1.753   2.172  3.0845 -1.1305  3.6174
  207MOL0     H27883   0.609   1.588   2.187 -0.7648  0.1860 -0.9072
  207MOL0     H27884   0.673   1.511   1.984 -0.7246 -0.5994  3.0330
  207MOL0     H27885   0.777   1.653   1.941 -0.8621 -0.1195 -1.3848
  207MOL0     H27886   0.482   1.692   1.986 -0.3793 -0.6780 -1.2599
  207MOL0     H27887   0.593   1.799   1.900 -0.8643  0.1999  0.5261
  207MOL0     H27888   0.500   1.530   1.806 -0.6343  0.0426  0.1863
  207MOL0     H27889   0.429   1.691   1.761 -1.2866 -1.6692 -0.3963
  207MOL0     H27890   0.616   1.772   1.646  1.9232 -0.6346  2.0567
  207MOL0     H27891   0.723   1.633   1.695 -0.8504 -2.6349 -0.5373
  207MOL0     H27892   0.470   1.606   1.527 -1.0177 -0.8331  3.0290
  207MOL0     H27893   0.586   1.482   1.572  1.4246  0.9285  1.2804
  207MOL0     H27894   0.634   1.557   1.337  1.9017 -0.3353  0.3251
  207MOL0     H27895   0.674   1.721   1.403  1.8450  0.0646  0.6939
  207MOL0     H27896   0.905   1.785   1.466  3.3255  0.4175  0.8655
  207MOL0     H27897   1.220   1.643   1.366 -2.2286 -1.0712 -1.4818
  207MOL0     H27898   1.153   1.782   1.455 -1.5025 -0.2817  2.4224
  207MOL0     H27899   1.307   1.698   1.620 -0.1488  1.0028 -0.0743
  207MOL0     H27900   1.150   1.645   1.667  0.4852  2.1788 -0.6029
  207MOL0     H27901   1.220   1.402   1.560 -0.3969 -0.6223  0.6087
  207MOL0     H27902   1.310   1.456   1.691 -1.0861 -1.6251  0.0866
  207MOL0     H27903   1.381   1.523   1.407 -1.0149 -2.6018 -1.4044
  207MOL0     H27904   1.429   1.366   1.463  1.0118  0.3201 -1.9365
  207MOL0     H27905   1.531   1.260   1.631  1.5451 -0.1171 -2.6665
  207MOL0     H27906   1.693   1.167   1.773  0.1626 -0.6503  1.9692
  207MOL0     H27907   2.032   1.237   2.176  1.2112 -1.4429  1.4767
  207MOL0     H27908   2.281   1.199   2.252  0.8745  0.3012 -0.4329
  207MOL0     H27909   2.504   1.229   2.302 -0.5061  1.2322 -1.3698
  207MOL0     H27910   2.467   1.083   2.203  1.1210 -0.4723  0.6319
  207MOL0     H27911   2.744   1.199   2.231 -1.3847  0.3466  0.4726
  207MOL0     H27912   2.679   1.035   2.252 -0.1031 -0.8497  0.1038
  207MOL0     H27913   2.659   1.024   1.994  2.7297 -1.3823 -0.0749
  207MOL0     H27914   2.733   1.185   1.982 -1.2556  1.3583  1.1743
  207MOL0     H27915   2.861   0.931   2.085 -0.9684  0.0667 -0.2266
  207MOL0     H27916   2.927   1.102   2.095 -0.2366  0.7486 -2.2423
  207MOL0     H27917   2.897   1.114   1.840  2.1638 -0.2042 -2.0775
  207MOL0     H27918   2.868   0.940   1.852  1.9662 -1.0589 -0.7044
  207MOL0     H27919   3.127   1.036   1.802 -0.4528  0.6989 -0.3435
  207MOL0     H27920   3.110   1.097   1.967 -0.1142 -0.3739  0.8084
  207MOL0     H27921   3.042   0.820   1.969  1.1893 -0.9289  0.3132
  207MOL0     H27922   3.167   0.897   2.064 -0.5214 -2.0385  1.4656
  207MOL0     H27923   3.267   0.720   1.920  0.6633 -0.5149 -1.3098
  207MOL0     H27924   3.234   0.833   1.786 -2.4258  3.0329  0.6560
  207MOL0     H27925   2.413   1.395   1.896  0.4405 -2.4556 -2.0707
  207MOL0     H27926   2.181   1.446   1.834  2.9604 -2.2133 -2.4764
  207MOL0     H27927   1.876   1.557   1.804  1.6977 -1.5970 -2.0055
  207MOL0     H27928   1.697   1.649   1.664 -0.4668  0.0867 -0.7459
  207MOL0     H27929   1.145   1.750   2.007  2.1037  0.3833 -0.3764
  207MOL0     H27930   1.368   1.751   2.090 -2.4411  0.1912 -1.6059
  207MOL0     H27931   1.656   1.675   2.595  0.7678 -2.9823  0.6781
  207MOL0     H27932   1.893   1.704   2.633  1.0259 -2.7593 -0.1868
  207MOL0     H27933   2.150   1.670   2.259 -5.0719 -2.4351  1.1933
  207MOL0     H27934   2.186   1.534   2.370 -0.3438 -0.1808  0.5156
  207MOL0     H27935   2.350   1.715   2.480  2.1067 -0.7048 -1.0366
  207MOL0     H27936   2.297   1.807   2.333 -2.3132 -0.5408 -0.5293
  207MOL0     H27937   2.425   1.534   2.299  0.5070  0.2868 -1.9133
  207MOL0     H27938   2.510   1.679   2.328 -0.9622  1.0544  3.0454
  207MOL0     H27939   2.307   1.659   2.102 -0.2987  3.5270 -1.4924
  207MOL0     H27940   2.420   1.791   2.129 -0.6996 -0.3434 -1.8523
  207MOL0     H27941   2.674   1.491   1.969  1.2493 -0.7847  1.7568
  207MOL0     H27942   1.951   1.585   2.214  0.5285  1.4260 -1.4083
  207MOL0     H27943   1.640   1.608   2.093  0.4897  1.7004  0.9910
  207MOL0     H27944   1.791   1.541   2.079 -1.3365  1.8094 -1.6060
  207MOL0     H27945   1.672   1.441   2.161  0.1472 -0.2840 -2.1767
  208MOL0     O27946   8.218   4.557   4.675  0.3467 -0.0451 -0.6192
  208MOL0     C27947   8.166   4.612   4.581 -1.1220  0.3936  0.0490
  208MOL0     O27948   8.228   4.632   4.455 -0.2326  0.0810 -0.7383
  208MOL0     C27949   8.365   4.631   4.443 -0.4931 -0.1769  0.0551
  208MOL0     C27950   8.431   4.757   4.457 -0.1220 -0.3344 -0.0589
  208MOL0     C27951   8.569   4.768   4.462 -0.5793  0.2832 -0.2528
  208MOL0     C27952   8.649   4.654   4.432 -0.0445 -0.2373  0.4223
  208MOL0     O27953   8.784   4.659   4.404 -0.5118  0.4676 -0.7140
  208MOL0     C27954   8.859   4.783   4.410  0.1542 -0.6587 -0.1695
  208MOL0     C27955   8.995   4.739   4.353  0.9236  0.7303 -0.5498
  208MOL0     C27956   9.099   4.840   4.375 -1.2021 -0.4224 -0.0476
  208MOL0     C27957   9.223   4.786   4.304  0.0749 -0.6211 -0.8402
  208MOL0     C27958   9.345   4.886   4.305 -1.0257 -0.0765  0.8870
  208MOL0     C27959   9.437   4.847   4.410  0.0867  0.1108 -0.6240
  208MOL0     C27960   9.532   4.962   4.446  0.1900  0.1993  0.1798
  208MOL0     C27961   9.633   4.919   4.553 -0.7997 -0.1055 -0.5672
  208MOL0     N27962   9.716   5.030   4.584 -1.2099 -0.2026  0.0460
  208MOL0     C27963   9.689   5.148   4.653  0.3961 -0.1590 -0.2592
  208MOL0     C27964   9.798   5.222   4.634 -0.2442  0.7684  0.6144
  208MOL0     C27965   9.843   5.364   4.677 -0.0415  0.8426 -0.1881
  208MOL0     C27966   9.812   5.386   4.824 -0.0405  0.6212 -0.3248
  208MOL0     C27967   9.872   5.272   4.909 -0.0839  0.0157 -0.0854
  208MOL0     C27968   9.936   5.324   5.039  0.0163 -1.0265  0.0898
  208MOL0     O27969  10.027   5.429   5.006 -0.1959 -0.2294 -0.0428
  208MOL0     C27970  10.160   5.379   5.021  0.5644 -1.1551  0.0550
  208MOL0     C27971  10.213   5.338   5.146  0.1632 -0.0076  0.2854
  208MOL0     C27972  10.344   5.296   5.153  0.2570  0.9823  0.3479
  208MOL0     C27973  10.425   5.283   5.042 -0.5104 -0.2639  0.8107
  208MOL0     C27974  10.559   5.233   5.056 -0.4176 -0.3910  0.2263
  208MOL0     O27975  10.595   5.198   5.186 -0.2653  0.4476  0.4956
  208MOL0     C27976  10.726   5.165   5.198  0.3911  0.3724 -0.4647
  208MOL0     C27977  10.766   5.034   5.217  0.7821  0.0832 -0.0543
  208MOL0     C27978  10.900   5.003   5.248  0.4326 -0.8706  0.2200
  208MOL0     C27979  10.992   5.101   5.272  0.2345  0.0461 -0.7333
  208MOL0     O27980  11.118   5.059   5.320  0.5454 -0.3295  0.0578
  208MOL0     C27981  11.236   5.127   5.272  0.5166 -0.8713  0.4193
  208MOL0     C27982  11.361   5.082   5.342  0.9340  0.5147 -0.4888
  208MOL0     C27983  11.470   5.151   5.265 -0.3445 -0.3828  0.4422
  208MOL0     C27984  11.593   5.140   5.355  0.3593  0.1845  0.4308
  208MOL0     C27985  11.717   5.219   5.307  0.1303 -0.3035 -0.2228
  208MOL0     C27986  11.835   5.219   5.403 -0.3336 -0.0036 -0.4376
  208MOL0     C27987  11.937   5.328   5.370 -0.4860 -0.0634  0.2708
  208MOL0     C27988  12.062   5.317   5.462  0.7047  0.7218  0.3613
  208MOL0    Cl27989  12.195   5.205   5.394  0.2265  0.2920  0.1342
  208MOL0     C27990  10.962   5.242   5.240  0.2294 -0.3821 -0.7642
  208MOL0     C27991  10.828   5.271   5.205 -0.3148  0.5650  0.6759
  208MOL0     O27992  10.639   5.241   4.957 -0.4527  0.1165 -0.4645
  208MOL0     C27993  10.372   5.320   4.918  0.2793 -0.7363  0.5830
  208MOL0     C27994  10.241   5.362   4.908 -0.1531  1.4777  0.7792
  208MOL0     N27995   9.896   5.140   4.558 -0.8145  0.3474 -0.1979
  208MOL0     N27996   9.838   5.030   4.526  0.1624  0.3764  0.3418
  208MOL0     C27997   8.584   4.528   4.412  0.1112 -0.9616  1.0312
  208MOL0     C27998   8.446   4.521   4.431  0.8134  0.2751  0.6916
  208MOL0     C27999   8.027   4.662   4.607 -0.3435 -0.5612  0.0494
  208MOL0     C28000   7.981   4.772   4.530 -0.0853 -0.4782  0.1835
  208MOL0     C28001   7.852   4.824   4.542 -0.0313 -0.9021 -0.6964
  208MOL0     C28002   7.764   4.768   4.633  1.1023  0.5668  0.2104
  208MOL0     O28003   7.645   4.839   4.635  0.5010  0.2700 -0.0814
  208MOL0     C28004   7.576   4.846   4.759 -0.5830 -0.2548  0.9334
  208MOL0     C28005   7.426   4.839   4.739  0.5570  0.1874 -0.0510
  208MOL0     C28006   7.378   4.710   4.653  0.0683  0.1871  0.3218
  208MOL0     C28007   7.226   4.691   4.651 -0.1674  0.0928 -0.6377
  208MOL0     C28008   7.155   4.758   4.544 -0.1578 -0.4710  0.0333
  208MOL0     C28009   7.097   4.802   4.449  0.2482  0.1689  0.0702
  208MOL0     C28010   7.801   4.659   4.708 -0.0983  0.0859  0.4038
  208MOL0     C28011   7.929   4.604   4.691 -0.7321  0.3780  0.0420
  208MOL0     C28012   7.963   4.479   4.776 -0.7187  0.0337  0.0243
  208MOL0     H28013   8.370   4.846   4.474 -1.4105 -1.5194  1.8555
  208MOL0     H28014   8.615   4.863   4.488  0.4613 -0.7217  1.8486
  208MOL0     H28015   8.815   4.857   4.342 -2.3770  0.0170  2.0393
  208MOL0     H28016   8.867   4.830   4.509  3.1361 -2.5805  0.6355
  208MOL0     H28017   8.977   4.703   4.251  1.3010  0.1562 -0.4220
  208MOL0     H28018   9.024   4.645   4.402 -1.9371  0.3790  0.6738
  208MOL0     H28019   9.121   4.836   4.482 -0.8190 -0.2100 -0.1137
  208MOL0     H28020   9.070   4.942   4.349 -0.7871 -0.2846  0.0274
  208MOL0     H28021   9.246   4.686   4.343 -3.0381 -0.5960  1.3851
  208MOL0     H28022   9.195   4.776   4.199  0.7161 -0.4939 -1.0318
  208MOL0     H28023   9.389   4.899   4.205 -3.2471  2.6223  0.1352
  208MOL0     H28024   9.301   4.982   4.333  1.8668  1.7646 -0.4761
  208MOL0     H28025   9.383   4.828   4.503  0.5513 -2.7095 -0.8421
  208MOL0     H28026   9.476   4.748   4.384 -0.6663  0.0125 -1.4578
  208MOL0     H28027   9.480   5.050   4.483  0.2162 -0.2120  1.2177
  208MOL0     H28028   9.588   4.983   4.354 -1.2584  2.1067 -0.3084
  208MOL0     H28029   9.582   4.877   4.640  0.1181  1.7371  0.9282
  208MOL0     H28030   9.706   4.844   4.519  1.6808  1.1572  1.5677
  208MOL0     H28031   9.597   5.173   4.703  0.6644 -3.3280  2.1696
  208MOL0     H28032   9.951   5.382   4.671  0.3106 -0.7278  0.8309
  208MOL0     H28033   9.786   5.436   4.617 -2.0777  0.9270  1.7401
  208MOL0     H28034   9.866   5.479   4.846  1.1745 -0.3185  0.7833
  208MOL0     H28035   9.705   5.400   4.844 -0.2431 -1.3573  0.0925
  208MOL0     H28036   9.937   5.206   4.851 -1.2519  0.2141 -1.7020
  208MOL0     H28037   9.795   5.201   4.941  2.8211 -4.3190 -1.7312
  208MOL0     H28038   9.969   5.235   5.093 -0.0010  0.3067  2.3843
  208MOL0     H28039   9.863   5.372   5.104  1.5255  2.8137 -0.7666
  208MOL0     H28040  10.151   5.345   5.235  0.6694  0.6531  0.5978
  208MOL0     H28041  10.381   5.264   5.250  0.4880 -1.3576 -0.4484
  208MOL0     H28042  10.692   4.956   5.210 -0.4672  1.3729 -2.7846
  208MOL0     H28043  10.946   4.909   5.276 -4.3506 -3.7954 -0.5517
  208MOL0     H28044  11.232   5.127   5.162 -3.9524  0.1581  0.3845
  208MOL0     H28045  11.227   5.235   5.285  1.1261 -0.2148 -3.4546
  208MOL0     H28046  11.364   5.102   5.450  3.1154 -1.1119 -0.1744
  208MOL0     H28047  11.366   4.973   5.336  2.3799  0.4499  1.0304
  208MOL0     H28048  11.485   5.109   5.166  0.2030 -0.2176  0.4476
  208MOL0     H28049  11.449   5.257   5.252 -1.3969 -0.0545  3.8069
  208MOL0     H28050  11.621   5.035   5.372 -2.7299 -0.5317  1.8388
  208MOL0     H28051  11.559   5.186   5.448 -1.0163  0.9157 -0.4034
  208MOL0     H28052  11.687   5.324   5.294 -1.6301 -0.9015 -1.3745
  208MOL0     H28053  11.735   5.178   5.207  0.8470  0.4689 -0.4253
  208MOL0     H28054  11.786   5.226   5.501 -0.0315  2.3013 -0.3870
  208MOL0     H28055  11.893   5.127   5.410  0.9001  0.8636  2.9185
  208MOL0     H28056  11.895   5.428   5.387  0.1627  0.8461 -2.7842
  208MOL0     H28057  11.968   5.317   5.266 -0.3691  0.8668  0.2011
  208MOL0     H28058  12.094   5.422   5.464 -0.8249  1.2050  1.5319
  208MOL0     H28059  12.037   5.299   5.567 -1.4267 -1.6302 -0.4533
  208MOL0     H28060  11.030   5.321   5.271  1.2930 -1.8192  0.7788
  208MOL0     H28061  10.791   5.371   5.184 -0.6725 -0.1654 -2.6109
  208MOL0     H28062  10.430   5.305   4.827  0.5437 -3.0284  1.0737
  208MOL0     H28063  10.194   5.378   4.811 -0.4320 -1.9587  0.2175
  208MOL0     H28064   8.639   4.442   4.375 -0.2394  0.1284 -2.3056
  208MOL0     H28065   8.400   4.423   4.443 -0.3966  1.1617  4.7368
  208MOL0     H28066   8.054   4.803   4.456  0.5461 -0.5985  0.7464
  208MOL0     H28067   7.816   4.904   4.478 -1.2428 -1.8709 -1.2648
  208MOL0     H28068   7.610   4.944   4.793  0.3036 -0.2448  0.0885
  208MOL0     H28069   7.611   4.782   4.840 -0.2712  0.0794  1.0616
  208MOL0     H28070   7.402   4.925   4.676 -2.1173 -0.0869  0.4664
  208MOL0     H28071   7.369   4.849   4.832  0.6312 -3.7119  0.5974
  208MOL0     H28072   7.427   4.621   4.692  0.3010 -0.4478 -1.3251
  208MOL0     H28073   7.414   4.717   4.550  1.3327  0.9624  0.7875
  208MOL0     H28074   7.198   4.586   4.639  0.4535 -0.4929  2.2455
  208MOL0     H28075   7.178   4.720   4.745  1.3590 -0.3067  0.3042
  208MOL0     H28076   7.049   4.846   4.364 -2.8876 -1.4397  0.8439
  208MOL0     H28077   7.732   4.601   4.768  0.6851 -2.0713 -0.6477
  208MOL0     H28078   8.006   4.399   4.715 -1.1564  1.1649 -1.8527
  208MOL0     H28079   8.048   4.501   4.841 -2.4549 -0.7020  2.7386
  208MOL0     H28080   7.886   4.431   4.838  1.2070 -5.9026 -1.4639
  209MOL0     O28081  10.716   9.636   4.059  0.1896 -0.7038  0.0917
  209MOL0     C28082  10.624   9.646   3.977  0.8460  0.1262  0.3380
  209MOL0     O28083  10.643   9.671   3.840 -0.4244 -0.0820 -0.1609
  209MOL0     C28084  10.769   9.705   3.807  0.0354 -0.0573  0.4394
  209MOL0     C28085  10.821   9.827   3.849  0.2133  0.2058  0.2344
  209MOL0     C28086  10.953   9.853   3.814 -0.2564 -0.7041 -0.2606
  209MOL0     C28087  11.040   9.769   3.743  1.6553  0.3166  0.2383
  209MOL0     O28088  11.166   9.812   3.744 -0.8342  0.0391 -0.1500
  209MOL0     C28089  11.274   9.724   3.689  0.7165 -0.5664 -0.6027
  209MOL0     C28090  11.389   9.825   3.659  0.2488 -0.0274  0.3830
  209MOL0     C28091  11.495   9.744   3.575  0.4340  0.5628 -0.5729
  209MOL0     C28092  11.626   9.818   3.597 -0.2811  0.7007  0.7293
  209MOL0     C28093  11.644   9.955   3.545  0.1766 -0.6879  0.5919
  209MOL0     C28094  11.779  10.006   3.566  0.7151  0.1537 -0.3175
  209MOL0     C28095  11.811  10.124   3.469 -0.7263 -0.1693  0.7660
  209MOL0     C28096  11.970  10.161   3.459  0.2029 -0.3577  0.2185
  209MOL0     N28097  12.035  10.045   3.398  0.2037 -0.3965  0.3832
  209MOL0     C28098  12.169  10.033   3.416  0.2532  0.1834 -0.6553
  209MOL0     C28099  12.203   9.937   3.327  1.2051 -0.1889 -0.3202
  209MOL0     C28100  12.331   9.871   3.333 -0.7312 -0.0910  0.5796
  209MOL0     C28101  12.450   9.961   3.351  0.2335 -0.7999 -0.1016
  209MOL0     C28102  12.576   9.874   3.357 -0.8549 -0.4143  1.0415
  209MOL0     C28103  12.700   9.963   3.351  0.8948 -0.2709 -0.0821
  209MOL0     O28104  12.816   9.878   3.380 -0.9123 -0.1658 -0.2847
  209MOL0     C28105  12.941   9.935   3.381 -0.0934 -0.3946  0.1813
  209MOL0     C28106  12.972  10.070   3.392  0.8195 -0.4714  0.5234
  209MOL0     C28107  13.092  10.122   3.382 -0.3512  0.1050  0.4785
  209MOL0     C28108  13.200  10.037   3.352  0.0798 -0.4194 -0.2829
  209MOL0     C28109  13.338  10.098   3.337 -0.8658 -0.0312 -0.5762
  209MOL0     O28110  13.439  10.008   3.333  0.4947  0.5934  0.0983
  209MOL0     C28111  13.573  10.039   3.315 -0.1834  0.5733 -0.7207
  209MOL0     C28112  13.627  10.161   3.262  0.0567  0.7916  0.0102
  209MOL0     C28113  13.770  10.173   3.255 -0.1636 -0.1620 -0.3446
  209MOL0     C28114  13.853  10.068   3.295 -0.5963  0.6394  0.4128
  209MOL0     O28115  13.992  10.097   3.289  0.3855 -0.3256 -0.3568
  209MOL0     C28116  14.078   9.989   3.299 -0.0956 -0.2304  0.4492
  209MOL0     C28117  14.220  10.037   3.260  1.0610 -0.7136 -0.3728
  209MOL0     C28118  14.297   9.927   3.193  0.8182 -0.0328  0.3506
  209MOL0     C28119  14.438   9.974   3.163 -1.0178 -0.4731 -0.1550
  209MOL0     C28120  14.531   9.872   3.112  0.0081 -0.5066 -0.0961
  209MOL0     C28121  14.685   9.891   3.129 -0.2715 -0.3487  0.0255
  209MOL0     C28122  14.741  10.030   3.084  0.1047 -0.0339  0.2724
  209MOL0     C28123  14.887  10.059   3.113 -0.4605  0.8154 -0.2494
  209MOL0    Cl28124  14.992   9.965   2.997 -0.0273 -0.1601  0.0365
  209MOL0     C28125  13.793   9.945   3.333  0.1616 -0.7454 -0.4871
  209MOL0     C28126  13.661   9.933   3.347 -0.6441  0.5105 -0.3840
  209MOL0     O28127  13.349  10.222   3.338  0.6099 -0.1307 -0.3547
  209MOL0     C28128  13.183   9.900   3.357  1.0865 -0.8990  0.7754
  209MOL0     C28129  13.048   9.843   3.366  0.0353  0.0117  0.3844
  209MOL0     N28130  12.087   9.890   3.263  0.3519  0.3797 -0.7266
  209MOL0     N28131  11.986   9.964   3.303  0.1833 -0.4212 -0.4317
  209MOL0     C28132  10.982   9.645   3.696 -0.4255 -0.1561 -0.0060
  209MOL0     C28133  10.845   9.626   3.723 -0.0030 -0.3230 -0.3524
  209MOL0     C28134  10.493   9.618   4.017  1.3987  0.5156  0.3749
  209MOL0     C28135  10.472   9.551   4.139  0.2926 -0.9151  0.2005
  209MOL0     C28136  10.350   9.505   4.179 -0.5780  0.6574 -0.5212
  209MOL0     C28137  10.236   9.514   4.105 -0.8349  0.6142  0.4004
  209MOL0     O28138  10.120   9.442   4.154  0.3882 -0.7306  0.6257
  209MOL0     C28139   9.995   9.474   4.096 -0.1176 -0.4199 -0.1264
  209MOL0     C28140   9.892   9.462   4.215  0.3209 -0.0788  0.6674
  209MOL0     C28141   9.761   9.523   4.176  0.2849  0.0119 -0.3131
  209MOL0     C28142   9.664   9.433   4.105 -0.1852 -0.4857  0.2530
  209MOL0     C28143   9.532   9.498   4.083  0.4914 -0.8378  0.5217
  209MOL0     C28144   9.415   9.538   4.068  0.2086 -0.5692 -0.3549
  209MOL0     C28145  10.249   9.584   3.979  0.0723 -0.0080 -0.2189
  209MOL0     C28146  10.380   9.638   3.940 -0.2636 -0.3578 -0.0280
  209MOL0     C28147  10.378   9.692   3.804  0.1082 -0.8691  0.1276
  209MOL0     H28148  10.759   9.888   3.914  1.4604  0.1385  1.5605
  209MOL0     H28149  11.001   9.937   3.865 -2.7035  0.8109 -0.2802
  209MOL0     H28150  11.295   9.643   3.759 -1.1362 -2.9735 -2.6604
  209MOL0     H28151  11.240   9.679   3.595 -2.6378  0.5015 -0.0410
  209MOL0     H28152  11.428   9.873   3.750  0.5536 -0.0776  0.2813
  209MOL0     H28153  11.351   9.907   3.599 -2.8683 -0.5246  1.4960
  209MOL0     H28154  11.459   9.770   3.475 -0.2681  1.6765 -0.0437
  209MOL0     H28155  11.504   9.635   3.587 -1.4925  0.4606  0.2632
  209MOL0     H28156  11.665   9.808   3.699  0.3148 -3.8127  0.2867
  209MOL0     H28157  11.698   9.757   3.541  0.4050  2.0801  0.0748
  209MOL0     H28158  11.620   9.947   3.439  1.3958  0.4489  0.2160
  209MOL0     H28159  11.568  10.024   3.585  0.2846  0.9771 -1.8902
  209MOL0     H28160  11.781  10.039   3.670 -1.8404 -1.0858  0.2167
  209MOL0     H28161  11.850   9.922   3.563  0.7172  0.1260  0.3074
  209MOL0     H28162  11.756  10.204   3.520 -2.1686 -1.1446  0.8005
  209MOL0     H28163  11.755  10.110   3.376 -3.6213 -0.5173  2.4542
  209MOL0     H28164  11.970  10.251   3.397 -1.5181  1.4177  2.6347
  209MOL0     H28165  12.011  10.188   3.557  1.3038 -1.6913  0.1678
  209MOL0     H28166  12.232  10.082   3.490 -1.1652  2.0788 -0.6134
  209MOL0     H28167  12.325   9.804   3.419 -2.8506 -3.6982 -2.0511
  209MOL0     H28168  12.338   9.810   3.242 -0.2165  0.3064  0.3469
  209MOL0     H28169  12.463  10.018   3.258 -0.3854 -1.7218 -0.7704
  209MOL0     H28170  12.418  10.020   3.437 -1.3326 -0.3735 -0.9195
  209MOL0     H28171  12.572   9.801   3.275 -1.5631  0.1913  0.5314
  209MOL0     H28172  12.580   9.811   3.447  0.9072 -2.1491 -0.1553
  209MOL0     H28173  12.703  10.040   3.429  0.0700 -0.3287  0.0108
  209MOL0     H28174  12.695  10.007   3.250 -3.4570 -1.6867 -0.6815
  209MOL0     H28175  12.890  10.140   3.407  1.1593 -0.1755  1.0366
  209MOL0     H28176  13.109  10.229   3.385  0.1954  0.1493 -1.7262
  209MOL0     H28177  13.564  10.241   3.225  0.6208  0.6517 -1.3226
  209MOL0     H28178  13.822  10.262   3.222 -1.2166  0.9929  1.0228
  209MOL0     H28179  14.077   9.934   3.393  0.0464 -3.4298 -1.2925
  209MOL0     H28180  14.053   9.915   3.223 -0.4240  1.8129 -1.5439
  209MOL0     H28181  14.208  10.120   3.189  3.1020 -0.1202 -0.1010
  209MOL0     H28182  14.271  10.075   3.348 -0.9770 -1.1396  1.0631
  209MOL0     H28183  14.292   9.837   3.254  0.0001 -1.3343 -1.5341
  209MOL0     H28184  14.246   9.903   3.099 -1.0933  1.9368  0.7811
  209MOL0     H28185  14.487  10.016   3.251 -2.0035 -0.1896  0.2811
  209MOL0     H28186  14.435  10.055   3.090 -0.2168 -0.4818 -0.1988
  209MOL0     H28187  14.519   9.866   3.003 -0.5056 -0.0141 -0.0731
  209MOL0     H28188  14.505   9.778   3.162 -1.1373  0.0185  0.3418
  209MOL0     H28189  14.720   9.866   3.230  2.1270 -0.7167 -0.8280
  209MOL0     H28190  14.735   9.815   3.068 -1.5364 -0.8444 -0.4205
  209MOL0     H28191  14.691  10.112   3.137 -0.5274 -0.7026  0.7226
  209MOL0     H28192  14.716  10.043   2.978  1.1713  1.6085  0.1741
  209MOL0     H28193  14.906  10.167   3.109  1.3160  0.8572  3.8890
  209MOL0     H28194  14.901  10.021   3.215  0.0001  0.0796 -0.5771
  209MOL0     H28195  13.856   9.861   3.359  1.4637 -0.0610 -1.2592
  209MOL0     H28196  13.628   9.840   3.391  1.5649  0.4568  1.3421
  209MOL0     H28197  13.271   9.838   3.347  2.3563  0.7445  1.3792
  209MOL0     H28198  13.026   9.737   3.356  0.5875 -0.1231  0.5856
  209MOL0     H28199  11.041   9.576   3.637 -0.0557  2.4577 -2.9680
  209MOL0     H28200  10.802   9.531   3.692 -0.0409 -0.2878 -0.4091
  209MOL0     H28201  10.560   9.546   4.203  0.5452 -1.0634 -0.1529
  209MOL0     H28202  10.348   9.448   4.271  1.8704 -0.7654 -1.2252
  209MOL0     H28203   9.958   9.404   4.020 -1.6733 -0.6534  0.8114
  209MOL0     H28204   9.999   9.568   4.042  1.7464 -0.5769 -0.3388
  209MOL0     H28205   9.930   9.532   4.290 -2.8228 -0.5856  2.9156
  209MOL0     H28206   9.886   9.360   4.255 -0.4852 -0.6994 -0.9333
  209MOL0     H28207   9.775   9.601   4.101 -2.6223  2.6204  1.6365
  209MOL0     H28208   9.713   9.573   4.260 -1.0827 -0.0877 -1.0015
  209MOL0     H28209   9.714   9.406   4.012  2.0946 -0.7202  1.4670
  209MOL0     H28210   9.656   9.335   4.153  1.1867 -0.4224  0.6636
  209MOL0     H28211   9.318   9.573   4.037  1.3197  2.3651 -0.8260
  209MOL0     H28212  10.163   9.589   3.914  0.8241 -1.8822 -1.4352
  209MOL0     H28213  10.419   9.792   3.792 -3.4032  0.7403  0.4245
  209MOL0     H28214  10.423   9.620   3.734 -0.8071 -1.5140  0.1956
  209MOL0     H28215  10.273   9.703   3.778 -0.4758 -2.5188  1.5685
  210MOL0     O28216   0.674   4.474   1.030 -0.0099 -0.3707 -0.1260
  210MOL0     C28217   0.632   4.478   1.146  0.0644  0.6523 -0.2692
  210MOL0     O28218   0.713   4.488   1.255  0.0224 -0.8893  0.1377
  210MOL0     C28219   0.839   4.444   1.236  0.0345 -0.2341 -0.7584
  210MOL0     C28220   0.924   4.523   1.163 -0.2439  0.1441  0.0623
  210MOL0     C28221   1.053   4.481   1.143 -0.6413 -0.7373 -0.0683
  210MOL0     C28222   1.104   4.372   1.215  0.2329  0.0602 -0.7261
  210MOL0     O28223   1.233   4.323   1.207  0.3681 -0.1996  0.0774
  210MOL0     C28224   1.349   4.412   1.214 -0.9042  0.5053 -0.2853
  210MOL0     C28225   1.479   4.326   1.237  0.5470  0.6182 -0.4026
  210MOL0     C28226   1.600   4.412   1.241 -0.7487  0.2609  0.5289
  210MOL0     C28227   1.729   4.328   1.282  0.3391  0.1083  0.4062
  210MOL0     C28228   1.851   4.406   1.238  0.6659 -0.2512  0.4332
  210MOL0     C28229   1.876   4.534   1.317  0.1353 -0.0889 -0.0584
  210MOL0     C28230   2.018   4.577   1.295 -0.9036  0.3396 -0.3912
  210MOL0     C28231   2.056   4.701   1.377 -0.0067 -0.5199 -0.4110
  210MOL0     N28232   2.179   4.771   1.330 -0.2516  0.2146  0.0202
  210MOL0     C28233   2.194   4.870   1.235  0.9312 -0.3937 -0.2567
  210MOL0     C28234   2.328   4.887   1.233  0.9852  0.8713  0.5096
  210MOL0     C28235   2.401   4.962   1.121  0.5314 -1.6675 -0.4529
  210MOL0     C28236   2.543   4.899   1.076  0.1841  0.7503  0.4202
  210MOL0     C28237   2.574   4.952   0.940  0.5891  0.7011 -0.5077
  210MOL0     C28238   2.697   4.888   0.878 -0.6384  0.2516 -0.3388
  210MOL0     O28239   2.810   4.919   0.957 -0.2992  0.0639  0.2852
  210MOL0     C28240   2.927   4.850   0.923  0.1003 -0.5100  0.1508
  210MOL0     C28241   3.024   4.854   1.023 -0.4711 -0.1325  0.3985
  210MOL0     C28242   3.152   4.798   1.005  0.3823 -0.4504 -0.1933
  210MOL0     C28243   3.178   4.718   0.896 -0.5657  0.6217  0.1703
  210MOL0     C28244   3.311   4.645   0.889 -0.4332  0.4109  0.0922
  210MOL0     O28245   3.387   4.631   0.998  0.6052  0.4566 -0.8676
  210MOL0     C28246   3.511   4.576   0.997 -0.1169  0.2408 -0.2078
  210MOL0     C28247   3.539   4.450   0.959  0.2748  0.5747  0.8501
  210MOL0     C28248   3.664   4.395   0.981  0.1209 -0.1559 -0.0637
  210MOL0     C28249   3.775   4.482   1.015 -0.2248  0.2671  0.1560
  210MOL0     O28250   3.900   4.415   1.012  0.2210 -0.8207 -0.8161
  210MOL0     C28251   4.018   4.491   0.982  0.3384  0.5265  0.0154
  210MOL0     C28252   4.086   4.560   1.087 -0.6382 -0.7278  0.3202
  210MOL0     C28253   4.203   4.650   1.035 -0.1935  0.0615  0.2658
  210MOL0     C28254   4.252   4.730   1.153  0.3796 -0.3143  0.7773
  210MOL0     C28255   4.391   4.775   1.127  0.3952 -0.7880 -0.5440
  210MOL0     C28256   4.458   4.863   1.234  0.1285  0.1427 -0.3058
  210MOL0     C28257   4.597   4.893   1.202 -0.2752  0.6685  0.3133
  210MOL0     C28258   4.626   4.995   1.083 -0.4052  0.0190 -0.6999
  210MOL0    Cl28259   4.809   4.995   1.059 -0.0179 -0.1526  0.2212
  210MOL0     C28260   3.747   4.613   1.037  0.9330 -0.1562  0.4122
  210MOL0     C28261   3.614   4.656   1.037  0.0287  0.7942 -0.0902
  210MOL0     O28262   3.345   4.602   0.778 -0.4130  0.0792  0.3278
  210MOL0     C28263   3.082   4.711   0.789  0.0137  0.1362  0.0279
  210MOL0     C28264   2.966   4.788   0.798  0.2232  0.3669  0.5223
  210MOL0     N28265   2.391   4.816   1.332  0.3587  0.6193 -0.2970
  210MOL0     N28266   2.299   4.752   1.398  0.2452 -0.8933  0.6071
  210MOL0     C28267   1.021   4.306   1.300  0.1032 -0.3671  0.1462
  210MOL0     C28268   0.885   4.338   1.311 -0.3968 -0.5650 -0.3054
  210MOL0     C28269   0.489   4.477   1.181  0.3106  0.2824  0.2085
  210MOL0     C28270   0.457   4.495   1.318  0.2923 -0.4262 -0.7368
  210MOL0     C28271   0.323   4.504   1.353  0.9067  0.5722  0.0642
  210MOL0     C28272   0.221   4.496   1.261  0.8710  0.0472 -0.7009
  210MOL0     O28273   0.087   4.499   1.291 -0.2961  0.2426 -0.3226
  210MOL0     C28274   0.047   4.495   1.431 -0.2615 -0.6991 -0.5094
  210MOL0     C28275  -0.092   4.434   1.446  0.1126  0.1105  0.6548
  210MOL0     C28276  -0.194   4.522   1.365 -0.1136  0.3967 -0.3575
  210MOL0     C28277  -0.311   4.427   1.313 -0.2056  0.1740 -0.5669
  210MOL0     C28278  -0.401   4.373   1.419 -0.6927  0.3061  0.0131
  210MOL0     C28279  -0.470   4.319   1.498 -0.1512  0.4722  0.5230
  210MOL0     C28280   0.255   4.475   1.130  0.0518 -0.2952  0.3589
  210MOL0     C28281   0.385   4.468   1.088  0.4358 -0.1870 -0.0685
  210MOL0     C28282   0.415   4.446   0.945  0.0941 -1.1823  0.7392
  210MOL0     H28283   0.893   4.621   1.128 -0.5284  1.0383  2.6439
  210MOL0     H28284   1.128   4.532   1.083  0.0514 -1.8094 -0.1432
  210MOL0     H28285   1.369   4.453   1.115  1.5141  0.5085  0.1560
  210MOL0     H28286   1.330   4.504   1.271 -4.3382  1.2712 -2.3291
  210MOL0     H28287   1.486   4.256   1.154 -0.3255 -1.6242  1.3231
  210MOL0     H28288   1.466   4.274   1.332  0.8256 -2.1284 -1.7766
  210MOL0     H28289   1.597   4.497   1.310  0.4491  2.1029 -1.5539
  210MOL0     H28290   1.604   4.458   1.142  0.8401 -0.6202  0.1541
  210MOL0     H28291   1.719   4.311   1.390  0.5803 -0.8588  0.2871
  210MOL0     H28292   1.723   4.228   1.238 -0.3903 -0.2298  1.2304
  210MOL0     H28293   1.937   4.340   1.247  1.8942  0.7151 -2.7831
  210MOL0     H28294   1.843   4.438   1.134 -1.4996 -1.8251  0.0437
  210MOL0     H28295   1.814   4.620   1.288  0.1138 -0.0706  0.0431
  210MOL0     H28296   1.859   4.509   1.422 -0.4303 -2.3073 -0.6346
  210MOL0     H28297   2.026   4.590   1.187 -0.3472 -0.5198 -0.4604
  210MOL0     H28298   2.077   4.495   1.337 -1.2750  0.4549  0.3730
  210MOL0     H28299   1.981   4.780   1.369  1.8646  1.4557  0.5916
  210MOL0     H28300   2.063   4.680   1.484  0.0256  0.0426 -0.3017
  210MOL0     H28301   2.118   4.912   1.169  0.6891  0.7063  0.6890
  210MOL0     H28302   2.328   4.980   1.041  0.3259  1.3807  0.2743
  210MOL0     H28303   2.416   5.062   1.163  2.2347 -1.7887 -0.7245
  210MOL0     H28304   2.614   4.915   1.158  1.9151 -0.9451 -0.6361
  210MOL0     H28305   2.536   4.790   1.067  0.8646  0.8242 -1.8020
  210MOL0     H28306   2.593   5.060   0.939 -2.1723  1.2916  1.2468
  210MOL0     H28307   2.492   4.924   0.873 -0.2115 -0.1834  0.8038
  210MOL0     H28308   2.719   4.919   0.775  0.0233 -3.6516 -1.5704
  210MOL0     H28309   2.693   4.778   0.871  0.5198  0.0437  1.6850
  210MOL0     H28310   3.002   4.909   1.114  1.6078 -1.6238  1.9113
  210MOL0     H28311   3.240   4.811   1.067  0.0719  2.4178 -0.2096
  210MOL0     H28312   3.463   4.388   0.911 -0.1632  2.0224 -0.3912
  210MOL0     H28313   3.677   4.290   0.954 -0.2979 -1.0541  2.8503
  210MOL0     H28314   4.097   4.428   0.938 -1.5869 -1.4154 -0.8055
  210MOL0     H28315   3.988   4.563   0.905 -4.2536  0.9028  1.8667
  210MOL0     H28316   4.012   4.613   1.148 -1.5969 -0.0398 -1.3780
  210MOL0     H28317   4.124   4.481   1.152 -2.0033  0.0733  2.1903
  210MOL0     H28318   4.282   4.581   1.003  0.4218  0.7531  0.2705
  210MOL0     H28319   4.189   4.717   0.950  3.0112 -3.7464 -3.7777
  210MOL0     H28320   4.248   4.667   1.242  0.5211 -0.2980  0.7967
  210MOL0     H28321   4.200   4.825   1.169  0.9099  0.3661 -1.1756
  210MOL0     H28322   4.390   4.844   1.042 -0.4486 -1.4455 -1.0800
  210MOL0     H28323   4.461   4.693   1.107  0.6173 -0.5706 -0.6637
  210MOL0     H28324   4.397   4.954   1.237  0.3397  0.3542 -1.5813
  210MOL0     H28325   4.457   4.802   1.324 -1.8041 -0.7687 -0.8812
  210MOL0     H28326   4.656   4.803   1.181 -2.1268 -0.5568  0.1059
  210MOL0     H28327   4.642   4.931   1.294 -3.1830 -0.1165  2.1859
  210MOL0     H28328   4.573   4.957   0.996 -1.7526  1.8775 -0.7664
  210MOL0     H28329   4.588   5.096   1.104 -1.7733 -0.4029 -1.0526
  210MOL0     H28330   3.825   4.683   1.066  1.6590 -0.0849 -1.5431
  210MOL0     H28331   3.593   4.757   1.072 -0.2962  2.8739 -5.3661
  210MOL0     H28332   3.088   4.651   0.699 -2.9876  1.3308 -1.1172
  210MOL0     H28333   2.898   4.778   0.714  0.7350 -3.3882  0.4020
  210MOL0     H28334   1.059   4.236   1.373  3.2011  0.5438 -0.4124
  210MOL0     H28335   0.823   4.275   1.374 -0.5305  2.0851  2.4072
  210MOL0     H28336   0.530   4.490   1.399 -1.4879 -1.6026  0.8688
  210MOL0     H28337   0.294   4.526   1.456  1.0000  1.5553 -0.1132
  210MOL0     H28338   0.049   4.602   1.455 -1.1810 -0.5699 -0.9797
  210MOL0     H28339   0.110   4.433   1.496  0.1624  0.1643 -0.0744
  210MOL0     H28340  -0.112   4.430   1.554  1.0942 -2.2736  0.8174
  210MOL0     H28341  -0.088   4.330   1.410  2.3885  0.2851  0.2757
  210MOL0     H28342  -0.158   4.578   1.278 -4.1718  1.6832 -1.4651
  210MOL0     H28343  -0.245   4.591   1.433 -1.2448 -0.1411 -0.6247
  210MOL0     H28344  -0.376   4.495   1.258 -3.3025  0.0410  2.6146
  210MOL0     H28345  -0.295   4.347   1.240 -1.9656 -0.6436 -0.1025
  210MOL0     H28346  -0.535   4.271   1.569  0.8374 -0.0060  1.1143
  210MOL0     H28347   0.188   4.489   1.046  1.9134 -0.5466 -1.2374
  210MOL0     H28348   0.464   4.528   0.893  0.3690 -1.1643  1.0274
  210MOL0     H28349   0.468   4.352   0.925  1.4664 -0.6440  1.7459
  210MOL0     H28350   0.322   4.415   0.896  0.6662 -4.4043  1.4662
  211MOL0     O28351   4.249   6.564   7.190 -0.3658 -0.3165  0.0742
  211MOL0     C28352   4.287   6.473   7.265 -0.5443 -0.1031 -1.0024
  211MOL0     O28353   4.411   6.466   7.318 -0.9002 -0.4972  0.1970
  211MOL0     C28354   4.526   6.505   7.248 -0.7499 -0.3016  0.5466
  211MOL0     C28355   4.635   6.547   7.324  0.0544 -0.2437 -0.7033
  211MOL0     C28356   4.753   6.601   7.256 -0.5285  0.1584 -0.2459
  211MOL0     C28357   4.767   6.594   7.116  0.6844  0.4346 -0.3874
  211MOL0     O28358   4.887   6.632   7.062 -0.3699  0.1917  0.2482
  211MOL0     C28359   4.890   6.670   6.919  0.0686  0.5758 -0.5218
  211MOL0     C28360   5.023   6.740   6.890  0.0887 -1.0185  0.0158
  211MOL0     C28361   5.011   6.795   6.746  0.7580 -0.1768  0.7302
  211MOL0     C28362   5.155   6.818   6.676  1.2232  0.3904 -1.0189
  211MOL0     C28363   5.210   6.952   6.716 -0.0703  0.3136 -0.3099
  211MOL0     C28364   5.328   6.983   6.631 -0.0693 -0.3888  0.1208
  211MOL0     C28365   5.456   6.887   6.648 -0.3737 -0.7046 -0.1215
  211MOL0     C28366   5.594   6.949   6.618 -0.3626  0.3723 -0.0726
  211MOL0     N28367   5.623   7.071   6.694 -0.2115  0.0382  0.4176
  211MOL0     C28368   5.691   7.184   6.641  0.2387 -0.0892 -0.1657
  211MOL0     C28369   5.711   7.270   6.748  0.3303  0.4448  1.3660
  211MOL0     C28370   5.763   7.400   6.729  0.9235  0.1012 -0.8204
  211MOL0     C28371   5.913   7.413   6.718 -0.7922 -0.0785 -0.0973
  211MOL0     C28372   5.967   7.551   6.753  0.0276 -0.6997  0.3256
  211MOL0     C28373   6.120   7.555   6.752  0.1726 -0.5127 -0.5843
  211MOL0     O28374   6.170   7.565   6.618 -0.2298 -0.0716 -0.7732
  211MOL0     C28375   6.307   7.579   6.606 -0.1705 -0.2757 -0.2513
  211MOL0     C28376   6.396   7.621   6.710 -0.1672  0.4419 -0.0172
  211MOL0     C28377   6.528   7.653   6.668 -0.2594  0.0191  0.0231
  211MOL0     C28378   6.565   7.631   6.532 -0.5701 -0.4835 -0.6410
  211MOL0     C28379   6.708   7.646   6.502  0.3874 -0.1135 -0.2233
  211MOL0     O28380   6.795   7.634   6.606  0.0145  0.3158 -0.0662
  211MOL0     C28381   6.933   7.656   6.598  0.5971 -0.1801 -0.9639
  211MOL0     C28382   7.020   7.664   6.488  0.0709 -0.3392  0.1970
  211MOL0     C28383   7.158   7.662   6.515 -0.1112  0.5946  0.0046
  211MOL0     C28384   7.205   7.669   6.645  0.4233 -0.1036 -0.6250
  211MOL0     O28385   7.339   7.662   6.674  0.5954  0.7171  0.1773
  211MOL0     C28386   7.393   7.573   6.770  0.1412  0.4917 -0.7388
  211MOL0     C28387   7.379   7.428   6.710 -0.0834 -1.4275  0.6800
  211MOL0     C28388   7.243   7.369   6.683  0.8030 -0.8205 -0.2334
  211MOL0     C28389   7.239   7.223   6.676 -0.7278 -0.4237 -0.3336
  211MOL0     C28390   7.094   7.165   6.648 -0.7523  0.6953 -0.4652
  211MOL0     C28391   7.096   7.012   6.646  0.1422  0.0096 -0.5522
  211MOL0     C28392   6.971   6.959   6.590  0.3742 -0.4582  0.9557
  211MOL0     C28393   6.841   6.987   6.676 -0.5906 -1.0059  0.1064
  211MOL0    Cl28394   6.720   6.895   6.597 -0.2302  0.2136  0.4700
  211MOL0     C28395   7.123   7.676   6.753 -0.1282 -0.6602 -0.0124
  211MOL0     C28396   6.983   7.666   6.729  0.5850  0.3307  0.2859
  211MOL0     O28397   6.731   7.675   6.386  1.0645  0.0932  0.5346
  211MOL0     C28398   6.477   7.595   6.437  0.0837 -0.3105 -0.4182
  211MOL0     C28399   6.348   7.574   6.475  0.1053 -0.3881 -0.6746
  211MOL0     N28400   5.650   7.206   6.853 -0.0060 -0.3517  0.3146
  211MOL0     N28401   5.595   7.091   6.824  0.0762  0.3139 -0.8357
  211MOL0     C28402   4.656   6.543   7.049  0.1041  0.1301  0.3530
  211MOL0     C28403   4.540   6.497   7.108  0.1391  0.2694 -0.8673
  211MOL0     C28404   4.189   6.383   7.322  0.4763 -0.4752 -0.0956
  211MOL0     C28405   4.084   6.429   7.408 -0.3702  0.3600  0.5436
  211MOL0     C28406   3.996   6.345   7.468  0.6674  0.7480 -0.3377
  211MOL0     C28407   3.980   6.216   7.425  0.4584  0.6184  0.2992
  211MOL0     O28408   3.898   6.123   7.483  0.9835 -0.5167 -0.6512
  211MOL0     C28409   3.804   6.154   7.590 -0.2378  0.6263  0.0972
  211MOL0     C28410   3.868   6.124   7.730  0.5177  0.9336  0.0678
  211MOL0     C28411   3.893   5.974   7.750 -0.1750 -0.1967  0.8410
  211MOL0     C28412   3.941   5.944   7.900  0.9420 -0.3772  0.6534
  211MOL0     C28413   4.063   6.018   7.942 -0.4597 -1.3650  0.3274
  211MOL0     C28414   4.174   6.066   7.968 -0.0667  0.1680 -0.0676
  211MOL0     C28415   4.075   6.172   7.327  0.9171 -0.0914 -0.3805
  211MOL0     C28416   4.180   6.250   7.282  0.2930  0.2007 -0.7336
  211MOL0     C28417   4.269   6.175   7.178 -0.3015  0.0316 -0.2598
  211MOL0     H28418   4.617   6.553   7.430 -2.5645 -0.6878 -1.0716
  211MOL0     H28419   4.837   6.641   7.311  0.4397  0.5427 -1.9736
  211MOL0     H28420   4.879   6.578   6.861  1.2792  0.5376 -0.7178
  211MOL0     H28421   4.800   6.731   6.911 -1.5376 -0.8760  3.5343
  211MOL0     H28422   5.108   6.673   6.909 -1.2662 -3.1429 -0.9694
  211MOL0     H28423   5.041   6.824   6.956  2.4407 -1.3122 -0.1742
  211MOL0     H28424   4.945   6.883   6.749 -1.0056 -1.3930  4.0624
  211MOL0     H28425   4.961   6.721   6.683 -2.0544  0.1313  2.4148
  211MOL0     H28426   5.219   6.736   6.712 -0.8556 -0.2833  1.4320
  211MOL0     H28427   5.139   6.809   6.568 -1.3770 -2.4693 -0.5533
  211MOL0     H28428   5.141   7.037   6.714 -2.9419 -1.8612 -1.0576
  211MOL0     H28429   5.252   6.939   6.816  0.5458 -1.2970 -0.7510
  211MOL0     H28430   5.295   6.999   6.528  1.9953  1.3650 -0.3620
  211MOL0     H28431   5.368   7.079   6.667  2.0177 -1.8729  2.0121
  211MOL0     H28432   5.445   6.803   6.578  2.5484 -1.5102  0.2548
  211MOL0     H28433   5.476   6.838   6.744  0.3828 -0.2702 -0.0551
  211MOL0     H28434   5.675   6.882   6.647 -0.1405  0.0923 -1.2919
  211MOL0     H28435   5.602   6.970   6.511  1.1152  3.9579  0.5796
  211MOL0     H28436   5.716   7.183   6.535 -1.4303 -2.2978 -0.6083
  211MOL0     H28437   5.721   7.449   6.641  0.6240 -0.4840 -1.0076
  211MOL0     H28438   5.737   7.451   6.822 -0.2928 -3.4108  0.9162
  211MOL0     H28439   5.957   7.337   6.783 -1.5057  0.8604  1.5643
  211MOL0     H28440   5.948   7.377   6.621  2.2579  0.2562  0.7611
  211MOL0     H28441   5.931   7.576   6.853 -0.8513  0.1997 -0.1984
  211MOL0     H28442   5.926   7.625   6.685 -0.3458 -1.9362 -0.8453
  211MOL0     H28443   6.159   7.462   6.795  0.0729 -0.5841 -0.6465
  211MOL0     H28444   6.150   7.633   6.823 -5.1930  0.3261  1.2454
  211MOL0     H28445   6.365   7.641   6.812  1.0585 -0.2924  0.5286
  211MOL0     H28446   6.607   7.677   6.738  1.9658  0.7008 -2.5401
  211MOL0     H28447   6.981   7.658   6.388 -1.2752  1.1810  0.5991
  211MOL0     H28448   7.222   7.646   6.429 -1.6567 -2.1927 -0.7457
  211MOL0     H28449   7.500   7.585   6.787  0.5471  0.7813 -3.1357
  211MOL0     H28450   7.345   7.587   6.867  1.9360  4.6936 -0.2540
  211MOL0     H28451   7.436   7.434   6.616  1.9012 -2.1530  1.7689
  211MOL0     H28452   7.434   7.360   6.775  0.8467 -0.7343  0.6486
  211MOL0     H28453   7.176   7.393   6.766  2.0396 -1.3104  0.9310
  211MOL0     H28454   7.202   7.414   6.592 -3.6200 -1.6929  1.0797
  211MOL0     H28455   7.295   7.178   6.759 -0.1852 -0.4339 -0.7082
  211MOL0     H28456   7.300   7.194   6.591 -0.0651  0.2286 -0.0870
  211MOL0     H28457   7.053   7.189   6.550 -3.1020 -1.7397 -0.1969
  211MOL0     H28458   7.023   7.201   6.723 -0.0347  4.7302 -1.4598
  211MOL0     H28459   7.176   6.972   6.582  0.9309  3.0021 -1.5790
  211MOL0     H28460   7.108   6.997   6.753  0.2622  1.6156 -0.3267
  211MOL0     H28461   6.977   6.850   6.595  2.5438 -0.4876 -0.8257
  211MOL0     H28462   6.973   6.987   6.484 -0.7614 -1.8682  0.5136
  211MOL0     H28463   6.858   6.948   6.777  0.4832 -2.3729 -0.5618
  211MOL0     H28464   6.820   7.093   6.660 -0.5934 -0.6245  2.3810
  211MOL0     H28465   7.158   7.685   6.855 -0.0367 -1.6012  0.0429
  211MOL0     H28466   6.900   7.667   6.799 -0.1456 -0.6997 -0.5289
  211MOL0     H28467   6.515   7.566   6.340 -1.3945  1.2913 -1.5517
  211MOL0     H28468   6.276   7.545   6.399 -1.1360 -1.6393  0.8831
  211MOL0     H28469   4.658   6.544   6.941  1.0659  2.6034  0.3398
  211MOL0     H28470   4.460   6.463   7.044 -0.6899  2.1234 -0.8919
  211MOL0     H28471   4.082   6.535   7.428  2.0528  0.4598  0.5533
  211MOL0     H28472   3.937   6.382   7.551  1.6297 -1.1400  1.2855
  211MOL0     H28473   3.721   6.083   7.582  1.6433 -1.6182 -0.7338
  211MOL0     H28474   3.769   6.258   7.589 -1.3811  0.2587 -0.7134
  211MOL0     H28475   3.800   6.153   7.811 -0.2097 -0.1147 -0.1406
  211MOL0     H28476   3.957   6.186   7.740  2.2793 -1.5566  0.7495
  211MOL0     H28477   3.975   5.936   7.688 -1.4816 -0.5684 -0.7363
  211MOL0     H28478   3.804   5.916   7.725 -0.3537 -0.6434  2.4119
  211MOL0     H28479   3.854   5.965   7.964 -3.6554  2.2938 -5.4303
  211MOL0     H28480   3.949   5.836   7.916 -1.9874 -0.5601  1.5604
  211MOL0     H28481   4.274   6.103   7.984 -0.4981  0.4811  2.3715
  211MOL0     H28482   4.047   6.072   7.297 -3.7078  0.1515  2.1358
  211MOL0     H28483   4.223   6.081   7.148  1.4841 -0.4518 -1.6586
  211MOL0     H28484   4.265   6.240   7.090 -1.3454 -1.0075 -0.9997
  211MOL0     H28485   4.371   6.158   7.214  0.0183  3.0399  0.5099
  212MOL0     O28486   2.415   1.277   4.833  0.0651 -0.2741  0.4475
  212MOL0     C28487   2.380   1.227   4.726  0.5933  0.7946  0.7625
  212MOL0     O28488   2.464   1.156   4.643  0.2032 -0.3920  0.4995
  212MOL0     C28489   2.593   1.198   4.619 -0.1111  0.3187 -1.0924
  212MOL0     C28490   2.632   1.330   4.609 -0.2204  0.3566  0.4707
  212MOL0     C28491   2.766   1.368   4.606  0.6068 -0.7103  0.0865
  212MOL0     C28492   2.866   1.271   4.620 -0.2937 -0.4170 -0.7390
  212MOL0     O28493   3.000   1.283   4.630 -0.0357 -0.5221  0.7957
  212MOL0     C28494   3.054   1.411   4.618  0.4341 -0.5121  0.1065
  212MOL0     C28495   3.205   1.404   4.638 -0.1019  0.3813 -0.0961
  212MOL0     C28496   3.255   1.552   4.658  0.1078  1.0408  0.6302
  212MOL0     C28497   3.400   1.548   4.695  0.7124 -0.5465  0.3026
  212MOL0     C28498   3.445   1.693   4.730  0.5643 -0.0860  0.1192
  212MOL0     C28499   3.589   1.710   4.767 -0.2168 -0.0125 -0.2295
  212MOL0     C28500   3.633   1.853   4.790 -0.8234 -0.3984 -1.1171
  212MOL0     C28501   3.774   1.857   4.853  0.0490 -0.4624  0.0921
  212MOL0     N28502   3.885   1.838   4.757  0.0201 -0.0123 -0.7798
  212MOL0     C28503   3.904   1.912   4.644  0.3298 -0.1026 -0.1406
  212MOL0     C28504   4.015   1.872   4.585 -0.1417  0.8424 -0.1915
  212MOL0     C28505   4.084   1.913   4.461  0.7095 -0.4833  0.8816
  212MOL0     C28506   4.240   1.901   4.468  0.0205  0.7055  0.2551
  212MOL0     C28507   4.316   1.918   4.338  0.7326 -0.2443 -0.2373
  212MOL0     C28508   4.467   1.913   4.378  0.5106 -0.3495  0.0220
  212MOL0     O28509   4.550   1.861   4.281 -0.0244 -0.1117 -0.6674
  212MOL0     C28510   4.687   1.903   4.267  0.0355  0.2294  0.3195
  212MOL0     C28511   4.760   1.951   4.382  0.6956  0.3488  0.2933
  212MOL0     C28512   4.892   1.989   4.367 -0.8242  0.2454 -0.5197
  212MOL0     C28513   4.964   1.974   4.244 -0.1940 -0.6428  0.1706
  212MOL0     C28514   5.105   2.015   4.229  0.6501 -0.6328  0.2730
  212MOL0     O28515   5.167   1.963   4.122 -0.2941 -0.2570 -0.1152
  212MOL0     C28516   5.302   1.955   4.130 -0.1228 -0.4687  0.0613
  212MOL0     C28517   5.360   1.849   4.196  0.0365  0.4001 -0.0502
  212MOL0     C28518   5.500   1.818   4.185  0.1940 -0.2222  0.1857
  212MOL0     C28519   5.586   1.908   4.122  0.9205 -0.0593 -0.0849
  212MOL0     O28520   5.721   1.870   4.119  0.0507 -0.2562 -0.1374
  212MOL0     C28521   5.813   1.982   4.117  1.0586  0.4154  0.3552
  212MOL0     C28522   5.950   1.933   4.102 -1.3052  0.0751  0.9297
  212MOL0     C28523   5.988   1.826   4.207 -0.6416  0.7995  0.9773
  212MOL0     C28524   6.136   1.830   4.242 -0.4752 -0.1189  0.1940
  212MOL0     C28525   6.241   1.815   4.134 -0.1510  0.4824 -0.1270
  212MOL0     C28526   6.389   1.820   4.178  0.3093 -0.4535  0.9719
  212MOL0     C28527   6.434   1.956   4.242  0.7313 -0.8068  0.7991
  212MOL0     C28528   6.584   1.951   4.275  0.1372 -0.1770  0.8344
  212MOL0    Cl28529   6.665   1.971   4.118  0.5997  0.1209 -0.1237
  212MOL0     C28530   5.529   2.024   4.057  0.5619  0.5244 -0.1215
  212MOL0     C28531   5.387   2.044   4.059 -0.3182 -0.1591 -0.3110
  212MOL0     O28532   5.159   2.077   4.318 -0.2384  0.0076 -0.4542
  212MOL0     C28533   4.891   1.933   4.134  0.4064 -0.1153 -0.1798
  212MOL0     C28534   4.758   1.893   4.141 -0.0729  0.3074 -0.0375
  212MOL0     N28535   4.060   1.771   4.661 -0.8075 -0.3777  0.0743
  212MOL0     N28536   3.978   1.750   4.765 -1.2565 -0.2868  0.7330
  212MOL0     C28537   2.825   1.136   4.620 -0.1947 -0.0768  0.1083
  212MOL0     C28538   2.694   1.102   4.625 -1.5773 -0.6599  0.0782
  212MOL0     C28539   2.232   1.235   4.694  0.2377 -0.2364  0.4885
  212MOL0     C28540   2.179   1.153   4.591 -0.1405 -0.3398  0.2225
  212MOL0     C28541   2.039   1.164   4.557  0.5757 -0.1144 -0.3297
  212MOL0     C28542   1.957   1.242   4.634  0.1165 -0.1858 -0.6422
  212MOL0     O28543   1.821   1.241   4.600  0.0856  0.8381  0.0881
  212MOL0     C28544   1.740   1.360   4.589  0.8542  0.1906 -0.1322
  212MOL0     C28545   1.788   1.442   4.479  0.2113  0.6833  0.0957
  212MOL0     C28546   1.758   1.407   4.337  0.3564  0.4695 -0.4321
  212MOL0     C28547   1.852   1.301   4.287 -0.1591  0.5687 -0.3755
  212MOL0     C28548   1.827   1.261   4.151 -0.0078 -0.9731 -0.6761
  212MOL0     C28549   1.818   1.236   4.030  0.7868 -0.0998 -0.7488
  212MOL0     C28550   2.007   1.316   4.737 -0.1104 -0.3771  0.1542
  212MOL0     C28551   2.144   1.316   4.767  0.5882 -1.1312  0.1235
  212MOL0     C28552   2.179   1.423   4.873  0.8059  0.5922 -0.9461
  212MOL0     H28553   2.558   1.403   4.576  1.1540  0.7204 -2.0682
  212MOL0     H28554   2.778   1.474   4.583  1.9514 -0.6313  0.9688
  212MOL0     H28555   3.039   1.444   4.515 -1.0821 -3.9965 -0.9116
  212MOL0     H28556   3.008   1.481   4.689  0.7759 -0.9083  0.7337
  212MOL0     H28557   3.246   1.351   4.552 -2.0771 -0.1174 -0.7889
  212MOL0     H28558   3.235   1.350   4.727 -0.1784  0.8873  0.2453
  212MOL0     H28559   3.194   1.614   4.724 -1.6178  0.6542 -0.5444
  212MOL0     H28560   3.245   1.603   4.561  0.4149  1.2569  0.7099
  212MOL0     H28561   3.416   1.479   4.778  0.5413  2.2923  2.8926
  212MOL0     H28562   3.454   1.524   4.603  0.6821  2.3065 -0.5410
  212MOL0     H28563   3.424   1.749   4.638  1.8821  1.8061  0.8988
  212MOL0     H28564   3.378   1.729   4.809  1.6505  1.0914  0.5362
  212MOL0     H28565   3.599   1.653   4.860 -3.2976 -1.2239 -0.5478
  212MOL0     H28566   3.652   1.676   4.684  0.2468  1.4534 -0.5152
  212MOL0     H28567   3.560   1.903   4.855 -0.6371 -0.2101 -1.0528
  212MOL0     H28568   3.621   1.915   4.701  0.6120 -0.3328 -1.2857
  212MOL0     H28569   3.778   1.953   4.906  0.9139 -0.0858 -0.6348
  212MOL0     H28570   3.770   1.782   4.932 -0.7074  0.9442  1.4570
  212MOL0     H28571   3.844   1.996   4.612 -1.1728 -1.4547 -1.0007
  212MOL0     H28572   4.048   1.859   4.373 -0.0485  0.2154  0.7477
  212MOL0     H28573   4.054   2.017   4.445  1.6323 -0.6193 -2.5195
  212MOL0     H28574   4.286   1.969   4.541  0.0349  0.7198  0.2328
  212MOL0     H28575   4.257   1.808   4.522 -0.0909  0.8582  0.5574
  212MOL0     H28576   4.297   2.021   4.307  2.1362  0.3065  0.6382
  212MOL0     H28577   4.284   1.846   4.262 -1.6824  3.7450 -3.3479
  212MOL0     H28578   4.474   1.843   4.461 -1.2338 -1.9750 -1.1175
  212MOL0     H28579   4.489   2.014   4.415  1.1867 -0.5089  0.0693
  212MOL0     H28580   4.712   1.965   4.478  0.8031 -0.0540  0.4092
  212MOL0     H28581   4.941   2.021   4.458  1.9262 -0.2036 -1.7145
  212MOL0     H28582   5.298   1.777   4.249 -2.1888  1.4673 -1.0625
  212MOL0     H28583   5.543   1.731   4.234 -0.5071 -0.4951  0.3163
  212MOL0     H28584   5.796   2.052   4.035 -1.4370  1.1331  1.3852
  212MOL0     H28585   5.804   2.042   4.208  0.8925  0.9142  0.0115
  212MOL0     H28586   5.966   1.890   4.003  4.4452  0.9389  1.1436
  212MOL0     H28587   6.027   2.010   4.108  0.1776 -1.3680  1.3042
  212MOL0     H28588   5.928   1.840   4.297  0.0555 -1.8244  1.9566
  212MOL0     H28589   5.960   1.727   4.170 -3.0364  1.5984  0.4611
  212MOL0     H28590   6.156   1.762   4.326  0.8024  0.4570  0.3767
  212MOL0     H28591   6.165   1.923   4.291 -0.3158  0.4825 -0.9999
  212MOL0     H28592   6.222   1.885   4.052 -1.1669  2.3020  1.5740
  212MOL0     H28593   6.239   1.717   4.084 -1.5024  0.0291  0.7697
  212MOL0     H28594   6.404   1.738   4.249  1.4745 -1.5327 -0.4594
  212MOL0     H28595   6.455   1.793   4.096 -0.3983 -2.1086  0.8919
  212MOL0     H28596   6.377   1.968   4.335  2.4145  2.7498  1.5465
  212MOL0     H28597   6.410   2.029   4.164 -0.8345 -0.1176  1.8783
  212MOL0     H28598   6.608   2.036   4.341  1.1989  0.9395 -0.8955
  212MOL0     H28599   6.608   1.851   4.311  0.3368 -1.1650 -1.8065
  212MOL0     H28600   5.594   2.095   4.006 -1.2639  0.5479 -2.6008
  212MOL0     H28601   5.352   2.135   4.011  0.4788  1.6832  2.3777
  212MOL0     H28602   4.936   1.923   4.036 -1.2870  2.6678 -1.3422
  212MOL0     H28603   4.711   1.843   4.056  1.7080 -0.4363 -0.6439
  212MOL0     H28604   2.902   1.060   4.630 -2.5011 -2.6844 -0.8239
  212MOL0     H28605   2.669   0.999   4.645 -1.1053 -1.0689 -1.3000
  212MOL0     H28606   2.237   1.088   4.526 -2.8676  2.4888 -5.7898
  212MOL0     H28607   2.002   1.117   4.466  0.9964  1.0906 -1.1441
  212MOL0     H28608   1.740   1.413   4.685 -0.6213 -3.8584  2.3521
  212MOL0     H28609   1.634   1.332   4.579  0.5604  0.6590  1.4055
  212MOL0     H28610   1.897   1.446   4.489  0.3446 -1.7974  0.0740
  212MOL0     H28611   1.740   1.539   4.496  0.0246  0.4616  0.8483
  212MOL0     H28612   1.762   1.500   4.279 -1.2982  0.7240 -0.2029
  212MOL0     H28613   1.653   1.376   4.332 -0.0650  1.5367  1.2098
  212MOL0     H28614   1.959   1.323   4.286  0.3123 -1.5475 -1.1745
  212MOL0     H28615   1.854   1.205   4.339  2.8731 -0.3536 -1.9470
  212MOL0     H28616   1.810   1.212   3.926 -2.4169  0.9311 -0.8455
  212MOL0     H28617   1.939   1.382   4.789 -0.2341  1.5381 -2.2161
  212MOL0     H28618   2.101   1.496   4.896 -0.5980 -0.8524 -0.9551
  212MOL0     H28619   2.202   1.374   4.968 -2.7248 -0.1091 -0.3247
  212MOL0     H28620   2.269   1.480   4.849  0.7965  1.6795  1.3387
  213MOL0     O28621   6.617   1.518   5.596  0.3016  0.2966  0.3959
  213MOL0     C28622   6.580   1.620   5.655 -0.1007  0.2040  0.0052
  213MOL0     O28623   6.663   1.711   5.715  0.3151  0.9261  0.0679
  213MOL0     C28624   6.798   1.679   5.728 -0.1112  0.1206  0.2352
  213MOL0     C28625   6.872   1.563   5.691 -0.2324 -0.4371 -0.0908
  213MOL0     C28626   7.007   1.551   5.721 -0.5364 -0.5849 -0.0762
  213MOL0     C28627   7.077   1.655   5.785 -0.7613  0.5682 -0.4278
  213MOL0     O28628   7.211   1.650   5.818  0.1159 -0.0225  0.3917
  213MOL0     C28629   7.298   1.588   5.717 -0.1734 -0.1190  0.1808
  213MOL0     C28630   7.443   1.632   5.744 -0.3649  0.1221  0.5824
  213MOL0     C28631   7.463   1.787   5.736 -0.3091 -0.0879 -0.2306
  213MOL0     C28632   7.481   1.850   5.600 -0.8642  0.4347  0.2753
  213MOL0     C28633   7.471   2.005   5.612 -0.2285 -0.4712 -0.3943
  213MOL0     C28634   7.492   2.089   5.491  0.9839 -0.1625  0.2715
  213MOL0     C28635   7.634   2.078   5.445  0.7234  0.2541 -0.2602
  213MOL0     C28636   7.677   2.193   5.341  0.2311 -0.3296  0.1984
  213MOL0     N28637   7.804   2.146   5.289 -0.0895 -0.0007  0.1685
  213MOL0     C28638   7.930   2.177   5.328  0.5243  0.7433  0.5375
  213MOL0     C28639   8.014   2.115   5.249 -0.2394  0.2162 -0.7322
  213MOL0     C28640   8.165   2.097   5.272 -0.6477  0.0056 -0.4587
  213MOL0     C28641   8.204   1.946   5.303 -0.6202 -0.2809 -0.5332
  213MOL0     C28642   8.327   1.906   5.211  0.1828  0.4525 -0.7142
  213MOL0     C28643   8.443   2.008   5.226 -0.1489  0.9042  0.0908
  213MOL0     O28644   8.546   1.956   5.143  0.1288  0.1071 -0.3377
  213MOL0     C28645   8.658   2.034   5.119  0.4754 -0.2514 -0.1264
  213MOL0     C28646   8.784   1.974   5.123  0.2478  0.2778  0.1639
  213MOL0     C28647   8.900   2.050   5.114  0.5144  0.0848  0.7705
  213MOL0     C28648   8.894   2.182   5.085  0.0318  0.2092  0.1051
  213MOL0     C28649   9.024   2.260   5.072 -0.4367  0.2845 -0.3282
  213MOL0     O28650   9.133   2.191   5.052 -0.2469 -0.4201  0.0075
  213MOL0     C28651   9.252   2.272   5.046 -0.1433  0.5021  0.3890
  213MOL0     C28652   9.282   2.324   4.918 -0.8403  0.3013  0.1872
  213MOL0     C28653   9.387   2.423   4.905  1.2079  0.1160  0.1188
  213MOL0     C28654   9.461   2.468   5.019  0.0151 -0.3686 -0.3326
  213MOL0     O28655   9.566   2.555   5.000 -0.6576  0.0491  0.3078
  213MOL0     C28656   9.555   2.665   4.902 -0.2702  0.0977  0.0227
  213MOL0     C28657   9.642   2.785   4.960 -0.9603 -0.2212  0.0339
  213MOL0     C28658   9.787   2.754   4.993 -0.3580  0.4530  0.6902
  213MOL0     C28659   9.867   2.882   4.989  0.3070  0.0960  0.8450
  213MOL0     C28660  10.008   2.858   5.022 -0.7253  0.2799  1.0492
  213MOL0     C28661  10.099   2.774   4.932 -0.5060  0.1450  0.5038
  213MOL0     C28662  10.110   2.839   4.789 -0.1687  0.4249  0.0319
  213MOL0     C28663  10.195   2.964   4.785  0.1556  0.4661  0.8586
  213MOL0    Cl28664  10.348   2.954   4.873  0.3269  0.0662 -0.1754
  213MOL0     C28665   9.436   2.400   5.143  0.3011  0.2829 -1.1576
  213MOL0     C28666   9.335   2.305   5.156  0.1828  0.3235 -0.1020
  213MOL0     O28667   9.011   2.382   5.056 -0.1675  0.1039  0.0484
  213MOL0     C28668   8.769   2.243   5.064  0.0320  0.1847 -0.5009
  213MOL0     C28669   8.650   2.167   5.089 -0.3515 -0.0541  0.3770
  213MOL0     N28670   7.937   2.040   5.164  0.6701  0.1303  0.7445
  213MOL0     N28671   7.810   2.058   5.187 -0.8088  0.7296  0.0833
  213MOL0     C28672   7.001   1.758   5.834  0.7255  0.1012  0.2345
  213MOL0     C28673   6.867   1.776   5.799 -0.1363 -0.2170  1.3309
  213MOL0     C28674   6.441   1.655   5.651  0.9602 -0.2462 -0.1556
  213MOL0     C28675   6.403   1.792   5.676  0.0806 -0.4273 -0.2127
  213MOL0     C28676   6.272   1.827   5.661  0.4106 -0.3734  0.1616
  213MOL0     C28677   6.173   1.737   5.640  0.0237 -0.5264 -0.7761
  213MOL0     O28678   6.049   1.788   5.605 -0.5471  0.8214 -0.9136
  213MOL0     C28679   5.934   1.691   5.631 -0.7048 -0.5610  0.4185
  213MOL0     C28680   5.793   1.759   5.622 -0.1429  0.7115  1.1677
  213MOL0     C28681   5.741   1.727   5.480 -0.6424 -0.7831  0.3026
  213MOL0     C28682   5.597   1.758   5.460 -0.1895 -0.0056  0.2366
  213MOL0     C28683   5.517   1.655   5.521  0.5164 -0.6189  0.4774
  213MOL0     C28684   5.440   1.573   5.571 -0.1943  0.5942 -0.2990
  213MOL0     C28685   6.209   1.607   5.635  0.1614 -0.1627 -0.6139
  213MOL0     C28686   6.342   1.559   5.622  0.3071 -0.4372 -0.4348
  213MOL0     C28687   6.358   1.405   5.596 -0.7710  0.0714 -0.2405
  213MOL0     H28688   6.830   1.469   5.655  0.3591 -0.6188 -0.3240
  213MOL0     H28689   7.052   1.455   5.697 -0.9539 -0.4249 -1.5519
  213MOL0     H28690   7.300   1.479   5.717 -0.7976 -0.1398  1.5241
  213MOL0     H28691   7.269   1.623   5.617  0.5054  2.0136  0.6830
  213MOL0     H28692   7.514   1.588   5.674 -1.9727 -0.7164 -0.5801
  213MOL0     H28693   7.478   1.610   5.845  2.9405  1.5899 -0.1158
  213MOL0     H28694   7.559   1.813   5.782  0.6178  1.5639 -2.9131
  213MOL0     H28695   7.386   1.833   5.799 -2.2512 -1.7697 -1.2568
  213MOL0     H28696   7.577   1.824   5.555 -0.8845  0.7672  0.0330
  213MOL0     H28697   7.400   1.813   5.536 -0.8495 -1.5584  1.3088
  213MOL0     H28698   7.367   2.025   5.641 -0.3237 -2.8490  1.1690
  213MOL0     H28699   7.529   2.026   5.702  0.0526 -1.0900 -0.4202
  213MOL0     H28700   7.430   2.062   5.405  0.6925 -0.6853  0.6451
  213MOL0     H28701   7.480   2.196   5.511  0.2264  0.0312 -1.1239
  213MOL0     H28702   7.652   1.977   5.406  0.3802 -0.0416  0.3336
  213MOL0     H28703   7.701   2.093   5.530 -0.7015  0.2885  0.8826
  213MOL0     H28704   7.598   2.206   5.266 -0.2804  0.8423  0.9012
  213MOL0     H28705   7.700   2.286   5.394 -2.0088  0.9412 -0.9133
  213MOL0     H28706   7.957   2.235   5.415  1.8249  1.4359 -0.2908
  213MOL0     H28707   8.207   2.147   5.185  1.7134  1.1720  1.2279
  213MOL0     H28708   8.202   2.158   5.355 -1.1862 -1.3246  0.8144
  213MOL0     H28709   8.234   1.953   5.408  0.5609  0.2706 -0.8871
  213MOL0     H28710   8.111   1.891   5.284 -1.0372  0.7061 -1.4556
  213MOL0     H28711   8.296   1.901   5.106  1.4164 -1.3216 -1.0428
  213MOL0     H28712   8.351   1.805   5.246 -4.5788 -0.6263  0.1339
  213MOL0     H28713   8.470   2.006   5.332  1.1646 -2.3556 -0.1736
  213MOL0     H28714   8.408   2.103   5.186 -0.4021 -0.0398 -2.1140
  213MOL0     H28715   8.793   1.872   5.161 -0.0087  0.0128 -0.4797
  213MOL0     H28716   8.994   1.996   5.123 -1.5395 -3.9853  0.0686
  213MOL0     H28717   9.225   2.295   4.830 -0.3585 -1.4482  0.4294
  213MOL0     H28718   9.395   2.465   4.805 -0.0048 -0.8556 -0.4089
  213MOL0     H28719   9.586   2.634   4.802 -0.6172  2.2520 -0.8036
  213MOL0     H28720   9.452   2.698   4.886  0.2620  0.6699 -2.6284
  213MOL0     H28721   9.632   2.865   4.886  1.6207  0.5470  0.4068
  213MOL0     H28722   9.605   2.822   5.056  3.0183  1.3241  1.1947
  213MOL0     H28723   9.799   2.710   5.092 -0.1246 -2.3505 -0.4768
  213MOL0     H28724   9.836   2.683   4.926 -0.0053  2.2199 -1.0306
  213MOL0     H28725   9.818   2.951   5.060  1.8598  0.3666  1.6958
  213MOL0     H28726   9.866   2.931   4.892  3.4907 -2.5890 -0.7100
  213MOL0     H28727  10.021   2.813   5.122 -0.4100 -0.8493  0.5202
  213MOL0     H28728  10.043   2.961   5.028 -0.9189  0.5205 -1.1917
  213MOL0     H28729  10.197   2.767   4.981 -0.5186 -1.2773  0.3482
  213MOL0     H28730  10.059   2.673   4.925 -1.6581  0.6999 -2.2257
  213MOL0     H28731  10.011   2.862   4.748 -0.5791  1.1221  1.3544
  213MOL0     H28732  10.169   2.773   4.725  2.3773  0.7762  1.8337
  213MOL0     H28733  10.218   2.976   4.679 -1.2185 -1.7504  0.2301
  213MOL0     H28734  10.139   3.052   4.817  0.0059  0.9690 -0.6914
  213MOL0     H28735   9.496   2.439   5.225  1.5912 -4.0944  0.2265
  213MOL0     H28736   9.313   2.272   5.257  0.6287 -1.5879 -0.5945
  213MOL0     H28737   8.764   2.335   5.007  0.5305  0.4667 -0.1026
  213MOL0     H28738   8.558   2.225   5.079 -0.2167 -0.0145 -0.7906
  213MOL0     H28739   7.049   1.844   5.879  0.1230  0.8272 -0.4833
  213MOL0     H28740   6.814   1.868   5.824  0.6253 -0.5021  4.4201
  213MOL0     H28741   6.478   1.870   5.679  0.8435 -1.0897 -1.4805
  213MOL0     H28742   6.240   1.931   5.669 -2.5324 -1.3118  2.2067
  213MOL0     H28743   5.956   1.637   5.724  0.0771 -2.5983 -0.8841
  213MOL0     H28744   5.936   1.605   5.563  0.8196 -1.0377  1.0248
  213MOL0     H28745   5.796   1.868   5.628 -2.0909  0.9227 -0.5424
  213MOL0     H28746   5.727   1.718   5.699  2.3967 -2.6333  1.8011
  213MOL0     H28747   5.760   1.623   5.450 -2.9011 -0.8012 -1.2918
  213MOL0     H28748   5.788   1.789   5.403 -0.0111  0.4003  1.5900
  213MOL0     H28749   5.565   1.857   5.492  0.0412  0.5288 -1.1431
  213MOL0     H28750   5.563   1.764   5.356 -0.5868 -0.1326  0.3584
  213MOL0     H28751   5.384   1.490   5.608  2.2260 -0.7968  0.4522
  213MOL0     H28752   6.137   1.536   5.595 -0.7206  0.6843 -0.5782
  213MOL0     H28753   6.259   1.357   5.593  0.4241 -2.6245  0.3866
  213MOL0     H28754   6.417   1.387   5.506 -0.8145  2.7993 -0.8938
  213MOL0     H28755   6.410   1.352   5.677 -1.0891  2.0591  1.3627
  214MOL0     O28756   6.067  10.045   9.850 -0.1454 -0.0847  0.5657
  214MOL0     C28757   6.002  10.029   9.747 -0.0028 -0.8552 -1.1520
  214MOL0     O28758   6.062  10.013   9.625 -0.3321  0.2302 -0.5211
  214MOL0     C28759   6.174   9.934   9.635 -0.8460  0.1426 -0.2141
  214MOL0     C28760   6.159   9.800   9.584 -1.4699  0.2261 -0.4391
  214MOL0     C28761   6.272   9.709   9.572  0.5788 -0.6076 -0.0982
  214MOL0     C28762   6.396   9.743   9.624  0.8806  0.2008  0.4558
  214MOL0     O28763   6.488   9.646   9.616  1.0598 -0.1361 -0.4371
  214MOL0     C28764   6.629   9.674   9.620 -0.6082 -0.5926  0.0538
  214MOL0     C28765   6.699   9.734   9.497  0.1838 -0.5338  0.3018
  214MOL0     C28766   6.845   9.738   9.489  0.1095 -0.9569  0.8570
  214MOL0     C28767   6.899   9.789   9.619 -0.1153 -0.1927 -0.2821
  214MOL0     C28768   7.042   9.824   9.618 -0.1263  0.0503 -0.5940
  214MOL0     C28769   7.128   9.710   9.573  0.3253 -0.2371  0.1411
  214MOL0     C28770   7.276   9.751   9.547  0.0934  0.1758  1.3748
  214MOL0     C28771   7.360   9.753   9.675 -0.9426  0.1892 -0.1886
  214MOL0     N28772   7.498   9.804   9.666  0.5051 -1.1612 -0.3843
  214MOL0     C28773   7.563   9.800   9.550  0.5123 -0.4543  0.1246
  214MOL0     C28774   7.645   9.909   9.558  0.1898 -0.1923  0.4944
  214MOL0     C28775   7.716   9.985   9.447  1.2653  0.1687  0.1110
  214MOL0     C28776   7.862   9.945   9.434 -0.4033  0.0234  0.4953
  214MOL0     C28777   7.860   9.794   9.394  0.4132  0.3614 -0.1976
  214MOL0     C28778   7.994   9.752   9.357 -0.5531 -0.9183  0.1171
  214MOL0     O28779   7.984   9.623   9.327 -0.1180  0.4877 -0.3686
  214MOL0     C28780   8.090   9.559   9.263 -0.6153 -0.0518 -0.0505
  214MOL0     C28781   8.189   9.620   9.174  0.5172 -0.5924 -0.3455
  214MOL0     C28782   8.296   9.538   9.132  0.6780 -0.2701 -0.1098
  214MOL0     C28783   8.300   9.399   9.168 -0.4151  0.4640  0.5994
  214MOL0     C28784   8.396   9.312   9.094 -0.2598  0.6857  0.4810
  214MOL0     O28785   8.460   9.357   8.984 -0.1182  0.1019 -0.2245
  214MOL0     C28786   8.491   9.270   8.876  0.3843  0.7056 -0.3593
  214MOL0     C28787   8.430   9.146   8.858  0.8586  0.6109 -0.7936
  214MOL0     C28788   8.475   9.060   8.760 -0.9125  0.5616  0.7006
  214MOL0     C28789   8.591   9.095   8.682  0.7342  0.3646  0.2710
  214MOL0     O28790   8.647   9.024   8.585  0.3489  0.4344 -0.7090
  214MOL0     C28791   8.636   8.885   8.598  0.0261 -0.0159 -0.1918
  214MOL0     C28792   8.740   8.821   8.506 -1.1582 -0.3853 -0.1690
  214MOL0     C28793   8.764   8.667   8.516  0.2643 -0.3705 -0.4078
  214MOL0     C28794   8.633   8.592   8.502  0.1761  0.1565 -0.2852
  214MOL0     C28795   8.646   8.442   8.502  1.0166  0.6805 -0.5723
  214MOL0     C28796   8.527   8.366   8.553  0.2828 -0.2646 -0.3412
  214MOL0     C28797   8.399   8.363   8.472 -0.1761 -0.7353  0.1848
  214MOL0     C28798   8.299   8.465   8.511  0.2991 -1.7732 -1.0075
  214MOL0    Cl28799   8.306   8.601   8.403 -0.4080 -0.4587  0.1754
  214MOL0     C28800   8.631   9.224   8.686 -0.5811 -0.0807 -0.8385
  214MOL0     C28801   8.586   9.309   8.783 -0.6458  0.7924 -0.8406
  214MOL0     O28802   8.411   9.199   9.144 -0.4254  0.6751  0.4659
  214MOL0     C28803   8.210   9.354   9.266 -0.5966  0.6617  0.0007
  214MOL0     C28804   8.108   9.431   9.307 -0.7005  0.3610  0.5819
  214MOL0     N28805   7.634   9.974   9.677 -0.6258  0.5058 -0.2901
  214MOL0     N28806   7.542   9.904   9.739 -0.2161  0.4363 -0.1785
  214MOL0     C28807   6.412   9.866   9.667 -0.0756 -0.7108 -0.3706
  214MOL0     C28808   6.311   9.964   9.668  0.0797 -0.4783  0.6960
  214MOL0     C28809   5.851  10.046   9.750  0.2906 -0.0166  0.3528
  214MOL0     C28810   5.799  10.084   9.624  0.4640  0.5232  0.6456
  214MOL0     C28811   5.668  10.120   9.597 -0.0658 -0.5848  0.6807
  214MOL0     C28812   5.575  10.128   9.702  0.4849 -0.1923  0.2110
  214MOL0     O28813   5.450  10.172   9.670  0.0379  0.1100  0.2554
  214MOL0     C28814   5.348  10.148   9.764  0.8041  0.5713 -0.1321
  214MOL0     C28815   5.235  10.238   9.731 -1.0387 -0.0305 -0.1067
  214MOL0     C28816   5.131  10.211   9.832  0.1159 -0.4241  0.8434
  214MOL0     C28817   5.012  10.312   9.804  0.3514  0.3226  0.0420
  214MOL0     C28818   4.882  10.257   9.843 -0.5600  0.7085 -0.4756
  214MOL0     C28819   4.767  10.237   9.870 -0.0387  0.8570 -0.1781
  214MOL0     C28820   5.626  10.090   9.836 -0.1803  0.3369 -0.1217
  214MOL0     C28821   5.757  10.049   9.855 -1.3262 -0.7976 -0.1291
  214MOL0     C28822   5.793  10.018  10.003 -1.0466 -0.1223  0.4874
  214MOL0     H28823   6.059   9.771   9.553 -3.1725  3.4744  1.5338
  214MOL0     H28824   6.250   9.613   9.526 -2.1852  0.2086 -0.6864
  214MOL0     H28825   6.651   9.745   9.700  2.5501 -0.9402 -0.3405
  214MOL0     H28826   6.672   9.576   9.647 -0.9220 -1.2237 -1.5893
  214MOL0     H28827   6.669   9.839   9.497  1.5036  0.0386  4.5765
  214MOL0     H28828   6.656   9.685   9.410 -2.0973  1.4071  0.2368
  214MOL0     H28829   6.873   9.814   9.415 -1.5710 -0.0594  1.1123
  214MOL0     H28830   6.885   9.639   9.463 -0.0123 -0.9764  0.7520
  214MOL0     H28831   6.839   9.874   9.651  1.7778  0.3015  2.3161
  214MOL0     H28832   6.874   9.712   9.693 -3.8402  0.2977 -0.8142
  214MOL0     H28833   7.046   9.913   9.554 -0.9516  1.1276  0.7918
  214MOL0     H28834   7.084   9.861   9.712  1.8156  1.5471 -1.9660
  214MOL0     H28835   7.121   9.632   9.649 -1.4106 -0.2898 -0.0160
  214MOL0     H28836   7.082   9.661   9.486 -1.4456 -0.8219  1.3364
  214MOL0     H28837   7.274   9.846   9.493 -2.8840 -1.0463 -0.9591
  214MOL0     H28838   7.319   9.679   9.477  0.4330  0.6834  1.0576
  214MOL0     H28839   7.304   9.814   9.747  1.5743  0.8598  1.3501
  214MOL0     H28840   7.369   9.652   9.715 -2.0907 -0.1913 -0.8656
  214MOL0     H28841   7.554   9.733   9.465 -2.3276 -1.0174  0.7620
  214MOL0     H28842   7.665   9.975   9.351  1.0454  0.4192  0.2002
  214MOL0     H28843   7.707  10.092   9.466 -1.2213  0.2249 -0.9571
  214MOL0     H28844   7.901  10.012   9.357 -2.0611  1.2619  0.6681
  214MOL0     H28845   7.915   9.966   9.527 -1.1008 -1.4397  1.2671
  214MOL0     H28846   7.796   9.794   9.305  1.2896  2.0091 -0.8574
  214MOL0     H28847   7.816   9.727   9.469  0.2906  0.3234 -0.3021
  214MOL0     H28848   8.049   9.771   9.450 -0.2826  0.1376 -0.2373
  214MOL0     H28849   8.021   9.813   9.270 -0.2929  2.9047  2.6275
  214MOL0     H28850   8.199   9.727   9.155 -1.3186  0.0372  1.7384
  214MOL0     H28851   8.370   9.588   9.070 -2.4452  2.1129 -2.2800
  214MOL0     H28852   8.364   9.097   8.929  4.0205  0.4060  2.3003
  214MOL0     H28853   8.435   8.960   8.744  2.7395 -0.9367 -0.2105
  214MOL0     H28854   8.670   8.853   8.697  0.9365 -1.4133 -0.9197
  214MOL0     H28855   8.537   8.842   8.583 -0.1167  0.0301  0.5719
  214MOL0     H28856   8.718   8.841   8.401 -2.5190 -1.1834 -0.0552
  214MOL0     H28857   8.834   8.874   8.525 -0.2519 -1.3241 -1.7437
  214MOL0     H28858   8.822   8.632   8.430  0.7024  0.2286 -0.3619
  214MOL0     H28859   8.814   8.653   8.612 -0.8767  0.8310  0.3879
  214MOL0     H28860   8.583   8.628   8.412 -0.4117 -0.2081 -0.1100
  214MOL0     H28861   8.576   8.614   8.593 -0.5086 -2.3867 -0.0284
  214MOL0     H28862   8.731   8.417   8.566 -1.3764  0.5050  2.7891
  214MOL0     H28863   8.669   8.403   8.402 -0.4127  0.6632 -0.9175
  214MOL0     H28864   8.576   8.269   8.566  0.9155 -0.1473 -1.6950
  214MOL0     H28865   8.498   8.411   8.649  0.4820 -0.6863 -0.0798
  214MOL0     H28866   8.352   8.264   8.480 -0.1234 -0.6405  2.2041
  214MOL0     H28867   8.432   8.379   8.369 -4.2035 -0.3646 -1.2233
  214MOL0     H28868   8.199   8.426   8.488  1.3317 -5.1934 -0.2401
  214MOL0     H28869   8.303   8.499   8.615 -3.7019  1.7241 -1.7165
  214MOL0     H28870   8.699   9.282   8.625  1.0533  1.0882  1.9099
  214MOL0     H28871   8.633   9.405   8.800 -0.4272  0.6245 -0.4864
  214MOL0     H28872   8.217   9.254   9.309  0.1082  0.6639 -0.0958
  214MOL0     H28873   8.053   9.394   9.394 -0.7948 -1.6404 -0.2687
  214MOL0     H28874   6.506   9.892   9.716  0.7694  0.6444 -2.5546
  214MOL0     H28875   6.332  10.062   9.709  1.5393 -1.2973  2.0195
  214MOL0     H28876   5.861  10.081   9.536  1.0275 -1.2966  1.0558
  214MOL0     H28877   5.645  10.146   9.495 -0.0286 -1.1246  0.5287
  214MOL0     H28878   5.373  10.160   9.870  0.9059 -0.5016 -0.0244
  214MOL0     H28879   5.311  10.046   9.754  1.8319  0.2028 -0.3955
  214MOL0     H28880   5.182  10.215   9.638  0.8584 -1.3134 -0.9514
  214MOL0     H28881   5.263  10.343   9.732 -0.7424 -0.0859  1.8225
  214MOL0     H28882   5.176  10.229   9.930  2.6902 -0.2404 -0.2990
  214MOL0     H28883   5.095  10.108   9.824  0.7164 -0.6359  0.8135
  214MOL0     H28884   5.031  10.408   9.852 -0.3293  1.9321 -2.7170
  214MOL0     H28885   5.000  10.336   9.698  2.5802  0.0701 -0.3130
  214MOL0     H28886   4.664  10.213   9.891  0.1553  0.1446 -0.0160
  214MOL0     H28887   5.558  10.084   9.920 -2.5798 -1.0290 -2.0291
  214MOL0     H28888   5.842   9.921  10.013  0.8791  0.8838  1.2386
  214MOL0     H28889   5.852  10.099  10.046 -4.0111  1.3344  2.1042
  214MOL0     H28890   5.702  10.020  10.064 -0.4912  0.6604  1.3154
  215MOL0     O28891   4.903   1.255   9.674  0.8420 -0.2995 -0.4491
  215MOL0     C28892   4.849   1.265   9.781 -0.8426 -0.0730  0.1343
  215MOL0     O28893   4.901   1.331   9.894 -0.0508 -0.2684  0.5757
  215MOL0     C28894   5.035   1.355   9.909 -0.4706  0.8006  0.2339
  215MOL0     C28895   5.094   1.475   9.872 -0.6156 -0.4652 -0.5226
  215MOL0     C28896   5.232   1.500   9.898  0.1174  0.2801 -0.6639
  215MOL0     C28897   5.315   1.407   9.961  0.5835  0.1114 -0.7012
  215MOL0     O28898   5.444   1.451   9.985  0.0774  0.3440 -0.1222
  215MOL0     C28899   5.538   1.343  10.034 -0.0213  0.5218 -0.1160
  215MOL0     C28900   5.684   1.379  10.027  0.4871  0.7334 -0.7176
  215MOL0     C28901   5.765   1.265  10.085 -0.4752 -0.2147 -0.0756
  215MOL0     C28902   5.915   1.286  10.067  0.3341 -0.3966 -0.2181
  215MOL0     C28903   6.001   1.193  10.147 -0.5961  1.0151 -0.5652
  215MOL0     C28904   6.151   1.237  10.177  0.5573 -0.3010 -0.2822
  215MOL0     C28905   6.221   1.296  10.055 -0.2305  0.3223  0.2315
  215MOL0     C28906   6.255   1.193   9.950 -0.5093  0.2528  0.7522
  215MOL0     N28907   6.324   1.246   9.828  0.4779 -0.3491 -0.3764
  215MOL0     C28908   6.453   1.271   9.807 -0.3588 -0.1320 -0.3017
  215MOL0     C28909   6.459   1.342   9.693  0.8614  0.2183 -1.2275
  215MOL0     C28910   6.580   1.379   9.619  0.4026  0.3834  0.2757
  215MOL0     C28911   6.626   1.278   9.504  1.0268 -0.6006 -0.6758
  215MOL0     C28912   6.518   1.253   9.389 -0.4597 -0.3601  0.3129
  215MOL0     C28913   6.575   1.153   9.292 -0.1945  0.6100 -0.4235
  215MOL0     O28914   6.692   1.210   9.234  0.6947  0.0828 -0.3511
  215MOL0     C28915   6.775   1.115   9.188 -0.8217 -0.3574 -0.3072
  215MOL0     C28916   6.923   1.132   9.217 -0.7809 -0.7401 -0.0553
  215MOL0     C28917   7.017   1.039   9.167 -0.3573  0.2355 -0.6020
  215MOL0     C28918   6.974   0.932   9.081 -0.2034  0.6517  0.5524
  215MOL0     C28919   7.072   0.830   9.032 -1.1647  0.5568 -0.5951
  215MOL0     O28920   7.034   0.720   8.965 -0.1122  0.3761 -0.1229
  215MOL0     C28921   7.129   0.638   8.918 -0.6749 -0.3559 -0.1921
  215MOL0     C28922   7.182   0.650   8.785 -0.1732 -1.0222  0.5278
  215MOL0     C28923   7.264   0.559   8.723  0.0337  0.9857  0.5717
  215MOL0     C28924   7.316   0.453   8.795  0.3549 -0.5358 -0.5266
  215MOL0     O28925   7.422   0.390   8.740 -0.2113 -0.3457  0.0827
  215MOL0     C28926   7.527   0.345   8.828 -0.6460 -0.6289  0.1466
  215MOL0     C28927   7.602   0.452   8.892 -0.0475  0.9569 -0.0139
  215MOL0     C28928   7.681   0.535   8.797 -0.3085 -0.3009  0.3522
  215MOL0     C28929   7.753   0.651   8.867 -1.0674  0.7181 -0.4832
  215MOL0     C28930   7.879   0.702   8.786  0.6673  0.6986  1.7237
  215MOL0     C28931   7.849   0.767   8.647 -0.2554  0.8994 -0.7078
  215MOL0     C28932   7.979   0.801   8.590 -0.3509  0.6956  0.8181
  215MOL0     C28933   7.973   0.875   8.462  0.7412  0.0485  0.4598
  215MOL0    Cl28934   7.935   1.052   8.473  0.7097 -0.0271 -0.2327
  215MOL0     C28935   7.259   0.428   8.922 -1.3548 -0.5030  0.2279
  215MOL0     C28936   7.175   0.523   8.990  0.3311 -0.0443  0.7049
  215MOL0     O28937   7.190   0.850   9.081  0.0267 -0.1013  0.2465
  215MOL0     C28938   6.837   0.934   9.038 -0.8514 -0.1433 -0.3540
  215MOL0     C28939   6.741   1.010   9.095 -0.0811 -0.8214  0.2980
  215MOL0     N28940   6.327   1.356   9.649  0.3086  0.4312  0.3086
  215MOL0     N28941   6.246   1.295   9.723  0.0670  0.6608 -0.8171
  215MOL0     C28942   5.255   1.282   9.997 -0.5551 -0.0455  0.7284
  215MOL0     C28943   5.121   1.258   9.966  1.0323  0.7539 -0.2418
  215MOL0     C28944   4.698   1.231   9.788 -0.3029 -0.2227  0.5518
  215MOL0     C28945   4.628   1.277   9.900  0.2917  0.3158 -1.3730
  215MOL0     C28946   4.492   1.245   9.912  0.5396  0.4053  0.0408
  215MOL0     C28947   4.418   1.180   9.815  0.5102 -0.6288  0.5701
  215MOL0     O28948   4.290   1.143   9.841  0.9228  0.3447  0.4748
  215MOL0     C28949   4.205   1.102   9.735  0.2792 -0.0782  0.1488
  215MOL0     C28950   4.061   1.060   9.771 -0.3600 -0.6785  0.0969
  215MOL0     C28951   3.991   1.168   9.853  0.0523 -0.3052  0.2739
  215MOL0     C28952   3.859   1.126   9.928 -1.1063 -1.3817  0.2472
  215MOL0     C28953   3.757   1.046   9.861  0.1306 -0.2239  0.2251
  215MOL0     C28954   3.677   0.984   9.793 -0.5166  0.3797  0.3124
  215MOL0     C28955   4.476   1.145   9.695  0.6914 -0.6118  0.6815
  215MOL0     C28956   4.619   1.170   9.685  0.9532 -0.0371  0.1693
  215MOL0     C28957   4.689   1.119   9.558 -0.2916 -0.5207 -0.1999
  215MOL0     H28958   5.039   1.553   9.821  0.4292  2.1239  2.0243
  215MOL0     H28959   5.266   1.595   9.860 -1.1181  0.0579 -2.4527
  215MOL0     H28960   5.508   1.329  10.138 -2.2182 -0.3359 -0.7863
  215MOL0     H28961   5.530   1.250   9.977  0.4562  1.2844 -1.4626
  215MOL0     H28962   5.683   1.471  10.087  1.2044  0.3026 -0.0342
  215MOL0     H28963   5.704   1.401   9.922 -0.9550  2.1738 -0.7434
  215MOL0     H28964   5.741   1.164  10.051  3.3094 -1.6175  0.9282
  215MOL0     H28965   5.759   1.262  10.194 -0.1324  2.2061  0.0578
  215MOL0     H28966   5.935   1.276   9.960  1.3036  1.3638 -0.2299
  215MOL0     H28967   5.938   1.391  10.086 -1.3186 -0.4207  2.3927
  215MOL0     H28968   5.952   1.182  10.244  1.0974 -2.3834  0.0419
  215MOL0     H28969   5.993   1.094  10.101  2.3816 -0.0136  0.8429
  215MOL0     H28970   6.136   1.309  10.257 -3.0572 -2.1468  0.9162
  215MOL0     H28971   6.216   1.156  10.210  1.3830  0.2169 -0.6008
  215MOL0     H28972   6.305   1.352  10.097 -0.2180  0.2730  0.2712
  215MOL0     H28973   6.146   1.360  10.006 -3.2439 -1.7150  1.8589
  215MOL0     H28974   6.329   1.128   9.999 -0.6169  0.1289  0.7486
  215MOL0     H28975   6.168   1.137   9.917  0.1397 -1.0755  1.2532
  215MOL0     H28976   6.540   1.251   9.869  0.4384 -0.1064 -1.3740
  215MOL0     H28977   6.561   1.476   9.571  2.4047  0.7360  0.0833
  215MOL0     H28978   6.665   1.407   9.682 -0.4230  1.9658  0.7560
  215MOL0     H28979   6.712   1.324   9.455  1.1369  2.0769  1.7981
  215MOL0     H28980   6.654   1.188   9.559  0.0109 -0.5498 -0.0404
  215MOL0     H28981   6.487   1.346   9.342  4.2571  2.0972  1.3831
  215MOL0     H28982   6.431   1.213   9.442 -1.2187  0.7570 -0.0602
  215MOL0     H28983   6.503   1.131   9.212 -0.0779  1.6868 -0.8383
  215MOL0     H28984   6.585   1.056   9.341  0.2302 -0.3108 -2.2522
  215MOL0     H28985   6.948   1.210   9.289  2.2939 -3.0689  1.6520
  215MOL0     H28986   7.116   1.036   9.209  0.3812 -3.3715 -2.2044
  215MOL0     H28987   7.161   0.744   8.735  1.7689 -0.7618  0.0996
  215MOL0     H28988   7.290   0.572   8.618  2.9769  0.8077  1.1838
  215MOL0     H28989   7.490   0.278   8.907 -1.1465 -0.5903 -0.0540
  215MOL0     H28990   7.598   0.282   8.773 -0.5379 -0.7967  0.4684
  215MOL0     H28991   7.536   0.521   8.946 -0.2086  0.7060  0.1114
  215MOL0     H28992   7.666   0.396   8.961 -0.1871  0.4425 -0.2950
  215MOL0     H28993   7.758   0.475   8.745 -0.3567  0.4934 -0.6656
  215MOL0     H28994   7.615   0.583   8.724  3.3879  1.6367 -2.0303
  215MOL0     H28995   7.778   0.621   8.969  1.3646  2.3774 -0.5131
  215MOL0     H28996   7.687   0.739   8.871 -1.2902  0.5151  0.4789
  215MOL0     H28997   7.949   0.623   8.759 -2.2155 -0.6053 -3.0368
  215MOL0     H28998   7.922   0.782   8.848 -0.3868  1.9377  0.8944
  215MOL0     H28999   7.794   0.692   8.589 -1.1176  2.3985 -1.9199
  215MOL0     H29000   7.787   0.856   8.660 -0.6417  0.6602 -0.8802
  215MOL0     H29001   8.037   0.710   8.574  0.0513  1.0421  0.2714
  215MOL0     H29002   8.050   0.852   8.656  1.9331 -0.8228 -0.3346
  215MOL0     H29003   8.073   0.868   8.418  0.5511 -1.2452  0.1850
  215MOL0     H29004   7.894   0.823   8.407  1.3932 -0.0742 -0.3784
  215MOL0     H29005   7.307   0.349   8.979  0.0121 -0.3339 -0.6538
  215MOL0     H29006   7.148   0.496   9.092 -0.1117 -1.6029  0.2086
  215MOL0     H29007   6.807   0.845   8.985 -0.5647  0.2717 -1.2383
  215MOL0     H29008   6.638   1.000   9.061  0.6976  1.4724 -3.3931
  215MOL0     H29009   5.312   1.217  10.063  1.2013  3.6440  3.1987
  215MOL0     H29010   5.077   1.167  10.006  0.4620  0.4896 -1.4347
  215MOL0     H29011   4.666   1.338   9.981 -1.3451  2.5719 -2.1813
  215MOL0     H29012   4.451   1.282  10.005  0.9451 -0.4875  0.5852
  215MOL0     H29013   4.246   1.018   9.679  1.3402 -0.4071  1.3795
  215MOL0     H29014   4.197   1.191   9.671  0.1356 -0.8439 -0.9201
  215MOL0     H29015   4.063   0.969   9.831 -4.5861 -0.1170  1.4474
  215MOL0     H29016   4.003   1.027   9.684 -4.0957  0.4614  1.9172
  215MOL0     H29017   3.978   1.254   9.787  2.1272 -0.8694 -0.9708
  215MOL0     H29018   4.061   1.206   9.929  1.2544 -1.8559  0.0105
  215MOL0     H29019   3.873   1.086  10.029  1.8075 -2.7375 -0.5807
  215MOL0     H29020   3.810   1.222   9.946  1.5808  0.5084 -1.7481
  215MOL0     H29021   3.618   0.932   9.720  0.6473  2.3523 -2.1725
  215MOL0     H29022   4.422   1.109   9.608 -0.1067  1.3693  0.3065
  215MOL0     H29023   4.703   1.199   9.484  1.9783  0.3960  1.1374
  215MOL0     H29024   4.781   1.063   9.576 -0.3822 -0.5500  0.1610
  215MOL0     H29025   4.624   1.043   9.514  0.4423 -1.5533  0.4501
  216MOL0     O29026   0.785  10.984   4.096  0.2516  0.4885  0.1766
  216MOL0     C29027   0.754  11.030   3.987  1.0909  0.1321  0.2242
  216MOL0     O29028   0.840  11.083   3.905 -0.0657 -0.0913 -0.3399
  216MOL0     C29029   0.974  11.092   3.940  0.1356  0.3151  1.1098
  216MOL0     C29030   1.068  10.986   3.942  0.4797 -0.2074 -0.5594
  216MOL0     C29031   1.195  11.007   3.988 -0.4830 -0.7638  0.0835
  216MOL0     C29032   1.233  11.122   4.044 -0.3806 -0.6763 -0.9935
  216MOL0     O29033   1.368  11.149   4.098  0.1235  0.1134  1.0500
  216MOL0     C29034   1.468  11.043   4.086 -0.4528 -0.0267 -0.3415
  216MOL0     C29035   1.602  11.072   4.163  0.3592  0.0828  0.4245
  216MOL0     C29036   1.673  11.197   4.117  0.8669  0.4477 -0.8321
  216MOL0     C29037   1.753  11.168   3.984 -0.1822 -0.0027 -0.4130
  216MOL0     C29038   1.833  11.296   3.938 -0.0406  0.9986  0.0243
  216MOL0     C29039   1.962  11.318   4.018  0.3698 -0.3906  0.1292
  216MOL0     C29040   2.077  11.231   3.952  0.0192 -0.3798 -0.0698
  216MOL0     C29041   2.193  11.225   4.056  0.2903 -0.0041  0.7854
  216MOL0     N29042   2.325  11.193   3.992 -0.4489 -0.0574 -0.2162
  216MOL0     C29043   2.362  11.080   3.922  0.4712  0.3800 -0.4690
  216MOL0     C29044   2.499  11.096   3.894 -0.1053 -0.2872 -0.0371
  216MOL0     C29045   2.589  11.008   3.807 -0.1083 -0.1624  0.0832
  216MOL0     C29046   2.629  11.058   3.668  0.1723 -0.3035  0.5965
  216MOL0     C29047   2.724  10.972   3.597 -0.3577  0.0838 -0.3425
  216MOL0     C29048   2.853  10.943   3.666  1.0174 -0.1288  0.1374
  216MOL0     O29049   2.922  11.067   3.697 -0.4306 -0.4675 -1.0510
  216MOL0     C29050   3.060  11.100   3.670  0.4192  0.1038 -0.3635
  216MOL0     C29051   3.133  11.192   3.743  0.6344  0.6597 -0.2142
  216MOL0     C29052   3.262  11.233   3.712  1.0795  0.1327  0.8345
  216MOL0     C29053   3.331  11.179   3.604 -0.0860 -0.4473 -0.2677
  216MOL0     C29054   3.470  11.223   3.583 -0.6185  0.3399  0.1696
  216MOL0     O29055   3.519  11.327   3.650  0.3647 -0.1474  0.2529
  216MOL0     C29056   3.647  11.369   3.626  0.8642 -0.4162  0.2442
  216MOL0     C29057   3.758  11.306   3.682 -0.4409  0.6538 -0.2066
  216MOL0     C29058   3.894  11.347   3.665 -0.2396 -0.0525 -0.0256
  216MOL0     C29059   3.921  11.477   3.602 -0.9650  0.4845 -0.9934
  216MOL0     O29060   4.050  11.523   3.611  0.1701 -0.5073  0.0492
  216MOL0     C29061   4.096  11.611   3.507 -1.5153  1.0039 -0.0836
  216MOL0     C29062   4.237  11.669   3.531 -0.8155  0.9636  0.5742
  216MOL0     C29063   4.306  11.729   3.407  0.3509  0.8688  0.0122
  216MOL0     C29064   4.443  11.783   3.438  0.0025  0.6417 -0.6092
  216MOL0     C29065   4.488  11.866   3.320 -0.4182 -0.8717 -0.6076
  216MOL0     C29066   4.619  11.941   3.340  0.0212 -0.9249 -0.1179
  216MOL0     C29067   4.731  11.838   3.383 -0.7046 -0.2542  0.9821
  216MOL0     C29068   4.761  11.738   3.264 -0.0704  0.2073  0.1190
  216MOL0    Cl29069   4.820  11.832   3.126  0.1867  0.0012  0.0738
  216MOL0     C29070   3.808  11.546   3.550  0.1433 -0.5609 -1.0880
  216MOL0     C29071   3.674  11.496   3.568  0.1682  0.0814  0.3908
  216MOL0     O29072   3.531  11.160   3.507 -0.2677  0.8444 -1.0656
  216MOL0     C29073   3.256  11.085   3.530 -1.1522  0.3278 -0.2486
  216MOL0     C29074   3.123  11.053   3.557 -0.3444 -0.3200  0.4027
  216MOL0     N29075   2.539  11.219   3.953 -0.1548  0.1389 -0.3092
  216MOL0     N29076   2.439  11.270   4.000 -0.0081 -0.2355  0.4105
  216MOL0     C29077   1.149  11.225   4.057 -0.1565  0.8424 -0.6327
  216MOL0     C29078   1.020  11.215   4.001  0.3767  0.1020 -0.3532
  216MOL0     C29079   0.608  11.033   3.947 -0.5276 -0.0978 -0.3776
  216MOL0     C29080   0.582  11.093   3.815 -0.4703 -0.3806  0.6271
  216MOL0     C29081   0.445  11.122   3.778 -0.4381 -0.0473 -0.4653
  216MOL0     C29082   0.336  11.082   3.856  0.6146  0.3324  0.4291
  216MOL0     O29083   0.206  11.090   3.815 -0.1141 -0.8891  0.1486
  216MOL0     C29084   0.151  10.958   3.800  0.1638 -0.3562  0.2845
  216MOL0     C29085   0.035  10.924   3.892 -1.3192  0.2947  0.2437
  216MOL0     C29086  -0.097  10.989   3.857  0.6840  0.4791 -0.4370
  216MOL0     C29087  -0.095  11.143   3.884  0.3263  0.0016 -0.2618
  216MOL0     C29088  -0.225  11.206   3.863 -0.0809  0.6844 -0.1057
  216MOL0     C29089  -0.335  11.242   3.833  0.6510 -0.8383  0.4412
  216MOL0     C29090   0.371  11.022   3.973 -0.1606  1.0178  0.1586
  216MOL0     C29091   0.497  10.996   4.019 -0.7866 -0.3685 -0.0554
  216MOL0     C29092   0.509  10.921   4.154  0.5494  0.5179  0.4892
  216MOL0     H29093   1.047  10.882   3.918  1.1181 -0.9588  1.8068
  216MOL0     H29094   1.256  10.918   3.979 -0.6722 -1.2302  2.6631
  216MOL0     H29095   1.431  10.952   4.134 -1.8855  0.6115 -0.1974
  216MOL0     H29096   1.498  11.023   3.983 -0.6165 -0.7156 -0.2635
  216MOL0     H29097   1.672  10.988   4.157  1.5915  1.1923 -2.5358
  216MOL0     H29098   1.563  11.089   4.264  1.7173 -1.6446  1.3101
  216MOL0     H29099   1.742  11.233   4.194 -0.9073  0.7084  0.7075
  216MOL0     H29100   1.593  11.269   4.096  2.3526  1.7387 -2.2934
  216MOL0     H29101   1.811  11.077   4.001 -3.6918 -2.2132  1.0077
  216MOL0     H29102   1.689  11.139   3.900  0.3894  0.3731 -0.9844
  216MOL0     H29103   1.860  11.282   3.833  1.1405 -0.0166  0.4368
  216MOL0     H29104   1.774  11.387   3.952 -0.1634  0.7229  1.4329
  216MOL0     H29105   1.998  11.420   4.007 -0.9910  0.0154 -0.7978
  216MOL0     H29106   1.939  11.295   4.122 -0.9156 -0.0122 -0.0639
  216MOL0     H29107   2.118  11.274   3.860  2.6693  0.0941  1.2295
  216MOL0     H29108   2.035  11.131   3.937 -0.9866 -0.4448  2.4929
  216MOL0     H29109   2.198  11.326   4.098 -1.7264  0.9504 -1.0604
  216MOL0     H29110   2.173  11.141   4.123  2.7356  1.4599  3.5784
  216MOL0     H29111   2.293  11.001   3.895  0.8398 -0.5984  1.3231
  216MOL0     H29112   2.675  10.984   3.871 -1.5380 -0.7591  1.8801
  216MOL0     H29113   2.544  10.908   3.811 -1.0162  0.2376  0.0456
  216MOL0     H29114   2.541  11.057   3.603  0.4014  0.1147  0.2698
  216MOL0     H29115   2.667  11.160   3.682  1.7622 -1.1255  2.7301
  216MOL0     H29116   2.744  11.027   3.505  0.4954  1.1499  0.4351
  216MOL0     H29117   2.674  10.880   3.566  0.4397  0.8144 -4.3382
  216MOL0     H29118   2.909  10.867   3.610  1.2907  1.0875 -1.2835
  216MOL0     H29119   2.835  10.887   3.758  2.2297  0.3944  0.7173
  216MOL0     H29120   3.095  11.223   3.840 -1.2387 -1.5170 -0.1527
  216MOL0     H29121   3.307  11.301   3.784  1.3358  0.6216  0.2292
  216MOL0     H29122   3.748  11.218   3.745 -1.3834  1.1974  0.4220
  216MOL0     H29123   3.971  11.284   3.707 -0.8219 -0.4576  0.4629
  216MOL0     H29124   4.100  11.549   3.417  0.7140 -0.9930  1.2508
  216MOL0     H29125   4.030  11.696   3.488 -0.6308  2.2423  1.9898
  216MOL0     H29126   4.235  11.746   3.609 -0.7637 -0.5638  2.1503
  216MOL0     H29127   4.300  11.586   3.566  1.2383  3.5773  3.6384
  216MOL0     H29128   4.317  11.650   3.332 -0.5722  0.6286  0.1142
  216MOL0     H29129   4.234  11.805   3.376 -0.8642 -0.7029 -1.2031
  216MOL0     H29130   4.517  11.706   3.462  1.4236  1.6078 -1.6976
  216MOL0     H29131   4.441  11.853   3.523  5.4368  0.9702 -0.3562
  216MOL0     H29132   4.408  11.933   3.288  1.8936 -0.1790 -6.2363
  216MOL0     H29133   4.496  11.800   3.233  1.9468  0.4240 -1.4559
  216MOL0     H29134   4.646  11.993   3.248 -0.9788  2.0129  1.1327
  216MOL0     H29135   4.613  12.015   3.421 -1.2074 -1.9707  0.7743
  216MOL0     H29136   4.703  11.788   3.476  0.6664 -2.2156  0.4038
  216MOL0     H29137   4.827  11.891   3.391 -0.6780 -0.1017 -0.1620
  216MOL0     H29138   4.839  11.668   3.294  1.6177  1.4591 -1.1506
  216MOL0     H29139   4.674  11.681   3.229  0.3933  0.0375 -0.7941
  216MOL0     H29140   3.823  11.645   3.507  4.3245 -0.9262 -0.9331
  216MOL0     H29141   3.593  11.556   3.526  0.4929  0.1191 -0.1953
  216MOL0     H29142   3.308  11.042   3.445 -2.5928 -1.5769 -0.2050
  216MOL0     H29143   3.062  10.987   3.497 -0.8685 -0.1050  0.6952
  216MOL0     H29144   1.186  11.308   4.116 -3.1763  3.7058 -2.4532
  216MOL0     H29145   0.948  11.296   3.998 -1.2646 -1.1164  2.2363
  216MOL0     H29146   0.669  11.105   3.751  0.7720 -1.6106  2.0015
  216MOL0     H29147   0.420  11.171   3.684 -0.1327 -0.5852 -0.8334
  216MOL0     H29148   0.224  10.879   3.816  1.0011 -0.1030 -1.8869
  216MOL0     H29149   0.123  10.935   3.696 -2.7147 -0.4630  0.9988
  216MOL0     H29150   0.067  10.954   3.992  0.2370 -1.3561  0.2909
  216MOL0     H29151   0.027  10.816   3.905 -0.1759 -0.3497 -3.3712
  216MOL0     H29152  -0.171  10.951   3.928 -0.2383  1.0280 -1.0760
  216MOL0     H29153  -0.116  10.957   3.754 -1.1429  1.0970 -0.3242
  216MOL0     H29154  -0.057  11.158   3.985 -2.1066  0.6701  0.6206
  216MOL0     H29155  -0.020  11.188   3.817  2.4160 -3.6283 -0.6113
  216MOL0     H29156  -0.428  11.256   3.780  1.2236  0.8594 -0.1837
  216MOL0     H29157   0.295  10.997   4.046  1.0355 -0.5114  0.9212
  216MOL0     H29158   0.583  10.841   4.144  2.0924  2.1127 -1.4430
  216MOL0     H29159   0.558  10.982   4.230 -0.4005  0.9826  0.7505
  216MOL0     H29160   0.408  10.895   4.187  0.6731 -1.7623 -0.7475
  217MOL0     O29161   7.342   3.444   5.116  0.6536 -0.2707  0.4343
  217MOL0     C29162   7.317   3.368   5.203 -0.5074  1.1973  0.9100
  217MOL0     O29163   7.412   3.299   5.269 -0.2495 -0.2069 -0.0884
  217MOL0     C29164   7.548   3.328   5.235 -0.8666 -0.4640  0.3326
  217MOL0     C29165   7.626   3.413   5.316  0.0593 -0.3485 -0.0040
  217MOL0     C29166   7.749   3.450   5.280  0.5460  0.8510 -0.0049
  217MOL0     C29167   7.813   3.391   5.171 -0.4131 -0.5948 -0.0760
  217MOL0     O29168   7.938   3.454   5.138 -0.4346  0.2678 -0.6114
  217MOL0     C29169   8.016   3.408   5.030  0.1769 -0.8819  0.2798
  217MOL0     C29170   8.162   3.448   5.041 -0.0197 -0.0569 -0.7171
  217MOL0     C29171   8.250   3.402   4.919  0.7063  0.4898  0.5656
  217MOL0     C29172   8.400   3.434   4.940 -0.5991  0.6148  0.9592
  217MOL0     C29173   8.466   3.424   4.804 -0.4356  0.2362 -0.4177
  217MOL0     C29174   8.490   3.283   4.740  0.9169 -0.6045 -1.1217
  217MOL0     C29175   8.594   3.281   4.629 -0.4600 -0.1982  0.8014
  217MOL0     C29176   8.525   3.297   4.489 -0.3230 -0.6188  0.7951
  217MOL0     N29177   8.614   3.284   4.370  0.1540  0.2162 -0.0635
  217MOL0     C29178   8.742   3.338   4.352  0.2788  0.2995 -0.8595
  217MOL0     C29179   8.792   3.282   4.243 -0.4419  0.2235  0.0783
  217MOL0     C29180   8.929   3.281   4.172 -0.7603 -0.1575  0.5348
  217MOL0     C29181   9.040   3.385   4.208  0.0848  1.3309  0.5463
  217MOL0     C29182   9.171   3.343   4.144 -0.4495  0.2255  0.2725
  217MOL0     C29183   9.297   3.426   4.190 -1.4137 -0.7267  0.3046
  217MOL0     O29184   9.326   3.397   4.331  0.0921 -0.3424 -0.3152
  217MOL0     C29185   9.437   3.459   4.395 -0.6917  0.2272  0.4134
  217MOL0     C29186   9.444   3.441   4.531 -0.5141 -0.0359  0.0811
  217MOL0     C29187   9.550   3.495   4.608 -0.1055 -0.3266  1.0502
  217MOL0     C29188   9.663   3.567   4.549 -0.6584  0.9817  0.5141
  217MOL0     C29189   9.778   3.604   4.623  0.0009  0.2553 -0.7642
  217MOL0     O29190   9.877   3.672   4.565 -0.4796  0.1263 -0.3610
  217MOL0     C29191   9.999   3.702   4.630  0.7689 -0.0316 -0.5534
  217MOL0     C29192  10.042   3.836   4.647 -0.2338  0.5315 -0.5020
  217MOL0     C29193  10.170   3.864   4.703 -0.4230  0.7495  0.6110
  217MOL0     C29194  10.246   3.750   4.743  0.3816 -0.8508 -0.2259
  217MOL0     O29195  10.367   3.785   4.802 -0.0801 -0.3641 -0.2184
  217MOL0     C29196  10.442   3.675   4.841 -0.2639  0.3281  0.5825
  217MOL0     C29197  10.582   3.713   4.886  1.2980  0.6208 -0.3278
  217MOL0     C29198  10.572   3.776   5.032 -0.1516  0.3330  0.5294
  217MOL0     C29199  10.709   3.844   5.066  0.1672  0.1663 -0.2690
  217MOL0     C29200  10.821   3.744   5.111 -0.0304  1.2304  0.0864
  217MOL0     C29201  10.957   3.818   5.145  0.2427  0.4761  0.1407
  217MOL0     C29202  11.059   3.724   5.217  0.9623  0.1194 -0.0027
  217MOL0     C29203  11.150   3.800   5.316 -0.8147  0.2764  0.1239
  217MOL0    Cl29204  11.284   3.693   5.389  0.4358 -0.1244 -0.1149
  217MOL0     C29205  10.197   3.621   4.731  0.2985  0.6646 -0.2128
  217MOL0     C29206  10.073   3.595   4.679 -0.4150 -0.4991  0.4195
  217MOL0     O29207   9.777   3.573   4.748 -0.0039  0.3137  0.2457
  217MOL0     C29208   9.657   3.586   4.408 -0.8829  0.6124 -0.4980
  217MOL0     C29209   9.540   3.536   4.329 -0.5514 -0.6522  0.5359
  217MOL0     N29210   8.699   3.197   4.187 -0.3773  0.1497 -0.8659
  217MOL0     N29211   8.594   3.192   4.266 -0.3100 -0.4811  0.0608
  217MOL0     C29212   7.745   3.295   5.097  0.8509  0.2706  0.2828
  217MOL0     C29213   7.610   3.258   5.125 -0.1101 -0.9205 -0.2787
  217MOL0     C29214   7.175   3.350   5.246 -0.8798  0.1233 -0.4859
  217MOL0     C29215   7.148   3.228   5.314  0.0351 -0.8949  0.5013
  217MOL0     C29216   7.015   3.191   5.336 -0.0458  0.3111 -0.9690
  217MOL0     C29217   6.910   3.282   5.311 -1.0000 -0.3022  0.4676
  217MOL0     O29218   6.785   3.272   5.341 -0.3436  0.0857 -0.6612
  217MOL0     C29219   6.748   3.158   5.419  0.5180  0.5321 -0.3253
  217MOL0     C29220   6.610   3.175   5.469  0.0774  0.2511  0.4088
  217MOL0     C29221   6.501   3.164   5.370  0.0021  0.2022 -0.8550
  217MOL0     C29222   6.365   3.205   5.438  0.1573 -0.1404 -1.4022
  217MOL0     C29223   6.272   3.095   5.446 -0.1387  1.1242  0.2149
  217MOL0     C29224   6.196   3.002   5.436  0.1645  0.3496  0.2643
  217MOL0     C29225   6.950   3.409   5.266  1.0141  0.4601  1.0529
  217MOL0     C29226   7.076   3.442   5.223 -0.1310  0.2145 -0.0222
  217MOL0     C29227   7.088   3.583   5.155 -0.2147  0.0771  0.2999
  217MOL0     H29228   7.583   3.455   5.407 -0.4081  1.5227 -1.0429
  217MOL0     H29229   7.803   3.520   5.344  0.6381  0.5987  0.1930
  217MOL0     H29230   8.015   3.299   5.027  0.3324 -0.9109  1.0633
  217MOL0     H29231   7.977   3.448   4.936 -4.2959 -1.2671  1.7620
  217MOL0     H29232   8.206   3.404   5.131 -1.2733  0.2096  0.0430
  217MOL0     H29233   8.175   3.555   5.062 -3.8802  0.2158  1.1562
  217MOL0     H29234   8.214   3.469   4.840 -2.7371  0.3691  1.8338
  217MOL0     H29235   8.231   3.299   4.889  1.1979 -0.0340  1.9935
  217MOL0     H29236   8.397   3.535   4.980 -2.8719  1.2384 -0.5808
  217MOL0     H29237   8.456   3.370   5.009  2.0201  1.5754 -0.1262
  217MOL0     H29238   8.404   3.467   4.725  0.0942 -1.3943 -1.7840
  217MOL0     H29239   8.564   3.471   4.812 -0.5895  0.4567  0.2296
  217MOL0     H29240   8.529   3.221   4.821 -1.1340 -1.1457 -0.4957
  217MOL0     H29241   8.395   3.239   4.710 -1.6887  2.9336  1.1835
  217MOL0     H29242   8.659   3.193   4.634  1.0834  0.8790  0.4064
  217MOL0     H29243   8.671   3.358   4.643 -1.1296  0.6233  0.0899
  217MOL0     H29244   8.460   3.209   4.484  0.7081 -1.5349  2.7531
  217MOL0     H29245   8.462   3.386   4.486 -0.8590 -0.9969 -1.9287
  217MOL0     H29246   8.785   3.413   4.418 -1.5744  1.8235 -1.2800
  217MOL0     H29247   8.970   3.181   4.187  0.4781  0.4360  1.1916
  217MOL0     H29248   8.895   3.288   4.068  1.0557 -0.1311 -0.0974
  217MOL0     H29249   9.007   3.482   4.172  1.1488  1.0139 -1.4263
  217MOL0     H29250   9.059   3.393   4.316  0.5698  0.5088  0.5317
  217MOL0     H29251   9.164   3.347   4.035  0.4703 -0.9416  0.1470
  217MOL0     H29252   9.202   3.241   4.171 -0.0987  1.1041  3.5902
  217MOL0     H29253   9.291   3.533   4.171  1.6218 -0.0510  2.3663
  217MOL0     H29254   9.383   3.386   4.135 -1.0408  2.1940 -1.4313
  217MOL0     H29255   9.364   3.387   4.581 -1.6200 -1.0293 -2.5872
  217MOL0     H29256   9.553   3.482   4.716  0.8251  0.3815  1.1140
  217MOL0     H29257   9.979   3.919   4.618  0.9311  1.8458  0.5717
  217MOL0     H29258  10.202   3.968   4.709 -0.0974  0.8247 -1.6871
  217MOL0     H29259  10.402   3.609   4.920 -0.5876  1.2561  1.2161
  217MOL0     H29260  10.456   3.614   4.752 -0.2193  1.8923 -0.5121
  217MOL0     H29261  10.630   3.615   4.894 -3.7366 -2.0790  0.8134
  217MOL0     H29262  10.633   3.779   4.815  0.4660  0.1127 -1.4398
  217MOL0     H29263  10.489   3.847   5.027 -0.1023  0.3540 -3.2503
  217MOL0     H29264  10.539   3.697   5.099 -1.7275  0.2001 -0.3557
  217MOL0     H29265  10.692   3.920   5.144  1.3320 -0.4374  0.6064
  217MOL0     H29266  10.759   3.903   4.988  1.5513 -2.0840 -1.1932
  217MOL0     H29267  10.848   3.680   5.027  0.5978  2.3116 -0.5518
  217MOL0     H29268  10.787   3.688   5.198  2.2655  1.7367  1.3936
  217MOL0     H29269  10.994   3.851   5.047  1.0664  0.0987  0.3209
  217MOL0     H29270  10.940   3.910   5.203  4.2367  1.2994  0.2523
  217MOL0     H29271  11.122   3.683   5.138 -0.3997 -0.1590 -0.9809
  217MOL0     H29272  11.006   3.645   5.270 -0.5686  0.5742 -0.8060
  217MOL0     H29273  11.194   3.880   5.255 -0.5208 -0.3776 -0.5324
  217MOL0     H29274  11.097   3.858   5.393 -2.9261 -1.9475  0.4603
  217MOL0     H29275  10.249   3.533   4.767  1.2531  0.3901 -2.1279
  217MOL0     H29276  10.033   3.494   4.666 -0.5622 -0.4997  0.8686
  217MOL0     H29277   9.742   3.626   4.354  1.8218 -1.3654  1.9307
  217MOL0     H29278   9.536   3.552   4.222  1.5696 -1.1231  0.3488
  217MOL0     H29279   7.789   3.260   5.004  0.0042  1.6454 -0.6670
  217MOL0     H29280   7.553   3.197   5.056 -3.2285  0.3306  1.0113
  217MOL0     H29281   7.224   3.153   5.330  1.1437 -0.2939 -1.5364
  217MOL0     H29282   7.012   3.095   5.386  1.6169  0.0392 -1.3460
  217MOL0     H29283   6.808   3.136   5.508 -0.5404  0.9277  0.5209
  217MOL0     H29284   6.753   3.069   5.356 -2.1567 -1.2399  1.6828
  217MOL0     H29285   6.603   3.277   5.507 -0.6411  0.2683  0.2434
  217MOL0     H29286   6.592   3.114   5.558  2.5876  0.2784  1.0081
  217MOL0     H29287   6.503   3.058   5.344  1.9476 -0.1245  0.4186
  217MOL0     H29288   6.512   3.217   5.275  0.4324 -0.4873 -1.1969
  217MOL0     H29289   6.375   3.242   5.541 -2.3254 -0.6820 -0.8989
  217MOL0     H29290   6.328   3.290   5.381 -1.6319  0.0360 -0.0583
  217MOL0     H29291   6.131   2.925   5.399  1.3186  0.1082 -1.3526
  217MOL0     H29292   6.872   3.483   5.257 -2.0107 -2.4731  1.0869
  217MOL0     H29293   7.104   3.573   5.047  0.0360 -0.8720  0.4128
  217MOL0     H29294   7.003   3.650   5.174 -0.8443 -0.5235 -0.3749
  217MOL0     H29295   7.182   3.631   5.184 -1.6331  3.0226  0.4124
  218MOL0     O29296   3.671   1.547   3.963 -0.1331  0.5279  0.3924
  218MOL0     C29297   3.654   1.659   4.023  0.0166  0.3317  0.0383
  218MOL0     O29298   3.735   1.724   4.100  0.0850  0.1095 -0.0122
  218MOL0     C29299   3.867   1.705   4.077 -0.1630 -0.0091 -0.9247
  218MOL0     C29300   3.957   1.672   4.183 -0.8692  0.4633 -0.4968
  218MOL0     C29301   4.095   1.661   4.147  0.1909 -0.0861 -0.2783
  218MOL0     C29302   4.140   1.678   4.015 -1.0197  0.0773  0.4076
  218MOL0     O29303   4.270   1.663   3.971  0.3963 -0.3056  0.3704
  218MOL0     C29304   4.370   1.613   4.061 -1.0672 -0.8100 -0.3906
  218MOL0     C29305   4.503   1.620   3.988 -0.1942 -0.6443 -0.0617
  218MOL0     C29306   4.620   1.563   4.076 -0.2507  0.0487  0.5986
  218MOL0     C29307   4.756   1.559   3.997  0.3802 -0.1551 -0.1956
  218MOL0     C29308   4.861   1.498   4.089  0.4730 -0.2812  0.0187
  218MOL0     C29309   4.977   1.439   4.014  0.2043 -0.3237  0.3888
  218MOL0     C29310   5.103   1.449   4.095  0.5687  0.4337 -0.3712
  218MOL0     C29311   5.106   1.357   4.213  0.3995  0.1568 -0.3708
  218MOL0     N29312   5.239   1.363   4.272  0.1186  0.9346  0.5287
  218MOL0     C29313   5.348   1.275   4.238  0.7415  0.5645 -0.2344
  218MOL0     C29314   5.458   1.319   4.309 -0.4152 -0.0454  0.1174
  218MOL0     C29315   5.590   1.254   4.311  0.0754  0.5385  0.3908
  218MOL0     C29316   5.587   1.139   4.411 -0.4539 -0.2130 -0.1971
  218MOL0     C29317   5.723   1.061   4.425  0.6380  0.3369 -0.3057
  218MOL0     C29318   5.846   1.142   4.467 -0.2543 -0.6443 -0.2866
  218MOL0     O29319   5.923   1.191   4.359 -0.2586 -0.2454  0.3852
  218MOL0     C29320   6.055   1.239   4.380 -0.2027  0.2210 -0.3838
  218MOL0     C29321   6.148   1.192   4.477 -0.6898 -0.3064  0.7225
  218MOL0     C29322   6.280   1.244   4.486  0.0908 -0.3782  0.2970
  218MOL0     C29323   6.329   1.342   4.393  0.4372 -0.1996 -0.2672
  218MOL0     C29324   6.466   1.389   4.394 -0.0229 -0.3568  0.5126
  218MOL0     O29325   6.484   1.522   4.338 -0.0033  0.6515 -0.5379
  218MOL0     C29326   6.617   1.554   4.327  0.2704 -0.2235 -0.1948
  218MOL0     C29327   6.694   1.583   4.442  0.2885 -0.0420  0.0802
  218MOL0     C29328   6.822   1.633   4.432 -0.0637  0.5586 -0.2781
  218MOL0     C29329   6.874   1.664   4.306  0.3276 -0.4474  0.1826
  218MOL0     O29330   7.006   1.714   4.311  0.2148 -0.6685  0.5048
  218MOL0     C29331   7.048   1.783   4.192  0.4947  0.3893 -0.7603
  218MOL0     C29332   7.162   1.884   4.223  0.4633 -0.5661 -0.1465
  218MOL0     C29333   7.276   1.811   4.292  0.1827 -0.0440  0.2560
  218MOL0     C29334   7.308   1.665   4.253  0.6684 -0.3542  0.2032
  218MOL0     C29335   7.435   1.604   4.308  0.5175 -0.4475 -0.0386
  218MOL0     C29336   7.439   1.596   4.455 -0.1625 -0.1901 -0.1822
  218MOL0     C29337   7.562   1.679   4.510 -0.1248 -0.3872 -0.2956
  218MOL0     C29338   7.590   1.633   4.660  0.2370  0.4258 -0.4493
  218MOL0    Cl29339   7.740   1.708   4.708 -0.4204 -0.0546 -0.1242
  218MOL0     C29340   6.800   1.635   4.194  0.7523 -0.0244  0.3401
  218MOL0     C29341   6.670   1.578   4.202 -0.3451 -0.4269 -0.4993
  218MOL0     O29342   6.559   1.314   4.427  0.4344  0.8133 -0.1692
  218MOL0     C29343   6.241   1.380   4.287 -0.2740  0.7048  0.7151
  218MOL0     C29344   6.106   1.337   4.289 -1.5289  0.4480  0.7820
  218MOL0     N29345   5.416   1.429   4.388  0.2774  0.1633 -0.5463
  218MOL0     N29346   5.286   1.451   4.365  0.6390  0.2009 -0.8658
  218MOL0     C29347   4.054   1.722   3.922  0.1324 -0.2498  0.5001
  218MOL0     C29348   3.920   1.737   3.946  0.4407  0.0500 -0.5444
  218MOL0     C29349   3.530   1.723   3.989 -0.0145  0.0122  0.3504
  218MOL0     C29350   3.510   1.852   4.041 -0.0484 -0.0086  0.2421
  218MOL0     C29351   3.394   1.929   4.015  0.4064  0.2261 -0.5249
  218MOL0     C29352   3.297   1.882   3.924 -0.1324  0.2649 -0.6050
  218MOL0     O29353   3.200   1.959   3.882 -0.1885  0.0188 -0.8212
  218MOL0     C29354   3.131   2.040   3.986  0.1011  0.2232 -0.0378
  218MOL0     C29355   2.977   2.054   3.963 -0.8041 -0.2055 -0.9150
  218MOL0     C29356   2.915   1.911   3.969  1.3480  0.9450  0.5980
  218MOL0     C29357   2.782   1.894   3.894 -0.9487 -0.7739 -0.0577
  218MOL0     C29358   2.689   1.987   3.942 -0.1260  0.5283  0.4017
  218MOL0     C29359   2.610   2.078   3.973 -1.2098 -0.0335 -0.1103
  218MOL0     C29360   3.326   1.760   3.864  0.0317 -0.4163 -0.1870
  218MOL0     C29361   3.432   1.678   3.891 -0.1946 -0.0452 -0.3999
  218MOL0     C29362   3.439   1.561   3.802  0.3158 -0.6364 -0.1146
  218MOL0     H29363   3.919   1.657   4.283 -1.3066 -0.7134 -0.8236
  218MOL0     H29364   4.155   1.633   4.233  1.9183 -0.4010 -1.5287
  218MOL0     H29365   4.378   1.671   4.153  0.3847 -1.9812  0.2573
  218MOL0     H29366   4.355   1.507   4.083 -2.0674 -0.9013 -1.4136
  218MOL0     H29367   4.530   1.719   3.950  4.4358 -1.0642  1.4066
  218MOL0     H29368   4.503   1.555   3.900  1.2164 -0.6903 -0.0580
  218MOL0     H29369   4.590   1.462   4.104  0.5730 -0.7057 -1.0613
  218MOL0     H29370   4.624   1.629   4.163 -4.3708 -0.0870  1.0619
  218MOL0     H29371   4.726   1.488   3.919  0.8045  0.7151 -1.1779
  218MOL0     H29372   4.788   1.654   3.954  1.5961  0.7183  2.4560
  218MOL0     H29373   4.896   1.576   4.157  0.1282 -0.3678  0.3011
  218MOL0     H29374   4.814   1.421   4.151  1.0904 -0.6297  0.0606
  218MOL0     H29375   4.957   1.337   3.980  2.8619 -0.6488 -0.4671
  218MOL0     H29376   4.990   1.505   3.927  1.5042  0.5828  1.2388
  218MOL0     H29377   5.125   1.549   4.132 -1.1339  0.9080 -0.5973
  218MOL0     H29378   5.192   1.425   4.035  1.8149  3.2951  0.1689
  218MOL0     H29379   5.033   1.397   4.284 -0.0453  0.2353 -0.8641
  218MOL0     H29380   5.072   1.255   4.194  0.6346 -0.1275  0.6904
  218MOL0     H29381   5.348   1.187   4.173 -1.1669 -0.0920  0.5691
  218MOL0     H29382   5.626   1.229   4.211  1.9188  0.5793  1.0161
  218MOL0     H29383   5.651   1.331   4.361  1.5704 -0.1969 -0.2708
  218MOL0     H29384   5.547   1.166   4.509  1.6459 -0.4500  0.7700
  218MOL0     H29385   5.522   1.063   4.367 -0.5021  0.1617 -0.7845
  218MOL0     H29386   5.736   1.012   4.328  1.1290  2.1966 -1.2318
  218MOL0     H29387   5.711   0.986   4.504  2.2897 -0.6320 -0.9206
  218MOL0     H29388   5.902   1.078   4.535 -1.7220 -0.0352  1.6025
  218MOL0     H29389   5.812   1.225   4.530 -0.0160 -0.2913 -0.6174
  218MOL0     H29390   6.112   1.121   4.551  1.1769 -2.1550 -0.0397
  218MOL0     H29391   6.356   1.210   4.555  1.0499 -2.7686 -1.7810
  218MOL0     H29392   6.648   1.556   4.536 -1.0949 -2.1013 -1.1192
  218MOL0     H29393   6.874   1.651   4.526 -0.3824  0.4187 -0.0726
  218MOL0     H29394   7.068   1.713   4.111 -0.3141 -1.5498  0.6151
  218MOL0     H29395   6.961   1.842   4.164  0.0715  1.4114  2.3022
  218MOL0     H29396   7.192   1.921   4.125 -0.8585  0.3828 -0.2277
  218MOL0     H29397   7.136   1.972   4.283  0.5175  0.5919 -1.7590
  218MOL0     H29398   7.366   1.872   4.288 -0.4425  0.8940  0.0889
  218MOL0     H29399   7.251   1.815   4.398  1.0886  3.3963  0.4517
  218MOL0     H29400   7.301   1.665   4.144  0.8537  1.8874  0.1308
  218MOL0     H29401   7.226   1.599   4.281 -0.3913  0.0857 -1.6849
  218MOL0     H29402   7.513   1.663   4.260 -0.3999  2.1041  1.3837
  218MOL0     H29403   7.443   1.501   4.272  0.3587 -0.0531 -1.2587
  218MOL0     H29404   7.343   1.613   4.505 -0.7353 -1.4037 -0.8271
  218MOL0     H29405   7.454   1.490   4.480  0.1014  0.3005  1.9539
  218MOL0     H29406   7.546   1.787   4.512  2.4048  0.0430  0.7593
  218MOL0     H29407   7.660   1.664   4.463 -0.0815 -0.4433 -0.1895
  218MOL0     H29408   7.510   1.669   4.725 -0.5518  1.0918 -1.7409
  218MOL0     H29409   7.589   1.524   4.671 -1.6086  0.6217  1.8464
  218MOL0     H29410   6.844   1.641   4.095 -0.0608 -1.9000 -0.1720
  218MOL0     H29411   6.605   1.555   4.119  0.4354 -2.3312 -0.6204
  218MOL0     H29412   6.275   1.442   4.205 -1.4238 -0.3667 -0.6145
  218MOL0     H29413   6.039   1.378   4.214  0.4914  0.3219 -1.1988
  218MOL0     H29414   4.086   1.759   3.825  0.9147 -0.5807  0.6209
  218MOL0     H29415   3.854   1.777   3.870  1.0616 -1.9237 -2.2459
  218MOL0     H29416   3.589   1.896   4.102  2.3444  0.0668 -2.6519
  218MOL0     H29417   3.375   2.029   4.053  2.1542  1.0422 -1.6869
  218MOL0     H29418   3.180   2.137   3.977 -0.6188  0.7276  1.2175
  218MOL0     H29419   3.143   1.996   4.086 -0.8998  0.7920  0.3475
  218MOL0     H29420   2.955   2.112   3.872 -0.9892 -1.1716 -1.4955
  218MOL0     H29421   2.936   2.103   4.051 -2.1843 -0.8209 -1.2008
  218MOL0     H29422   2.908   1.878   4.073 -0.4248  0.9625  0.5098
  218MOL0     H29423   2.994   1.846   3.931  1.8139  1.9661 -0.2422
  218MOL0     H29424   2.811   1.908   3.789 -1.1394 -1.3601 -0.1913
  218MOL0     H29425   2.751   1.791   3.914 -1.6012 -0.4837  0.4628
  218MOL0     H29426   2.539   2.151   4.005  0.7258  1.6843  0.4671
  218MOL0     H29427   3.259   1.724   3.787  0.5433  2.0148 -1.8823
  218MOL0     H29428   3.352   1.557   3.736  0.0925  1.1348  0.0270
  218MOL0     H29429   3.530   1.572   3.742  1.0199  2.8501  1.3142
  218MOL0     H29430   3.444   1.474   3.868 -1.2255  0.0035  0.9137
  219MOL0     O29431   0.706  10.136   6.383 -0.1014 -0.4733 -0.8824
  219MOL0     C29432   0.700  10.105   6.503  0.8252  1.2186 -1.0183
  219MOL0     O29433   0.787  10.023   6.557 -0.3863  0.0562 -0.1232
  219MOL0     C29434   0.881   9.949   6.488 -0.3405  0.5114 -0.3631
  219MOL0     C29435   0.978   9.888   6.575  0.1330  0.2232 -0.2708
  219MOL0     C29436   1.081   9.810   6.527  0.0148 -0.1420 -0.2845
  219MOL0     C29437   1.107   9.803   6.388  0.8443  0.1147  0.0698
  219MOL0     O29438   1.225   9.743   6.357  0.4500 -0.2390  0.2987
  219MOL0     C29439   1.235   9.705   6.215 -0.5290 -0.4289 -0.0378
  219MOL0     C29440   1.335   9.607   6.207  0.4120  0.5860 -0.2731
  219MOL0     C29441   1.473   9.669   6.192  1.3915  0.5747  0.3563
  219MOL0     C29442   1.579   9.570   6.200 -0.5739  0.3881  0.7854
  219MOL0     C29443   1.715   9.620   6.159 -0.7006 -0.5884  0.2847
  219MOL0     C29444   1.814   9.511   6.114 -0.1712 -0.6367  0.2468
  219MOL0     C29445   1.954   9.558   6.085 -0.2381  0.2101  0.4852
  219MOL0     C29446   1.962   9.647   5.955 -0.4918 -0.3920  0.3193
  219MOL0     N29447   2.103   9.671   5.914 -0.5178 -0.9285  0.1899
  219MOL0     C29448   2.176   9.794   5.922  0.4705  0.2904  0.9005
  219MOL0     C29449   2.309   9.760   5.897  0.9516 -0.8577  1.0718
  219MOL0     C29450   2.426   9.853   5.900 -0.1203  0.8055 -0.2603
  219MOL0     C29451   2.561   9.786   5.895 -0.0145  0.5714 -0.7706
  219MOL0     C29452   2.614   9.728   6.030 -0.1479  0.5259 -0.6026
  219MOL0     C29453   2.765   9.689   6.027  0.3510 -0.6402 -0.3796
  219MOL0     O29454   2.837   9.812   6.048 -0.4990  0.1051 -0.6974
  219MOL0     C29455   2.961   9.789   6.087  0.6812  0.8017 -0.1990
  219MOL0     C29456   3.025   9.901   6.139 -0.5216 -0.5599  0.6823
  219MOL0     C29457   3.159   9.898   6.189 -0.0409 -0.0090  0.4213
  219MOL0     C29458   3.236   9.783   6.168  0.1892  1.0626 -0.2133
  219MOL0     C29459   3.381   9.771   6.203  0.3965  0.3967  0.2152
  219MOL0     O29460   3.451   9.888   6.198 -0.0685 -0.1757 -0.0879
  219MOL0     C29461   3.570   9.894   6.256  0.6650  0.4568 -0.4111
  219MOL0     C29462   3.682   9.866   6.186  0.1837 -0.3439  0.5625
  219MOL0     C29463   3.810   9.858   6.245  0.5419 -0.2362  0.6311
  219MOL0     C29464   3.819   9.887   6.377  0.9315  0.4256 -0.0436
  219MOL0     O29465   3.940   9.907   6.435 -0.6337  0.1829 -0.5467
  219MOL0     C29466   4.061   9.885   6.365 -0.0587  0.0491 -0.3883
  219MOL0     C29467   4.109  10.002   6.270  0.5421  0.0743 -0.9459
  219MOL0     C29468   4.141  10.122   6.360  0.3856 -0.1440  0.1812
  219MOL0     C29469   4.201  10.234   6.271  0.0980  1.1009  1.2497
  219MOL0     C29470   4.223  10.357   6.360 -0.0692  0.0015  0.1623
  219MOL0     C29471   4.096  10.439   6.378 -0.1997 -0.5782 -0.3367
  219MOL0     C29472   4.109  10.570   6.447 -0.2503  0.0338 -0.2564
  219MOL0     C29473   4.169  10.556   6.592  0.1628 -0.2179  0.0927
  219MOL0    Cl29474   4.087  10.682   6.690  0.0068  0.5628 -0.0572
  219MOL0     C29475   3.705   9.912   6.454  0.4141  0.0435 -0.1498
  219MOL0     C29476   3.576   9.915   6.392 -0.0783  0.0981 -0.1037
  219MOL0     O29477   3.421   9.658   6.238 -0.2966 -0.5349  0.0472
  219MOL0     C29478   3.166   9.667   6.127 -0.4010 -0.2942 -0.2465
  219MOL0     C29479   3.029   9.668   6.102 -0.5242 -1.2033  0.1284
  219MOL0     N29480   2.302   9.626   5.863 -0.4286  0.0904  1.1670
  219MOL0     N29481   2.183   9.572   5.871 -0.7340  0.6777  0.0322
  219MOL0     C29482   1.021   9.869   6.299  0.2429  0.6710  0.2838
  219MOL0     C29483   0.900   9.935   6.347  0.0152 -0.4415 -0.4878
  219MOL0     C29484   0.568  10.141   6.567  0.8113  0.4319 -0.6136
  219MOL0     C29485   0.467  10.205   6.488 -0.7582  0.0415  0.5850
  219MOL0     C29486   0.347  10.250   6.537 -0.6372  0.2656 -0.5818
  219MOL0     C29487   0.317  10.229   6.676 -0.7629  0.1216  0.3070
  219MOL0     O29488   0.188  10.252   6.733 -0.0185  0.0615 -0.1655
  219MOL0     C29489   0.080  10.310   6.661  0.2405 -0.3684  0.0165
  219MOL0     C29490  -0.051  10.293   6.739  0.1743  0.8146 -0.1311
  219MOL0     C29491  -0.175  10.344   6.666  0.2118 -0.2072  0.0567
  219MOL0     C29492  -0.298  10.283   6.732 -0.1873  0.1057  0.1970
  219MOL0     C29493  -0.330  10.326   6.871 -0.0436  0.4839 -0.2449
  219MOL0     C29494  -0.374  10.346   6.984  0.1909  1.3169 -0.2841
  219MOL0     C29495   0.413  10.164   6.755 -0.4705  0.2704  1.3603
  219MOL0     C29496   0.541  10.121   6.699  0.3372  0.0429 -0.2455
  219MOL0     C29497   0.640  10.072   6.801 -0.4048 -0.6682  0.4207
  219MOL0     H29498   0.954   9.911   6.678 -1.4675  2.7290 -1.0858
  219MOL0     H29499   1.143   9.761   6.602  0.6160 -0.4244 -0.9574
  219MOL0     H29500   1.142   9.665   6.172 -0.3243  0.1050 -0.9997
  219MOL0     H29501   1.276   9.789   6.159  2.6124 -1.6692  0.2063
  219MOL0     H29502   1.312   9.548   6.118  1.2259  0.5145 -0.4431
  219MOL0     H29503   1.331   9.538   6.291 -0.8800  1.6245  0.5611
  219MOL0     H29504   1.483   9.759   6.253 -2.1444  1.1232  0.3317
  219MOL0     H29505   1.470   9.705   6.089 -4.1405 -0.5100 -0.1942
  219MOL0     H29506   1.585   9.525   6.299 -2.7736 -1.0071  0.3546
  219MOL0     H29507   1.548   9.498   6.124  1.2273  1.3990 -1.0049
  219MOL0     H29508   1.707   9.697   6.082 -0.8513  0.3141  1.1854
  219MOL0     H29509   1.758   9.673   6.245 -0.6578  1.1852 -0.7939
  219MOL0     H29510   1.814   9.434   6.192 -1.6415  0.5053  1.4376
  219MOL0     H29511   1.774   9.469   6.021 -1.3553  0.6328  0.1418
  219MOL0     H29512   2.013   9.467   6.072 -0.0803  0.2368  0.9857
  219MOL0     H29513   1.991   9.615   6.171 -2.0752  1.4581  0.5095
  219MOL0     H29514   1.918   9.594   5.870  0.8492 -1.2509  0.1271
  219MOL0     H29515   1.912   9.742   5.975 -2.5304 -1.6098  1.3124
  219MOL0     H29516   2.137   9.891   5.952  0.7460  0.6362  0.1589
  219MOL0     H29517   2.424   9.914   5.810 -1.1885 -0.2699 -0.9987
  219MOL0     H29518   2.419   9.919   5.988  0.4382 -0.4816  0.7864
  219MOL0     H29519   2.579   9.720   5.810  1.8038  0.1852 -0.1443
  219MOL0     H29520   2.630   9.867   5.871 -1.4221  2.6643  1.6365
  219MOL0     H29521   2.558   9.639   6.059  0.3252  0.5517  0.4656
  219MOL0     H29522   2.611   9.803   6.111  0.6598  0.2495 -0.3085
  219MOL0     H29523   2.790   9.628   5.940 -0.1000 -1.2773 -0.0807
  219MOL0     H29524   2.784   9.615   6.106 -2.9009 -1.2389  0.0165
  219MOL0     H29525   2.985  10.002   6.129  2.5843  0.6972 -0.2752
  219MOL0     H29526   3.190   9.986   6.245 -0.0743  0.0454  0.3553
  219MOL0     H29527   3.671   9.849   6.079 -2.7071 -1.5772  0.9774
  219MOL0     H29528   3.896   9.838   6.181 -0.1970  0.9908 -0.7988
  219MOL0     H29529   4.138   9.877   6.442  2.3238 -0.8079 -2.6718
  219MOL0     H29530   4.062   9.789   6.313  0.5683  0.3750 -1.0039
  219MOL0     H29531   4.197   9.981   6.209  1.0672  1.6186 -0.7802
  219MOL0     H29532   4.035  10.041   6.200 -2.1719 -0.3667  1.4802
  219MOL0     H29533   4.049  10.151   6.412  0.8885 -1.8342  2.1025
  219MOL0     H29534   4.213  10.092   6.436 -0.7725 -0.4738  1.1784
  219MOL0     H29535   4.128  10.261   6.195 -1.6999 -0.5171  2.3276
  219MOL0     H29536   4.300  10.206   6.232 -0.3549  0.7344  0.3386
  219MOL0     H29537   4.305  10.409   6.310  0.7523 -2.2461 -0.9555
  219MOL0     H29538   4.253  10.334   6.462 -2.2786  0.3882  0.9576
  219MOL0     H29539   4.046  10.461   6.283  2.4086  0.6886 -1.5400
  219MOL0     H29540   4.031  10.383   6.445  0.9513  0.2354  1.5556
  219MOL0     H29541   4.005  10.603   6.452 -0.5925 -0.8576 -1.2541
  219MOL0     H29542   4.163  10.637   6.380  0.0468 -1.6304 -1.7434
  219MOL0     H29543   4.150  10.461   6.642  1.1426 -0.9592 -0.8831
  219MOL0     H29544   4.276  10.577   6.591  0.0632  0.3094 -0.3896
  219MOL0     H29545   3.703   9.937   6.559 -0.5330 -0.8518  0.0645
  219MOL0     H29546   3.489   9.934   6.454  0.2119 -0.1048  0.3706
  219MOL0     H29547   3.231   9.582   6.107  1.2610  0.2874  2.2386
  219MOL0     H29548   2.991   9.571   6.069 -0.2943 -1.4788  0.6627
  219MOL0     H29549   1.038   9.859   6.192 -0.3055  0.9815  0.1636
  219MOL0     H29550   0.825   9.967   6.276  0.5359  1.2585 -0.3177
  219MOL0     H29551   0.489  10.242   6.388 -0.1469  1.2359  1.1344
  219MOL0     H29552   0.276  10.299   6.471 -0.3169  0.0737 -1.0675
  219MOL0     H29553   0.075  10.275   6.557  1.0571 -2.7375  0.6977
  219MOL0     H29554   0.113  10.414   6.657  1.5647 -0.6274  2.2192
  219MOL0     H29555  -0.025  10.336   6.836  3.4640 -0.4969 -0.3176
  219MOL0     H29556  -0.064  10.187   6.761 -1.1620  1.4701  2.5555
  219MOL0     H29557  -0.172  10.306   6.564 -3.7099  1.2201 -0.7834
  219MOL0     H29558  -0.188  10.452   6.659  1.1474 -0.1277 -0.6118
  219MOL0     H29559  -0.383  10.320   6.674  1.0744  1.7008 -0.7251
  219MOL0     H29560  -0.296  10.175   6.713  3.8337 -0.1822  1.2842
  219MOL0     H29561  -0.411  10.349   7.084  0.2429 -3.3013  0.0615
  219MOL0     H29562   0.392  10.152   6.861  2.8192 -1.5473  1.9702
  219MOL0     H29563   0.610  10.079   6.906  1.8105 -0.2160  1.0788
  219MOL0     H29564   0.664   9.969   6.772  0.6917  0.0472 -1.3786
  219MOL0     H29565   0.733  10.127   6.786  0.9565 -3.1453 -0.9558
  220MOL0     O29566   9.465   3.935   6.211 -0.0765 -0.7483  0.4593
  220MOL0     C29567   9.408   4.012   6.286  1.0327  0.3895  0.0120
  220MOL0     O29568   9.466   4.106   6.364  0.0179 -0.8497 -0.3674
  220MOL0     C29569   9.606   4.109   6.373  0.4295 -0.0941 -0.2048
  220MOL0     C29570   9.687   4.118   6.256  0.3607 -0.2093 -0.0300
  220MOL0     C29571   9.825   4.109   6.273  0.4188 -0.6940 -0.0841
  220MOL0     C29572   9.878   4.107   6.398  0.0704 -0.0806 -0.2822
  220MOL0     O29573  10.014   4.113   6.399  0.0027  0.7318  0.2380
  220MOL0     C29574  10.078   4.113   6.533 -0.0117 -0.2691  0.2846
  220MOL0     C29575  10.228   4.129   6.516  0.6604  0.5790 -1.2704
  220MOL0     C29576  10.301   3.998   6.488 -0.0499 -0.4556 -0.7478
  220MOL0     C29577  10.455   4.022   6.471  0.6111  0.1773  0.5267
  220MOL0     C29578  10.527   3.891   6.461  0.1355 -0.7803 -0.4726
  220MOL0     C29579  10.671   3.880   6.417  1.1793  0.2254  1.0095
  220MOL0     C29580  10.723   3.745   6.420 -0.5208  0.5171  0.6338
  220MOL0     C29581  10.840   3.727   6.328  0.5556  0.6348  0.1190
  220MOL0     N29582  10.917   3.606   6.375 -0.0538  0.1798 -0.1224
  220MOL0     C29583  10.900   3.471   6.335 -0.0964  0.0500 -0.3664
  220MOL0     C29584  11.006   3.399   6.393 -0.4804  0.0733 -0.1340
  220MOL0     C29585  11.033   3.255   6.355 -0.1369 -0.6112 -0.3690
  220MOL0     C29586  11.108   3.175   6.458 -0.9969 -0.3178  0.0221
  220MOL0     C29587  11.083   3.026   6.428 -0.5070  0.0687  0.0404
  220MOL0     C29588  11.138   2.933   6.546  0.3449 -0.3335  0.1204
  220MOL0     O29589  11.282   2.918   6.535  0.3621 -1.0195 -0.9107
  220MOL0     C29590  11.355   2.861   6.638  0.1160  0.2334 -0.4387
  220MOL0     C29591  11.296   2.765   6.726 -0.3804 -0.0253 -0.0677
  220MOL0     C29592  11.376   2.696   6.823  0.4628 -0.0951  0.0944
  220MOL0     C29593  11.502   2.738   6.852  0.0965  0.7579 -0.1231
  220MOL0     C29594  11.581   2.653   6.948  0.4038 -0.3558  0.0086
  220MOL0     O29595  11.712   2.688   6.955 -0.2431  0.0429 -0.4535
  220MOL0     C29596  11.790   2.595   7.020 -0.0966 -0.3671  0.3190
  220MOL0     C29597  11.849   2.487   6.959 -0.0981 -0.4019 -0.5161
  220MOL0     C29598  11.950   2.416   7.026  0.9296 -0.0700  0.1175
  220MOL0     C29599  11.986   2.449   7.154  0.1682  0.7863 -0.4723
  220MOL0     O29600  12.086   2.381   7.222  0.0963 -0.4435  0.4339
  220MOL0     C29601  12.215   2.375   7.168  0.5179  0.2508 -0.0469
  220MOL0     C29602  12.320   2.378   7.273 -0.7004  0.0558 -0.7455
  220MOL0     C29603  12.461   2.369   7.210 -0.2157 -0.0190  1.1735
  220MOL0     C29604  12.493   2.222   7.184  0.1637  0.0924  0.5773
  220MOL0     C29605  12.626   2.185   7.129 -0.3653 -0.7431 -0.3290
  220MOL0     C29606  12.743   2.232   7.222  0.3835  0.3205 -0.5256
  220MOL0     C29607  12.890   2.201   7.180  0.7476  0.0677 -0.0469
  220MOL0     C29608  12.987   2.295   7.255 -0.0004  0.6264 -0.7944
  220MOL0    Cl29609  12.985   2.239   7.423 -0.4561  0.3083  0.2613
  220MOL0     C29610  11.925   2.551   7.223 -0.6160  0.1459  0.3719
  220MOL0     C29611  11.827   2.625   7.154  0.2485  1.0179  0.4226
  220MOL0     O29612  11.524   2.563   7.003  0.3477  0.7067  0.0964
  220MOL0     C29613  11.558   2.845   6.778 -0.0034 -0.0456 -0.1058
  220MOL0     C29614  11.482   2.896   6.666 -0.4617 -0.0297  0.5778
  220MOL0     N29615  11.070   3.490   6.481 -0.0456  0.8818 -0.0415
  220MOL0     N29616  11.026   3.614   6.460 -0.0632  0.8533 -0.0547
  220MOL0     C29617   9.797   4.105   6.513  0.9840  0.3045 -1.0641
  220MOL0     C29618   9.656   4.100   6.494 -0.3200 -0.3166 -0.2230
  220MOL0     C29619   9.263   3.994   6.298  0.4589  0.0773  0.1132
  220MOL0     C29620   9.196   3.916   6.204 -1.0860 -0.4356  0.7752
  220MOL0     C29621   9.059   3.890   6.212 -1.0289  0.3502 -0.1755
  220MOL0     C29622   8.979   3.935   6.314 -0.7552  0.4910 -0.0585
  220MOL0     O29623   8.844   3.900   6.309 -0.6424  0.1829  0.0692
  220MOL0     C29624   8.746   3.975   6.378  0.4008  0.5741  0.7307
  220MOL0     C29625   8.707   3.911   6.513  0.0834  0.7645 -1.0755
  220MOL0     C29626   8.609   3.992   6.605 -0.1085  0.6763  0.5613
  220MOL0     C29627   8.462   3.977   6.560 -0.9000 -0.1523 -0.2312
  220MOL0     C29628   8.426   3.837   6.578 -0.1363  0.0243  0.4448
  220MOL0     C29629   8.387   3.721   6.597 -0.2741 -0.4534  1.1116
  220MOL0     C29630   9.049   4.009   6.419  0.6095  0.3263  0.3213
  220MOL0     C29631   9.186   4.036   6.411  0.0276 -0.3068 -0.4121
  220MOL0     C29632   9.243   4.136   6.527 -0.0563 -0.1994  1.0063
  220MOL0     H29633   9.638   4.132   6.161 -2.9916  0.9308  1.7160
  220MOL0     H29634   9.888   4.109   6.184  0.5281 -1.6636 -0.0229
  220MOL0     H29635  10.027   4.189   6.593  0.0319 -1.4218  1.8832
  220MOL0     H29636  10.057   4.016   6.580  0.0220 -0.7723 -0.7042
  220MOL0     H29637  10.273   4.171   6.607  1.1454 -0.9747 -0.7622
  220MOL0     H29638  10.251   4.206   6.442  4.1131 -0.9076 -1.8964
  220MOL0     H29639  10.258   3.952   6.399 -1.4303  1.7567 -1.2895
  220MOL0     H29640  10.275   3.928   6.568 -0.3733 -0.3988 -0.8037
  220MOL0     H29641  10.466   4.068   6.373  2.2730 -0.5715  0.3407
  220MOL0     H29642  10.489   4.080   6.558  0.6790 -1.6167  1.7374
  220MOL0     H29643  10.530   3.836   6.556  0.1335 -0.7266 -0.4414
  220MOL0     H29644  10.474   3.836   6.383  2.1873 -0.4726 -2.1678
  220MOL0     H29645  10.679   3.939   6.325 -3.1660  2.7533  1.9776
  220MOL0     H29646  10.736   3.938   6.482 -0.7400 -0.5498  3.8002
  220MOL0     H29647  10.644   3.672   6.402  1.9445 -1.8393 -1.5207
  220MOL0     H29648  10.753   3.733   6.524  1.4121  0.8251  0.1489
  220MOL0     H29649  10.809   3.732   6.223 -1.9568  1.4274  0.8215
  220MOL0     H29650  10.905   3.815   6.332 -0.5493  1.4331  1.3073
  220MOL0     H29651  10.825   3.421   6.274 -1.2157 -1.4912  2.1087
  220MOL0     H29652  10.940   3.206   6.325 -0.4446 -0.0309 -0.3930
  220MOL0     H29653  11.098   3.263   6.266  0.1700 -3.6270 -0.5027
  220MOL0     H29654  11.216   3.196   6.464 -1.0719 -0.3055  2.1930
  220MOL0     H29655  11.080   3.190   6.563  0.7553 -1.7664  0.7586
  220MOL0     H29656  11.136   3.006   6.334 -0.2095  1.7127 -0.1770
  220MOL0     H29657  10.979   2.994   6.424 -0.3136 -1.0444  2.3963
  220MOL0     H29658  11.091   2.835   6.534 -0.1237 -0.0190 -0.6905
  220MOL0     H29659  11.116   2.973   6.645 -0.0486 -1.8545  0.6769
  220MOL0     H29660  11.193   2.736   6.708 -0.6348  0.1986  0.9772
  220MOL0     H29661  11.338   2.611   6.878 -2.2976  1.5098  0.9048
  220MOL0     H29662  11.825   2.471   6.854 -0.2048  1.7621 -0.8758
  220MOL0     H29663  11.993   2.328   6.978 -0.4330 -0.6188 -0.1302
  220MOL0     H29664  12.228   2.280   7.116 -1.1454  0.5889 -1.1455
  220MOL0     H29665  12.234   2.450   7.091  3.1340  0.1764  0.4191
  220MOL0     H29666  12.313   2.474   7.325 -1.6072  1.4087 -3.1889
  220MOL0     H29667  12.309   2.297   7.345 -1.2363  0.7864  0.0110
  220MOL0     H29668  12.461   2.422   7.115  3.4794  0.7215  1.4476
  220MOL0     H29669  12.539   2.419   7.268 -0.4941 -1.2364  2.6613
  220MOL0     H29670  12.423   2.176   7.113  1.2571  1.4938 -1.4843
  220MOL0     H29671  12.476   2.166   7.277 -0.1982 -0.6272  0.0889
  220MOL0     H29672  12.636   2.224   7.028  1.9091  1.5275  0.6585
  220MOL0     H29673  12.641   2.077   7.120  2.2615 -0.4024 -0.8993
  220MOL0     H29674  12.724   2.339   7.226 -2.6190 -0.0876 -1.4171
  220MOL0     H29675  12.723   2.192   7.322 -1.2961 -1.2388 -1.4200
  220MOL0     H29676  12.896   2.232   7.075  1.6152  2.0132  0.5379
  220MOL0     H29677  12.912   2.093   7.180 -2.1412 -0.6228  1.2589
  220MOL0     H29678  13.087   2.290   7.211  1.3232 -0.4463  2.0922
  220MOL0     H29679  12.959   2.401   7.259  4.7113  2.1606 -1.7806
  220MOL0     H29680  11.951   2.566   7.327 -1.9994  0.7287  0.6469
  220MOL0     H29681  11.788   2.709   7.212 -3.1780  0.2930 -0.5916
  220MOL0     H29682  11.662   2.868   6.794  0.3045  0.6043 -2.5521
  220MOL0     H29683  11.533   2.964   6.598  2.0517 -0.6783  1.7207
  220MOL0     H29684   9.829   4.095   6.616 -2.5287  0.8987  0.2394
  220MOL0     H29685   9.590   4.103   6.580 -0.6635  2.1291 -0.5011
  220MOL0     H29686   9.256   3.883   6.120  1.6821  1.8247  1.7221
  220MOL0     H29687   9.019   3.825   6.136 -0.3254 -0.5242  0.1856
  220MOL0     H29688   8.660   3.997   6.314  0.2356 -2.2177 -0.1472
  220MOL0     H29689   8.792   4.071   6.400  0.1867  0.3552  2.2356
  220MOL0     H29690   8.803   3.895   6.563 -1.0988 -2.4994  0.3940
  220MOL0     H29691   8.675   3.807   6.510  0.3652  0.6227  0.3215
  220MOL0     H29692   8.639   4.096   6.587  2.3834 -0.4395 -2.8985
  220MOL0     H29693   8.621   3.962   6.710  0.7713  1.6166  0.7444
  220MOL0     H29694   8.400   4.044   6.620 -3.4923  0.6646 -3.5098
  220MOL0     H29695   8.460   3.997   6.452 -2.0879 -1.5232 -0.4912
  220MOL0     H29696   8.338   3.626   6.600 -1.2899 -0.0559 -1.1847
  220MOL0     H29697   8.999   4.033   6.512  1.2859 -1.4426  1.1722
  220MOL0     H29698   9.286   4.225   6.479  0.9554 -0.7917  0.7816
  220MOL0     H29699   9.164   4.161   6.597 -3.2959 -3.4526 -1.1187
  220MOL0     H29700   9.325   4.083   6.577  0.5145  0.2989  0.6290
  221MOL0     O29701   2.977   1.303   9.588 -0.3498 -0.3685  0.6293
  221MOL0     C29702   2.945   1.221   9.507  0.1940  0.8384 -0.5816
  221MOL0     O29703   3.023   1.130   9.436 -0.3312 -0.3562  0.4694
  221MOL0     C29704   3.156   1.171   9.444 -0.4150  0.4589  0.4929
  221MOL0     C29705   3.222   1.287   9.409 -0.7580 -0.0217  0.6011
  221MOL0     C29706   3.363   1.297   9.415 -0.2041 -1.1476  0.9188
  221MOL0     C29707   3.448   1.195   9.448  0.2241 -0.4142  0.2562
  221MOL0     O29708   3.583   1.209   9.446  0.1460 -0.4528 -0.8707
  221MOL0     C29709   3.642   1.332   9.399 -0.0070  0.2808 -0.0888
  221MOL0     C29710   3.797   1.314   9.417 -0.0504 -0.3517 -0.8186
  221MOL0     C29711   3.868   1.212   9.328 -0.8895  0.1655  0.2718
  221MOL0     C29712   4.002   1.185   9.401 -0.1275 -0.3603 -0.0801
  221MOL0     C29713   4.094   1.111   9.294 -0.6477  0.7740  0.3779
  221MOL0     C29714   4.234   1.081   9.353 -0.4690  0.3571  0.1649
  221MOL0     C29715   4.311   0.990   9.255 -0.1654  0.0352 -0.4614
  221MOL0     C29716   4.340   1.038   9.110  0.2697  0.3887  0.0026
  221MOL0     N29717   4.475   1.098   9.102  0.3556  0.2822 -0.2489
  221MOL0     C29718   4.531   1.216   9.158 -0.2151  0.0485 -0.1211
  221MOL0     C29719   4.661   1.220   9.103  0.4343  0.1796 -0.2699
  221MOL0     C29720   4.729   1.353   9.113 -0.1270  0.8902  0.0898
  221MOL0     C29721   4.675   1.423   8.985  0.0433 -0.5066 -0.6455
  221MOL0     C29722   4.737   1.565   8.970 -0.1951 -0.3667  0.6521
  221MOL0     C29723   4.674   1.642   8.851 -0.4999 -0.7796  0.9986
  221MOL0     O29724   4.680   1.572   8.724  0.2904 -0.3660 -0.2261
  221MOL0     C29725   4.804   1.538   8.672  1.0051 -0.7969 -0.4368
  221MOL0     C29726   4.923   1.590   8.726 -0.5708 -0.9526  0.1066
  221MOL0     C29727   5.044   1.553   8.663  0.0841 -0.3201 -0.3316
  221MOL0     C29728   5.053   1.465   8.561 -0.9711  0.2681  0.3223
  221MOL0     C29729   5.184   1.432   8.492  0.1617 -1.1390  0.1631
  221MOL0     O29730   5.184   1.337   8.406 -0.7273  0.1852 -0.7006
  221MOL0     C29731   5.315   1.300   8.366 -0.2347 -0.3482  0.8491
  221MOL0     C29732   5.360   1.324   8.230 -0.2353 -0.0934  0.2072
  221MOL0     C29733   5.496   1.315   8.191 -0.4184 -0.3276 -0.2286
  221MOL0     C29734   5.595   1.282   8.291  0.3076  0.6491  0.0153
  221MOL0     O29735   5.728   1.278   8.265 -0.2381  0.1252 -0.0403
  221MOL0     C29736   5.775   1.375   8.163  0.7488  0.4922  0.1361
  221MOL0     C29737   5.917   1.412   8.184  0.4352 -0.3971 -0.1373
  221MOL0     C29738   5.914   1.543   8.274 -0.1746  0.3717  0.0184
  221MOL0     C29739   6.052   1.585   8.317 -0.6655  0.4434 -0.1008
  221MOL0     C29740   6.058   1.705   8.412  0.6010 -0.4956 -0.3885
  221MOL0     C29741   6.195   1.720   8.482  0.3260 -0.7467 -0.5506
  221MOL0     C29742   6.208   1.848   8.562  0.1580 -0.2671  0.0124
  221MOL0     C29743   6.327   1.860   8.662  0.6201  0.3962  0.2030
  221MOL0    Cl29744   6.296   1.770   8.820 -0.1741  0.0365 -0.0936
  221MOL0     C29745   5.547   1.254   8.419  0.4920 -0.2225  0.7990
  221MOL0     C29746   5.409   1.259   8.455 -0.7516 -0.0017  0.8074
  221MOL0     O29747   5.277   1.507   8.525 -0.4926 -0.6460 -0.4121
  221MOL0     C29748   4.934   1.408   8.515 -0.7942 -1.3950 -0.7113
  221MOL0     C29749   4.813   1.450   8.562  0.4437 -0.5584 -0.2392
  221MOL0     N29750   4.680   1.111   9.021  0.6572  0.3492  0.6154
  221MOL0     N29751   4.572   1.037   9.029 -0.7825 -0.8915 -0.2951
  221MOL0     C29752   3.382   1.070   9.479 -0.1483  0.1963 -0.3437
  221MOL0     C29753   3.240   1.070   9.491  0.6992 -0.0412 -0.5806
  221MOL0     C29754   2.805   1.178   9.526  0.3326  0.2071 -1.8588
  221MOL0     C29755   2.773   1.041   9.533 -0.0141 -0.9474  0.3724
  221MOL0     C29756   2.645   0.993   9.542 -0.1454 -0.1202 -0.2583
  221MOL0     C29757   2.533   1.078   9.531 -0.2912 -0.4291 -0.2198
  221MOL0     O29758   2.401   1.034   9.543 -0.3486  0.2067  0.7047
  221MOL0     C29759   2.370   0.932   9.639  0.0257  0.2014 -0.5781
  221MOL0     C29760   2.352   0.987   9.787 -0.6002 -0.3605  0.0407
  221MOL0     C29761   2.214   1.048   9.800  0.1092 -0.0754  0.3188
  221MOL0     C29762   2.185   1.166   9.696  0.9519  0.2305  0.2409
  221MOL0     C29763   2.067   1.238   9.749  0.8323  0.4876 -0.6499
  221MOL0     C29764   1.980   1.295   9.806 -0.1106 -0.0802 -0.3862
  221MOL0     C29765   2.555   1.217   9.516  0.3728 -0.8155  1.0900
  221MOL0     C29766   2.692   1.265   9.526  0.1995 -0.4964  0.5350
  221MOL0     C29767   2.703   1.413   9.515 -0.0897 -0.4618 -0.5587
  221MOL0     H29768   3.151   1.356   9.365 -1.1954 -1.2110 -0.6356
  221MOL0     H29769   3.394   1.395   9.379 -1.2720 -0.7203  1.1250
  221MOL0     H29770   3.625   1.357   9.294 -0.6472  3.6573  0.6819
  221MOL0     H29771   3.608   1.417   9.460  0.9526 -0.7047  1.8911
  221MOL0     H29772   3.813   1.272   9.516 -4.0208 -3.7565 -1.3473
  221MOL0     H29773   3.847   1.410   9.402 -0.1737 -0.2709 -0.7130
  221MOL0     H29774   3.888   1.256   9.230 -2.5292  1.9111  0.6564
  221MOL0     H29775   3.810   1.119   9.325 -0.9109  0.1118  1.5852
  221MOL0     H29776   4.047   1.283   9.419 -1.3753  0.1966  0.0664
  221MOL0     H29777   3.994   1.129   9.494  3.4407 -1.4086 -0.2325
  221MOL0     H29778   4.055   1.018   9.252  3.3665 -0.1602 -1.7384
  221MOL0     H29779   4.114   1.182   9.213 -1.6649 -0.5447 -1.0748
  221MOL0     H29780   4.281   1.178   9.367  1.4673 -0.2285 -1.7434
  221MOL0     H29781   4.224   1.032   9.450 -1.3494  0.6823  0.2513
  221MOL0     H29782   4.264   0.891   9.250 -1.7048  0.7125 -0.0400
  221MOL0     H29783   4.404   0.967   9.308  0.6738 -0.4627 -2.0967
  221MOL0     H29784   4.356   0.952   9.045  2.0090  1.1548 -0.6561
  221MOL0     H29785   4.276   1.115   9.066  1.9471  1.7443 -0.1871
  221MOL0     H29786   4.490   1.287   9.230  2.4820 -0.0818  1.6755
  221MOL0     H29787   4.716   1.412   9.204 -0.1066  1.6177 -0.3722
  221MOL0     H29788   4.836   1.338   9.098 -0.3808 -0.5191 -0.3726
  221MOL0     H29789   4.712   1.358   8.906  0.4925 -2.5210  1.1228
  221MOL0     H29790   4.567   1.435   8.980 -0.2613 -2.7261 -0.4361
  221MOL0     H29791   4.842   1.538   8.965 -0.1835 -1.2287  3.7904
  221MOL0     H29792   4.726   1.633   9.055  0.6557 -0.5275  0.8938
  221MOL0     H29793   4.721   1.740   8.849  0.7118 -1.1619  4.0946
  221MOL0     H29794   4.570   1.667   8.871 -0.1418  1.4888  0.2491
  221MOL0     H29795   4.922   1.656   8.812  0.9722 -1.0330  0.2171
  221MOL0     H29796   5.130   1.613   8.689 -0.1415  1.5523 -3.4489
  221MOL0     H29797   5.287   1.360   8.159  0.0516  0.3252  0.1223
  221MOL0     H29798   5.525   1.340   8.089  0.1495  0.2226  0.0636
  221MOL0     H29799   5.778   1.337   8.061 -0.9500 -1.5354  0.7631
  221MOL0     H29800   5.712   1.464   8.166  2.3287  1.7773  5.3781
  221MOL0     H29801   5.968   1.337   8.245  1.4625  0.8177  0.5678
  221MOL0     H29802   5.971   1.426   8.090 -0.1471  0.5188 -0.3449
  221MOL0     H29803   5.867   1.627   8.220  2.5679  1.2052 -1.2541
  221MOL0     H29804   5.857   1.524   8.366  0.5654  1.7153  0.7933
  221MOL0     H29805   6.102   1.627   8.229 -0.1564  0.9954  0.4381
  221MOL0     H29806   6.115   1.505   8.357  0.9324  0.1858 -2.9054
  221MOL0     H29807   5.969   1.703   8.475  1.4580 -0.8045  0.8554
  221MOL0     H29808   6.043   1.797   8.355 -0.0033 -0.3832 -0.0480
  221MOL0     H29809   6.218   1.630   8.540  1.6038 -0.2636 -0.2684
  221MOL0     H29810   6.277   1.730   8.410  0.7221  0.3275  0.0325
  221MOL0     H29811   6.112   1.880   8.605  1.0449 -0.7695  2.5779
  221MOL0     H29812   6.234   1.922   8.486  1.7642 -0.0379  0.7462
  221MOL0     H29813   6.413   1.821   8.607 -2.7920 -1.3082 -4.5463
  221MOL0     H29814   6.347   1.965   8.688 -0.1788  0.6251 -0.0723
  221MOL0     H29815   5.615   1.239   8.503  0.8138 -0.1458  0.5567
  221MOL0     H29816   5.390   1.236   8.559  2.0934 -0.7679  1.2399
  221MOL0     H29817   4.933   1.342   8.429  1.7150 -0.1428 -1.8164
  221MOL0     H29818   4.727   1.409   8.511 -0.1222  1.9457 -1.4930
  221MOL0     H29819   3.441   0.980   9.492  0.7242  0.6110 -1.2933
  221MOL0     H29820   3.183   0.983   9.518 -0.1201  0.3915 -0.8704
  221MOL0     H29821   2.851   0.966   9.534 -1.2318 -2.2510  2.2986
  221MOL0     H29822   2.633   0.885   9.551  0.3058 -0.0415  1.7177
  221MOL0     H29823   2.435   0.844   9.643 -3.8449 -2.8881  1.4340
  221MOL0     H29824   2.279   0.877   9.615  0.3635 -0.5370 -0.1996
  221MOL0     H29825   2.428   1.058   9.820  0.4684 -1.1348 -0.7075
  221MOL0     H29826   2.357   0.904   9.857  0.8880 -0.2864  0.0513
  221MOL0     H29827   2.219   1.094   9.899  2.1614  1.6967 -0.5315
  221MOL0     H29828   2.144   0.964   9.803  2.4473 -2.1353  0.3941
  221MOL0     H29829   2.270   1.233   9.685  0.8137  0.3782  0.0597
  221MOL0     H29830   2.162   1.115   9.602  3.4873 -4.4469  1.8845
  221MOL0     H29831   1.915   1.359   9.861  2.3463  0.6583  1.9028
  221MOL0     H29832   2.475   1.287   9.492  0.8811 -1.2984 -2.5357
  221MOL0     H29833   2.746   1.453   9.607  2.4824 -3.0437 -0.4952
  221MOL0     H29834   2.767   1.439   9.430 -0.8195  0.0666 -0.9611
  221MOL0     H29835   2.608   1.464   9.494 -0.9603 -0.8406  2.1094
  222MOL0     O29836   9.874   6.418  11.253 -0.4588 -0.4807  0.0297
  222MOL0     C29837   9.958   6.366  11.183  1.2444 -0.5918 -0.4186
  222MOL0     O29838  10.007   6.414  11.067  0.0338  0.3196  0.3909
  222MOL0     C29839   9.932   6.506  11.002 -1.0388  0.3529 -0.5293
  222MOL0     C29840   9.951   6.643  11.024  0.5174 -0.5468  0.1315
  222MOL0     C29841   9.870   6.741  10.958 -0.7963 -0.0535  0.2035
  222MOL0     C29842   9.756   6.709  10.885 -0.7108 -0.4498  0.6702
  222MOL0     O29843   9.668   6.800  10.832  0.1442 -0.3062 -1.0493
  222MOL0     C29844   9.699   6.944  10.839  0.5757 -0.3842 -0.6139
  222MOL0     C29845   9.804   6.996  10.746  0.4834  0.3483  0.6198
  222MOL0     C29846   9.770   6.962  10.602  0.1839  0.6918  1.0942
  222MOL0     C29847   9.884   7.019  10.512 -0.0760 -0.1287 -0.8861
  222MOL0     C29848   9.891   6.941  10.381  0.8603  0.4060  0.0490
  222MOL0     C29849   9.996   6.983  10.280  0.3695 -0.2033 -0.2584
  222MOL0     C29850   9.993   6.892  10.156  0.0427  0.0814 -0.2978
  222MOL0     C29851   9.883   6.933  10.060  0.0680  0.1495  0.0959
  222MOL0     N29852   9.904   7.047   9.985 -0.2819  1.2609  0.0241
  222MOL0     C29853   9.954   7.057   9.854  0.0435 -0.5858  0.2528
  222MOL0     C29854   9.915   7.181   9.811  0.0133 -0.1362  0.1057
  222MOL0     C29855   9.937   7.222   9.678 -0.0751 -0.9329  0.3100
  222MOL0     C29856  10.086   7.241   9.656 -0.5671 -0.4180  0.1196
  222MOL0     C29857  10.106   7.277   9.502 -0.6876  0.4205 -1.3017
  222MOL0     C29858  10.259   7.264   9.456 -0.2745 -0.0494  0.0253
  222MOL0     O29859  10.335   7.367   9.517  0.0405  0.5998  0.1008
  222MOL0     C29860  10.463   7.397   9.478  0.3953  0.6756 -0.1000
  222MOL0     C29861  10.540   7.344   9.369  0.5965 -0.6379  0.3051
  222MOL0     C29862  10.675   7.385   9.345 -0.1586 -0.5189 -0.6550
  222MOL0     C29863  10.732   7.476   9.437  0.1008 -1.0060  0.0063
  222MOL0     C29864  10.869   7.534   9.423  0.6009  0.3390 -0.9643
  222MOL0     O29865  10.940   7.502   9.317 -0.1834 -0.1772  0.2800
  222MOL0     C29866  11.066   7.566   9.308 -0.6124 -1.0150 -0.2086
  222MOL0     C29867  11.170   7.536   9.404  0.0286 -0.9489  0.2410
  222MOL0     C29868  11.300   7.586   9.398 -0.3292 -0.2991  0.1799
  222MOL0     C29869  11.334   7.669   9.284  0.0229  0.4351 -0.3104
  222MOL0     O29870  11.463   7.704   9.266  0.3330 -0.2147  0.8083
  222MOL0     C29871  11.528   7.622   9.170  0.7836 -0.2796  0.6102
  222MOL0     C29872  11.631   7.699   9.082  0.5452  0.3839  0.2960
  222MOL0     C29873  11.733   7.769   9.172  0.0445 -0.7633 -0.2550
  222MOL0     C29874  11.823   7.672   9.253 -0.1906  0.0988 -0.2147
  222MOL0     C29875  11.917   7.732   9.360 -0.2610 -0.4371  0.5764
  222MOL0     C29876  11.988   7.867   9.312  0.4592  0.0444 -0.2026
  222MOL0     C29877  12.107   7.904   9.389 -0.3377 -0.6971 -1.3269
  222MOL0     C29878  12.079   7.897   9.542  0.2201  0.4198  0.2632
  222MOL0    Cl29879  12.197   7.997   9.631  0.1719 -0.2166  0.3605
  222MOL0     C29880  11.231   7.704   9.191 -0.4467 -0.0304 -0.4017
  222MOL0     C29881  11.099   7.652   9.200 -0.0829 -0.4263  0.1384
  222MOL0     O29882  10.907   7.595   9.519 -0.2964 -0.2523 -0.0354
  222MOL0     C29883  10.661   7.516   9.548 -0.0265  0.1621 -0.5819
  222MOL0     C29884  10.530   7.477   9.568 -0.1541  0.3953 -0.5672
  222MOL0     N29885   9.833   7.232   9.907 -0.4246 -0.0401  0.0130
  222MOL0     N29886   9.830   7.152  10.010  0.0266 -0.3927  0.3322
  222MOL0     C29887   9.722   6.568  10.878 -0.1375 -0.4660  0.1514
  222MOL0     C29888   9.814   6.474  10.931  0.0378  0.7270  0.3327
  222MOL0     C29889  10.012   6.246  11.241 -1.2169  0.4117  0.6345
  222MOL0     C29890  10.047   6.255  11.369  0.5487 -0.3900 -0.0377
  222MOL0     C29891  10.126   6.152  11.426  0.0855  0.3444  0.2697
  222MOL0     C29892  10.153   6.037  11.352 -0.8317  0.2185  0.2362
  222MOL0     O29893  10.224   5.938  11.410 -0.4695 -0.3694  0.2556
  222MOL0     C29894  10.183   5.806  11.394  0.1930  0.2191 -1.2170
  222MOL0     C29895  10.181   5.735  11.531 -0.6918  0.3491  0.3930
  222MOL0     C29896  10.319   5.723  11.604  0.5105  0.2058  0.3833
  222MOL0     C29897  10.321   5.681  11.751 -0.1913  0.7394  0.4537
  222MOL0     C29898  10.452   5.666  11.806 -0.3972 -0.4213 -0.1076
  222MOL0     C29899  10.559   5.635  11.848 -0.4406 -0.0795 -0.3971
  222MOL0     C29900  10.108   6.027  11.219  0.2981  0.4943 -0.5650
  222MOL0     C29901  10.047   6.136  11.158  0.0810 -0.8714 -0.0563
  222MOL0     C29902  10.004   6.111  11.016  0.7015  0.2472 -0.5136
  222MOL0     H29903  10.027   6.672  11.095  0.5300 -2.5884  1.0094
  222MOL0     H29904   9.913   6.837  10.987  0.3588 -0.3398 -0.5409
  222MOL0     H29905   9.607   7.000  10.820  1.3724  1.6134  1.0660
  222MOL0     H29906   9.735   6.966  10.940  1.3021  0.5310 -1.0616
  222MOL0     H29907   9.902   6.952  10.767 -0.1288 -3.8777 -3.5941
  222MOL0     H29908   9.810   7.102  10.769 -2.6951  0.0757  3.5789
  222MOL0     H29909   9.683   7.015  10.564  1.2861  0.6311 -1.7723
  222MOL0     H29910   9.755   6.855  10.581 -1.8658  1.3686 -1.4060
  222MOL0     H29911   9.875   7.127  10.498  0.4959  0.2211  1.1297
  222MOL0     H29912   9.977   7.004  10.567 -0.3505  0.3282 -0.2806
  222MOL0     H29913   9.887   6.833  10.400  1.1642 -0.0602 -2.2440
  222MOL0     H29914   9.798   6.963  10.327  0.8505 -1.0407 -0.5640
  222MOL0     H29915   9.978   7.088  10.253 -0.5257 -0.3388 -0.2210
  222MOL0     H29916  10.094   6.970  10.327 -0.1805  0.8814  1.3077
  222MOL0     H29917   9.976   6.787  10.178  0.8555 -0.1284 -0.6436
  222MOL0     H29918  10.094   6.894  10.116  0.3188  1.0313  0.3958
  222MOL0     H29919   9.866   6.847   9.995  2.2711 -0.5049  0.3147
  222MOL0     H29920   9.801   6.947  10.130  0.7447  3.2279  0.4046
  222MOL0     H29921  10.004   6.984   9.791 -0.6929  1.6828 -3.2564
  222MOL0     H29922   9.893   7.160   9.600  0.4950  0.6089 -1.3042
  222MOL0     H29923   9.901   7.325   9.674  1.2404 -0.4718 -0.0164
  222MOL0     H29924  10.117   7.316   9.729  2.1728 -0.8573 -0.5009
  222MOL0     H29925  10.141   7.149   9.678  0.3430  0.1889  0.4314
  222MOL0     H29926  10.076   7.382   9.498  2.1116  1.3287 -1.0131
  222MOL0     H29927  10.047   7.217   9.432  2.2670 -0.7330 -3.0068
  222MOL0     H29928  10.268   7.270   9.347  1.0015 -1.5187  0.0174
  222MOL0     H29929  10.296   7.164   9.480 -1.0324  0.5995  4.9430
  222MOL0     H29930  10.490   7.279   9.298  2.3585 -1.2550 -0.4078
  222MOL0     H29931  10.740   7.354   9.264  0.3398 -0.1073 -0.4203
  222MOL0     H29932  11.145   7.469   9.486  3.4856 -0.5791  1.7660
  222MOL0     H29933  11.367   7.557   9.478  1.8510  1.0383 -1.0648
  222MOL0     H29934  11.560   7.524   9.207  2.3297 -0.0844 -0.1428
  222MOL0     H29935  11.448   7.587   9.103 -0.1575 -2.4990  2.7310
  222MOL0     H29936  11.682   7.626   9.018  2.3635  2.0826 -0.3320
  222MOL0     H29937  11.580   7.776   9.023 -0.4450  0.5608  1.3442
  222MOL0     H29938  11.788   7.835   9.105 -1.7275 -0.1808 -1.2241
  222MOL0     H29939  11.677   7.846   9.226  2.5773  0.6366  0.5462
  222MOL0     H29940  11.886   7.620   9.180  0.7907  0.7019  0.1669
  222MOL0     H29941  11.758   7.605   9.309  0.0692 -0.0637 -0.1074
  222MOL0     H29942  11.989   7.658   9.396 -0.2850 -1.0530 -0.5856
  222MOL0     H29943  11.851   7.761   9.442  0.0550  0.8361  0.4061
  222MOL0     H29944  12.020   7.832   9.214 -0.9688 -3.1036  0.2862
  222MOL0     H29945  11.927   7.954   9.287  0.4213  0.3232  0.7920
  222MOL0     H29946  12.145   8.006   9.371  0.4221 -0.0064  3.0541
  222MOL0     H29947  12.192   7.840   9.363 -0.0505 -0.9643  0.1980
  222MOL0     H29948  11.975   7.922   9.568  0.6576  0.7004  1.9016
  222MOL0     H29949  12.093   7.796   9.583  0.5444  0.6187  0.6537
  222MOL0     H29950  11.256   7.774   9.112  0.1914 -0.5616 -0.6818
  222MOL0     H29951  11.031   7.679   9.119 -2.7326 -1.5226  1.8749
  222MOL0     H29952  10.705   7.571   9.631  1.8369 -2.6266  0.4305
  222MOL0     H29953  10.476   7.508   9.657 -2.8911 -3.4327 -0.6272
  222MOL0     H29954   9.630   6.541  10.827 -0.5667  2.2355 -0.7043
  222MOL0     H29955   9.788   6.369  10.929  1.5086 -0.0104  5.5100
  222MOL0     H29956  10.022   6.344  11.427 -2.1657  1.1793 -3.2927
  222MOL0     H29957  10.175   6.159  11.522  0.6925 -1.6868  0.1608
  222MOL0     H29958  10.257   5.762  11.327  0.2152 -0.5003 -0.7330
  222MOL0     H29959  10.082   5.795  11.355 -0.9387 -1.1704  1.7550
  222MOL0     H29960  10.145   5.634  11.507  1.1116 -0.3071  0.3104
  222MOL0     H29961  10.108   5.785  11.595 -0.5243  1.5257 -0.3060
  222MOL0     H29962  10.343   5.829  11.597  0.2382  0.2316 -0.1969
  222MOL0     H29963  10.397   5.669  11.550  0.9267  0.9229  0.2642
  222MOL0     H29964  10.258   5.747  11.812  0.9294 -0.2833  2.8231
  222MOL0     H29965  10.265   5.588  11.757 -0.1407  0.6219 -0.6380
  222MOL0     H29966  10.654   5.600  11.883 -1.5787 -0.4908  2.5204
  222MOL0     H29967  10.142   5.956  11.145  0.7537  3.0038 -2.9551
  222MOL0     H29968  10.096   6.098  10.960  1.8018  4.7173 -0.1412
  222MOL0     H29969   9.935   6.026  11.011  1.5529 -0.5057  0.2466
  222MOL0     H29970   9.949   6.194  10.969 -0.6356 -1.2833 -1.7457
  223MOL0     O29971   9.940   2.945   2.566  0.2320  0.0732 -0.7296
  223MOL0     C29972   9.966   3.059   2.564  0.1216  0.3307  0.2325
  223MOL0     O29973  10.081   3.103   2.618  0.4851 -0.8906  0.4239
  223MOL0     C29974  10.172   3.031   2.698 -0.1114 -0.3401 -0.1393
  223MOL0     C29975  10.141   2.920   2.781  0.6838 -0.3539 -0.8093
  223MOL0     C29976  10.250   2.858   2.839  0.2995 -0.2724 -0.0246
  223MOL0     C29977  10.386   2.892   2.818  0.2441  0.4749 -0.4047
  223MOL0     O29978  10.492   2.833   2.878  0.5314 -0.1385 -0.6228
  223MOL0     C29979  10.464   2.790   3.007 -0.3506  0.4931 -0.1150
  223MOL0     C29980  10.597   2.717   3.046  1.7465 -0.6155 -0.5785
  223MOL0     C29981  10.564   2.658   3.183  0.7854  0.6982 -0.0474
  223MOL0     C29982  10.695   2.619   3.257 -0.3798 -0.2165  0.7385
  223MOL0     C29983  10.659   2.554   3.400 -0.8053  0.3263 -0.5708
  223MOL0     C29984  10.796   2.497   3.461  0.0887  0.4837  0.0316
  223MOL0     C29985  10.889   2.612   3.511  0.0159  0.2664  0.4870
  223MOL0     C29986  11.003   2.537   3.574  0.1615  0.3096 -0.2358
  223MOL0     N29987  11.118   2.618   3.615  0.7947 -0.5029  0.8649
  223MOL0     C29988  11.231   2.645   3.535 -0.9093  0.0925  0.3649
  223MOL0     C29989  11.333   2.675   3.626 -0.5617  0.4608 -0.2706
  223MOL0     C29990  11.476   2.709   3.598 -0.2928 -0.0733  0.8415
  223MOL0     C29991  11.563   2.665   3.714  0.0913 -0.9816 -0.3687
  223MOL0     C29992  11.704   2.625   3.673 -0.5125  0.0685 -0.8850
  223MOL0     C29993  11.793   2.590   3.792  0.4511 -1.2505 -0.2584
  223MOL0     O29994  11.920   2.580   3.730  0.0414 -0.4497 -0.2341
  223MOL0     C29995  12.028   2.585   3.813 -0.3409 -0.6308 -0.7070
  223MOL0     C29996  12.141   2.646   3.766 -0.0493  0.1543 -0.0403
  223MOL0     C29997  12.253   2.641   3.845 -0.2939  0.4442  0.0678
  223MOL0     C29998  12.255   2.587   3.972  0.0467 -0.1851 -0.5426
  223MOL0     C29999  12.386   2.577   4.048  0.6001 -0.0622  0.3633
  223MOL0     O30000  12.498   2.640   4.008  0.0219  0.2328 -0.2861
  223MOL0     C30001  12.601   2.658   4.102 -0.0931  0.5423 -0.1271
  223MOL0     C30002  12.647   2.547   4.172  0.8742 -0.7081 -0.1256
  223MOL0     C30003  12.757   2.555   4.249 -0.8976  0.4827  0.7562
  223MOL0     C30004  12.843   2.664   4.249 -0.5832  1.0498 -0.6480
  223MOL0     O30005  12.957   2.672   4.326  0.4810  0.0156  0.0681
  223MOL0     C30006  12.986   2.567   4.421 -0.0047 -0.6303  0.5588
  223MOL0     C30007  12.942   2.601   4.564 -1.9536 -0.3198 -0.3717
  223MOL0     C30008  12.956   2.480   4.659  0.4590 -0.4678 -0.0322
  223MOL0     C30009  12.880   2.505   4.795  0.4194  0.2513  0.1940
  223MOL0     C30010  12.863   2.372   4.871  0.1297  0.5631 -0.5684
  223MOL0     C30011  12.778   2.397   5.000  0.3786  1.0252  0.2436
  223MOL0     C30012  12.753   2.265   5.080 -0.8567 -0.1383 -0.6649
  223MOL0     C30013  12.783   2.295   5.229  0.3055  0.6460 -0.0284
  223MOL0    Cl30014  12.962   2.344   5.248 -0.1641 -0.0791 -0.2538
  223MOL0     C30015  12.801   2.774   4.182  0.5191  0.4222  0.2764
  223MOL0     C30016  12.676   2.774   4.105 -0.3593  0.8419 -0.4147
  223MOL0     O30017  12.381   2.515   4.151  0.5797  0.4543 -0.0666
  223MOL0     C30018  12.135   2.546   4.022  0.1960  0.3516 -0.9939
  223MOL0     C30019  12.019   2.532   3.947 -0.3728 -0.4622 -0.5164
  223MOL0     N30020  11.277   2.674   3.747 -0.1794  0.6284 -1.2477
  223MOL0     N30021  11.156   2.634   3.741  0.8513 -0.6108 -0.8269
  223MOL0     C30022  10.409   3.004   2.741  0.5755 -0.6576  0.5032
  223MOL0     C30023  10.306   3.075   2.681 -0.3637  0.6731 -0.8793
  223MOL0     C30024   9.882   3.150   2.480  1.3231  0.6698 -1.2343
  223MOL0     C30025   9.918   3.284   2.470  0.5287  0.0228 -0.5646
  223MOL0     C30026   9.850   3.371   2.382 -0.5341 -0.5805  1.0400
  223MOL0     C30027   9.743   3.322   2.301  0.7039 -0.5163 -0.9031
  223MOL0     O30028   9.678   3.417   2.226  0.0770 -0.3818 -0.1627
  223MOL0     C30029   9.615   3.364   2.103 -0.8867  0.5762 -0.2960
  223MOL0     C30030   9.639   3.460   1.984  0.3535  0.1663 -0.0481
  223MOL0     C30031   9.789   3.476   1.964  0.5371  0.4844 -0.2440
  223MOL0     C30032   9.827   3.535   1.829  0.1081  0.4598 -0.5037
  223MOL0     C30033   9.792   3.444   1.714 -0.2687 -0.8377  0.6926
  223MOL0     C30034   9.762   3.381   1.613 -0.0999 -0.1567 -0.2562
  223MOL0     C30035   9.697   3.191   2.319  0.0559 -0.3264  0.3444
  223MOL0     C30036   9.774   3.103   2.401  0.3403 -0.8295 -0.1624
  223MOL0     C30037   9.726   2.968   2.394  0.1620 -0.1001 -0.2911
  223MOL0     H30038  10.037   2.890   2.790 -0.5888  3.1546 -2.1088
  223MOL0     H30039  10.218   2.778   2.904  2.7181 -0.4062  1.0749
  223MOL0     H30040  10.447   2.866   3.084 -3.8546 -2.3776  2.3261
  223MOL0     H30041  10.384   2.715   3.008 -1.2425  1.4294  0.6135
  223MOL0     H30042  10.684   2.783   3.046  0.2275  1.6565 -3.4827
  223MOL0     H30043  10.603   2.626   2.985 -2.3730 -1.0576 -0.6056
  223MOL0     H30044  10.513   2.562   3.175  0.2805  1.0531 -1.3635
  223MOL0     H30045  10.506   2.722   3.250 -0.3555  1.1671 -1.4529
  223MOL0     H30046  10.758   2.545   3.205 -0.2514  0.8452 -0.6665
  223MOL0     H30047  10.753   2.710   3.274 -0.0171 -0.0571 -1.1168
  223MOL0     H30048  10.605   2.615   3.473 -3.2330 -1.4190 -0.8031
  223MOL0     H30049  10.591   2.472   3.377  0.6802 -1.4358  0.9450
  223MOL0     H30050  10.772   2.434   3.548  3.3951 -0.0422  0.7112
  223MOL0     H30051  10.848   2.433   3.390 -1.7596  0.2914 -1.2106
  223MOL0     H30052  10.835   2.674   3.583 -0.1475 -2.0078  2.4344
  223MOL0     H30053  10.928   2.675   3.430 -2.8199  1.8730  0.2375
  223MOL0     H30054  10.961   2.496   3.666  3.4212  0.4452  1.4565
  223MOL0     H30055  11.023   2.446   3.516 -1.4079 -1.2386  1.5215
  223MOL0     H30056  11.243   2.635   3.427 -2.3236 -0.6601  0.2537
  223MOL0     H30057  11.509   2.667   3.503  3.3106 -0.5761  2.1523
  223MOL0     H30058  11.491   2.817   3.595  0.9992 -0.2551 -0.4734
  223MOL0     H30059  11.561   2.749   3.784 -2.9751 -0.6823 -0.6746
  223MOL0     H30060  11.530   2.578   3.771 -3.0155  0.6254  0.5544
  223MOL0     H30061  11.753   2.708   3.620  0.0461 -0.4453 -1.1928
  223MOL0     H30062  11.699   2.537   3.608  0.0654  1.7928 -3.4173
  223MOL0     H30063  11.757   2.500   3.842  2.7005 -0.8193  2.3441
  223MOL0     H30064  11.795   2.678   3.857 -1.8303 -1.6390  0.4573
  223MOL0     H30065  12.123   2.684   3.667  0.4546 -0.2589 -0.2939
  223MOL0     H30066  12.343   2.682   3.798  1.4277  0.2289  2.9610
  223MOL0     H30067  12.602   2.449   4.162  0.1235 -0.5744  1.6060
  223MOL0     H30068  12.781   2.465   4.304 -0.6620  0.0968  0.0434
  223MOL0     H30069  12.956   2.467   4.388  0.1545 -0.3764 -0.3780
  223MOL0     H30070  13.094   2.551   4.414 -0.0097 -0.6143  0.4294
  223MOL0     H30071  13.009   2.685   4.589 -0.8600 -1.3158  0.1143
  223MOL0     H30072  12.838   2.635   4.568 -1.8313  0.0647 -0.3987
  223MOL0     H30073  12.918   2.392   4.606  0.1570 -1.0209  1.0733
  223MOL0     H30074  13.062   2.468   4.685  0.4721  1.3151  0.9023
  223MOL0     H30075  12.787   2.562   4.784 -1.6172 -3.0151 -1.3383
  223MOL0     H30076  12.940   2.567   4.862  2.1943 -1.3232  0.1457
  223MOL0     H30077  12.964   2.339   4.898  0.8459  1.7273 -1.6550
  223MOL0     H30078  12.803   2.307   4.807 -1.5384  1.7696 -0.2826
  223MOL0     H30079  12.830   2.476   5.056  0.7415  0.5759  0.5445
  223MOL0     H30080  12.676   2.429   4.974 -0.5112 -3.4989 -2.9076
  223MOL0     H30081  12.822   2.183   5.056  0.3232  0.7543 -0.4291
  223MOL0     H30082  12.650   2.233   5.063 -0.9845 -0.0962  0.0015
  223MOL0     H30083  12.717   2.372   5.268  2.2552  2.9245 -1.0093
  223MOL0     H30084  12.759   2.207   5.290  2.1781  1.0938  1.4471
  223MOL0     H30085  12.875   2.853   4.171  1.3883 -0.7009 -5.8530
  223MOL0     H30086  12.642   2.859   4.047 -1.5935 -0.1632 -1.1916
  223MOL0     H30087  12.135   2.500   4.120  0.2486  2.7472  0.2142
  223MOL0     H30088  11.923   2.504   3.989 -1.7244  0.8861 -2.5422
  223MOL0     H30089  10.514   3.029   2.729  0.4975 -0.2753  0.5899
  223MOL0     H30090  10.329   3.165   2.626 -2.2289  0.7176 -1.6864
  223MOL0     H30091  10.007   3.323   2.517 -0.8757  1.8263  0.7634
  223MOL0     H30092   9.894   3.467   2.357  1.3910 -1.0406  2.4841
  223MOL0     H30093   9.506   3.368   2.111 -0.7807  2.3416  0.8235
  223MOL0     H30094   9.657   3.265   2.086  0.2378  0.8365  0.8520
  223MOL0     H30095   9.588   3.556   1.999 -1.8749 -0.6298 -1.8185
  223MOL0     H30096   9.584   3.412   1.902  2.0022 -2.0790  0.0456
  223MOL0     H30097   9.830   3.375   1.969 -1.3918 -0.2772  1.6671
  223MOL0     H30098   9.825   3.533   2.050 -3.2839  1.5547  0.8617
  223MOL0     H30099   9.768   3.626   1.810 -3.2015 -1.6665 -1.1104
  223MOL0     H30100   9.935   3.551   1.817  0.0748 -0.4605 -2.3633
  223MOL0     H30101   9.736   3.331   1.522  0.8392  2.7122 -2.2277
  223MOL0     H30102   9.609   3.158   2.265 -0.6139 -1.1383  1.8575
  223MOL0     H30103   9.638   2.964   2.329  0.8426  1.0694 -1.3272
  223MOL0     H30104   9.793   2.897   2.346  0.5613 -0.2041  0.4115
  223MOL0     H30105   9.690   2.934   2.492  0.6847  0.9040  0.2715
  224MOL0     O30106   3.466   7.995  11.300  0.3631 -0.1259  0.4443
  224MOL0     C30107   3.357   7.958  11.252 -0.5926  0.2705 -0.6367
  224MOL0     O30108   3.339   7.872  11.146 -0.2633 -1.0008 -0.3724
  224MOL0     C30109   3.451   7.802  11.109 -0.0335 -0.5422  0.5385
  224MOL0     C30110   3.513   7.835  10.988 -0.3242 -0.1246  0.0519
  224MOL0     C30111   3.635   7.782  10.957 -0.2940 -0.0451 -0.1066
  224MOL0     C30112   3.708   7.715  11.049  0.4178  0.2004  0.3448
  224MOL0     O30113   3.839   7.684  11.036  0.0990  1.2736  0.1605
  224MOL0     C30114   3.903   7.690  10.907 -0.0483 -0.3571  0.7246
  224MOL0     C30115   3.979   7.826  10.891 -0.4896 -0.1243 -0.5049
  224MOL0     C30116   4.071   7.850  11.004  0.4697 -0.2889  0.1267
  224MOL0     C30117   4.128   7.991  10.982 -0.2682 -0.3061  0.5502
  224MOL0     C30118   4.261   8.015  11.063  0.0265 -0.4395  0.5644
  224MOL0     C30119   4.237   8.032  11.209  0.5967  0.3692  0.8048
  224MOL0     C30120   4.372   8.056  11.292  0.3620  0.0129  0.4653
  224MOL0     C30121   4.327   8.044  11.439 -0.4374 -0.3730  0.3291
  224MOL0     N30122   4.441   8.050  11.520 -0.1680 -0.2751  0.8247
  224MOL0     C30123   4.557   7.976  11.492  0.4921  0.2597 -0.6006
  224MOL0     C30124   4.643   8.038  11.583 -0.6035 -0.5442  0.0981
  224MOL0     C30125   4.785   7.992  11.594  0.4472  0.1786 -0.2222
  224MOL0     C30126   4.878   8.110  11.590 -0.9842 -0.2287 -0.2666
  224MOL0     C30127   4.912   8.151  11.445 -0.3095  0.0364 -0.7144
  224MOL0     C30128   5.033   8.246  11.422 -0.5192 -0.1224 -1.0784
  224MOL0     O30129   5.035   8.283  11.283 -0.4563 -0.2339 -0.2138
  224MOL0     C30130   5.142   8.352  11.236 -0.4505  0.3046  0.4053
  224MOL0     C30131   5.271   8.375  11.302 -0.2298 -0.1237 -0.7086
  224MOL0     C30132   5.376   8.441  11.235  0.5632 -0.7607  0.1105
  224MOL0     C30133   5.358   8.479  11.104  0.3007  0.1760  0.0752
  224MOL0     C30134   5.479   8.523  11.021  0.7210 -0.8423  0.2053
  224MOL0     O30135   5.601   8.471  11.053  0.4252 -0.1987  0.0827
  224MOL0     C30136   5.701   8.515  10.975  0.5026  0.5671 -0.7850
  224MOL0     C30137   5.710   8.479  10.843 -0.8091  0.3337  0.2556
  224MOL0     C30138   5.827   8.535  10.776  0.4999 -0.1437 -0.1678
  224MOL0     C30139   5.927   8.614  10.840  0.1073 -0.0552 -0.3451
  224MOL0     O30140   6.041   8.650  10.775  0.1116  0.5277 -0.0967
  224MOL0     C30141   6.023   8.787  10.721 -0.3286  0.1833  0.1882
  224MOL0     C30142   6.160   8.863  10.720  0.4273 -0.0923 -0.1939
  224MOL0     C30143   6.257   8.808  10.620  0.1576  0.1963 -0.0595
  224MOL0     C30144   6.401   8.827  10.667 -0.7199  0.3953 -0.2556
  224MOL0     C30145   6.511   8.775  10.567 -0.6396 -0.5014 -0.4044
  224MOL0     C30146   6.540   8.874  10.452 -0.3285 -0.2718 -0.1923
  224MOL0     C30147   6.607   9.008  10.496  0.1435  0.0935  0.7709
  224MOL0     C30148   6.701   9.062  10.391 -1.1067 -0.0794 -0.3904
  224MOL0    Cl30149   6.622   9.089  10.235  0.0080  0.1662  0.1938
  224MOL0     C30150   5.905   8.649  10.974 -0.3758  1.2314 -0.8541
  224MOL0     C30151   5.790   8.599  11.042  0.4580 -0.8888 -0.4685
  224MOL0     O30152   5.457   8.604  10.928 -0.2145  0.3142  0.0417
  224MOL0     C30153   5.229   8.470  11.044  0.5872 -0.2661  0.2714
  224MOL0     C30154   5.128   8.398  11.103  0.6258 -0.3707  0.5860
  224MOL0     N30155   4.579   8.137  11.653  0.2968 -0.0680  0.1369
  224MOL0     N30156   4.456   8.147  11.608  0.3870  0.1390  0.3856
  224MOL0     C30157   3.641   7.672  11.169 -0.8965 -0.2640  0.8312
  224MOL0     C30158   3.516   7.710  11.199 -0.2307 -1.2897  0.6627
  224MOL0     C30159   3.229   8.010  11.313  0.0204 -0.0411  0.3145
  224MOL0     C30160   3.243   8.071  11.446  0.1347 -0.2215 -0.0400
  224MOL0     C30161   3.129   8.131  11.509 -0.2476 -1.1187 -0.2646
  224MOL0     C30162   3.004   8.133  11.449 -0.5084 -0.5060  0.0749
  224MOL0     O30163   2.909   8.198  11.517 -0.0018  0.7338  0.3170
  224MOL0     C30164   2.804   8.253  11.440  0.0024  0.9886 -0.0407
  224MOL0     C30165   2.671   8.267  11.525 -0.2375  0.4593  0.1917
  224MOL0     C30166   2.631   8.138  11.611  0.0587  0.1300 -0.5408
  224MOL0     C30167   2.476   8.118  11.600  0.3523 -0.3190 -0.3326
  224MOL0     C30168   2.442   8.082  11.463  0.9777  0.0744  0.6678
  224MOL0     C30169   2.436   8.054  11.345  0.3932 -0.6738 -0.1057
  224MOL0     C30170   2.995   8.073  11.321  0.8410  0.5799 -0.7469
  224MOL0     C30171   3.097   8.016  11.250  0.4312  0.3321  0.7097
  224MOL0     C30172   3.062   7.949  11.118 -0.0356  0.3027 -0.5289
  224MOL0     H30173   3.456   7.911  10.935 -0.1628  1.9878  2.7216
  224MOL0     H30174   3.672   7.816  10.861  1.3612  1.6300  1.0637
  224MOL0     H30175   3.983   7.616  10.896 -0.2931 -0.4944 -0.2831
  224MOL0     H30176   3.824   7.680  10.832  0.4499 -3.8979  0.5063
  224MOL0     H30177   3.907   7.908  10.881 -0.1229  0.2291 -0.2661
  224MOL0     H30178   4.027   7.822  10.793 -0.5028 -0.0666 -0.5133
  224MOL0     H30179   4.150   7.775  11.015 -0.2926 -0.8779  2.1357
  224MOL0     H30180   4.015   7.851  11.098 -0.8166  0.0269 -0.6255
  224MOL0     H30181   4.150   8.006  10.876 -1.8567  0.8544  0.3529
  224MOL0     H30182   4.053   8.068  11.000  1.5360  2.6425 -2.9963
  224MOL0     H30183   4.317   7.925  11.035  1.1577  0.2777  0.4510
  224MOL0     H30184   4.309   8.108  11.029 -2.7710  0.0962 -2.4224
  224MOL0     H30185   4.171   8.111  11.243  0.5598 -0.1509  1.9723
  224MOL0     H30186   4.187   7.941  11.241 -0.4922 -0.1216 -1.9765
  224MOL0     H30187   4.409   8.154  11.260 -3.4255  0.9081 -1.8314
  224MOL0     H30188   4.443   7.977  11.266  1.6227  0.5210  2.2551
  224MOL0     H30189   4.270   8.128  11.479 -2.5741 -2.2082  1.3431
  224MOL0     H30190   4.258   7.960  11.449 -0.9886  0.0386 -0.0049
  224MOL0     H30191   4.566   7.893  11.423 -2.1833 -0.5547 -0.0619
  224MOL0     H30192   4.808   7.929  11.680 -0.8342 -1.9220 -1.3335
  224MOL0     H30193   4.806   7.935  11.503 -0.7424  2.6940 -2.2083
  224MOL0     H30194   4.838   8.187  11.656  2.4080  0.7690  0.8548
  224MOL0     H30195   4.967   8.071  11.641 -1.4188 -0.2094  0.5248
  224MOL0     H30196   4.818   8.194  11.408 -0.0654  0.2237 -1.1267
  224MOL0     H30197   4.930   8.057  11.392  2.0015 -0.7397  1.2614
  224MOL0     H30198   5.125   8.191  11.444 -1.3836 -1.2381 -0.1275
  224MOL0     H30199   5.016   8.328  11.492 -2.4237 -1.9903  0.7962
  224MOL0     H30200   5.283   8.335  11.402 -0.7298  2.6625  0.5523
  224MOL0     H30201   5.473   8.448  11.283 -0.4011  0.6729  1.9895
  224MOL0     H30202   5.640   8.423  10.781 -2.7995 -0.4776  3.0652
  224MOL0     H30203   5.842   8.512  10.671 -0.9519 -0.9011 -0.2374
  224MOL0     H30204   5.979   8.788  10.621 -0.4661 -0.6852  0.2279
  224MOL0     H30205   5.960   8.847  10.787 -1.7547  0.3225 -1.2267
  224MOL0     H30206   6.148   8.968  10.691 -1.8529 -0.9724 -2.8412
  224MOL0     H30207   6.197   8.851  10.822  1.9364 -0.0592 -0.7046
  224MOL0     H30208   6.243   8.702  10.597  0.6688  0.5404 -2.1188
  224MOL0     H30209   6.237   8.858  10.525 -1.9576 -0.2569  0.0957
  224MOL0     H30210   6.423   8.780  10.764 -0.4003  1.7427  0.3406
  224MOL0     H30211   6.421   8.932  10.686 -0.2933  0.7372 -2.3637
  224MOL0     H30212   6.504   8.677  10.520  1.7206  0.1235 -2.2998
  224MOL0     H30213   6.609   8.760  10.615  0.0706  0.8470 -1.3513
  224MOL0     H30214   6.598   8.822  10.376  0.4120  0.9459 -0.4963
  224MOL0     H30215   6.443   8.886  10.404 -0.3556  0.2201 -0.0241
  224MOL0     H30216   6.671   9.017  10.584  0.5635  0.7263  0.4110
  224MOL0     H30217   6.524   9.078  10.507 -0.1430 -0.2583  0.8572
  224MOL0     H30218   6.743   9.157  10.427  1.1085 -0.8453 -0.8000
  224MOL0     H30219   6.785   8.994  10.376 -0.7524  0.1293  0.5246
  224MOL0     H30220   5.970   8.706  11.039 -2.5864 -0.5169  3.3034
  224MOL0     H30221   5.775   8.620  11.148  1.5557  0.3319 -0.5215
  224MOL0     H30222   5.234   8.504  10.941  1.0816  1.3207  0.7977
  224MOL0     H30223   5.035   8.385  11.048 -0.7120  4.5192  1.2044
  224MOL0     H30224   3.689   7.609  11.243  1.7672 -2.2520 -2.2999
  224MOL0     H30225   3.473   7.683  11.295 -1.5870  4.3631  2.0130
  224MOL0     H30226   3.346   8.066  11.482  0.4022 -1.4158 -0.9196
  224MOL0     H30227   3.133   8.181  11.606  1.0250 -0.7680 -0.4713
  224MOL0     H30228   2.780   8.190  11.354 -0.5610 -0.4253  1.0960
  224MOL0     H30229   2.839   8.348  11.399  1.6580 -0.4346 -2.1289
  224MOL0     H30230   2.593   8.305  11.459  0.3437  0.9629 -0.2117
  224MOL0     H30231   2.689   8.340  11.604 -0.4812  1.6908 -0.8613
  224MOL0     H30232   2.660   8.168  11.712 -1.1593  1.7071 -0.6259
  224MOL0     H30233   2.682   8.051  11.568  0.2671 -0.0780  0.1165
  224MOL0     H30234   2.440   8.035  11.661 -0.0918  0.2266  0.1641
  224MOL0     H30235   2.416   8.209  11.610  0.9739 -0.1412  2.4967
  224MOL0     H30236   2.429   8.039  11.239 -0.6094  0.8860 -0.3028
  224MOL0     H30237   2.895   8.063  11.279 -0.5205  1.7145  1.9264
  224MOL0     H30238   2.957   7.921  11.106 -0.6297  1.6982  1.0782
  224MOL0     H30239   3.098   8.003  11.030 -1.6551 -1.0783 -2.1215
  224MOL0     H30240   3.115   7.854  11.106 -0.5840  0.1940 -2.3440
  225MOL0     O30241   7.382   9.499  10.648  0.7078  0.0635  0.1603
  225MOL0     C30242   7.334   9.405  10.582 -0.1515  0.3670 -0.3340
  225MOL0     O30243   7.402   9.342  10.484 -0.0327  0.6862  0.1510
  225MOL0     C30244   7.538   9.362  10.487 -0.9928 -0.5904  0.4377
  225MOL0     C30245   7.618   9.319  10.590 -0.8585 -0.5319  0.0233
  225MOL0     C30246   7.756   9.340  10.584 -0.3693  0.2849  0.2188
  225MOL0     C30247   7.810   9.421  10.483 -0.1607 -0.3088  0.7378
  225MOL0     O30248   7.942   9.449  10.453 -0.1309  0.2444 -0.2612
  225MOL0     C30249   8.052   9.365  10.497  0.4313 -0.3124 -0.0856
  225MOL0     C30250   8.102   9.443  10.618 -0.1772 -0.0684 -0.2669
  225MOL0     C30251   8.169   9.581  10.579 -0.8229  0.6939 -0.4530
  225MOL0     C30252   8.290   9.558  10.486  0.3308  0.2391  0.4471
  225MOL0     C30253   8.357   9.694  10.468 -0.1295  0.1119  0.4643
  225MOL0     C30254   8.490   9.683  10.391 -0.2347  0.2113  0.4196
  225MOL0     C30255   8.485   9.648  10.232 -0.3748  0.2875 -0.1764
  225MOL0     C30256   8.624   9.647  10.166 -0.8542 -0.4360 -0.8130
  225MOL0     N30257   8.628   9.643  10.023 -0.5177  1.0823 -0.0615
  225MOL0     C30258   8.728   9.579   9.957 -0.0034  0.3675 -0.4554
  225MOL0     C30259   8.689   9.593   9.829 -0.3157  0.7045  0.0516
  225MOL0     C30260   8.748   9.525   9.711  0.5192 -0.3242  0.1238
  225MOL0     C30261   8.893   9.576   9.676 -0.0024  0.2799  0.7195
  225MOL0     C30262   9.007   9.505   9.752  0.0306 -1.1521 -0.3370
  225MOL0     C30263   9.145   9.569   9.723  0.2890  1.0910  0.0665
  225MOL0     O30264   9.246   9.475   9.764 -0.1190 -0.7159  0.0867
  225MOL0     C30265   9.365   9.477   9.690  0.3767  0.1661  0.0914
  225MOL0     C30266   9.419   9.357   9.638  0.1936  0.2291 -0.1627
  225MOL0     C30267   9.545   9.370   9.574  0.7695  0.3971 -0.3565
  225MOL0     C30268   9.606   9.495   9.554  0.8280 -0.1854 -0.1456
  225MOL0     C30269   9.721   9.504   9.461  0.0546 -0.2958  0.5532
  225MOL0     O30270   9.779   9.385   9.409 -0.1333 -0.1562 -0.3453
  225MOL0     C30271   9.902   9.400   9.356  0.9205  0.4326  0.0703
  225MOL0     C30272  10.013   9.382   9.443  0.8398 -0.3751 -0.4463
  225MOL0     C30273  10.143   9.419   9.397 -0.1288  0.0760 -0.1706
  225MOL0     C30274  10.159   9.461   9.267 -0.3795  0.7942 -0.0368
  225MOL0     O30275  10.282   9.482   9.224  0.4064  0.9459  0.3607
  225MOL0     C30276  10.317   9.617   9.210  0.0169  0.9179  0.6279
  225MOL0     C30277  10.452   9.637   9.139  0.1073  0.4111 -0.1967
  225MOL0     C30278  10.565   9.560   9.204 -0.6601  0.9386  1.3371
  225MOL0     C30279  10.660   9.486   9.109  0.8274 -0.8990 -0.4810
  225MOL0     C30280  10.703   9.575   8.994  0.6094 -0.4426 -1.0285
  225MOL0     C30281  10.818   9.509   8.906  0.2973 -0.8149 -0.1579
  225MOL0     C30282  10.742   9.405   8.813 -0.0541  0.3978  0.5857
  225MOL0     C30283  10.839   9.304   8.762 -1.0116 -0.0524  0.2692
  225MOL0    Cl30284  10.982   9.378   8.675  0.0802  0.2608  0.4085
  225MOL0     C30285  10.056   9.471   9.178  0.4527  0.2001  0.8040
  225MOL0     C30286   9.927   9.436   9.220 -0.7434 -0.8458 -0.4636
  225MOL0     O30287   9.752   9.619   9.417  0.8276 -0.0299  0.5899
  225MOL0     C30288   9.542   9.607   9.608  0.0272 -0.6500  0.9691
  225MOL0     C30289   9.422   9.603   9.676 -0.5578  0.5195  0.2028
  225MOL0     N30290   8.571   9.674   9.814 -0.3218 -0.0007 -0.2252
  225MOL0     N30291   8.543   9.713   9.939 -0.1813 -0.4430 -0.2403
  225MOL0     C30292   7.723   9.481  10.387 -0.9899  1.0186  0.5063
  225MOL0     C30293   7.590   9.449  10.392  0.1825 -0.0130  0.4802
  225MOL0     C30294   7.192   9.356  10.617 -0.9976  0.6710  0.6637
  225MOL0     C30295   7.174   9.315  10.754  0.2263  0.0517  0.4923
  225MOL0     C30296   7.049   9.262  10.795 -0.8352  0.2766 -0.2819
  225MOL0     C30297   6.942   9.268  10.707  0.4177 -0.0172  0.3220
  225MOL0     O30298   6.818   9.196  10.733 -0.6715 -0.2349  0.1683
  225MOL0     C30299   6.778   9.166  10.864  0.2705 -0.4099  0.2787
  225MOL0     C30300   6.820   9.033  10.923 -0.5250  0.1979  0.2336
  225MOL0     C30301   6.747   8.909  10.870  0.6526 -0.0445  0.3879
  225MOL0     C30302   6.814   8.778  10.918  0.1353  0.6405  0.2899
  225MOL0     C30303   6.711   8.682  10.896 -0.4531 -0.7356 -0.2256
  225MOL0     C30304   6.630   8.599  10.907  0.4967 -0.0173 -0.7332
  225MOL0     C30305   6.966   9.320  10.582 -0.8359  0.1341 -0.8916
  225MOL0     C30306   7.093   9.352  10.533  0.2674 -0.1436 -0.4663
  225MOL0     C30307   7.102   9.396  10.384 -0.0333  1.5038 -0.1821
  225MOL0     H30308   7.572   9.272  10.677  0.4102  1.2604  1.7454
  225MOL0     H30309   7.809   9.290  10.664 -0.1908  0.3885  0.1656
  225MOL0     H30310   8.032   9.262  10.528  1.6769 -0.3015  0.8315
  225MOL0     H30311   8.130   9.357  10.420  1.7073  4.9648  0.2617
  225MOL0     H30312   8.166   9.370  10.668 -2.5939 -1.4597  0.9597
  225MOL0     H30313   8.016   9.464  10.682 -1.1227 -1.6400 -0.9704
  225MOL0     H30314   8.210   9.625  10.670 -0.3388  1.4998 -1.0487
  225MOL0     H30315   8.097   9.653  10.540 -2.2811  0.6598  1.9726
  225MOL0     H30316   8.357   9.486  10.533  1.5169  0.6079 -0.6183
  225MOL0     H30317   8.259   9.516  10.390 -0.6619 -0.3436  1.0078
  225MOL0     H30318   8.296   9.766  10.414 -1.2115  1.3197  3.1401
  225MOL0     H30319   8.378   9.742  10.564  2.0025 -0.0529  0.1333
  225MOL0     H30320   8.555   9.772  10.393  1.3929 -0.9113  2.5452
  225MOL0     H30321   8.554   9.610  10.443  1.0742  2.3728  2.0211
  225MOL0     H30322   8.423   9.725  10.185  0.9806  3.0345  2.1764
  225MOL0     H30323   8.445   9.548  10.219  2.4896 -0.9186 -0.4030
  225MOL0     H30324   8.663   9.744  10.200  1.2391 -2.1665  2.2041
  225MOL0     H30325   8.694   9.575  10.208  1.0852  2.4471  1.3026
  225MOL0     H30326   8.814   9.528   9.999  0.6564 -0.2105 -2.4137
  225MOL0     H30327   8.753   9.418   9.735  0.8524 -0.1619  0.7862
  225MOL0     H30328   8.681   9.548   9.628 -0.1545 -4.4269 -0.7132
  225MOL0     H30329   8.913   9.568   9.569 -1.1894  3.3592  0.1735
  225MOL0     H30330   8.889   9.683   9.696 -1.1639  0.5925 -1.0197
  225MOL0     H30331   9.018   9.400   9.722  2.6139 -1.4317  1.3368
  225MOL0     H30332   8.984   9.507   9.859  0.9900  0.6107 -0.1395
  225MOL0     H30333   9.167   9.671   9.755  2.0999  0.0062  2.7315
  225MOL0     H30334   9.140   9.572   9.614  2.3207  2.1883 -0.0479
  225MOL0     H30335   9.383   9.255   9.647  1.1261 -0.0095  0.9857
  225MOL0     H30336   9.595   9.277   9.547  1.5497  1.5452 -3.2120
  225MOL0     H30337  10.001   9.339   9.542 -0.6164 -0.3281 -0.5829
  225MOL0     H30338  10.228   9.423   9.464 -0.2680 -0.9721  0.0859
  225MOL0     H30339  10.232   9.670   9.167 -0.2294 -0.4327 -0.5829
  225MOL0     H30340  10.328   9.661   9.310 -0.6546 -0.0354  1.1282
  225MOL0     H30341  10.435   9.599   9.038 -0.9759  0.1448  0.0685
  225MOL0     H30342  10.476   9.743   9.132  2.1130 -0.0626 -1.1337
  225MOL0     H30343  10.624   9.624   9.269  0.7217 -1.1007  2.1902
  225MOL0     H30344  10.522   9.476   9.259 -1.1225 -1.2403 -2.0436
  225MOL0     H30345  10.611   9.394   9.077  2.9121 -2.7816  1.4356
  225MOL0     H30346  10.748   9.450   9.164  0.7397 -1.8624 -0.9668
  225MOL0     H30347  10.748   9.660   9.046 -3.7040  0.2935  1.9800
  225MOL0     H30348  10.631   9.617   8.923  2.0043  3.5377 -0.3602
  225MOL0     H30349  10.870   9.588   8.850 -1.7802  3.1478  2.9725
  225MOL0     H30350  10.900   9.465   8.964  1.2189  1.5384  0.4766
  225MOL0     H30351  10.687   9.456   8.732 -2.4937  0.3077  2.1055
  225MOL0     H30352  10.665   9.345   8.862  1.5363 -2.2123  0.0439
  225MOL0     H30353  10.874   9.232   8.836  1.5130 -0.0891 -0.8386
  225MOL0     H30354  10.787   9.255   8.679  0.4934  0.8462 -1.2594
  225MOL0     H30355  10.070   9.494   9.073  1.9121  1.0541  1.1580
  225MOL0     H30356   9.841   9.443   9.154  0.2267 -0.0122 -1.6878
  225MOL0     H30357   9.595   9.698   9.580 -0.2983 -0.9776 -0.9010
  225MOL0     H30358   9.374   9.692   9.716 -0.2907  1.1024 -0.7421
  225MOL0     H30359   7.761   9.543  10.307 -0.2713 -0.7966 -0.6301
  225MOL0     H30360   7.535   9.486  10.306 -1.3915  1.8629  2.2034
  225MOL0     H30361   7.258   9.321  10.823 -0.4010  0.3491  1.2541
  225MOL0     H30362   7.049   9.221  10.896  3.7001  2.0696  0.7161
  225MOL0     H30363   6.669   9.169  10.854  0.4940  0.5520 -3.2296
  225MOL0     H30364   6.795   9.249  10.933 -2.2280  0.3726  0.0586
  225MOL0     H30365   6.802   9.031  11.031 -1.5411 -0.3869  0.0603
  225MOL0     H30366   6.924   9.018  10.892 -0.7122  2.9038 -2.1934
  225MOL0     H30367   6.744   8.893  10.762  1.2347 -2.1757  0.6366
  225MOL0     H30368   6.641   8.911  10.898 -0.4123  0.5257 -3.1795
  225MOL0     H30369   6.904   8.759  10.859 -0.3515  0.8550 -0.5481
  225MOL0     H30370   6.838   8.785  11.024 -1.9291 -2.5521  1.1018
  225MOL0     H30371   6.551   8.527  10.918 -0.0091  0.8437  2.1987
  225MOL0     H30372   6.880   9.327  10.517 -1.4774 -0.3240 -0.1117
  225MOL0     H30373   7.011   9.380  10.326 -0.6396  1.1569  0.8381
  225MOL0     H30374   7.118   9.504  10.378 -3.1071  1.9534 -3.3571
  225MOL0     H30375   7.183   9.340  10.337 -2.0100  0.6962 -2.8227
  226MOL0     O30376   5.456   2.654   9.721 -0.1135  0.2452 -0.0054
  226MOL0     C30377   5.370   2.715   9.784 -0.2604 -0.4323  0.2126
  226MOL0     O30378   5.354   2.856   9.780 -0.6055  0.1182  0.8562
  226MOL0     C30379   5.446   2.931   9.715 -0.2565  0.0071 -0.2586
  226MOL0     C30380   5.580   2.911   9.740 -0.1033  0.3567  0.3447
  226MOL0     C30381   5.671   2.987   9.668 -0.6283  0.7588  0.3545
  226MOL0     C30382   5.641   3.069   9.557  0.1530  0.5396  0.1475
  226MOL0     O30383   5.714   3.139   9.466 -0.2322 -0.2066 -0.6439
  226MOL0     C30384   5.857   3.111   9.457 -0.3454 -0.8689 -0.7184
  226MOL0     C30385   5.912   3.223   9.361 -0.5502  0.2942 -0.0208
  226MOL0     C30386   6.065   3.181   9.344 -0.0170  0.3468 -0.3178
  226MOL0     C30387   6.124   3.260   9.233 -0.3090 -0.8038 -0.0871
  226MOL0     C30388   6.280   3.250   9.225 -0.5733 -0.5538 -0.1606
  226MOL0     C30389   6.330   3.306   9.094  0.1940  0.2942 -0.1488
  226MOL0     C30390   6.486   3.282   9.066  0.4846  0.1495 -0.6941
  226MOL0     C30391   6.524   3.362   8.942  0.0771 -0.2159 -0.3705
  226MOL0     N30392   6.664   3.387   8.919  0.1412 -0.0516 -0.2264
  226MOL0     C30393   6.747   3.310   8.838 -0.2834  0.2724  0.1685
  226MOL0     C30394   6.871   3.377   8.847  0.0375  0.6891  0.5395
  226MOL0     C30395   6.987   3.356   8.763  0.1379  1.1671  0.3357
  226MOL0     C30396   7.098   3.261   8.810  0.4860  0.2942  0.6248
  226MOL0     C30397   7.238   3.284   8.747  0.7547 -0.0306 -0.2877
  226MOL0     C30398   7.342   3.191   8.806  0.3783 -0.2167 -0.3132
  226MOL0     O30399   7.468   3.218   8.741  0.1344 -0.1799  0.0686
  226MOL0     C30400   7.582   3.150   8.775  0.6372 -0.2421  0.7706
  226MOL0     C30401   7.693   3.185   8.699 -0.0303 -0.4472 -0.2799
  226MOL0     C30402   7.816   3.128   8.732  0.0848  0.3601  0.4533
  226MOL0     C30403   7.825   3.024   8.825 -0.7931  1.1073  0.1808
  226MOL0     C30404   7.957   2.974   8.864  0.5590 -0.4044  0.5113
  226MOL0     O30405   8.046   2.975   8.761  0.1938  0.3983  0.6242
  226MOL0     C30406   8.171   2.922   8.781 -0.0246  0.6297 -0.3031
  226MOL0     C30407   8.277   3.013   8.812  0.9478  0.1804  0.2716
  226MOL0     C30408   8.398   2.963   8.847  0.7535 -0.2334 -0.9142
  226MOL0     C30409   8.417   2.827   8.853  0.7856 -0.3738 -0.7844
  226MOL0     O30410   8.534   2.758   8.879 -0.5311 -0.1271 -0.1418
  226MOL0     C30411   8.651   2.824   8.917 -0.4170  0.0101  0.2149
  226MOL0     C30412   8.780   2.744   8.892 -0.1463 -0.8099  0.1036
  226MOL0     C30413   8.905   2.837   8.908  0.4020  0.5947 -0.0849
  226MOL0     C30414   9.040   2.760   8.892  0.1987 -0.1122  0.3713
  226MOL0     C30415   9.153   2.863   8.875  0.1349 -0.1291  0.1397
  226MOL0     C30416   9.284   2.793   8.857 -0.3367  0.4086  0.0113
  226MOL0     C30417   9.330   2.735   8.987 -0.2863  0.6083 -1.0383
  226MOL0     C30418   9.482   2.718   9.010  0.4346 -0.3786 -0.7853
  226MOL0    Cl30419   9.521   2.669   9.180  0.2682 -0.4350  0.1964
  226MOL0     C30420   8.322   2.732   8.805  0.4767  0.6344  0.0899
  226MOL0     C30421   8.194   2.787   8.767  0.1407  0.0686 -0.5839
  226MOL0     O30422   7.982   2.950   8.979 -1.2514 -0.2134 -0.0520
  226MOL0     C30423   7.709   2.974   8.887 -0.7064  0.4616  0.1637
  226MOL0     C30424   7.585   3.036   8.863  0.3009 -0.4435 -0.7066
  226MOL0     N30425   6.867   3.493   8.930  0.8941  0.3839 -0.3612
  226MOL0     N30426   6.737   3.495   8.969  0.2096 -0.0277 -0.2229
  226MOL0     C30427   5.503   3.088   9.530 -0.3078  0.1271 -0.5124
  226MOL0     C30428   5.408   3.027   9.614  0.2479 -0.6860 -0.3876
  226MOL0     C30429   5.272   2.637   9.862  0.4249 -0.9971  0.2732
  226MOL0     C30430   5.198   2.704   9.968 -0.8768 -0.1985 -0.3107
  226MOL0     C30431   5.118   2.632  10.064 -0.1763 -0.0964 -0.0455
  226MOL0     C30432   5.096   2.501  10.040  0.0177  0.0933  0.5742
  226MOL0     O30433   5.026   2.435  10.130 -0.1615 -0.2284 -0.0253
  226MOL0     C30434   5.018   2.292  10.135  0.5180 -0.1544  0.0947
  226MOL0     C30435   4.926   2.252  10.250  1.0085  0.2787  0.9907
  226MOL0     C30436   4.983   2.309  10.384  0.6182  0.4759 -0.2458
  226MOL0     C30437   4.899   2.259  10.507  0.1879  0.0862  0.0408
  226MOL0     C30438   4.974   2.304  10.623  0.2196 -0.4560  0.4238
  226MOL0     C30439   5.036   2.336  10.725  0.8550  0.2091  0.1452
  226MOL0     C30440   5.159   2.441   9.929 -0.6122  0.7448 -0.0524
  226MOL0     C30441   5.244   2.502   9.838  0.3598  0.4045  0.3533
  226MOL0     C30442   5.296   2.421   9.717 -0.3857  0.4176  0.3477
  226MOL0     H30443   5.613   2.832   9.807 -0.8346 -1.2736 -1.1453
  226MOL0     H30444   5.774   2.962   9.692 -1.0757  1.9955  4.2695
  226MOL0     H30445   5.913   3.116   9.551  0.0666  0.9225 -1.0119
  226MOL0     H30446   5.870   3.011   9.416  1.3069 -0.8459 -0.3240
  226MOL0     H30447   5.908   3.326   9.397 -0.0685  0.9285 -1.7127
  226MOL0     H30448   5.868   3.212   9.262  1.6214  0.2219 -1.0484
  226MOL0     H30449   6.074   3.074   9.324  0.6971  0.3491 -0.0156
  226MOL0     H30450   6.119   3.188   9.439 -2.0929 -2.3163  1.1855
  226MOL0     H30451   6.079   3.216   9.144  1.2255 -1.9999 -0.3215
  226MOL0     H30452   6.110   3.367   9.251  2.4336 -0.1288 -1.4874
  226MOL0     H30453   6.321   3.307   9.309 -2.5854  0.3460  0.2817
  226MOL0     H30454   6.329   3.153   9.229  2.6372  0.8270 -2.0171
  226MOL0     H30455   6.286   3.261   9.004  3.5958 -2.3902 -0.6629
  226MOL0     H30456   6.308   3.412   9.077  0.2497 -0.1797 -4.2314
  226MOL0     H30457   6.502   3.174   9.073  1.5834  0.3564  0.4055
  226MOL0     H30458   6.556   3.327   9.137  2.2962  0.4929 -2.5956
  226MOL0     H30459   6.481   3.316   8.853 -2.9867  3.1047 -0.8497
  226MOL0     H30460   6.476   3.460   8.939  1.2258  0.5203  2.3096
  226MOL0     H30461   6.713   3.231   8.772 -0.5558 -1.1884  1.9529
  226MOL0     H30462   6.943   3.305   8.677 -0.8100  3.2493 -0.4721
  226MOL0     H30463   7.024   3.452   8.727 -1.1028  1.4765 -0.1699
  226MOL0     H30464   7.103   3.278   8.918 -3.4556  5.4823  0.4269
  226MOL0     H30465   7.058   3.161   8.790 -1.3919  1.1543 -0.2155
  226MOL0     H30466   7.263   3.389   8.763  2.9134 -0.3882 -1.0647
  226MOL0     H30467   7.248   3.248   8.644  1.3696 -2.0459  0.4348
  226MOL0     H30468   7.304   3.088   8.806 -0.4286 -0.0919  3.6539
  226MOL0     H30469   7.358   3.202   8.914 -2.0882 -2.8189  0.4427
  226MOL0     H30470   7.700   3.270   8.631  0.8637 -1.9916 -2.2476
  226MOL0     H30471   7.909   3.144   8.677  0.3805 -0.6333  0.6345
  226MOL0     H30472   8.248   3.118   8.809  1.1295  0.2115 -1.2449
  226MOL0     H30473   8.481   3.021   8.885  0.6973  0.9213 -2.4473
  226MOL0     H30474   8.655   2.924   8.873 -1.3521  0.6000  1.3766
  226MOL0     H30475   8.648   2.838   9.026  1.8089 -0.8227  0.4159
  226MOL0     H30476   8.779   2.660   8.962  1.8567  0.8651  2.2893
  226MOL0     H30477   8.780   2.714   8.787  1.4861  0.0019 -0.1703
  226MOL0     H30478   8.911   2.920   8.836  3.3650 -0.9122 -1.7771
  226MOL0     H30479   8.907   2.871   9.012 -0.6225 -3.3264  1.3884
  226MOL0     H30480   9.024   2.690   8.810 -1.8437  1.2985 -0.5150
  226MOL0     H30481   9.053   2.697   8.981 -0.5040  0.3631  0.8261
  226MOL0     H30482   9.159   2.942   8.951  0.3793 -1.5110  1.6148
  226MOL0     H30483   9.119   2.925   8.791 -0.4632 -1.2836 -0.4977
  226MOL0     H30484   9.292   2.710   8.786  0.1572  0.9704 -0.6039
  226MOL0     H30485   9.366   2.861   8.832 -1.9839  2.6054  0.3004
  226MOL0     H30486   9.288   2.634   9.000  0.9888  0.1209 -0.4481
  226MOL0     H30487   9.293   2.780   9.080  0.1936  0.8051 -0.9413
  226MOL0     H30488   9.519   2.647   8.936  1.1312  1.3299 -2.1403
  226MOL0     H30489   9.536   2.812   8.991  0.3695 -0.5811 -2.0497
  226MOL0     H30490   8.352   2.628   8.813  2.2502  1.0518 -0.5964
  226MOL0     H30491   8.110   2.730   8.730  0.6575 -0.2985 -1.2179
  226MOL0     H30492   7.722   2.891   8.956  3.3519  1.8868  1.3921
  226MOL0     H30493   7.497   2.994   8.912  0.6453 -2.1141 -1.4578
  226MOL0     H30494   5.489   3.141   9.436  1.6488  0.0135 -0.9026
  226MOL0     H30495   5.302   3.024   9.591 -0.0437  1.0222  0.5150
  226MOL0     H30496   5.203   2.810   9.991 -0.6520 -0.5584  1.4270
  226MOL0     H30497   5.083   2.694  10.146 -0.3251  1.0365 -0.9313
  226MOL0     H30498   5.120   2.259  10.156  1.4951  0.5880 -2.9145
  226MOL0     H30499   4.993   2.257  10.034 -0.5410 -2.1126  0.9908
  226MOL0     H30500   4.903   2.146  10.262 -0.7649  0.5166 -0.0031
  226MOL0     H30501   4.831   2.298  10.224  0.9096  0.0550  0.9582
  226MOL0     H30502   4.985   2.418  10.393  0.2746  0.4951 -0.4049
  226MOL0     H30503   5.088   2.281  10.399  1.4246  1.8645 -2.7555
  226MOL0     H30504   4.798   2.299  10.493  0.2007 -0.6058 -2.4527
  226MOL0     H30505   4.895   2.150  10.507 -3.9101  0.0601  0.8132
  226MOL0     H30506   5.095   2.375  10.806  0.4984 -0.4052  0.7087
  226MOL0     H30507   5.133   2.336   9.918  1.0203  0.5272 -2.4401
  226MOL0     H30508   5.399   2.390   9.740  0.0364  0.0222 -1.8204
  226MOL0     H30509   5.232   2.332   9.706 -0.0221  0.2901 -0.9428
  226MOL0     H30510   5.302   2.491   9.633  2.5290  0.7910  0.7548
  227MOL0     O30511   3.398   9.269   7.078 -0.0621 -0.8748  0.3086
  227MOL0     C30512   3.352   9.303   7.186  0.6395  0.1988 -0.3884
  227MOL0     O30513   3.421   9.347   7.299 -0.5043  0.5531 -0.0415
  227MOL0     C30514   3.544   9.380   7.279 -0.1966 -0.5760 -0.4415
  227MOL0     C30515   3.594   9.499   7.224 -0.7309 -0.4701 -0.0647
  227MOL0     C30516   3.735   9.531   7.224 -0.2925 -0.5623  0.6004
  227MOL0     C30517   3.827   9.433   7.272 -0.8699 -0.5902  0.6674
  227MOL0     O30518   3.969   9.440   7.263  0.4725  0.1402 -0.5150
  227MOL0     C30519   4.027   9.507   7.162  0.5143  0.0652 -0.3491
  227MOL0     C30520   4.158   9.444   7.123  0.8529  0.2679 -0.4267
  227MOL0     C30521   4.252   9.530   7.044 -0.0360  0.5111  0.6418
  227MOL0     C30522   4.398   9.483   7.078  0.0378  0.3508 -0.2079
  227MOL0     C30523   4.495   9.530   6.969  0.0271  0.0232 -0.4378
  227MOL0     C30524   4.598   9.432   6.932 -0.1352  0.2054  0.0604
  227MOL0     C30525   4.685   9.463   6.810 -0.3536  0.1190 -0.2054
  227MOL0     C30526   4.743   9.605   6.819  0.4518  0.3557  0.3436
  227MOL0     N30527   4.867   9.621   6.743  0.9895  1.1564 -0.0060
  227MOL0     C30528   4.889   9.733   6.672 -0.2605 -0.1990 -0.2614
  227MOL0     C30529   5.025   9.740   6.663  0.0411  0.4036 -0.6516
  227MOL0     C30530   5.116   9.834   6.599  0.0794 -0.3504  0.2152
  227MOL0     C30531   5.105   9.975   6.662 -0.8523  0.9690  0.4166
  227MOL0     C30532   5.216  10.061   6.605 -0.7124 -1.0361 -0.3612
  227MOL0     C30533   5.197  10.073   6.455  0.5092 -0.0266 -0.7073
  227MOL0     O30534   5.211  10.212   6.416 -0.3034  0.1072  0.2821
  227MOL0     C30535   5.339  10.276   6.409 -0.0152  0.1438 -0.0527
  227MOL0     C30536   5.343  10.412   6.385  0.1874 -0.3369  0.0140
  227MOL0     C30537   5.459  10.489   6.382  0.3254 -0.2523  0.4124
  227MOL0     C30538   5.584  10.425   6.414  0.8276 -0.1055  0.0621
  227MOL0     C30539   5.713  10.492   6.405  0.5666  0.8377  0.3356
  227MOL0     O30540   5.700  10.618   6.358 -0.0532 -0.3670  0.1824
  227MOL0     C30541   5.804  10.700   6.317  0.5062  0.5207 -0.4905
  227MOL0     C30542   5.784  10.840   6.335 -0.3857  0.6662 -0.3756
  227MOL0     C30543   5.893  10.927   6.301  0.3926 -0.6255  0.4544
  227MOL0     C30544   6.012  10.881   6.256 -0.7374 -0.3965  0.7878
  227MOL0     O30545   6.117  10.970   6.239 -0.4453 -0.1446  0.0650
  227MOL0     C30546   6.243  10.916   6.191  0.3727 -0.7330 -0.3478
  227MOL0     C30547   6.335  11.036   6.166  0.0503 -0.6212  0.0528
  227MOL0     C30548   6.306  11.115   6.039 -0.0237  0.4613  0.4716
  227MOL0     C30549   6.177  11.203   6.045  0.4602 -0.2388  0.7066
  227MOL0     C30550   6.168  11.296   5.919  0.7459  0.9247 -1.0419
  227MOL0     C30551   6.115  11.442   5.947  0.3899 -0.0393 -0.1826
  227MOL0     C30552   5.978  11.452   6.002 -0.7127  0.0010  0.4841
  227MOL0     C30553   5.934  11.595   5.989 -0.0197 -0.0466  0.0590
  227MOL0    Cl30554   5.788  11.619   6.092 -0.1294 -0.3664  0.3064
  227MOL0     C30555   6.019  10.746   6.230  0.2289 -0.5719 -0.3988
  227MOL0     C30556   5.915  10.655   6.254 -0.4061  0.0534  0.0546
  227MOL0     O30557   5.821  10.445   6.441  0.2990  0.4701  0.1828
  227MOL0     C30558   5.576  10.286   6.450  0.3012  0.5986 -0.1570
  227MOL0     C30559   5.461  10.220   6.461 -0.3125  0.0879  0.3812
  227MOL0     N30560   5.086   9.622   6.715  0.0836  0.1199 -0.0880
  227MOL0     N30561   4.988   9.555   6.761 -0.1123 -0.8259 -0.1894
  227MOL0     C30562   3.778   9.320   7.334  0.4976 -1.0809  0.1236
  227MOL0     C30563   3.644   9.294   7.340  0.4734  0.8013  0.6494
  227MOL0     C30564   3.203   9.325   7.189 -0.4856 -0.0898  0.5389
  227MOL0     C30565   3.148   9.436   7.124 -0.4019 -0.5114 -0.3214
  227MOL0     C30566   3.019   9.463   7.127  0.2097 -0.2921  0.9690
  227MOL0     C30567   2.933   9.372   7.185  0.4168  0.3799  0.7140
  227MOL0     O30568   2.791   9.371   7.191  0.5851  0.1579  0.1810
  227MOL0     C30569   2.719   9.474   7.131  0.0841 -0.1550 -0.3368
  227MOL0     C30570   2.646   9.422   7.005 -0.3135  0.6084  0.4120
  227MOL0     C30571   2.606   9.276   7.004  0.4029  0.1369  0.0676
  227MOL0     C30572   2.574   9.231   6.860  0.9564 -0.1272  0.0717
  227MOL0     C30573   2.470   9.312   6.793  0.0984  0.4035 -0.1988
  227MOL0     C30574   2.378   9.366   6.739 -1.1275  0.8608  0.7384
  227MOL0     C30575   2.987   9.255   7.244  0.2043  0.5806 -0.1836
  227MOL0     C30576   3.120   9.232   7.248 -0.0053 -1.1490 -0.6313
  227MOL0     C30577   3.171   9.109   7.312  0.9165  1.1524 -0.4985
  227MOL0     H30578   3.527   9.573   7.182 -2.3526 -1.4251  0.7201
  227MOL0     H30579   3.763   9.614   7.161  1.9108 -2.3112 -0.8551
  227MOL0     H30580   3.961   9.504   7.075 -0.2322  1.4139  0.1480
  227MOL0     H30581   4.046   9.609   7.197  0.6791 -0.0602 -0.0729
  227MOL0     H30582   4.141   9.353   7.064  3.2901 -1.2475  1.0135
  227MOL0     H30583   4.210   9.410   7.214  1.3191  1.8198 -0.0765
  227MOL0     H30584   4.244   9.636   7.071  0.6327  1.0382 -1.0610
  227MOL0     H30585   4.227   9.517   6.938  2.3856  1.4307 -0.1047
  227MOL0     H30586   4.442   9.512   7.174 -1.8118 -1.1620  1.1955
  227MOL0     H30587   4.390   9.374   7.065 -1.4436  0.4317 -0.1364
  227MOL0     H30588   4.433   9.546   6.880 -2.1457 -1.1247  0.7784
  227MOL0     H30589   4.545   9.620   7.005  2.1125 -0.9198 -0.8356
  227MOL0     H30590   4.672   9.421   7.012  0.2581  1.3567 -0.1198
  227MOL0     H30591   4.553   9.333   6.916  0.1471  0.0395  0.2842
  227MOL0     H30592   4.620   9.449   6.724 -1.4006 -0.3401  0.6344
  227MOL0     H30593   4.771   9.396   6.810  1.3296  2.1640  0.5973
  227MOL0     H30594   4.658   9.668   6.790 -0.5909 -1.2567 -0.2628
  227MOL0     H30595   4.759   9.648   6.918 -0.0008 -0.1601  0.6497
  227MOL0     H30596   4.819   9.809   6.640  0.0352  0.4258  0.5404
  227MOL0     H30597   5.222   9.812   6.615  0.1622 -0.4223 -0.4054
  227MOL0     H30598   5.090   9.832   6.493  2.5210  0.6205 -0.4792
  227MOL0     H30599   5.007  10.023   6.655 -0.5439  1.6622  0.6967
  227MOL0     H30600   5.131   9.961   6.767 -0.3422 -1.8364  0.0063
  227MOL0     H30601   5.318  10.031   6.631 -0.7336 -0.2289  0.7487
  227MOL0     H30602   5.203  10.161   6.648 -0.3378 -1.3891  0.6131
  227MOL0     H30603   5.093  10.047   6.431  0.8593 -1.9737 -0.3296
  227MOL0     H30604   5.267  10.010   6.399 -0.7650 -0.9311 -1.3340
  227MOL0     H30605   5.248  10.460   6.362  0.3493  0.2992  0.6318
  227MOL0     H30606   5.452  10.597   6.373  0.2889 -0.1817  1.2358
  227MOL0     H30607   5.693  10.886   6.373  0.6761  2.4634  0.1480
  227MOL0     H30608   5.870  11.033   6.313 -1.1713 -0.9558  0.5757
  227MOL0     H30609   6.288  10.856   6.270  1.2673 -0.7387 -0.8517
  227MOL0     H30610   6.235  10.864   6.095 -0.0805  0.2391 -0.8540
  227MOL0     H30611   6.328  11.106   6.250 -0.7438 -0.5830 -0.0312
  227MOL0     H30612   6.435  10.992   6.161 -0.2278 -1.1518 -2.0084
  227MOL0     H30613   6.395  11.179   6.041  0.3914 -0.0775 -0.1016
  227MOL0     H30614   6.320  11.063   5.944 -0.9776  1.4373 -0.2337
  227MOL0     H30615   6.161  11.252   6.141  3.4852  0.4460  0.9644
  227MOL0     H30616   6.092  11.136   6.027 -0.3951  1.6978 -3.8730
  227MOL0     H30617   6.104  11.232   5.857 -0.6861 -0.4262  1.6434
  227MOL0     H30618   6.266  11.306   5.871  1.0620 -0.2316 -0.6701
  227MOL0     H30619   6.192  11.481   6.015  0.8615 -1.7471  0.3019
  227MOL0     H30620   6.126  11.497   5.853  3.9690  0.3238  0.3168
  227MOL0     H30621   5.962  11.423   6.106 -4.6208 -0.1552  0.0168
  227MOL0     H30622   5.913  11.380   5.951  1.2889 -2.3307  1.0627
  227MOL0     H30623   6.009  11.666   6.025  0.1520 -1.3379  2.4100
  227MOL0     H30624   5.920  11.621   5.883  2.4359 -2.3187 -0.9436
  227MOL0     H30625   6.108  10.692   6.200 -1.1824 -4.0440  1.1108
  227MOL0     H30626   5.941  10.551   6.240  0.1815  0.0957  0.8046
  227MOL0     H30627   5.672  10.237   6.467  1.1381  2.3072  0.2338
  227MOL0     H30628   5.464  10.115   6.491 -2.4520  0.4095  1.9806
  227MOL0     H30629   3.862   9.264   7.375  1.5841 -1.1879 -2.1250
  227MOL0     H30630   3.609   9.196   7.369 -1.4199  0.9009 -1.1406
  227MOL0     H30631   3.197   9.519   7.073 -3.3145  0.2109 -2.1484
  227MOL0     H30632   2.991   9.553   7.074  2.4864 -1.5348 -2.7687
  227MOL0     H30633   2.780   9.560   7.103 -1.1871  0.6616 -0.6661
  227MOL0     H30634   2.643   9.510   7.201 -0.5788 -0.7393 -0.7413
  227MOL0     H30635   2.718   9.452   6.928 -0.5807  2.1358  0.7214
  227MOL0     H30636   2.554   9.480   6.989 -0.1503  0.4031 -1.5973
  227MOL0     H30637   2.521   9.263   7.071 -1.3301  1.2530 -1.8406
  227MOL0     H30638   2.685   9.208   7.038 -0.6977  0.3677  3.4194
  227MOL0     H30639   2.668   9.238   6.804 -0.3156 -0.7460 -2.2744
  227MOL0     H30640   2.529   9.133   6.848 -2.6293  1.6295 -2.8243
  227MOL0     H30641   2.303   9.419   6.684  0.8074 -0.4458 -3.5883
  227MOL0     H30642   2.921   9.189   7.299  0.4584  1.3526  1.0700
  227MOL0     H30643   3.173   9.105   7.421 -0.2302 -3.6323 -0.4616
  227MOL0     H30644   3.101   9.028   7.289  1.5344  0.7383 -0.9337
  227MOL0     H30645   3.274   9.089   7.282  2.1604  2.7042  2.3484
  228MOL0     O30646   6.174   5.166   2.088 -0.5360 -0.2066  0.5695
  228MOL0     C30647   6.198   5.098   2.186  0.1956  0.8269  0.1785
  228MOL0     O30648   6.318   5.087   2.250  0.4363 -0.5576 -0.0919
  228MOL0     C30649   6.411   5.184   2.229 -0.3617 -0.6772  0.7094
  228MOL0     C30650   6.383   5.324   2.206  0.5698 -0.7243 -0.2209
  228MOL0     C30651   6.479   5.417   2.189 -0.5170 -0.3861  0.0482
  228MOL0     C30652   6.619   5.386   2.188  0.1691  0.4987  0.7224
  228MOL0     O30653   6.722   5.465   2.150  0.4402 -0.6793 -0.1240
  228MOL0     C30654   6.704   5.604   2.142 -0.1548 -0.2245  0.3299
  228MOL0     C30655   6.835   5.673   2.174 -0.7779 -0.6284 -0.2625
  228MOL0     C30656   6.925   5.669   2.056  0.0617  0.1148  0.7848
  228MOL0     C30657   7.065   5.720   2.092 -0.1861  0.0493  0.5532
  228MOL0     C30658   7.156   5.710   1.975  0.4212 -0.0168 -0.2581
  228MOL0     C30659   7.301   5.740   2.003 -0.2803 -0.9331  0.6941
  228MOL0     C30660   7.369   5.639   2.098  0.3188 -0.7492 -0.5060
  228MOL0     C30661   7.515   5.612   2.076  0.7900 -0.4477  0.4489
  228MOL0     N30662   7.533   5.514   1.969  0.0201  0.5956 -0.1423
  228MOL0     C30663   7.501   5.522   1.831 -0.4353 -0.4722  0.8326
  228MOL0     C30664   7.554   5.408   1.775  0.3882  0.5463 -0.4733
  228MOL0     C30665   7.564   5.384   1.635 -0.1674  0.3887 -0.1432
  228MOL0     C30666   7.708   5.417   1.582  0.0708  0.1200  0.1515
  228MOL0     C30667   7.718   5.572   1.556 -0.4288 -0.2061  0.5912
  228MOL0     C30668   7.865   5.600   1.536  0.8638 -0.6562  0.1563
  228MOL0     O30669   7.949   5.582   1.643  0.5588 -0.4459  0.5049
  228MOL0     C30670   8.084   5.585   1.622  0.6312 -0.4104 -0.5761
  228MOL0     C30671   8.143   5.632   1.509 -0.5690  0.0109 -0.1651
  228MOL0     C30672   8.278   5.641   1.513 -0.1665 -0.0479 -0.0030
  228MOL0     C30673   8.356   5.612   1.627 -0.0169  0.7864  0.5803
  228MOL0     C30674   8.497   5.636   1.647  0.2570 -0.8923 -0.7196
  228MOL0     O30675   8.572   5.675   1.535 -0.3768  0.1342  0.1049
  228MOL0     C30676   8.703   5.716   1.554 -0.7620  0.3822  0.2707
  228MOL0     C30677   8.822   5.655   1.508 -0.0291  0.0969  0.0658
  228MOL0     C30678   8.947   5.715   1.507  0.1037 -0.6826  0.1316
  228MOL0     C30679   8.966   5.834   1.571 -0.3262  0.6195  0.6436
  228MOL0     O30680   9.094   5.896   1.563 -0.2836  0.9380  0.1669
  228MOL0     C30681   9.100   6.042   1.562  0.0861 -0.1746 -0.2201
  228MOL0     C30682   9.151   6.094   1.699  0.6414  0.1760  0.4234
  228MOL0     C30683   9.172   6.238   1.689 -0.0222  0.2467 -0.4506
  228MOL0     C30684   9.289   6.268   1.791  0.3401 -0.0836  0.8507
  228MOL0     C30685   9.349   6.402   1.781 -0.4979 -0.7292  0.0081
  228MOL0     C30686   9.450   6.412   1.658 -0.0617 -0.4628 -0.9958
  228MOL0     C30687   9.511   6.554   1.649 -0.2704  0.5791 -0.1121
  228MOL0     C30688   9.627   6.560   1.552 -0.1995  0.1400  0.6451
  228MOL0    Cl30689   9.754   6.448   1.594  0.1016  0.2762  0.0405
  228MOL0     C30690   8.852   5.901   1.629 -0.1788 -0.1775  1.2917
  228MOL0     C30691   8.722   5.845   1.615 -0.5480  0.1105 -0.6892
  228MOL0     O30692   8.555   5.598   1.749  0.5935  0.0470  0.2400
  228MOL0     C30693   8.292   5.549   1.738  0.1306  0.9551  0.3406
  228MOL0     C30694   8.153   5.534   1.738  0.4355 -1.7165 -1.1077
  228MOL0     N30695   7.628   5.342   1.870  0.2326 -0.0212 -0.0190
  228MOL0     N30696   7.618   5.410   1.984 -0.6895  0.5976 -0.3652
  228MOL0     C30697   6.643   5.255   2.229 -0.2079 -0.3617  0.3291
  228MOL0     C30698   6.550   5.154   2.244 -0.8370  0.1340  0.4994
  228MOL0     C30699   6.100   4.994   2.220 -0.5092  0.7657 -0.6140
  228MOL0     C30700   5.992   4.968   2.134  0.9260  0.2959 -1.3065
  228MOL0     C30701   5.888   4.878   2.152 -0.3852 -0.3870  0.3985
  228MOL0     C30702   5.890   4.805   2.268 -1.1611  0.5070  0.0006
  228MOL0     O30703   5.790   4.722   2.311  0.2353  0.4159  0.1404
  228MOL0     C30704   5.665   4.723   2.236  0.1960 -0.0857 -0.2358
  228MOL0     C30705   5.573   4.603   2.287 -0.2239  0.2503  0.1530
  228MOL0     C30706   5.561   4.618   2.438  0.2778 -0.3252 -0.5731
  228MOL0     C30707   5.453   4.523   2.487 -0.3061 -0.2532 -0.2179
  228MOL0     C30708   5.500   4.387   2.492 -0.6492 -0.4643 -0.2472
  228MOL0     C30709   5.542   4.272   2.510  1.0643  0.8475 -0.1309
  228MOL0     C30710   5.995   4.821   2.354  0.1002  0.0312  0.3071
  228MOL0     C30711   6.104   4.907   2.330 -0.4199 -0.0259  0.5061
  228MOL0     C30712   6.220   4.884   2.421  0.2043 -0.0957 -0.2987
  228MOL0     H30713   6.280   5.355   2.192  2.0449  3.7508 -3.1655
  228MOL0     H30714   6.447   5.517   2.163  1.2710  0.2036 -0.0434
  228MOL0     H30715   6.680   5.638   2.041  0.8641  0.3682  0.2783
  228MOL0     H30716   6.627   5.639   2.212 -0.5629  0.5402 -0.4733
  228MOL0     H30717   6.890   5.619   2.251 -0.0292 -1.9409 -1.6716
  228MOL0     H30718   6.821   5.778   2.201  0.1938 -0.2550 -1.1266
  228MOL0     H30719   6.886   5.735   1.977  2.3076  4.2310  2.7808
  228MOL0     H30720   6.918   5.564   2.027 -2.3537  0.2179  0.7950
  228MOL0     H30721   7.049   5.826   2.113 -1.2611 -0.0310  0.1916
  228MOL0     H30722   7.109   5.667   2.177  1.3817  0.8485  0.2630
  228MOL0     H30723   7.154   5.610   1.932  3.0288  0.2066 -1.0559
  228MOL0     H30724   7.121   5.775   1.895  0.8328 -0.7143 -1.0101
  228MOL0     H30725   7.359   5.752   1.911 -0.4890  1.8208  0.8287
  228MOL0     H30726   7.297   5.844   2.039 -3.7324 -0.8018  0.2584
  228MOL0     H30727   7.307   5.549   2.108 -0.1591 -0.3373  0.4471
  228MOL0     H30728   7.354   5.686   2.195  0.8443 -2.3379  0.3800
  228MOL0     H30729   7.565   5.703   2.042 -1.5067  0.9361  0.5298
  228MOL0     H30730   7.547   5.574   2.173 -1.3995  1.9503  2.2448
  228MOL0     H30731   7.450   5.595   1.770  1.3693 -1.0746 -1.5539
  228MOL0     H30732   7.546   5.279   1.612 -0.3088  0.0991  1.2325
  228MOL0     H30733   7.493   5.442   1.576  1.7175  0.5274 -2.4374
  228MOL0     H30734   7.785   5.373   1.646 -0.1997 -0.9609 -0.2483
  228MOL0     H30735   7.730   5.358   1.493  0.6884 -1.6777  1.4480
  228MOL0     H30736   7.678   5.638   1.634 -1.9646 -1.1698  0.6568
  228MOL0     H30737   7.667   5.591   1.461 -0.8488 -0.5056  0.7544
  228MOL0     H30738   7.883   5.703   1.504  0.0084 -1.4872 -3.4909
  228MOL0     H30739   7.886   5.542   1.446 -0.1984 -0.9404  0.0795
  228MOL0     H30740   8.093   5.659   1.417  0.2201 -0.1438 -0.6451
  228MOL0     H30741   8.330   5.679   1.426  0.9292  3.3344  1.9329
  228MOL0     H30742   8.827   5.554   1.470  0.8471 -0.3768  1.3735
  228MOL0     H30743   9.033   5.666   1.462  2.1391  4.2905 -2.0829
  228MOL0     H30744   9.171   6.080   1.488 -0.2150  2.7444  0.8470
  228MOL0     H30745   9.007   6.093   1.536 -0.2864 -0.4545  0.5606
  228MOL0     H30746   9.072   6.056   1.765  2.3387 -2.8000  0.9085
  228MOL0     H30747   9.245   6.043   1.719  0.7099  0.5340  1.0502
  228MOL0     H30748   9.185   6.266   1.584 -0.4923 -0.5971 -0.7410
  228MOL0     H30749   9.080   6.288   1.719 -0.4258 -0.2572 -0.8299
  228MOL0     H30750   9.366   6.191   1.776 -1.1429 -1.3350 -0.7727
  228MOL0     H30751   9.252   6.262   1.894 -0.4277  4.5893  1.0754
  228MOL0     H30752   9.399   6.412   1.878 -0.5325  2.3127 -0.1989
  228MOL0     H30753   9.275   6.479   1.760  0.5690 -0.1572 -1.8992
  228MOL0     H30754   9.523   6.333   1.680  1.0466  1.1553  1.6020
  228MOL0     H30755   9.396   6.393   1.565 -1.2920 -0.1357 -0.3663
  228MOL0     H30756   9.540   6.579   1.751 -2.5507  3.5791 -0.0711
  228MOL0     H30757   9.429   6.617   1.615 -0.7121  0.2335  0.3006
  228MOL0     H30758   9.603   6.542   1.446  2.6913  1.9221 -0.4371
  228MOL0     H30759   9.665   6.662   1.542  0.9940 -0.3745 -0.5076
  228MOL0     H30760   8.853   5.995   1.683 -2.7811  1.2062 -0.8056
  228MOL0     H30761   8.634   5.904   1.636 -0.3695 -0.0576  0.6360
  228MOL0     H30762   8.345   5.525   1.830  0.8869 -0.1297 -0.3391
  228MOL0     H30763   8.098   5.502   1.826  1.3981  0.7925  0.4921
  228MOL0     H30764   6.747   5.222   2.232 -0.3430 -0.7136  2.5495
  228MOL0     H30765   6.585   5.052   2.261  2.7657  1.1197 -0.1558
  228MOL0     H30766   5.983   5.023   2.040 -0.3265  0.0756 -1.3273
  228MOL0     H30767   5.813   4.851   2.078 -0.3278 -0.2295  0.2821
  228MOL0     H30768   5.694   4.708   2.132 -0.0568 -0.4640 -0.2586
  228MOL0     H30769   5.624   4.824   2.236 -3.2715 -1.3271 -1.6749
  228MOL0     H30770   5.620   4.507   2.266  1.2847  0.7562  1.1003
  228MOL0     H30771   5.476   4.610   2.236 -1.3903  0.9507  2.3423
  228MOL0     H30772   5.531   4.721   2.460  0.0212 -0.3791 -0.6735
  228MOL0     H30773   5.652   4.608   2.499  0.0953  3.0376  0.4608
  228MOL0     H30774   5.400   4.551   2.578  2.0914  3.5160  0.2182
  228MOL0     H30775   5.367   4.527   2.419 -0.8257 -0.5546  0.4050
  228MOL0     H30776   5.564   4.167   2.510  1.5965  0.8800  2.5503
  228MOL0     H30777   5.987   4.751   2.436 -1.1431  0.5285  0.6334
  228MOL0     H30778   6.231   4.968   2.491  0.8059 -0.5558  0.1740
  228MOL0     H30779   6.206   4.799   2.489 -1.0597 -0.2889 -0.7904
  228MOL0     H30780   6.310   4.869   2.360  1.9653 -0.7986  2.2644
  229MOL0     O30781   6.492   4.847   1.187  0.1767 -0.2741  0.6540
  229MOL0     C30782   6.474   4.805   1.069 -0.6394  0.5214 -0.0809
  229MOL0     O30783   6.574   4.779   0.979 -0.4604 -0.0110 -0.4486
  229MOL0     C30784   6.711   4.770   1.021  0.0399  0.4591  0.7112
  229MOL0     C30785   6.782   4.878   0.976  0.5802  0.1165 -0.2298
  229MOL0     C30786   6.921   4.867   0.991 -0.1030  0.1100 -0.4023
  229MOL0     C30787   6.983   4.754   1.041  0.6168 -0.0076  0.1670
  229MOL0     O30788   7.113   4.731   1.067 -0.3126  0.1561  0.2363
  229MOL0     C30789   7.189   4.848   1.132 -0.0554 -0.0615  0.0065
  229MOL0     C30790   7.331   4.808   1.122  0.2280 -0.2463  0.0616
  229MOL0     C30791   7.431   4.918   1.157  0.3304 -0.5349  0.4502
  229MOL0     C30792   7.568   4.887   1.108  0.0023 -0.6945  0.6699
  229MOL0     C30793   7.666   5.009   1.119  0.3937 -0.0138  0.3186
  229MOL0     C30794   7.654   5.106   1.002  0.0437 -0.4911 -0.0351
  229MOL0     C30795   7.787   5.156   0.957  0.2205  0.8488  0.3378
  229MOL0     C30796   7.789   5.231   0.826  0.1819 -0.5085 -0.4557
  229MOL0     N30797   7.910   5.315   0.827  0.6125  1.0685 -1.1812
  229MOL0     C30798   7.903   5.446   0.793 -0.3811  0.4007 -0.6908
  229MOL0     C30799   8.026   5.484   0.784 -0.2794 -0.8199  0.5496
  229MOL0     C30800   8.068   5.620   0.737  0.0778  0.0412 -0.5087
  229MOL0     C30801   8.188   5.621   0.655  0.1923  0.1006  0.4010
  229MOL0     C30802   8.234   5.763   0.627  0.5738 -0.6192  0.7686
  229MOL0     C30803   8.367   5.784   0.565  0.4760  0.3205 -0.2335
  229MOL0     O30804   8.474   5.710   0.636  0.1396 -0.3107 -0.3092
  229MOL0     C30805   8.593   5.769   0.665  0.4569 -0.0693  0.6331
  229MOL0     C30806   8.604   5.897   0.710  0.6979 -0.3064  0.5599
  229MOL0     C30807   8.731   5.958   0.735  0.4016 -0.2556  1.0568
  229MOL0     C30808   8.843   5.877   0.703  0.4272  0.0003 -0.6305
  229MOL0     C30809   8.978   5.927   0.733 -0.4005  1.0437  0.2902
  229MOL0     O30810   9.089   5.866   0.664 -0.3472 -1.1114 -0.2235
  229MOL0     C30811   9.205   5.931   0.709  0.0364  0.6044 -0.2249
  229MOL0     C30812   9.237   6.066   0.677 -0.0045  0.5648 -0.4016
  229MOL0     C30813   9.337   6.137   0.728 -0.4246 -0.2947 -0.1178
  229MOL0     C30814   9.428   6.079   0.806  0.3012  0.1332 -0.2345
  229MOL0     O30815   9.548   6.129   0.849  0.3401  0.4404  0.1173
  229MOL0     C30816   9.613   6.205   0.742 -0.2698 -0.2618  0.3098
  229MOL0     C30817   9.752   6.224   0.792 -0.3979 -0.3627 -0.0465
  229MOL0     C30818   9.755   6.321   0.916  0.0616  0.2550 -1.0333
  229MOL0     C30819   9.892   6.334   0.987 -0.8905 -1.0571 -0.4294
  229MOL0     C30820   9.872   6.375   1.140 -0.1814  0.3129  0.4792
  229MOL0     C30821  10.014   6.420   1.190 -0.4959  0.3296  0.3041
  229MOL0     C30822   9.996   6.442   1.340 -0.3107 -0.0299  0.0125
  229MOL0     C30823  10.129   6.500   1.382 -0.9303 -0.5404  0.4078
  229MOL0    Cl30824  10.194   6.645   1.288  0.2489  0.2556 -0.0955
  229MOL0     C30825   9.406   5.949   0.846  0.0565  0.7212  0.5607
  229MOL0     C30826   9.299   5.875   0.794  0.1261  0.1224  0.3933
  229MOL0     O30827   8.986   6.022   0.810 -0.7135 -0.0338  0.7982
  229MOL0     C30828   8.832   5.745   0.667  0.4989 -0.3524 -0.4327
  229MOL0     C30829   8.705   5.687   0.651  0.0852  0.5497 -0.2324
  229MOL0     N30830   8.100   5.383   0.833  0.1585  0.0405 -0.3566
  229MOL0     N30831   8.034   5.274   0.848 -0.0870 -0.4840 -0.2240
  229MOL0     C30832   6.911   4.639   1.071  0.8213 -0.7472 -0.6074
  229MOL0     C30833   6.777   4.652   1.055  0.7749  0.7300 -1.0139
  229MOL0     C30834   6.337   4.776   1.025  0.3093 -0.1819  0.2559
  229MOL0     C30835   6.234   4.776   1.125  0.2010  0.4206  0.1538
  229MOL0     C30836   6.094   4.749   1.088 -0.0744 -0.1110 -0.5931
  229MOL0     C30837   6.060   4.734   0.952 -0.6865 -1.1416 -0.3797
  229MOL0     O30838   5.933   4.724   0.904  0.1008 -0.3104  0.3113
  229MOL0     C30839   5.826   4.691   0.988 -0.1567  0.7984  0.9358
  229MOL0     C30840   5.754   4.806   1.047 -0.2694  0.1624  0.3678
  229MOL0     C30841   5.625   4.762   1.129  0.0740  0.7013  0.1364
  229MOL0     C30842   5.501   4.743   1.040  1.3349 -0.5420 -0.4017
  229MOL0     C30843   5.460   4.871   0.977  0.3850 -1.0515 -0.1101
  229MOL0     C30844   5.445   4.983   0.922  0.2019  0.8941 -0.3603
  229MOL0     C30845   6.163   4.746   0.866  0.4445 -1.4488  1.0220
  229MOL0     C30846   6.296   4.762   0.891  0.1800 -0.7610  0.1755
  229MOL0     C30847   6.389   4.778   0.769  0.1802  1.2379  0.2031
  229MOL0     H30848   6.726   4.964   0.941 -1.7165 -0.9677  0.5705
  229MOL0     H30849   6.981   4.954   0.967  0.6172 -0.3211 -0.2036
  229MOL0     H30850   7.169   4.946   1.088 -1.6702  0.0477  0.9100
  229MOL0     H30851   7.162   4.861   1.237 -2.1331 -3.1867 -0.0093
  229MOL0     H30852   7.349   4.781   1.018 -0.8134 -0.5748 -0.0470
  229MOL0     H30853   7.341   4.717   1.182  1.9619  0.1998  0.5268
  229MOL0     H30854   7.438   4.947   1.263 -2.0080 -1.3298  0.8920
  229MOL0     H30855   7.396   5.005   1.100  0.4573 -1.3712 -0.9357
  229MOL0     H30856   7.600   4.804   1.172  1.3825 -1.1912 -0.6024
  229MOL0     H30857   7.574   4.846   1.007 -2.1626 -1.5894  0.8537
  229MOL0     H30858   7.638   5.065   1.209  0.5004 -1.3672  1.2310
  229MOL0     H30859   7.769   4.981   1.142 -0.2185 -1.9237  0.9846
  229MOL0     H30860   7.616   5.046   0.919  0.5400  0.9853 -1.3852
  229MOL0     H30861   7.588   5.191   1.021  1.7176  1.7389 -3.2696
  229MOL0     H30862   7.853   5.069   0.945  0.1414  0.6878  1.0178
  229MOL0     H30863   7.838   5.211   1.037  0.1367  0.6131  0.5556
  229MOL0     H30864   7.778   5.171   0.736 -1.2496  0.8494 -1.2388
  229MOL0     H30865   7.700   5.295   0.820  0.4723  0.0001  0.3809
  229MOL0     H30866   7.818   5.507   0.763 -0.7562 -1.0275 -2.7749
  229MOL0     H30867   7.982   5.673   0.697  0.1738  0.9544  0.4535
  229MOL0     H30868   8.091   5.675   0.829  1.4957 -1.4106  0.0665
  229MOL0     H30869   8.273   5.562   0.690  2.1004  1.7017 -1.2497
  229MOL0     H30870   8.156   5.577   0.560  1.4717 -3.2733  1.3798
  229MOL0     H30871   8.216   5.830   0.712 -3.3934 -0.9028  0.3654
  229MOL0     H30872   8.163   5.801   0.553 -1.4316  0.1933  2.9685
  229MOL0     H30873   8.385   5.892   0.565 -1.3473  0.6690 -0.1004
  229MOL0     H30874   8.364   5.743   0.463  2.2842 -4.0140  1.1998
  229MOL0     H30875   8.520   5.964   0.721  1.5324  1.3292 -2.1440
  229MOL0     H30876   8.737   6.057   0.779 -0.5717 -0.0022  0.6532
  229MOL0     H30877   9.167   6.129   0.622 -1.7855  0.6505  1.8164
  229MOL0     H30878   9.347   6.243   0.704  1.1539 -0.0634  1.3588
  229MOL0     H30879   9.605   6.153   0.646  2.1223 -0.0063 -0.0921
  229MOL0     H30880   9.563   6.301   0.727 -0.4713 -0.7687 -2.8363
  229MOL0     H30881   9.795   6.131   0.831 -0.0591  0.5747  1.9279
  229MOL0     H30882   9.819   6.271   0.720 -1.6633 -2.4402 -2.7717
  229MOL0     H30883   9.713   6.414   0.879  0.5411 -0.0761 -2.4675
  229MOL0     H30884   9.684   6.296   0.996  1.6188  1.4570  0.8292
  229MOL0     H30885   9.962   6.399   0.934 -0.7840 -0.2178  0.6961
  229MOL0     H30886   9.947   6.239   0.991 -2.6071 -2.1140  3.6250
  229MOL0     H30887   9.831   6.290   1.195  0.5593 -0.0481  0.4883
  229MOL0     H30888   9.804   6.461   1.141 -1.0422 -0.1785 -3.0564
  229MOL0     H30889  10.085   6.338   1.176 -0.4080  0.2443  1.1923
  229MOL0     H30890  10.061   6.501   1.132 -1.9571  0.4643 -0.7500
  229MOL0     H30891   9.984   6.349   1.396  1.9589 -1.2488 -1.3620
  229MOL0     H30892   9.911   6.507   1.363 -0.1174  0.4202 -0.5384
  229MOL0     H30893  10.108   6.535   1.483 -1.0430 -1.2623  0.6351
  229MOL0     H30894  10.203   6.420   1.383 -0.8240 -0.5906 -2.3147
  229MOL0     H30895   9.491   5.901   0.895  0.5215 -1.8570 -2.4327
  229MOL0     H30896   9.292   5.772   0.825  0.0542 -0.0790 -0.2630
  229MOL0     H30897   8.922   5.684   0.659  0.6445 -0.2168  0.1700
  229MOL0     H30898   8.694   5.581   0.631  1.2251  0.5927 -1.1053
  229MOL0     H30899   6.973   4.556   1.103  0.2128 -0.0757  2.5710
  229MOL0     H30900   6.716   4.566   1.082  1.1008  1.3250  2.0315
  229MOL0     H30901   6.254   4.790   1.231 -0.3381  1.7978  0.0959
  229MOL0     H30902   6.024   4.739   1.170  3.5740  1.4902  3.0520
  229MOL0     H30903   5.854   4.632   1.076 -2.9776 -0.9175  0.7872
  229MOL0     H30904   5.755   4.635   0.926 -0.8988  1.1162  1.4867
  229MOL0     H30905   5.719   4.883   0.977  0.9956  3.0353  2.6733
  229MOL0     H30906   5.813   4.872   1.111  0.8619  0.2853 -0.7531
  229MOL0     H30907   5.596   4.836   1.204  0.9235  0.5021  0.6799
  229MOL0     H30908   5.649   4.672   1.187 -0.0633  0.5442 -0.0478
  229MOL0     H30909   5.505   4.673   0.956  0.8226 -0.2999 -0.6363
  229MOL0     H30910   5.420   4.699   1.100  1.1094  0.4888  0.0804
  229MOL0     H30911   5.439   5.080   0.877 -1.1035  0.8519 -0.3168
  229MOL0     H30912   6.133   4.747   0.761 -1.5041  0.7487  1.5377
  229MOL0     H30913   6.452   4.868   0.772  0.8466  0.8975 -1.7069
  229MOL0     H30914   6.444   4.684   0.768 -1.3195  0.3063 -1.7695
  229MOL0     H30915   6.340   4.787   0.671  2.0597 -1.8957 -1.1825
  230MOL0     O30916   0.358   8.778   7.400 -0.8348 -0.2322  0.8364
  230MOL0     C30917   0.333   8.900   7.425 -0.8172  0.4771  0.4905
  230MOL0     O30918   0.424   8.982   7.479  0.0167 -0.2290  0.8444
  230MOL0     C30919   0.541   8.945   7.529  0.4391  0.9632  0.5105
  230MOL0     C30920   0.558   8.951   7.664 -0.7946 -0.4667 -0.6230
  230MOL0     C30921   0.687   8.927   7.716 -0.7738  0.0252  0.6430
  230MOL0     C30922   0.800   8.905   7.633  0.4981 -0.0594 -0.4031
  230MOL0     O30923   0.929   8.894   7.683 -0.1972  0.4467 -0.5535
  230MOL0     C30924   1.010   9.017   7.668 -0.3661  0.6035  0.5578
  230MOL0     C30925   1.098   8.990   7.541 -0.1010  0.7446  0.4682
  230MOL0     C30926   1.236   8.938   7.580 -0.0356  0.0758  0.4229
  230MOL0     C30927   1.337   9.049   7.619  0.2292 -0.4696 -0.1816
  230MOL0     C30928   1.479   8.993   7.642  1.1741  0.5451  0.1927
  230MOL0     C30929   1.481   8.865   7.738 -0.9841 -0.0630  0.0304
  230MOL0     C30930   1.626   8.821   7.759 -0.8027  0.2195  0.1491
  230MOL0     C30931   1.652   8.700   7.845  0.6265  0.0727  0.5008
  230MOL0     N30932   1.786   8.690   7.896 -0.1272 -0.0444  1.0284
  230MOL0     C30933   1.899   8.712   7.826 -0.6835 -0.5918 -0.4716
  230MOL0     C30934   2.000   8.716   7.922  1.0972  0.8188  0.4595
  230MOL0     C30935   2.147   8.726   7.891 -0.7674 -0.6964 -0.0592
  230MOL0     C30936   2.194   8.593   7.819  0.3331 -0.9472  0.4234
  230MOL0     C30937   2.338   8.555   7.850 -0.2719 -0.1001  0.0891
  230MOL0     C30938   2.440   8.640   7.782  0.2834  0.4885 -0.3261
  230MOL0     O30939   2.566   8.617   7.834 -0.1461 -0.4604 -0.0089
  230MOL0     C30940   2.671   8.703   7.790  0.3105  0.9055  0.1645
  230MOL0     C30941   2.790   8.660   7.851  0.4347 -0.5156 -0.6652
  230MOL0     C30942   2.910   8.733   7.822 -0.1912  0.3928  0.0879
  230MOL0     C30943   2.913   8.834   7.733  0.2428  0.3031  0.4548
  230MOL0     C30944   3.033   8.896   7.682  0.5642 -0.2211  0.2010
  230MOL0     O30945   3.149   8.841   7.721 -0.0868  0.3253 -0.3243
  230MOL0     C30946   3.276   8.888   7.711  0.1379  0.8883 -0.1341
  230MOL0     C30947   3.315   9.017   7.670  0.3640 -0.3640 -0.0212
  230MOL0     C30948   3.453   9.043   7.658 -0.6168  0.5303 -0.1631
  230MOL0     C30949   3.551   8.952   7.710 -0.0064  0.3973 -0.5587
  230MOL0     O30950   3.685   8.973   7.697 -0.2683 -0.3015 -0.7584
  230MOL0     C30951   3.729   9.107   7.727  0.6207 -0.5607 -0.6419
  230MOL0     C30952   3.878   9.115   7.765  0.0552 -0.1641  0.9327
  230MOL0     C30953   3.957   9.113   7.639  0.3385  0.2975 -0.0181
  230MOL0     C30954   4.084   9.018   7.631 -0.3099 -0.4222 -0.1853
  230MOL0     C30955   4.199   9.064   7.536  0.1566  0.3418 -0.4850
  230MOL0     C30956   4.157   9.091   7.390 -0.7145 -0.0325  0.4930
  230MOL0     C30957   4.154   8.970   7.309 -1.6110 -0.2376  0.6300
  230MOL0     C30958   4.122   9.014   7.164 -0.8745 -0.3979  0.6592
  230MOL0    Cl30959   4.252   9.084   7.076  0.1506 -0.0217  0.1916
  230MOL0     C30960   3.507   8.825   7.755  0.1447 -0.1303  0.1194
  230MOL0     C30961   3.372   8.790   7.756 -0.5462 -0.0975  0.0366
  230MOL0     O30962   3.024   8.994   7.616 -0.1844  0.0903  0.4450
  230MOL0     C30963   2.792   8.880   7.682  0.1468 -0.2249  0.4602
  230MOL0     C30964   2.662   8.819   7.711 -0.1939 -0.5209  0.2093
  230MOL0     N30965   1.942   8.711   8.050  0.5252  0.0286  0.1096
  230MOL0     N30966   1.821   8.682   8.028 -0.1027  0.4603 -0.1573
  230MOL0     C30967   0.776   8.890   7.490  0.0023 -0.5832 -0.5235
  230MOL0     C30968   0.646   8.912   7.447 -0.3410 -0.4332  0.2476
  230MOL0     C30969   0.218   8.954   7.358 -0.0534  0.1331  0.8062
  230MOL0     C30970   0.240   8.968   7.218  0.0524 -0.6702  0.6759
  230MOL0     C30971   0.129   9.017   7.143  0.1886  1.0925  0.0755
  230MOL0     C30972   0.004   9.033   7.202  0.0089 -0.1404 -0.7013
  230MOL0     O30973  -0.100   9.061   7.113  0.4597  0.3232  0.9052
  230MOL0     C30974  -0.238   9.050   7.146  0.3582 -0.0360  0.1352
  230MOL0     C30975  -0.274   8.894   7.161 -0.7092 -1.1447 -0.7699
  230MOL0     C30976  -0.404   8.882   7.244  0.4074  1.1578  0.2197
  230MOL0     C30977  -0.531   8.859   7.164 -0.7227 -0.2296 -0.0522
  230MOL0     C30978  -0.589   8.976   7.105 -0.4888  0.4403 -0.5811
  230MOL0     C30979  -0.649   9.072   7.072  0.8123 -0.4910 -0.1167
  230MOL0     C30980  -0.018   9.016   7.341  0.0994 -0.8825  0.2814
  230MOL0     C30981   0.099   8.995   7.422 -0.3072  1.0025  0.4379
  230MOL0     C30982   0.101   8.997   7.565  0.7443  0.0405  0.5280
  230MOL0     H30983   0.482   8.989   7.732  0.0198  0.0866 -0.0000
  230MOL0     H30984   0.699   8.950   7.822 -2.1041  1.8668  0.4417
  230MOL0     H30985   0.952   9.109   7.656  0.3311  1.1191  1.0587
  230MOL0     H30986   1.077   9.039   7.752  0.8842 -0.6178 -0.0748
  230MOL0     H30987   1.126   9.080   7.484  0.0489 -0.8926 -2.2567
  230MOL0     H30988   1.043   8.925   7.472 -1.9436  0.1863  2.3965
  230MOL0     H30989   1.285   8.887   7.497 -1.6782  0.9349 -1.1569
  230MOL0     H30990   1.226   8.862   7.657  1.7820 -1.0784 -0.4127
  230MOL0     H30991   1.341   9.118   7.534  1.2594  1.6434  1.4925
  230MOL0     H30992   1.306   9.111   7.703 -1.4145 -0.5496 -0.6886
  230MOL0     H30993   1.527   8.956   7.551 -0.0979  2.2934 -1.2772
  230MOL0     H30994   1.542   9.073   7.681 -0.2635  2.7456 -1.7136
  230MOL0     H30995   1.438   8.900   7.832  0.0753  2.4931 -0.3451
  230MOL0     H30996   1.425   8.785   7.689 -0.2213 -0.3124 -0.4584
  230MOL0     H30997   1.666   8.913   7.802 -2.7630 -0.1936  3.1688
  230MOL0     H30998   1.675   8.793   7.666  1.9712  0.2538  1.5098
  230MOL0     H30999   1.585   8.707   7.932  2.5707  2.1363  1.9482
  230MOL0     H31000   1.617   8.607   7.801 -1.3716  0.9569  0.0745
  230MOL0     H31001   1.917   8.705   7.720  1.7076 -2.5212 -0.0409
  230MOL0     H31002   2.177   8.815   7.836  0.7463  0.7546  2.9066
  230MOL0     H31003   2.199   8.740   7.986  0.0981  1.4815 -0.7912
  230MOL0     H31004   2.139   8.505   7.853  2.3347 -1.2454  3.2322
  230MOL0     H31005   2.177   8.599   7.711  0.7779 -2.4157  0.2557
  230MOL0     H31006   2.353   8.449   7.829  0.4223 -0.2188  1.0935
  230MOL0     H31007   2.356   8.554   7.958 -1.1730 -3.8485  0.3566
  230MOL0     H31008   2.407   8.744   7.789  2.5832  1.6313 -3.8609
  230MOL0     H31009   2.448   8.615   7.675 -0.8937 -2.3460  0.1672
  230MOL0     H31010   2.787   8.582   7.927 -0.0844 -0.4251 -0.5854
  230MOL0     H31011   3.004   8.704   7.867 -0.1752  0.4269  0.0768
  230MOL0     H31012   3.240   9.090   7.643  0.7162  0.2805  0.7226
  230MOL0     H31013   3.473   9.130   7.596  0.2017 -0.0524 -0.7336
  230MOL0     H31014   3.708   9.179   7.648 -2.5907 -0.6910 -0.0398
  230MOL0     H31015   3.671   9.140   7.814  1.6451  0.2394 -0.2359
  230MOL0     H31016   3.888   9.203   7.828  0.8754  0.1305  0.4013
  230MOL0     H31017   3.900   9.017   7.810  1.9600  1.0379  2.7930
  230MOL0     H31018   3.889   9.080   7.560 -2.1233  0.6992  1.8211
  230MOL0     H31019   3.981   9.216   7.612  5.8198 -0.3112  1.3827
  230MOL0     H31020   4.066   8.910   7.620  1.8809 -0.6904 -1.7948
  230MOL0     H31021   4.134   9.026   7.728 -1.2514 -2.1385  0.5056
  230MOL0     H31022   4.278   8.989   7.547  0.3593  0.4487 -1.1752
  230MOL0     H31023   4.238   9.160   7.570 -3.3471  1.3740  1.0514
  230MOL0     H31024   4.054   9.126   7.387 -0.6980 -0.0512 -0.5993
  230MOL0     H31025   4.219   9.169   7.344 -0.8997  1.5811  2.8061
  230MOL0     H31026   4.070   8.903   7.329  0.0424 -1.6732  3.2840
  230MOL0     H31027   4.251   8.921   7.299 -1.1061  1.1454 -2.1743
  230MOL0     H31028   4.083   8.930   7.106 -0.5537 -0.4459  0.5067
  230MOL0     H31029   4.032   9.076   7.167 -2.8726 -2.9176 -2.0703
  230MOL0     H31030   3.585   8.757   7.787 -1.3184 -2.4447 -0.9783
  230MOL0     H31031   3.341   8.693   7.793  1.7557 -1.0903 -0.4925
  230MOL0     H31032   2.796   8.958   7.607  1.0977 -1.1062 -0.4261
  230MOL0     H31033   2.569   8.849   7.665  0.0629 -0.8807 -0.5657
  230MOL0     H31034   0.860   8.881   7.422  1.0734 -1.4551  0.8387
  230MOL0     H31035   0.628   8.905   7.340  1.2190  0.2014 -0.0880
  230MOL0     H31036   0.339   8.951   7.176 -0.4668  0.5601 -1.1786
  230MOL0     H31037   0.129   9.025   7.035 -0.2994 -1.5375 -0.1808
  230MOL0     H31038  -0.288   9.085   7.055  0.1661 -1.3158 -0.2655
  230MOL0     H31039  -0.276   9.100   7.236  2.0221 -1.3985  1.6857
  230MOL0     H31040  -0.201   8.833   7.214 -0.7279  0.2294  0.9461
  230MOL0     H31041  -0.293   8.863   7.058 -3.5922  1.1091 -1.0775
  230MOL0     H31042  -0.420   8.960   7.318  1.3989 -0.7268  2.5490
  230MOL0     H31043  -0.405   8.794   7.309  1.6548  2.2727  1.8072
  230MOL0     H31044  -0.511   8.785   7.085  1.7770 -0.7174  0.9457
  230MOL0     H31045  -0.610   8.816   7.225  0.6920 -0.3937  1.7688
  230MOL0     H31046  -0.699   9.157   7.031 -0.0599  0.6058  2.9631
  230MOL0     H31047  -0.121   9.023   7.376  0.0180  0.9430 -0.1890
  230MOL0     H31048   0.193   9.039   7.606  1.8060 -0.9711 -0.7562
  230MOL0     H31049   0.008   9.034   7.609  0.2155 -0.5606 -0.0567
  230MOL0     H31050   0.106   8.894   7.601 -1.1290 -0.4240 -0.4038
  231MOL0     O31051   3.223   3.415   7.589  0.3005  1.0852 -0.4356
  231MOL0     C31052   3.193   3.337   7.500  0.3372  0.4106  0.0256
  231MOL0     O31053   3.243   3.212   7.483 -0.1601 -0.1446 -0.5763
  231MOL0     C31054   3.361   3.173   7.551  0.9293  0.4850 -0.4793
  231MOL0     C31055   3.453   3.232   7.633  0.0089  0.0522 -0.4063
  231MOL0     C31056   3.561   3.161   7.693 -0.0611 -0.5260  0.0417
  231MOL0     C31057   3.582   3.028   7.656 -0.6566  0.4038  0.6526
  231MOL0     O31058   3.696   2.967   7.710 -0.4963  0.0663 -0.4169
  231MOL0     C31059   3.778   2.875   7.629  0.6095  0.0128  0.4614
  231MOL0     C31060   3.758   2.727   7.665  0.7228  0.5572 -0.0946
  231MOL0     C31061   3.853   2.621   7.603  0.0600 -0.0393 -0.7722
  231MOL0     C31062   3.875   2.642   7.456  0.7358 -0.2481  0.7462
  231MOL0     C31063   3.926   2.517   7.382  0.5664 -0.2163 -0.2649
  231MOL0     C31064   4.064   2.461   7.424  0.0905 -0.5597 -0.5918
  231MOL0     C31065   4.103   2.342   7.337 -0.2713  0.1920 -0.4613
  231MOL0     C31066   4.231   2.265   7.382  1.3490 -0.9108  0.3763
  231MOL0     N31067   4.343   2.339   7.330 -0.5693 -0.3878 -0.6293
  231MOL0     C31068   4.414   2.435   7.405 -0.7020 -0.1148  0.0889
  231MOL0     C31069   4.512   2.483   7.319  0.7496  0.0394 -0.3243
  231MOL0     C31070   4.601   2.610   7.341  0.1019  0.0779  0.1807
  231MOL0     C31071   4.669   2.609   7.473 -0.2967  0.8449  0.2766
  231MOL0     C31072   4.709   2.746   7.528  0.1568  0.1306 -0.0973
  231MOL0     C31073   4.846   2.788   7.475  0.4376  0.3561 -0.0595
  231MOL0     O31074   4.955   2.739   7.555 -0.1341 -1.0758  1.1271
  231MOL0     C31075   5.076   2.759   7.487  0.2014  0.1211  0.0945
  231MOL0     C31076   5.093   2.682   7.369  0.2358 -0.0938 -0.2097
  231MOL0     C31077   5.200   2.704   7.281 -0.9003  0.1327 -0.5728
  231MOL0     C31078   5.314   2.780   7.331 -0.4068 -0.6459  0.1081
  231MOL0     C31079   5.440   2.777   7.249 -0.3427 -0.3381 -0.5479
  231MOL0     O31080   5.550   2.831   7.309 -0.8800  0.8081 -0.0218
  231MOL0     C31081   5.677   2.811   7.258  0.4806 -0.0422  0.3997
  231MOL0     C31082   5.723   2.696   7.201 -0.6096  0.1453  0.7390
  231MOL0     C31083   5.856   2.684   7.145 -0.4364 -0.5108 -0.4613
  231MOL0     C31084   5.943   2.797   7.153  0.0870 -0.3935 -0.3356
  231MOL0     O31085   6.061   2.791   7.081  0.3364 -0.5352 -0.6244
  231MOL0     C31086   6.175   2.847   7.154 -0.7282  0.6448  0.5313
  231MOL0     C31087   6.313   2.811   7.090  0.5228  1.0375  0.7764
  231MOL0     C31088   6.421   2.879   7.165  0.1217  0.1219 -0.3773
  231MOL0     C31089   6.562   2.808   7.162  0.1122 -0.7096  1.3875
  231MOL0     C31090   6.631   2.835   7.023 -0.2544 -0.0490  0.1570
  231MOL0     C31091   6.767   2.759   7.023 -0.2022 -0.2039  0.5824
  231MOL0     C31092   6.856   2.800   6.910 -1.0757  0.0791 -0.5940
  231MOL0     C31093   6.997   2.734   6.900  0.3234  0.5876  0.9649
  231MOL0    Cl31094   6.987   2.573   6.830 -0.4688  0.4022 -0.0455
  231MOL0     C31095   5.893   2.916   7.210  0.2310 -0.2169 -0.4662
  231MOL0     C31096   5.762   2.920   7.256 -0.0090  1.3688 -0.6020
  231MOL0     O31097   5.438   2.724   7.140 -0.0023  0.0700  1.1548
  231MOL0     C31098   5.291   2.858   7.444 -0.3539 -0.7647 -0.0210
  231MOL0     C31099   5.172   2.853   7.521  0.6071  0.0310  0.1134
  231MOL0     N31100   4.505   2.409   7.203  1.2435 -0.7066  0.2367
  231MOL0     N31101   4.399   2.326   7.205  0.1468 -0.5303 -0.4359
  231MOL0     C31102   3.493   2.961   7.567  0.3323  0.0991 -0.0991
  231MOL0     C31103   3.382   3.032   7.518  0.3084 -0.1680  0.0641
  231MOL0     C31104   3.090   3.368   7.402  0.5434  0.3057  0.4551
  231MOL0     C31105   3.099   3.310   7.270  0.0438  0.1578 -0.5511
  231MOL0     C31106   2.998   3.335   7.176  0.0739 -0.0459 -0.6044
  231MOL0     C31107   2.898   3.422   7.202  0.0374  0.3878  0.3881
  231MOL0     O31108   2.807   3.444   7.099 -0.0566  0.4728 -0.8597
  231MOL0     C31109   2.675   3.481   7.121  1.0801  0.3607  0.8687
  231MOL0     C31110   2.596   3.357   7.147  0.1259 -0.8135  0.9778
  231MOL0     C31111   2.443   3.376   7.127 -0.0288 -0.2274  0.9732
  231MOL0     C31112   2.362   3.247   7.170 -0.0208 -0.4441  0.5108
  231MOL0     C31113   2.335   3.257   7.310  0.2692  0.3394  0.6282
  231MOL0     C31114   2.329   3.268   7.433  0.6811  0.5473 -0.0508
  231MOL0     C31115   2.893   3.486   7.325 -0.7212 -0.3315  0.6000
  231MOL0     C31116   2.983   3.453   7.423 -0.1037 -0.2646  0.0685
  231MOL0     C31117   2.952   3.522   7.555 -1.1898 -0.2469  0.0312
  231MOL0     H31118   3.445   3.338   7.656 -2.0330 -0.3385  0.9394
  231MOL0     H31119   3.630   3.222   7.751 -1.3807  0.3538  0.7201
  231MOL0     H31120   3.753   2.899   7.525  3.0466 -0.6245 -0.3461
  231MOL0     H31121   3.885   2.898   7.631  0.7848 -0.5004 -1.1649
  231MOL0     H31122   3.651   2.706   7.656  0.1820  3.3438 -1.2130
  231MOL0     H31123   3.778   2.729   7.772 -1.7319  0.3618  0.4210
  231MOL0     H31124   3.800   2.525   7.614 -0.7969  0.2669 -1.9524
  231MOL0     H31125   3.948   2.615   7.656 -0.6569 -1.8322  0.4325
  231MOL0     H31126   3.780   2.672   7.412  1.6574 -0.2974 -1.3915
  231MOL0     H31127   3.947   2.723   7.450  0.9849 -0.4368  1.1604
  231MOL0     H31128   3.852   2.437   7.391  0.3828  0.1324  1.5947
  231MOL0     H31129   3.934   2.535   7.274 -0.1392 -0.4635 -0.3616
  231MOL0     H31130   4.150   2.529   7.431  1.2626 -2.1168  2.8609
  231MOL0     H31131   4.058   2.424   7.527 -0.5085 -1.8984 -1.0867
  231MOL0     H31132   4.122   2.377   7.235  1.8404 -1.9144 -0.8911
  231MOL0     H31133   4.022   2.268   7.334 -0.5638  0.2641  2.7347
  231MOL0     H31134   4.223   2.246   7.489 -1.3417  0.2483  0.4508
  231MOL0     H31135   4.224   2.170   7.329 -1.0462 -0.3383 -0.4575
  231MOL0     H31136   4.395   2.467   7.506 -2.3551 -2.1504  0.4854
  231MOL0     H31137   4.673   2.638   7.263  0.1658  0.7720  0.4802
  231MOL0     H31138   4.530   2.693   7.346  1.8431  1.6094  0.6496
  231MOL0     H31139   4.614   2.557   7.553 -0.4925  0.8726  0.1598
  231MOL0     H31140   4.759   2.549   7.458 -1.4588 -0.1506 -3.7722
  231MOL0     H31141   4.712   2.746   7.637 -0.4435 -2.0501 -0.0379
  231MOL0     H31142   4.636   2.826   7.511 -1.8628 -1.2010  1.8112
  231MOL0     H31143   4.851   2.897   7.472  1.1370  0.3214 -2.3644
  231MOL0     H31144   4.857   2.739   7.378 -1.2898  0.3812 -0.2995
  231MOL0     H31145   5.017   2.612   7.338 -0.4036  0.5380 -0.0932
  231MOL0     H31146   5.236   2.642   7.199 -1.8601  0.7442 -1.4892
  231MOL0     H31147   5.655   2.611   7.198 -0.9110  0.2489  3.0256
  231MOL0     H31148   5.883   2.592   7.094 -1.5116 -0.7615 -0.6041
  231MOL0     H31149   6.177   2.956   7.151  3.5475  0.7262  0.2761
  231MOL0     H31150   6.171   2.804   7.255 -0.2016 -0.5594  0.0612
  231MOL0     H31151   6.324   2.703   7.094  1.4149  1.0581 -0.4407
  231MOL0     H31152   6.318   2.844   6.985  1.7126  0.0853  0.5167
  231MOL0     H31153   6.427   2.980   7.123  1.8410  0.2652  0.1610
  231MOL0     H31154   6.382   2.888   7.267  0.5268 -2.4973  0.0704
  231MOL0     H31155   6.544   2.701   7.180 -0.3417 -1.4781 -2.7117
  231MOL0     H31156   6.630   2.844   7.240  0.2640 -2.8302  2.3249
  231MOL0     H31157   6.647   2.941   7.006 -1.5060 -0.1792 -2.2193
  231MOL0     H31158   6.566   2.807   6.940 -0.0040  2.2481 -0.8903
  231MOL0     H31159   6.818   2.770   7.119  1.4489  0.5603 -0.3404
  231MOL0     H31160   6.752   2.651   7.022  3.5082 -0.8716  1.7917
  231MOL0     H31161   6.874   2.906   6.926  2.0139 -0.3673 -0.4561
  231MOL0     H31162   6.800   2.774   6.820 -0.6202 -1.4961 -0.4549
  231MOL0     H31163   7.059   2.808   6.849  0.5509  2.1207  3.2799
  231MOL0     H31164   7.037   2.732   7.002  0.1844  0.4827  1.0174
  231MOL0     H31165   5.954   3.006   7.223  1.9990 -1.1497 -1.7944
  231MOL0     H31166   5.720   3.012   7.298  0.4729  0.4949  1.9669
  231MOL0     H31167   5.369   2.932   7.459  0.8424 -2.0017  0.0538
  231MOL0     H31168   5.154   2.916   7.607  0.1204  1.7903 -1.2097
  231MOL0     H31169   3.508   2.857   7.539 -0.3848 -0.1249  0.3244
  231MOL0     H31170   3.314   2.975   7.456 -0.6137  1.3182 -0.3631
  231MOL0     H31171   3.186   3.246   7.259 -1.2612 -1.5052 -1.8813
  231MOL0     H31172   3.011   3.295   7.076  4.2343  0.1737 -0.3216
  231MOL0     H31173   2.654   3.510   7.018  0.2593  1.3906  1.3152
  231MOL0     H31174   2.656   3.563   7.190  1.5098  1.0159  0.2175
  231MOL0     H31175   2.609   3.337   7.254 -1.4671  2.4141  1.9253
  231MOL0     H31176   2.632   3.272   7.088  0.6837  0.3221 -0.3726
  231MOL0     H31177   2.421   3.402   7.023 -0.0746  5.8971  2.1340
  231MOL0     H31178   2.421   3.460   7.193  1.9066  1.6301 -0.6281
  231MOL0     H31179   2.270   3.241   7.112  0.7071 -1.4220 -0.5836
  231MOL0     H31180   2.421   3.159   7.144  2.5599  1.6019 -1.1219
  231MOL0     H31181   2.306   3.288   7.535 -2.5844  0.6868 -0.6896
  231MOL0     H31182   2.819   3.562   7.348 -0.3559 -0.4353  2.2988
  231MOL0     H31183   3.030   3.598   7.560 -1.0602  0.1965 -4.5865
  231MOL0     H31184   2.852   3.567   7.557 -1.6545 -0.9584 -2.7557
  231MOL0     H31185   2.963   3.446   7.633 -0.3796 -2.2113 -1.9032
  232MOL0     O31186  10.554   8.816   9.025  0.9113 -0.3254 -0.0569
  232MOL0     C31187  10.505   8.906   8.954  0.2656  0.5887  0.5080
  232MOL0     O31188  10.572   8.973   8.857  0.1488  0.1889  0.5858
  232MOL0     C31189  10.704   8.936   8.829 -0.0701 -0.6130 -0.9375
  232MOL0     C31190  10.809   8.891   8.917 -1.0380 -0.2692 -0.3111
  232MOL0     C31191  10.943   8.879   8.871 -0.4966 -0.4230  0.1724
  232MOL0     C31192  10.966   8.903   8.735  0.0817 -0.9888 -1.1824
  232MOL0     O31193  11.083   8.883   8.670  0.0737  0.4140  0.1064
  232MOL0     C31194  11.201   8.853   8.754  0.1905  0.4386  0.5493
  232MOL0     C31195  11.318   8.849   8.664  0.0485 -0.5700 -1.0792
  232MOL0     C31196  11.444   8.809   8.743 -0.3195  0.0120  0.5163
  232MOL0     C31197  11.564   8.799   8.651  0.7835  0.0905 -0.2688
  232MOL0     C31198  11.694   8.783   8.714 -0.2441 -0.1277 -0.1687
  232MOL0     C31199  11.809   8.797   8.604 -0.1229 -0.1682 -0.7576
  232MOL0     C31200  11.939   8.753   8.668 -1.0115 -0.0737 -0.3954
  232MOL0     C31201  11.955   8.595   8.663  0.5555  0.2250  0.4583
  232MOL0     N31202  12.102   8.568   8.663  0.3137 -0.3068  0.3911
  232MOL0     C31203  12.190   8.601   8.770  0.5683 -0.3232  0.7581
  232MOL0     C31204  12.308   8.604   8.701 -0.2993 -0.9631  0.3119
  232MOL0     C31205  12.440   8.623   8.774  0.5820  0.1235 -0.2194
  232MOL0     C31206  12.558   8.713   8.720 -0.5243  0.5181  0.1002
  232MOL0     C31207  12.689   8.698   8.799  0.3151  0.1172 -0.1296
  232MOL0     C31208  12.801   8.764   8.727  0.0098 -0.1142 -0.0982
  232MOL0     O31209  12.922   8.707   8.778  0.0747 -0.3906  0.2392
  232MOL0     C31210  13.039   8.756   8.733 -0.1435  0.8283  0.4586
  232MOL0     C31211  13.150   8.682   8.772  0.6263  0.4977 -0.5124
  232MOL0     C31212  13.279   8.698   8.706  0.0422 -0.7660 -1.2541
  232MOL0     C31213  13.288   8.806   8.615 -1.4082  0.1840  0.0078
  232MOL0     C31214  13.420   8.824   8.545 -0.2387  0.0082  1.3073
  232MOL0     O31215  13.416   8.905   8.432  0.0210  0.0211 -0.5884
  232MOL0     C31216  13.534   8.933   8.362  0.3574 -0.2384  0.1516
  232MOL0     C31217  13.577   8.857   8.260  0.9918  0.6563  0.0285
  232MOL0     C31218  13.705   8.866   8.206  0.3158 -0.3326  0.1328
  232MOL0     C31219  13.791   8.969   8.249 -0.1714 -0.0658  0.5265
  232MOL0     O31220  13.915   8.998   8.195  0.5729 -0.2242 -0.0026
  232MOL0     C31221  13.936   8.959   8.060 -0.2013 -0.9257 -0.1728
  232MOL0     C31222  14.034   9.054   8.006 -0.1115 -0.5954 -0.7228
  232MOL0     C31223  13.986   9.205   7.988 -0.2240 -0.0816  0.3389
  232MOL0     C31224  14.098   9.288   7.929 -0.3425  0.3721 -0.8212
  232MOL0     C31225  14.214   9.328   8.019 -1.1303  0.4359 -0.4974
  232MOL0     C31226  14.322   9.402   7.937 -0.5311  1.0716 -0.4734
  232MOL0     C31227  14.392   9.499   8.031  0.2805  0.0151  0.1759
  232MOL0     C31228  14.505   9.583   7.966 -0.4124 -1.2193 -0.0128
  232MOL0    Cl31229  14.657   9.479   7.934 -0.3993  0.7200 -0.5827
  232MOL0     C31230  13.753   9.054   8.352 -0.1536  0.0339 -0.7249
  232MOL0     C31231  13.632   9.027   8.421  0.9681 -0.4726  0.0458
  232MOL0     O31232  13.523   8.775   8.589  0.6105  0.5819 -0.2471
  232MOL0     C31233  13.180   8.884   8.584 -0.0809  0.0641 -0.3498
  232MOL0     C31234  13.055   8.864   8.644  0.1200  0.7718  0.4301
  232MOL0     N31235  12.292   8.580   8.569  0.3406  0.0577  0.3911
  232MOL0     N31236  12.169   8.558   8.549 -0.2123  0.0256  0.3062
  232MOL0     C31237  10.867   8.948   8.643 -0.0879  0.6179  0.1524
  232MOL0     C31238  10.737   8.963   8.697  0.4381 -0.1481 -0.0220
  232MOL0     C31239  10.353   8.931   8.988 -0.4592 -0.1224  1.1660
  232MOL0     C31240  10.276   8.826   9.037  0.2146 -0.3508 -0.1087
  232MOL0     C31241  10.141   8.842   9.068 -0.0269  0.7881  0.4735
  232MOL0     C31242  10.080   8.961   9.048  0.4194 -0.2707 -0.5481
  232MOL0     O31243   9.949   8.976   9.080 -0.1990 -0.5062 -0.0471
  232MOL0     C31244   9.885   9.112   9.083  0.9915 -0.9487  0.3436
  232MOL0     C31245   9.746   9.105   9.117 -0.0149  0.1003  0.2411
  232MOL0     C31246   9.728   9.057   9.256  0.2571  0.6249 -0.4536
  232MOL0     C31247   9.587   9.104   9.307  0.6620  0.8046 -0.4280
  232MOL0     C31248   9.521   9.014   9.400 -0.0695  0.0469 -0.6273
  232MOL0     C31249   9.480   8.933   9.484 -0.3817  0.6346  0.6364
  232MOL0     C31250  10.165   9.067   9.022  0.0345  0.5511 -0.0258
  232MOL0     C31251  10.302   9.060   8.985  0.2184 -0.0449  0.3577
  232MOL0     C31252  10.397   9.182   8.978  0.3890 -0.2544 -1.0171
  232MOL0     H31253  10.796   8.859   9.020 -1.8823  0.4329 -0.1909
  232MOL0     H31254  11.023   8.844   8.936  2.2074  2.5403 -1.2654
  232MOL0     H31255  11.222   8.925   8.833  1.9284  3.1799 -2.1827
  232MOL0     H31256  11.181   8.761   8.810 -2.7710  0.6405 -0.0481
  232MOL0     H31257  11.328   8.950   8.624  1.5211  0.5366  1.8386
  232MOL0     H31258  11.301   8.775   8.585  1.0438 -2.2667  0.2277
  232MOL0     H31259  11.419   8.715   8.793  1.9332 -0.6292  0.5375
  232MOL0     H31260  11.456   8.880   8.826 -4.1056  1.2508  0.1997
  232MOL0     H31261  11.556   8.727   8.569  1.5549 -0.4089  0.0792
  232MOL0     H31262  11.560   8.893   8.596  1.6178  0.5173  0.3735
  232MOL0     H31263  11.713   8.861   8.788  1.1304  0.1377 -0.7798
  232MOL0     H31264  11.696   8.683   8.759 -4.0265 -0.6209 -0.7809
  232MOL0     H31265  11.793   8.739   8.513 -2.5349 -0.4400 -0.2072
  232MOL0     H31266  11.821   8.903   8.577  1.7200 -0.6690 -2.1973
  232MOL0     H31267  11.967   8.801   8.763 -0.2278  1.3355 -1.3147
  232MOL0     H31268  12.013   8.790   8.597 -2.4602 -0.2783 -2.0719
  232MOL0     H31269  11.907   8.547   8.748  0.0736  1.7990  1.0991
  232MOL0     H31270  11.900   8.546   8.582 -1.3792  0.7722  1.3806
  232MOL0     H31271  12.175   8.624   8.875 -0.3632  1.7654  0.2159
  232MOL0     H31272  12.418   8.672   8.869 -0.3864  0.3393 -0.5519
  232MOL0     H31273  12.485   8.524   8.792  1.6249  0.4027 -1.1313
  232MOL0     H31274  12.589   8.673   8.624 -1.8398 -2.4086  0.7849
  232MOL0     H31275  12.538   8.820   8.705  1.3244  0.6678 -1.7509
  232MOL0     H31276  12.717   8.596   8.826  3.3982  0.9468  0.2229
  232MOL0     H31277  12.678   8.750   8.894 -0.8249  0.4033 -0.4013
  232MOL0     H31278  12.788   8.867   8.764 -3.2482  0.1428 -1.6158
  232MOL0     H31279  12.792   8.767   8.618  0.6113 -1.8770 -0.2141
  232MOL0     H31280  13.126   8.602   8.842 -2.2869 -0.4606 -2.4422
  232MOL0     H31281  13.364   8.639   8.738 -0.0044  0.7108  1.9810
  232MOL0     H31282  13.516   8.777   8.220 -2.3735  2.5732  0.9220
  232MOL0     H31283  13.731   8.794   8.129  0.7100 -0.3976  0.3248
  232MOL0     H31284  13.982   8.860   8.061  1.3105 -0.3503 -3.1314
  232MOL0     H31285  13.852   8.957   7.990 -0.5308  0.2364  0.1539
  232MOL0     H31286  14.113   9.045   8.081 -0.8597 -1.4259 -0.0146
  232MOL0     H31287  14.079   9.021   7.912  1.5900  2.2145 -1.0288
  232MOL0     H31288  13.911   9.199   7.909 -0.8603  0.2347  0.9143
  232MOL0     H31289  13.951   9.259   8.076  0.2973 -1.1591  1.2376
  232MOL0     H31290  14.055   9.382   7.894 -0.7075  1.1547  1.6028
  232MOL0     H31291  14.127   9.233   7.838 -2.6008  0.3225 -1.5706
  232MOL0     H31292  14.252   9.248   8.082 -1.4433  0.3381 -0.4274
  232MOL0     H31293  14.167   9.388   8.097 -3.9544 -1.6593 -0.4232
  232MOL0     H31294  14.396   9.339   7.886 -0.9743  0.9391 -0.9665
  232MOL0     H31295  14.267   9.456   7.860  0.0664 -0.0068 -1.6929
  232MOL0     H31296  14.422   9.437   8.116 -2.2339 -1.0673  0.3597
  232MOL0     H31297  14.317   9.568   8.070  0.0974 -0.1615  0.1377
  232MOL0     H31298  14.465   9.624   7.873  2.4083  1.7821 -0.0657
  232MOL0     H31299  14.531   9.668   8.030  2.1514 -0.2613 -2.1581
  232MOL0     H31300  13.827   9.119   8.399  2.1249 -1.9209 -1.4026
  232MOL0     H31301  13.617   9.084   8.513  1.3792  2.1220 -1.4092
  232MOL0     H31302  13.181   8.955   8.501  1.9998 -0.8172 -1.1571
  232MOL0     H31303  12.976   8.928   8.606  1.4748  3.4206  1.8352
  232MOL0     H31304  10.878   8.967   8.537 -1.3605 -0.0306 -0.1170
  232MOL0     H31305  10.657   9.010   8.640  0.4446  1.6279  1.3354
  232MOL0     H31306  10.314   8.725   9.032 -0.9082 -0.7504 -0.8133
  232MOL0     H31307  10.081   8.763   9.110 -0.3465  1.3816  1.1553
  232MOL0     H31308   9.882   9.162   8.986 -3.9036  0.1474  0.8015
  232MOL0     H31309   9.935   9.173   9.159 -0.5110 -0.2301  0.7946
  232MOL0     H31310   9.695   9.028   9.058  0.2905 -0.3926  0.6156
  232MOL0     H31311   9.706   9.206   9.100  0.3928  0.2752  0.3205
  232MOL0     H31312   9.812   9.088   9.319 -0.7783  2.0723  0.2519
  232MOL0     H31313   9.733   8.948   9.256  4.2985  0.6375  1.0442
  232MOL0     H31314   9.600   9.208   9.340  1.2798  0.5948  0.0072
  232MOL0     H31315   9.520   9.100   9.220  0.6493  0.3234 -0.3962
  232MOL0     H31316   9.455   8.855   9.553 -1.5238 -1.9583 -2.4481
  232MOL0     H31317  10.127   9.168   9.007 -1.2326  0.2614  0.9805
  232MOL0     H31318  10.335   9.268   9.004 -0.5983 -1.5961  1.3939
  232MOL0     H31319  10.478   9.176   9.052 -0.9475  0.1266  0.5505
  232MOL0     H31320  10.434   9.206   8.878  0.3141 -0.3088 -1.0575
  233MOL0     O31321   6.751   1.985  10.407 -0.0494 -0.1604 -0.4547
  233MOL0     C31322   6.746   1.904  10.499 -0.0136 -0.7903  0.3376
  233MOL0     O31323   6.858   1.851  10.567 -0.0042  0.0299  0.1844
  233MOL0     C31324   6.990   1.898  10.560 -1.3036  0.0457  0.7558
  233MOL0     C31325   7.025   2.012  10.494 -0.0875  0.4519 -0.1561
  233MOL0     C31326   7.164   2.039  10.485  0.3136  0.3176 -0.4629
  233MOL0     C31327   7.268   1.951  10.533 -0.2505  0.0649 -0.7840
  233MOL0     O31328   7.403   1.975  10.539  0.3986 -0.2801  0.3690
  233MOL0     C31329   7.447   2.059  10.427  0.4676 -1.0775  0.3520
  233MOL0     C31330   7.596   2.074  10.448 -0.0224  0.2677  0.0029
  233MOL0     C31331   7.667   2.167  10.345 -0.9834  0.1928  0.2446
  233MOL0     C31332   7.821   2.160  10.371 -0.0601  0.9697 -0.2168
  233MOL0     C31333   7.903   2.272  10.306  0.5680  0.2453 -0.1139
  233MOL0     C31334   8.018   2.212  10.218 -1.3248 -0.2205  0.1752
  233MOL0     C31335   8.129   2.149  10.312 -0.4233  0.5473  0.5595
  233MOL0     C31336   8.213   2.260  10.377  0.2058  0.1872  0.3237
  233MOL0     N31337   8.343   2.197  10.409  0.3991 -0.7255 -0.0290
  233MOL0     C31338   8.455   2.167  10.327  0.4314  0.0045 -0.2680
  233MOL0     C31339   8.558   2.141  10.412 -0.8720  0.2081 -0.6092
  233MOL0     C31340   8.699   2.116  10.378  0.4357 -0.1212 -0.1773
  233MOL0     C31341   8.778   2.247  10.400  1.0065  0.0126 -0.2332
  233MOL0     C31342   8.921   2.223  10.362 -0.2678  0.9081 -0.0755
  233MOL0     C31343   9.028   2.321  10.413 -0.5055 -0.4938  0.4207
  233MOL0     O31344   9.149   2.249  10.393 -0.0886 -0.0537 -0.1623
  233MOL0     C31345   9.262   2.309  10.442 -0.2821  0.1592 -0.3470
  233MOL0     C31346   9.262   2.400  10.550  0.3521  0.0457  0.0494
  233MOL0     C31347   9.377   2.448  10.601 -0.3610 -0.1126 -0.1865
  233MOL0     C31348   9.503   2.409  10.555 -0.4689  1.2948 -0.2510
  233MOL0     C31349   9.629   2.478  10.606  0.6714  0.5733 -0.9022
  233MOL0     O31350   9.754   2.429  10.568 -0.0887 -0.3620 -0.5029
  233MOL0     C31351   9.873   2.492  10.589 -0.2447 -0.4016  0.4685
  233MOL0     C31352   9.913   2.536  10.713  0.5533  0.6316  0.0731
  233MOL0     C31353  10.043   2.597  10.723 -0.8219 -0.0327 -0.1427
  233MOL0     C31354  10.138   2.599  10.615 -0.5530 -0.2812 -0.8812
  233MOL0     O31355  10.260   2.657  10.615 -0.1190 -0.3665  0.3928
  233MOL0     C31356  10.321   2.641  10.738 -0.3890 -0.6642 -0.5571
  233MOL0     C31357  10.458   2.695  10.738  0.2211 -0.4926  0.7739
  233MOL0     C31358  10.549   2.584  10.685  0.1062  0.1473  0.5598
  233MOL0     C31359  10.696   2.615  10.703  0.1120  0.1070 -0.6186
  233MOL0     C31360  10.797   2.513  10.634 -0.4356  0.7359  0.2213
  233MOL0     C31361  10.942   2.553  10.635 -0.8064  0.0575  0.2212
  233MOL0     C31362  11.027   2.426  10.605 -0.0388 -0.2865  0.2821
  233MOL0     C31363  11.178   2.459  10.603 -0.1061 -0.4107  0.1980
  233MOL0    Cl31364  11.228   2.575  10.729  0.1642 -0.1279  0.2479
  233MOL0     C31365  10.092   2.553  10.488 -0.5719 -0.1240 -0.2156
  233MOL0     C31366   9.965   2.492  10.478 -0.5088  0.6132 -0.5304
  233MOL0     O31367   9.615   2.581  10.682  0.7641  0.8511  0.4032
  233MOL0     C31368   9.507   2.312  10.447  0.3797 -0.3975  0.6446
  233MOL0     C31369   9.384   2.270  10.392  0.2251 -0.0050  0.1249
  233MOL0     N31370   8.504   2.149  10.541  0.1736 -0.0116 -0.1576
  233MOL0     N31371   8.382   2.170  10.535 -0.3164  1.0063 -0.3375
  233MOL0     C31372   7.224   1.833  10.594  0.1233 -0.1513 -1.4484
  233MOL0     C31373   7.084   1.807  10.611 -0.3025  0.0241  0.4197
  233MOL0     C31374   6.613   1.829  10.525 -1.3335  0.1253 -0.2221
  233MOL0     C31375   6.625   1.689  10.563  1.1960  0.3247 -0.2756
  233MOL0     C31376   6.510   1.611  10.584  0.1791 -0.2614 -0.0645
  233MOL0     C31377   6.388   1.670  10.568  0.5909  0.8880  0.0051
  233MOL0     O31378   6.270   1.587  10.597 -0.5869  0.0655  0.4228
  233MOL0     C31379   6.157   1.642  10.668  0.8718 -0.1716  0.0871
  233MOL0     C31380   6.042   1.558  10.613 -0.6660  0.3251 -0.1203
  233MOL0     C31381   6.015   1.589  10.462 -0.5754  0.3251  0.2370
  233MOL0     C31382   5.904   1.515  10.402 -0.0014 -0.1802  0.6634
  233MOL0     C31383   5.772   1.550  10.463 -0.0211 -0.5354 -0.1403
  233MOL0     C31384   5.670   1.574  10.521  0.6608  0.5178  0.6803
  233MOL0     C31385   6.376   1.802  10.530  0.1457 -0.0475 -0.5509
  233MOL0     C31386   6.486   1.880  10.505  1.0358  0.2206  0.4893
  233MOL0     C31387   6.466   2.028  10.471  0.6723  0.1477  0.3098
  233MOL0     H31388   6.960   2.090  10.455 -0.4717 -0.1526 -0.7542
  233MOL0     H31389   7.187   2.138  10.446 -0.5171  0.1003 -1.5611
  233MOL0     H31390   7.422   2.009  10.333  0.2101  0.2604 -0.3051
  233MOL0     H31391   7.411   2.161  10.437  3.8795  0.1969  1.2472
  233MOL0     H31392   7.640   1.974  10.446 -1.8705 -0.6638  2.0371
  233MOL0     H31393   7.622   2.101  10.551  1.6283 -3.3368  0.6773
  233MOL0     H31394   7.630   2.269  10.355  0.2824  0.6436  0.3635
  233MOL0     H31395   7.641   2.132  10.244 -1.2315  1.4123 -0.1309
  233MOL0     H31396   7.843   2.164  10.478 -0.6871  0.4474 -0.0627
  233MOL0     H31397   7.856   2.063  10.335 -0.9205  1.3010 -2.0720
  233MOL0     H31398   7.832   2.330  10.246 -0.5209 -0.7850  0.1288
  233MOL0     H31399   7.948   2.340  10.378  0.1756  0.8272 -0.4086
  233MOL0     H31400   7.987   2.130  10.153  0.5228 -0.2367 -0.7591
  233MOL0     H31401   8.058   2.291  10.153  0.2252 -1.8442 -0.9282
  233MOL0     H31402   8.196   2.091  10.247 -0.7211  0.6991  0.1075
  233MOL0     H31403   8.083   2.080  10.383  1.8847  0.5622  2.1810
  233MOL0     H31404   8.233   2.346  10.312 -3.2648 -0.0834 -1.3438
  233MOL0     H31405   8.151   2.302  10.457 -0.3627  2.2417 -1.1209
  233MOL0     H31406   8.481   2.177  10.222  3.2290  0.7809  0.4081
  233MOL0     H31407   8.744   2.043  10.446  1.6817  2.1959  1.6762
  233MOL0     H31408   8.713   2.083  10.275  2.7214 -1.1332  0.3917
  233MOL0     H31409   8.738   2.326  10.335 -0.1155  0.3360  0.8102
  233MOL0     H31410   8.774   2.277  10.505  1.5205 -1.1553  0.1328
  233MOL0     H31411   8.924   2.219  10.253 -2.3280 -0.3420 -0.1518
  233MOL0     H31412   8.945   2.124  10.402 -2.2800 -0.2097 -1.4740
  233MOL0     H31413   9.013   2.330  10.521  0.3737  0.3082  0.4859
  233MOL0     H31414   9.024   2.421  10.367 -0.8260 -1.4779 -1.7983
  233MOL0     H31415   9.167   2.436  10.587 -0.4568 -0.9103 -1.0353
  233MOL0     H31416   9.375   2.518  10.684  0.5024  0.6330 -0.7680
  233MOL0     H31417   9.836   2.524  10.789  0.2396  1.2612 -0.1385
  233MOL0     H31418  10.072   2.634  10.821  1.0686 -1.6228 -0.0252
  233MOL0     H31419  10.260   2.703  10.805  2.4589  2.4042 -0.5411
  233MOL0     H31420  10.316   2.538  10.773 -0.3948 -0.1574  0.9961
  233MOL0     H31421  10.463   2.787  10.679 -0.4082 -0.9679 -0.0379
  233MOL0     H31422  10.482   2.718  10.842 -1.3868 -1.0610  1.3005
  233MOL0     H31423  10.534   2.497  10.749  0.0420  0.9928  1.7413
  233MOL0     H31424  10.526   2.574  10.579  0.4599  0.4673  0.4474
  233MOL0     H31425  10.720   2.604  10.809 -1.6668 -3.2384 -0.4249
  233MOL0     H31426  10.717   2.715  10.664  1.2009 -0.6685 -2.1934
  233MOL0     H31427  10.772   2.496  10.529  3.0179  0.1086 -0.6318
  233MOL0     H31428  10.786   2.414  10.679 -0.6394  1.6878  2.3486
  233MOL0     H31429  10.973   2.628  10.562  0.6117 -1.6483 -1.0148
  233MOL0     H31430  10.972   2.600  10.729 -1.4228  0.1190  0.3914
  233MOL0     H31431  11.001   2.402  10.501  1.1770 -1.0990  0.1449
  233MOL0     H31432  11.008   2.339  10.668  1.9923 -2.0094 -1.3345
  233MOL0     H31433  11.225   2.361  10.618  2.0760  0.4366 -0.6122
  233MOL0     H31434  11.208   2.509  10.511 -5.0383  1.7896 -0.5105
  233MOL0     H31435  10.157   2.554  10.401  2.3512 -0.5840  1.8199
  233MOL0     H31436   9.917   2.464  10.385  0.3769 -3.7681  0.1030
  233MOL0     H31437   9.604   2.292  10.403  0.2106  1.2606 -0.5799
  233MOL0     H31438   9.395   2.213  10.300 -0.9121 -2.3150  1.3579
  233MOL0     H31439   7.308   1.772  10.626 -0.9092 -1.2436 -0.7310
  233MOL0     H31440   7.053   1.715  10.660  1.2968 -0.3679  0.7742
  233MOL0     H31441   6.722   1.640  10.567  1.4060  0.7655  0.1668
  233MOL0     H31442   6.506   1.507  10.611 -2.0899 -0.1874  0.0992
  233MOL0     H31443   6.135   1.747  10.647  0.7328 -0.5939 -2.1746
  233MOL0     H31444   6.176   1.626  10.774 -1.4460  2.2357  0.9723
  233MOL0     H31445   5.954   1.598  10.665  0.9924  3.0802  0.8172
  233MOL0     H31446   6.052   1.449  10.619 -0.6870  0.3899  2.0719
  233MOL0     H31447   6.107   1.573  10.405 -0.1308  3.2353 -0.0471
  233MOL0     H31448   5.991   1.693  10.436 -0.1435  0.1192 -1.0645
  233MOL0     H31449   5.900   1.534  10.294  1.4992  3.1625  1.0608
  233MOL0     H31450   5.917   1.407  10.413 -0.5418 -0.3991 -0.6566
  233MOL0     H31451   5.583   1.591  10.582 -0.6872  2.2231 -1.5226
  233MOL0     H31452   6.274   1.837  10.522 -0.7343 -1.8231  1.9671
  233MOL0     H31453   6.557   2.082  10.500  1.2635 -1.2470  1.1795
  233MOL0     H31454   6.440   2.039  10.366 -0.6945  0.5069  0.6625
  233MOL0     H31455   6.380   2.073  10.521 -0.0351  2.2875 -2.5748
  234MOL0     O31456   2.433   9.826   8.773 -0.5939 -0.0172  0.2002
  234MOL0     C31457   2.423   9.706   8.799  0.1265  0.4605 -1.2039
  234MOL0     O31458   2.496   9.606   8.731 -0.3205  0.9046 -0.1609
  234MOL0     C31459   2.607   9.654   8.658 -0.1057 -0.0257  0.0529
  234MOL0     C31460   2.580   9.731   8.545  0.1950  0.8903 -0.7355
  234MOL0     C31461   2.690   9.782   8.465 -0.3021 -0.1481 -0.5828
  234MOL0     C31462   2.821   9.762   8.517  0.1496 -0.6191 -0.3637
  234MOL0     O31463   2.943   9.808   8.467  0.8228 -0.4811  0.1782
  234MOL0     C31464   2.934   9.869   8.345  1.1118  0.0871 -0.0782
  234MOL0     C31465   3.059   9.924   8.284  0.4630  0.1442 -0.6473
  234MOL0     C31466   3.120  10.038   8.355  0.2435 -0.1736 -0.0751
  234MOL0     C31467   3.269  10.064   8.331 -0.6992 -0.3949 -0.3760
  234MOL0     C31468   3.336  10.176   8.411  0.5537 -0.0109 -0.2451
  234MOL0     C31469   3.293  10.317   8.368 -0.1695 -0.2715 -0.3909
  234MOL0     C31470   3.356  10.420   8.458 -0.0452  0.0276 -0.6308
  234MOL0     C31471   3.275  10.551   8.445 -0.6601 -0.3835 -0.1321
  234MOL0     N31472   3.270  10.602   8.306 -0.1281 -0.0663 -0.2041
  234MOL0     C31473   3.393  10.621   8.236  0.3711  0.0840  0.0124
  234MOL0     C31474   3.353  10.642   8.106 -0.0687  0.3304  0.0080
  234MOL0     C31475   3.425  10.652   7.976 -0.2958  0.5514 -0.5433
  234MOL0     C31476   3.373  10.766   7.888 -0.2606 -0.3948  0.0743
  234MOL0     C31477   3.397  10.910   7.931 -0.9850 -0.3183  0.1161
  234MOL0     C31478   3.546  10.927   7.960 -0.6237  0.6294 -0.4094
  234MOL0     O31479   3.574  11.072   7.952 -0.2719  0.7568  0.3531
  234MOL0     C31480   3.707  11.095   7.973 -0.1304 -0.3475 -0.3093
  234MOL0     C31481   3.814  11.055   7.886 -0.8550 -0.1333 -0.5226
  234MOL0     C31482   3.944  11.084   7.920  0.2226  0.1633  1.0638
  234MOL0     C31483   3.982  11.155   8.034  0.1484  0.2158  0.2426
  234MOL0     C31484   4.124  11.164   8.069 -0.2529  0.1570 -0.0323
  234MOL0     O31485   4.218  11.164   7.967  0.6180  0.1391 -0.0964
  234MOL0     C31486   4.352  11.158   7.990 -0.2787 -1.0103  0.2218
  234MOL0     C31487   4.428  11.269   7.953  0.6299 -0.4662  0.3625
  234MOL0     C31488   4.565  11.280   7.964 -0.0184 -0.1341 -0.1329
  234MOL0     C31489   4.628  11.167   8.012 -0.0832  0.2459 -0.2737
  234MOL0     O31490   4.764  11.175   8.005 -0.4268  0.6651  0.0376
  234MOL0     C31491   4.845  11.069   8.063 -0.2413 -0.3059  0.8641
  234MOL0     C31492   5.002  11.091   8.043  0.8702 -0.3311  0.2331
  234MOL0     C31493   5.060  10.972   8.111 -0.6567  0.9310  0.1285
  234MOL0     C31494   5.204  10.939   8.071  0.0458 -0.0397 -0.3938
  234MOL0     C31495   5.249  10.798   8.131 -0.4718  0.0350  0.3431
  234MOL0     C31496   5.391  10.771   8.109  0.2006 -0.2213 -0.8969
  234MOL0     C31497   5.441  10.652   8.185  0.3555 -0.8099 -0.3486
  234MOL0     C31498   5.588  10.632   8.137  0.8870 -0.9102 -0.1125
  234MOL0    Cl31499   5.685  10.753   8.219  0.4608 -0.1385  0.1466
  234MOL0     C31500   4.554  11.057   8.056  1.3293  0.7028 -0.1564
  234MOL0     C31501   4.413  11.055   8.045 -0.1822 -0.3229  0.4238
  234MOL0     O31502   4.165  11.172   8.185  0.3549  0.6292 -0.4729
  234MOL0     C31503   3.879  11.184   8.124  0.6330 -0.1324 -0.3756
  234MOL0     C31504   3.742  11.167   8.092 -0.6688  0.4087 -0.1028
  234MOL0     N31505   3.218  10.650   8.100 -0.0120 -1.0885 -0.0240
  234MOL0     N31506   3.169  10.621   8.216  0.6969  0.2800 -0.4063
  234MOL0     C31507   2.837   9.686   8.635  0.9806 -0.1800 -0.1085
  234MOL0     C31508   2.733   9.636   8.708 -0.0611  0.4346 -0.7315
  234MOL0     C31509   2.320   9.667   8.900 -0.9251 -0.5356 -0.2082
  234MOL0     C31510   2.214   9.763   8.918  0.2073  0.2697 -0.9184
  234MOL0     C31511   2.099   9.712   8.988  0.7014  0.7068 -0.0757
  234MOL0     C31512   2.097   9.582   9.043  0.5789 -0.4486 -1.4859
  234MOL0     O31513   1.976   9.548   9.112 -0.4025 -0.4143  0.7773
  234MOL0     C31514   1.976   9.441   9.209 -0.2782 -0.3467 -0.2759
  234MOL0     C31515   1.847   9.460   9.305  0.5547 -0.5189 -0.5731
  234MOL0     C31516   1.843   9.595   9.383  0.6050 -0.1040  0.3627
  234MOL0     C31517   1.737   9.576   9.497  0.0269 -0.1218  0.2203
  234MOL0     C31518   1.591   9.531   9.470 -0.4998  0.3182 -0.0037
  234MOL0     C31519   1.492   9.474   9.445 -0.9907  0.8006  0.4958
  234MOL0     C31520   2.206   9.502   9.032 -0.4586 -0.1980  0.9870
  234MOL0     C31521   2.322   9.547   8.964 -0.5283  0.4710 -0.7185
  234MOL0     C31522   2.444   9.452   8.976  0.2656 -0.0187  0.1208
  234MOL0     H31523   2.478   9.736   8.507 -0.2839 -1.1162  0.1363
  234MOL0     H31524   2.675   9.840   8.375  2.4561 -0.0222 -1.0420
  234MOL0     H31525   2.885   9.797   8.278 -0.3019 -1.6234  2.6372
  234MOL0     H31526   2.852   9.940   8.354  0.6198 -0.7520  3.0626
  234MOL0     H31527   3.036   9.943   8.179 -2.6862 -2.2934 -0.5506
  234MOL0     H31528   3.127   9.839   8.278  0.4292  0.0660 -0.0204
  234MOL0     H31529   3.103  10.020   8.461 -0.4951  1.7807  0.1738
  234MOL0     H31530   3.062  10.129   8.335 -0.7019 -0.5864  0.7109
  234MOL0     H31531   3.322   9.972   8.354 -0.3097 -0.1812 -0.4201
  234MOL0     H31532   3.291  10.093   8.228 -3.0071 -0.4894 -0.9684
  234MOL0     H31533   3.307  10.161   8.515 -3.1555  2.1905 -0.7777
  234MOL0     H31534   3.443  10.162   8.393  0.1346 -2.3401 -1.2939
  234MOL0     H31535   3.329  10.339   8.267  2.0743  2.6409  0.8703
  234MOL0     H31536   3.184  10.317   8.365 -0.2857 -2.1957  1.7986
  234MOL0     H31537   3.461  10.435   8.430  0.9137 -0.8520  2.0942
  234MOL0     H31538   3.371  10.386   8.561  1.1360 -2.9747 -1.6599
  234MOL0     H31539   3.174  10.541   8.486 -0.1001 -0.0741  1.3793
  234MOL0     H31540   3.326  10.626   8.506 -0.2373 -1.6462  1.1302
  234MOL0     H31541   3.497  10.613   8.265  0.9974  1.2702 -1.7517
  234MOL0     H31542   3.528  10.681   7.997  0.2890  2.0841 -4.5480
  234MOL0     H31543   3.431  10.551   7.935 -4.0986 -1.2217  2.5962
  234MOL0     H31544   3.416  10.742   7.790 -0.7251  0.3423 -0.3203
  234MOL0     H31545   3.264  10.767   7.872 -0.4836 -0.3493  1.4461
  234MOL0     H31546   3.334  10.935   8.017  0.8176  0.4243  1.2855
  234MOL0     H31547   3.367  10.980   7.852 -0.4017 -1.8302 -1.5206
  234MOL0     H31548   3.608  10.871   7.889  1.1529 -0.0043  1.5516
  234MOL0     H31549   3.562  10.885   8.060  1.0606  0.9885 -0.5092
  234MOL0     H31550   3.790  11.016   7.788  2.3426 -1.4786 -0.9100
  234MOL0     H31551   4.014  11.053   7.844 -1.4156 -0.4862 -0.2571
  234MOL0     H31552   4.390  11.356   7.901 -0.2683 -0.4073  1.0929
  234MOL0     H31553   4.615  11.368   7.925 -0.9579 -0.1244 -1.3880
  234MOL0     H31554   4.816  11.062   8.169 -1.7684  0.0122  0.4965
  234MOL0     H31555   4.817  10.969   8.027  1.8646 -1.2142  1.5846
  234MOL0     H31556   5.026  11.097   7.936 -3.6958 -0.2498 -1.0271
  234MOL0     H31557   5.021  11.186   8.094 -3.1252  0.3449  0.7981
  234MOL0     H31558   5.050  11.005   8.215 -4.9233  0.9095 -0.0838
  234MOL0     H31559   4.998  10.883   8.097  0.2364 -0.0263  2.0056
  234MOL0     H31560   5.258  11.020   8.121  0.0824 -1.6545  2.3460
  234MOL0     H31561   5.228  10.949   7.965  2.8613  0.6675  0.2078
  234MOL0     H31562   5.183  10.721   8.089  0.1356 -0.0020 -0.5572
  234MOL0     H31563   5.242  10.821   8.238 -0.6765  0.8073  0.1686
  234MOL0     H31564   5.414  10.752   8.004  0.7224 -2.3175 -0.4520
  234MOL0     H31565   5.448  10.859   8.138  0.5545 -0.5854 -0.4731
  234MOL0     H31566   5.375  10.565   8.173 -1.2975  0.2749  0.4281
  234MOL0     H31567   5.441  10.680   8.291  2.0120 -1.0940 -0.2462
  234MOL0     H31568   5.627  10.537   8.176  1.9316  0.5241  2.6075
  234MOL0     H31569   5.602  10.633   8.028 -2.5615 -0.8267 -0.6644
  234MOL0     H31570   4.608  10.968   8.085  0.4783 -0.7233 -2.6367
  234MOL0     H31571   4.361  10.968   8.084 -0.7990 -0.5435 -0.8241
  234MOL0     H31572   3.902  11.243   8.212  2.7574 -2.2106  0.5696
  234MOL0     H31573   3.676  11.203   8.171  3.1018  0.0572  3.6091
  234MOL0     H31574   2.940   9.665   8.662  1.7368  2.5105 -0.5395
  234MOL0     H31575   2.740   9.582   8.801  0.8045  1.5531 -0.1272
  234MOL0     H31576   2.225   9.868   8.894  0.0656  1.6512  3.8655
  234MOL0     H31577   2.019   9.784   9.002 -0.3050 -0.6312  1.4050
  234MOL0     H31578   2.063   9.444   9.275 -1.1618 -3.1271  1.1655
  234MOL0     H31579   1.988   9.340   9.168  0.8611 -1.3733  2.3766
  234MOL0     H31580   1.859   9.379   9.378  1.1649 -1.0125 -1.2093
  234MOL0     H31581   1.748   9.443   9.261 -1.2142  2.9035  1.6715
  234MOL0     H31582   1.821   9.681   9.320 -1.0509  2.1834  3.7268
  234MOL0     H31583   1.939   9.614   9.431  1.0668  0.8428 -0.8872
  234MOL0     H31584   1.786   9.504   9.562  3.3782  2.1707  0.4671
  234MOL0     H31585   1.731   9.673   9.547 -2.8529  0.0910 -0.3849
  234MOL0     H31586   1.404   9.413   9.438  1.1151 -2.6675  1.9214
  234MOL0     H31587   2.210   9.408   9.085 -0.7059 -0.4232  0.6079
  234MOL0     H31588   2.536   9.510   8.967  1.1763 -1.3638  0.5026
  234MOL0     H31589   2.448   9.414   9.078 -1.7269 -0.2883  0.1460
  234MOL0     H31590   2.428   9.369   8.907 -1.1753 -2.4159  3.0644
  235MOL0     O31591   1.609   7.021  10.875 -0.5049  0.0616  0.6039
  235MOL0     C31592   1.568   7.059  10.766  0.9679  0.1645 -0.4336
  235MOL0     O31593   1.632   7.074  10.643  0.4072  0.4940  0.1462
  235MOL0     C31594   1.766   7.052  10.649 -0.0903  0.5864  0.0659
  235MOL0     C31595   1.860   7.072  10.751  0.0153  0.0120 -0.0140
  235MOL0     C31596   1.992   7.015  10.737  0.1659  0.2113 -0.0758
  235MOL0     C31597   2.032   6.947  10.617  0.4463  0.5405 -0.6439
  235MOL0     O31598   2.157   6.921  10.602 -0.0677  0.1177 -0.2710
  235MOL0     C31599   2.230   6.844  10.704 -0.0927  0.7769 -0.0293
  235MOL0     C31600   2.350   6.782  10.655  0.7427 -0.4375 -0.8964
  235MOL0     C31601   2.413   6.675  10.745 -0.2082 -0.7786 -0.1673
  235MOL0     C31602   2.545   6.606  10.696 -0.5967 -0.7409 -0.3034
  235MOL0     C31603   2.595   6.524  10.810 -0.3525 -0.5713 -0.0610
  235MOL0     C31604   2.721   6.452  10.784 -0.3634  0.2953  0.9313
  235MOL0     C31605   2.783   6.367  10.895  0.3923  0.5749  0.4922
  235MOL0     C31606   2.829   6.458  11.012  0.2882  0.4347  0.2858
  235MOL0     N31607   2.915   6.563  10.958  0.1370 -0.4878 -0.0592
  235MOL0     C31608   3.034   6.553  10.894  0.6119 -0.6873  0.1463
  235MOL0     C31609   3.065   6.677  10.861 -0.4037  0.0830 -0.6057
  235MOL0     C31610   3.188   6.721  10.782 -0.0770 -0.1052  0.0461
  235MOL0     C31611   3.295   6.802  10.849 -0.3824 -0.9827 -1.2138
  235MOL0     C31612   3.348   6.729  10.974 -0.0921  0.8329  0.5638
  235MOL0     C31613   3.459   6.805  11.051  0.0128 -0.0163  1.2349
  235MOL0     O31614   3.560   6.813  10.949 -0.5913  0.6073  0.9607
  235MOL0     C31615   3.691   6.859  10.977 -0.6291 -0.0943  0.5862
  235MOL0     C31616   3.721   6.910  11.101 -0.3170 -0.1952 -0.4762
  235MOL0     C31617   3.848   6.968  11.113  0.1149  0.7675  0.0970
  235MOL0     C31618   3.945   6.974  11.008 -0.5804  0.7807 -0.5692
  235MOL0     C31619   4.071   7.028  11.039 -0.9412 -0.4543 -0.3126
  235MOL0     O31620   4.076   7.108  11.149  0.3579 -0.4071 -0.5515
  235MOL0     C31621   4.189   7.163  11.195  0.5800 -0.5216 -0.2687
  235MOL0     C31622   4.194   7.183  11.330 -0.1001 -0.0328  0.3504
  235MOL0     C31623   4.302   7.239  11.390  0.2013  0.0641  0.1682
  235MOL0     C31624   4.401   7.303  11.313 -0.2827  0.7300  0.4778
  235MOL0     O31625   4.513   7.370  11.362  0.7787 -0.5541  0.1886
  235MOL0     C31626   4.516   7.402  11.504  0.0996 -0.8284 -1.0252
  235MOL0     C31627   4.610   7.517  11.526 -0.5404  0.3900 -0.4305
  235MOL0     C31628   4.746   7.500  11.445  0.5252 -0.2351  0.2761
  235MOL0     C31629   4.835   7.621  11.456 -0.4939  0.2622  0.0349
  235MOL0     C31630   4.935   7.599  11.569 -0.5982 -0.0452  0.3126
  235MOL0     C31631   5.038   7.714  11.572  0.2995 -0.7821 -0.5683
  235MOL0     C31632   5.170   7.678  11.646  0.8636 -0.6392  1.0355
  235MOL0     C31633   5.270   7.786  11.616  0.1669  0.3660 -0.5925
  235MOL0    Cl31634   5.228   7.944  11.699 -0.0522  0.0354  0.0813
  235MOL0     C31635   4.393   7.293  11.174  0.3701 -0.4700 -0.4102
  235MOL0     C31636   4.287   7.227  11.119 -0.3001  0.3548  0.4198
  235MOL0     O31637   4.170   7.002  10.964  0.3409  0.3470  0.5152
  235MOL0     C31638   3.912   6.925  10.880 -0.4609 -0.2766 -0.9036
  235MOL0     C31639   3.783   6.860  10.870 -0.3768  0.0409  0.2030
  235MOL0     N31640   2.959   6.764  10.887 -0.8099 -0.2998 -0.2187
  235MOL0     N31641   2.876   6.697  10.959 -0.0330  0.1169 -0.3397
  235MOL0     C31642   1.939   6.943  10.512 -0.3680  0.7015  0.5025
  235MOL0     C31643   1.810   6.988  10.527 -0.0653 -0.4277 -0.7713
  235MOL0     C31644   1.424   7.067  10.742  0.6366 -0.3231 -1.0242
  235MOL0     C31645   1.363   7.001  10.635  0.3549 -0.4007  0.5340
  235MOL0     C31646   1.221   6.999  10.609 -0.2077 -0.0393  0.6613
  235MOL0     C31647   1.143   7.068  10.703  0.2545  1.2319 -0.3028
  235MOL0     O31648   1.006   7.070  10.685  0.7477  0.5282  0.3988
  235MOL0     C31649   0.949   7.196  10.724  1.0681 -0.2865  0.2833
  235MOL0     C31650   0.817   7.223  10.646  0.7722  0.0663 -0.4253
  235MOL0     C31651   0.713   7.108  10.656  0.1435 -1.3015 -0.4779
  235MOL0     C31652   0.650   7.089  10.793 -0.2938 -0.3213 -0.5045
  235MOL0     C31653   0.554   7.192  10.834  0.3032 -0.2892 -0.4575
  235MOL0     C31654   0.469   7.258  10.893  0.3042 -0.0115  0.6544
  235MOL0     C31655   1.200   7.132  10.815 -0.1175 -0.0562  0.6323
  235MOL0     C31656   1.340   7.136  10.832  0.5197  0.5217  0.3604
  235MOL0     C31657   1.393   7.188  10.963 -0.2556 -0.5172  0.3835
  235MOL0     H31658   1.840   7.141  10.831  1.7414  0.9478 -0.3384
  235MOL0     H31659   2.068   7.029  10.812  0.3540 -4.2675  0.8841
  235MOL0     H31660   2.257   6.905  10.790 -0.4073 -1.3439  1.6406
  235MOL0     H31661   2.168   6.757  10.727  0.2480 -0.8816 -4.3884
  235MOL0     H31662   2.430   6.847  10.619  1.2300 -1.2216 -1.2609
  235MOL0     H31663   2.325   6.726  10.564 -1.7594 -0.7460 -0.1166
  235MOL0     H31664   2.333   6.603  10.760 -0.8307 -0.4198 -1.5801
  235MOL0     H31665   2.422   6.718  10.845  1.4115 -2.5729  0.5179
  235MOL0     H31666   2.530   6.533  10.616 -0.5448 -1.8187  0.6404
  235MOL0     H31667   2.614   6.685  10.665 -2.0005  1.5414  1.9611
  235MOL0     H31668   2.606   6.598  10.890 -0.3021  1.2624 -1.6920
  235MOL0     H31669   2.513   6.457  10.835 -0.4701  0.1019  1.5062
  235MOL0     H31670   2.700   6.389  10.697 -1.2136  1.6783  0.0886
  235MOL0     H31671   2.794   6.523  10.743 -0.2832 -0.5436 -0.4618
  235MOL0     H31672   2.861   6.301  10.859 -1.4303 -3.2125  2.8401
  235MOL0     H31673   2.701   6.309  10.938  1.8060 -0.5869  1.7239
  235MOL0     H31674   2.741   6.502  11.060  1.5608  0.8195  2.3659
  235MOL0     H31675   2.875   6.403  11.094  0.5818  0.5734  0.2153
  235MOL0     H31676   3.103   6.472  10.875  3.4745  1.9626 -1.7085
  235MOL0     H31677   3.230   6.630  10.739  1.1612  0.6192 -0.3466
  235MOL0     H31678   3.165   6.782  10.694  2.8130 -2.3303 -2.4639
  235MOL0     H31679   3.383   6.826  10.790 -0.5124  0.8885 -0.7360
  235MOL0     H31680   3.246   6.896  10.879 -0.2732 -1.4195  0.4129
  235MOL0     H31681   3.385   6.629  10.950  0.9165  1.6864 -1.7863
  235MOL0     H31682   3.266   6.717  11.045 -0.0420 -5.3470  0.1088
  235MOL0     H31683   3.492   6.737  11.130  0.2189 -2.2693 -0.6818
  235MOL0     H31684   3.426   6.895  11.103  0.0466  0.2014  0.8843
  235MOL0     H31685   3.657   6.907  11.189  1.1592 -0.4785  0.6432
  235MOL0     H31686   3.873   7.007  11.211  2.5407 -0.2379 -0.0630
  235MOL0     H31687   4.111   7.143  11.387  0.3483  2.2729  2.8574
  235MOL0     H31688   4.297   7.245  11.498  0.1197 -2.0491  0.3201
  235MOL0     H31689   4.416   7.440  11.529 -1.3263 -3.7698 -1.7961
  235MOL0     H31690   4.548   7.317  11.564  1.7147 -0.2458 -1.0125
  235MOL0     H31691   4.561   7.611  11.499 -0.6822  0.1392 -1.0612
  235MOL0     H31692   4.636   7.522  11.632  1.6583 -1.1371 -0.8226
  235MOL0     H31693   4.780   7.405  11.489 -1.5703 -0.5931  1.2513
  235MOL0     H31694   4.730   7.488  11.338 -2.6942 -2.6611  0.8756
  235MOL0     H31695   4.778   7.711  11.481 -3.4611 -1.2770 -0.7000
  235MOL0     H31696   4.875   7.643  11.357 -1.1480 -0.9982 -0.5334
  235MOL0     H31697   4.982   7.502  11.553 -0.6770 -0.4008  2.0118
  235MOL0     H31698   4.874   7.590  11.660  0.3370  2.6364  1.3139
  235MOL0     H31699   5.065   7.749  11.472  1.6934 -0.3752 -0.0688
  235MOL0     H31700   5.000   7.796  11.633  1.7692 -0.7225  0.3159
  235MOL0     H31701   5.209   7.588  11.599  0.2406  0.5111 -1.9403
  235MOL0     H31702   5.145   7.658  11.750  0.6086 -0.3477  1.0325
  235MOL0     H31703   5.372   7.758  11.644 -0.8980 -1.2372  2.0525
  235MOL0     H31704   5.262   7.802  11.508 -1.7227  1.7108 -0.3128
  235MOL0     H31705   4.470   7.326  11.106 -1.0285  0.4608 -1.5922
  235MOL0     H31706   4.282   7.228  11.011  1.9111  0.8564  0.2768
  235MOL0     H31707   3.988   6.937  10.803  2.5445 -1.0508  1.7052
  235MOL0     H31708   3.761   6.817  10.772  1.5506 -0.0975 -0.2045
  235MOL0     H31709   1.965   6.909  10.412 -2.5572 -2.2069  0.7926
  235MOL0     H31710   1.732   6.985  10.452 -0.5592  0.4697 -0.3218
  235MOL0     H31711   1.420   6.930  10.577 -1.3735 -1.1635 -0.3041
  235MOL0     H31712   1.198   6.944  10.518  1.0469 -2.0046  1.4843
  235MOL0     H31713   1.012   7.283  10.706 -1.4953  1.4978 -0.7612
  235MOL0     H31714   0.916   7.194  10.828 -2.2288  0.9910 -0.5848
  235MOL0     H31715   0.849   7.228  10.542  0.4039 -0.7735 -0.5902
  235MOL0     H31716   0.766   7.318  10.665  1.0322  0.1041  0.0927
  235MOL0     H31717   0.769   7.016  10.637 -0.4234 -2.3590  2.3752
  235MOL0     H31718   0.640   7.125  10.576 -2.0831 -1.0475  1.4920
  235MOL0     H31719   0.606   6.989  10.793 -2.0196  0.3245 -3.5462
  235MOL0     H31720   0.733   7.082  10.864 -1.1482  1.0268  0.6751
  235MOL0     H31721   0.401   7.318  10.950 -3.2238 -3.0972  0.0561
  235MOL0     H31722   1.132   7.176  10.888 -2.6007  0.7141 -1.9525
  235MOL0     H31723   1.393   7.113  11.043  0.5599 -1.8543 -0.8407
  235MOL0     H31724   1.496   7.222  10.951 -0.5675  1.3500  2.2876
  235MOL0     H31725   1.333   7.271  11.003 -0.6704 -0.6219 -0.0086
  236MOL0     O31726   4.818   5.192   7.692 -0.5471 -0.2360  0.3981
  236MOL0     C31727   4.826   5.107   7.781 -0.4228  0.7344 -0.7838
  236MOL0     O31728   4.924   5.107   7.876  0.5673 -0.5811 -0.4205
  236MOL0     C31729   5.029   5.193   7.850 -0.1309 -0.2797  0.1501
  236MOL0     C31730   5.083   5.202   7.728 -0.4891  0.1713  0.0365
  236MOL0     C31731   5.197   5.269   7.708 -0.6392 -1.0237  0.1481
  236MOL0     C31732   5.261   5.344   7.817  0.3892  0.8061 -0.7110
  236MOL0     O31733   5.356   5.430   7.793 -0.2976 -1.2706  0.0218
  236MOL0     C31734   5.443   5.392   7.686  0.0447  0.6453 -0.5577
  236MOL0     C31735   5.586   5.445   7.704  0.9208 -0.0694 -0.0737
  236MOL0     C31736   5.672   5.419   7.584 -0.3971  0.1880 -0.6196
  236MOL0     C31737   5.819   5.479   7.593  0.6899  0.6620  0.1587
  236MOL0     C31738   5.892   5.456   7.461  0.0879 -0.0107  0.7047
  236MOL0     C31739   6.041   5.493   7.489 -0.1787 -0.2708 -0.1586
  236MOL0     C31740   6.125   5.518   7.367  0.4704 -0.8654  0.0785
  236MOL0     C31741   6.145   5.396   7.265  0.2615 -0.3993 -0.7740
  236MOL0     N31742   6.247   5.315   7.318 -0.0856  0.8457 -0.7500
  236MOL0     C31743   6.380   5.321   7.279 -0.3803  0.9615 -0.3452
  236MOL0     C31744   6.439   5.213   7.346 -0.8017  0.0786  0.3505
  236MOL0     C31745   6.587   5.191   7.353 -0.5582  0.5122 -0.1218
  236MOL0     C31746   6.610   5.042   7.335 -0.8437 -0.0212  0.6492
  236MOL0     C31747   6.760   5.010   7.318  1.0808 -0.2259 -0.0602
  236MOL0     C31748   6.773   4.864   7.271  0.1111 -0.6246 -0.1895
  236MOL0     O31749   6.893   4.813   7.334 -0.6790  0.0617  0.2877
  236MOL0     C31750   7.015   4.838   7.292 -1.0316  0.2690 -0.4297
  236MOL0     C31751   7.047   4.921   7.173 -0.5347  0.0088 -0.6007
  236MOL0     C31752   7.180   4.951   7.145  0.7918 -0.0100 -0.0785
  236MOL0     C31753   7.280   4.918   7.226 -0.6854  0.0039  0.3765
  236MOL0     C31754   7.421   4.958   7.191  0.4698  0.1301  0.4805
  236MOL0     O31755   7.443   5.011   7.068  0.9767 -0.1388 -0.2360
  236MOL0     C31756   7.568   5.063   7.030  0.7136  0.3294 -1.0641
  236MOL0     C31757   7.660   4.972   6.975  0.4662 -1.1065 -0.1162
  236MOL0     C31758   7.784   5.014   6.931  0.3297 -0.2626 -0.7392
  236MOL0     C31759   7.813   5.145   6.909 -0.0299 -0.3550 -0.5011
  236MOL0     O31760   7.927   5.183   6.843  0.9223 -0.0542 -0.1166
  236MOL0     C31761   7.969   5.318   6.846 -0.1796 -1.2318 -0.2968
  236MOL0     C31762   8.113   5.340   6.791  0.6273  0.8740 -0.6032
  236MOL0     C31763   8.222   5.289   6.888  0.0664 -0.5385 -0.7205
  236MOL0     C31764   8.296   5.413   6.944 -0.1491  0.7201  0.4545
  236MOL0     C31765   8.376   5.400   7.069  0.2443 -0.1489 -0.5106
  236MOL0     C31766   8.283   5.403   7.188 -0.3975 -0.3567 -0.3257
  236MOL0     C31767   8.354   5.377   7.320 -0.0934  0.2981 -0.4009
  236MOL0     C31768   8.344   5.231   7.363  0.0719 -0.7048 -0.0311
  236MOL0    Cl31769   8.338   5.221   7.542  0.2256  0.4307  0.0740
  236MOL0     C31770   7.723   5.236   6.965  0.7880 -0.0499  0.5737
  236MOL0     C31771   7.606   5.197   7.034  0.1530  0.0011  0.4870
  236MOL0     O31772   7.516   4.935   7.268  0.3519  0.9261  0.0060
  236MOL0     C31773   7.258   4.827   7.328  0.0648 -0.2082  0.7344
  236MOL0     C31774   7.126   4.793   7.361  0.2267  0.4146 -0.0992
  236MOL0     N31775   6.342   5.159   7.428 -0.2351 -0.1633 -0.0362
  236MOL0     N31776   6.223   5.203   7.397 -0.8043  0.0241  0.0655
  236MOL0     C31777   5.211   5.328   7.946 -0.9158 -0.2482  1.1129
  236MOL0     C31778   5.101   5.247   7.961 -0.1932 -0.2052  0.4924
  236MOL0     C31779   4.724   4.999   7.798  0.2100  0.4187  0.1168
  236MOL0     C31780   4.655   4.979   7.920 -0.9292  0.1798 -0.1058
  236MOL0     C31781   4.548   4.886   7.939  0.9618 -0.5194 -0.1396
  236MOL0     C31782   4.504   4.816   7.834  0.3343 -0.1386  0.3121
  236MOL0     O31783   4.408   4.717   7.869 -0.5831 -0.4230 -0.2047
  236MOL0     C31784   4.367   4.635   7.763  0.2064  0.7035 -0.1344
  236MOL0     C31785   4.245   4.555   7.798 -0.2033  0.3773  0.1318
  236MOL0     C31786   4.275   4.472   7.919  0.4903  0.2787  0.2181
  236MOL0     C31787   4.161   4.455   8.016  0.0354  0.4557  0.5029
  236MOL0     C31788   4.061   4.365   7.956 -0.3610  1.2268 -0.5777
  236MOL0     C31789   3.994   4.272   7.909 -0.2278 -1.0242 -0.4282
  236MOL0     C31790   4.579   4.824   7.713  0.4086  0.2952  0.3699
  236MOL0     C31791   4.675   4.925   7.689 -0.3862  0.5565  0.6743
  236MOL0     C31792   4.721   4.952   7.546  0.4388 -0.1554  0.8757
  236MOL0     H31793   5.040   5.161   7.637 -0.2921  0.6391 -0.2749
  236MOL0     H31794   5.236   5.272   7.607  0.1876 -2.6773  0.3812
  236MOL0     H31795   5.441   5.285   7.665 -0.8621  0.0781  2.1236
  236MOL0     H31796   5.413   5.437   7.591  0.0004 -0.7411 -1.2188
  236MOL0     H31797   5.638   5.409   7.794 -1.3007  3.4394  2.9339
  236MOL0     H31798   5.587   5.551   7.730  0.2639  0.4548 -2.0255
  236MOL0     H31799   5.632   5.469   7.495 -1.3384 -0.9667 -0.8622
  236MOL0     H31800   5.674   5.313   7.560 -2.4699 -0.3523  1.2637
  236MOL0     H31801   5.819   5.585   7.621  1.1615  0.5654  0.5285
  236MOL0     H31802   5.876   5.435   7.675  1.5828  3.0867  0.9311
  236MOL0     H31803   5.884   5.350   7.435  1.6984  0.0497 -0.1515
  236MOL0     H31804   5.842   5.510   7.380 -0.2823  1.0093  1.5693
  236MOL0     H31805   6.052   5.577   7.559  0.0502 -0.6732  0.3016
  236MOL0     H31806   6.088   5.412   7.546  1.1852  0.5796 -0.0294
  236MOL0     H31807   6.221   5.565   7.392  1.4225 -0.9980 -2.8792
  236MOL0     H31808   6.070   5.586   7.302 -1.8091 -2.6781 -0.0017
  236MOL0     H31809   6.049   5.346   7.251 -0.6634  0.6408  1.3946
  236MOL0     H31810   6.180   5.430   7.166 -1.6783  1.2360 -0.9710
  236MOL0     H31811   6.417   5.402   7.218 -4.2320  2.7565 -0.6110
  236MOL0     H31812   6.632   5.259   7.280 -2.2719  2.1016  0.2174
  236MOL0     H31813   6.619   5.213   7.455  0.0679 -0.0252 -0.2022
  236MOL0     H31814   6.564   4.992   7.421 -1.4183 -0.9590 -0.1776
  236MOL0     H31815   6.549   5.018   7.247  2.0874 -1.7233 -1.0726
  236MOL0     H31816   6.806   5.015   7.417 -4.1818 -2.9080  2.9863
  236MOL0     H31817   6.808   5.085   7.255  2.4538  1.6850  3.0293
  236MOL0     H31818   6.767   4.846   7.163 -2.5506 -2.8027  0.2344
  236MOL0     H31819   6.692   4.808   7.317  1.9348 -2.1573  1.3348
  236MOL0     H31820   6.977   4.964   7.103 -1.4650  2.0486  1.4550
  236MOL0     H31821   7.197   5.021   7.064 -0.3450 -0.5697 -0.8291
  236MOL0     H31822   7.620   4.874   6.954  0.9689 -1.0816 -1.2259
  236MOL0     H31823   7.857   4.946   6.889  1.2844 -0.6367  1.4084
  236MOL0     H31824   7.914   5.382   6.777 -0.9145 -2.1080 -0.5464
  236MOL0     H31825   7.957   5.363   6.945 -0.9322 -0.3328 -0.7861
  236MOL0     H31826   8.126   5.277   6.702  0.7457 -1.3528  0.9237
  236MOL0     H31827   8.119   5.443   6.753 -1.9456  1.3842  0.1415
  236MOL0     H31828   8.175   5.232   6.968 -0.7783 -1.3921 -1.8018
  236MOL0     H31829   8.296   5.224   6.840  1.3225  0.5975 -0.3910
  236MOL0     H31830   8.228   5.498   6.957 -2.0338 -0.6163 -0.1416
  236MOL0     H31831   8.357   5.440   6.857 -0.1617  0.2162  0.2845
  236MOL0     H31832   8.442   5.487   7.069  0.6499 -0.4241  1.5975
  236MOL0     H31833   8.431   5.305   7.070 -0.6395 -0.6951  1.6114
  236MOL0     H31834   8.249   5.507   7.194 -0.7831 -0.4927 -0.1612
  236MOL0     H31835   8.192   5.343   7.184 -2.6783  2.4995  2.6520
  236MOL0     H31836   8.318   5.442   7.400  3.4980  1.7208  0.2596
  236MOL0     H31837   8.463   5.381   7.318  0.2666 -4.1542  0.6243
  236MOL0     H31838   8.255   5.179   7.328 -0.6372  1.6063 -1.9814
  236MOL0     H31839   8.433   5.177   7.329  0.7959 -0.1904  0.9640
  236MOL0     H31840   7.746   5.341   6.949  3.6261 -0.4827  1.2782
  236MOL0     H31841   7.530   5.266   7.070 -0.8731 -0.4596 -0.6928
  236MOL0     H31842   7.334   4.799   7.401  0.0932  1.2486  1.2931
  236MOL0     H31843   7.112   4.727   7.446  2.8615 -1.6023 -1.0660
  236MOL0     H31844   5.263   5.381   8.025  0.3028 -0.9102  0.7783
  236MOL0     H31845   5.062   5.223   8.059 -3.3178  3.7907  0.4790
  236MOL0     H31846   4.683   5.042   8.004 -3.6666  1.0998  0.2159
  236MOL0     H31847   4.513   4.856   8.038  3.2995  3.2542  2.0925
  236MOL0     H31848   4.446   4.563   7.739  1.1122  1.3536  0.8346
  236MOL0     H31849   4.351   4.697   7.674  2.8583  2.0630  0.2172
  236MOL0     H31850   4.222   4.493   7.710  2.3071 -1.6182  0.7671
  236MOL0     H31851   4.164   4.620   7.832 -1.9453 -1.9935  0.8118
  236MOL0     H31852   4.368   4.502   7.968  1.7505 -0.1600 -1.7497
  236MOL0     H31853   4.291   4.372   7.875  3.6248  0.9169 -0.3687
  236MOL0     H31854   4.193   4.411   8.111 -2.7298 -2.2863  0.3213
  236MOL0     H31855   4.122   4.554   8.041 -1.5535 -0.1141  0.4218
  236MOL0     H31856   3.941   4.187   7.871  2.0081 -1.9986 -1.5912
  236MOL0     H31857   4.548   4.773   7.623 -1.4298 -0.5150  1.3976
  236MOL0     H31858   4.683   5.051   7.517  1.5522  0.7389  2.3597
  236MOL0     H31859   4.826   4.934   7.520 -0.3990 -1.0726 -2.3719
  236MOL0     H31860   4.685   4.876   7.476 -3.9608  1.8742  0.5949
  237MOL0     O31861   2.888   1.519   6.311 -0.7499 -0.1473 -1.0144
  237MOL0     C31862   2.825   1.596   6.243 -0.0258 -0.6187 -0.1684
  237MOL0     O31863   2.878   1.700   6.168  0.0526  0.0812 -0.5557
  237MOL0     C31864   3.017   1.715   6.173  0.5889 -0.6036 -0.4562
  237MOL0     C31865   3.097   1.733   6.288  0.3696  0.0104  0.8383
  237MOL0     C31866   3.236   1.752   6.276  1.0005 -0.2435  0.7618
  237MOL0     C31867   3.306   1.741   6.156  0.2009 -0.5264 -0.1300
  237MOL0     O31868   3.443   1.775   6.157 -0.2232  0.1397  0.2980
  237MOL0     C31869   3.541   1.728   6.052 -0.5035 -0.2688  0.1364
  237MOL0     C31870   3.683   1.738   6.110 -0.1752  0.6086 -0.6678
  237MOL0     C31871   3.720   1.877   6.157 -0.0180 -0.1610 -0.4606
  237MOL0     C31872   3.829   1.866   6.272  0.8298  0.8891  0.8706
  237MOL0     C31873   3.848   2.004   6.326 -0.7203  0.4259 -0.1919
  237MOL0     C31874   3.954   2.077   6.242 -0.4112 -0.1813 -0.0863
  237MOL0     C31875   4.016   2.204   6.308 -0.1272  0.1118 -0.4348
  237MOL0     C31876   3.919   2.320   6.313  0.3310  0.2237 -0.1107
  237MOL0     N31877   3.994   2.441   6.365  0.0988 -0.0778 -0.4249
  237MOL0     C31878   4.102   2.506   6.309 -0.0082  0.4445 -0.8062
  237MOL0     C31879   4.142   2.598   6.397 -0.6574  0.0063 -0.3970
  237MOL0     C31880   4.256   2.691   6.389 -0.3052  0.1843 -0.9144
  237MOL0     C31881   4.272   2.747   6.248 -0.3604  0.2763  0.2992
  237MOL0     C31882   4.405   2.816   6.219  0.2177 -0.4191 -0.1090
  237MOL0     C31883   4.405   2.865   6.067  0.3976  0.2845  0.7848
  237MOL0     O31884   4.374   3.010   6.051  0.3371  0.7886 -1.0174
  237MOL0     C31885   4.478   3.098   6.031  0.6122  0.0693 -0.5770
  237MOL0     C31886   4.604   3.073   6.073 -0.3312  0.2381  0.4243
  237MOL0     C31887   4.714   3.165   6.046  0.2531 -0.2393  0.6521
  237MOL0     C31888   4.689   3.285   5.984  0.1341 -0.1128  0.0543
  237MOL0     C31889   4.802   3.373   5.971  0.0233  0.4053 -0.1123
  237MOL0     O31890   4.930   3.327   5.999  0.2307  0.4840  0.2390
  237MOL0     C31891   5.031   3.414   6.026  0.9566  0.2085 -0.2500
  237MOL0     C31892   5.005   3.517   6.118  0.2369 -0.7376  0.1290
  237MOL0     C31893   5.110   3.597   6.158 -0.1672  0.0261  0.1761
  237MOL0     C31894   5.242   3.587   6.106 -0.5993 -0.1696  0.0428
  237MOL0     O31895   5.334   3.676   6.152 -0.3684 -0.3916 -0.2747
  237MOL0     C31896   5.472   3.648   6.124 -0.2138 -0.3194 -0.7199
  237MOL0     C31897   5.561   3.754   6.187  0.3595  0.2468  0.0928
  237MOL0     C31898   5.705   3.745   6.161  0.3917 -0.6720  0.5140
  237MOL0     C31899   5.741   3.787   6.022  0.3720 -0.0979  0.8256
  237MOL0     C31900   5.898   3.793   6.000 -0.2625  0.0214 -0.5215
  237MOL0     C31901   5.936   3.751   5.853  0.3514  1.5080 -0.1903
  237MOL0     C31902   6.095   3.761   5.848  0.8374 -0.0111 -0.1415
  237MOL0     C31903   6.146   3.750   5.697  0.6652 -0.4151 -0.0006
  237MOL0    Cl31904   6.306   3.677   5.685 -0.2823 -0.4316 -0.3450
  237MOL0     C31905   5.260   3.492   6.004 -0.3650  0.2003 -0.7028
  237MOL0     C31906   5.156   3.397   5.971 -0.8018  0.3253 -0.1357
  237MOL0     O31907   4.776   3.487   5.938 -0.0808 -0.5029 -0.3295
  237MOL0     C31908   4.556   3.304   5.940  0.5992  0.9000 -0.8220
  237MOL0     C31909   4.455   3.212   5.961 -0.2991 -0.2269  0.1965
  237MOL0     N31910   4.066   2.584   6.514  0.1799  0.5558 -0.1135
  237MOL0     N31911   3.980   2.494   6.493  0.7558  0.5728 -0.2498
  237MOL0     C31912   3.228   1.718   6.040  0.1288  0.0905  0.1807
  237MOL0     C31913   3.086   1.707   6.045 -0.2991  0.0624 -0.7292
  237MOL0     C31914   2.693   1.562   6.199  0.3494  0.0561 -0.1681
  237MOL0     C31915   2.579   1.630   6.255 -0.3081 -0.3531  0.4430
  237MOL0     C31916   2.451   1.588   6.210  0.2214  0.3445 -0.5440
  237MOL0     C31917   2.427   1.479   6.125 -0.2689  0.1870  0.0811
  237MOL0     O31918   2.289   1.434   6.107  0.7610  0.4235 -0.6584
  237MOL0     C31919   2.279   1.305   6.038 -0.6509 -0.0708 -0.5889
  237MOL0     C31920   2.124   1.276   6.002 -0.6179 -0.1924 -0.1958
  237MOL0     C31921   2.110   1.134   5.957 -0.8831  0.6365  0.4127
  237MOL0     C31922   1.966   1.097   5.919  0.0426  1.2537  0.0025
  237MOL0     C31923   1.896   1.188   5.827  0.9459  0.1604 -0.4907
  237MOL0     C31924   1.835   1.239   5.740  0.4721 -0.3389  0.4834
  237MOL0     C31925   2.543   1.419   6.069 -0.4579 -0.1062 -0.3286
  237MOL0     C31926   2.669   1.458   6.108  0.0567 -0.4464  0.1465
  237MOL0     C31927   2.779   1.375   6.063  0.5105 -0.0765  0.3156
  237MOL0     H31928   3.060   1.750   6.389 -2.5380 -0.3077 -0.0870
  237MOL0     H31929   3.299   1.759   6.364  2.3116 -0.6010 -0.1140
  237MOL0     H31930   3.530   1.621   6.033  3.3693 -0.5489 -1.4902
  237MOL0     H31931   3.534   1.794   5.965  2.6889 -1.7901 -1.4466
  237MOL0     H31932   3.761   1.692   6.049 -0.2555  2.1819 -2.0440
  237MOL0     H31933   3.667   1.682   6.202 -0.5293 -1.0806 -1.6996
  237MOL0     H31934   3.628   1.930   6.185 -0.3526 -0.0314 -1.7397
  237MOL0     H31935   3.764   1.938   6.078  0.0837 -0.6192 -0.7578
  237MOL0     H31936   3.790   1.797   6.346  0.7000  0.5443  0.4811
  237MOL0     H31937   3.924   1.823   6.237 -0.6180 -2.7026  0.9958
  237MOL0     H31938   3.754   2.059   6.328  0.8593  3.3112 -0.0530
  237MOL0     H31939   3.880   1.996   6.430  0.3562 -0.4778 -0.5686
  237MOL0     H31940   4.042   2.013   6.226 -2.2914 -2.6518 -1.1294
  237MOL0     H31941   3.918   2.108   6.144  0.3153 -0.2048 -0.3694
  237MOL0     H31942   4.104   2.229   6.249  0.6677 -0.6110  0.4135
  237MOL0     H31943   4.048   2.180   6.410 -0.3177  3.4457  0.5295
  237MOL0     H31944   3.894   2.339   6.208  1.9805 -0.9638 -0.7501
  237MOL0     H31945   3.822   2.295   6.357  0.1103 -2.9886 -2.1207
  237MOL0     H31946   4.130   2.483   6.206  0.3841 -0.1117 -0.5806
  237MOL0     H31947   4.250   2.772   6.463  2.3478 -0.5692  0.2452
  237MOL0     H31948   4.344   2.636   6.423  0.0240  1.6507  0.7737
  237MOL0     H31949   4.264   2.658   6.185 -0.7343  2.2082 -2.5412
  237MOL0     H31950   4.184   2.811   6.233  0.0143  0.8993  0.6871
  237MOL0     H31951   4.473   2.731   6.231  0.1330 -0.2493  2.1183
  237MOL0     H31952   4.428   2.898   6.288  1.4479 -0.2048 -0.7622
  237MOL0     H31953   4.327   2.810   6.014  0.8929  0.4012 -0.0934
  237MOL0     H31954   4.497   2.841   6.012 -0.7188  0.4367 -1.2733
  237MOL0     H31955   4.619   2.983   6.133  1.9111 -0.4956 -1.1055
  237MOL0     H31956   4.813   3.141   6.083  0.0464  0.7743  1.9222
  237MOL0     H31957   4.915   3.528   6.176  0.0401  4.2450 -0.7130
  237MOL0     H31958   5.094   3.678   6.229  0.1543  0.1125  0.1484
  237MOL0     H31959   5.504   3.549   6.157 -2.3493 -0.2002  2.0414
  237MOL0     H31960   5.486   3.661   6.016 -0.0875  0.8258 -0.5815
  237MOL0     H31961   5.517   3.852   6.166  0.7194  0.5549  0.7400
  237MOL0     H31962   5.548   3.742   6.295  0.8923  0.0845  0.1397
  237MOL0     H31963   5.757   3.810   6.232 -0.3389  0.1458  0.3073
  237MOL0     H31964   5.740   3.643   6.182  1.0403 -1.0355 -1.9699
  237MOL0     H31965   5.702   3.888   6.005  0.1336 -0.0898  1.4140
  237MOL0     H31966   5.694   3.720   5.949  0.0974  1.2961 -0.3386
  237MOL0     H31967   5.945   3.737   6.081 -1.1405 -2.1723 -1.4455
  237MOL0     H31968   5.925   3.899   6.006 -0.4638  0.1331 -1.4073
  237MOL0     H31969   5.896   3.651   5.837 -2.0777  2.1058  1.6312
  237MOL0     H31970   5.894   3.815   5.775 -0.0193 -0.7089 -1.9077
  237MOL0     H31971   6.134   3.683   5.915 -5.3537 -2.7755  1.0361
  237MOL0     H31972   6.126   3.860   5.881 -1.5233  0.3608  1.2423
  237MOL0     H31973   6.075   3.692   5.637  1.3075  2.2965 -3.7825
  237MOL0     H31974   6.147   3.854   5.661  0.9759 -0.2964  0.3445
  237MOL0     H31975   5.359   3.478   5.963  2.2848  2.1806  4.2044
  237MOL0     H31976   5.176   3.312   5.907  1.1477 -0.2750  1.1916
  237MOL0     H31977   4.546   3.389   5.873  3.6024  0.8734 -1.4240
  237MOL0     H31978   4.349   3.222   5.946 -0.9542 -1.4469  3.1632
  237MOL0     H31979   3.275   1.716   5.942  0.0474  2.1214  0.0710
  237MOL0     H31980   3.024   1.676   5.961  0.4801 -2.3883 -0.4722
  237MOL0     H31981   2.590   1.700   6.337  0.3024  2.2460 -1.7266
  237MOL0     H31982   2.357   1.629   6.246 -0.2808 -0.1992 -1.2144
  237MOL0     H31983   2.324   1.229   6.103 -0.9755 -0.2217 -0.5405
  237MOL0     H31984   2.347   1.311   5.952 -0.0338 -0.8688 -0.1729
  237MOL0     H31985   2.095   1.350   5.927 -1.1524 -1.3426 -1.1559
  237MOL0     H31986   2.068   1.290   6.095 -0.7457  0.2666 -0.3413
  237MOL0     H31987   2.148   1.068   6.034 -2.5675 -1.7589 -0.6896
  237MOL0     H31988   2.177   1.129   5.870 -2.7310 -3.6431 -1.0159
  237MOL0     H31989   1.952   0.998   5.874 -2.4480  3.8269 -5.9894
  237MOL0     H31990   1.914   1.110   6.014  0.0787  0.6604  0.1027
  237MOL0     H31991   1.791   1.282   5.651 -0.3406  0.3870  1.2171
  237MOL0     H31992   2.534   1.329   6.010 -1.9854  0.3567 -0.8473
  237MOL0     H31993   2.815   1.425   5.973 -3.4046 -1.1581 -2.1109
  237MOL0     H31994   2.861   1.358   6.134  2.1532  3.2437 -0.6028
  237MOL0     H31995   2.751   1.282   6.014 -1.7388  0.1205  1.1042
  238MOL0     O31996   9.786   3.233   9.570  0.2714  0.5741  0.6662
  238MOL0     C31997   9.853   3.325   9.618  0.0872 -0.2262  0.6554
  238MOL0     O31998   9.995   3.326   9.613  0.6347 -0.1029 -0.4693
  238MOL0     C31999  10.067   3.249   9.526 -0.2587 -0.4380 -0.6989
  238MOL0     C32000  10.195   3.298   9.489 -0.5980  0.1055 -0.3550
  238MOL0     C32001  10.271   3.237   9.395  0.6572  0.8530  0.1359
  238MOL0     C32002  10.231   3.115   9.338 -0.0353  0.5378 -0.3672
  238MOL0     O32003  10.325   3.054   9.251  0.1994 -0.0815 -0.2049
  238MOL0     C32004  10.302   2.917   9.223 -0.1024 -0.4574 -0.5101
  238MOL0     C32005  10.343   2.822   9.332  0.7351  0.4791 -0.1619
  238MOL0     C32006  10.495   2.824   9.349 -0.1294 -0.4717 -0.3386
  238MOL0     C32007  10.565   2.698   9.294  0.0616  0.3079  0.0851
  238MOL0     C32008  10.711   2.714   9.324  0.5415  1.2055  0.0625
  238MOL0     C32009  10.784   2.590   9.271  0.2862 -0.6906 -0.0076
  238MOL0     C32010  10.930   2.592   9.318  0.4571  1.1053  0.5144
  238MOL0     C32011  11.012   2.520   9.210  0.0927  1.1482 -0.1745
  238MOL0     N32012  11.154   2.518   9.226  0.4203 -0.6380  0.5906
  238MOL0     C32013  11.238   2.610   9.173 -0.4721 -0.3510  0.1869
  238MOL0     C32014  11.359   2.568   9.194  0.2432 -0.1789 -0.3720
  238MOL0     C32015  11.484   2.633   9.144 -0.5681  0.5845  0.0506
  238MOL0     C32016  11.528   2.559   9.017  0.4020  0.3741  1.0468
  238MOL0     C32017  11.656   2.610   8.961 -0.5194  0.9980 -0.7417
  238MOL0     C32018  11.694   2.541   8.826  0.2204  0.2478 -0.7970
  238MOL0     O32019  11.823   2.596   8.788  0.6484  1.1270  0.5197
  238MOL0     C32020  11.906   2.526   8.710  0.6921 -0.3896  0.0088
  238MOL0     C32021  12.029   2.574   8.693 -0.0743 -0.1369 -0.2910
  238MOL0     C32022  12.131   2.514   8.607  0.0109 -0.2166 -1.2056
  238MOL0     C32023  12.085   2.403   8.528  0.5021  0.3378 -0.1010
  238MOL0     C32024  12.178   2.357   8.425 -0.4510 -0.5441 -0.3620
  238MOL0     O32025  12.308   2.405   8.446 -0.1454 -0.1688  0.1173
  238MOL0     C32026  12.405   2.395   8.351  0.5353  0.5392  0.7757
  238MOL0     C32027  12.409   2.298   8.248  0.4054 -0.1119  0.2675
  238MOL0     C32028  12.515   2.298   8.153 -0.1393 -0.1052 -0.0863
  238MOL0     C32029  12.608   2.396   8.154  0.9547 -0.1896 -0.0553
  238MOL0     O32030  12.716   2.395   8.065  0.1172  0.2329 -0.2399
  238MOL0     C32031  12.777   2.513   8.010  0.0459 -0.2669  0.9739
  238MOL0     C32032  12.678   2.576   7.917 -0.0139  0.2811 -0.1768
  238MOL0     C32033  12.620   2.481   7.806  0.2339 -0.5874  0.0081
  238MOL0     C32034  12.710   2.431   7.690 -0.7443  0.0253  0.5523
  238MOL0     C32035  12.631   2.338   7.592  0.3740 -0.4700 -0.2842
  238MOL0     C32036  12.650   2.186   7.612  0.7167  0.1253  0.4597
  238MOL0     C32037  12.594   2.141   7.750  0.1967 -0.5451 -0.0750
  238MOL0     C32038  12.592   1.989   7.759 -0.1895 -0.5549  0.1671
  238MOL0    Cl32039  12.548   1.957   7.927  0.2109 -0.4842 -0.0887
  238MOL0     C32040  12.609   2.496   8.256  0.8467  0.1517 -0.5703
  238MOL0     C32041  12.505   2.490   8.347 -0.3393  0.9647 -0.2493
  238MOL0     O32042  12.136   2.293   8.328 -0.3551 -0.3898 -0.0031
  238MOL0     C32043  11.955   2.353   8.543 -0.5711 -0.2164 -0.4544
  238MOL0     C32044  11.877   2.412   8.642  0.6101 -0.7551 -0.0267
  238MOL0     N32045  11.354   2.467   9.277 -1.1370  0.3686 -0.2967
  238MOL0     N32046  11.227   2.436   9.296 -0.6613  0.2046 -1.0530
  238MOL0     C32047  10.101   3.065   9.371 -0.0742  0.0059  0.8828
  238MOL0     C32048  10.029   3.127   9.470 -0.7545 -0.0383 -0.3199
  238MOL0     C32049   9.787   3.435   9.692 -0.6190 -0.3824 -0.5239
  238MOL0     C32050   9.656   3.485   9.651  0.2666 -0.3845  0.5338
  238MOL0     C32051   9.605   3.604   9.693  0.8154  0.4732  0.4752
  238MOL0     C32052   9.684   3.689   9.775  0.1882  0.1415 -0.2350
  238MOL0     O32053   9.642   3.808   9.818  0.7887 -0.5179  0.7752
  238MOL0     C32054   9.568   3.784   9.939 -0.2798  0.1211  0.0192
  238MOL0     C32055   9.520   3.915  10.008 -0.0276  1.0969 -1.0022
  238MOL0     C32056   9.400   3.984   9.941 -0.4357  0.3198  0.3965
  238MOL0     C32057   9.317   4.087  10.020  0.0950 -0.4578  0.1176
  238MOL0     C32058   9.231   4.010  10.110  0.0936 -0.9081  0.1885
  238MOL0     C32059   9.149   3.941  10.165 -0.4343  0.4082  0.7761
  238MOL0     C32060   9.803   3.632   9.826 -0.4311 -0.0693 -0.4205
  238MOL0     C32061   9.851   3.502   9.797 -0.6014 -0.4596 -0.4588
  238MOL0     C32062   9.982   3.467   9.862  1.1230  0.0155 -0.3106
  238MOL0     H32063  10.236   3.392   9.526  0.6098 -0.9657  1.1670
  238MOL0     H32064  10.370   3.274   9.369  2.4544 -2.3597  1.7440
  238MOL0     H32065  10.200   2.900   9.187 -0.2791  1.9737 -1.3166
  238MOL0     H32066  10.367   2.889   9.139  2.0595  1.6623  0.3570
  238MOL0     H32067  10.303   2.723   9.310 -0.9378  1.3901 -1.5170
  238MOL0     H32068  10.302   2.853   9.428  2.8803 -1.6411  1.5696
  238MOL0     H32069  10.515   2.838   9.455 -1.5209 -1.2871  0.0569
  238MOL0     H32070  10.542   2.906   9.294  1.2663 -0.1396  1.2753
  238MOL0     H32071  10.525   2.606   9.339  0.6494 -0.0276 -0.0754
  238MOL0     H32072  10.545   2.683   9.188  3.0603 -3.3804 -0.1770
  238MOL0     H32073  10.740   2.802   9.265 -0.2752 -0.5786 -3.2798
  238MOL0     H32074  10.737   2.727   9.430 -1.6218 -2.5597  1.2265
  238MOL0     H32075  10.727   2.503   9.306  0.6850 -1.3929 -1.0835
  238MOL0     H32076  10.770   2.602   9.164 -1.3377  0.2807  0.2698
  238MOL0     H32077  10.944   2.553   9.419 -2.2806 -1.6142 -0.0246
  238MOL0     H32078  10.967   2.695   9.314 -1.8204  1.9698 -2.6231
  238MOL0     H32079  10.984   2.414   9.206 -0.8518  1.2522  2.1102
  238MOL0     H32080  10.987   2.562   9.112  1.9965  1.3443 -0.6204
  238MOL0     H32081  11.214   2.689   9.102  0.2426 -2.2223 -2.2907
  238MOL0     H32082  11.464   2.738   9.124 -2.9680 -0.1734 -2.0446
  238MOL0     H32083  11.568   2.631   9.215 -0.2260  1.9521 -0.2891
  238MOL0     H32084  11.530   2.450   9.027 -3.5694 -0.2441 -2.2820
  238MOL0     H32085  11.449   2.576   8.943  0.6848 -0.2406  0.5936
  238MOL0     H32086  11.727   2.575   9.036 -0.8478  1.0322 -0.4137
  238MOL0     H32087  11.662   2.719   8.956 -0.1985  1.0188  0.0093
  238MOL0     H32088  11.615   2.556   8.751 -2.5636  0.9112  2.0456
  238MOL0     H32089  11.698   2.432   8.833 -2.1880  0.1507 -0.1383
  238MOL0     H32090  12.055   2.664   8.748  0.8011 -1.3139  1.3123
  238MOL0     H32091  12.230   2.558   8.596  0.1366 -0.4159 -0.8783
  238MOL0     H32092  12.339   2.215   8.242  2.8326 -2.2137 -1.4019
  238MOL0     H32093  12.519   2.231   8.067  2.2133 -0.4460  0.2340
  238MOL0     H32094  12.808   2.583   8.088 -1.1263  3.0016 -1.2941
  238MOL0     H32095  12.870   2.494   7.955  0.7859 -1.7573  2.6498
  238MOL0     H32096  12.597   2.611   7.981  0.0555  1.2883 -0.6166
  238MOL0     H32097  12.724   2.664   7.870  0.7309  0.3464  0.6578
  238MOL0     H32098  12.589   2.391   7.860  1.4848  0.0316  1.8769
  238MOL0     H32099  12.536   2.520   7.747  1.6938 -0.9731 -2.4988
  238MOL0     H32100  12.794   2.374   7.732  1.5793  1.4702 -1.7824
  238MOL0     H32101  12.749   2.520   7.641 -2.2846 -0.7015 -2.1898
  238MOL0     H32102  12.661   2.363   7.490  0.7489 -1.3950 -0.4137
  238MOL0     H32103  12.524   2.353   7.606  0.0398 -0.9366 -2.0668
  238MOL0     H32104  12.587   2.133   7.540  1.8207 -0.4813 -0.0758
  238MOL0     H32105  12.753   2.155   7.594  0.4808 -1.4087  1.4991
  238MOL0     H32106  12.492   2.176   7.765  0.2971 -0.9201  1.6922
  238MOL0     H32107  12.651   2.176   7.836 -0.6650  1.2031 -0.1722
  238MOL0     H32108  12.528   1.949   7.680  1.7822  0.1058 -1.8626
  238MOL0     H32109  12.692   1.945   7.747  0.4663  1.3421 -2.0921
  238MOL0     H32110  12.692   2.566   8.265  0.4545  1.0956 -3.2818
  238MOL0     H32111  12.513   2.568   8.421  0.6148  1.4058 -0.7941
  238MOL0     H32112  11.912   2.275   8.480  1.4549 -1.1839 -0.6954
  238MOL0     H32113  11.786   2.354   8.657  1.1797 -0.9653  3.6082
  238MOL0     H32114  10.069   2.967   9.336 -2.1928  1.1186 -0.5351
  238MOL0     H32115   9.934   3.080   9.495 -0.8066 -0.3502 -1.0886
  238MOL0     H32116   9.603   3.427   9.576  0.0788  0.9843 -0.4302
  238MOL0     H32117   9.506   3.632   9.659 -1.0744 -1.0852  4.1184
  238MOL0     H32118   9.636   3.737  10.011  1.0385  3.7347  1.3621
  238MOL0     H32119   9.480   3.722   9.920 -1.6670  2.7315 -3.1664
  238MOL0     H32120   9.605   3.985  10.009 -1.4609  2.9256  0.3830
  238MOL0     H32121   9.492   3.893  10.112 -0.3528 -0.0271 -1.3237
  238MOL0     H32122   9.335   3.904   9.904  0.8888 -1.2941  1.3999
  238MOL0     H32123   9.431   4.035   9.850 -1.0656  0.0954  0.0542
  238MOL0     H32124   9.380   4.162  10.069  0.8215 -0.3638 -0.9017
  238MOL0     H32125   9.256   4.137   9.945  0.0339 -1.0915 -0.2638
  238MOL0     H32126   9.083   3.873  10.214 -0.2631 -0.8251 -0.6323
  238MOL0     H32127   9.846   3.693   9.905 -0.8751  0.1390 -0.3377
  238MOL0     H32128   9.975   3.491   9.968  2.5101  1.1271 -0.4461
  238MOL0     H32129   9.997   3.359   9.855 -1.4067 -0.3724 -0.7529
  238MOL0     H32130  10.065   3.520   9.816  2.8151 -2.2165 -0.0013
  239MOL0     O32131   3.894   7.693   2.784 -0.1999 -0.0810  0.1040
  239MOL0     C32132   3.911   7.810   2.804 -0.6233 -0.6158 -0.7002
  239MOL0     O32133   4.033   7.869   2.788  0.3468  0.1493 -0.5828
  239MOL0     C32134   4.121   7.803   2.702  0.0862 -0.0354 -0.9289
  239MOL0     C32135   4.134   7.844   2.566 -0.4767 -0.4369 -0.4191
  239MOL0     C32136   4.240   7.789   2.489 -0.2221  0.1306  1.1514
  239MOL0     C32137   4.334   7.700   2.544 -0.1603  0.0628 -0.6768
  239MOL0     O32138   4.423   7.643   2.457 -0.1758  0.4582 -0.5037
  239MOL0     C32139   4.472   7.506   2.490  0.2305 -0.7233  0.4835
  239MOL0     C32140   4.576   7.481   2.389  0.1286 -0.7522  0.9505
  239MOL0     C32141   4.669   7.609   2.366 -0.1042 -0.1618  0.7286
  239MOL0     C32142   4.801   7.559   2.298  0.4016  0.4158 -0.7345
  239MOL0     C32143   4.881   7.678   2.236 -0.6460 -0.0037  0.6332
  239MOL0     C32144   4.936   7.777   2.346 -0.2714  0.0240 -0.5987
  239MOL0     C32145   5.020   7.879   2.274  0.0865 -0.0407 -0.7509
  239MOL0     C32146   5.174   7.863   2.303  0.5530 -0.3605 -0.0824
  239MOL0     N32147   5.250   7.964   2.216 -0.0260  0.4866 -0.3658
  239MOL0     C32148   5.369   7.940   2.162 -0.4000 -0.0160 -0.0653
  239MOL0     C32149   5.405   8.067   2.117  0.3304  0.6052  0.1730
  239MOL0     C32150   5.533   8.087   2.033 -0.2651  0.2582 -0.1651
  239MOL0     C32151   5.662   8.052   2.111 -0.3514  0.3425  0.4817
  239MOL0     C32152   5.782   8.006   2.020 -0.6927 -0.7354  0.1329
  239MOL0     C32153   5.823   8.112   1.916  0.0335 -0.2035  0.1844
  239MOL0     O32154   5.911   8.035   1.830 -0.4784 -0.3453 -0.0435
  239MOL0     C32155   5.987   8.105   1.735  1.2551  0.1872  0.6666
  239MOL0     C32156   6.002   8.245   1.728  0.0113  0.1998 -0.2840
  239MOL0     C32157   6.097   8.303   1.646 -0.3149 -0.5245 -0.2711
  239MOL0     C32158   6.170   8.223   1.560 -0.5825  0.0276 -0.2274
  239MOL0     C32159   6.267   8.278   1.470 -1.3249 -0.0669  0.3527
  239MOL0     O32160   6.354   8.192   1.405 -0.2075 -0.2001  0.3534
  239MOL0     C32161   6.457   8.241   1.326 -0.3140 -0.4475 -0.3462
  239MOL0     C32162   6.540   8.351   1.353 -0.4153  0.4460 -0.2817
  239MOL0     C32163   6.641   8.387   1.263  0.0538 -0.4123 -0.3752
  239MOL0     C32164   6.658   8.308   1.142  0.9289 -1.3893  0.2840
  239MOL0     O32165   6.767   8.331   1.052 -0.9065 -0.3777 -0.4875
  239MOL0     C32166   6.900   8.360   1.102  0.2784 -0.6281  0.0347
  239MOL0     C32167   6.967   8.234   1.158  0.4728  0.3292  0.2967
  239MOL0     C32168   7.113   8.251   1.203  0.2254  0.2889  0.5554
  239MOL0     C32169   7.149   8.329   1.332 -0.5695 -0.5837  0.1166
  239MOL0     C32170   7.289   8.295   1.396  0.0233  0.0989 -0.1703
  239MOL0     C32171   7.331   8.405   1.488 -0.1771 -0.1750  0.4001
  239MOL0     C32172   7.461   8.366   1.553 -0.3454 -0.0539 -0.1885
  239MOL0     C32173   7.488   8.458   1.675 -0.8808  0.2278  0.1195
  239MOL0    Cl32174   7.641   8.424   1.756 -0.0169  0.0463 -0.4600
  239MOL0     C32175   6.578   8.195   1.111 -0.0925 -0.3276 -1.6377
  239MOL0     C32176   6.473   8.169   1.209  0.4756  0.6166 -0.6002
  239MOL0     O32177   6.268   8.403   1.461  0.8352 -0.2626 -0.3714
  239MOL0     C32178   6.164   8.086   1.567 -0.2651  0.4925 -0.1543
  239MOL0     C32179   6.065   8.029   1.645 -0.5615  0.1978 -0.8191
  239MOL0     N32180   5.313   8.161   2.152  0.0480  0.6426 -0.1957
  239MOL0     N32181   5.221   8.091   2.214  0.0358  0.4303 -0.7936
  239MOL0     C32182   4.325   7.676   2.682 -0.7061  1.2215 -0.1402
  239MOL0     C32183   4.213   7.723   2.758  0.1306 -0.5469 -0.0123
  239MOL0     C32184   3.790   7.883   2.854 -0.7729 -0.7389  0.6258
  239MOL0     C32185   3.819   7.992   2.937 -0.5814 -0.4309 -0.0003
  239MOL0     C32186   3.728   8.090   2.963  0.6082 -0.2227 -0.7776
  239MOL0     C32187   3.596   8.076   2.922  0.4515  0.1870 -0.6198
  239MOL0     O32188   3.512   8.175   2.947  0.1299  0.1505 -0.4571
  239MOL0     C32189   3.369   8.179   2.911 -0.4329 -0.0081  0.1419
  239MOL0     C32190   3.276   8.135   3.022  0.1003  0.0164  0.3757
  239MOL0     C32191   3.132   8.184   3.002 -0.2015 -0.3078 -0.3812
  239MOL0     C32192   3.103   8.328   3.064 -0.6432  0.8091  0.0912
  239MOL0     C32193   2.976   8.373   3.023 -0.3094 -0.3646  0.0695
  239MOL0     C32194   2.864   8.411   2.980 -0.3175  0.1278  0.4655
  239MOL0     C32195   3.566   7.959   2.852  0.3194 -0.4323 -0.2401
  239MOL0     C32196   3.653   7.859   2.825 -0.0994 -0.0371  0.0314
  239MOL0     C32197   3.602   7.735   2.764 -0.0385  0.7704  0.3209
  239MOL0     H32198   4.057   7.904   2.518  0.3210 -0.6424 -2.0375
  239MOL0     H32199   4.240   7.808   2.382 -0.1774  1.0569  1.3108
  239MOL0     H32200   4.516   7.516   2.589  2.4435  2.1137 -0.6609
  239MOL0     H32201   4.385   7.440   2.501 -0.8565  0.9131  2.5224
  239MOL0     H32202   4.528   7.442   2.299 -5.4930  0.6917  2.9454
  239MOL0     H32203   4.640   7.399   2.425 -0.1829 -0.9092  1.1479
  239MOL0     H32204   4.678   7.684   2.444  0.1730  0.5617  0.0136
  239MOL0     H32205   4.612   7.659   2.287 -0.0601 -3.7692 -1.8286
  239MOL0     H32206   4.853   7.498   2.372 -1.5053 -0.4154  0.0082
  239MOL0     H32207   4.776   7.498   2.211  1.6541  0.6266 -1.2500
  239MOL0     H32208   4.953   7.623   2.175 -2.1700 -1.9642  0.4655
  239MOL0     H32209   4.810   7.724   2.167  0.6610  1.1772  0.0419
  239MOL0     H32210   4.857   7.829   2.402  0.2869 -1.0751  1.3080
  239MOL0     H32211   5.000   7.725   2.418  0.8894  1.2679 -0.6902
  239MOL0     H32212   4.992   7.979   2.307  0.8507  0.2506 -0.9418
  239MOL0     H32213   5.001   7.872   2.166 -0.9236 -3.8170 -0.4712
  239MOL0     H32214   5.195   7.882   2.408  0.2181  4.0631 -0.6232
  239MOL0     H32215   5.200   7.761   2.274 -1.5250 -0.4190 -2.0569
  239MOL0     H32216   5.433   7.854   2.144 -1.3444 -1.2245  2.0728
  239MOL0     H32217   5.534   8.032   1.939 -0.7796  1.6646 -1.0315
  239MOL0     H32218   5.549   8.192   2.007 -2.8036  0.5176 -1.0356
  239MOL0     H32219   5.688   8.143   2.167 -1.6066 -0.0258  1.6960
  239MOL0     H32220   5.649   7.970   2.182  1.5327  1.7780  2.6413
  239MOL0     H32221   5.761   7.910   1.970 -0.0531 -1.5230  1.3379
  239MOL0     H32222   5.863   7.984   2.090 -1.4549  1.1061  1.6661
  239MOL0     H32223   5.868   8.204   1.954 -4.4006  1.3980  2.2882
  239MOL0     H32224   5.734   8.151   1.865 -0.5586  1.4481  2.3085
  239MOL0     H32225   5.956   8.313   1.799  0.5008 -0.4894  0.7097
  239MOL0     H32226   6.116   8.409   1.654  4.1176 -1.1594 -0.0232
  239MOL0     H32227   6.526   8.409   1.444 -0.9692  0.6125 -0.4732
  239MOL0     H32228   6.704   8.468   1.296  1.0393 -1.8699  1.5305
  239MOL0     H32229   6.958   8.411   1.024 -1.4256 -0.4060 -1.1478
  239MOL0     H32230   6.910   8.440   1.175 -0.3477  1.6619 -2.2334
  239MOL0     H32231   6.918   8.207   1.252  0.9918 -3.4334 -0.3878
  239MOL0     H32232   6.955   8.156   1.082 -0.1247 -1.7026  2.3742
  239MOL0     H32233   7.153   8.150   1.206 -1.3769 -0.4092 -0.3338
  239MOL0     H32234   7.157   8.303   1.117 -0.3359 -1.1122 -0.6215
  239MOL0     H32235   7.073   8.313   1.409  0.6648  0.7788  1.7094
  239MOL0     H32236   7.145   8.438   1.322  0.7303 -0.3376  1.7716
  239MOL0     H32237   7.372   8.294   1.325 -0.0600  0.8873 -0.2873
  239MOL0     H32238   7.283   8.207   1.462  0.4101  0.9349  1.0242
  239MOL0     H32239   7.329   8.496   1.428 -1.7554 -0.3415  0.1615
  239MOL0     H32240   7.257   8.414   1.568  0.0871  0.6995  0.5538
  239MOL0     H32241   7.545   8.385   1.485  0.3770 -0.0407  0.6842
  239MOL0     H32242   7.459   8.258   1.568 -0.5777 -0.1519 -0.8716
  239MOL0     H32243   7.490   8.565   1.651  2.7110  0.4124  0.6945
  239MOL0     H32244   7.404   8.448   1.744 -0.6425  0.3460  0.4286
  239MOL0     H32245   6.579   8.148   1.013  0.9213 -0.3662 -1.6126
  239MOL0     H32246   6.394   8.096   1.192 -1.6156  1.6600  3.3542
  239MOL0     H32247   6.234   8.020   1.518  0.3244  1.6512 -0.9225
  239MOL0     H32248   6.061   7.921   1.637  2.6076 -0.0833  0.0664
  239MOL0     H32249   4.395   7.605   2.726 -0.5731  1.7089  0.4468
  239MOL0     H32250   4.208   7.711   2.866 -0.6804 -2.5588 -0.2320
  239MOL0     H32251   3.918   8.005   2.980  0.2027 -4.3565 -0.2450
  239MOL0     H32252   3.757   8.175   3.025 -0.0853 -0.7000  0.2126
  239MOL0     H32253   3.344   8.129   2.818 -1.3747 -1.3001  1.0611
  239MOL0     H32254   3.347   8.285   2.895 -0.8388 -0.4646 -2.9225
  239MOL0     H32255   3.311   8.181   3.115 -1.2223  1.2135  0.3159
  239MOL0     H32256   3.288   8.026   3.021  1.9993  0.1787 -1.3677
  239MOL0     H32257   3.064   8.108   3.043  2.2284 -3.0146 -1.0627
  239MOL0     H32258   3.115   8.188   2.894  1.3927 -0.7227 -0.6683
  239MOL0     H32259   3.114   8.320   3.172  0.2119 -1.6634 -0.1096
  239MOL0     H32260   3.183   8.396   3.034  1.6475 -1.3541  0.9275
  239MOL0     H32261   2.767   8.444   2.950 -1.4426 -2.3711  1.0975
  239MOL0     H32262   3.467   7.939   2.812  0.6387 -1.7835 -0.4035
  239MOL0     H32263   3.670   7.649   2.771 -1.7234 -0.7635 -1.0209
  239MOL0     H32264   3.519   7.706   2.829 -0.0253 -1.5603 -0.6043
  239MOL0     H32265   3.575   7.753   2.660  2.8917  2.0469 -0.3156
  240MOL0     O32266   9.853   1.106   7.318  0.4015 -0.2012  0.3403
  240MOL0     C32267   9.806   1.001   7.311  0.5435  1.2426  0.1386
  240MOL0     O32268   9.734   0.935   7.406  0.4711  0.6006  0.9250
  240MOL0     C32269   9.677   0.993   7.519 -0.7611 -0.5735  0.9569
  240MOL0     C32270   9.627   1.126   7.524 -0.5843 -0.4700 -0.4419
  240MOL0     C32271   9.562   1.169   7.641 -0.4998 -0.6312  0.2785
  240MOL0     C32272   9.541   1.079   7.751 -0.3467  0.7652  0.5029
  240MOL0     O32273   9.476   1.120   7.876 -0.0310  0.1179  0.6056
  240MOL0     C32274   9.544   1.088   7.997 -0.2035 -0.3817  0.0596
  240MOL0     C32275   9.467   1.157   8.111  0.7713  0.5424 -0.0185
  240MOL0     C32276   9.540   1.144   8.242 -0.2904 -0.1798  0.4377
  240MOL0     C32277   9.502   1.251   8.343  0.6653  0.0345  0.3102
  240MOL0     C32278   9.543   1.220   8.488 -0.3197  0.2287 -0.1682
  240MOL0     C32279   9.695   1.203   8.507 -0.1219  0.0649  0.8119
  240MOL0     C32280   9.751   1.221   8.657  0.5029 -0.0659 -0.1104
  240MOL0     C32281   9.909   1.226   8.652  0.4919  0.1233  1.0023
  240MOL0     N32282   9.981   1.096   8.638  0.1350  0.4030  0.2954
  240MOL0     C32283  10.103   1.062   8.692 -0.0311  0.1732 -0.4403
  240MOL0     C32284  10.138   0.946   8.639  0.9624 -0.2956 -0.1901
  240MOL0     C32285  10.265   0.884   8.673 -0.1845 -0.6171  0.7392
  240MOL0     C32286  10.238   0.751   8.736 -0.3553  0.2394 -0.1439
  240MOL0     C32287  10.349   0.713   8.829 -0.1717 -0.1366  0.3861
  240MOL0     C32288  10.465   0.659   8.742 -0.6111  0.6131 -0.3789
  240MOL0     O32289  10.574   0.642   8.831  0.0740 -0.1940 -0.2197
  240MOL0     C32290  10.678   0.587   8.774 -1.0885  0.6789 -0.3903
  240MOL0     C32291  10.779   0.533   8.854  0.2703  0.7887  0.0161
  240MOL0     C32292  10.891   0.460   8.805 -0.4672 -0.3956 -0.2486
  240MOL0     C32293  10.916   0.454   8.664  0.6022 -0.4723 -1.1034
  240MOL0     C32294  11.022   0.372   8.603 -0.3356  0.5798  0.2680
  240MOL0     O32295  11.133   0.329   8.679  0.6525 -0.0235 -0.1345
  240MOL0     C32296  11.245   0.265   8.623  0.1940  0.3207 -0.0797
  240MOL0     C32297  11.248   0.183   8.508 -0.5199 -0.2675 -0.6646
  240MOL0     C32298  11.364   0.147   8.448  0.8598  0.2145 -0.0414
  240MOL0     C32299  11.491   0.167   8.504  0.7696 -0.8487  0.0826
  240MOL0     O32300  11.612   0.144   8.445  0.6074  0.2356 -0.3676
  240MOL0     C32301  11.629   0.047   8.337 -0.0792 -0.4192  0.2970
  240MOL0     C32302  11.777   0.033   8.327  0.1329  0.3301  0.3806
  240MOL0     C32303  11.834  -0.067   8.220 -0.1662 -0.0116 -0.2767
  240MOL0     C32304  11.987  -0.093   8.242  0.1288  0.5620  0.0133
  240MOL0     C32305  12.045  -0.220   8.169 -0.5973  0.0617 -0.8883
  240MOL0     C32306  12.017  -0.214   8.028  0.4371  0.6961  0.6058
  240MOL0     C32307  12.068  -0.095   7.946  0.1743 -0.8284 -0.5019
  240MOL0     C32308  12.038  -0.131   7.804 -0.1556 -0.1234  0.3245
  240MOL0    Cl32309  12.103  -0.295   7.747  0.2606 -0.1246 -0.0956
  240MOL0     C32310  11.487   0.233   8.628  0.1727 -0.4421 -0.5045
  240MOL0     C32311  11.371   0.285   8.688 -0.4836 -0.1700  0.0112
  240MOL0     O32312  11.023   0.370   8.480 -0.0920  0.4173  0.1552
  240MOL0     C32313  10.813   0.503   8.580 -0.2946 -0.0391  0.2639
  240MOL0     C32314  10.703   0.561   8.640  0.7045  0.5229 -0.5517
  240MOL0     N32315  10.043   0.915   8.541 -0.6842  0.0900  0.7620
  240MOL0     N32316   9.952   1.010   8.541  0.4960  0.6670 -0.2612
  240MOL0     C32317   9.602   0.955   7.751 -0.3321 -0.2106  0.3141
  240MOL0     C32318   9.666   0.912   7.634 -0.8428  0.3757  0.0815
  240MOL0     C32319   9.844   0.931   7.187  0.0290  0.2130  0.7893
  240MOL0     C32320   9.837   0.789   7.187  0.1388 -0.3595  0.0635
  240MOL0     C32321   9.878   0.715   7.078 -1.5326  0.2011  0.7447
  240MOL0     C32322   9.914   0.772   6.960  0.0305 -0.5057  0.3908
  240MOL0     O32323   9.935   0.702   6.842  0.1424  0.2509  0.3128
  240MOL0     C32324   9.912   0.562   6.839 -0.0636  0.2026  0.0579
  240MOL0     C32325   9.878   0.513   6.697 -0.6776 -0.3337 -0.0799
  240MOL0     C32326   9.996   0.497   6.601 -0.0505 -0.7436 -0.1364
  240MOL0     C32327  10.070   0.623   6.555 -0.9451  0.0039  0.4835
  240MOL0     C32328   9.984   0.706   6.474 -0.2669 -0.5781  0.3843
  240MOL0     C32329   9.922   0.791   6.409 -0.2571  0.0224 -0.4861
  240MOL0     C32330   9.915   0.911   6.950  0.4176  0.5004  0.1026
  240MOL0     C32331   9.882   0.989   7.064 -0.2571 -0.0188 -0.4729
  240MOL0     C32332   9.896   1.141   7.029  1.1079  0.5927  0.2577
  240MOL0     H32333   9.641   1.189   7.436 -0.8860 -0.0072 -0.1637
  240MOL0     H32334   9.521   1.269   7.647  0.8738  0.2279 -2.6340
  240MOL0     H32335   9.549   0.981   8.019  0.2274 -0.2262  0.7459
  240MOL0     H32336   9.643   1.135   8.001  0.2767 -1.4195  0.4782
  240MOL0     H32337   9.363   1.126   8.124  0.8905 -1.3883 -2.8260
  240MOL0     H32338   9.457   1.260   8.078 -0.4882  0.4855  0.1378
  240MOL0     H32339   9.648   1.142   8.226 -0.5699 -2.1673 -1.6715
  240MOL0     H32340   9.509   1.048   8.286 -1.1245  0.5691  1.5586
  240MOL0     H32341   9.550   1.343   8.309 -1.0234  0.2647 -1.6736
  240MOL0     H32342   9.395   1.276   8.338  0.8692  1.6218  2.5523
  240MOL0     H32343   9.519   1.311   8.544 -0.0842 -0.5572  1.2459
  240MOL0     H32344   9.482   1.138   8.525 -0.7290  0.8739  0.6251
  240MOL0     H32345   9.725   1.112   8.454 -0.9627 -0.6431  1.5058
  240MOL0     H32346   9.746   1.285   8.456  2.3536 -0.7417  1.8795
  240MOL0     H32347   9.712   1.138   8.716  2.8617 -0.1749  1.4107
  240MOL0     H32348   9.718   1.314   8.703  0.5392 -0.4680  0.7338
  240MOL0     H32349   9.937   1.281   8.561  1.9377 -0.2024  1.2164
  240MOL0     H32350   9.959   1.281   8.733  2.5513 -0.4461  0.1692
  240MOL0     H32351  10.168   1.114   8.762  0.5047 -0.6363 -0.3185
  240MOL0     H32352  10.326   0.873   8.583 -2.9675  0.1871 -1.3955
  240MOL0     H32353  10.327   0.946   8.739  2.6600  0.2692 -2.4651
  240MOL0     H32354  10.143   0.743   8.790 -0.2196 -0.4748  0.0010
  240MOL0     H32355  10.231   0.681   8.651  1.5949 -1.0655  0.6957
  240MOL0     H32356  10.305   0.643   8.901 -1.5929  2.5204  2.2495
  240MOL0     H32357  10.369   0.801   8.890 -2.5741  0.9615 -0.3267
  240MOL0     H32358  10.482   0.733   8.663 -1.1088  1.8200  0.6089
  240MOL0     H32359  10.438   0.560   8.706  1.6655 -0.5811  0.9441
  240MOL0     H32360  10.762   0.542   8.961 -2.8615 -0.5474 -0.2852
  240MOL0     H32361  10.955   0.407   8.875 -0.0036 -2.0245 -1.8384
  240MOL0     H32362  11.154   0.159   8.459  0.4517 -0.9846 -2.2364
  240MOL0     H32363  11.356   0.093   8.354  0.3586 -0.6104  0.4605
  240MOL0     H32364  11.595  -0.044   8.386  2.1485 -1.5339 -0.1247
  240MOL0     H32365  11.585   0.076   8.240  1.8584 -1.2964 -0.8960
  240MOL0     H32366  11.829   0.124   8.295  4.6397 -2.1946 -0.3684
  240MOL0     H32367  11.810   0.013   8.429  1.0820 -0.3418 -0.0473
  240MOL0     H32368  11.785  -0.164   8.228 -0.8363  0.4275  1.3125
  240MOL0     H32369  11.814  -0.025   8.120 -0.1594  3.8797  1.1653
  240MOL0     H32370  11.989  -0.111   8.350 -1.8706  0.4827  0.0737
  240MOL0     H32371  12.037   0.000   8.213 -1.8127  1.6115 -0.1500
  240MOL0     H32372  11.999  -0.307   8.216  0.0598  0.3769  0.3656
  240MOL0     H32373  12.153  -0.224   8.183 -0.5652  1.5179 -0.6003
  240MOL0     H32374  12.072  -0.306   8.008  2.1479  1.6034  0.9105
  240MOL0     H32375  11.913  -0.235   8.002  0.8929  0.8209 -1.5328
  240MOL0     H32376  12.176  -0.080   7.956  0.0867 -0.4387 -0.1276
  240MOL0     H32377  12.016  -0.003   7.972  2.1612  0.0672  0.5432
  240MOL0     H32378  11.930  -0.128   7.790  0.0302 -1.7520 -2.2317
  240MOL0     H32379  12.083  -0.053   7.741  0.8528 -1.3295 -0.5086
  240MOL0     H32380  11.580   0.251   8.681 -0.2801  3.7026 -0.7733
  240MOL0     H32381  11.377   0.335   8.784 -1.8404  0.3232 -0.1389
  240MOL0     H32382  10.821   0.476   8.475  2.0856  0.7945  0.1682
  240MOL0     H32383  10.621   0.577   8.570 -1.8038 -2.4402  1.4626
  240MOL0     H32384   9.610   0.879   7.828  1.5370 -2.2945 -1.7281
  240MOL0     H32385   9.709   0.812   7.628  0.5249  0.9586 -0.2989
  240MOL0     H32386   9.806   0.737   7.277  0.1724 -0.0235  0.2678
  240MOL0     H32387   9.871   0.607   7.085 -2.1952  0.3499  3.4293
  240MOL0     H32388   9.822   0.537   6.897  0.2165  1.7417  1.2216
  240MOL0     H32389   9.995   0.503   6.880  0.3146  0.5685 -0.1806
  240MOL0     H32390   9.788   0.558   6.655 -0.1705  0.0865 -0.7370
  240MOL0     H32391   9.848   0.407   6.703  0.3380 -0.5499  3.0480
  240MOL0     H32392   9.956   0.454   6.509 -0.5772  4.7083 -2.8450
  240MOL0     H32393  10.066   0.424   6.642 -1.6661 -1.9484  0.5456
  240MOL0     H32394  10.114   0.685   6.633 -2.2473  1.3366  0.2074
  240MOL0     H32395  10.152   0.579   6.497  0.2948 -0.9457  2.8557
  240MOL0     H32396   9.882   0.861   6.339 -1.4953  0.5410  0.6777
  240MOL0     H32397   9.944   0.937   6.849  1.1468 -1.2428 -0.1654
  240MOL0     H32398   9.859   1.199   7.113 -3.5987 -1.8075  0.1415
  240MOL0     H32399  10.000   1.167   7.006  1.4817  0.7581  2.0352
  240MOL0     H32400   9.841   1.175   6.941  0.6492  0.3124  0.4353
  241MOL0     O32401  10.127   5.697   8.605  0.3292 -0.7558  0.3567
  241MOL0     C32402  10.207   5.716   8.510  0.7973 -0.3425 -0.8646
  241MOL0     O32403  10.335   5.687   8.518  0.2462 -0.0550  0.4574
  241MOL0     C32404  10.395   5.612   8.616  0.5193  0.1385 -0.3337
  241MOL0     C32405  10.343   5.517   8.697  0.0561 -0.0207  0.1430
  241MOL0     C32406  10.414   5.459   8.805  1.1270  0.1404  0.0818
  241MOL0     C32407  10.551   5.481   8.813 -0.4895  0.0095 -0.1255
  241MOL0     O32408  10.633   5.440   8.906 -0.3390  0.8678 -0.2971
  241MOL0     C32409  10.611   5.310   8.968  0.4233 -0.1669  0.9513
  241MOL0     C32410  10.709   5.292   9.087  0.4905  0.9003 -0.0170
  241MOL0     C32411  10.848   5.282   9.041  0.0944  0.2077 -0.0055
  241MOL0     C32412  10.946   5.239   9.151  0.0513 -0.3340  0.1019
  241MOL0     C32413  11.095   5.266   9.102  0.0092 -0.2999 -0.3118
  241MOL0     C32414  11.198   5.215   9.193 -0.2357  0.2525 -0.3102
  241MOL0     C32415  11.337   5.252   9.152  0.1311  0.7212  0.5163
  241MOL0     C32416  11.434   5.222   9.269 -0.7694 -0.0449 -0.2929
  241MOL0     N32417  11.571   5.223   9.225 -0.4512 -0.8337  0.0179
  241MOL0     C32418  11.644   5.100   9.213 -0.4201 -0.2149  0.2801
  241MOL0     C32419  11.765   5.137   9.167 -0.0145 -0.5179  0.4346
  241MOL0     C32420  11.891   5.061   9.150 -0.0556 -0.0485  0.0554
  241MOL0     C32421  12.017   5.151   9.130  0.0524  0.4015 -0.2156
  241MOL0     C32422  12.075   5.185   9.259  0.3404 -0.3645  0.3494
  241MOL0     C32423  12.177   5.301   9.254  0.2906  0.6160  0.1771
  241MOL0     O32424  12.289   5.243   9.187 -0.5485  0.8426  0.1170
  241MOL0     C32425  12.404   5.314   9.202 -0.0123  0.5226 -0.7544
  241MOL0     C32426  12.518   5.251   9.253 -0.0579  0.7963 -0.2211
  241MOL0     C32427  12.640   5.330   9.290 -0.0507  0.0605  0.6661
  241MOL0     C32428  12.646   5.466   9.264  1.1881  0.5829  0.5413
  241MOL0     C32429  12.769   5.532   9.289 -1.1139 -0.3610 -0.3247
  241MOL0     O32430  12.876   5.454   9.333 -0.4505 -0.5594  0.9111
  241MOL0     C32431  12.999   5.512   9.324 -0.5411  0.6293  0.3073
  241MOL0     C32432  13.085   5.463   9.228  0.5253  0.0773 -0.4017
  241MOL0     C32433  13.218   5.512   9.216  0.4080  0.5566 -0.6107
  241MOL0     C32434  13.268   5.599   9.312  0.0484 -0.7949 -0.9844
  241MOL0     O32435  13.392   5.656   9.311  0.6354  0.3424 -0.3476
  241MOL0     C32436  13.488   5.555   9.284 -0.3950 -1.1067  0.6612
  241MOL0     C32437  13.629   5.596   9.326  0.5336 -0.1744  0.6112
  241MOL0     C32438  13.655   5.586   9.473 -1.1229  0.3565 -0.1631
  241MOL0     C32439  13.803   5.613   9.485  0.4177  0.4916 -0.1857
  241MOL0     C32440  13.860   5.640   9.618  0.6429  0.2499 -0.7187
  241MOL0     C32441  14.014   5.645   9.610  0.3933 -0.1612 -0.1321
  241MOL0     C32442  14.073   5.673   9.747 -0.2459  0.6064 -0.0145
  241MOL0     C32443  14.218   5.715   9.737  0.7504  0.5218 -0.5231
  241MOL0    Cl32444  14.272   5.733   9.912  0.2455 -0.0770 -0.0109
  241MOL0     C32445  13.176   5.645   9.410  0.1403  1.2193  0.0452
  241MOL0     C32446  13.046   5.606   9.415  1.0479  0.4286 -0.5334
  241MOL0     O32447  12.761   5.657   9.278 -0.9097  0.3816  0.3231
  241MOL0     C32448  12.529   5.527   9.210 -1.0136  0.3290 -0.7896
  241MOL0     C32449  12.412   5.453   9.175  0.2756  0.1283  0.3830
  241MOL0     N32450  11.755   5.273   9.142  0.0797 -1.3808  0.2283
  241MOL0     N32451  11.639   5.318   9.166  0.4646 -0.0228  0.4528
  241MOL0     C32452  10.610   5.568   8.723  0.2508 -0.0007 -0.1971
  241MOL0     C32453  10.530   5.636   8.634  0.5670 -0.7268  0.3735
  241MOL0     C32454  10.156   5.743   8.375  0.2669  0.4804  0.1454
  241MOL0     C32455  10.020   5.713   8.346  1.0852  0.3086  0.2160
  241MOL0     C32456   9.960   5.734   8.221 -0.0816 -0.0295 -0.1314
  241MOL0     C32457  10.038   5.789   8.122 -0.3359 -0.8331  0.8974
  241MOL0     O32458  10.000   5.833   7.995  0.0277  0.7346 -0.4082
  241MOL0     C32459   9.895   5.769   7.933  1.0275  0.8300 -0.0430
  241MOL0     C32460   9.848   5.844   7.812  0.5003  0.9123  0.1463
  241MOL0     C32461   9.702   5.803   7.779  0.2281  0.4407 -0.4112
  241MOL0     C32462   9.640   5.921   7.703  0.1427 -0.7069  0.2082
  241MOL0     C32463   9.513   5.884   7.649  0.8857  0.6868  0.4283
  241MOL0     C32464   9.406   5.856   7.599 -0.5945  0.6020 -0.1964
  241MOL0     C32465  10.175   5.820   8.151 -0.4439  0.1758  0.5199
  241MOL0     C32466  10.239   5.799   8.272  0.4525 -0.0762 -0.7126
  241MOL0     C32467  10.377   5.861   8.293 -0.4606  0.2513 -0.2593
  241MOL0     H32468  10.239   5.488   8.686  0.7359 -2.7638  0.2294
  241MOL0     H32469  10.360   5.399   8.877  3.0308  0.3697  1.7838
  241MOL0     H32470  10.507   5.293   8.996 -0.5568  1.2875 -1.5150
  241MOL0     H32471  10.639   5.231   8.897  1.9305  0.0485  1.2695
  241MOL0     H32472  10.683   5.201   9.141  2.3209 -0.3189 -1.1124
  241MOL0     H32473  10.688   5.378   9.152 -0.9583 -0.1307  0.9484
  241MOL0     H32474  10.881   5.384   9.020 -0.7665  0.4145 -0.3942
  241MOL0     H32475  10.865   5.229   8.946  1.0739  1.5912 -0.6363
  241MOL0     H32476  10.935   5.299   9.241 -0.0342 -0.5225  0.2173
  241MOL0     H32477  10.940   5.132   9.175 -0.1482 -0.2664  0.3519
  241MOL0     H32478  11.115   5.220   9.005  2.9138 -0.3723  0.2293
  241MOL0     H32479  11.112   5.374   9.089 -0.8980 -0.0602  0.4275
  241MOL0     H32480  11.178   5.261   9.290 -0.6708 -2.5087  1.0232
  241MOL0     H32481  11.185   5.109   9.216 -0.2598  0.6291  1.6048
  241MOL0     H32482  11.341   5.361   9.139 -3.2907  1.2225  2.4035
  241MOL0     H32483  11.366   5.192   9.066 -1.3938 -1.9099  1.7134
  241MOL0     H32484  11.417   5.290   9.353 -1.2969 -0.0923 -0.3519
  241MOL0     H32485  11.414   5.117   9.292  0.2992 -0.0773  0.4967
  241MOL0     H32486  11.616   5.001   9.247 -1.6090  0.3934  1.1402
  241MOL0     H32487  11.897   4.990   9.233 -0.5391  1.6444  1.5711
  241MOL0     H32488  11.879   5.014   9.052  1.8779  0.7977 -0.6387
  241MOL0     H32489  12.081   5.085   9.071 -2.3406 -3.0581  0.7495
  241MOL0     H32490  11.991   5.233   9.062  0.7544  0.6529 -0.1863
  241MOL0     H32491  12.112   5.093   9.307 -5.5076 -2.3867  1.7690
  241MOL0     H32492  11.990   5.218   9.319 -0.2345 -0.5215 -0.3675
  241MOL0     H32493  12.203   5.324   9.357 -2.9543 -1.9593  1.7679
  241MOL0     H32494  12.139   5.384   9.193 -1.7349 -1.1025 -1.0261
  241MOL0     H32495  12.519   5.143   9.270 -1.1892  0.6073 -1.2149
  241MOL0     H32496  12.723   5.280   9.339  1.0436  3.5178  2.7079
  241MOL0     H32497  13.048   5.379   9.169 -2.2354  0.6574  0.3772
  241MOL0     H32498  13.291   5.460   9.155 -1.6380 -2.4193 -0.7553
  241MOL0     H32499  13.458   5.466   9.340  0.1103  0.5742  3.7924
  241MOL0     H32500  13.486   5.529   9.177 -1.4683 -0.2927  0.4591
  241MOL0     H32501  13.698   5.534   9.269  0.7112  1.0788 -0.5823
  241MOL0     H32502  13.633   5.701   9.295 -1.9520 -0.3879 -0.7298
  241MOL0     H32503  13.604   5.666   9.528  0.0358  0.1654  1.2593
  241MOL0     H32504  13.630   5.490   9.519 -2.8934 -0.2330 -2.2095
  241MOL0     H32505  13.820   5.700   9.421  1.1328 -0.1536 -0.8990
  241MOL0     H32506  13.848   5.523   9.441  2.9963  1.4047  0.3935
  241MOL0     H32507  13.833   5.561   9.689  1.9813  0.4557  0.0538
  241MOL0     H32508  13.815   5.729   9.663 -0.5292 -1.2736  1.2852
  241MOL0     H32509  14.057   5.550   9.574  2.3537  1.1758 -1.5894
  241MOL0     H32510  14.041   5.728   9.544 -0.1465 -1.0280 -1.4822
  241MOL0     H32511  14.073   5.584   9.811  2.2813  0.6504  0.1684
  241MOL0     H32512  14.018   5.756   9.791 -0.5882  0.0658  0.5934
  241MOL0     H32513  14.273   5.632   9.692 -1.1437 -1.4910  0.6789
  241MOL0     H32514  14.230   5.799   9.668  1.6017  0.6425 -0.2356
  241MOL0     H32515  13.194   5.716   9.490  1.1475  0.4924  0.4866
  241MOL0     H32516  12.983   5.654   9.489  1.2294  0.0725 -0.1425
  241MOL0     H32517  12.541   5.632   9.186  0.5587  0.4249  0.2913
  241MOL0     H32518  12.328   5.501   9.124  0.1827  0.3392  0.7302
  241MOL0     H32519  10.715   5.593   8.738  0.2740 -0.1888 -0.0387
  241MOL0     H32520  10.563   5.720   8.574  1.1648  1.9911  4.1677
  241MOL0     H32521   9.949   5.675   8.419 -1.0098 -1.1465 -2.3708
  241MOL0     H32522   9.852   5.725   8.213 -0.2525  2.2755 -1.5045
  241MOL0     H32523   9.813   5.753   8.004 -0.9548 -0.9241 -2.5468
  241MOL0     H32524   9.926   5.669   7.902 -1.7914 -0.5622  1.2382
  241MOL0     H32525   9.909   5.836   7.722 -1.6358 -1.6269 -1.2332
  241MOL0     H32526   9.845   5.947   7.848 -0.9519  0.4452  1.5043
  241MOL0     H32527   9.645   5.786   7.871 -0.6844  0.5317 -0.9467
  241MOL0     H32528   9.707   5.712   7.719 -0.4446 -0.2317  0.5422
  241MOL0     H32529   9.627   6.006   7.771 -0.2589 -0.7053  0.1311
  241MOL0     H32530   9.704   5.950   7.620 -2.2461  0.5376 -1.3189
  241MOL0     H32531   9.321   5.815   7.548 -1.0859 -1.9024  2.3846
  241MOL0     H32532  10.216   5.865   8.061 -3.6154  0.1703 -1.0727
  241MOL0     H32533  10.456   5.789   8.316 -1.5654 -0.4537  1.5282
  241MOL0     H32534  10.420   5.918   8.210  1.7277 -1.2835 -0.2500
  241MOL0     H32535  10.375   5.928   8.379  1.4439 -0.3105  0.2759
  242MOL0     O32536   4.230   2.327   7.893 -0.0464  0.1544  0.2968
  242MOL0     C32537   4.214   2.208   7.876  0.0095  0.2999 -0.3138
  242MOL0     O32538   4.307   2.120   7.846 -0.0311 -0.9842  0.9785
  242MOL0     C32539   4.428   2.170   7.820 -0.4844 -0.4026  0.3593
  242MOL0     C32540   4.528   2.205   7.914  0.2318 -0.0560 -0.5911
  242MOL0     C32541   4.650   2.261   7.877 -0.0877  0.2130  0.2099
  242MOL0     C32542   4.673   2.311   7.749  0.4781  0.5263  0.3318
  242MOL0     O32543   4.780   2.384   7.704  0.1723 -0.6549 -0.2067
  242MOL0     C32544   4.912   2.353   7.760  0.1183  0.0924 -0.2944
  242MOL0     C32545   5.025   2.359   7.654 -0.2770  0.2817  0.0262
  242MOL0     C32546   5.145   2.273   7.703 -0.3443 -0.2473 -0.2252
  242MOL0     C32547   5.255   2.277   7.603 -0.6823  0.7125  0.2049
  242MOL0     C32548   5.217   2.218   7.466 -0.2635 -0.3986 -0.7671
  242MOL0     C32549   5.150   2.081   7.472 -0.3789 -0.0302 -0.4771
  242MOL0     C32550   5.198   1.995   7.357 -0.4424 -0.8937 -0.0583
  242MOL0     C32551   5.099   1.878   7.338 -0.2671  0.5300 -0.2973
  242MOL0     N32552   4.968   1.902   7.273  0.3142 -0.1214 -0.4369
  242MOL0     C32553   4.856   1.962   7.332 -1.1653  0.0463  0.0420
  242MOL0     C32554   4.780   1.989   7.228 -0.3816  0.0078 -0.8186
  242MOL0     C32555   4.653   2.058   7.224  0.1631  0.5468 -0.1239
  242MOL0     C32556   4.556   2.012   7.325  0.3302 -0.3010 -0.5838
  242MOL0     C32557   4.438   1.931   7.269  0.6850  0.4166  0.1030
  242MOL0     C32558   4.352   1.845   7.366 -0.3779 -0.3404 -0.7097
  242MOL0     O32559   4.262   1.938   7.424 -0.5366  0.6919  0.2266
  242MOL0     C32560   4.160   1.886   7.505 -0.3517  0.5437 -1.1138
  242MOL0     C32561   4.059   1.972   7.547 -0.3846 -0.7564 -0.1348
  242MOL0     C32562   3.941   1.922   7.602  0.1112  0.1584  0.3978
  242MOL0     C32563   3.926   1.781   7.630  0.6485 -0.4732  0.5963
  242MOL0     C32564   3.804   1.721   7.699  0.0361 -0.5429  0.4326
  242MOL0     O32565   3.794   1.580   7.691 -0.1507 -0.7499  0.3496
  242MOL0     C32566   3.681   1.523   7.743  0.7164  0.1451  0.1690
  242MOL0     C32567   3.609   1.443   7.652 -0.0804 -0.2785  0.1560
  242MOL0     C32568   3.488   1.380   7.698 -0.6503  0.2186  0.2289
  242MOL0     C32569   3.453   1.384   7.828  0.0971  0.0643  0.5283
  242MOL0     O32570   3.331   1.351   7.874 -0.1482 -0.1365 -0.3977
  242MOL0     C32571   3.241   1.273   7.802 -0.0894 -0.2244  0.1205
  242MOL0     C32572   3.146   1.212   7.913  0.5579 -0.5794 -0.5206
  242MOL0     C32573   3.065   1.332   7.955  0.7895 -1.0934  0.2183
  242MOL0     C32574   2.969   1.289   8.061 -0.0903  0.7324  1.0962
  242MOL0     C32575   2.873   1.405   8.102 -0.2052  0.3385 -0.1606
  242MOL0     C32576   2.822   1.400   8.252  0.8451  0.3875 -0.1062
  242MOL0     C32577   2.948   1.414   8.340 -0.1258  0.1693 -0.1174
  242MOL0     C32578   2.917   1.468   8.480 -0.3015  1.0692 -0.3318
  242MOL0    Cl32579   2.831   1.334   8.568 -0.2762  0.0159 -0.0968
  242MOL0     C32580   3.526   1.465   7.920  0.0559 -0.1955 -0.4545
  242MOL0     C32581   3.639   1.534   7.877  1.3589 -0.3746 -0.0724
  242MOL0     O32582   3.713   1.798   7.733  0.2261  0.1307 -0.2899
  242MOL0     C32583   4.030   1.697   7.595  0.1720 -0.5525  0.4396
  242MOL0     C32584   4.151   1.753   7.546 -0.2950  0.4243 -0.3945
  242MOL0     N32585   4.839   1.945   7.111 -0.0041  0.4255 -0.3370
  242MOL0     N32586   4.948   1.891   7.142 -0.2441 -0.6705 -0.5420
  242MOL0     C32587   4.577   2.277   7.650 -0.5114  0.2160 -0.2872
  242MOL0     C32588   4.463   2.200   7.687  0.7700  0.4241 -1.0906
  242MOL0     C32589   4.079   2.155   7.906  0.7907  0.4683  0.2568
  242MOL0     C32590   4.062   2.016   7.927  0.0369 -0.2973 -0.0113
  242MOL0     C32591   3.934   1.963   7.958 -0.5918 -1.3242 -0.1249
  242MOL0     C32592   3.819   2.036   7.974  0.7108 -0.4395 -0.0849
  242MOL0     O32593   3.717   1.975   8.026  0.6173  0.0810 -0.2669
  242MOL0     C32594   3.604   2.061   8.070 -0.4062  0.5277  0.1986
  242MOL0     C32595   3.483   1.990   8.140  0.7159  0.4256 -0.6180
  242MOL0     C32596   3.423   1.879   8.045 -0.0907 -0.1421 -0.6186
  242MOL0     C32597   3.358   1.768   8.131  1.0221  0.1437  0.5562
  242MOL0     C32598   3.247   1.799   8.213 -0.6511 -0.2922  0.1372
  242MOL0     C32599   3.140   1.812   8.268  0.2174 -0.1362 -0.1465
  242MOL0     C32600   3.834   2.180   7.952  0.8287  0.9267  0.2532
  242MOL0     C32601   3.960   2.238   7.919  0.1668  0.2988 -0.7514
  242MOL0     C32602   3.958   2.389   7.899 -0.8829 -0.3480  0.5264
  242MOL0     H32603   4.519   2.173   8.017  0.4944  1.1103 -0.1932
  242MOL0     H32604   4.728   2.270   7.952  1.1899 -3.8301 -0.4064
  242MOL0     H32605   4.947   2.429   7.830  3.8949  1.4470 -3.2643
  242MOL0     H32606   4.904   2.252   7.801 -0.7888 -0.6792 -2.2209
  242MOL0     H32607   5.050   2.465   7.660  0.5286  0.0377  2.0280
  242MOL0     H32608   4.996   2.327   7.554  0.4849 -3.2913  0.8056
  242MOL0     H32609   5.114   2.169   7.713 -0.3735 -0.3754 -1.5262
  242MOL0     H32610   5.167   2.319   7.800  0.8484  0.9394 -1.0320
  242MOL0     H32611   5.284   2.382   7.596  1.8997  0.4824  4.4330
  242MOL0     H32612   5.339   2.220   7.643 -1.0599 -1.6783 -2.1327
  242MOL0     H32613   5.150   2.288   7.416  0.8028 -1.6549 -4.2385
  242MOL0     H32614   5.304   2.209   7.399  0.7929  1.1294  0.3228
  242MOL0     H32615   5.188   2.026   7.559 -1.1686  1.2340  0.7041
  242MOL0     H32616   5.042   2.090   7.486 -0.3321 -1.7437  1.5874
  242MOL0     H32617   5.291   1.941   7.376 -0.4735 -0.4629  1.4101
  242MOL0     H32618   5.207   2.048   7.262 -0.9732  0.9931  0.8977
  242MOL0     H32619   5.151   1.812   7.268  0.3848  0.9917 -0.2595
  242MOL0     H32620   5.088   1.831   7.437 -0.2969  1.4047  0.1227
  242MOL0     H32621   4.839   1.983   7.437  1.9832 -0.3935  0.7207
  242MOL0     H32622   4.672   2.164   7.243 -0.7461  0.4973  1.1667
  242MOL0     H32623   4.608   2.053   7.125  0.0823  1.2254 -0.1288
  242MOL0     H32624   4.608   1.950   7.399  1.4652  1.1931 -0.0690
  242MOL0     H32625   4.522   2.099   7.383 -0.9495 -1.3866  0.3340
  242MOL0     H32626   4.469   1.879   7.178  0.6209  1.0166 -0.2653
  242MOL0     H32627   4.363   1.997   7.223  0.0362  0.0011  0.5391
  242MOL0     H32628   4.416   1.800   7.442  2.2571  2.4008 -1.0940
  242MOL0     H32629   4.295   1.768   7.314 -0.0506 -0.2863 -1.1520
  242MOL0     H32630   4.073   2.080   7.539  0.1318 -0.9301 -2.1509
  242MOL0     H32631   3.856   1.980   7.638  0.2194  1.3721 -1.2231
  242MOL0     H32632   3.630   1.439   7.546 -4.2646  1.2232 -0.9430
  242MOL0     H32633   3.424   1.333   7.624  1.0812  0.4313 -1.4636
  242MOL0     H32634   3.193   1.344   7.734 -1.7147 -0.9970  0.4100
  242MOL0     H32635   3.299   1.196   7.749  1.5010  1.8523 -1.3119
  242MOL0     H32636   3.071   1.138   7.882  0.2122 -0.4102 -0.0857
  242MOL0     H32637   3.205   1.166   7.993 -1.2579 -0.3411  1.0143
  242MOL0     H32638   3.128   1.414   7.992  1.5599 -0.6998 -1.8545
  242MOL0     H32639   3.008   1.383   7.877 -0.7050  2.3817  3.2473
  242MOL0     H32640   3.031   1.245   8.140 -0.0239 -1.1738  0.0475
  242MOL0     H32641   2.911   1.206   8.021  0.3803  1.5594 -1.4526
  242MOL0     H32642   2.788   1.417   8.034  1.1348 -0.4718 -2.0523
  242MOL0     H32643   2.925   1.498   8.080 -2.5259  2.0147  1.0255
  242MOL0     H32644   2.749   1.482   8.260 -0.5799 -0.9399  1.1785
  242MOL0     H32645   2.756   1.313   8.261  0.7550  0.1169 -2.5705
  242MOL0     H32646   3.014   1.489   8.296  0.8038 -0.5872 -0.0420
  242MOL0     H32647   2.999   1.317   8.340 -1.7001 -0.7377 -2.1222
  242MOL0     H32648   3.012   1.505   8.521 -1.1158 -0.8746  3.9510
  242MOL0     H32649   2.848   1.550   8.458 -1.5630  0.2802  0.5393
  242MOL0     H32650   3.475   1.470   8.016 -0.8157 -0.7720 -0.8703
  242MOL0     H32651   3.695   1.597   7.946 -0.5536  1.4614 -0.1000
  242MOL0     H32652   4.024   1.591   7.617  2.4387 -1.0333 -0.9877
  242MOL0     H32653   4.227   1.679   7.523 -0.0711 -0.2086  2.0974
  242MOL0     H32654   4.592   2.316   7.550 -2.4718  1.9766  0.0353
  242MOL0     H32655   4.398   2.177   7.603 -0.2694  2.4563 -0.8816
  242MOL0     H32656   4.133   1.934   7.918 -2.6539 -2.6876 -0.7686
  242MOL0     H32657   3.933   1.855   7.971  0.8808 -1.5755 -1.7224
  242MOL0     H32658   3.561   2.112   7.983 -0.1190  1.1818  0.4307
  242MOL0     H32659   3.639   2.137   8.140  0.5776 -0.2784  0.6112
  242MOL0     H32660   3.408   2.068   8.154  1.2291  0.8227 -0.0057
  242MOL0     H32661   3.515   1.938   8.231 -0.9639 -0.7198 -0.6532
  242MOL0     H32662   3.509   1.839   7.990 -0.2305  0.0507 -0.9809
  242MOL0     H32663   3.352   1.924   7.974 -0.1138  1.8493  0.5782
  242MOL0     H32664   3.319   1.682   8.076 -0.1751  1.8517 -1.3968
  242MOL0     H32665   3.433   1.729   8.200  1.1272  3.6446  2.6904
  242MOL0     H32666   3.051   1.838   8.322  1.5837  2.6541  1.0055
  242MOL0     H32667   3.747   2.245   7.963 -0.4923 -0.6613 -0.2796
  242MOL0     H32668   3.854   2.420   7.884 -1.3582 -2.0225  0.1715
  242MOL0     H32669   3.996   2.451   7.981 -0.7170  4.4152 -2.7000
  242MOL0     H32670   4.018   2.427   7.815 -2.5985  1.0814 -0.1103
  243MOL0     O32671  10.196  10.984   3.504 -0.4418  0.0907 -0.3263
  243MOL0     C32672  10.138  10.959   3.400 -0.7774  0.2379 -0.3521
  243MOL0     O32673  10.201  10.957   3.277  1.3725 -0.3043  0.1914
  243MOL0     C32674  10.329  10.996   3.276 -0.2185 -0.4545  0.1694
  243MOL0     C32675  10.419  10.890   3.273  0.3148 -0.5193 -1.0128
  243MOL0     C32676  10.554  10.905   3.291  0.3822  0.0580  0.5683
  243MOL0     C32677  10.598  11.035   3.294 -0.8661  1.3478 -0.5023
  243MOL0     O32678  10.723  11.083   3.324 -0.0274  0.0273 -0.0440
  243MOL0     C32679  10.827  10.990   3.364 -0.1580 -0.3453 -0.3329
  243MOL0     C32680  10.939  11.061   3.445  0.4975 -0.2761 -0.0124
  243MOL0     C32681  11.020  11.147   3.341 -0.1028 -0.4373  0.2508
  243MOL0     C32682  11.107  11.252   3.408  0.7240  0.1594 -0.2946
  243MOL0     C32683  11.224  11.190   3.480  0.2054  0.0536  0.3003
  243MOL0     C32684  11.348  11.263   3.432  0.0098 -0.0998  0.3073
  243MOL0     C32685  11.483  11.220   3.510  0.0271  0.3837  0.0916
  243MOL0     C32686  11.609  11.253   3.427 -0.1558 -0.1618  0.0353
  243MOL0     N32687  11.614  11.392   3.376 -0.0999  0.7160 -0.5341
  243MOL0     C32688  11.655  11.490   3.454 -0.0022 -1.1261 -0.1129
  243MOL0     C32689  11.642  11.608   3.392 -0.3899 -0.3402  0.4187
  243MOL0     C32690  11.702  11.734   3.455  0.4574  0.0314  0.4099
  243MOL0     C32691  11.772  11.828   3.360 -0.8506 -0.2892 -0.2911
  243MOL0     C32692  11.886  11.759   3.291 -0.1928 -0.4543 -0.5427
  243MOL0     C32693  11.969  11.865   3.216  0.3173 -1.2571  0.1433
  243MOL0     O32694  12.023  11.957   3.316  0.0417  0.4587  1.0576
  243MOL0     C32695  12.152  11.939   3.367  0.0213  0.5572  0.4146
  243MOL0     C32696  12.244  11.845   3.321 -0.5481 -0.6692  0.2459
  243MOL0     C32697  12.372  11.832   3.372  0.5098  0.0161 -0.0775
  243MOL0     C32698  12.420  11.923   3.465 -0.5048 -0.0718  0.4293
  243MOL0     C32699  12.563  11.921   3.520 -0.1382 -0.0767  0.7132
  243MOL0     O32700  12.631  11.802   3.489  0.0597 -0.0284 -0.0988
  243MOL0     C32701  12.756  11.788   3.542 -0.1268 -0.4895 -0.5781
  243MOL0     C32702  12.865  11.880   3.517 -0.7313 -0.0957  0.4381
  243MOL0     C32703  13.003  11.838   3.523  0.3109 -0.6029  0.3588
  243MOL0     C32704  13.038  11.710   3.556 -0.2462  0.4160 -0.1424
  243MOL0     O32705  13.173  11.672   3.551  0.4370  0.2571  0.0001
  243MOL0     C32706  13.229  11.616   3.672  0.4678 -0.1732  1.0830
  243MOL0     C32707  13.381  11.623   3.653  0.8328 -0.4938 -0.4569
  243MOL0     C32708  13.421  11.525   3.552  0.1119  0.3892  0.2783
  243MOL0     C32709  13.571  11.508   3.540 -0.6077 -0.0302  0.2724
  243MOL0     C32710  13.639  11.621   3.471  0.3104  0.8242 -0.5119
  243MOL0     C32711  13.785  11.580   3.441 -0.2270  0.1756 -0.3349
  243MOL0     C32712  13.869  11.691   3.368 -0.0313 -0.3321 -0.9143
  243MOL0     C32713  13.832  11.716   3.222 -0.3092  0.6253 -0.6988
  243MOL0    Cl32714  13.935  11.855   3.151  0.4252  0.1010  0.1091
  243MOL0     C32715  12.931  11.618   3.588  0.3214  0.0345  0.5031
  243MOL0     C32716  12.796  11.661   3.574 -0.3130  0.5600 -0.2572
  243MOL0     O32717  12.606  12.008   3.602  0.8081 -0.3353 -0.2621
  243MOL0     C32718  12.343  12.030   3.498 -0.1888 -0.2623 -0.2705
  243MOL0     C32719  12.206  12.038   3.455  0.4541  0.5136  0.1477
  243MOL0     N32720  11.602  11.576   3.266  0.2230 -0.2081  1.4578
  243MOL0     N32721  11.582  11.447   3.263  0.7095 -0.6751  1.2207
  243MOL0     C32722  10.513  11.145   3.282  0.5426  0.4798 -0.9867
  243MOL0     C32723  10.372  11.127   3.277  0.0321 -1.1115 -1.0068
  243MOL0     C32724   9.995  10.933   3.411  1.3146 -0.3615 -0.8881
  243MOL0     C32725   9.926  10.919   3.292 -0.0414  0.1509 -0.2988
  243MOL0     C32726   9.789  10.876   3.276 -1.1396 -1.6094  1.2268
  243MOL0     C32727   9.713  10.850   3.394 -0.6879 -0.4562  0.7717
  243MOL0     O32728   9.579  10.818   3.391  0.3097  0.7425 -0.0602
  243MOL0     C32729   9.523  10.778   3.267 -0.3678  0.7296 -0.1345
  243MOL0     C32730   9.381  10.730   3.284 -0.9312 -0.0390 -0.4004
  243MOL0     C32731   9.316  10.621   3.190 -0.1804  0.3043  0.2116
  243MOL0     C32732   9.156  10.631   3.197 -0.0726  0.5851 -0.3228
  243MOL0     C32733   9.092  10.639   3.332  0.5739  0.3972  0.0362
  243MOL0     C32734   9.043  10.636   3.441  0.1581  0.8089 -0.8803
  243MOL0     C32735   9.782  10.853   3.515  0.3475  0.7170 -0.5672
  243MOL0     C32736   9.920  10.901   3.527 -0.0572  1.1872  0.3561
  243MOL0     C32737   9.984  10.901   3.662  0.0661 -0.4966  0.4007
  243MOL0     H32738  10.375  10.794   3.248 -1.4811 -0.9296  2.9818
  243MOL0     H32739  10.611  10.812   3.286 -1.4252 -1.0218 -1.7282
  243MOL0     H32740  10.780  10.912   3.424  0.6120  0.8903  1.9832
  243MOL0     H32741  10.872  10.944   3.275 -2.9122 -1.7672 -1.1125
  243MOL0     H32742  11.002  10.984   3.492  1.7942 -0.6100 -2.1423
  243MOL0     H32743  10.904  11.122   3.528  0.0343 -0.1126 -0.3296
  243MOL0     H32744  10.950  11.207   3.281 -0.1131  0.5007  1.1722
  243MOL0     H32745  11.080  11.081   3.278 -0.1466  0.9456 -1.3318
  243MOL0     H32746  11.135  11.329   3.335 -1.1286 -2.8518 -4.5716
  243MOL0     H32747  11.050  11.297   3.490 -0.7358 -1.1247 -0.5744
  243MOL0     H32748  11.215  11.196   3.589 -0.7631  1.0090  0.1861
  243MOL0     H32749  11.252  11.089   3.447 -1.7599  0.5665 -3.6315
  243MOL0     H32750  11.368  11.250   3.325  2.5174  2.2537  0.3748
  243MOL0     H32751  11.333  11.371   3.446  2.7636  0.2464  1.2317
  243MOL0     H32752  11.477  11.116   3.542  0.4810 -0.3425 -2.0138
  243MOL0     H32753  11.475  11.277   3.603 -0.6699  0.0583  0.2432
  243MOL0     H32754  11.696  11.240   3.491 -0.6107  0.5992  0.8278
  243MOL0     H32755  11.615  11.178   3.347 -0.3777 -0.8156  0.6138
  243MOL0     H32756  11.688  11.469   3.555 -1.0678  1.1701  0.7997
  243MOL0     H32757  11.622  11.795   3.499  0.9853  0.0284  1.3992
  243MOL0     H32758  11.761  11.703   3.541  1.5819  0.3255 -0.2336
  243MOL0     H32759  11.697  11.861   3.288 -0.8975  3.0909  1.1359
  243MOL0     H32760  11.804  11.905   3.430 -1.1675 -1.0683  0.7355
  243MOL0     H32761  11.856  11.696   3.207  0.8004 -1.0132 -0.4907
  243MOL0     H32762  11.944  11.705   3.366 -2.8852 -2.6251  0.1419
  243MOL0     H32763  11.908  11.920   3.144 -0.4806 -1.6540  0.5093
  243MOL0     H32764  12.041  11.800   3.165 -0.7704 -1.2414 -1.4922
  243MOL0     H32765  12.219  11.765   3.252 -0.4746 -0.7326  0.2924
  243MOL0     H32766  12.436  11.748   3.347  0.5600 -0.3048  1.0736
  243MOL0     H32767  12.842  11.982   3.486  0.1674 -0.0934 -0.2483
  243MOL0     H32768  13.072  11.913   3.486 -0.9638  0.1426 -0.6052
  243MOL0     H32769  13.202  11.678   3.758  1.0045  0.7744  0.5907
  243MOL0     H32770  13.203  11.511   3.683 -0.5354 -0.0292  0.2114
  243MOL0     H32771  13.410  11.726   3.629 -0.2460 -0.6090 -2.4978
  243MOL0     H32772  13.428  11.591   3.746 -0.9526 -0.5257  0.4702
  243MOL0     H32773  13.390  11.426   3.586  0.1740  0.3180  0.1254
  243MOL0     H32774  13.370  11.541   3.457 -0.8413 -0.8056  0.5727
  243MOL0     H32775  13.601  11.412   3.498  0.2693 -0.5735  2.0612
  243MOL0     H32776  13.620  11.502   3.637  1.1969  0.8851 -0.5368
  243MOL0     H32777  13.656  11.703   3.541 -0.1926 -0.0930  0.7100
  243MOL0     H32778  13.587  11.654   3.380  0.1090  0.4520 -0.5328
  243MOL0     H32779  13.825  11.561   3.541 -0.5301 -2.5675 -0.6581
  243MOL0     H32780  13.799  11.495   3.373 -0.1165  0.9933 -1.3575
  243MOL0     H32781  13.973  11.659   3.376 -0.7097 -2.2779  1.1394
  243MOL0     H32782  13.859  11.790   3.415 -0.4417 -1.1584  0.8279
  243MOL0     H32783  13.839  11.622   3.167 -1.1120 -1.2895  2.2376
  243MOL0     H32784  13.725  11.740   3.223 -0.6445 -0.6364 -2.7178
  243MOL0     H32785  12.950  11.513   3.611 -0.3934 -0.3875 -0.6971
  243MOL0     H32786  12.717  11.588   3.585 -0.1288  0.6689  2.3113
  243MOL0     H32787  12.385  12.111   3.556 -2.8946  3.2833 -2.8158
  243MOL0     H32788  12.155  12.130   3.484  0.6672  0.8241 -0.4570
  243MOL0     H32789  10.554  11.246   3.285 -3.1461  2.1401  0.3252
  243MOL0     H32790  10.311  11.216   3.268  0.3103 -0.5865  1.5482
  243MOL0     H32791   9.981  10.940   3.201  1.5494 -0.7415  0.4214
  243MOL0     H32792   9.753  10.849   3.178 -2.1818 -1.3140  1.5215
  243MOL0     H32793   9.577  10.697   3.218  0.5899  2.3749 -1.9183
  243MOL0     H32794   9.521  10.861   3.195  0.1493 -0.0982 -1.1300
  243MOL0     H32795   9.320  10.821   3.278  1.6350  1.7226 -1.4498
  243MOL0     H32796   9.376  10.698   3.388  1.0039  0.5718 -0.0916
  243MOL0     H32797   9.354  10.520   3.212 -0.8816  0.3095  1.6106
  243MOL0     H32798   9.353  10.651   3.092 -0.8536 -1.8331 -0.7751
  243MOL0     H32799   9.124  10.714   3.134 -3.7424 -0.0477  0.4813
  243MOL0     H32800   9.111  10.547   3.144  0.2807  1.1933 -1.6433
  243MOL0     H32801   8.998  10.642   3.538  1.5379  1.4660 -0.2554
  243MOL0     H32802   9.730  10.839   3.609  0.6530  1.1301 -0.3296
  243MOL0     H32803   9.908  10.875   3.736 -2.8591  1.8360 -1.4849
  243MOL0     H32804  10.061  10.825   3.673 -0.3310 -1.5660 -2.8934
  243MOL0     H32805  10.024  11.002   3.678  3.4708 -1.2524 -2.1559
  244MOL0     O32806   4.037  10.315   3.039 -0.1101 -1.3731  0.4221
  244MOL0     C32807   4.060  10.437   3.060 -0.3110  0.4135  0.8835
  244MOL0     O32808   4.183  10.494   3.043 -0.4398  0.3178 -0.8640
  244MOL0     C32809   4.303  10.427   3.027 -0.3168 -0.7868  0.1682
  244MOL0     C32810   4.407  10.510   2.981  0.2087 -0.6140  0.1028
  244MOL0     C32811   4.530  10.461   2.954  0.1773 -0.1211 -0.2165
  244MOL0     C32812   4.566  10.332   2.988  0.0286 -1.1542 -0.4387
  244MOL0     O32813   4.701  10.300   2.986  0.0610 -0.0907 -0.0750
  244MOL0     C32814   4.763  10.269   3.109  0.5884  0.3815 -1.0102
  244MOL0     C32815   4.908  10.330   3.097 -0.1577 -0.0784  0.7864
  244MOL0     C32816   5.006  10.224   3.038  0.6816  0.4212  0.3245
  244MOL0     C32817   5.136  10.303   3.017 -0.0307  0.7476  0.0303
  244MOL0     C32818   5.245  10.218   2.941 -0.3903  0.1015 -0.8530
  244MOL0     C32819   5.375  10.306   2.940  0.4678  0.0668  0.8342
  244MOL0     C32820   5.470  10.258   2.833 -0.7171 -1.3799  0.6473
  244MOL0     C32821   5.595  10.350   2.851 -0.0057 -0.0787 -0.1031
  244MOL0     N32822   5.657  10.382   2.717  0.2458 -0.1338  0.6639
  244MOL0     C32823   5.704  10.294   2.623  0.2803  0.4098 -0.4237
  244MOL0     C32824   5.734  10.377   2.521  0.2661 -0.1724  0.5478
  244MOL0     C32825   5.768  10.320   2.388 -0.3395  0.4274  0.4463
  244MOL0     C32826   5.919  10.297   2.379  0.0625 -0.1708 -0.6891
  244MOL0     C32827   5.964  10.242   2.242  0.3942 -0.1186 -0.2547
  244MOL0     C32828   6.113  10.189   2.252 -0.7134 -0.1352  0.6189
  244MOL0     O32829   6.191  10.289   2.324 -0.0152 -0.5241  0.0466
  244MOL0     C32830   6.323  10.294   2.306  0.5379  0.0611 -0.3975
  244MOL0     C32831   6.395  10.237   2.202  0.2771 -0.9617  0.4866
  244MOL0     C32832   6.530  10.254   2.191  0.6694  0.4242 -0.6905
  244MOL0     C32833   6.601  10.325   2.285 -0.7408 -0.2583 -0.0080
  244MOL0     C32834   6.747  10.336   2.278 -0.2596 -0.2214 -0.2705
  244MOL0     O32835   6.798  10.318   2.148  0.4480 -0.6397 -0.7075
  244MOL0     C32836   6.931  10.294   2.134  0.1588 -0.7727 -0.2591
  244MOL0     C32837   7.021  10.404   2.122  0.3019 -0.2463 -0.1328
  244MOL0     C32838   7.162  10.379   2.111  0.9871 -0.7066 -0.3120
  244MOL0     C32839   7.211  10.253   2.109  0.5246  0.0241 -0.3267
  244MOL0     O32840   7.340  10.216   2.130 -0.1409 -0.4529 -0.2479
  244MOL0     C32841   7.441  10.323   2.113  0.1912  0.8434  0.0990
  244MOL0     C32842   7.586  10.274   2.110 -0.0388 -0.0222  0.4283
  244MOL0     C32843   7.679  10.393   2.139 -0.3853 -0.1141 -0.4274
  244MOL0     C32844   7.701  10.478   2.017 -0.3776  0.0394  0.0729
  244MOL0     C32845   7.792  10.590   2.058  0.1342 -0.0566  0.2369
  244MOL0     C32846   7.880  10.636   1.943  0.5229  0.2306 -0.2256
  244MOL0     C32847   7.949  10.765   1.965  0.8194  1.0119  0.3292
  244MOL0     C32848   8.040  10.799   1.848 -1.1560 -0.9794  0.3386
  244MOL0    Cl32849   8.181  10.694   1.859 -0.7624  0.2322 -0.1397
  244MOL0     C32850   7.123  10.144   2.124  0.1120 -0.3587  0.0133
  244MOL0     C32851   6.990  10.170   2.139 -0.5553 -0.1292  0.1442
  244MOL0     O32852   6.810  10.348   2.382 -0.6857 -0.2722  0.7414
  244MOL0     C32853   6.521  10.373   2.391 -0.7708 -0.8747  0.2913
  244MOL0     C32854   6.389  10.362   2.400 -0.3053 -0.5992 -1.1495
  244MOL0     N32855   5.699  10.505   2.546  0.0378  0.1699 -0.6084
  244MOL0     N32856   5.654  10.511   2.664  0.2307  0.6900  0.3182
  244MOL0     C32857   4.469  10.246   3.056  0.0989 -0.1351 -0.1174
  244MOL0     C32858   4.335  10.297   3.067 -0.3585  1.0765  0.6642
  244MOL0     C32859   3.951  10.528   3.105  0.1441  0.9635  0.5722
  244MOL0     C32860   3.987  10.656   3.153  0.2849  0.5599  1.0308
  244MOL0     C32861   3.889  10.757   3.148  0.5319 -0.6237  0.5705
  244MOL0     C32862   3.757  10.742   3.109  0.1048  0.7923 -0.4722
  244MOL0     O32863   3.649  10.828   3.121 -0.0559  0.2562 -1.0260
  244MOL0     C32864   3.682  10.967   3.169  0.7184  0.1489 -0.1300
  244MOL0     C32865   3.547  11.044   3.196 -0.6178 -0.0504 -0.5898
  244MOL0     C32866   3.462  11.091   3.077 -0.0786  0.7331  0.3263
  244MOL0     C32867   3.316  11.118   3.104 -0.4408 -0.3611 -0.5259
  244MOL0     C32868   3.247  11.002   3.152 -0.0592  0.2848  0.1447
  244MOL0     C32869   3.191  10.915   3.204 -0.1491  0.0520 -0.7817
  244MOL0     C32870   3.729  10.617   3.072  0.0463 -0.7558  0.3395
  244MOL0     C32871   3.816  10.506   3.081  0.7795 -0.4834  0.5645
  244MOL0     C32872   3.760  10.367   3.069  0.9426  0.6002 -0.2774
  244MOL0     H32873   4.374  10.603   2.937 -4.0587 -0.3841  3.0772
  244MOL0     H32874   4.605  10.524   2.908  1.6954 -1.3467  0.4922
  244MOL0     H32875   4.727  10.332   3.190 -0.4279  1.7714 -2.4709
  244MOL0     H32876   4.768  10.169   3.153  3.7376 -0.5388 -3.0776
  244MOL0     H32877   4.938  10.375   3.192  1.5348  0.9916 -0.1948
  244MOL0     H32878   4.907  10.417   3.031  1.6110 -0.0315  0.7629
  244MOL0     H32879   4.962  10.197   2.942  0.2986 -0.8193  0.8249
  244MOL0     H32880   5.023  10.141   3.107  0.7031 -1.2609 -1.6320
  244MOL0     H32881   5.124  10.399   2.967  1.0936  0.1229 -1.5113
  244MOL0     H32882   5.176  10.330   3.115 -0.9873 -4.1740  2.0690
  244MOL0     H32883   5.266  10.119   2.982 -1.0517  0.9840  1.8078
  244MOL0     H32884   5.204  10.197   2.842  0.0622 -0.5528 -0.9057
  244MOL0     H32885   5.351  10.412   2.925  0.4873  0.0501  0.6886
  244MOL0     H32886   5.432  10.306   3.034  2.0595  1.4135 -0.0577
  244MOL0     H32887   5.436  10.266   2.730  0.5324 -2.9759  0.0655
  244MOL0     H32888   5.505  10.160   2.865  2.5134 -0.0660  1.6008
  244MOL0     H32889   5.578  10.437   2.914 -0.4897 -0.1666 -0.1096
  244MOL0     H32890   5.669  10.287   2.901 -1.0792 -1.5408 -0.3001
  244MOL0     H32891   5.715  10.186   2.625  0.5865  0.4388  1.3753
  244MOL0     H32892   5.714  10.226   2.370  0.4411 -0.2435  1.5559
  244MOL0     H32893   5.734  10.391   2.312 -0.6075  0.0962  0.2530
  244MOL0     H32894   5.960  10.397   2.397 -0.2023 -0.1655 -0.1111
  244MOL0     H32895   5.946  10.214   2.444 -0.1430  1.4119  1.5361
  244MOL0     H32896   5.948  10.319   2.166 -2.6507  0.6250  0.9798
  244MOL0     H32897   5.896  10.164   2.206  1.4136 -1.8212  1.3489
  244MOL0     H32898   6.149  10.170   2.150 -1.5965  0.5628  0.1614
  244MOL0     H32899   6.132  10.090   2.296  3.8355 -0.2141 -0.9795
  244MOL0     H32900   6.356  10.181   2.118 -0.3623  3.8019 -2.7535
  244MOL0     H32901   6.571  10.195   2.109  0.4191  0.3834 -0.7872
  244MOL0     H32902   6.990  10.508   2.118  1.0736  0.1090  1.8515
  244MOL0     H32903   7.230  10.463   2.101 -0.4272  0.2790 -2.4960
  244MOL0     H32904   7.426  10.383   2.024 -0.7850  3.8143  2.1343
  244MOL0     H32905   7.438  10.389   2.200  2.9934  2.0131 -0.5926
  244MOL0     H32906   7.595  10.206   2.196 -2.8685 -0.1907  0.6864
  244MOL0     H32907   7.614  10.216   2.022 -2.5957 -2.8426  1.2974
  244MOL0     H32908   7.648  10.456   2.223  1.8142 -1.2815  1.3655
  244MOL0     H32909   7.773  10.347   2.169 -0.4667 -0.2617 -0.4035
  244MOL0     H32910   7.605  10.514   1.978  0.6352  0.1925 -2.4848
  244MOL0     H32911   7.741  10.431   1.926  0.3275 -0.3507  0.5797
  244MOL0     H32912   7.862  10.554   2.133  0.0297 -0.8625 -0.0400
  244MOL0     H32913   7.725  10.667   2.096 -0.6858  1.0134 -3.0537
  244MOL0     H32914   7.966  10.569   1.933  3.0798  2.5099  3.6373
  244MOL0     H32915   7.816  10.635   1.854  1.2463 -1.5275 -0.7823
  244MOL0     H32916   8.014  10.753   2.053 -0.1669  0.8300  1.0489
  244MOL0     H32917   7.881  10.850   1.964  0.8119  1.0846 -2.8286
  244MOL0     H32918   7.996  10.783   1.749  1.0510 -1.0811 -0.6930
  244MOL0     H32919   8.072  10.904   1.846 -0.7812 -1.0798  0.9607
  244MOL0     H32920   7.162  10.042   2.130 -1.2076 -0.8412  0.7007
  244MOL0     H32921   6.934  10.079   2.155  1.3357 -2.0698 -3.1054
  244MOL0     H32922   6.567  10.427   2.473  0.5049  0.1901 -1.0662
  244MOL0     H32923   6.328  10.407   2.478  1.7728  0.0000  0.2198
  244MOL0     H32924   4.493  10.144   3.087  0.8115 -0.6123 -2.1114
  244MOL0     H32925   4.266  10.237   3.125 -1.2063  1.5177  0.1293
  244MOL0     H32926   4.089  10.688   3.170 -0.3526  2.6801  1.2589
  244MOL0     H32927   3.928  10.855   3.173 -1.2482 -0.3797  2.7327
  244MOL0     H32928   3.741  11.017   3.091  1.4871  1.2367  1.1041
  244MOL0     H32929   3.740  10.961   3.261 -0.3267  0.1426  0.5336
  244MOL0     H32930   3.577  11.133   3.252 -1.9804  0.1845 -0.1985
  244MOL0     H32931   3.494  10.973   3.261  1.3037  0.1083  1.2743
  244MOL0     H32932   3.465  11.011   3.002  0.3495 -0.8155  1.9322
  244MOL0     H32933   3.508  11.181   3.036 -3.5235  2.4975 -0.0221
  244MOL0     H32934   3.312  11.194   3.182  1.6835  0.5728 -1.2473
  244MOL0     H32935   3.262  11.154   3.015 -1.4363 -0.7768 -0.1092
  244MOL0     H32936   3.128  10.837   3.241 -0.4706  1.2631  1.4425
  244MOL0     H32937   3.631  10.600   3.029  1.2722 -3.8581 -1.5531
  244MOL0     H32938   3.653  10.363   3.091  0.5203  1.2115 -2.0736
  244MOL0     H32939   3.781  10.328   2.969  0.5451 -0.6959  0.1169
  244MOL0     H32940   3.811  10.300   3.140 -3.0349 -3.2453 -0.6208
  245MOL0     O32941   0.514   7.926   4.303 -0.2758 -0.7519 -0.2204
  245MOL0     C32942   0.447   7.893   4.206 -0.7990 -0.0513  0.2413
  245MOL0     O32943   0.488   7.795   4.110 -0.2920 -0.9427 -0.6077
  245MOL0     C32944   0.620   7.757   4.123  0.3330  0.5638  0.3638
  245MOL0     C32945   0.653   7.619   4.133  0.3719 -0.3544  0.0327
  245MOL0     C32946   0.786   7.577   4.128  1.0416 -0.6900  0.1594
  245MOL0     C32947   0.888   7.674   4.115 -0.2397  0.3346 -0.1615
  245MOL0     O32948   1.020   7.645   4.136  0.0275 -0.5822  0.4183
  245MOL0     C32949   1.059   7.517   4.113  0.0532 -0.4069  0.9109
  245MOL0     C32950   1.213   7.495   4.103  0.8394 -0.5861  0.1301
  245MOL0     C32951   1.275   7.545   3.975 -0.5602 -0.2902  0.2464
  245MOL0     C32952   1.368   7.672   4.005  0.0040 -0.2903 -0.4680
  245MOL0     C32953   1.467   7.684   3.894  0.8184  0.2124 -0.0162
  245MOL0     C32954   1.583   7.588   3.923 -0.1466 -0.1745 -0.0592
  245MOL0     C32955   1.711   7.623   3.845 -1.0437  0.5493  0.6848
  245MOL0     C32956   1.705   7.572   3.699 -0.6769  0.1975  0.2709
  245MOL0     N32957   1.843   7.590   3.648 -0.4881  0.2982 -0.0773
  245MOL0     C32958   1.891   7.711   3.615  0.1520 -0.0636 -0.5078
  245MOL0     C32959   2.016   7.689   3.563  1.1190  0.3347 -0.4857
  245MOL0     C32960   2.102   7.808   3.536 -0.8263 -0.3877  0.8592
  245MOL0     C32961   2.251   7.768   3.523 -0.8071  0.4807 -0.7189
  245MOL0     C32962   2.340   7.891   3.488 -0.4244  0.1438  0.2890
  245MOL0     C32963   2.488   7.839   3.478  0.6782  0.2247 -0.2269
  245MOL0     O32964   2.553   7.952   3.423 -0.2793 -0.8041  0.5980
  245MOL0     C32965   2.691   7.969   3.416 -0.4125  0.9218 -0.4229
  245MOL0     C32966   2.735   8.095   3.383 -0.6105 -0.2697  0.1096
  245MOL0     C32967   2.873   8.117   3.379 -0.3888  0.2194  0.2841
  245MOL0     C32968   2.968   8.014   3.403  0.3744  0.6582 -1.2633
  245MOL0     C32969   3.114   8.030   3.381  0.0402  0.0312  0.2979
  245MOL0     O32970   3.195   7.915   3.384  0.1068 -0.2914 -0.0006
  245MOL0     C32971   3.329   7.930   3.354 -0.3752 -0.4865 -0.1720
  245MOL0     C32972   3.415   7.996   3.445  0.4056 -0.3714  0.0081
  245MOL0     C32973   3.553   8.022   3.407  0.2002  0.5939  0.4486
  245MOL0     C32974   3.605   7.962   3.289  0.0723 -0.1166  0.4100
  245MOL0     O32975   3.739   7.977   3.268  0.3776 -1.3320  0.3779
  245MOL0     C32976   3.793   7.846   3.268  0.3031  0.1080 -0.8788
  245MOL0     C32977   3.949   7.844   3.271  0.0622 -0.3382  0.3349
  245MOL0     C32978   4.016   7.927   3.379  1.2939  0.4018  0.6004
  245MOL0     C32979   4.015   8.082   3.357 -0.4442  0.5037  0.1577
  245MOL0     C32980   4.112   8.149   3.454 -0.4348 -0.5313  0.9466
  245MOL0     C32981   4.255   8.117   3.437 -0.7542 -0.6940  0.1182
  245MOL0     C32982   4.347   8.204   3.521 -0.2376  0.6683  0.4847
  245MOL0     C32983   4.487   8.198   3.472  0.7172 -0.3169  0.0880
  245MOL0    Cl32984   4.592   8.287   3.588 -0.4521  0.3674 -0.0231
  245MOL0     C32985   3.524   7.877   3.218 -0.4234  0.7124 -0.0005
  245MOL0     C32986   3.384   7.868   3.243 -0.8236 -0.5209 -0.6452
  245MOL0     O32987   3.147   8.148   3.358  0.0731  0.2743  0.6538
  245MOL0     C32988   2.922   7.889   3.449  0.5822 -0.4826 -0.1439
  245MOL0     C32989   2.783   7.867   3.447  0.2035 -0.6173 -0.4803
  245MOL0     N32990   2.032   7.550   3.549 -0.5963  0.2056 -0.1813
  245MOL0     N32991   1.932   7.488   3.603  0.2810 -0.0254  0.0487
  245MOL0     C32992   0.853   7.806   4.106 -0.1489 -0.7224 -0.0705
  245MOL0     C32993   0.722   7.849   4.097  0.0501 -0.7884  0.2918
  245MOL0     C32994   0.312   7.949   4.198  0.6327  0.1871 -0.0481
  245MOL0     C32995   0.220   7.887   4.111 -0.0802 -0.2724  0.8933
  245MOL0     C32996   0.089   7.944   4.087 -0.6215  0.0428  0.0151
  245MOL0     C32997   0.044   8.057   4.148  0.0045 -0.9056 -0.0867
  245MOL0     O32998  -0.077   8.100   4.104  0.5686  0.4772 -0.1304
  245MOL0     C32999  -0.145   8.213   4.171 -0.3102  0.3213 -0.0090
  245MOL0     C33000  -0.230   8.294   4.079  0.1546  0.3707  0.1723
  245MOL0     C33001  -0.332   8.197   4.010 -0.1284  0.0362 -0.1648
  245MOL0     C33002  -0.424   8.129   4.114 -0.2114  0.9201  0.4019
  245MOL0     C33003  -0.512   8.216   4.195 -0.4823 -0.0960  0.2269
  245MOL0     C33004  -0.568   8.281   4.287  0.6129  1.2052  0.1114
  245MOL0     C33005   0.138   8.125   4.234  0.3345 -0.2406  0.4161
  245MOL0     C33006   0.271   8.079   4.249 -0.2126 -0.2195 -0.2490
  245MOL0     C33007   0.362   8.178   4.324  0.3449  0.8127  0.2230
  245MOL0     H33008   0.571   7.550   4.149  0.0899 -0.1013 -0.3011
  245MOL0     H33009   0.794   7.470   4.147  1.1997 -0.6131  0.5358
  245MOL0     H33010   1.028   7.456   4.199 -0.3703  0.7240  1.5708
  245MOL0     H33011   1.015   7.477   4.021 -0.8904  0.4520  0.9849
  245MOL0     H33012   1.220   7.387   4.111  0.2494 -0.7025 -0.7912
  245MOL0     H33013   1.261   7.543   4.189  0.1807  2.0107 -0.8523
  245MOL0     H33014   1.199   7.569   3.900 -1.7133 -2.4269  0.6752
  245MOL0     H33015   1.330   7.460   3.935 -0.1747  0.1316 -0.1382
  245MOL0     H33016   1.308   7.763   4.008  0.5164  0.2170 -3.3901
  245MOL0     H33017   1.420   7.670   4.101  1.2955  0.4219 -1.1322
  245MOL0     H33018   1.425   7.670   3.793  0.6857  1.0898 -0.0929
  245MOL0     H33019   1.507   7.784   3.908 -1.1231  0.6303  3.7154
  245MOL0     H33020   1.612   7.596   4.028  1.0815  1.4833 -0.4669
  245MOL0     H33021   1.561   7.483   3.901 -1.1885  0.2907 -1.3961
  245MOL0     H33022   1.800   7.588   3.898  0.9863  2.7496 -1.0648
  245MOL0     H33023   1.725   7.731   3.845  0.9030  0.3231  1.5971
  245MOL0     H33024   1.671   7.468   3.694  2.2013 -0.8706  1.3484
  245MOL0     H33025   1.638   7.642   3.648 -1.8738  0.3520  1.9611
  245MOL0     H33026   1.846   7.809   3.628  1.5632  0.5639 -0.1661
  245MOL0     H33027   2.074   7.852   3.439  0.0938 -0.6846  0.4509
  245MOL0     H33028   2.089   7.888   3.610 -0.5624 -0.1694  0.6703
  245MOL0     H33029   2.281   7.717   3.615 -1.5563  5.7711  2.9268
  245MOL0     H33030   2.242   7.689   3.448 -1.2171 -2.9239  2.5995
  245MOL0     H33031   2.333   7.973   3.560  2.9834  1.2266 -0.4299
  245MOL0     H33032   2.298   7.929   3.395  2.4355 -0.4193 -1.3673
  245MOL0     H33033   2.498   7.752   3.413 -2.0983  1.1014 -2.0553
  245MOL0     H33034   2.525   7.815   3.578  2.1980  2.3907 -0.2118
  245MOL0     H33035   2.674   8.181   3.359 -0.8468 -0.0669  1.3729
  245MOL0     H33036   2.893   8.205   3.319  1.7004 -1.0904 -1.1003
  245MOL0     H33037   3.373   8.035   3.537  0.3899 -1.5208  0.5159
  245MOL0     H33038   3.618   8.093   3.458  0.0544 -0.7977  2.6888
  245MOL0     H33039   3.768   7.795   3.362  2.5289 -0.3436 -0.4781
  245MOL0     H33040   3.757   7.791   3.180 -1.1466  1.0488 -0.9058
  245MOL0     H33041   3.986   7.741   3.283  2.5853  0.2094 -1.8194
  245MOL0     H33042   3.979   7.892   3.177  0.2707 -0.6848  0.2193
  245MOL0     H33043   3.971   7.903   3.476 -0.7152 -0.3988 -0.4657
  245MOL0     H33044   4.120   7.893   3.381  1.2806  0.2453 -0.6579
  245MOL0     H33045   3.914   8.121   3.374  0.2224  1.4322  2.4056
  245MOL0     H33046   4.036   8.111   3.254  1.5652  0.2962  0.4664
  245MOL0     H33047   4.080   8.131   3.557 -1.8258 -1.2430  0.4231
  245MOL0     H33048   4.102   8.257   3.438  0.7519 -0.6645 -0.9084
  245MOL0     H33049   4.290   8.017   3.461  1.4802  0.2423  1.0572
  245MOL0     H33050   4.273   8.136   3.331 -2.7121  0.9780  0.0149
  245MOL0     H33051   4.330   8.161   3.620 -0.6893 -1.1033 -0.3266
  245MOL0     H33052   4.323   8.311   3.525  2.4547  1.3813 -0.7108
  245MOL0     H33053   4.515   8.093   3.470  4.4247  0.5226  0.5168
  245MOL0     H33054   4.502   8.243   3.373  0.7034  0.0888  0.2684
  245MOL0     H33055   3.556   7.838   3.122 -2.0484  2.0926 -1.1668
  245MOL0     H33056   3.320   7.810   3.178 -0.7689 -0.3523 -0.8535
  245MOL0     H33057   2.979   7.804   3.484 -2.3281 -2.5732 -0.0566
  245MOL0     H33058   2.744   7.772   3.484 -0.5628  0.1642  0.7935
  245MOL0     H33059   0.932   7.879   4.122  1.1269 -2.6889  4.3401
  245MOL0     H33060   0.699   7.954   4.089 -1.0703 -0.9466  1.1285
  245MOL0     H33061   0.247   7.797   4.058 -1.7516  1.2962 -3.0503
  245MOL0     H33062   0.016   7.894   4.025 -2.8097 -0.7116  2.9612
  245MOL0     H33063  -0.075   8.284   4.216 -1.0062  2.4147 -2.0326
  245MOL0     H33064  -0.201   8.170   4.255  1.7438  2.2827  2.5480
  245MOL0     H33065  -0.183   8.355   4.002  1.4753  1.3445  1.6715
  245MOL0     H33066  -0.293   8.362   4.137 -0.6338 -1.8650  2.1461
  245MOL0     H33067  -0.285   8.116   3.953 -0.6078  0.0201 -0.5423
  245MOL0     H33068  -0.396   8.250   3.940 -1.1463 -0.8681  0.0574
  245MOL0     H33069  -0.495   8.062   4.064  0.0221  0.4556  0.6876
  245MOL0     H33070  -0.357   8.068   4.175 -1.1413 -1.3269 -0.6682
  245MOL0     H33071  -0.597   8.345   4.369  1.8686 -0.6707  2.1370
  245MOL0     H33072   0.107   8.224   4.267 -1.0240 -0.4264 -0.2197
  245MOL0     H33073   0.412   8.119   4.402 -1.3829 -0.8940  0.1242
  245MOL0     H33074   0.447   8.201   4.260 -0.5554 -1.4704 -1.9814
  245MOL0     H33075   0.307   8.266   4.357 -1.7643 -0.1001 -0.6840
  246MOL0     O33076   2.514   5.254   9.772  0.0324 -0.0366 -0.9193
  246MOL0     C33077   2.551   5.137   9.763  0.0180  0.3130 -0.0720
  246MOL0     O33078   2.640   5.081   9.842  0.8763 -0.4113  0.1451
  246MOL0     C33079   2.702   5.161   9.933  0.0909  0.1859  0.7779
  246MOL0     C33080   2.697   5.118  10.066 -0.6465 -0.9511 -0.0125
  246MOL0     C33081   2.756   5.194  10.166  0.6109  0.1730 -0.0697
  246MOL0     C33082   2.815   5.315  10.129 -0.3837  0.5259 -0.7588
  246MOL0     O33083   2.879   5.380  10.230 -0.2565  0.0267  0.6061
  246MOL0     C33084   2.888   5.520  10.221  0.1818 -0.3752  0.0205
  246MOL0     C33085   2.951   5.596  10.341  0.5323  0.6132  0.3821
  246MOL0     C33086   3.092   5.554  10.357  0.3716  0.3933  0.1736
  246MOL0     C33087   3.143   5.586  10.494 -0.2558  0.0471  0.7426
  246MOL0     C33088   3.295   5.555  10.486 -0.1116  0.9857 -0.0938
  246MOL0     C33089   3.381   5.515  10.614 -0.1608  0.5361  0.2366
  246MOL0     C33090   3.497   5.413  10.579 -0.3169 -1.1413  0.3302
  246MOL0     C33091   3.575   5.389  10.705 -0.0921  0.2241 -0.1250
  246MOL0     N33092   3.643   5.509  10.754 -0.3588  1.1151 -0.0532
  246MOL0     C33093   3.741   5.577  10.686 -0.1822  0.1728 -0.6421
  246MOL0     C33094   3.777   5.676  10.774 -0.6326  0.0627 -0.6281
  246MOL0     C33095   3.886   5.775  10.737 -0.1716 -0.1624  0.1931
  246MOL0     C33096   4.025   5.725  10.784 -0.8651  0.0531 -0.0138
  246MOL0     C33097   4.132   5.829  10.776 -0.1348 -0.6532  0.5613
  246MOL0     C33098   4.268   5.779  10.809  0.4550  0.2084  0.2758
  246MOL0     O33099   4.300   5.668  10.727  1.0298 -0.3645  1.0928
  246MOL0     C33100   4.398   5.590  10.767 -0.2419 -0.4351  0.0858
  246MOL0     C33101   4.527   5.632  10.767 -0.2315 -0.1005 -0.3460
  246MOL0     C33102   4.631   5.537  10.776  0.6609  0.1238 -1.4285
  246MOL0     C33103   4.608   5.400  10.807 -0.0629  0.7328 -0.3019
  246MOL0     C33104   4.724   5.312  10.822  0.2553 -0.2921  0.8267
  246MOL0     O33105   4.847   5.368  10.826 -0.1655 -0.8112 -0.1897
  246MOL0     C33106   4.964   5.300  10.856  0.1348 -0.3670 -0.2810
  246MOL0     C33107   4.969   5.182  10.934  1.0467  0.1771 -0.3383
  246MOL0     C33108   5.090   5.139  10.969  0.1909 -0.2793 -0.3926
  246MOL0     C33109   5.211   5.197  10.927 -0.1034 -0.0901 -0.4480
  246MOL0     O33110   5.326   5.127  10.948 -0.4474  0.2947 -0.4107
  246MOL0     C33111   5.439   5.171  10.867 -0.1919  0.5548 -0.4300
  246MOL0     C33112   5.557   5.077  10.889 -0.1547 -0.0603  0.8922
  246MOL0     C33113   5.671   5.138  10.815 -0.0339  0.1619 -0.4117
  246MOL0     C33114   5.810   5.111  10.874 -0.1135  0.4928 -0.3033
  246MOL0     C33115   5.917   5.149  10.762  0.8239  0.5342 -0.7008
  246MOL0     C33116   6.055   5.122  10.804  0.3394 -0.4419 -0.5528
  246MOL0     C33117   6.165   5.203  10.720 -0.2761 -0.1483 -0.3513
  246MOL0     C33118   6.219   5.317  10.801  0.0431  0.9728  0.2549
  246MOL0    Cl33119   6.098   5.435  10.832 -0.6222 -0.0260  0.3650
  246MOL0     C33120   5.213   5.326  10.860 -0.1149  0.2945  0.1089
  246MOL0     C33121   5.083   5.367  10.825  0.9776 -0.0651  0.5240
  246MOL0     O33122   4.699   5.192  10.830  0.3527  0.7424  0.2406
  246MOL0     C33123   4.475   5.362  10.828 -0.1681 -0.3048  0.3482
  246MOL0     C33124   4.373   5.454  10.801  0.2459  0.2737  0.0408
  246MOL0     N33125   3.699   5.670  10.884 -0.3614 -0.2887  0.3697
  246MOL0     N33126   3.621   5.574  10.867  0.5523  1.8178 -0.6899
  246MOL0     C33127   2.832   5.354   9.993 -0.3255  1.1288  1.0565
  246MOL0     C33128   2.773   5.276   9.896  0.4082 -0.2530  0.1627
  246MOL0     C33129   2.484   5.055   9.649  0.1943  1.1869 -0.4942
  246MOL0     C33130   2.503   4.920   9.668  0.2921  0.4533 -0.5133
  246MOL0     C33131   2.448   4.839   9.574 -0.1608 -0.2055 -0.6885
  246MOL0     C33132   2.388   4.881   9.458  0.0319 -0.5503 -0.2742
  246MOL0     O33133   2.335   4.787   9.368 -0.2018 -0.5468 -1.1443
  246MOL0     C33134   2.324   4.831   9.237  0.1477 -0.9241 -0.0284
  246MOL0     C33135   2.296   4.713   9.156  0.4973 -1.1092 -0.2472
  246MOL0     C33136   2.154   4.665   9.176 -0.3721 -0.2168 -0.3848
  246MOL0     C33137   2.073   4.686   9.042 -0.3150 -0.3771 -0.7212
  246MOL0     C33138   1.944   4.621   9.059 -0.6234  0.0553 -0.4257
  246MOL0     C33139   1.836   4.567   9.078  0.5818  0.4752  0.6108
  246MOL0     C33140   2.370   5.018   9.443  0.3260  0.1105 -0.1244
  246MOL0     C33141   2.410   5.105   9.543 -0.2924  1.3160 -0.1135
  246MOL0     C33142   2.372   5.247   9.516  0.5161 -0.0068 -0.9054
  246MOL0     H33143   2.633   5.036  10.096 -3.9951  1.8169  1.0393
  246MOL0     H33144   2.738   5.155  10.266 -3.1370  0.5869 -0.4532
  246MOL0     H33145   2.951   5.544  10.135  0.7037 -2.0088 -0.0772
  246MOL0     H33146   2.788   5.561  10.202  0.1757 -1.0502 -1.5078
  246MOL0     H33147   2.891   5.572  10.430 -1.0946 -2.9787 -1.4446
  246MOL0     H33148   2.951   5.704  10.330  0.2063  0.8066  1.9883
  246MOL0     H33149   3.154   5.607  10.284  1.6535 -2.6504 -1.1455
  246MOL0     H33150   3.112   5.447  10.342  1.0247  0.2646  1.7415
  246MOL0     H33151   3.115   5.689  10.517  1.4890  0.5986  0.5814
  246MOL0     H33152   3.096   5.510  10.558  1.2010 -3.6414 -2.2105
  246MOL0     H33153   3.314   5.476  10.413  1.3898 -0.0798  1.3482
  246MOL0     H33154   3.343   5.642  10.440 -0.9870  1.0956 -0.8203
  246MOL0     H33155   3.419   5.610  10.653 -0.5022  0.1916  1.4533
  246MOL0     H33156   3.313   5.461  10.680 -0.7436 -1.9862 -2.2185
  246MOL0     H33157   3.555   5.457  10.498 -0.2606 -2.4865 -0.3858
  246MOL0     H33158   3.460   5.320  10.536 -1.9595 -0.4143  0.0871
  246MOL0     H33159   3.517   5.345  10.786  0.0446 -0.7741 -0.5624
  246MOL0     H33160   3.649   5.313  10.681 -0.1338  0.3354 -0.6409
  246MOL0     H33161   3.788   5.550  10.592 -2.2798 -1.3752 -1.3325
  246MOL0     H33162   3.878   5.780  10.628  0.1997  1.3978  0.2073
  246MOL0     H33163   3.868   5.876  10.777  3.8059  1.6297 -1.9311
  246MOL0     H33164   4.013   5.689  10.887  1.0637  1.3090  0.7006
  246MOL0     H33165   4.062   5.634  10.736  1.7169  0.2701  1.4043
  246MOL0     H33166   4.121   5.918  10.838 -0.9471  2.1133 -3.1488
  246MOL0     H33167   4.130   5.877  10.677  1.1647 -0.1454  0.7616
  246MOL0     H33168   4.272   5.755  10.915  0.6062  3.4879  1.1203
  246MOL0     H33169   4.342   5.859  10.794 -0.0402  0.2949 -2.3025
  246MOL0     H33170   4.559   5.725  10.722 -0.1773  0.2033  0.2988
  246MOL0     H33171   4.734   5.562  10.755  1.3069 -2.9222 -2.3445
  246MOL0     H33172   4.878   5.128  10.959  0.5327  0.4126 -1.5897
  246MOL0     H33173   5.109   5.048  11.024  0.6057 -0.4668 -0.8396
  246MOL0     H33174   5.403   5.166  10.764  0.3348 -1.3357 -0.5657
  246MOL0     H33175   5.472   5.273  10.890 -1.1993  0.4724  1.5020
  246MOL0     H33176   5.586   5.063  10.994 -2.4289 -2.3120  1.3276
  246MOL0     H33177   5.534   4.974  10.860 -0.5666  0.2574  0.0758
  246MOL0     H33178   5.671   5.086  10.719 -0.1354 -1.8019  0.6049
  246MOL0     H33179   5.664   5.246  10.797  2.3795  0.2468 -1.2224
  246MOL0     H33180   5.816   5.006  10.903  0.2431  1.0749  1.9207
  246MOL0     H33181   5.831   5.177  10.960 -0.8518 -0.6392  0.7811
  246MOL0     H33182   5.901   5.255  10.743  1.2102  0.2955 -2.6226
  246MOL0     H33183   5.897   5.089  10.672  2.2680 -0.1651 -0.5915
  246MOL0     H33184   6.059   5.163  10.905 -1.9093  0.9296 -0.9339
  246MOL0     H33185   6.066   5.013  10.807  1.2396 -0.3667 -0.8806
  246MOL0     H33186   6.128   5.246  10.626  0.1483  0.0063 -0.4515
  246MOL0     H33187   6.241   5.129  10.693  1.5313  0.9050  1.5641
  246MOL0     H33188   6.253   5.273  10.895 -0.9372 -0.0034  0.1789
  246MOL0     H33189   6.303   5.360  10.746  0.0214  1.8455  0.8762
  246MOL0     H33190   5.292   5.393  10.829  0.5636  0.2108  1.5879
  246MOL0     H33191   5.077   5.459  10.767  1.3829 -1.5733 -2.0738
  246MOL0     H33192   4.452   5.257  10.843  0.6382 -1.1025 -3.1660
  246MOL0     H33193   4.270   5.422  10.791  0.6671 -1.5162  0.9984
  246MOL0     H33194   2.882   5.443   9.955  4.2777 -1.1267  1.1473
  246MOL0     H33195   2.780   5.310   9.793  0.2515  2.6533  1.0088
  246MOL0     H33196   2.549   4.891   9.762  0.2213  0.4467 -0.4810
  246MOL0     H33197   2.460   4.732   9.581  1.0648 -0.1299 -1.3908
  246MOL0     H33198   2.415   4.880   9.202 -0.5986  1.1692  0.8175
  246MOL0     H33199   2.239   4.901   9.234  0.6157 -0.2437  1.4059
  246MOL0     H33200   2.370   4.643   9.196  1.1888 -0.3954 -0.2623
  246MOL0     H33201   2.327   4.720   9.052 -1.4197  0.8448 -0.7595
  246MOL0     H33202   2.106   4.712   9.263 -0.9260  0.5725 -1.0996
  246MOL0     H33203   2.161   4.558   9.198  0.0459  0.1666  1.5335
  246MOL0     H33204   2.070   4.794   9.028  0.9051 -0.1561  0.4903
  246MOL0     H33205   2.131   4.638   8.962  1.0920 -0.7380  0.4735
  246MOL0     H33206   1.737   4.529   9.090  1.1911 -2.2546 -1.8923
  246MOL0     H33207   2.300   5.045   9.364 -2.0789 -0.2623  1.7492
  246MOL0     H33208   2.306   5.261   9.430 -1.0472  3.2295  0.6437
  246MOL0     H33209   2.312   5.288   9.598  0.8944  0.3135 -0.7871
  246MOL0     H33210   2.467   5.301   9.513  0.3164  0.7115  2.1461
  247MOL0     O33211  10.794   1.106   3.566  0.0598  0.8753  0.0181
  247MOL0     C33212  10.742   1.004   3.604  0.4488  0.0611  0.0470
  247MOL0     O33213  10.809   0.894   3.652 -0.1195  0.0805  0.0105
  247MOL0     C33214  10.947   0.882   3.615 -0.2326  0.0908 -0.3058
  247MOL0     C33215  10.992   0.875   3.484  0.9193  0.0978 -0.7556
  247MOL0     C33216  11.126   0.861   3.446 -0.1191 -0.4322 -0.0569
  247MOL0     C33217  11.218   0.858   3.552 -0.5325  0.1291  1.3077
  247MOL0     O33218  11.357   0.837   3.526  0.8162 -0.4210 -0.0433
  247MOL0     C33219  11.404   0.784   3.402  0.6411  0.6818 -0.5196
  247MOL0     C33220  11.558   0.766   3.398  0.4547  0.8871  0.2096
  247MOL0     C33221  11.632   0.898   3.381 -0.3040 -0.4746  0.1747
  247MOL0     C33222  11.780   0.883   3.350  0.3784 -0.0529  0.0536
  247MOL0     C33223  11.847   1.010   3.319 -0.6537  0.0850 -0.5101
  247MOL0     C33224  11.995   0.994   3.297 -0.2778  0.2332  0.4769
  247MOL0     C33225  12.089   1.115   3.290  0.2643  0.1858 -0.1480
  247MOL0     C33226  12.070   1.193   3.429 -0.3159  0.1836  0.2346
  247MOL0     N33227  12.196   1.181   3.503 -0.6537  0.3093  1.2084
  247MOL0     C33228  12.319   1.241   3.476 -0.3522 -0.2246  0.4747
  247MOL0     C33229  12.401   1.180   3.558  0.6316  0.0446 -1.1185
  247MOL0     C33230  12.549   1.212   3.573  0.7204  0.8299  1.1520
  247MOL0     C33231  12.622   1.073   3.578  0.0130 -0.4635 -0.4334
  247MOL0     C33232  12.773   1.087   3.545  0.3493 -0.6081 -0.5604
  247MOL0     C33233  12.853   0.966   3.524 -0.4959  0.0835 -0.4562
  247MOL0     O33234  12.985   0.992   3.468 -0.1319  0.5098  0.1528
  247MOL0     C33235  13.087   1.021   3.547 -0.5836  0.0500 -0.2669
  247MOL0     C33236  13.190   0.928   3.570  0.2870  0.0710 -0.4966
  247MOL0     C33237  13.310   0.967   3.635  0.2599 -0.0764  0.0473
  247MOL0     C33238  13.322   1.097   3.693 -1.2075 -0.7691 -0.7599
  247MOL0     C33239  13.444   1.146   3.763 -0.2395  0.1945 -0.7844
  247MOL0     O33240  13.546   1.055   3.783 -0.0989  0.2983 -0.0584
  247MOL0     C33241  13.666   1.094   3.813 -0.7681 -0.1129 -0.1885
  247MOL0     C33242  13.700   1.180   3.913 -0.1689  0.1593  0.0107
  247MOL0     C33243  13.825   1.214   3.934 -0.2983 -0.0442  0.6191
  247MOL0     C33244  13.932   1.161   3.854  0.1865 -0.8908  0.3402
  247MOL0     O33245  14.067   1.197   3.866 -0.4778 -0.3832 -0.1147
  247MOL0     C33246  14.108   1.323   3.926  0.5652 -0.2327 -0.1148
  247MOL0     C33247  14.235   1.381   3.863  0.5701  0.4937 -0.1059
  247MOL0     C33248  14.255   1.517   3.911 -0.8057 -0.2887 -0.1146
  247MOL0     C33249  14.282   1.534   4.066  0.0319  0.0653 -0.1413
  247MOL0     C33250  14.434   1.532   4.120 -0.2128  0.0561  0.0510
  247MOL0     C33251  14.457   1.601   4.253 -0.1802 -0.1256 -0.3206
  247MOL0     C33252  14.612   1.616   4.267 -0.1453  0.0405  0.5655
  247MOL0     C33253  14.693   1.487   4.284  0.1718 -0.0662 -0.1519
  247MOL0    Cl33254  14.860   1.503   4.341  0.2256 -0.3525  0.0452
  247MOL0     C33255  13.900   1.061   3.767  0.3277 -0.1757  0.1038
  247MOL0     C33256  13.768   1.032   3.742  0.3979  0.8089  0.0998
  247MOL0     O33257  13.447   1.261   3.795  0.6815  0.3676  0.6041
  247MOL0     C33258  13.223   1.187   3.660 -0.2823  0.0910  0.3001
  247MOL0     C33259  13.110   1.153   3.581  0.1198 -0.5860 -0.1302
  247MOL0     N33260  12.330   1.079   3.635 -0.4948 -0.5312  0.1550
  247MOL0     N33261  12.215   1.079   3.593 -0.4918 -0.4747 -0.2855
  247MOL0     C33262  11.177   0.847   3.678  0.3529  0.0364 -0.2691
  247MOL0     C33263  11.040   0.866   3.713 -0.0909 -0.3894 -0.8624
  247MOL0     C33264  10.597   1.002   3.596  0.2541 -0.4339  0.0874
  247MOL0     C33265  10.525   0.909   3.671  0.0988 -0.0681  0.9148
  247MOL0     C33266  10.385   0.899   3.648 -1.0202 -0.5129 -0.4003
  247MOL0     C33267  10.307   0.979   3.562  0.3827 -0.3889 -0.3986
  247MOL0     O33268  10.177   0.955   3.547  0.3605 -0.0212 -0.2591
  247MOL0     C33269  10.095   1.066   3.505 -0.2991  0.0243  0.2825
  247MOL0     C33270   9.944   1.039   3.542  0.5578 -0.1126 -0.7213
  247MOL0     C33271   9.913   1.007   3.698 -1.0457 -0.1449  0.1436
  247MOL0     C33272   9.779   0.930   3.705 -0.0829  0.2057  0.8585
  247MOL0     C33273   9.659   1.014   3.662 -0.3613  0.6169  0.5748
  247MOL0     C33274   9.569   1.078   3.618 -0.4963 -1.1499 -0.8656
  247MOL0     C33275  10.384   1.072   3.492 -0.4024  0.0467 -0.0171
  247MOL0     C33276  10.522   1.090   3.507 -1.1435  0.0978 -0.8564
  247MOL0     C33277  10.579   1.191   3.416 -0.8280 -0.0754 -0.3343
  247MOL0     H33278  10.915   0.906   3.414 -0.8984 -3.3378 -0.5138
  247MOL0     H33279  11.148   0.855   3.340  0.4090  0.4224 -0.0085
  247MOL0     H33280  11.367   0.682   3.402  1.9673  0.1821 -0.6011
  247MOL0     H33281  11.373   0.847   3.318 -2.7321  1.6624  1.2852
  247MOL0     H33282  11.574   0.696   3.315  1.5788 -1.2970  2.1311
  247MOL0     H33283  11.593   0.719   3.490  1.1609  1.0203  0.0147
  247MOL0     H33284  11.623   0.948   3.478 -0.5200 -1.8412  0.8940
  247MOL0     H33285  11.595   0.954   3.295 -0.6901  0.2225  0.7894
  247MOL0     H33286  11.831   0.827   3.429 -0.6001  2.5467  2.7271
  247MOL0     H33287  11.792   0.827   3.257  1.3685 -0.0373  0.1603
  247MOL0     H33288  11.800   1.060   3.234 -3.2342  1.9195  1.8307
  247MOL0     H33289  11.832   1.076   3.404 -1.1879  0.7014 -1.0665
  247MOL0     H33290  12.028   0.936   3.384 -0.9237  1.8799  1.8883
  247MOL0     H33291  12.016   0.935   3.207  0.2919  0.7196  0.2848
  247MOL0     H33292  12.074   1.185   3.207 -0.8969  2.1492  1.6373
  247MOL0     H33293  12.192   1.080   3.283 -0.5955 -3.0260  1.4304
  247MOL0     H33294  12.044   1.299   3.422 -2.8726 -0.4047 -0.2060
  247MOL0     H33295  11.985   1.154   3.486 -1.6814 -0.2416 -1.9607
  247MOL0     H33296  12.336   1.321   3.404 -4.8378 -0.6568 -1.3500
  247MOL0     H33297  12.595   1.266   3.489  2.2663 -1.2768  0.5517
  247MOL0     H33298  12.576   1.247   3.672 -2.1242 -1.2950  2.8204
  247MOL0     H33299  12.618   1.036   3.681 -0.1550 -2.5745 -1.1372
  247MOL0     H33300  12.571   1.002   3.511 -0.5849 -0.0096 -0.4648
  247MOL0     H33301  12.827   1.142   3.623  0.6177 -2.6358  0.7436
  247MOL0     H33302  12.777   1.142   3.450 -1.6551 -0.8816 -0.8431
  247MOL0     H33303  12.796   0.889   3.471 -0.8467  0.0312 -0.0079
  247MOL0     H33304  12.851   0.918   3.622 -3.3892  2.3719  0.7609
  247MOL0     H33305  13.180   0.827   3.531  1.2341  0.7730 -2.6865
  247MOL0     H33306  13.388   0.894   3.655  1.0824  1.1513  1.6644
  247MOL0     H33307  13.631   1.241   3.971  1.8129  0.0741  2.6555
  247MOL0     H33308  13.860   1.284   4.009  1.4178  1.0364 -1.0903
  247MOL0     H33309  14.039   1.406   3.911  1.6608  0.7199 -0.0409
  247MOL0     H33310  14.122   1.303   4.033 -1.9114 -0.0797  0.2790
  247MOL0     H33311  14.320   1.316   3.887  0.2081  0.9596  2.8251
  247MOL0     H33312  14.221   1.378   3.755 -1.3202 -0.4816  0.1171
  247MOL0     H33313  14.341   1.542   3.848 -1.2898 -2.5802 -1.8538
  247MOL0     H33314  14.172   1.584   3.887 -1.6974 -1.1795  0.3977
  247MOL0     H33315  14.224   1.471   4.134 -2.2957  0.0235 -2.0289
  247MOL0     H33316  14.254   1.637   4.091 -0.4463 -0.4374  1.5326
  247MOL0     H33317  14.490   1.584   4.041 -0.9544 -0.8719 -1.1343
  247MOL0     H33318  14.480   1.433   4.116  1.3233  0.5865  2.4946
  247MOL0     H33319  14.402   1.695   4.262  0.2203  0.0399  0.4467
  247MOL0     H33320  14.427   1.540   4.338  1.4145  0.2257  0.5281
  247MOL0     H33321  14.630   1.669   4.361  2.1711  0.8126 -0.2217
  247MOL0     H33322  14.656   1.673   4.184 -0.1111 -2.0839 -0.9622
  247MOL0     H33323  14.645   1.420   4.356  0.3995  0.0712  0.1325
  247MOL0     H33324  14.680   1.436   4.188 -1.6541  0.8044 -0.4138
  247MOL0     H33325  13.981   1.010   3.717  0.2630  1.0217 -1.2962
  247MOL0     H33326  13.737   0.953   3.674  0.9605 -0.4707  1.2733
  247MOL0     H33327  13.224   1.283   3.710 -0.6307  0.1108  0.2764
  247MOL0     H33328  13.031   1.227   3.580 -0.7793 -1.5281 -0.0983
  247MOL0     H33329  11.251   0.814   3.750 -0.3767 -0.6985  0.1617
  247MOL0     H33330  11.014   0.870   3.818  1.5623  0.4726 -0.4419
  247MOL0     H33331  10.573   0.842   3.741  2.9519 -1.4451 -2.1186
  247MOL0     H33332  10.333   0.816   3.696  1.2427 -0.8734  1.6320
  247MOL0     H33333  10.107   1.080   3.397 -2.0542 -0.5543 -0.0300
  247MOL0     H33334  10.131   1.158   3.551 -0.2108 -0.5780  1.4744
  247MOL0     H33335   9.917   0.945   3.493 -2.4891  0.0511  0.3915
  247MOL0     H33336   9.880   1.114   3.495 -1.4286 -1.1722  0.1353
  247MOL0     H33337   9.906   1.103   3.750  0.4110  0.1195 -0.1020
  247MOL0     H33338  10.003   0.960   3.740 -0.9957 -0.6593 -0.5159
  247MOL0     H33339   9.778   0.840   3.643  0.2593  1.0847 -0.4638
  247MOL0     H33340   9.757   0.900   3.808 -1.8122  1.2666  0.8542
  247MOL0     H33341   9.496   1.141   3.573  2.2919  1.2012 -2.4403
  247MOL0     H33342  10.337   1.139   3.421 -0.2486 -0.5535 -0.6855
  247MOL0     H33343  10.633   1.133   3.341 -1.6187 -3.8292  1.7348
  247MOL0     H33344  10.499   1.240   3.359 -1.0051 -1.1953 -1.0762
  247MOL0     H33345  10.635   1.272   3.463  2.0205 -1.0005 -1.8886
  248MOL0     O33346  10.172   8.296  11.176  0.0097  0.6561 -0.4826
  248MOL0     C33347  10.100   8.324  11.278  0.5980 -1.3774  0.3234
  248MOL0     O33348  10.141   8.403  11.381 -0.0523  0.0718  0.2567
  248MOL0     C33349  10.265   8.458  11.398 -0.5257  0.5103 -0.2322
  248MOL0     C33350  10.313   8.475  11.531  0.2403  0.1184  0.2291
  248MOL0     C33351  10.442   8.514  11.544  0.2463  0.0403 -0.1555
  248MOL0     C33352  10.520   8.566  11.444 -0.0129  0.0289  0.0232
  248MOL0     O33353  10.643   8.614  11.466 -0.7155  0.2802  0.4306
  248MOL0     C33354  10.735   8.526  11.527  0.0805 -0.0524  0.8190
  248MOL0     C33355  10.829   8.472  11.419 -0.5282 -0.4230 -0.1930
  248MOL0     C33356  10.917   8.582  11.357 -0.0492  0.3674  0.3057
  248MOL0     C33357  10.992   8.511  11.250 -0.6290  0.7216  0.0959
  248MOL0     C33358  11.103   8.609  11.202 -0.7094  0.0846 -0.2433
  248MOL0     C33359  11.145   8.567  11.064 -0.1522 -0.4708 -0.1123
  248MOL0     C33360  11.276   8.623  11.013  0.2105  0.1790 -0.2384
  248MOL0     C33361  11.287   8.774  11.033 -0.0962 -0.1913 -0.6620
  248MOL0     N33362  11.388   8.841  10.952 -0.8307  0.4173 -0.2372
  248MOL0     C33363  11.521   8.807  10.969 -0.3328 -0.2564  0.8068
  248MOL0     C33364  11.583   8.896  10.884  0.0008 -0.9227  0.2698
  248MOL0     C33365  11.730   8.903  10.875 -0.8866  0.2002 -0.0016
  248MOL0     C33366  11.779   9.035  10.929 -0.1069  0.1192  0.0424
  248MOL0     C33367  11.928   9.056  10.891  0.1734 -0.6939  0.4574
  248MOL0     C33368  11.964   9.203  10.924 -0.2816  0.1874 -0.3950
  248MOL0     O33369  12.093   9.251  10.881  0.3065 -0.0212  0.0044
  248MOL0     C33370  12.211   9.211  10.937 -0.4290  0.7458 -0.2294
  248MOL0     C33371  12.217   9.105  11.038  0.8886 -0.3184  0.6464
  248MOL0     C33372  12.340   9.067  11.098  0.4305 -0.8018 -0.5463
  248MOL0     C33373  12.451   9.137  11.076 -0.6737 -0.0494 -0.1197
  248MOL0     C33374  12.582   9.098  11.143  0.2409  0.2444 -0.3868
  248MOL0     O33375  12.682   9.187  11.122  0.1436 -0.2929 -0.1295
  248MOL0     C33376  12.785   9.183  11.213 -0.8152 -0.5477  0.1322
  248MOL0     C33377  12.794   9.289  11.307  0.3296 -0.2474 -0.8369
  248MOL0     C33378  12.903   9.293  11.393 -0.7564  0.1490 -0.5188
  248MOL0     C33379  13.000   9.191  11.398  0.4677  0.7077 -0.7907
  248MOL0     O33380  13.097   9.180  11.492  0.6074 -0.6736  0.0181
  248MOL0     C33381  13.094   9.284  11.598 -1.4643  0.4774 -0.5597
  248MOL0     C33382  13.203   9.248  11.700 -0.1134  0.0815  0.1031
  248MOL0     C33383  13.210   9.368  11.803  0.7285  0.8257 -0.5091
  248MOL0     C33384  13.335   9.358  11.887 -0.0385 -0.1519 -0.6075
  248MOL0     C33385  13.333   9.444  12.018 -0.4146  0.8307 -0.6895
  248MOL0     C33386  13.470   9.454  12.100 -0.1324  0.1198  0.1285
  248MOL0     C33387  13.588   9.490  12.008  0.6902  0.1165 -0.0356
  248MOL0     C33388  13.722   9.473  12.081  0.0898 -0.1277  0.2251
  248MOL0    Cl33389  13.755   9.301  12.137  0.2724  0.3619  0.2511
  248MOL0     C33390  12.982   9.085  11.308  1.1867  0.2865  0.8233
  248MOL0     C33391  12.885   9.084  11.208  0.4327  0.4892  0.0868
  248MOL0     O33392  12.582   9.008  11.221  0.2348  0.7573 -0.6433
  248MOL0     C33393  12.444   9.232  10.973  0.3509 -0.3538  1.0162
  248MOL0     C33394  12.328   9.277  10.914 -0.4361 -0.0050  0.5113
  248MOL0     N33395  11.492   8.974  10.813  0.0443 -0.2329 -0.7262
  248MOL0     N33396  11.378   8.942  10.862  1.1380 -0.1605 -0.2861
  248MOL0     C33397  10.468   8.571  11.313  0.3759  0.3355 -0.5446
  248MOL0     C33398  10.349   8.508  11.290 -0.0725  0.9576 -0.2860
  248MOL0     C33399   9.960   8.285  11.282  0.3857  0.4476 -0.4851
  248MOL0     C33400   9.906   8.237  11.166 -0.9914 -0.8968  0.5266
  248MOL0     C33401   9.775   8.180  11.157  0.2693 -0.9220  0.0211
  248MOL0     C33402   9.697   8.192  11.273  1.2010 -0.4493  0.5591
  248MOL0     O33403   9.573   8.133  11.279  0.1449 -0.2394 -0.5353
  248MOL0     C33404   9.522   8.052  11.171  0.4513  0.8006 -0.4312
  248MOL0     C33405   9.378   8.002  11.204 -0.8246 -0.1080 -0.4182
  248MOL0     C33406   9.368   7.871  11.288  0.4743  0.1627 -0.2985
  248MOL0     C33407   9.214   7.819  11.309 -0.2795  0.9396 -0.1264
  248MOL0     C33408   9.155   7.788  11.182 -0.0134  0.0753 -0.0077
  248MOL0     C33409   9.114   7.755  11.069  0.1931  0.1402 -0.3384
  248MOL0     C33410   9.736   8.264  11.382 -0.1306  0.1195 -0.4412
  248MOL0     C33411   9.872   8.305  11.390  0.2373  0.1624 -0.1070
  248MOL0     C33412   9.906   8.346  11.534  0.5292 -0.4297 -1.0057
  248MOL0     H33413  10.239   8.452  11.607 -2.3922  1.8518 -1.6605
  248MOL0     H33414  10.476   8.524  11.647  2.4354 -0.1180 -0.8308
  248MOL0     H33415  10.795   8.591  11.592  1.1940  2.9968 -2.8742
  248MOL0     H33416  10.677   8.447  11.575 -2.4539  0.0304 -1.8076
  248MOL0     H33417  10.764   8.421  11.347  0.0243 -1.8600  0.2937
  248MOL0     H33418  10.894   8.389  11.448 -4.1381 -2.6045  2.5424
  248MOL0     H33419  10.985   8.628  11.429  1.1118  0.9200 -1.0965
  248MOL0     H33420  10.859   8.663  11.311  0.2237 -1.8969 -4.6386
  248MOL0     H33421  11.034   8.420  11.294 -3.3192  0.4000  2.2528
  248MOL0     H33422  10.921   8.473  11.175 -0.8342  0.6358  0.3341
  248MOL0     H33423  11.059   8.709  11.206 -1.0164 -0.0086  4.5914
  248MOL0     H33424  11.190   8.607  11.268 -1.1091 -1.8012  0.2897
  248MOL0     H33425  11.144   8.458  11.053 -2.3099 -0.4296 -0.9179
  248MOL0     H33426  11.069   8.608  10.997  1.2666  3.2534  0.3138
  248MOL0     H33427  11.287   8.602  10.907 -3.2302  1.6147 -1.0337
  248MOL0     H33428  11.354   8.573  11.070 -0.0896 -1.8060 -1.4955
  248MOL0     H33429  11.198   8.833  11.008  1.9832  2.4066 -2.5320
  248MOL0     H33430  11.323   8.805  11.132  2.3583  0.0329 -1.5591
  248MOL0     H33431  11.552   8.723  11.031  0.5924  0.1908  0.9598
  248MOL0     H33432  11.781   8.830  10.938 -0.6984  0.3992  0.0786
  248MOL0     H33433  11.755   8.890  10.769  1.9529  0.3039  0.5687
  248MOL0     H33434  11.714   9.110  10.884  1.4702  1.6983  0.3252
  248MOL0     H33435  11.763   9.043  11.037  1.2478 -0.3480  0.2939
  248MOL0     H33436  11.951   9.043  10.785 -0.3761 -3.1360  0.5786
  248MOL0     H33437  11.998   8.984  10.933  0.2057 -1.4588 -0.8603
  248MOL0     H33438  11.942   9.211  11.031 -1.4246 -2.8782 -0.2934
  248MOL0     H33439  11.902   9.273  10.867  0.8591  1.5821  0.0554
  248MOL0     H33440  12.126   9.052  11.063 -0.4871  1.3668 -0.5385
  248MOL0     H33441  12.335   8.987  11.171 -2.7275  0.3597  0.6378
  248MOL0     H33442  12.732   9.376  11.290 -4.0195 -3.0738 -1.0912
  248MOL0     H33443  12.915   9.391  11.438  1.8665  0.6090 -1.9757
  248MOL0     H33444  13.106   9.386  11.561 -2.5678  0.2571 -1.5757
  248MOL0     H33445  12.993   9.280  11.640 -1.4343  2.1673 -0.2606
  248MOL0     H33446  13.177   9.153  11.748 -1.7538  0.6853  0.4838
  248MOL0     H33447  13.300   9.244  11.649 -1.4411 -0.8737 -2.5042
  248MOL0     H33448  13.223   9.456  11.739  4.6126  0.6420 -0.1637
  248MOL0     H33449  13.122   9.379  11.868 -1.2970 -1.6157 -2.5861
  248MOL0     H33450  13.419   9.386  11.822  0.1920 -1.2905 -0.8233
  248MOL0     H33451  13.352   9.251  11.906 -1.1688 -0.4635 -1.2146
  248MOL0     H33452  13.256   9.404  12.083  0.1085  0.7967 -0.0815
  248MOL0     H33453  13.302   9.547  11.996 -2.1450  1.4262  3.5570
  248MOL0     H33454  13.462   9.530  12.179  0.2287  2.1296 -1.6576
  248MOL0     H33455  13.492   9.359  12.148 -2.0908 -0.0658  0.7318
  248MOL0     H33456  13.572   9.591  11.968 -0.7232  0.1132  0.4522
  248MOL0     H33457  13.592   9.415  11.929 -2.9249 -0.4764  0.1662
  248MOL0     H33458  13.800   9.507  12.012  3.2127  0.1276  3.5785
  248MOL0     H33459  13.720   9.537  12.169 -1.9941 -0.1033  0.2024
  248MOL0     H33460  13.058   9.007  11.313 -0.0077 -0.8334  2.1890
  248MOL0     H33461  12.888   8.995  11.146  0.6195  0.6500 -0.1342
  248MOL0     H33462  12.545   9.265  10.950  0.9598 -0.3985  3.3627
  248MOL0     H33463  12.327   9.357  10.841 -1.0380 -3.1444 -3.2554
  248MOL0     H33464  10.527   8.604  11.228 -0.5114 -0.9977 -1.7247
  248MOL0     H33465  10.315   8.503  11.187 -0.3680 -1.9882 -0.1088
  248MOL0     H33466   9.965   8.217  11.077 -1.3105  2.1025 -0.4587
  248MOL0     H33467   9.737   8.133  11.067 -1.2169 -1.0514  0.6787
  248MOL0     H33468   9.595   7.973  11.148  0.6147  0.5369  0.9533
  248MOL0     H33469   9.514   8.122  11.087 -2.3949  1.0756 -0.0409
  248MOL0     H33470   9.336   7.988  11.104 -0.1481 -0.1555 -0.6953
  248MOL0     H33471   9.315   8.083  11.244 -0.3658 -0.5736  1.3207
  248MOL0     H33472   9.417   7.883  11.385  0.0737 -0.9616  0.0604
  248MOL0     H33473   9.422   7.799  11.226  1.2343  0.4509  0.0116
  248MOL0     H33474   9.219   7.727  11.368  2.1902  0.2500 -1.2444
  248MOL0     H33475   9.154   7.897  11.355 -0.5197  0.5976  0.1428
  248MOL0     H33476   9.073   7.727  10.975  1.0482 -1.3059 -0.3072
  248MOL0     H33477   9.670   8.259  11.468  2.2381 -2.4359  1.4104
  248MOL0     H33478   9.826   8.334  11.607  0.6898 -1.2567 -0.9568
  248MOL0     H33479   9.985   8.289  11.584  0.1927 -0.4091 -0.4472
  248MOL0     H33480   9.939   8.451  11.538 -0.5017 -0.1308  0.7792
  249MOL0     O33481   0.309   9.366  11.014 -0.1600 -0.0440  0.7208
  249MOL0     C33482   0.247   9.475  11.034  0.8978 -0.7339  0.5435
  249MOL0     O33483   0.306   9.597  11.072  0.2353 -0.5477  0.1658
  249MOL0     C33484   0.440   9.613  11.065 -0.2577  0.1121 -0.6843
  249MOL0     C33485   0.512   9.579  10.963 -0.0250 -0.2377 -0.1085
  249MOL0     C33486   0.655   9.580  10.972 -0.1894 -2.2594 -0.2114
  249MOL0     C33487   0.720   9.641  11.081  0.3038 -0.9812  0.3128
  249MOL0     O33488   0.858   9.664  11.085  0.3123 -0.0429  0.7275
  249MOL0     C33489   0.926   9.558  11.150 -0.2018 -0.6603  0.0118
  249MOL0     C33490   0.952   9.621  11.288  0.2214  1.0467 -0.1569
  249MOL0     C33491   1.050   9.737  11.304  0.1223  0.1488  0.4153
  249MOL0     C33492   1.091   9.742  11.457  0.3518 -0.3223  0.0157
  249MOL0     C33493   1.217   9.828  11.468 -0.3110 -0.0902  1.1507
  249MOL0     C33494   1.343   9.768  11.420 -0.1056  0.3533 -0.0769
  249MOL0     C33495   1.432   9.893  11.390  0.2103  0.5267  0.1686
  249MOL0     C33496   1.572   9.858  11.356  0.0444  0.1479  0.0011
  249MOL0     N33497   1.659   9.965  11.389 -0.6183  0.1776  0.1825
  249MOL0     C33498   1.780   9.943  11.451  0.0451  0.2830 -0.0677
  249MOL0     C33499   1.835  10.063  11.445 -0.6207  0.3154 -0.0260
  249MOL0     C33500   1.968  10.089  11.516  0.5460 -0.0229 -0.4125
  249MOL0     C33501   2.089  10.052  11.429  0.7226  0.3822 -1.2914
  249MOL0     C33502   2.216  10.098  11.498 -0.1947  0.7694  0.0986
  249MOL0     C33503   2.228  10.021  11.624  0.3078  0.1930 -0.6896
  249MOL0     O33504   2.357  10.045  11.681  0.8074 -0.2520 -0.1436
  249MOL0     C33505   2.471   9.989  11.628  0.3024 -0.3038 -0.5213
  249MOL0     C33506   2.592  10.017  11.699 -0.0898  0.3079 -0.5693
  249MOL0     C33507   2.709   9.956  11.655 -0.2860 -0.4293  0.3112
  249MOL0     C33508   2.717   9.875  11.545 -0.1583 -0.5806  0.2880
  249MOL0     C33509   2.849   9.808  11.506  0.5309 -0.5823  0.9748
  249MOL0     O33510   2.958   9.860  11.573 -1.2590 -0.5348 -0.1600
  249MOL0     C33511   3.086   9.835  11.524  0.1672  0.3550 -0.3093
  249MOL0     C33512   3.123   9.847  11.388  0.9639 -1.2300 -0.1202
  249MOL0     C33513   3.254   9.827  11.343  0.6292  0.7054 -0.8050
  249MOL0     C33514   3.354   9.796  11.437  0.1223 -0.2260 -0.1053
  249MOL0     O33515   3.482   9.794  11.379 -0.7956  0.3818 -0.2848
  249MOL0     C33516   3.590   9.739  11.461 -0.0545  0.5614  0.6599
  249MOL0     C33517   3.665   9.650  11.367  0.1666 -0.4425  0.6040
  249MOL0     C33518   3.754   9.547  11.434  0.0387  0.4168 -0.0652
  249MOL0     C33519   3.836   9.478  11.326  0.5097 -1.0314  0.1103
  249MOL0     C33520   3.925   9.363  11.384  0.9470  0.0804 -0.4931
  249MOL0     C33521   4.050   9.413  11.440 -1.0321  0.4557 -0.4240
  249MOL0     C33522   4.154   9.435  11.321  0.6030  0.4277 -0.2896
  249MOL0     C33523   4.288   9.470  11.382  0.2302 -0.4570  0.1257
  249MOL0    Cl33524   4.282   9.615  11.494 -0.0871 -0.0950  0.0958
  249MOL0     C33525   3.326   9.789  11.574  0.0514 -0.4398 -0.7880
  249MOL0     C33526   3.190   9.810  11.615 -0.4313 -0.4429  0.1734
  249MOL0     O33527   2.858   9.714  11.424  0.1242 -0.1892  0.6135
  249MOL0     C33528   2.594   9.853  11.472  0.2206  0.0142  0.3231
  249MOL0     C33529   2.477   9.906  11.509  0.5032  0.0091  0.2532
  249MOL0     N33530   1.758  10.160  11.377 -0.2626 -0.0971 -0.1803
  249MOL0     N33531   1.655  10.091  11.336  0.0289  1.0220  0.2449
  249MOL0     C33532   0.636   9.688  11.182  0.3308 -0.9630 -0.0842
  249MOL0     C33533   0.493   9.683  11.179  0.1060  1.1206  0.4090
  249MOL0     C33534   0.093   9.464  11.038 -0.1196 -0.2130 -0.3274
  249MOL0     C33535   0.033   9.546  11.135 -0.0397  0.0353 -0.1011
  249MOL0     C33536  -0.102   9.548  11.161 -0.1320 -0.9700  0.7424
  249MOL0     C33537  -0.181   9.456  11.087  1.2265 -0.2532  1.1201
  249MOL0     O33538  -0.320   9.446  11.105  0.3245  0.5064  0.1409
  249MOL0     C33539  -0.375   9.462  11.241 -0.3737 -0.3694  0.6609
  249MOL0     C33540  -0.493   9.363  11.251  0.2315 -0.5619  0.1446
  249MOL0     C33541  -0.584   9.382  11.378  0.0922  0.3566  0.5820
  249MOL0     C33542  -0.740   9.355  11.358 -0.3961 -0.2311  0.8714
  249MOL0     C33543  -0.798   9.343  11.492  0.4864  0.3410 -0.1291
  249MOL0     C33544  -0.839   9.329  11.599  0.1941 -0.4127 -0.2757
  249MOL0     C33545  -0.129   9.371  10.992 -0.2077  0.6001  0.1362
  249MOL0     C33546   0.010   9.376  10.964 -0.2776 -1.9718  0.1224
  249MOL0     C33547   0.075   9.283  10.862  0.0644 -0.1699  0.1833
  249MOL0     H33548   0.466   9.542  10.872  1.0352  0.5881 -1.0076
  249MOL0     H33549   0.718   9.533  10.898  0.3922  0.3988 -1.4980
  249MOL0     H33550   0.885   9.456  11.149 -1.2118 -0.2776 -1.6492
  249MOL0     H33551   1.022   9.546  11.100  0.2550  1.5885  0.2383
  249MOL0     H33552   0.999   9.537  11.340 -2.7480 -0.7873 -0.1967
  249MOL0     H33553   0.855   9.637  11.338  1.1030 -0.8237  2.3757
  249MOL0     H33554   1.011   9.836  11.275  1.6550  0.5794 -0.2669
  249MOL0     H33555   1.134   9.710  11.239  0.7095 -1.1428  1.6559
  249MOL0     H33556   1.010   9.780  11.520  0.0277  1.9226 -1.6033
  249MOL0     H33557   1.117   9.640  11.487  0.8763 -1.4889 -3.8188
  249MOL0     H33558   1.194   9.909  11.398  0.6359 -0.8099 -0.0395
  249MOL0     H33559   1.227   9.857  11.573  2.7080 -0.7400  1.1252
  249MOL0     H33560   1.396   9.715  11.500  0.4604 -2.5621 -2.2366
  249MOL0     H33561   1.337   9.701  11.334 -0.8154  0.5342 -0.1699
  249MOL0     H33562   1.437   9.953  11.481  1.3430  1.2787 -0.3717
  249MOL0     H33563   1.395   9.961  11.312 -1.6125  1.3392  1.6748
  249MOL0     H33564   1.593   9.774  11.423  0.4316  0.0483 -0.2412
  249MOL0     H33565   1.579   9.835  11.250  1.3786 -0.1578  0.1324
  249MOL0     H33566   1.827   9.849  11.479  1.7431  0.6929 -1.4029
  249MOL0     H33567   1.976  10.197  11.524  0.3615 -0.0696  0.5958
  249MOL0     H33568   1.969  10.032  11.610 -1.8265  1.5124  0.6332
  249MOL0     H33569   2.088   9.945  11.405 -1.4164 -0.3462  1.5296
  249MOL0     H33570   2.073  10.096  11.330 -0.5813  0.1554 -1.1920
  249MOL0     H33571   2.204  10.205  11.520  0.5327 -0.1001  6.7866
  249MOL0     H33572   2.299  10.076  11.429 -1.0709  0.0059 -0.7349
  249MOL0     H33573   2.224   9.915  11.597  0.2895 -0.2750  1.0485
  249MOL0     H33574   2.155  10.039  11.703  0.2667 -2.6546  0.0169
  249MOL0     H33575   2.600  10.082  11.786 -1.6737  0.9161 -0.8436
  249MOL0     H33576   2.800   9.962  11.714 -0.9634 -0.2528  1.3649
  249MOL0     H33577   3.036   9.875  11.329  0.3019  0.7387  1.6324
  249MOL0     H33578   3.278   9.831  11.237  0.1793  0.9398 -0.8994
  249MOL0     H33579   3.650   9.820  11.502 -1.3409  2.0813 -0.3565
  249MOL0     H33580   3.561   9.677  11.547  4.5084 -0.5496  1.6768
  249MOL0     H33581   3.599   9.590  11.304 -0.0822  2.6672 -2.3996
  249MOL0     H33582   3.714   9.712  11.292 -0.4005 -0.5260  0.1550
  249MOL0     H33583   3.821   9.587  11.511  2.7072  1.8585 -2.9147
  249MOL0     H33584   3.698   9.467  11.484  1.6772 -0.8321 -0.1597
  249MOL0     H33585   3.901   9.553  11.280 -0.7813 -1.4247 -2.5737
  249MOL0     H33586   3.776   9.437  11.244  0.5074  1.3951 -1.2073
  249MOL0     H33587   3.958   9.297  11.302  2.3206 -1.1796  1.0034
  249MOL0     H33588   3.862   9.298  11.445 -0.3395  0.8294 -1.0012
  249MOL0     H33589   4.037   9.511  11.487 -0.2824 -0.9957  3.1797
  249MOL0     H33590   4.091   9.351  11.521  0.7914  0.2533 -1.4496
  249MOL0     H33591   4.120   9.515  11.255 -1.9559 -0.8446 -0.6242
  249MOL0     H33592   4.154   9.345  11.259 -1.6393  1.1201 -1.3985
  249MOL0     H33593   4.329   9.380  11.427 -0.0957 -1.8414 -2.2187
  249MOL0     H33594   4.350   9.495  11.296 -0.6042 -0.1916 -0.4093
  249MOL0     H33595   3.397   9.759  11.649 -0.7263  0.1272  0.1992
  249MOL0     H33596   3.165   9.814  11.720 -0.0332 -1.0371  0.2935
  249MOL0     H33597   2.585   9.797  11.379 -0.1353  1.5751 -0.6121
  249MOL0     H33598   2.389   9.894  11.447  1.5615 -0.3721 -1.2227
  249MOL0     H33599   0.679   9.739  11.267  0.6783 -1.0307 -0.2170
  249MOL0     H33600   0.431   9.721  11.260 -0.2220  1.0398  0.1937
  249MOL0     H33601   0.097   9.612  11.192 -0.2278  1.6032 -1.6303
  249MOL0     H33602  -0.140   9.619  11.235  1.4585  0.1574  0.5389
  249MOL0     H33603  -0.395   9.568  11.258  2.2784  0.3695 -0.3501
  249MOL0     H33604  -0.309   9.435  11.324 -0.3169 -0.9005  0.4458
  249MOL0     H33605  -0.455   9.260  11.252 -2.0170 -1.5011 -1.8964
  249MOL0     H33606  -0.552   9.365  11.159  0.3438 -1.4565  0.0412
  249MOL0     H33607  -0.572   9.483  11.418 -1.2397  0.5486  0.5238
  249MOL0     H33608  -0.555   9.306  11.451  1.8539  0.3305 -0.0891
  249MOL0     H33609  -0.788   9.434  11.299 -0.0635  0.1829  1.1516
  249MOL0     H33610  -0.752   9.260  11.305  1.4273  0.1102 -0.2644
  249MOL0     H33611  -0.861   9.315  11.703  0.7100 -0.1515 -0.1227
  249MOL0     H33612  -0.197   9.298  10.949  2.8266 -1.6545 -1.2183
  249MOL0     H33613   0.116   9.197  10.916  2.6336  1.3177  0.7998
  249MOL0     H33614  -0.006   9.239  10.803  0.1718 -1.7415  1.1403
  249MOL0     H33615   0.156   9.326  10.802 -0.3583  0.7619  0.2742
  250MOL0     O33616   6.302   1.098   2.479 -0.6726 -0.0540 -1.0407
  250MOL0     C33617   6.262   1.044   2.382  0.2469 -0.3067  0.2309
  250MOL0     O33618   6.332   0.968   2.297 -0.1359  0.2374 -0.0129
  250MOL0     C33619   6.459   0.941   2.345  0.7641  0.3219  0.7506
  250MOL0     C33620   6.570   0.999   2.285  0.5409  0.1596  0.4805
  250MOL0     C33621   6.695   0.977   2.327 -0.2549 -0.3661  0.5366
  250MOL0     C33622   6.717   0.883   2.433 -0.7037  0.6184 -0.1865
  250MOL0     O33623   6.846   0.842   2.469 -0.3071  0.4211  0.1836
  250MOL0     C33624   6.922   0.785   2.359 -0.3101  0.1629  0.4517
  250MOL0     C33625   7.067   0.777   2.406 -0.2398  0.4135 -0.3655
  250MOL0     C33626   7.166   0.697   2.311  0.1766  0.0869  0.3900
  250MOL0     C33627   7.312   0.725   2.347  0.1769  0.1233 -0.0545
  250MOL0     C33628   7.420   0.676   2.249 -0.0731 -0.3848 -0.4181
  250MOL0     C33629   7.554   0.645   2.315 -0.2190 -0.4906  0.2374
  250MOL0     C33630   7.671   0.647   2.220  0.1969  0.2255  0.0545
  250MOL0     C33631   7.795   0.597   2.296 -0.2740 -0.2580 -0.0850
  250MOL0     N33632   7.914   0.630   2.214  0.9030  0.0025  0.2230
  250MOL0     C33633   7.969   0.753   2.208 -0.5152 -0.0550 -0.3491
  250MOL0     C33634   8.046   0.744   2.104 -1.2205  0.1634 -1.1883
  250MOL0     C33635   8.129   0.855   2.045  0.0655  0.3572  0.3143
  250MOL0     C33636   8.259   0.890   2.113 -0.6203  0.2385  0.3330
  250MOL0     C33637   8.351   0.771   2.143  0.2292 -0.5360 -0.1413
  250MOL0     C33638   8.495   0.809   2.164  0.7359 -0.4976  0.8549
  250MOL0     O33639   8.523   0.875   2.286  0.3430  1.1886 -0.0533
  250MOL0     C33640   8.661   0.883   2.324  0.3268  0.1980  0.0759
  250MOL0     C33641   8.690   0.951   2.439 -0.1436  0.7788  0.5066
  250MOL0     C33642   8.822   0.961   2.482 -0.2438  0.0830  0.2084
  250MOL0     C33643   8.933   0.910   2.413  0.4381 -0.4640 -0.3320
  250MOL0     C33644   9.064   0.917   2.477 -0.5095 -0.3508 -0.1587
  250MOL0     O33645   9.168   0.849   2.415  0.4247 -0.1178 -0.0992
  250MOL0     C33646   9.301   0.870   2.454  0.0702  0.1148 -0.4666
  250MOL0     C33647   9.355   0.836   2.584 -0.3979  0.0683 -0.4013
  250MOL0     C33648   9.491   0.852   2.604 -0.0993 -0.1792  0.5362
  250MOL0     C33649   9.576   0.889   2.500 -0.2417  0.0560 -0.1305
  250MOL0     O33650   9.718   0.873   2.494  0.0557  0.2827 -0.1642
  250MOL0     C33651   9.780   0.775   2.571 -1.0801 -0.8347  0.5002
  250MOL0     C33652   9.913   0.747   2.513 -0.3930  0.5953  0.3538
  250MOL0     C33653   9.999   0.665   2.601  0.1809  0.1957 -0.6235
  250MOL0     C33654  10.070   0.751   2.704 -0.4273  0.4056 -0.2641
  250MOL0     C33655  10.201   0.693   2.750  0.1978  0.2752 -1.5513
  250MOL0     C33656  10.317   0.679   2.649 -0.3063  0.3470 -0.0026
  250MOL0     C33657  10.374   0.818   2.629 -0.6395  0.4140  0.0067
  250MOL0     C33658  10.511   0.823   2.575  0.0082  0.1228  0.3520
  250MOL0    Cl33659  10.493   0.802   2.398  0.0566  0.0687 -0.2676
  250MOL0     C33660   9.525   0.925   2.373 -0.1291 -0.1383  0.0475
  250MOL0     C33661   9.386   0.914   2.352 -0.0840  0.7896  0.0491
  250MOL0     O33662   9.076   0.983   2.579 -0.0349 -0.1030  0.3141
  250MOL0     C33663   8.911   0.853   2.292 -0.5296  0.5055 -0.1684
  250MOL0     C33664   8.773   0.835   2.245 -0.8523 -0.1812 -0.9641
  250MOL0     N33665   8.046   0.621   2.050 -0.2260 -0.1731  0.5131
  250MOL0     N33666   7.952   0.555   2.112  0.0505  0.8917  0.1298
  250MOL0     C33667   6.610   0.824   2.499 -0.1769 -0.4156  0.6276
  250MOL0     C33668   6.482   0.856   2.454  0.6266 -0.4275  0.8586
  250MOL0     C33669   6.119   1.053   2.342 -0.0525 -0.1663 -0.0265
  250MOL0     C33670   6.074   0.956   2.250  0.4696 -0.1023  0.7109
  250MOL0     C33671   5.943   0.956   2.193 -0.0382 -0.3335 -0.7490
  250MOL0     C33672   5.848   1.045   2.240 -0.1643  0.0167  0.3859
  250MOL0     O33673   5.716   1.055   2.194 -0.1092  0.2813 -0.4728
  250MOL0     C33674   5.649   0.925   2.164 -0.1750 -0.3703 -0.5078
  250MOL0     C33675   5.500   0.945   2.173  0.2035 -0.2315  0.0790
  250MOL0     C33676   5.425   0.810   2.165 -0.2722 -0.7173 -0.6047
  250MOL0     C33677   5.298   0.811   2.255  0.9682 -0.7725 -0.7097
  250MOL0     C33678   5.209   0.702   2.206  0.1876  0.5035  0.1204
  250MOL0     C33679   5.123   0.625   2.171  0.2187 -0.7931  0.8155
  250MOL0     C33680   5.891   1.147   2.339  0.6257  0.0671  0.7964
  250MOL0     C33681   6.025   1.145   2.388  0.8182 -0.0284 -0.8602
  250MOL0     C33682   6.055   1.253   2.489  0.0765  0.2429 -0.1732
  250MOL0     H33683   6.544   1.082   2.220  0.4073  0.9688  1.5408
  250MOL0     H33684   6.778   1.032   2.284 -0.3630  1.0954  2.1109
  250MOL0     H33685   6.876   0.692   2.326  2.1942 -1.3344  0.8908
  250MOL0     H33686   6.933   0.846   2.268  0.8011 -3.0054 -1.6910
  250MOL0     H33687   7.060   0.719   2.498  1.8357  0.2580 -0.2666
  250MOL0     H33688   7.105   0.879   2.420 -0.4124  0.6369 -1.4021
  250MOL0     H33689   7.148   0.733   2.210  0.9137  0.2218  0.3010
  250MOL0     H33690   7.145   0.591   2.326 -0.0177  0.1609  0.6674
  250MOL0     H33691   7.325   0.832   2.365  0.1885 -0.2058  2.0854
  250MOL0     H33692   7.343   0.671   2.437 -0.5516 -0.1496  0.0380
  250MOL0     H33693   7.388   0.587   2.193  2.9125 -3.4403  2.2923
  250MOL0     H33694   7.443   0.759   2.181  0.3270 -1.1109 -1.1941
  250MOL0     H33695   7.572   0.718   2.395 -3.2050 -0.2666  0.8231
  250MOL0     H33696   7.552   0.547   2.364  1.9121 -0.4308  0.5387
  250MOL0     H33697   7.684   0.751   2.190  1.5267 -0.7272 -3.0260
  250MOL0     H33698   7.643   0.587   2.133 -0.8291 -0.0956  0.5797
  250MOL0     H33699   7.792   0.651   2.392 -2.1862  1.1885 -0.8936
  250MOL0     H33700   7.808   0.494   2.331  2.0007  0.3710  1.1425
  250MOL0     H33701   7.947   0.848   2.256 -1.5436 -0.6900  0.4865
  250MOL0     H33702   8.146   0.827   1.940 -1.7409  1.2529 -0.2624
  250MOL0     H33703   8.066   0.944   2.037 -1.1933 -0.1777  3.2112
  250MOL0     H33704   8.302   0.960   2.040  0.8555 -1.5546 -0.6009
  250MOL0     H33705   8.245   0.947   2.206  0.2202  0.7488  0.1620
  250MOL0     H33706   8.355   0.705   2.056  2.3911 -1.3272  0.4929
  250MOL0     H33707   8.315   0.719   2.233 -2.0271 -0.6085 -1.0102
  250MOL0     H33708   8.525   0.869   2.077 -0.1984 -1.1038  0.0996
  250MOL0     H33709   8.563   0.723   2.161  0.0702 -1.0695 -2.9364
  250MOL0     H33710   8.608   1.003   2.488  0.6359  1.7206  0.8395
  250MOL0     H33711   8.836   1.010   2.577  3.8568  0.4644 -0.4098
  250MOL0     H33712   9.290   0.796   2.661  1.4758 -1.4363  0.4864
  250MOL0     H33713   9.536   0.817   2.697  2.5997 -3.7045 -1.8238
  250MOL0     H33714   9.798   0.801   2.676  1.2973 -2.9177  0.7272
  250MOL0     H33715   9.726   0.680   2.573  0.6897 -1.9062  0.0145
  250MOL0     H33716   9.894   0.685   2.425  0.7046 -1.1031  1.2316
  250MOL0     H33717   9.956   0.844   2.488  0.1279  0.2005 -0.2931
  250MOL0     H33718   9.949   0.583   2.653 -0.7976  0.8139 -0.5681
  250MOL0     H33719  10.079   0.624   2.539  1.4874  0.2917  0.9230
  250MOL0     H33720  10.011   0.773   2.793 -0.3234 -5.2451  1.6365
  250MOL0     H33721  10.094   0.848   2.659 -1.0416  1.9175  2.4748
  250MOL0     H33722  10.186   0.592   2.791 -0.7174  0.4386 -1.4508
  250MOL0     H33723  10.248   0.746   2.833  0.2687 -0.3993 -1.1481
  250MOL0     H33724  10.394   0.615   2.693 -2.1333 -1.7817  0.2820
  250MOL0     H33725  10.279   0.635   2.557 -1.3996 -1.3815  1.2230
  250MOL0     H33726  10.367   0.870   2.724 -2.1273 -0.4833  0.4152
  250MOL0     H33727  10.314   0.872   2.556 -1.9559 -0.3610  0.4823
  250MOL0     H33728  10.554   0.922   2.593  0.8858  0.2846 -2.3032
  250MOL0     H33729  10.576   0.747   2.618  1.8018  2.5060  2.1800
  250MOL0     H33730   9.585   0.973   2.296 -0.3863  1.2494  0.6895
  250MOL0     H33731   9.346   0.949   2.258 -1.3155  0.4377  0.4280
  250MOL0     H33732   8.998   0.811   2.242  1.7007  0.9235  3.0461
  250MOL0     H33733   8.764   0.782   2.151  1.4322 -1.7597 -0.3822
  250MOL0     H33734   6.623   0.750   2.578  1.5679 -0.7361  0.0862
  250MOL0     H33735   6.399   0.818   2.514  2.5288 -1.1759  3.1473
  250MOL0     H33736   6.132   0.878   2.203 -0.1262 -0.9693  1.3926
  250MOL0     H33737   5.927   0.880   2.117  0.4065 -0.6241 -0.5574
  250MOL0     H33738   5.666   0.854   2.245 -4.2397 -0.8892  0.0885
  250MOL0     H33739   5.683   0.881   2.069  3.2177 -0.2490  0.5058
  250MOL0     H33740   5.462   1.009   2.092  0.8856  0.3286  0.1892
  250MOL0     H33741   5.476   0.987   2.271 -0.9185  1.4341 -0.8502
  250MOL0     H33742   5.494   0.730   2.194 -0.6253 -0.9305 -0.3399
  250MOL0     H33743   5.402   0.793   2.059 -2.2120 -1.7446 -0.0619
  250MOL0     H33744   5.310   0.806   2.363 -1.7400 -1.5096 -0.3704
  250MOL0     H33745   5.254   0.910   2.240  1.2911 -0.4010  0.6819
  250MOL0     H33746   5.049   0.559   2.129  1.6978 -0.9144 -1.7739
  250MOL0     H33747   5.807   1.206   2.374 -0.1088 -1.2260  1.2668
  250MOL0     H33748   6.111   1.223   2.578  0.7225  3.5083  0.6516
  250MOL0     H33749   6.118   1.329   2.442  0.2524  0.1479 -0.0925
  250MOL0     H33750   5.969   1.304   2.533  0.3854  1.9294 -1.4306
  251MOL0     O33751   2.670   3.343   5.939 -0.2201  0.3699  0.1263
  251MOL0     C33752   2.646   3.441   5.870  0.5674 -0.1785  0.6434
  251MOL0     O33753   2.733   3.503   5.780 -0.0089  0.1053  0.0102
  251MOL0     C33754   2.860   3.465   5.781  0.1470  0.1156  0.4945
  251MOL0     C33755   2.906   3.391   5.669  0.5975  0.5122 -0.5977
  251MOL0     C33756   3.041   3.345   5.657 -0.0807  0.5726  0.2205
  251MOL0     C33757   3.133   3.365   5.767 -0.4489  0.3551 -0.4464
  251MOL0     O33758   3.258   3.326   5.759 -0.2211  0.6015 -0.7457
  251MOL0     C33759   3.279   3.215   5.838 -0.8528  0.0270 -0.0910
  251MOL0     C33760   3.436   3.173   5.832 -0.5519  0.2365 -0.0560
  251MOL0     C33761   3.522   3.243   5.934  0.3112  1.0698 -0.0037
  251MOL0     C33762   3.635   3.147   5.964 -0.8276  0.6520 -0.0919
  251MOL0     C33763   3.720   3.181   6.080  0.2458 -0.1025 -0.5394
  251MOL0     C33764   3.848   3.080   6.091 -0.1274 -0.6172 -0.0585
  251MOL0     C33765   3.940   3.136   6.208 -0.5550 -0.0822  0.6704
  251MOL0     C33766   4.063   3.050   6.223 -0.0524 -0.0688  0.6775
  251MOL0     N33767   4.153   3.082   6.335 -0.7354  0.0516  0.1751
  251MOL0     C33768   4.247   3.185   6.334 -0.3833 -0.1414 -0.1680
  251MOL0     C33769   4.301   3.183   6.458  0.2241 -0.9376  0.5684
  251MOL0     C33770   4.409   3.277   6.504  0.0294  0.2427  0.3222
  251MOL0     C33771   4.544   3.229   6.450 -0.1957 -1.0085 -0.2177
  251MOL0     C33772   4.645   3.342   6.487 -0.9616  0.1651 -1.1290
  251MOL0     C33773   4.787   3.306   6.444  0.4413  0.1110 -0.0850
  251MOL0     O33774   4.864   3.422   6.446 -0.7335 -0.2954 -0.1874
  251MOL0     C33775   5.000   3.406   6.486  0.0825 -0.7264 -0.0781
  251MOL0     C33776   5.084   3.353   6.397 -1.1918 -0.2717 -0.4277
  251MOL0     C33777   5.226   3.361   6.416 -0.3036  0.4263  0.5911
  251MOL0     C33778   5.276   3.411   6.542 -0.5178  0.6012 -0.3960
  251MOL0     C33779   5.428   3.414   6.573  0.2336 -0.5779 -0.3318
  251MOL0     O33780   5.511   3.382   6.464  0.1023 -0.2808  0.3119
  251MOL0     C33781   5.640   3.423   6.468 -0.2803  0.6036  1.3171
  251MOL0     C33782   5.734   3.343   6.403  0.6312  0.0189  0.2019
  251MOL0     C33783   5.868   3.377   6.393 -0.4757  0.6582 -0.1713
  251MOL0     C33784   5.912   3.502   6.448  0.3161  1.0749 -0.8286
  251MOL0     O33785   6.042   3.539   6.466  0.8892  1.2106 -0.2119
  251MOL0     C33786   6.138   3.439   6.494  0.0401  0.6366  0.5503
  251MOL0     C33787   6.268   3.513   6.520 -0.0874  0.1333  0.3931
  251MOL0     C33788   6.387   3.419   6.511  0.5021  0.1338  0.0295
  251MOL0     C33789   6.516   3.502   6.523 -0.2735 -0.2300 -0.7962
  251MOL0     C33790   6.647   3.424   6.479 -0.6218  0.6257 -0.0947
  251MOL0     C33791   6.681   3.324   6.582  0.2716  0.5658  0.0976
  251MOL0     C33792   6.828   3.270   6.551  0.2050 -1.0202 -0.5301
  251MOL0     C33793   6.890   3.152   6.637  0.3276  0.2146 -0.1839
  251MOL0    Cl33794   6.774   3.023   6.656  0.0701  0.1050  0.6768
  251MOL0     C33795   5.811   3.589   6.502  0.7594  0.8653 -0.0819
  251MOL0     C33796   5.674   3.550   6.517  0.0753  0.5358  0.4262
  251MOL0     O33797   5.471   3.438   6.687 -0.6081  0.5931  0.7305
  251MOL0     C33798   5.182   3.458   6.636  0.4716 -0.2367  0.4468
  251MOL0     C33799   5.052   3.463   6.604  0.4148  0.9766  0.4335
  251MOL0     N33800   4.233   3.079   6.530 -1.1712 -0.1036  0.2961
  251MOL0     N33801   4.156   3.019   6.451  0.0000  0.1528 -0.1383
  251MOL0     C33802   3.091   3.428   5.880 -0.0633 -0.9115 -0.1010
  251MOL0     C33803   2.961   3.483   5.885  0.4208 -0.8955  0.2489
  251MOL0     C33804   2.507   3.495   5.858  0.0267  0.6707 -0.2507
  251MOL0     C33805   2.477   3.575   5.747  0.1250  0.1305  0.1485
  251MOL0     C33806   2.347   3.629   5.731 -0.1790 -1.3156  0.9124
  251MOL0     C33807   2.239   3.605   5.814  0.6627  0.2544  0.1904
  251MOL0     O33808   2.124   3.669   5.797 -0.3850  0.0107  0.0069
  251MOL0     C33809   2.078   3.707   5.663 -0.2087 -0.6211 -0.3355
  251MOL0     C33810   1.938   3.752   5.684  1.2205 -0.0522  0.4752
  251MOL0     C33811   1.851   3.638   5.725  0.6849 -0.3636  1.3071
  251MOL0     C33812   1.703   3.674   5.758  0.5680 -0.0137 -0.1196
  251MOL0     C33813   1.701   3.784   5.847  0.0310 -0.3399  1.1598
  251MOL0     C33814   1.718   3.875   5.924  0.1311 -0.2753 -0.3999
  251MOL0     C33815   2.267   3.527   5.924  0.7363 -0.3018 -0.4645
  251MOL0     C33816   2.398   3.480   5.950  0.0913  0.4459 -0.9512
  251MOL0     C33817   2.408   3.413   6.086 -0.6891  0.1116  0.0377
  251MOL0     H33818   2.825   3.373   5.600  1.5424  2.4432 -2.3096
  251MOL0     H33819   3.079   3.284   5.576  1.0791 -0.3761  1.4248
  251MOL0     H33820   3.251   3.232   5.942 -0.8926 -0.4998 -0.0110
  251MOL0     H33821   3.216   3.129   5.813 -2.2929  1.1604 -0.5166
  251MOL0     H33822   3.476   3.193   5.732 -1.6829 -0.1786 -0.6107
  251MOL0     H33823   3.440   3.066   5.855  1.9569  0.2070 -0.3292
  251MOL0     H33824   3.467   3.264   6.026 -0.2522 -0.6617  0.0930
  251MOL0     H33825   3.564   3.335   5.894  2.1326 -0.2843 -1.3930
  251MOL0     H33826   3.590   3.050   5.988 -0.5912 -1.1135 -5.3866
  251MOL0     H33827   3.691   3.140   5.870 -3.2676 -0.3474 -1.5724
  251MOL0     H33828   3.759   3.282   6.064 -1.6065  0.5408 -1.2731
  251MOL0     H33829   3.664   3.181   6.174 -0.6687 -3.0093 -0.9857
  251MOL0     H33830   3.814   2.978   6.109 -1.3105  0.1653  2.7552
  251MOL0     H33831   3.904   3.081   5.997  2.0800 -2.0288  1.1453
  251MOL0     H33832   3.888   3.138   6.304  0.2626 -1.6949  1.1805
  251MOL0     H33833   3.972   3.239   6.187  0.9938 -0.6673 -0.0009
  251MOL0     H33834   4.037   2.944   6.217  2.6495 -0.7705 -0.1243
  251MOL0     H33835   4.120   3.065   6.131  1.4330  0.3923  1.6281
  251MOL0     H33836   4.272   3.237   6.242 -2.2097  0.5677 -0.2983
  251MOL0     H33837   4.380   3.379   6.477 -1.6969 -0.5026 -0.8270
  251MOL0     H33838   4.405   3.263   6.612 -1.7846  1.8816  0.5152
  251MOL0     H33839   4.581   3.134   6.488  1.7781  0.4766  1.8394
  251MOL0     H33840   4.534   3.222   6.341  1.9745  2.5563 -0.8099
  251MOL0     H33841   4.646   3.354   6.596 -0.0476 -1.1863 -0.9699
  251MOL0     H33842   4.629   3.441   6.443  2.2621  1.2046 -0.2635
  251MOL0     H33843   4.781   3.265   6.343  1.2323 -1.0663  0.3238
  251MOL0     H33844   4.842   3.237   6.509  1.8272  0.5078 -0.7853
  251MOL0     H33845   5.052   3.326   6.297  0.7893  0.5365 -1.3268
  251MOL0     H33846   5.286   3.327   6.332 -3.0366  2.3958 -2.4295
  251MOL0     H33847   5.707   3.254   6.349  1.3818  0.7215 -1.3933
  251MOL0     H33848   5.940   3.307   6.353 -0.3885  2.0999 -2.7404
  251MOL0     H33849   6.113   3.391   6.589 -3.0769 -0.3927 -0.6648
  251MOL0     H33850   6.144   3.360   6.419 -1.1851  1.2194 -0.1900
  251MOL0     H33851   6.272   3.597   6.450 -1.7843  0.2283  0.3699
  251MOL0     H33852   6.269   3.564   6.617  3.0625  1.9012 -0.4130
  251MOL0     H33853   6.383   3.353   6.597  1.9203 -0.5479 -0.3994
  251MOL0     H33854   6.389   3.368   6.414  5.2532  0.1654 -0.1152
  251MOL0     H33855   6.518   3.548   6.622 -1.6036  2.8636 -2.0807
  251MOL0     H33856   6.514   3.585   6.452  0.4178 -2.4598 -3.6306
  251MOL0     H33857   6.731   3.492   6.494 -0.8201  0.3713  2.9384
  251MOL0     H33858   6.639   3.390   6.375 -0.4021  2.5528 -0.7738
  251MOL0     H33859   6.662   3.380   6.673  0.4356  0.9663 -0.1139
  251MOL0     H33860   6.605   3.246   6.571 -1.2307  1.8190  1.3389
  251MOL0     H33861   6.898   3.354   6.563 -1.7000  0.4030  1.2856
  251MOL0     H33862   6.831   3.241   6.445  0.7655 -2.7557 -0.0712
  251MOL0     H33863   6.977   3.103   6.592  0.0529 -0.2270 -0.2327
  251MOL0     H33864   6.920   3.187   6.736  0.4664 -0.9402  0.1886
  251MOL0     H33865   5.836   3.688   6.536  1.5285  0.1220  1.6447
  251MOL0     H33866   5.595   3.613   6.556  0.5865 -0.4781  3.2953
  251MOL0     H33867   5.219   3.471   6.737 -0.3008 -1.4569  0.9143
  251MOL0     H33868   4.975   3.518   6.657 -1.5961  1.3530 -2.6136
  251MOL0     H33869   3.155   3.461   5.961 -0.0491  1.1388 -0.8713
  251MOL0     H33870   2.941   3.551   5.968  1.9718  0.3948 -0.3742
  251MOL0     H33871   2.545   3.592   5.665 -2.2500 -1.0557 -2.2107
  251MOL0     H33872   2.324   3.683   5.639 -0.0386 -1.3906  0.8311
  251MOL0     H33873   2.089   3.620   5.598 -1.1007 -1.6658  0.8837
  251MOL0     H33874   2.133   3.789   5.616 -0.2828  1.0708  2.3074
  251MOL0     H33875   1.883   3.794   5.599 -1.1831  0.3301  2.1048
  251MOL0     H33876   1.936   3.828   5.762  1.9529  0.7785 -0.2899
  251MOL0     H33877   1.902   3.603   5.815 -1.0679 -1.5992  1.8563
  251MOL0     H33878   1.846   3.554   5.655 -0.7940 -0.5600  1.6101
  251MOL0     H33879   1.647   3.703   5.669  0.5896 -0.9532 -0.4492
  251MOL0     H33880   1.656   3.595   5.816 -0.8805  1.7951  1.3083
  251MOL0     H33881   1.732   3.963   5.983  0.3582  0.3944 -1.4395
  251MOL0     H33882   2.176   3.522   5.984 -0.9056  0.6905 -2.7066
  251MOL0     H33883   2.495   3.453   6.138 -1.9320  2.0778  0.6814
  251MOL0     H33884   2.315   3.409   6.143 -1.4651 -1.4930 -1.2529
  251MOL0     H33885   2.431   3.307   6.070 -3.4280 -0.6040  0.4054
  252MOL0     O33886   7.018   3.792   5.377  0.2104 -0.0502  0.3476
  252MOL0     C33887   7.034   3.751   5.492 -0.3129  0.4702  0.6581
  252MOL0     O33888   7.156   3.766   5.563  0.4113 -0.0680  0.4206
  252MOL0     C33889   7.258   3.816   5.484 -0.3560  0.8203 -0.0463
  252MOL0     C33890   7.289   3.949   5.469 -0.3248  0.1342  0.1018
  252MOL0     C33891   7.379   3.998   5.368  0.5740 -0.6658 -0.0946
  252MOL0     C33892   7.439   3.902   5.281  0.2727  0.7502 -0.4507
  252MOL0     O33893   7.530   3.924   5.176 -0.3488  0.7882 -0.6570
  252MOL0     C33894   7.631   4.017   5.190  0.0251  0.1865  0.1396
  252MOL0     C33895   7.739   3.986   5.089 -0.5169 -1.4574 -0.5539
  252MOL0     C33896   7.852   4.088   5.100  0.8381  0.2354 -1.3305
  252MOL0     C33897   7.951   4.084   4.981 -0.5843  0.1562  0.2153
  252MOL0     C33898   8.064   4.191   4.998  0.5942  0.6950  0.5106
  252MOL0     C33899   8.165   4.180   4.884  0.3232 -0.0359  0.5405
  252MOL0     C33900   8.296   4.268   4.903  0.5122 -0.0063  0.2812
  252MOL0     C33901   8.389   4.256   4.771  0.0001 -0.1513 -0.3471
  252MOL0     N33902   8.528   4.289   4.820  0.3238 -0.3124  0.2856
  252MOL0     C33903   8.587   4.407   4.809 -0.9786 -0.3626 -0.1125
  252MOL0     C33904   8.708   4.399   4.874 -0.5297  0.1711 -0.1183
  252MOL0     C33905   8.807   4.508   4.891  0.1933 -0.0334 -0.0926
  252MOL0     C33906   8.949   4.467   4.844  0.2563  0.2696 -0.7675
  252MOL0     C33907   8.960   4.481   4.695 -0.7153  0.2037 -0.2230
  252MOL0     C33908   9.106   4.435   4.645  0.2734  0.6085  0.3989
  252MOL0     O33909   9.211   4.517   4.702 -0.2732  0.5493 -0.6221
  252MOL0     C33910   9.332   4.492   4.652 -0.2773 -0.4189  0.7337
  252MOL0     C33911   9.427   4.580   4.698  0.2530  0.2477 -0.0893
  252MOL0     C33912   9.554   4.573   4.659 -0.6072  0.1182 -0.2163
  252MOL0     C33913   9.601   4.474   4.566 -0.1235 -0.3873 -0.3568
  252MOL0     C33914   9.740   4.477   4.512 -0.0364  0.6906  0.5756
  252MOL0     O33915   9.802   4.598   4.518 -0.9904  0.8851 -0.1542
  252MOL0     C33916   9.939   4.606   4.488  0.0130 -0.1135 -0.1847
  252MOL0     C33917  10.034   4.556   4.579 -0.0701 -0.3248 -0.2343
  252MOL0     C33918  10.170   4.567   4.547  1.0606 -0.5005  0.0353
  252MOL0     C33919  10.205   4.622   4.426  0.3416 -1.0462 -0.7222
  252MOL0     O33920  10.340   4.639   4.390  0.5281 -0.2000  0.4226
  252MOL0     C33921  10.449   4.631   4.478  0.3385 -0.3776  0.2197
  252MOL0     C33922  10.571   4.654   4.402  0.2260  0.6064  0.9260
  252MOL0     C33923  10.691   4.656   4.500 -1.3490  0.2490 -0.2369
  252MOL0     C33924  10.820   4.706   4.438 -0.6893  0.0557  0.5874
  252MOL0     C33925  10.949   4.671   4.508 -0.7398  0.4623 -0.9032
  252MOL0     C33926  10.986   4.518   4.509 -0.0976  0.3432 -0.3968
  252MOL0     C33927  11.139   4.487   4.526  0.3154 -0.0522 -0.4002
  252MOL0     C33928  11.178   4.369   4.623 -0.0086  0.4041  0.0381
  252MOL0    Cl33929  11.353   4.372   4.661 -0.3533 -0.1737 -0.1581
  252MOL0     C33930  10.110   4.674   4.344 -0.4168 -0.4667 -0.7389
  252MOL0     C33931   9.978   4.673   4.374 -0.0598 -0.5729 -0.0723
  252MOL0     O33932   9.771   4.387   4.439 -0.3935  0.3752 -0.1125
  252MOL0     C33933   9.512   4.382   4.519  1.9751  0.5662  0.5013
  252MOL0     C33934   9.374   4.388   4.565  0.0406  1.3708  0.2186
  252MOL0     N33935   8.717   4.273   4.935  0.7792 -0.3494 -0.2404
  252MOL0     N33936   8.603   4.213   4.912 -0.4333  0.5106  0.5140
  252MOL0     C33937   7.406   3.768   5.298 -0.2506  0.2949 -0.0831
  252MOL0     C33938   7.321   3.720   5.399 -0.4867  0.5419  0.6317
  252MOL0     C33939   6.928   3.669   5.555  0.1218 -0.3635  0.1442
  252MOL0     C33940   6.800   3.730   5.550  0.2980 -1.2739 -0.6378
  252MOL0     C33941   6.691   3.673   5.596  0.0149  1.0761  0.7486
  252MOL0     C33942   6.698   3.545   5.655 -0.1020 -0.8185 -0.5841
  252MOL0     O33943   6.571   3.491   5.693 -1.0268  0.5912 -0.0879
  252MOL0     C33944   6.579   3.386   5.790 -0.5310 -0.2326 -0.4485
  252MOL0     C33945   6.440   3.383   5.859  0.4866 -0.1125  0.0677
  252MOL0     C33946   6.439   3.286   5.982 -0.8109 -0.5993  0.6171
  252MOL0     C33947   6.300   3.273   6.041 -0.2636  0.9541  0.4937
  252MOL0     C33948   6.254   3.396   6.099  0.8886 -0.2423  0.7594
  252MOL0     C33949   6.208   3.487   6.171  0.6379 -0.2744  0.8075
  252MOL0     C33950   6.822   3.473   5.663 -0.0034 -0.9559  0.6274
  252MOL0     C33951   6.936   3.543   5.619  0.2165 -0.2782 -0.0710
  252MOL0     C33952   7.065   3.474   5.651  0.6736  0.1868 -0.3435
  252MOL0     H33953   7.220   4.020   5.514  0.6865  0.6097  0.9389
  252MOL0     H33954   7.398   4.104   5.355  0.3641 -0.8346 -2.2862
  252MOL0     H33955   7.580   4.113   5.182 -0.9171 -0.3387 -0.3044
  252MOL0     H33956   7.675   4.012   5.290  0.6887  4.6423  0.2793
  252MOL0     H33957   7.698   3.991   4.988  0.3355 -2.8775 -0.9913
  252MOL0     H33958   7.775   3.888   5.120  0.9387 -1.4950 -2.2286
  252MOL0     H33959   7.909   4.067   5.191  0.7161 -3.6069 -1.9660
  252MOL0     H33960   7.810   4.188   5.111  0.7727  0.3644 -2.6079
  252MOL0     H33961   7.985   3.980   4.976 -0.1090  0.3584 -1.7191
  252MOL0     H33962   7.898   4.104   4.888 -1.3191 -1.5732  0.2399
  252MOL0     H33963   8.024   4.292   5.001 -2.8011 -0.5363  0.5687
  252MOL0     H33964   8.124   4.176   5.088  1.5267 -0.1231 -0.2164
  252MOL0     H33965   8.205   4.079   4.871  1.3351  0.2047  1.6210
  252MOL0     H33966   8.119   4.215   4.791 -0.3520  1.2114  1.3099
  252MOL0     H33967   8.355   4.251   4.993  0.6196  1.8310  0.6004
  252MOL0     H33968   8.260   4.371   4.908  3.0241  1.2243 -3.0296
  252MOL0     H33969   8.375   4.159   4.722  0.5368  0.8802 -2.6993
  252MOL0     H33970   8.364   4.336   4.701  0.3499 -0.5946 -0.9899
  252MOL0     H33971   8.543   4.488   4.752 -0.9076  2.1944  3.1631
  252MOL0     H33972   8.763   4.598   4.847  0.8592 -1.2880 -3.6935
  252MOL0     H33973   8.826   4.534   4.995 -0.9053  1.4085 -0.2238
  252MOL0     H33974   9.017   4.533   4.899 -0.2012  0.2509 -0.1703
  252MOL0     H33975   8.963   4.364   4.881 -4.5168 -0.6972 -1.0792
  252MOL0     H33976   8.941   4.585   4.666  0.0174 -0.0469 -1.7469
  252MOL0     H33977   8.880   4.422   4.651  1.0707 -1.7152 -1.0917
  252MOL0     H33978   9.109   4.437   4.535  1.3542  1.0363  0.4320
  252MOL0     H33979   9.113   4.329   4.673 -1.7326 -0.3950 -2.3026
  252MOL0     H33980   9.415   4.651   4.779  1.2921 -0.7540  0.9870
  252MOL0     H33981   9.620   4.651   4.694 -0.6995 -0.5629  1.5606
  252MOL0     H33982  10.004   4.504   4.669 -0.5159  0.3047 -0.0063
  252MOL0     H33983  10.232   4.521   4.624 -3.0308  1.3247  5.0408
  252MOL0     H33984  10.430   4.707   4.554 -2.1030  0.8448 -1.4584
  252MOL0     H33985  10.444   4.531   4.522  2.6817 -0.9889 -0.7397
  252MOL0     H33986  10.570   4.573   4.328 -0.1148 -0.9257  2.5360
  252MOL0     H33987  10.568   4.747   4.344  2.2716 -0.8239 -1.7070
  252MOL0     H33988  10.676   4.729   4.580 -1.0366  2.8014 -2.3505
  252MOL0     H33989  10.697   4.552   4.534 -2.4426  0.1027 -0.4663
  252MOL0     H33990  10.813   4.815   4.443  0.2254  0.3505 -2.4300
  252MOL0     H33991  10.832   4.673   4.334  1.0950  1.3362  0.3424
  252MOL0     H33992  10.917   4.713   4.604  0.4997  3.1371 -1.5611
  252MOL0     H33993  11.033   4.730   4.469 -0.9182  0.8626 -0.6883
  252MOL0     H33994  10.934   4.459   4.585  1.5505  0.1427  0.6437
  252MOL0     H33995  10.956   4.468   4.417  3.0836 -2.7427  0.0577
  252MOL0     H33996  11.169   4.580   4.574  1.9187 -0.1376 -1.1901
  252MOL0     H33997  11.187   4.486   4.428 -1.6888  3.7753 -1.6587
  252MOL0     H33998  11.117   4.398   4.709  0.9187  2.7279 -0.0102
  252MOL0     H33999  11.152   4.271   4.582 -3.1859  1.3353 -0.4014
  252MOL0     H34000  10.158   4.702   4.251 -1.0252  2.8655 -0.1520
  252MOL0     H34001   9.904   4.727   4.315  1.4740  0.2943 -1.2653
  252MOL0     H34002   9.542   4.301   4.454 -3.1255 -1.3585  0.0681
  252MOL0     H34003   9.307   4.309   4.534  2.2250 -0.2039 -0.7566
  252MOL0     H34004   7.452   3.696   5.232 -1.7389 -1.4019  0.6441
  252MOL0     H34005   7.293   3.615   5.396 -1.0749  0.6991 -1.8051
  252MOL0     H34006   6.797   3.830   5.507  0.6466 -0.7504  0.4900
  252MOL0     H34007   6.600   3.734   5.601 -0.1265  1.0976 -1.4086
  252MOL0     H34008   6.661   3.404   5.861 -0.7582 -1.4838  0.1600
  252MOL0     H34009   6.591   3.284   5.750  0.9631  0.3033 -1.4745
  252MOL0     H34010   6.387   3.323   5.786  1.5695 -0.8705 -0.1225
  252MOL0     H34011   6.397   3.483   5.872  3.6415  1.2677  0.8631
  252MOL0     H34012   6.511   3.319   6.058  2.0471  0.8146 -2.4581
  252MOL0     H34013   6.474   3.188   5.949  1.2106  0.1839  0.2805
  252MOL0     H34014   6.221   3.228   5.979 -0.7169 -0.0706  1.7595
  252MOL0     H34015   6.322   3.205   6.123 -1.8108 -0.4170 -0.1701
  252MOL0     H34016   6.147   3.563   6.215 -4.6765 -2.0687 -2.4074
  252MOL0     H34017   6.828   3.370   5.696 -0.7095 -2.0475 -2.3741
  252MOL0     H34018   7.098   3.487   5.754  2.5933  1.1255 -1.0356
  252MOL0     H34019   7.040   3.368   5.637  1.8595  0.0185 -1.3881
  252MOL0     H34020   7.150   3.502   5.588  0.6996 -0.6035 -0.6715
  253MOL0     O34021   6.524   6.619   6.342  0.2625 -0.4957 -0.0605
  253MOL0     C34022   6.447   6.531   6.387 -0.3221 -0.1075  0.5881
  253MOL0     O34023   6.465   6.397   6.356 -0.0302  0.2994  0.4746
  253MOL0     C34024   6.547   6.349   6.253  0.1819 -0.2371  0.0452
  253MOL0     C34025   6.484   6.296   6.145  0.5663 -0.4380 -0.0272
  253MOL0     C34026   6.550   6.243   6.034  1.0914  0.7111  0.2039
  253MOL0     C34027   6.687   6.226   6.035 -0.7137  0.3011  0.2082
  253MOL0     O34028   6.742   6.172   5.923  0.4435  0.2351 -0.2252
  253MOL0     C34029   6.860   6.240   5.873  0.3342  0.0276 -0.8556
  253MOL0     C34030   6.989   6.169   5.926  0.7341  0.4334 -0.2109
  253MOL0     C34031   7.118   6.208   5.846  0.5167 -0.3624 -0.7473
  253MOL0     C34032   7.140   6.112   5.735  0.4361 -0.0893  0.7167
  253MOL0     C34033   7.268   6.123   5.664 -0.1443  0.3995 -0.5588
  253MOL0     C34034   7.275   6.042   5.532 -1.0823  0.3041  0.7429
  253MOL0     C34035   7.418   6.046   5.466 -0.0245  0.2593  0.7019
  253MOL0     C34036   7.441   6.181   5.389  0.6014  0.5170 -0.3042
  253MOL0     N34037   7.572   6.195   5.320  0.5487  0.5087  1.4837
  253MOL0     C34038   7.630   6.307   5.264 -0.2173  0.5518 -0.0784
  253MOL0     C34039   7.747   6.273   5.212 -1.2920  0.4097  0.0024
  253MOL0     C34040   7.846   6.372   5.161 -0.3294 -0.1558  0.4063
  253MOL0     C34041   7.921   6.319   5.040  0.5810 -0.6866 -0.0738
  253MOL0     C34042   7.996   6.438   4.974  0.1272 -0.0533 -0.2974
  253MOL0     C34043   8.127   6.378   4.911 -0.2585 -0.0955  0.0860
  253MOL0     O34044   8.205   6.481   4.861  0.4165 -0.0067 -0.5116
  253MOL0     C34045   8.334   6.447   4.821  0.6456  0.5765 -0.2880
  253MOL0     C34046   8.424   6.554   4.815  0.8667  0.2084  0.1156
  253MOL0     C34047   8.567   6.537   4.795  0.1904  0.3967 -0.0967
  253MOL0     C34048   8.626   6.412   4.775 -0.0887  0.8531  0.0540
  253MOL0     C34049   8.768   6.374   4.753  0.2462 -0.7230 -0.6226
  253MOL0     O34050   8.806   6.241   4.733 -1.6064 -0.1358 -0.4262
  253MOL0     C34051   8.942   6.210   4.718 -0.0847  0.0029  0.2415
  253MOL0     C34052   9.035   6.252   4.816 -0.4243 -0.1029 -0.3402
  253MOL0     C34053   9.170   6.210   4.812  0.8383  0.1729 -0.2949
  253MOL0     C34054   9.202   6.114   4.715 -0.8141  0.3210  0.2144
  253MOL0     O34055   9.333   6.092   4.683  0.0785 -0.8002  0.5064
  253MOL0     C34056   9.433   6.159   4.755  0.9640 -0.2725  0.2970
  253MOL0     C34057   9.553   6.147   4.673 -0.0196  0.3459  0.4589
  253MOL0     C34058   9.668   6.233   4.717  0.4029  0.9052 -0.1867
  253MOL0     C34059   9.690   6.224   4.870  0.5023  0.6436 -0.7851
  253MOL0     C34060   9.829   6.277   4.901  0.2639  0.3927 -0.1018
  253MOL0     C34061   9.941   6.181   4.856  0.3757 -0.1291  0.3272
  253MOL0     C34062  10.076   6.218   4.926  0.2509  0.1884  0.0537
  253MOL0     C34063  10.190   6.123   4.877  0.2204  0.3450 -0.1849
  253MOL0    Cl34064  10.224   6.159   4.706 -0.7343 -0.2278  0.1159
  253MOL0     C34065   9.116   6.068   4.613  0.4639 -0.3903 -0.9488
  253MOL0     C34066   8.985   6.124   4.616  0.4845 -0.3844  0.5189
  253MOL0     O34067   8.838   6.473   4.774  0.1492 -0.1329 -0.0137
  253MOL0     C34068   8.528   6.306   4.782  0.4692 -0.4165  1.3577
  253MOL0     C34069   8.391   6.321   4.798 -0.2247  0.0407 -0.5870
  253MOL0     N34070   7.758   6.132   5.226  0.1314 -0.5421  0.0123
  253MOL0     N34071   7.647   6.087   5.287 -0.3148  0.1753  0.0237
  253MOL0     C34072   6.755   6.283   6.142  0.4734  0.7136 -0.1927
  253MOL0     C34073   6.688   6.336   6.256  0.4294 -0.1062  0.3763
  253MOL0     C34074   6.334   6.579   6.468 -0.7240  0.3062 -0.1535
  253MOL0     C34075   6.260   6.481   6.538  0.0113 -0.0193  0.4157
  253MOL0     C34076   6.144   6.516   6.602 -0.8966  0.0384  0.2293
  253MOL0     C34077   6.098   6.642   6.613 -0.0576  0.2952  0.7840
  253MOL0     O34078   5.994   6.674   6.690  0.1144 -0.3475  0.1179
  253MOL0     C34079   5.887   6.576   6.712  0.5185  0.0950  0.1083
  253MOL0     C34080   5.827   6.521   6.577  0.0833 -0.5838  0.4747
  253MOL0     C34081   5.732   6.632   6.518 -0.3644  0.3439  0.8149
  253MOL0     C34082   5.634   6.582   6.415  0.0331  0.0765 -0.4323
  253MOL0     C34083   5.568   6.697   6.352 -0.6302  0.3679 -0.0792
  253MOL0     C34084   5.523   6.788   6.291  0.1205  0.4423  0.7440
  253MOL0     C34085   6.179   6.740   6.554  0.0659  0.6553  0.0740
  253MOL0     C34086   6.290   6.711   6.477 -0.5277 -0.3016  0.1578
  253MOL0     C34087   6.349   6.834   6.416  0.0811 -0.8666  0.4579
  253MOL0     H34088   6.376   6.304   6.151  0.6138 -0.2130  0.6723
  253MOL0     H34089   6.496   6.198   5.951  1.7683  1.1474 -0.4865
  253MOL0     H34090   6.850   6.235   5.764  0.7227 -1.8572 -0.8434
  253MOL0     H34091   6.858   6.346   5.900  1.8689 -0.1553  0.0702
  253MOL0     H34092   6.967   6.062   5.915 -2.3258  0.9709 -0.0945
  253MOL0     H34093   6.996   6.177   6.034 -0.8896  0.3624 -0.0824
  253MOL0     H34094   7.206   6.202   5.911  1.6925 -1.6812 -2.3583
  253MOL0     H34095   7.103   6.310   5.808 -0.0167  0.4829  1.6122
  253MOL0     H34096   7.129   6.012   5.778 -1.7675  0.0290  0.5144
  253MOL0     H34097   7.056   6.120   5.666 -0.3104 -3.1231  1.1045
  253MOL0     H34098   7.295   6.227   5.643 -1.1759  0.7648 -0.1536
  253MOL0     H34099   7.345   6.086   5.733 -0.6617  1.1319  0.4365
  253MOL0     H34100   7.278   5.933   5.545  0.9612 -0.4259 -3.9142
  253MOL0     H34101   7.195   6.074   5.465 -0.6813 -0.0072  0.1117
  253MOL0     H34102   7.428   5.959   5.401 -3.6847 -0.3412  0.7611
  253MOL0     H34103   7.488   6.037   5.550 -0.2227  2.2574  1.1401
  253MOL0     H34104   7.363   6.204   5.316 -1.8834  0.5589  2.1988
  253MOL0     H34105   7.433   6.271   5.450  0.2824  1.1566 -1.2587
  253MOL0     H34106   7.583   6.404   5.273 -0.3450  0.4321  0.6388
  253MOL0     H34107   7.803   6.466   5.126 -2.0948 -0.7324  0.9657
  253MOL0     H34108   7.925   6.382   5.237 -1.6971  2.6316  1.6142
  253MOL0     H34109   7.989   6.244   5.082 -1.3415 -2.0249  0.7801
  253MOL0     H34110   7.861   6.271   4.962  1.1016 -1.8552  0.2288
  253MOL0     H34111   8.033   6.516   5.041  1.5977  0.3113 -1.4534
  253MOL0     H34112   7.931   6.480   4.896 -0.9712  1.4870  1.3688
  253MOL0     H34113   8.107   6.309   4.828  1.0178  1.9753 -2.0418
  253MOL0     H34114   8.176   6.332   4.998  0.5810 -1.4013 -1.0113
  253MOL0     H34115   8.399   6.656   4.843  2.8831  0.5494  0.8737
  253MOL0     H34116   8.627   6.628   4.794 -3.2386  3.0971  3.7569
  253MOL0     H34117   9.001   6.311   4.901  0.5712  0.3780 -0.2730
  253MOL0     H34118   9.234   6.247   4.891  0.5484 -0.3108  0.1739
  253MOL0     H34119   9.404   6.264   4.766 -0.7463 -0.9127  2.4642
  253MOL0     H34120   9.446   6.131   4.860  1.4072  3.1173  1.2520
  253MOL0     H34121   9.587   6.044   4.666 -1.8305 -0.2457 -0.0972
  253MOL0     H34122   9.521   6.181   4.574 -0.8886 -0.3598  0.4920
  253MOL0     H34123   9.744   6.189   4.652 -2.9212 -2.7829 -2.0177
  253MOL0     H34124   9.666   6.339   4.689  0.4608  0.2007 -3.1698
  253MOL0     H34125   9.673   6.119   4.896 -0.1157  0.9735  0.2324
  253MOL0     H34126   9.614   6.285   4.922 -1.1359  0.9297 -3.3396
  253MOL0     H34127   9.850   6.288   5.008  0.0653 -2.5896  0.3205
  253MOL0     H34128   9.839   6.380   4.863  0.9103  0.1928 -0.5064
  253MOL0     H34129   9.914   6.080   4.885 -1.7984 -0.5550 -2.6743
  253MOL0     H34130   9.966   6.179   4.749  3.1899 -1.4610  0.9239
  253MOL0     H34131  10.054   6.197   5.031 -2.1082  0.1319 -0.4109
  253MOL0     H34132  10.103   6.324   4.920 -3.0174  1.1276  0.0563
  253MOL0     H34133  10.283   6.138   4.933  1.1295 -0.2635 -1.4704
  253MOL0     H34134  10.168   6.016   4.891 -3.4191  0.8592 -0.9875
  253MOL0     H34135   9.143   5.993   4.539 -0.9401 -3.5688  1.4897
  253MOL0     H34136   8.904   6.097   4.549  0.0582  1.1523  0.3695
  253MOL0     H34137   8.560   6.205   4.762  1.2521 -0.3573  2.2709
  253MOL0     H34138   8.327   6.233   4.794 -1.5441  0.7546  2.3077
  253MOL0     H34139   6.863   6.297   6.140  0.4523  0.8385 -2.1813
  253MOL0     H34140   6.754   6.353   6.341 -0.4897  1.7031  0.7909
  253MOL0     H34141   6.295   6.378   6.537  0.1435 -0.0167 -1.7603
  253MOL0     H34142   6.092   6.429   6.641 -2.8982  0.5354 -1.1708
  253MOL0     H34143   5.810   6.615   6.778  2.9745  1.5097  2.3234
  253MOL0     H34144   5.923   6.497   6.778 -0.3081  0.4500  1.0061
  253MOL0     H34145   5.770   6.431   6.597  0.1093 -0.6091  0.4389
  253MOL0     H34146   5.903   6.497   6.502 -1.2812  3.9552 -2.8026
  253MOL0     H34147   5.800   6.702   6.469 -2.0873  1.8719  0.5179
  253MOL0     H34148   5.667   6.688   6.586 -0.7731 -1.1367  1.6877
  253MOL0     H34149   5.671   6.514   6.337  1.9772 -2.1606  2.2162
  253MOL0     H34150   5.556   6.525   6.467 -1.4324  1.5003 -1.0062
  253MOL0     H34151   5.472   6.871   6.245  1.2267  0.9924  0.4932
  253MOL0     H34152   6.141   6.842   6.563  2.5056  1.8237 -1.8006
  253MOL0     H34153   6.344   6.816   6.308 -0.4960 -3.6091  0.8626
  253MOL0     H34154   6.285   6.920   6.435  0.1106 -0.7938  0.2304
  253MOL0     H34155   6.447   6.858   6.460  0.7088 -0.2873 -1.1683
  254MOL0     O34156   2.159   3.993  10.682  0.1154 -0.5092  0.4144
  254MOL0     C34157   2.196   4.048  10.578 -0.2451 -0.4398 -0.0278
  254MOL0     O34158   2.149   4.167  10.529  0.1033  0.5666 -0.2992
  254MOL0     C34159   2.057   4.240  10.602 -0.2437  0.6389 -0.2232
  254MOL0     C34160   2.068   4.270  10.734  0.1466 -0.2660 -0.6362
  254MOL0     C34161   1.977   4.346  10.807  0.1566  0.5258 -0.1642
  254MOL0     C34162   1.864   4.397  10.739  0.5109  0.1914 -0.0171
  254MOL0     O34163   1.768   4.467  10.809 -0.2576 -0.3093  0.2741
  254MOL0     C34164   1.636   4.474  10.745 -1.1496 -0.1038 -0.3831
  254MOL0     C34165   1.547   4.535  10.850  0.3590  0.2631 -0.3194
  254MOL0     C34166   1.400   4.552  10.791 -0.2058  0.4342  1.5165
  254MOL0     C34167   1.312   4.626  10.881 -0.1184 -0.1165 -0.2145
  254MOL0     C34168   1.170   4.616  10.827 -0.3512 -0.0546 -0.7061
  254MOL0     C34169   1.072   4.721  10.897 -0.1888  1.1369 -0.3569
  254MOL0     C34170   1.042   4.682  11.042 -0.3347 -0.2857  0.2912
  254MOL0     C34171   0.923   4.768  11.086 -0.6851 -0.6871 -0.1340
  254MOL0     N34172   0.865   4.722  11.212 -0.0827 -0.3213 -0.3418
  254MOL0     C34173   0.845   4.585  11.243 -0.1355 -0.1088 -0.0660
  254MOL0     C34174   0.784   4.582  11.362  0.0294  0.4614 -0.6737
  254MOL0     C34175   0.715   4.461  11.422 -1.0232 -0.6405  1.1507
  254MOL0     C34176   0.810   4.339  11.425  0.7907  0.4179  0.2931
  254MOL0     C34177   0.939   4.375  11.501 -0.1284 -0.6256  0.4142
  254MOL0     C34178   1.033   4.254  11.523  0.1220  0.7333 -0.3870
  254MOL0     O34179   1.136   4.290  11.619  0.6701  0.0339 -0.0897
  254MOL0     C34180   1.247   4.216  11.635 -0.1946  0.8319  0.0680
  254MOL0     C34181   1.352   4.267  11.716  0.2489  0.2906  0.4525
  254MOL0     C34182   1.474   4.205  11.725 -0.1898 -0.4439 -0.4423
  254MOL0     C34183   1.503   4.090  11.649  0.3224  0.1469  0.2612
  254MOL0     C34184   1.636   4.022  11.659  0.1065 -0.0080 -0.2292
  254MOL0     O34185   1.724   4.062  11.758  0.0111  0.0371 -0.1829
  254MOL0     C34186   1.856   4.007  11.764  0.1315 -0.1873  0.3897
  254MOL0     C34187   1.897   3.874  11.763 -0.0288 -0.5421 -0.5331
  254MOL0     C34188   2.029   3.839  11.785  1.0046 -0.5708 -0.4204
  254MOL0     C34189   2.126   3.934  11.805  0.1942  0.2246 -0.3968
  254MOL0     O34190   2.252   3.888  11.840 -0.0261  0.7833  0.3988
  254MOL0     C34191   2.294   3.755  11.801 -0.1537 -0.2001  0.4895
  254MOL0     C34192   2.429   3.723  11.857  0.0765 -0.6158 -0.0009
  254MOL0     C34193   2.513   3.605  11.790  0.0236  0.9836  0.6825
  254MOL0     C34194   2.636   3.579  11.867 -0.4031 -0.1040 -0.0884
  254MOL0     C34195   2.742   3.487  11.798  0.6304  0.4376 -0.0092
  254MOL0     C34196   2.850   3.465  11.896  0.2233 -0.4087 -0.1180
  254MOL0     C34197   2.964   3.384  11.829 -1.4785 -0.0795 -0.5253
  254MOL0     C34198   3.020   3.449  11.704  1.3970 -0.2055  0.8201
  254MOL0    Cl34199   3.170   3.367  11.640  0.0045 -0.1578 -0.0801
  254MOL0     C34200   2.091   4.073  11.801  0.1886  0.4136 -0.0048
  254MOL0     C34201   1.950   4.104  11.770  0.1360 -0.2479 -0.6902
  254MOL0     O34202   1.656   3.939  11.574  0.0018 -0.0364 -0.0057
  254MOL0     C34203   1.400   4.027  11.583  0.2886 -0.1603  0.2335
  254MOL0     C34204   1.272   4.092  11.571 -0.8304 -1.1084  0.3850
  254MOL0     N34205   0.769   4.712  11.406  0.3567  0.1828  0.2286
  254MOL0     N34206   0.826   4.796  11.328 -0.1233  0.2137 -0.5359
  254MOL0     C34207   1.857   4.367  10.597  0.4696  0.4604  0.3737
  254MOL0     C34208   1.953   4.295  10.535  0.1995  0.4844  0.0480
  254MOL0     C34209   2.291   3.985  10.480  0.7598 -0.5113 -0.4941
  254MOL0     C34210   2.369   4.073  10.408  1.3168 -0.0274  1.3380
  254MOL0     C34211   2.464   4.021  10.317 -1.3226  0.3180  0.5328
  254MOL0     C34212   2.475   3.879  10.297  0.0673 -0.3800  0.7323
  254MOL0     O34213   2.567   3.819  10.208  0.0700  0.1771 -0.3809
  254MOL0     C34214   2.643   3.909  10.131 -0.1263  0.2692  0.6324
  254MOL0     C34215   2.727   3.822  10.029 -0.4532  0.2777 -0.7027
  254MOL0     C34216   2.825   3.908   9.958  0.2313 -0.0981  0.5762
  254MOL0     C34217   2.920   3.842   9.861  0.4246 -0.0855 -0.1591
  254MOL0     C34218   2.834   3.807   9.742  0.7803  0.0858  0.1091
  254MOL0     C34219   2.767   3.772   9.641 -0.7539 -0.7474 -0.1219
  254MOL0     C34220   2.399   3.800  10.377 -0.4111 -0.8439  0.0861
  254MOL0     C34221   2.305   3.847  10.466  0.1817  0.3263 -0.2274
  254MOL0     C34222   2.244   3.747  10.554  0.4215 -0.0023 -0.2036
  254MOL0     H34223   2.149   4.230  10.794  2.6623  4.3138 -0.5276
  254MOL0     H34224   1.990   4.376  10.910 -3.9748 -0.7200  0.9038
  254MOL0     H34225   1.651   4.547  10.665  0.0152  0.9079  0.7198
  254MOL0     H34226   1.595   4.378  10.713 -3.3764  0.7481 -0.2734
  254MOL0     H34227   1.582   4.628  10.896  3.9677 -1.0174 -0.1523
  254MOL0     H34228   1.544   4.457  10.927  0.7662 -0.0240 -0.5884
  254MOL0     H34229   1.367   4.451  10.764 -1.5523  1.0802  0.6100
  254MOL0     H34230   1.407   4.602  10.694 -1.0360 -2.8019 -0.3730
  254MOL0     H34231   1.320   4.578  10.979 -0.3233 -3.9080 -1.8611
  254MOL0     H34232   1.342   4.730  10.894 -0.9249 -0.0114  0.9384
  254MOL0     H34233   1.166   4.631  10.719 -3.3492 -0.7464 -0.7599
  254MOL0     H34234   1.136   4.513  10.844 -1.5682  0.6510  1.5997
  254MOL0     H34235   1.120   4.819  10.887  2.3968 -0.0060  0.0338
  254MOL0     H34236   0.983   4.720  10.833  0.3629  0.1151 -1.1511
  254MOL0     H34237   1.124   4.705  11.110  0.2461  0.3794 -0.6108
  254MOL0     H34238   1.011   4.577  11.036 -1.7766  0.1866 -3.4597
  254MOL0     H34239   0.948   4.869  11.121 -1.5818 -0.7344  0.6682
  254MOL0     H34240   0.851   4.792  11.007 -0.7072  4.0741  1.0409
  254MOL0     H34241   0.871   4.499  11.182  1.5601 -1.4573  2.3731
  254MOL0     H34242   0.680   4.490  11.521  2.3751  0.9317  2.0584
  254MOL0     H34243   0.633   4.450  11.351  1.6406  2.1752 -2.8064
  254MOL0     H34244   0.761   4.256  11.478  1.2191 -1.6525 -2.3103
  254MOL0     H34245   0.837   4.304  11.324 -0.1001  1.1588 -0.2154
  254MOL0     H34246   0.906   4.421  11.594 -1.7083  0.4507 -0.6229
  254MOL0     H34247   0.990   4.457  11.449 -1.1991 -0.1290  0.1253
  254MOL0     H34248   1.062   4.201  11.432  0.2790 -1.6422  0.9574
  254MOL0     H34249   0.977   4.177  11.576  1.3290 -0.6192 -1.0076
  254MOL0     H34250   1.332   4.360  11.769 -1.2806  1.3556 -1.7790
  254MOL0     H34251   1.551   4.249  11.787 -0.8985 -0.8005  0.7099
  254MOL0     H34252   1.818   3.801  11.782 -0.5684  0.5973  2.2046
  254MOL0     H34253   2.037   3.732  11.802  0.2112 -0.3865  1.3361
  254MOL0     H34254   2.226   3.678  11.837  0.0639 -0.8128 -0.3600
  254MOL0     H34255   2.290   3.750  11.691 -1.3556  1.0033  0.4543
  254MOL0     H34256   2.482   3.819  11.858 -0.1548 -0.4880  0.8530
  254MOL0     H34257   2.415   3.691  11.961  1.0856  1.5801  0.8636
  254MOL0     H34258   2.464   3.507  11.795  0.6828  0.2834 -3.1784
  254MOL0     H34259   2.540   3.629  11.687  0.1816 -0.6282  0.3218
  254MOL0     H34260   2.614   3.540  11.967  2.5993  2.0925  1.5738
  254MOL0     H34261   2.691   3.672  11.879  2.5059 -1.5990 -0.7738
  254MOL0     H34262   2.781   3.540  11.711 -1.3694 -0.9967 -1.8834
  254MOL0     H34263   2.713   3.390  11.756  0.6789 -0.3166  1.6138
  254MOL0     H34264   2.891   3.557  11.936  1.6909 -1.4451  0.8520
  254MOL0     H34265   2.813   3.409  11.983  0.6850  1.3439  1.2435
  254MOL0     H34266   2.934   3.286  11.792 -0.9964  0.4387 -2.3954
  254MOL0     H34267   3.052   3.364  11.890 -1.6249  0.7957  0.0051
  254MOL0     H34268   2.943   3.439  11.627  1.3328  1.3781  0.6417
  254MOL0     H34269   3.041   3.556  11.709  0.5884  0.1491 -1.8831
  254MOL0     H34270   2.168   4.147  11.821 -0.7888  1.1604  1.2040
  254MOL0     H34271   1.925   4.208  11.753  0.7419 -0.2530 -1.6847
  254MOL0     H34272   1.426   3.939  11.527 -0.4788 -0.8652  0.9446
  254MOL0     H34273   1.198   4.062  11.498 -1.6234 -0.3004  0.8386
  254MOL0     H34274   1.783   4.419  10.538  2.6121  3.5906  0.2031
  254MOL0     H34275   1.952   4.271  10.429 -2.3017  1.6647 -0.2661
  254MOL0     H34276   2.362   4.179  10.428  0.5804  0.7750 -2.4154
  254MOL0     H34277   2.527   4.089  10.260  0.0588 -2.0208 -0.8991
  254MOL0     H34278   2.712   3.965  10.196  0.7831  0.2484 -0.2970
  254MOL0     H34279   2.577   3.973  10.071  2.3531  0.9843 -1.5149
  254MOL0     H34280   2.661   3.778   9.953  1.2500  0.0678 -2.1130
  254MOL0     H34281   2.781   3.742  10.081  0.0499  2.3289  2.1358
  254MOL0     H34282   2.884   3.961  10.034  1.5651 -1.2734  0.3985
  254MOL0     H34283   2.760   3.987   9.918 -0.3501  1.0091  3.4365
  254MOL0     H34284   3.003   3.909   9.836  1.2755 -0.2058  2.1673
  254MOL0     H34285   2.965   3.751   9.901 -0.9133 -0.3102  0.8904
  254MOL0     H34286   2.721   3.731   9.553 -1.5161 -0.2106  0.0185
  254MOL0     H34287   2.404   3.692  10.379 -1.9491 -0.9315  1.5722
  254MOL0     H34288   2.140   3.772  10.579  0.3485 -0.3812 -0.1130
  254MOL0     H34289   2.236   3.648  10.509  0.3828 -0.2096  0.2455
  254MOL0     H34290   2.302   3.740  10.647  4.7507  1.2237 -2.5682
  255MOL0     O34291   9.338   9.074   1.750  0.5831  0.5900  0.4342
  255MOL0     C34292   9.306   9.188   1.771  0.2186 -0.6466 -0.7612
  255MOL0     O34293   9.397   9.300   1.762  0.6093  0.2284  0.0393
  255MOL0     C34294   9.523   9.266   1.719  0.1802  0.1823  0.4307
  255MOL0     C34295   9.561   9.261   1.582 -0.0109  0.4803  0.1560
  255MOL0     C34296   9.698   9.242   1.555  0.8954 -0.3819 -0.3138
  255MOL0     C34297   9.794   9.239   1.660 -0.2113 -0.0222  0.0216
  255MOL0     O34298   9.927   9.221   1.645  0.5239  0.4895 -0.3884
  255MOL0     C34299   9.984   9.188   1.517 -0.8354  0.4203 -0.9301
  255MOL0     C34300  10.131   9.176   1.545 -0.7630  1.0656  0.8349
  255MOL0     C34301  10.204   9.112   1.433 -0.3700 -0.7774  0.5292
  255MOL0     C34302  10.187   8.964   1.458 -0.7563 -0.4641  0.1535
  255MOL0     C34303  10.278   8.888   1.361  0.1467 -0.2875 -0.3414
  255MOL0     C34304  10.232   8.744   1.334  0.4532 -0.2893 -0.1148
  255MOL0     C34305  10.244   8.649   1.453 -0.5612 -0.3504  0.6158
  255MOL0     C34306  10.166   8.524   1.420  1.0958 -0.4225  0.8992
  255MOL0     N34307  10.207   8.416   1.508  0.2478 -0.5902  1.0919
  255MOL0     C34308  10.336   8.359   1.519 -0.0636 -0.4559 -0.0424
  255MOL0     C34309  10.318   8.262   1.615 -1.3332  0.9501  0.2246
  255MOL0     C34310  10.421   8.165   1.676  0.8672 -0.4607 -0.0013
  255MOL0     C34311  10.548   8.159   1.581  0.7784  0.3198  0.3165
  255MOL0     C34312  10.528   8.080   1.450  0.1597 -0.0505 -0.6661
  255MOL0     C34313  10.671   8.056   1.404 -0.3540 -0.4513  1.7374
  255MOL0     O34314  10.739   8.180   1.383  0.0370 -0.1705  0.3817
  255MOL0     C34315  10.876   8.170   1.373 -0.2095 -0.1549  0.1093
  255MOL0     C34316  10.953   8.048   1.370  0.0176 -0.3813 -0.4234
  255MOL0     C34317  11.097   8.062   1.376  0.2410 -0.2655  0.1958
  255MOL0     C34318  11.168   8.180   1.381  0.0907  0.7111 -0.6875
  255MOL0     C34319  11.313   8.170   1.390 -0.1866 -0.2296  0.2014
  255MOL0     O34320  11.373   8.290   1.380 -0.1590  1.2043  0.4904
  255MOL0     C34321  11.507   8.299   1.403  0.0323  1.3242 -0.1169
  255MOL0     C34322  11.580   8.398   1.340 -0.9651 -0.1774  0.1920
  255MOL0     C34323  11.712   8.425   1.378 -0.1032 -0.1301  0.3864
  255MOL0     C34324  11.779   8.352   1.474  0.5809  0.1031  0.6577
  255MOL0     O34325  11.903   8.397   1.513 -0.0346 -0.3453 -0.1439
  255MOL0     C34326  11.947   8.381   1.650  0.5464  0.1909  0.5681
  255MOL0     C34327  12.090   8.427   1.661  0.2410 -0.0918 -1.3088
  255MOL0     C34328  12.147   8.395   1.805  1.1216 -1.0792  0.9578
  255MOL0     C34329  12.244   8.491   1.862  0.3535 -0.0886  0.4481
  255MOL0     C34330  12.383   8.473   1.796 -0.4292 -0.3456  0.1007
  255MOL0     C34331  12.486   8.549   1.881  0.3140  1.0232  0.9109
  255MOL0     C34332  12.617   8.526   1.822 -0.0461 -0.5003 -0.3762
  255MOL0     C34333  12.724   8.560   1.928 -0.7546 -1.7976  0.6534
  255MOL0    Cl34334  12.875   8.519   1.841  0.0980  0.2686  0.1517
  255MOL0     C34335  11.706   8.248   1.539  0.4081 -0.4781 -0.4986
  255MOL0     C34336  11.573   8.228   1.509  0.1684  0.5006  0.8027
  255MOL0     O34337  11.371   8.061   1.399  0.4364  1.0821  0.1191
  255MOL0     C34338  11.088   8.295   1.368 -0.0903  0.4465  0.5830
  255MOL0     C34339  10.951   8.289   1.360  0.1810  0.8006  0.9269
  255MOL0     N34340  10.189   8.263   1.653  0.7556  0.8796 -0.0725
  255MOL0     N34341  10.126   8.358   1.589  0.4395 -1.4424  0.6002
  255MOL0     C34342   9.749   9.244   1.787  0.4003  0.3224 -0.0283
  255MOL0     C34343   9.619   9.251   1.823 -0.2418 -0.4971 -0.0720
  255MOL0     C34344   9.180   9.200   1.844  0.4133  0.3431 -0.5303
  255MOL0     C34345   9.067   9.132   1.796  0.4435 -1.3248 -0.2385
  255MOL0     C34346   8.941   9.154   1.845  0.4377  0.0302 -0.5441
  255MOL0     C34347   8.922   9.249   1.955 -0.2829  0.1517 -0.2439
  255MOL0     O34348   8.803   9.279   2.026 -0.7417  0.7961  0.1660
  255MOL0     C34349   8.689   9.197   2.011 -0.5447 -0.2094 -0.5694
  255MOL0     C34350   8.561   9.269   2.080  0.1855 -0.0187 -0.2616
  255MOL0     C34351   8.438   9.229   1.995 -0.3036 -0.1168 -0.1813
  255MOL0     C34352   8.303   9.236   2.053  0.0318  0.5135 -0.7170
  255MOL0     C34353   8.283   9.144   2.169 -0.1606  0.4640  0.0660
  255MOL0     C34354   8.264   9.079   2.275 -0.9587  0.6604 -0.6325
  255MOL0     C34355   9.030   9.311   2.007  0.0164 -0.2723 -0.0355
  255MOL0     C34356   9.164   9.295   1.953 -0.2757  0.8409 -0.2365
  255MOL0     C34357   9.273   9.365   2.026  0.3724 -0.2754 -0.3829
  255MOL0     H34358   9.482   9.262   1.508 -1.6333 -1.5833  1.7195
  255MOL0     H34359   9.729   9.240   1.451  0.4893  0.9815 -0.4728
  255MOL0     H34360   9.936   9.093   1.491 -0.6887  0.1383 -0.2048
  255MOL0     H34361   9.966   9.269   1.446 -1.5738  2.2713  1.2345
  255MOL0     H34362  10.135   9.115   1.636  0.7285  2.3519  1.6926
  255MOL0     H34363  10.182   9.269   1.570  3.6457 -1.0530  0.7066
  255MOL0     H34364  10.305   9.151   1.445 -1.2105  0.9764  2.4725
  255MOL0     H34365  10.163   9.143   1.336 -0.3613  0.2231  0.8367
  255MOL0     H34366  10.220   8.932   1.558 -0.9497 -3.0114 -0.5185
  255MOL0     H34367  10.083   8.931   1.444 -0.8957  0.8039 -2.3285
  255MOL0     H34368  10.266   8.941   1.266 -0.3422 -0.0450 -0.1506
  255MOL0     H34369  10.383   8.896   1.390  0.6952 -2.1913 -1.6225
  255MOL0     H34370  10.126   8.754   1.308  0.7259 -0.7587 -1.4955
  255MOL0     H34371  10.285   8.715   1.243 -1.9643  1.6734 -2.3132
  255MOL0     H34372  10.212   8.695   1.547  0.7920  2.4660 -0.1704
  255MOL0     H34373  10.351   8.628   1.462  0.3900  2.7944 -1.5221
  255MOL0     H34374  10.062   8.547   1.441  1.3607  2.0783 -0.1050
  255MOL0     H34375  10.180   8.501   1.314 -0.7405  1.3294  0.2097
  255MOL0     H34376  10.419   8.371   1.451 -1.3140 -0.4899 -1.6447
  255MOL0     H34377  10.441   8.216   1.771  1.1916 -2.0795  0.8346
  255MOL0     H34378  10.370   8.070   1.695  0.5566  0.0712  2.1037
  255MOL0     H34379  10.584   8.262   1.569 -2.1847  1.4028 -0.0074
  255MOL0     H34380  10.624   8.115   1.647 -0.0418 -1.7236 -0.0443
  255MOL0     H34381  10.472   8.140   1.378 -1.2952 -1.2868 -0.6300
  255MOL0     H34382  10.473   7.987   1.467  0.3478 -0.0628 -0.1250
  255MOL0     H34383  10.661   8.006   1.307 -0.9805  3.0099 -0.1542
  255MOL0     H34384  10.729   7.989   1.469  1.8223 -0.7141 -0.3473
  255MOL0     H34385  10.899   7.954   1.371 -1.6899  0.5557 -0.3808
  255MOL0     H34386  11.151   7.968   1.372  0.2430 -0.2546 -0.0388
  255MOL0     H34387  11.528   8.468   1.275  2.0696  0.3561 -1.9350
  255MOL0     H34388  11.768   8.500   1.322  2.9422 -2.1596  0.4511
  255MOL0     H34389  11.891   8.446   1.717 -1.3580 -1.4481  0.6562
  255MOL0     H34390  11.959   8.278   1.682  1.9358 -0.2150 -1.0851
  255MOL0     H34391  12.152   8.377   1.587 -0.3120  0.9300 -2.4951
  255MOL0     H34392  12.088   8.534   1.638  1.3895  0.0809 -0.6618
  255MOL0     H34393  12.066   8.395   1.879  0.6899  3.4928  0.7804
  255MOL0     H34394  12.190   8.295   1.799  1.4497 -0.8806 -0.2311
  255MOL0     H34395  12.257   8.474   1.970  0.0695 -2.9831  0.1086
  255MOL0     H34396  12.198   8.587   1.838 -2.7779 -2.3254 -3.7550
  255MOL0     H34397  12.393   8.513   1.695  1.0828  2.3283  1.2022
  255MOL0     H34398  12.411   8.367   1.797  1.8119  0.1866  0.5995
  255MOL0     H34399  12.459   8.656   1.879 -2.2027  0.5229  2.8660
  255MOL0     H34400  12.483   8.511   1.983  0.1263  1.9171  1.2501
  255MOL0     H34401  12.637   8.589   1.735  2.2627 -2.1661 -1.1387
  255MOL0     H34402  12.640   8.422   1.797  0.2670 -0.0576 -2.0049
  255MOL0     H34403  12.728   8.664   1.962 -2.7883 -1.5889  0.4000
  255MOL0     H34404  12.721   8.513   2.027  0.6689  1.0184  2.1803
  255MOL0     H34405  11.749   8.205   1.629 -0.0538  2.2096  1.1291
  255MOL0     H34406  11.520   8.155   1.570 -0.9760  1.6285  1.1943
  255MOL0     H34407  11.135   8.390   1.346  0.7573 -0.2801 -0.8970
  255MOL0     H34408  10.894   8.379   1.337 -2.9725 -1.3718 -0.6306
  255MOL0     H34409   9.811   9.240   1.876  1.7563 -1.5463 -0.9836
  255MOL0     H34410   9.584   9.258   1.926 -0.1180  1.7565 -0.1200
  255MOL0     H34411   9.072   9.056   1.719 -1.2207 -1.5827 -0.1136
  255MOL0     H34412   8.858   9.091   1.815  1.6574 -1.4745 -0.8902
  255MOL0     H34413   8.703   9.093   2.038 -0.5622  0.1968  1.1125
  255MOL0     H34414   8.670   9.196   1.903 -2.2532 -1.4984 -0.2978
  255MOL0     H34415   8.586   9.376   2.083  2.3743 -0.3016 -3.4482
  255MOL0     H34416   8.551   9.219   2.177 -0.1018  2.7879  1.2843
  255MOL0     H34417   8.455   9.132   1.948 -1.0821 -0.1891 -0.3126
  255MOL0     H34418   8.432   9.310   1.921  1.6413  1.7793  1.5754
  255MOL0     H34419   8.263   9.337   2.065  1.2029  1.0708 -1.4238
  255MOL0     H34420   8.232   9.200   1.978 -1.2294 -1.4118  1.2539
  255MOL0     H34421   8.257   9.015   2.361  0.5546 -0.4013 -1.2619
  255MOL0     H34422   9.020   9.361   2.103  2.9934 -1.9152  1.2699
  255MOL0     H34423   9.239   9.420   2.114 -0.0213 -1.1657  0.0292
  255MOL0     H34424   9.362   9.305   2.047  1.4246  1.0986 -0.7985
  255MOL0     H34425   9.313   9.435   1.953  0.7944  0.1549  0.2493
  256MOL0     O34426   4.494   2.526  10.644  0.1480  0.6699  0.3439
  256MOL0     C34427   4.416   2.549  10.555  0.0946  0.2957 -0.8012
  256MOL0     O34428   4.377   2.456  10.467  0.8395  0.7339  0.1020
  256MOL0     C34429   4.421   2.323  10.493 -0.3849  0.5839  0.1511
  256MOL0     C34430   4.513   2.258  10.405  0.3085 -0.4203  0.3218
  256MOL0     C34431   4.567   2.137  10.436 -0.0139  0.3256  0.1195
  256MOL0     C34432   4.522   2.074  10.553 -0.2697  0.4901 -0.8703
  256MOL0     O34433   4.574   1.951  10.588 -0.0504 -0.1923  0.2181
  256MOL0     C34434   4.713   1.917  10.569 -0.2323  0.3957  0.3914
  256MOL0     C34435   4.723   1.794  10.664  0.5855  0.0497  0.7884
  256MOL0     C34436   4.869   1.782  10.714 -0.7863 -0.1745  0.2431
  256MOL0     C34437   4.885   1.651  10.786 -0.0689  0.6842 -0.3774
  256MOL0     C34438   5.038   1.626  10.802 -0.4428 -0.3669 -1.4934
  256MOL0     C34439   5.094   1.712  10.917 -0.0824 -0.8204  0.5794
  256MOL0     C34440   5.239   1.691  10.970  0.1491  0.9342  0.6362
  256MOL0     C34441   5.343   1.785  10.903  0.6669 -0.2404 -0.6373
  256MOL0     N34442   5.473   1.778  10.972  0.2788 -0.0196  0.2908
  256MOL0     C34443   5.517   1.858  11.077  0.2709 -1.0082  0.3882
  256MOL0     C34444   5.642   1.814  11.101 -0.0723 -0.5965  0.8045
  256MOL0     C34445   5.724   1.869  11.206  0.2806  0.6682 -0.3969
  256MOL0     C34446   5.759   2.019  11.179  0.1343  0.4404 -0.3302
  256MOL0     C34447   5.853   2.084  11.274  0.2204 -0.0842 -0.0200
  256MOL0     C34448   5.994   2.112  11.214  0.6364  0.6407 -0.5526
  256MOL0     O34449   6.090   2.090  11.325  0.7284  0.1220  0.3379
  256MOL0     C34450   6.218   2.043  11.292 -0.1441 -0.6326 -0.8243
  256MOL0     C34451   6.295   1.996  11.395 -1.5066 -0.0709 -0.2562
  256MOL0     C34452   6.424   1.955  11.372 -0.4346 -0.0964 -0.0902
  256MOL0     C34453   6.472   1.947  11.235  0.4761 -0.3317 -0.4722
  256MOL0     C34454   6.604   1.888  11.205  0.2428  1.0122 -0.1798
  256MOL0     O34455   6.656   1.928  11.086 -0.0389 -0.0125  0.1018
  256MOL0     C34456   6.792   1.937  11.078 -0.2767 -0.2480  0.3612
  256MOL0     C34457   6.870   2.012  11.171  0.0279  0.4484 -1.4406
  256MOL0     C34458   7.014   2.026  11.160  0.0734 -0.1805  0.7436
  256MOL0     C34459   7.077   1.971  11.054  0.1919  0.3255  0.1904
  256MOL0     O34460   7.209   1.997  11.039  0.4230  0.2071 -0.3603
  256MOL0     C34461   7.251   2.019  10.906  0.0527 -0.5349 -0.2748
  256MOL0     C34462   7.382   2.093  10.891 -0.6384  0.1808  0.0017
  256MOL0     C34463   7.492   2.015  10.961 -0.0833 -0.1428  0.4590
  256MOL0     C34464   7.535   1.888  10.882 -0.8940 -0.1357 -0.0914
  256MOL0     C34465   7.669   1.822  10.910  0.1470  0.7165 -0.6183
  256MOL0     C34466   7.668   1.667  10.878 -0.4494 -1.2639  0.2063
  256MOL0     C34467   7.811   1.626  10.841  0.4909 -0.2591 -0.1129
  256MOL0     C34468   7.824   1.474  10.838  1.0741  0.3332 -0.4326
  256MOL0    Cl34469   7.850   1.402  11.007 -0.0147  0.4784 -0.0479
  256MOL0     C34470   6.996   1.888  10.968 -0.0991 -0.2469 -1.3621
  256MOL0     C34471   6.857   1.885  10.967  0.2960  0.0896 -0.3960
  256MOL0     O34472   6.659   1.810  11.294 -0.4198 -1.0522 -0.3842
  256MOL0     C34473   6.384   1.991  11.136 -1.0791 -0.6078 -0.5124
  256MOL0     C34474   6.261   2.049  11.162 -0.5282  0.6045  0.0490
  256MOL0     N34475   5.674   1.715  11.013  0.0323 -0.0462 -0.1628
  256MOL0     N34476   5.572   1.684  10.942  0.1501  0.1119 -0.7627
  256MOL0     C34477   4.417   2.129  10.632 -0.9358 -0.6272 -1.2630
  256MOL0     C34478   4.372   2.260  10.607  0.1163 -0.9208  0.5640
  256MOL0     C34479   4.342   2.678  10.579 -0.3460 -0.3941 -0.6372
  256MOL0     C34480   4.400   2.777  10.671  0.5705 -0.0539  0.1663
  256MOL0     C34481   4.328   2.892  10.703 -0.1499 -0.7045 -0.2032
  256MOL0     C34482   4.201   2.920  10.643  0.0540  0.1339 -0.3695
  256MOL0     O34483   4.156   3.039  10.689  0.8106  0.1007 -0.2899
  256MOL0     C34484   4.020   3.047  10.728  0.0122  0.3196 -0.2433
  256MOL0     C34485   3.974   3.164  10.818 -0.2684  0.2564  0.0554
  256MOL0     C34486   3.823   3.175  10.825 -0.6700  0.3103 -0.2459
  256MOL0     C34487   3.794   3.307  10.895  0.2878 -0.6374 -0.4457
  256MOL0     C34488   3.837   3.325  11.034 -0.0425 -0.5031  0.3768
  256MOL0     C34489   3.871   3.339  11.144 -0.1422 -0.6063  0.4100
  256MOL0     C34490   4.142   2.832  10.559 -0.4544  0.0964  0.8719
  256MOL0     C34491   4.212   2.716  10.523  0.0397 -0.3408  0.0158
  256MOL0     C34492   4.147   2.633  10.406 -0.3064 -0.8602  0.4814
  256MOL0     H34493   4.548   2.306  10.314 -1.0048 -0.6768 -0.3359
  256MOL0     H34494   4.626   2.081  10.364 -2.8976  1.3508 -3.3858
  256MOL0     H34495   4.747   1.886  10.470 -0.4248  2.3671 -0.3283
  256MOL0     H34496   4.775   1.994  10.617  1.2521 -1.8520  2.3248
  256MOL0     H34497   4.694   1.704  10.609  0.3057  1.2197 -1.0750
  256MOL0     H34498   4.653   1.788  10.748  0.2710 -1.6988  0.4386
  256MOL0     H34499   4.895   1.866  10.779 -1.1271 -0.2409  0.4687
  256MOL0     H34500   4.937   1.790  10.629  0.3917 -1.1549  1.0648
  256MOL0     H34501   4.829   1.640  10.879 -1.9769 -0.3859 -1.5793
  256MOL0     H34502   4.851   1.567  10.725  1.0044 -0.6012  0.7317
  256MOL0     H34503   5.050   1.522  10.833  0.2914  0.4856  1.3871
  256MOL0     H34504   5.103   1.630  10.714  3.1787 -3.1050  0.7624
  256MOL0     H34505   5.094   1.821  10.908 -2.9934 -0.6967  1.0337
  256MOL0     H34506   5.027   1.673  10.994 -1.5365 -1.6944 -1.0417
  256MOL0     H34507   5.279   1.591  10.949 -2.5193  0.0284 -0.5105
  256MOL0     H34508   5.232   1.711  11.078  2.1023  2.5095  0.5374
  256MOL0     H34509   5.351   1.758  10.797 -0.7794 -1.1938 -0.5323
  256MOL0     H34510   5.306   1.887  10.915 -1.4299 -1.2080  2.4253
  256MOL0     H34511   5.459   1.939  11.120 -0.1553 -2.3968  2.5910
  256MOL0     H34512   5.677   1.848  11.302 -0.9748 -2.9099 -1.6212
  256MOL0     H34513   5.820   1.817  11.201 -0.4461 -0.7835  0.2076
  256MOL0     H34514   5.779   2.035  11.073 -0.9475 -0.7706 -0.7439
  256MOL0     H34515   5.662   2.068  11.196 -0.1281 -0.0788 -0.3086
  256MOL0     H34516   5.867   2.010  11.354 -0.6951 -2.6291 -2.0636
  256MOL0     H34517   5.815   2.180  11.309 -0.2694  0.4642 -1.9374
  256MOL0     H34518   6.003   2.215  11.179  1.7875  0.6454 -0.2954
  256MOL0     H34519   6.009   2.045  11.129 -1.7028 -1.5982  0.6425
  256MOL0     H34520   6.256   2.001  11.496 -1.0677  2.8424 -0.1522
  256MOL0     H34521   6.484   1.915  11.453 -0.9138 -0.1976  0.2214
  256MOL0     H34522   6.832   2.066  11.257  1.5772  0.0530 -0.4754
  256MOL0     H34523   7.076   2.094  11.217  1.0946  0.2684 -0.8259
  256MOL0     H34524   7.267   1.922  10.858  0.6556  1.0555 -3.6152
  256MOL0     H34525   7.174   2.066  10.844  1.0312  0.3653 -0.8475
  256MOL0     H34526   7.408   2.090  10.785 -1.7074 -2.6485 -0.2803
  256MOL0     H34527   7.377   2.198  10.921 -1.0883  0.4433 -0.9678
  256MOL0     H34528   7.582   2.077  10.955 -1.1277  1.2658 -3.1226
  256MOL0     H34529   7.473   1.991  11.066  3.8683  0.4021  1.4512
  256MOL0     H34530   7.539   1.914  10.776  0.7898  0.3496  0.0681
  256MOL0     H34531   7.459   1.810  10.896  1.2951 -2.9973 -2.8730
  256MOL0     H34532   7.701   1.845  11.012  2.6664 -0.1684 -1.1570
  256MOL0     H34533   7.735   1.867  10.836  0.0523 -2.1010 -2.5653
  256MOL0     H34534   7.635   1.606  10.962 -0.5857 -1.7128 -0.1659
  256MOL0     H34535   7.599   1.647  10.795 -0.5189 -0.4057  0.0530
  256MOL0     H34536   7.881   1.677  10.908 -0.3399 -0.5780  1.0191
  256MOL0     H34537   7.840   1.667  10.743  2.0341 -0.2881  0.3005
  256MOL0     H34538   7.726   1.436  10.811  0.4652  0.6282  1.2440
  256MOL0     H34539   7.900   1.434  10.770  1.0548  1.6249 -1.2562
  256MOL0     H34540   7.047   1.837  10.887  3.0116  0.1523  0.2095
  256MOL0     H34541   6.806   1.817  10.900 -3.0985  1.2341  0.7946
  256MOL0     H34542   6.410   1.968  11.033  1.5967  2.7800 -0.7650
  256MOL0     H34543   6.201   2.083  11.078 -0.5905 -0.0320 -0.1696
  256MOL0     H34544   4.374   2.069  10.712 -3.2851 -0.7975 -2.5600
  256MOL0     H34545   4.299   2.315  10.666  0.9671  0.3128  0.5117
  256MOL0     H34546   4.488   2.754  10.729 -1.2307 -0.8200  2.7545
  256MOL0     H34547   4.378   2.962  10.769  2.2857 -0.1066 -2.4931
  256MOL0     H34548   3.993   2.954  10.779 -2.4627  1.5392  0.8333
  256MOL0     H34549   3.953   3.044  10.642  0.8564 -0.5443 -0.8815
  256MOL0     H34550   4.019   3.255  10.778  1.5324 -0.0608  1.2069
  256MOL0     H34551   4.018   3.150  10.918 -1.2591  2.0291  0.7917
  256MOL0     H34552   3.775   3.087  10.868  0.8712 -0.9629 -1.0195
  256MOL0     H34553   3.776   3.186  10.727 -3.3389 -1.2166  0.7708
  256MOL0     H34554   3.819   3.387  10.825 -3.9052  0.6365 -0.7743
  256MOL0     H34555   3.687   3.312  10.918  0.5808 -1.2061  1.1393
  256MOL0     H34556   3.915   3.350  11.241  0.7329  0.1432 -0.0585
  256MOL0     H34557   4.039   2.850  10.531 -0.4866 -0.4705  0.5917
  256MOL0     H34558   4.089   2.547  10.441 -1.2331 -0.0874  0.8757
  256MOL0     H34559   4.073   2.699  10.359  0.3114 -1.2714 -1.1664
  256MOL0     H34560   4.225   2.606  10.334  1.0566 -0.2056  1.6811
  257MOL0     O34561   8.610   9.568   3.238  0.2551  0.0057  0.0489
  257MOL0     C34562   8.605   9.636   3.130  0.0185 -0.3728 -0.6304
  257MOL0     O34563   8.703   9.705   3.074 -0.7984  0.1088  0.9457
  257MOL0     C34564   8.832   9.694   3.124  0.0476 -0.4682 -0.4712
  257MOL0     C34565   8.883   9.814   3.174 -1.1414 -0.2031  0.0784
  257MOL0     C34566   9.008   9.810   3.236 -0.0078  0.2550 -0.4416
  257MOL0     C34567   9.089   9.691   3.239  0.5741 -0.1681 -0.7507
  257MOL0     O34568   9.211   9.688   3.307  0.2882 -0.0707  0.3696
  257MOL0     C34569   9.295   9.784   3.248  0.2303 -0.2069 -0.1169
  257MOL0     C34570   9.432   9.750   3.302 -0.1233 -0.7978  0.0763
  257MOL0     C34571   9.540   9.852   3.258  0.6510 -0.6370 -0.3964
  257MOL0     C34572   9.579   9.819   3.108 -0.2633 -1.0818 -0.2436
  257MOL0     C34573   9.723   9.876   3.087  0.7308 -0.5320 -0.0551
  257MOL0     C34574   9.757   9.865   2.937 -0.4107 -0.8230 -0.4925
  257MOL0     C34575   9.889   9.918   2.910  0.3258 -0.0452 -0.3880
  257MOL0     C34576   9.999   9.825   2.868  0.2794  0.3751  0.2528
  257MOL0     N34577  10.060   9.768   2.981  0.6512 -0.6996 -0.0682
  257MOL0     C34578  10.133   9.829   3.081  0.5530 -0.3771  0.2392
  257MOL0     C34579  10.148   9.739   3.171 -0.0111  0.1192  0.1192
  257MOL0     C34580  10.222   9.757   3.296 -0.0119  0.4676 -0.0133
  257MOL0     C34581  10.197   9.891   3.377 -0.0987 -0.7065  0.0239
  257MOL0     C34582  10.292   9.894   3.497 -0.5743  0.1639 -0.8032
  257MOL0     C34583  10.248  10.001   3.601  0.8580  0.6622 -0.1753
  257MOL0     O34584  10.344  10.020   3.707 -0.4701 -0.2425  0.0175
  257MOL0     C34585  10.456  10.101   3.684  0.3218 -0.1246 -0.3719
  257MOL0     C34586  10.545  10.107   3.796  0.4108 -0.7588 -0.5295
  257MOL0     C34587  10.663  10.183   3.796  0.2090 -0.8257 -0.0669
  257MOL0     C34588  10.691  10.264   3.683 -0.0145  0.4010  0.1301
  257MOL0     C34589  10.803  10.360   3.673 -0.3054  0.1907 -0.4624
  257MOL0     O34590  10.795  10.455   3.581  0.2479 -0.1673  0.7220
  257MOL0     C34591  10.904  10.528   3.537  0.3979  0.1728 -0.0337
  257MOL0     C34592  10.937  10.519   3.406  0.4621 -0.6947  0.2228
  257MOL0     C34593  11.030  10.613   3.350 -0.7290  1.0598 -0.2021
  257MOL0     C34594  11.102  10.698   3.436 -0.0370 -0.6259  0.3500
  257MOL0     O34595  11.220  10.758   3.398 -0.3762  0.0780  0.1869
  257MOL0     C34596  11.336  10.772   3.483  0.1869  0.2262  0.1938
  257MOL0     C34597  11.403  10.635   3.495  0.0827 -0.8370 -0.4429
  257MOL0     C34598  11.547  10.653   3.545  0.6263  0.6479  0.6287
  257MOL0     C34599  11.605  10.511   3.559  0.7018  0.0152  0.4445
  257MOL0     C34600  11.752  10.499   3.596  0.3820 -0.3434  0.5880
  257MOL0     C34601  11.797  10.606   3.692 -0.0213  0.7874 -0.4585
  257MOL0     C34602  11.943  10.590   3.743 -0.2756  0.0271 -0.3486
  257MOL0     C34603  11.991  10.716   3.815 -0.1597  0.7925  0.0000
  257MOL0    Cl34604  12.151  10.673   3.900  0.4019  0.0295  0.1098
  257MOL0     C34605  11.067  10.710   3.573  0.4582  0.0166  0.1769
  257MOL0     C34606  10.963  10.626   3.618  0.5821 -0.6190  0.4857
  257MOL0     O34607  10.896  10.345   3.755  0.2678  0.0226  0.2473
  257MOL0     C34608  10.602  10.257   3.567 -0.3478  0.9783  0.4859
  257MOL0     C34609  10.484  10.177   3.573 -0.7512 -0.1132 -0.6545
  257MOL0     N34610  10.094   9.618   3.134  0.0775  0.2072  0.2227
  257MOL0     N34611  10.042   9.637   3.013  0.0626 -0.6816  0.1093
  257MOL0     C34612   9.028   9.573   3.202  0.4667 -0.3068 -0.0161
  257MOL0     C34613   8.906   9.573   3.130 -1.1662  0.1487  0.0321
  257MOL0     C34614   8.477   9.629   3.052 -0.4614 -0.0723  0.6778
  257MOL0     C34615   8.374   9.547   3.109  0.1545 -0.1674 -0.4407
  257MOL0     C34616   8.248   9.541   3.043 -0.1571  0.3342 -0.0298
  257MOL0     C34617   8.217   9.617   2.931  0.2128 -0.3450 -0.2383
  257MOL0     O34618   8.088   9.604   2.877  0.4337  0.0991  0.9025
  257MOL0     C34619   8.025   9.683   2.775  0.2660  0.1715  0.1476
  257MOL0     C34620   8.025   9.826   2.826  0.5154 -0.5265  0.6212
  257MOL0     C34621   7.945   9.917   2.734 -0.3414 -0.5580  0.5181
  257MOL0     C34622   8.027  10.027   2.671  0.3613  0.9646  0.1673
  257MOL0     C34623   8.115   9.970   2.570 -0.3232 -0.7769  0.4384
  257MOL0     C34624   8.186   9.916   2.482  0.8896  0.1928 -0.2215
  257MOL0     C34625   8.319   9.702   2.878  0.1150  1.5733  0.3773
  257MOL0     C34626   8.446   9.707   2.933 -0.3933 -0.0377 -0.1079
  257MOL0     C34627   8.536   9.819   2.879  0.4720 -0.4435  0.7565
  257MOL0     H34628   8.816   9.899   3.171 -0.0357  0.7699  1.4558
  257MOL0     H34629   9.042   9.896   3.292  1.9910 -0.8858  0.2277
  257MOL0     H34630   9.289   9.791   3.139 -1.5839  0.7358 -0.0007
  257MOL0     H34631   9.275   9.885   3.285  2.9880  0.3750  0.0268
  257MOL0     H34632   9.452   9.650   3.262 -5.3050 -2.0483 -0.1606
  257MOL0     H34633   9.426   9.741   3.411  0.7416 -0.2240  0.1797
  257MOL0     H34634   9.626   9.835   3.323  0.6039  0.7707  0.0511
  257MOL0     H34635   9.512   9.955   3.278 -1.4547 -0.7471 -2.3698
  257MOL0     H34636   9.591   9.712   3.088 -2.4263 -1.6051  0.9318
  257MOL0     H34637   9.509   9.862   3.035  0.2465 -0.6442 -0.4829
  257MOL0     H34638   9.717   9.978   3.126 -1.1857 -0.3322 -0.7901
  257MOL0     H34639   9.787   9.811   3.148 -1.1983 -3.2671 -0.7747
  257MOL0     H34640   9.749   9.760   2.905  1.3093 -0.3608 -2.6299
  257MOL0     H34641   9.680   9.915   2.879  0.4827  2.0663  0.6629
  257MOL0     H34642   9.925   9.984   2.989  2.2240 -0.2630 -1.0152
  257MOL0     H34643   9.869   9.984   2.825  1.9917  1.3595  0.2462
  257MOL0     H34644   9.959   9.756   2.793  0.9604 -0.3347  0.5325
  257MOL0     H34645  10.072   9.879   2.806  1.6766 -1.5410  0.1555
  257MOL0     H34646  10.173   9.930   3.086  1.5489 -0.6715 -1.1326
  257MOL0     H34647  10.205   9.672   3.362  0.9287 -0.0156 -0.3780
  257MOL0     H34648  10.326   9.759   3.263 -0.6628  1.2920 -2.1559
  257MOL0     H34649  10.197   9.987   3.324 -1.8386 -0.6017  0.1630
  257MOL0     H34650  10.093   9.886   3.411  0.5360 -1.5253  1.9819
  257MOL0     H34651  10.397   9.907   3.468 -0.6452 -0.7830 -1.5513
  257MOL0     H34652  10.286   9.798   3.549 -2.9882  0.6105 -0.1405
  257MOL0     H34653  10.150   9.976   3.642  1.1929  1.6284  1.2840
  257MOL0     H34654  10.226  10.091   3.544 -2.6353 -0.5235 -0.9963
  257MOL0     H34655  10.523  10.037   3.876 -0.9027 -1.6752 -1.6452
  257MOL0     H34656  10.726  10.177   3.884 -1.1734  0.3299  1.0583
  257MOL0     H34657  10.910  10.430   3.350  2.1931 -1.8447  1.1195
  257MOL0     H34658  11.053  10.598   3.245 -1.1377 -1.7177  0.0255
  257MOL0     H34659  11.406  10.845   3.441 -0.6639  1.5164  0.9032
  257MOL0     H34660  11.299  10.792   3.585 -2.0337 -2.0699 -0.0586
  257MOL0     H34661  11.350  10.576   3.570 -1.2355 -1.1404 -1.5867
  257MOL0     H34662  11.399  10.578   3.402  0.2957 -0.8071 -0.4714
  257MOL0     H34663  11.609  10.703   3.470  0.5033 -0.5915 -0.3380
  257MOL0     H34664  11.540  10.701   3.643 -0.3864 -1.3769  1.6114
  257MOL0     H34665  11.595  10.468   3.459  1.8314  2.4153 -0.7722
  257MOL0     H34666  11.550  10.458   3.638  1.4330  1.4697  1.9910
  257MOL0     H34667  11.810  10.514   3.505  1.4809  0.2515  1.3614
  257MOL0     H34668  11.779  10.397   3.624  2.6226  0.2132  0.6980
  257MOL0     H34669  11.786  10.706   3.649  1.1639  2.0990  2.0581
  257MOL0     H34670  11.731  10.591   3.777 -0.1327  0.1730 -0.6495
  257MOL0     H34671  12.014  10.563   3.664  0.6490  1.6164 -0.1310
  257MOL0     H34672  11.941  10.518   3.824 -1.6884 -0.9307 -1.2055
  257MOL0     H34673  12.012  10.801   3.749  3.8954  0.3323  0.4988
  257MOL0     H34674  11.914  10.735   3.891 -1.0679 -3.0149  0.2419
  257MOL0     H34675  11.104  10.790   3.635 -0.2811 -0.8260  1.7558
  257MOL0     H34676  10.917  10.640   3.716 -0.5610  2.0037 -0.3296
  257MOL0     H34677  10.635  10.318   3.484  1.3280 -2.8683 -1.9504
  257MOL0     H34678  10.420  10.198   3.487  0.2537  1.2411 -1.1105
  257MOL0     H34679   9.091   9.488   3.227  1.6023  0.1570 -1.1715
  257MOL0     H34680   8.865   9.482   3.089  3.2157 -0.4442 -3.8798
  257MOL0     H34681   8.390   9.487   3.198  1.4140  1.4238  0.4637
  257MOL0     H34682   8.165   9.490   3.090  0.7261  0.8180  2.1788
  257MOL0     H34683   7.926   9.656   2.737 -0.1111  2.0551 -0.3291
  257MOL0     H34684   8.082   9.676   2.682 -0.4101  2.8452 -0.5620
  257MOL0     H34685   8.126   9.858   2.850 -0.0394 -0.0074  2.4039
  257MOL0     H34686   7.968   9.834   2.919 -1.3700 -1.0707 -0.4233
  257MOL0     H34687   7.856   9.949   2.787 -1.4368 -2.6291  0.0362
  257MOL0     H34688   7.901   9.868   2.646  0.1298 -0.9438  0.4881
  257MOL0     H34689   7.958  10.097   2.623  1.1655  1.2998 -0.5359
  257MOL0     H34690   8.086  10.080   2.745  1.9631 -0.0161 -0.3409
  257MOL0     H34691   8.243   9.859   2.413  0.7491 -0.1982 -0.0157
  257MOL0     H34692   8.300   9.757   2.787  0.2787  0.7809 -0.1462
  257MOL0     H34693   8.630   9.770   2.848  0.9863  1.6827 -1.4279
  257MOL0     H34694   8.497   9.874   2.793  0.7534 -2.8419 -1.0120
  257MOL0     H34695   8.562   9.884   2.963 -0.9794  0.2580  0.6896
  258MOL0     O34696   6.433   9.517   8.250  0.7291 -0.2622  0.2625
  258MOL0     C34697   6.351   9.509   8.156 -0.2657 -0.3142 -0.0380
  258MOL0     O34698   6.360   9.588   8.050  0.4526 -0.2455  0.3801
  258MOL0     C34699   6.477   9.657   8.034  0.3726  1.4387  0.5405
  258MOL0     C34700   6.480   9.788   8.068  0.1800  1.0431 -0.0549
  258MOL0     C34701   6.590   9.868   8.040 -0.3283  0.1451  0.6213
  258MOL0     C34702   6.708   9.811   7.980  0.7701  0.5365 -0.0138
  258MOL0     O34703   6.804   9.900   7.935 -0.2846  0.3684  0.0520
  258MOL0     C34704   6.927   9.854   7.878 -0.1258 -0.3620 -0.4193
  258MOL0     C34705   7.022   9.973   7.869  0.4282  0.1842  0.9486
  258MOL0     C34706   7.154   9.923   7.824 -1.0495 -0.7181 -0.6355
  258MOL0     C34707   7.264  10.030   7.849  0.1127  0.7092  0.3254
  258MOL0     C34708   7.393   9.976   7.796 -0.0258 -0.2791 -0.4127
  258MOL0     C34709   7.501  10.088   7.801 -0.4324  0.0784  0.9477
  258MOL0     C34710   7.612  10.051   7.692 -0.4879 -0.2288 -0.1139
  258MOL0     C34711   7.708  10.172   7.682 -0.6184 -1.0898  0.3826
  258MOL0     N34712   7.789  10.152   7.557 -0.5382 -0.2735 -0.8783
  258MOL0     C34713   7.867  10.045   7.529 -0.5115  0.6612 -0.0576
  258MOL0     C34714   7.940  10.072   7.413  0.6361  1.0805  0.0279
  258MOL0     C34715   8.047   9.983   7.345  0.2133 -0.0912  0.2491
  258MOL0     C34716   8.157   9.922   7.439  0.0433 -0.6677 -0.1998
  258MOL0     C34717   8.274   9.864   7.362  0.5238 -0.6522  0.1128
  258MOL0     C34718   8.375   9.784   7.442  0.0259  0.7230  0.3605
  258MOL0     O34719   8.452   9.696   7.359 -0.2253 -0.4154 -0.3213
  258MOL0     C34720   8.575   9.751   7.318 -0.6664 -0.4192 -0.1516
  258MOL0     C34721   8.671   9.660   7.274 -0.1938  0.6793  0.3384
  258MOL0     C34722   8.791   9.701   7.218  0.5111 -0.4059  0.9790
  258MOL0     C34723   8.829   9.842   7.209 -0.0646 -0.4264 -0.3213
  258MOL0     C34724   8.957   9.894   7.142  0.0588 -0.5768  0.4747
  258MOL0     O34725   8.957  10.030   7.113 -0.1432  0.0784 -0.4656
  258MOL0     C34726   9.036  10.077   7.011  0.2640 -1.1672  0.6655
  258MOL0     C34727   9.155  10.139   7.043 -0.7618  0.5079  0.4792
  258MOL0     C34728   9.236  10.181   6.940  0.5198 -0.0097  1.0810
  258MOL0     C34729   9.199  10.185   6.804 -0.1544  0.1192 -0.9711
  258MOL0     O34730   9.284  10.248   6.719  0.0742 -0.4635 -0.4242
  258MOL0     C34731   9.252  10.222   6.577  0.8772  0.1647  0.0953
  258MOL0     C34732   9.352  10.285   6.495  0.0489 -0.0478  0.0349
  258MOL0     C34733   9.495  10.222   6.514  0.7948  0.4764  0.1881
  258MOL0     C34734   9.506  10.074   6.475 -0.6566  0.3386  0.1495
  258MOL0     C34735   9.647  10.020   6.459 -0.2530 -0.1986 -0.1683
  258MOL0     C34736   9.747  10.059   6.565  0.8784 -0.0718  0.2733
  258MOL0     C34737   9.883  10.027   6.515 -0.2762 -0.4771  0.6053
  258MOL0     C34738   9.985  10.019   6.628 -0.9335  0.0738 -0.1984
  258MOL0    Cl34739  10.149   9.975   6.549  0.3979  0.3360  0.3301
  258MOL0     C34740   9.076  10.125   6.774 -0.5966 -0.2507  0.1184
  258MOL0     C34741   8.990  10.074   6.877 -0.6163 -0.9033  0.8662
  258MOL0     O34742   9.048   9.817   7.113  0.9741  0.7448  0.1482
  258MOL0     C34743   8.741   9.935   7.262 -0.2998  0.5569 -0.5576
  258MOL0     C34744   8.616   9.884   7.312  0.2303  0.3430  0.0701
  258MOL0     N34745   7.888  10.193   7.374  0.4675  0.1779 -0.6017
  258MOL0     N34746   7.795  10.236   7.453  1.7148  0.4563 -0.5243
  258MOL0     C34747   6.704   9.673   7.949 -0.0139  0.6363 -0.2007
  258MOL0     C34748   6.588   9.599   7.966  0.2767  0.9036 -0.7182
  258MOL0     C34749   6.258   9.402   8.154  0.1881  0.2256  0.4908
  258MOL0     C34750   6.118   9.428   8.178 -0.6353 -0.2270  0.3539
  258MOL0     C34751   6.030   9.332   8.157  0.2108  0.8859  0.4734
  258MOL0     C34752   6.064   9.192   8.144 -0.2006  0.1283  0.2267
  258MOL0     O34753   5.974   9.086   8.139  0.1283 -0.5355  0.0710
  258MOL0     C34754   5.848   9.099   8.215 -0.2983 -0.1010 -0.6056
  258MOL0     C34755   5.758   8.994   8.185 -0.2956 -0.0631 -0.5032
  258MOL0     C34756   5.649   8.988   8.299 -0.0787  0.6011 -0.1221
  258MOL0     C34757   5.536   8.881   8.281  0.0565 -0.1570  0.5354
  258MOL0     C34758   5.532   8.802   8.403 -0.0171  0.0347 -0.3938
  258MOL0     C34759   5.518   8.750   8.515  0.3055 -0.3281 -0.8243
  258MOL0     C34760   6.199   9.161   8.129 -0.4861 -0.7823 -0.2340
  258MOL0     C34761   6.303   9.264   8.131  0.6056 -0.6702 -0.7004
  258MOL0     C34762   6.446   9.233   8.092  0.1272  0.1932 -0.1495
  258MOL0     H34763   6.390   9.839   8.101 -1.6541 -0.5006 -2.3361
  258MOL0     H34764   6.581   9.976   8.052 -1.2069  0.0821  0.5997
  258MOL0     H34765   6.969   9.773   7.937 -1.8994 -2.4805 -1.9307
  258MOL0     H34766   6.908   9.823   7.775 -4.7980 -0.7673  0.3709
  258MOL0     H34767   7.029  10.027   7.964  2.2760  2.2108 -0.2411
  258MOL0     H34768   6.987  10.034   7.785  2.8425 -0.7744 -0.8962
  258MOL0     H34769   7.150   9.906   7.716 -1.0950 -1.2078 -0.5552
  258MOL0     H34770   7.180   9.836   7.884 -0.3613 -1.7702 -2.3984
  258MOL0     H34771   7.239  10.125   7.801 -0.2361  1.6380  2.2227
  258MOL0     H34772   7.285  10.047   7.955 -0.8259  0.3385  0.5848
  258MOL0     H34773   7.419   9.883   7.848 -0.8612  0.1798  0.8787
  258MOL0     H34774   7.375   9.956   7.690 -3.3189  6.3690 -1.6596
  258MOL0     H34775   7.452  10.180   7.767 -0.4693 -0.1396  0.3974
  258MOL0     H34776   7.541  10.095   7.902  0.0055 -1.8406  0.9560
  258MOL0     H34777   7.567  10.016   7.598 -1.2800 -3.1253  1.2148
  258MOL0     H34778   7.655   9.956   7.724 -0.0456 -0.3919 -1.1577
  258MOL0     H34779   7.631  10.247   7.663  0.9502  0.3717 -0.5470
  258MOL0     H34780   7.780  10.191   7.762  0.1579 -0.0047 -0.5400
  258MOL0     H34781   7.877   9.956   7.590  1.2554  2.1988  2.0419
  258MOL0     H34782   7.995   9.903   7.292  0.7445 -0.1415 -0.2077
  258MOL0     H34783   8.097  10.037   7.264 -0.9388  0.2345 -0.2831
  258MOL0     H34784   8.200  10.000   7.503  1.1415 -0.4754 -1.1373
  258MOL0     H34785   8.121   9.844   7.506  1.0204 -0.4000  0.6644
  258MOL0     H34786   8.321   9.953   7.319 -2.7033  2.3944  2.2901
  258MOL0     H34787   8.239   9.814   7.271 -3.9776  2.7983 -0.4255
  258MOL0     H34788   8.324   9.722   7.516  0.5086 -0.8868 -0.5773
  258MOL0     H34789   8.442   9.841   7.507  1.0117  0.6823 -0.5772
  258MOL0     H34790   8.637   9.558   7.289 -0.7436  0.9360  0.8838
  258MOL0     H34791   8.862   9.626   7.184 -0.8731 -2.0250  1.5319
  258MOL0     H34792   9.187  10.143   7.147 -1.6319 -1.1428  0.8343
  258MOL0     H34793   9.325  10.227   6.983  0.2118 -1.2515  3.1964
  258MOL0     H34794   9.240  10.115   6.558 -2.7526  0.6817 -1.2882
  258MOL0     H34795   9.166  10.280   6.543 -0.2368  0.2923  2.8999
  258MOL0     H34796   9.331  10.283   6.387  0.8569 -1.2872 -0.1171
  258MOL0     H34797   9.370  10.390   6.521  0.1147 -0.4880  1.8750
  258MOL0     H34798   9.550  10.278   6.437  0.2371  1.6901  0.6441
  258MOL0     H34799   9.536  10.251   6.611 -0.5956 -3.1243  1.9936
  258MOL0     H34800   9.450  10.062   6.382 -0.4643 -0.6963  0.1566
  258MOL0     H34801   9.452  10.007   6.543  2.7985 -1.9646  0.8494
  258MOL0     H34802   9.678  10.073   6.369  0.0932 -0.8776 -0.4585
  258MOL0     H34803   9.643   9.911   6.456 -3.5886 -0.2563  1.6649
  258MOL0     H34804   9.746  10.166   6.587  3.7228  0.5546 -1.9924
  258MOL0     H34805   9.725  10.014   6.663  0.0697  1.5750  0.8862
  258MOL0     H34806   9.911  10.111   6.450  0.9665 -0.4881  1.0939
  258MOL0     H34807   9.878   9.934   6.459 -1.1247 -0.7525  1.1243
  258MOL0     H34808   9.987  10.114   6.683  0.5841  2.6132 -4.1833
  258MOL0     H34809   9.967   9.937   6.698  5.4671 -0.3618  1.6259
  258MOL0     H34810   9.036  10.117   6.674  0.4866 -1.1890 -0.2708
  258MOL0     H34811   8.890  10.040   6.853 -0.1943 -0.9643 -1.0073
  258MOL0     H34812   8.765  10.041   7.261  2.4794  0.0287  1.2154
  258MOL0     H34813   8.551   9.969   7.332  1.6221  1.4849 -0.0780
  258MOL0     H34814   6.785   9.623   7.897 -0.7120 -0.3075 -0.4077
  258MOL0     H34815   6.572   9.496   7.938  0.0893  0.6204  0.3946
  258MOL0     H34816   6.079   9.525   8.206 -1.3940 -0.2726 -0.4649
  258MOL0     H34817   5.921   9.334   8.165 -0.4651 -0.9805 -4.6551
  258MOL0     H34818   5.791   9.191   8.201 -2.1267 -1.1510 -0.3785
  258MOL0     H34819   5.874   9.103   8.321  1.9547  1.3810 -1.1508
  258MOL0     H34820   5.803   8.895   8.192  2.9636  1.3175  0.0300
  258MOL0     H34821   5.712   9.011   8.087  0.1730 -0.9089 -0.8791
  258MOL0     H34822   5.595   9.083   8.297  0.5402  0.9776  0.5234
  258MOL0     H34823   5.702   8.973   8.393  0.7528  1.0637 -0.5066
  258MOL0     H34824   5.441   8.934   8.274  0.0068 -0.4585 -1.7069
  258MOL0     H34825   5.553   8.811   8.198 -0.0495  0.9159 -0.4127
  258MOL0     H34826   5.506   8.713   8.615  1.1252 -2.1324 -1.3645
  258MOL0     H34827   6.218   9.056   8.110 -1.1237 -0.7140 -1.3407
  258MOL0     H34828   6.455   9.245   7.983  0.0200 -0.8205 -0.2870
  258MOL0     H34829   6.527   9.285   8.143 -1.6403  1.3230  1.6496
  258MOL0     H34830   6.449   9.125   8.113 -2.9200 -0.3254 -1.7379
  259MOL0     O34831   9.067   3.152   3.389  0.9174  0.1229 -0.1133
  259MOL0     C34832   8.963   3.151   3.322  0.3253 -0.4835 -0.6827
  259MOL0     O34833   8.948   3.203   3.200 -0.2794 -0.1688  0.3520
  259MOL0     C34834   9.047   3.284   3.148  0.7502 -0.0191 -0.2936
  259MOL0     C34835   9.102   3.397   3.221  0.9069  0.1688  0.1448
  259MOL0     C34836   9.204   3.480   3.163  0.1673 -0.1184 -0.5156
  259MOL0     C34837   9.238   3.457   3.025  0.3818 -0.1718  0.1685
  259MOL0     O34838   9.337   3.537   2.974  0.6386 -0.0130  0.6908
  259MOL0     C34839   9.471   3.492   2.998  1.1177 -0.1925 -0.4621
  259MOL0     C34840   9.560   3.534   2.874 -0.5592  0.5826  0.1632
  259MOL0     C34841   9.705   3.490   2.885 -0.0100  0.0667 -0.2097
  259MOL0     C34842   9.795   3.512   2.767  0.1554  0.8616  0.7388
  259MOL0     C34843   9.951   3.498   2.788  0.2323 -0.7036 -0.4359
  259MOL0     C34844   9.985   3.361   2.821 -0.0098  0.0938 -0.2439
  259MOL0     C34845   9.994   3.320   2.967 -0.1323 -0.0417  0.1645
  259MOL0     C34846  10.101   3.208   2.977  0.4422 -1.2326 -0.0910
  259MOL0     N34847  10.124   3.144   3.111  0.5216 -0.4590 -0.2715
  259MOL0     C34848  10.245   3.095   3.145 -0.3805 -0.0004 -0.1778
  259MOL0     C34849  10.233   3.077   3.278 -0.5911 -0.4990  0.7751
  259MOL0     C34850  10.332   3.005   3.355  0.1809 -0.7176 -0.2988
  259MOL0     C34851  10.451   3.096   3.414 -0.1753 -1.1468 -0.0097
  259MOL0     C34852  10.547   2.999   3.493 -0.0785  0.2131 -0.2672
  259MOL0     C34853  10.658   3.077   3.568  0.0279 -0.0559 -0.0413
  259MOL0     O34854  10.766   2.997   3.605  0.0389 -0.1174  0.3546
  259MOL0     C34855  10.888   3.048   3.638 -0.1645 -0.9466 -0.7118
  259MOL0     C34856  10.944   3.178   3.629 -0.3203 -0.1611  1.2154
  259MOL0     C34857  11.083   3.202   3.644 -0.0307 -0.8089  0.0410
  259MOL0     C34858  11.168   3.095   3.670  0.0290 -0.9538 -0.5513
  259MOL0     C34859  11.312   3.112   3.680 -0.4054 -0.8443 -0.2620
  259MOL0     O34860  11.360   3.242   3.692 -0.4093  0.0801 -0.1116
  259MOL0     C34861  11.493   3.248   3.737  0.4685 -1.3117 -0.2403
  259MOL0     C34862  11.543   3.193   3.852 -0.0205  0.1939 -0.2566
  259MOL0     C34863  11.675   3.220   3.889  0.0950 -0.0640 -0.4754
  259MOL0     C34864  11.763   3.302   3.815 -0.4492  0.7624 -0.2165
  259MOL0     O34865  11.893   3.334   3.848  0.1991 -1.2668 -0.4765
  259MOL0     C34866  11.931   3.327   3.988 -0.2646 -0.2194  0.4225
  259MOL0     C34867  12.069   3.403   4.015 -0.8617  0.5053 -0.4848
  259MOL0     C34868  12.112   3.387   4.163 -0.0527 -0.0302  0.0731
  259MOL0     C34869  12.209   3.498   4.200 -0.4308 -1.1729 -0.5202
  259MOL0     C34870  12.273   3.478   4.339  0.1932 -0.1268  0.4329
  259MOL0     C34871  12.197   3.561   4.448 -0.0570  0.0802 -0.0924
  259MOL0     C34872  12.054   3.525   4.495  0.1231  0.4518  0.1789
  259MOL0     C34873  12.036   3.572   4.642  0.4486  0.3699 -0.1673
  259MOL0    Cl34874  11.883   3.494   4.692 -0.1397  0.3352  0.2155
  259MOL0     C34875  11.714   3.356   3.702 -0.2536  0.2772  0.5092
  259MOL0     C34876  11.577   3.335   3.670 -0.3714  0.3920  0.0753
  259MOL0     O34877  11.383   3.015   3.693  0.3352  0.4641 -0.5259
  259MOL0     C34878  11.107   2.975   3.686 -0.1955 -0.0590  0.8178
  259MOL0     C34879  10.972   2.951   3.671  0.1123 -0.4695  0.7963
  259MOL0     N34880  10.118   3.131   3.325 -0.5786  0.4024  0.3364
  259MOL0     N34881  10.052   3.172   3.221  0.2443 -0.3331 -0.0175
  259MOL0     C34882   9.190   3.344   2.956 -1.1471  0.2522 -0.3362
  259MOL0     C34883   9.095   3.260   3.021  0.3097  0.4353  0.2022
  259MOL0     C34884   8.834   3.099   3.383  0.5552  0.8241  0.4633
  259MOL0     C34885   8.730   3.077   3.289  0.0701  0.1861 -0.2438
  259MOL0     C34886   8.610   3.024   3.331  0.3552 -0.8613 -0.2934
  259MOL0     C34887   8.584   2.992   3.461  1.1066  0.2897  0.0404
  259MOL0     O34888   8.465   2.940   3.512 -0.1466 -0.5360 -0.1262
  259MOL0     C34889   8.369   2.893   3.421 -0.4872  0.1710 -0.7903
  259MOL0     C34890   8.263   2.827   3.507 -0.7252 -0.2493  0.4697
  259MOL0     C34891   8.220   2.915   3.631 -0.0911  0.4405  0.5053
  259MOL0     C34892   8.156   2.823   3.737  0.4465 -0.2832 -0.2947
  259MOL0     C34893   8.016   2.794   3.711  0.3978  0.6611  0.2928
  259MOL0     C34894   7.897   2.773   3.702  0.4888  0.4078  0.3387
  259MOL0     C34895   8.683   3.013   3.551 -0.1783 -0.1604 -0.2403
  259MOL0     C34896   8.810   3.067   3.520 -0.4396 -0.1420 -0.4117
  259MOL0     C34897   8.919   3.081   3.634  0.5910  0.2426 -0.2200
  259MOL0     H34898   9.063   3.431   3.316 -0.6055  1.6515 -0.9449
  259MOL0     H34899   9.252   3.554   3.226 -2.1341  1.3667 -0.4114
  259MOL0     H34900   9.513   3.552   3.079 -0.4625  0.4207 -0.0570
  259MOL0     H34901   9.481   3.387   3.027 -2.7911 -0.7686 -0.6096
  259MOL0     H34902   9.549   3.640   2.851 -2.0925  0.0549 -1.9418
  259MOL0     H34903   9.522   3.485   2.783 -2.5345  0.8954  0.7754
  259MOL0     H34904   9.715   3.383   2.901  2.1325 -0.5147 -4.1835
  259MOL0     H34905   9.747   3.530   2.978  0.3626 -3.4667  1.3028
  259MOL0     H34906   9.772   3.437   2.690 -1.6955  3.2089 -1.1672
  259MOL0     H34907   9.767   3.611   2.729 -0.2094  0.8026  0.8495
  259MOL0     H34908   9.984   3.528   2.688 -2.9490  0.1348 -1.3599
  259MOL0     H34909   9.987   3.568   2.864 -0.8877 -0.4872 -0.0755
  259MOL0     H34910   9.911   3.301   2.767  0.1635 -0.0287 -0.3473
  259MOL0     H34911  10.084   3.346   2.775  0.5048 -1.0485  1.1741
  259MOL0     H34912   9.897   3.286   3.003 -2.2535  3.8151 -1.3258
  259MOL0     H34913  10.009   3.400   3.039 -0.1373 -1.7727  2.1820
  259MOL0     H34914  10.077   3.124   2.910 -1.9434 -2.0770  1.7004
  259MOL0     H34915  10.198   3.246   2.943  0.3215 -0.6108  0.2456
  259MOL0     H34916  10.332   3.069   3.085  2.7968  1.2464  3.4254
  259MOL0     H34917  10.279   2.959   3.439 -0.9713  1.3023  0.1361
  259MOL0     H34918  10.367   2.922   3.293 -3.1806 -2.1708 -0.4898
  259MOL0     H34919  10.500   3.143   3.328 -0.5236 -1.9834 -0.6831
  259MOL0     H34920  10.412   3.176   3.476 -1.2730 -1.5352 -0.1825
  259MOL0     H34921  10.574   2.916   3.427 -1.1586  0.7801 -1.4774
  259MOL0     H34922  10.491   2.949   3.571  0.1547 -0.3268 -0.4410
  259MOL0     H34923  10.611   3.122   3.656 -1.6229  2.5346 -2.0679
  259MOL0     H34924  10.683   3.167   3.511  0.9694  1.0004  1.9319
  259MOL0     H34925  10.875   3.258   3.604 -2.9708 -2.4992  0.5674
  259MOL0     H34926  11.112   3.306   3.634 -4.1986  0.4778 -0.5935
  259MOL0     H34927  11.474   3.128   3.905 -1.1434 -0.3115 -2.2325
  259MOL0     H34928  11.716   3.152   3.963  0.2404 -1.1026 -1.4765
  259MOL0     H34929  11.847   3.377   4.038  0.5024  0.1353  1.3796
  259MOL0     H34930  11.957   3.227   4.023  0.9512 -0.1613 -0.2856
  259MOL0     H34931  12.149   3.348   3.965  0.5098  3.3399 -1.6134
  259MOL0     H34932  12.062   3.506   3.980  1.3095  0.4850 -1.1527
  259MOL0     H34933  12.025   3.387   4.229 -0.0196 -0.9136  0.1292
  259MOL0     H34934  12.155   3.287   4.168  1.1601  0.4313 -0.6772
  259MOL0     H34935  12.148   3.589   4.199 -0.3939 -1.0052  2.5405
  259MOL0     H34936  12.286   3.501   4.123 -1.5324 -1.6122 -1.6635
  259MOL0     H34937  12.378   3.508   4.331 -0.0997  1.4485  1.8343
  259MOL0     H34938  12.267   3.372   4.363  3.0806 -0.6445 -0.6776
  259MOL0     H34939  12.258   3.566   4.538  1.5295  0.7331 -1.1485
  259MOL0     H34940  12.202   3.663   4.408  1.3089 -0.3345 -1.0674
  259MOL0     H34941  12.046   3.416   4.494  0.5301  0.3949  1.4697
  259MOL0     H34942  11.980   3.569   4.428  0.5512  0.5419 -0.2433
  259MOL0     H34943  12.116   3.545   4.712 -0.5100  0.1806  0.8951
  259MOL0     H34944  12.024   3.680   4.641 -0.1462  0.3926  2.0856
  259MOL0     H34945  11.775   3.412   3.631 -1.8074  0.2002 -0.9411
  259MOL0     H34946  11.552   3.392   3.581 -2.4520 -4.2652 -2.7204
  259MOL0     H34947  11.166   2.891   3.722 -0.0417  1.1934  3.7166
  259MOL0     H34948  10.924   2.854   3.681  1.9828 -1.3090  2.2117
  259MOL0     H34949   9.230   3.326   2.856 -1.6049  1.4846 -0.7712
  259MOL0     H34950   9.073   3.173   2.960  0.2192  0.4750  0.1778
  259MOL0     H34951   8.739   3.111   3.187  3.9414  3.2014  0.8673
  259MOL0     H34952   8.537   3.018   3.251  2.7362  0.9310 -2.7868
  259MOL0     H34953   8.412   2.821   3.351  1.0887  0.8029 -0.5057
  259MOL0     H34954   8.330   2.977   3.363  2.5909  1.4319 -1.2374
  259MOL0     H34955   8.304   2.732   3.542 -1.9148 -0.7737  0.4940
  259MOL0     H34956   8.178   2.807   3.440  0.9410 -0.8651 -1.5492
  259MOL0     H34957   8.162   3.001   3.597  2.9174  2.4485  0.0057
  259MOL0     H34958   8.308   2.964   3.674  0.5668 -1.4160  1.4029
  259MOL0     H34959   8.219   2.734   3.751 -0.2074 -0.8935 -1.0991
  259MOL0     H34960   8.166   2.875   3.833  4.5462 -0.7021 -0.3067
  259MOL0     H34961   7.794   2.752   3.682  0.7213 -1.3265  0.8367
  259MOL0     H34962   8.649   2.981   3.649  1.3014  0.9958  0.7017
  259MOL0     H34963   8.930   3.189   3.651 -1.3429  0.2229  1.5116
  259MOL0     H34964   8.875   3.037   3.724  0.7785 -0.5054 -0.4886
  259MOL0     H34965   9.014   3.032   3.608 -0.5754 -1.1382 -2.1391
  260MOL0     O34966   8.596   7.490   5.651 -0.5026  0.0011 -0.3018
  260MOL0     C34967   8.487   7.533   5.627 -0.1463 -0.5852 -0.3487
  260MOL0     O34968   8.441   7.580   5.503 -0.1216  0.2139 -0.0164
  260MOL0     C34969   8.509   7.532   5.390  0.5490  0.3227  0.2136
  260MOL0     C34970   8.429   7.478   5.290 -0.0742 -0.1029  0.3756
  260MOL0     C34971   8.480   7.454   5.166 -1.4127  0.9669  0.4770
  260MOL0     C34972   8.613   7.478   5.132 -0.7923 -0.3806 -1.0501
  260MOL0     O34973   8.674   7.472   5.013  0.0312 -0.5957  0.1857
  260MOL0     C34974   8.614   7.390   4.906 -1.3274  0.4035  0.0255
  260MOL0     C34975   8.702   7.410   4.785 -0.4855 -0.0448 -0.6113
  260MOL0     C34976   8.832   7.335   4.798 -0.2936 -0.3008 -0.8770
  260MOL0     C34977   8.896   7.301   4.660 -0.1623 -0.3903  0.1944
  260MOL0     C34978   9.032   7.224   4.678  0.1340 -0.1793 -0.3307
  260MOL0     C34979   9.091   7.200   4.539 -0.3319 -0.6569 -0.5010
  260MOL0     C34980   9.245   7.199   4.538 -0.0268 -0.1804  0.0781
  260MOL0     C34981   9.314   7.069   4.584  1.2162  0.3876  0.1845
  260MOL0     N34982   9.460   7.099   4.590  0.5836 -0.4598 -0.8924
  260MOL0     C34983   9.538   7.092   4.482  0.4908 -1.0877 -0.0719
  260MOL0     C34984   9.663   7.116   4.537 -0.1961 -0.0917 -0.4619
  260MOL0     C34985   9.773   7.152   4.442 -0.0490 -0.1124 -1.1754
  260MOL0     C34986   9.904   7.090   4.504  0.5543 -0.0371 -0.1989
  260MOL0     C34987   9.923   6.951   4.453  0.1325 -0.8953 -0.3567
  260MOL0     C34988  10.064   6.911   4.485  0.1923 -0.8493  0.1945
  260MOL0     O34989  10.082   6.781   4.424 -0.4634 -0.2539 -0.1654
  260MOL0     C34990  10.198   6.714   4.444  0.8198 -0.3490 -0.1995
  260MOL0     C34991  10.319   6.778   4.446 -0.2239  0.5800  1.0635
  260MOL0     C34992  10.434   6.706   4.463 -0.7498  0.5027 -0.6419
  260MOL0     C34993  10.437   6.570   4.473 -0.7407  0.0066 -0.2748
  260MOL0     C34994  10.561   6.493   4.500 -0.1680 -0.1396  0.0307
  260MOL0     O34995  10.666   6.565   4.549 -0.3903  0.3095  0.2223
  260MOL0     C34996  10.787   6.503   4.559 -0.0353  0.3458 -0.2974
  260MOL0     C34997  10.858   6.457   4.451 -0.0084 -0.4521 -0.3464
  260MOL0     C34998  10.979   6.393   4.471  1.1412  0.5776 -0.5154
  260MOL0     C34999  11.032   6.374   4.598 -0.1338 -0.1601 -0.4184
  260MOL0     O35000  11.154   6.314   4.608 -0.6367  0.1388  0.1512
  260MOL0     C35001  11.229   6.333   4.730 -0.1991  0.4323 -0.4155
  260MOL0     C35002  11.358   6.254   4.730 -0.3825  0.4907  0.4099
  260MOL0     C35003  11.452   6.275   4.613 -1.3778 -0.0622 -0.8808
  260MOL0     C35004  11.562   6.175   4.595  0.8823  0.3107 -0.6297
  260MOL0     C35005  11.679   6.218   4.508  0.2693  0.2437 -0.1251
  260MOL0     C35006  11.781   6.106   4.508 -0.6702  0.4889 -0.0185
  260MOL0     C35007  11.909   6.134   4.433  0.2920  0.0506  0.3072
  260MOL0     C35008  12.006   6.018   4.427 -0.2671  0.4743 -0.2103
  260MOL0    Cl35009  12.144   6.065   4.312 -0.1847  0.5474  0.3799
  260MOL0     C35010  10.951   6.413   4.704  0.3294 -0.3302 -0.4241
  260MOL0     C35011  10.827   6.478   4.685 -0.8919 -0.4409  0.9695
  260MOL0     O35012  10.568   6.378   4.456  0.0086 -0.2471 -0.2434
  260MOL0     C35013  10.307   6.507   4.480 -0.8366 -0.2207  0.3913
  260MOL0     C35014  10.193   6.574   4.449 -0.0559 -0.8593 -0.2212
  260MOL0     N35015   9.655   7.133   4.676 -0.1336  0.7850  0.1418
  260MOL0     N35016   9.536   7.116   4.707  0.2386  0.6984  0.0799
  260MOL0     C35017   8.694   7.541   5.239 -0.6316  0.9952  0.1413
  260MOL0     C35018   8.641   7.567   5.366 -0.1748  0.8048  0.2342
  260MOL0     C35019   8.391   7.544   5.739  0.1391 -0.6347 -0.4152
  260MOL0     C35020   8.291   7.645   5.741 -0.3034 -0.0352  0.1093
  260MOL0     C35021   8.199   7.661   5.850 -0.2932  0.0130  0.7209
  260MOL0     C35022   8.200   7.568   5.955 -0.2585 -0.1874 -0.3859
  260MOL0     O35023   8.109   7.593   6.059 -0.1913  0.2305  0.0031
  260MOL0     C35024   8.057   7.485   6.134 -0.3530  0.7874  0.1508
  260MOL0     C35025   7.912   7.505   6.169  0.1967 -0.5484 -0.2219
  260MOL0     C35026   7.828   7.540   6.045 -0.2164  0.2660  0.4481
  260MOL0     C35027   7.823   7.415   5.962 -0.3565  0.1787  0.7257
  260MOL0     C35028   7.689   7.352   5.942  0.4408 -0.2431 -0.0797
  260MOL0     C35029   7.576   7.299   5.932 -0.3161 -0.2152 -0.0702
  260MOL0     C35030   8.290   7.464   5.955 -0.5291  0.6636 -0.2499
  260MOL0     C35031   8.394   7.457   5.856  1.1325 -0.7723  0.5831
  260MOL0     C35032   8.487   7.342   5.864  0.7774 -0.1992  0.3147
  260MOL0     H35033   8.321   7.476   5.305 -0.3685 -0.0962 -1.4978
  260MOL0     H35034   8.403   7.430   5.094 -1.4008  0.4927  0.6139
  260MOL0     H35035   8.618   7.286   4.940 -0.8841 -0.0451 -1.3498
  260MOL0     H35036   8.515   7.423   4.875 -1.9006 -0.8833  0.4299
  260MOL0     H35037   8.712   7.519   4.785 -0.0260 -0.0084 -3.5444
  260MOL0     H35038   8.646   7.369   4.700  0.4801 -1.3510 -0.6464
  260MOL0     H35039   8.825   7.242   4.855  0.1159 -0.3121 -0.8415
  260MOL0     H35040   8.909   7.395   4.846  1.2505 -2.7495 -0.1179
  260MOL0     H35041   8.823   7.248   4.598 -0.7026  1.4726 -0.8517
  260MOL0     H35042   8.907   7.389   4.596  0.5151 -1.5916 -1.4221
  260MOL0     H35043   9.099   7.281   4.742  0.9732  2.0333 -3.0224
  260MOL0     H35044   9.008   7.128   4.726  1.6187 -0.6378 -0.4470
  260MOL0     H35045   9.042   7.111   4.499 -1.4258 -1.4691  2.4130
  260MOL0     H35046   9.074   7.289   4.478  1.2866 -0.5988 -0.9111
  260MOL0     H35047   9.277   7.284   4.598 -2.5227 -1.0406  2.9068
  260MOL0     H35048   9.280   7.227   4.439 -2.6610 -1.9155 -1.4743
  260MOL0     H35049   9.281   7.042   4.684  0.8361  1.3545  0.3329
  260MOL0     H35050   9.296   6.992   4.508  2.8093  0.7047 -0.5618
  260MOL0     H35051   9.512   7.069   4.380 -1.8490  0.2160  0.1492
  260MOL0     H35052   9.765   7.118   4.338 -1.1987 -3.6310 -0.0773
  260MOL0     H35053   9.797   7.258   4.454 -2.8510  0.3150  2.6233
  260MOL0     H35054   9.989   7.153   4.476  0.3431 -0.3101 -1.5338
  260MOL0     H35055   9.906   7.091   4.613 -0.3825  1.6328 -0.1635
  260MOL0     H35056   9.902   6.950   4.345  2.5245  2.6622 -1.0207
  260MOL0     H35057   9.859   6.883   4.510 -0.1964 -0.7151 -0.5000
  260MOL0     H35058  10.084   6.911   4.592 -0.6444  2.1629  0.4572
  260MOL0     H35059  10.131   6.977   4.429 -0.3691 -1.4591 -1.2493
  260MOL0     H35060  10.330   6.881   4.413  3.2622 -0.8298 -3.0996
  260MOL0     H35061  10.522   6.769   4.475 -0.9556  0.4268  1.6393
  260MOL0     H35062  10.824   6.473   4.349  1.5167 -0.5878 -0.9012
  260MOL0     H35063  11.029   6.348   4.385 -0.2761 -0.4690 -0.8212
  260MOL0     H35064  11.241   6.442   4.738 -0.5601  0.3745  1.1581
  260MOL0     H35065  11.166   6.296   4.811  1.8791 -1.8869  0.2418
  260MOL0     H35066  11.410   6.277   4.824  0.8872  0.5278 -0.2721
  260MOL0     H35067  11.327   6.151   4.713  0.1032  0.7277 -2.6001
  260MOL0     H35068  11.390   6.273   4.523 -5.6202 -3.0048  1.7318
  260MOL0     H35069  11.511   6.365   4.630  0.0765 -1.4785  2.4587
  260MOL0     H35070  11.516   6.088   4.548  1.2365  0.7486 -1.8209
  260MOL0     H35071  11.596   6.148   4.696 -1.1644  1.5431  0.4466
  260MOL0     H35072  11.727   6.304   4.556  1.1649  0.5669 -1.5307
  260MOL0     H35073  11.652   6.259   4.410 -0.4853  1.7697  0.6733
  260MOL0     H35074  11.808   6.093   4.613 -1.5054  0.3597  0.1827
  260MOL0     H35075  11.731   6.022   4.458 -1.1091  0.8601 -0.2004
  260MOL0     H35076  11.960   6.226   4.462  0.8099  0.4971 -1.8475
  260MOL0     H35077  11.895   6.157   4.327  1.5051 -1.0684 -0.1232
  260MOL0     H35078  12.046   5.986   4.524  2.7700 -1.9621 -2.0508
  260MOL0     H35079  11.952   5.936   4.378 -2.3374  2.3311 -1.1805
  260MOL0     H35080  10.993   6.419   4.803  0.6042 -1.1449 -0.4835
  260MOL0     H35081  10.777   6.507   4.776 -1.0185 -1.4671  1.2417
  260MOL0     H35082  10.297   6.402   4.505 -1.8085  0.0822  1.3213
  260MOL0     H35083  10.100   6.519   4.439  0.3415 -1.2521 -2.5098
  260MOL0     H35084   8.795   7.572   5.216 -0.2352 -1.1072 -1.1983
  260MOL0     H35085   8.713   7.624   5.424  1.3320  1.0567 -1.7830
  260MOL0     H35086   8.287   7.725   5.669  0.3439  0.8986  1.0896
  260MOL0     H35087   8.129   7.744   5.848 -0.3589  0.0826 -3.6545
  260MOL0     H35088   8.109   7.476   6.230 -0.7290 -1.8807  0.1786
  260MOL0     H35089   8.068   7.388   6.085  0.7787  0.9188  0.1103
  260MOL0     H35090   7.897   7.588   6.239  0.5323 -2.3571  2.1360
  260MOL0     H35091   7.872   7.416   6.218 -2.2974 -1.3228 -3.3336
  260MOL0     H35092   7.879   7.613   5.981  1.2830 -0.2855  0.9584
  260MOL0     H35093   7.731   7.573   6.082 -0.1284 -0.7690  1.6526
  260MOL0     H35094   7.861   7.437   5.861 -0.3600 -0.2688  0.6261
  260MOL0     H35095   7.880   7.329   6.000 -1.9161 -1.8509 -1.2466
  260MOL0     H35096   7.477   7.262   5.916 -1.6155  2.2291  1.6144
  260MOL0     H35097   8.270   7.396   6.037 -2.5581  1.0853 -0.3410
  260MOL0     H35098   8.499   7.311   5.968  0.9583 -0.2280  0.2859
  260MOL0     H35099   8.454   7.262   5.797  4.4545 -2.1110  0.5307
  260MOL0     H35100   8.591   7.374   5.850  0.9023 -0.6350  0.2378
  261MOL0     O35101   4.946  10.112   4.459  0.5583 -0.3230 -0.1325
  261MOL0     C35102   4.895  10.014   4.417 -0.6748  0.4805  0.6497
  261MOL0     O35103   4.973   9.901   4.379 -0.2429 -0.3697  0.0154
  261MOL0     C35104   5.106   9.923   4.388 -0.0017  0.8288 -1.0157
  261MOL0     C35105   5.172   9.904   4.507  0.4610  0.3607  0.3078
  261MOL0     C35106   5.302   9.930   4.523  0.2748 -0.0151  0.3564
  261MOL0     C35107   5.382   9.969   4.419 -0.4936  0.6950  0.3270
  261MOL0     O35108   5.523   9.983   4.418 -0.0613  0.4359 -0.4843
  261MOL0     C35109   5.601   9.947   4.539  0.5768  0.9688 -0.3214
  261MOL0     C35110   5.751   9.952   4.516  0.3979 -0.6270 -0.2433
  261MOL0     C35111   5.799   9.859   4.396 -0.4808  0.1531  0.4940
  261MOL0     C35112   5.946   9.819   4.403 -0.4675  0.2862  0.5173
  261MOL0     C35113   5.990   9.750   4.276 -0.1348 -0.3311  0.6232
  261MOL0     C35114   6.134   9.691   4.299 -1.0823 -1.0781 -0.3081
  261MOL0     C35115   6.167   9.568   4.206 -0.1918 -0.6741 -0.6023
  261MOL0     C35116   6.307   9.519   4.243  0.7231 -0.5471  0.0125
  261MOL0     N35117   6.410   9.624   4.213  0.3806  0.4110 -1.0763
  261MOL0     C35118   6.485   9.704   4.306  0.0515  0.2106  0.3276
  261MOL0     C35119   6.561   9.773   4.224 -0.1145  0.2547  0.3518
  261MOL0     C35120   6.654   9.863   4.289  0.0988 -0.7720  0.1034
  261MOL0     C35121   6.801   9.847   4.244  0.8815  0.6524 -0.2531
  261MOL0     C35122   6.845   9.706   4.282  0.7055 -1.1161 -0.8757
  261MOL0     C35123   6.980   9.689   4.220  0.8279 -0.2947 -0.0082
  261MOL0     O35124   7.073   9.780   4.272 -0.3279 -0.0779  0.3694
  261MOL0     C35125   7.207   9.756   4.265  0.5242  0.3723  0.6582
  261MOL0     C35126   7.265   9.636   4.225 -0.2110 -0.1749  0.6649
  261MOL0     C35127   7.408   9.629   4.223  0.6222  0.6019 -0.9974
  261MOL0     C35128   7.484   9.743   4.248 -0.2157  0.8624 -0.2090
  261MOL0     C35129   7.630   9.736   4.228 -0.6006 -0.2811 -0.9541
  261MOL0     O35130   7.706   9.836   4.299  0.2387  0.1532 -0.4064
  261MOL0     C35131   7.840   9.835   4.297 -0.2899  0.1444 -0.1520
  261MOL0     C35132   7.910   9.953   4.257  0.8223  0.6581  0.7953
  261MOL0     C35133   8.044   9.955   4.281 -0.2213 -0.3279 -0.6315
  261MOL0     C35134   8.122   9.855   4.345  0.4901  0.0503  0.0506
  261MOL0     O35135   8.260   9.874   4.363 -0.5548  0.2400  0.4009
  261MOL0     C35136   8.344   9.788   4.442 -0.5135  0.5440  0.0135
  261MOL0     C35137   8.470   9.858   4.495  0.5696 -0.0717  0.9327
  261MOL0     C35138   8.542   9.778   4.596  0.2506  0.8451 -0.3837
  261MOL0     C35139   8.663   9.842   4.662 -0.7427  0.0095  0.3121
  261MOL0     C35140   8.725   9.759   4.772  0.2170 -0.1720 -0.0456
  261MOL0     C35141   8.824   9.840   4.863  0.3794  0.0321 -0.4717
  261MOL0     C35142   8.942   9.915   4.793  0.1940 -0.4412 -0.2293
  261MOL0     C35143   9.067   9.908   4.875 -0.1466  1.3862 -0.4331
  261MOL0    Cl35144   9.137   9.742   4.866 -0.2178 -0.0124  0.4008
  261MOL0     C35145   8.050   9.746   4.393  0.0960  0.1253  0.5614
  261MOL0     C35146   7.911   9.734   4.365  1.1336  0.5662 -0.0584
  261MOL0     O35147   7.682   9.642   4.173  0.3191  0.4738  0.5659
  261MOL0     C35148   7.421   9.863   4.286  0.8756  0.2524 -0.3723
  261MOL0     C35149   7.281   9.867   4.303 -0.0653  0.0329 -0.3433
  261MOL0     N35150   6.544   9.740   4.093 -0.4569 -0.3975  0.0574
  261MOL0     N35151   6.452   9.652   4.085 -0.6075 -0.6237 -0.3736
  261MOL0     C35152   5.317   9.999   4.298  0.4451 -0.1992 -0.0538
  261MOL0     C35153   5.184   9.965   4.283 -0.4007 -0.0390 -0.3010
  261MOL0     C35154   4.749   9.992   4.417 -0.2406 -0.6266  0.0085
  261MOL0     C35155   4.702   9.859   4.400 -0.1432  0.2717 -0.0208
  261MOL0     C35156   4.568   9.826   4.411  0.6405  0.1309 -0.4234
  261MOL0     C35157   4.473   9.927   4.440 -0.2958 -0.9068  0.7419
  261MOL0     O35158   4.341   9.884   4.442 -0.3757 -0.4995  0.8026
  261MOL0     C35159   4.242   9.988   4.473 -0.3555 -0.0988 -0.1417
  261MOL0     C35160   4.093   9.960   4.459  0.7771  0.1994 -0.7331
  261MOL0     C35161   4.054   9.957   4.308  0.0587 -0.2000 -0.3595
  261MOL0     C35162   3.911   9.914   4.293 -0.4904 -1.1210  0.2061
  261MOL0     C35163   3.828  10.032   4.322  0.4764 -0.7695 -0.0867
  261MOL0     C35164   3.766  10.139   4.335  0.0275 -0.4303  0.7077
  261MOL0     C35165   4.521  10.065   4.465 -0.1644 -0.6767  0.1480
  261MOL0     C35166   4.656  10.094   4.450 -0.2259 -0.4740 -0.4073
  261MOL0     C35167   4.694  10.246   4.476  0.2556  1.3874  0.5427
  261MOL0     H35168   5.117   9.881   4.598  0.9831 -4.3394 -0.2879
  261MOL0     H35169   5.345   9.930   4.623  0.1232 -2.5750  0.4815
  261MOL0     H35170   5.577  10.011   4.624  3.2019 -0.0940  1.3721
  261MOL0     H35171   5.574   9.843   4.560  1.4401  0.9975  1.0792
  261MOL0     H35172   5.799   9.914   4.607 -0.4697  0.4753  0.7008
  261MOL0     H35173   5.774  10.057   4.497 -0.4517 -0.2980  0.4942
  261MOL0     H35174   5.792   9.921   4.306 -0.0180  2.2860  1.8823
  261MOL0     H35175   5.736   9.769   4.391  0.3085 -0.3920 -0.0906
  261MOL0     H35176   6.016   9.901   4.423  1.3635 -0.8751 -0.8334
  261MOL0     H35177   5.957   9.747   4.484 -1.4147  1.1574  1.4410
  261MOL0     H35178   5.914   9.676   4.247 -2.0669  0.9148  2.2602
  261MOL0     H35179   5.985   9.828   4.200 -1.6914  0.1539  1.1824
  261MOL0     H35180   6.211   9.769   4.292 -2.6300  0.6097  0.6248
  261MOL0     H35181   6.139   9.648   4.400  1.8511 -2.2018 -0.8361
  261MOL0     H35182   6.168   9.610   4.105  2.8919  0.1967 -0.3302
  261MOL0     H35183   6.091   9.491   4.220  0.5634 -1.1946  0.8730
  261MOL0     H35184   6.322   9.486   4.347  1.0379  2.6617  1.0946
  261MOL0     H35185   6.329   9.435   4.176  1.0458  0.0499 -0.6311
  261MOL0     H35186   6.500   9.711   4.413  2.4068 -2.0878  0.2763
  261MOL0     H35187   6.623   9.965   4.265  0.3569  0.0062  2.6986
  261MOL0     H35188   6.650   9.855   4.398  1.3556 -0.4921  0.1930
  261MOL0     H35189   6.802   9.863   4.136  1.3133  0.0293 -0.3471
  261MOL0     H35190   6.855   9.926   4.297  1.4797  0.8604 -1.1556
  261MOL0     H35191   6.767   9.638   4.247 -0.4582  0.4959 -1.5390
  261MOL0     H35192   6.847   9.698   4.391 -0.6386  1.4205 -0.5845
  261MOL0     H35193   6.976   9.703   4.112  0.4699 -1.4883 -0.1675
  261MOL0     H35194   7.005   9.584   4.238 -0.0960 -0.2315  1.9841
  261MOL0     H35195   7.210   9.549   4.190  0.3436  0.1603 -1.1279
  261MOL0     H35196   7.445   9.530   4.198 -2.3483 -1.2557  1.2560
  261MOL0     H35197   7.853  10.022   4.197  0.9066 -1.6100 -2.1307
  261MOL0     H35198   8.095  10.048   4.255  2.1446 -0.3484  3.1974
  261MOL0     H35199   8.297   9.737   4.527  0.9411 -1.6724 -0.4266
  261MOL0     H35200   8.386   9.705   4.385  0.0454  0.6806  0.2184
  261MOL0     H35201   8.537   9.879   4.411  2.4880 -0.4292  2.3201
  261MOL0     H35202   8.448   9.954   4.543  0.5115  1.1100 -1.2856
  261MOL0     H35203   8.469   9.766   4.677 -1.2776 -1.6523 -1.9728
  261MOL0     H35204   8.577   9.679   4.565  3.1246  1.6541  0.0607
  261MOL0     H35205   8.629   9.935   4.709  0.4661 -0.1219  1.5043
  261MOL0     H35206   8.734   9.863   4.582  0.2471 -3.3574  0.1280
  261MOL0     H35207   8.775   9.667   4.741  3.3951  1.2478  0.4448
  261MOL0     H35208   8.643   9.750   4.844 -1.6757  2.7614 -1.6266
  261MOL0     H35209   8.769   9.908   4.929 -2.3778 -1.4717 -1.0807
  261MOL0     H35210   8.865   9.753   4.917  1.1989  0.5290 -0.2771
  261MOL0     H35211   8.920  10.021   4.775 -0.8668 -0.7572 -0.8649
  261MOL0     H35212   8.960   9.870   4.695 -0.8093  0.4493 -0.8423
  261MOL0     H35213   9.144   9.972   4.831 -1.2262  1.0494 -3.0246
  261MOL0     H35214   9.063   9.933   4.981  0.9452  1.2316 -0.3446
  261MOL0     H35215   8.097   9.660   4.438 -1.5674 -0.0130  2.1512
  261MOL0     H35216   7.858   9.642   4.389 -0.0910  1.7484  2.0858
  261MOL0     H35217   7.475   9.948   4.327 -2.3814  1.2798  2.1502
  261MOL0     H35218   7.233   9.954   4.347 -1.0310 -0.1930 -0.9100
  261MOL0     H35219   5.372  10.041   4.214  1.3915 -0.0846  0.6105
  261MOL0     H35220   5.151   9.983   4.182  0.8092 -0.4479 -0.7859
  261MOL0     H35221   4.773   9.778   4.382 -0.6821  0.1147 -1.5495
  261MOL0     H35222   4.523   9.727   4.401 -0.5551  0.7671 -1.6524
  261MOL0     H35223   4.250  10.081   4.415 -0.7835  2.1363  3.0799
  261MOL0     H35224   4.268  10.017   4.575 -0.8003  0.8722 -0.2877
  261MOL0     H35225   4.034  10.037   4.510  0.7388  0.4776 -1.1924
  261MOL0     H35226   4.072   9.866   4.510  1.9159  0.7456  0.8116
  261MOL0     H35227   4.123   9.888   4.259  1.0284  0.7515 -0.3750
  261MOL0     H35228   4.070  10.054   4.259 -0.6512  0.5916  0.9315
  261MOL0     H35229   3.898   9.901   4.185 -2.5646 -5.4694  0.7432
  261MOL0     H35230   3.885   9.828   4.355  0.6574 -1.9727 -0.4538
  261MOL0     H35231   3.704  10.226   4.345  1.2741  0.7657 -1.2153
  261MOL0     H35232   4.449  10.143   4.486 -2.2441 -2.2601 -0.7995
  261MOL0     H35233   4.768  10.289   4.408 -0.1110  2.9754  1.0932
  261MOL0     H35234   4.611  10.317   4.470  1.4318  2.7597 -0.3833
  261MOL0     H35235   4.744  10.253   4.573 -0.4969 -2.2455  1.3165
  262MOL0     O35236   5.471   6.944  10.069  0.2674  0.1053 -0.2769
  262MOL0     C35237   5.431   6.828  10.066  0.1750 -0.9003 -0.3193
  262MOL0     O35238   5.492   6.727  10.131 -0.4714 -0.7790  0.0393
  262MOL0     C35239   5.624   6.727  10.172 -0.5998  0.6644 -0.1224
  262MOL0     C35240   5.716   6.829  10.177  0.8953  0.5757 -0.1293
  262MOL0     C35241   5.843   6.807  10.226  0.1974  1.4919 -0.0030
  262MOL0     C35242   5.885   6.679  10.269  0.1486  0.4586 -0.0059
  262MOL0     O35243   5.998   6.646  10.334 -0.2220 -0.0268  0.0249
  262MOL0     C35244   6.121   6.726  10.306  0.0655 -0.2496 -0.0334
  262MOL0     C35245   6.218   6.687  10.409 -0.8026  1.0200 -0.9509
  262MOL0     C35246   6.306   6.562  10.350  0.6653 -1.0199  0.8855
  262MOL0     C35247   6.424   6.523  10.439 -0.4414 -0.0942  0.2827
  262MOL0     C35248   6.465   6.379  10.426  0.6197 -0.8381  0.8105
  262MOL0     C35249   6.607   6.345  10.475  0.2718 -0.7267  0.4648
  262MOL0     C35250   6.636   6.196  10.482  0.4634  0.6689  0.1282
  262MOL0     C35251   6.569   6.125  10.603  0.0016  0.5370 -0.0614
  262MOL0     N35252   6.621   5.993  10.627 -0.3185 -0.7703  0.8877
  262MOL0     C35253   6.636   5.899  10.528  0.8286 -0.5016 -0.5957
  262MOL0     C35254   6.687   5.793  10.596  1.3738  0.6482 -0.2562
  262MOL0     C35255   6.691   5.651  10.550  0.5245  0.3033  0.2381
  262MOL0     C35256   6.836   5.600  10.500  0.0578 -0.5740 -0.0637
  262MOL0     C35257   6.868   5.674  10.378 -0.1188  0.0361  0.3602
  262MOL0     C35258   7.000   5.642  10.326 -0.3592  1.1316 -0.5116
  262MOL0     O35259   7.098   5.669  10.428  0.1243 -0.0947 -0.2600
  262MOL0     C35260   7.227   5.644  10.382  0.3843 -0.0860  0.2500
  262MOL0     C35261   7.286   5.741  10.306  0.2529 -0.0687 -0.2520
  262MOL0     C35262   7.418   5.735  10.275 -0.1340  0.4847 -0.6131
  262MOL0     C35263   7.488   5.620  10.307 -0.3293 -0.4675 -0.3760
  262MOL0     C35264   7.635   5.614  10.266 -0.2844 -0.1489  0.0505
  262MOL0     O35265   7.716   5.530  10.336  0.1560  0.2347  0.2956
  262MOL0     C35266   7.851   5.522  10.302 -0.3623  0.1449  0.1805
  262MOL0     C35267   7.940   5.517  10.410  0.7597 -0.1127 -0.2860
  262MOL0     C35268   8.076   5.526  10.386 -0.2661  0.3633  0.1493
  262MOL0     C35269   8.129   5.524  10.255  0.2882  1.1768  0.2474
  262MOL0     O35270   8.269   5.539  10.224 -0.1839  1.1494  0.7026
  262MOL0     C35271   8.361   5.596  10.315  0.4515 -0.2154 -0.2832
  262MOL0     C35272   8.482   5.648  10.232  0.1212  1.1094 -0.2448
  262MOL0     C35273   8.574   5.523  10.202 -0.0889 -0.1622 -1.1697
  262MOL0     C35274   8.671   5.557  10.081  1.0526  0.2732 -1.0946
  262MOL0     C35275   8.784   5.459  10.069  0.3788 -0.1285 -0.6556
  262MOL0     C35276   8.870   5.505   9.948 -0.0873  0.1697  0.0161
  262MOL0     C35277   8.975   5.401   9.905  0.7507  0.5991 -0.0260
  262MOL0     C35278   9.023   5.441   9.763 -0.3115  0.5525 -0.5134
  262MOL0    Cl35279   9.161   5.326   9.737 -0.1800 -0.1426 -0.0713
  262MOL0     C35280   8.038   5.508  10.154  0.1616 -0.1750  0.2257
  262MOL0     C35281   7.898   5.504  10.171  0.2387  0.0261 -0.2891
  262MOL0     O35282   7.679   5.699  10.184 -0.4058  0.1263 -0.3442
  262MOL0     C35283   7.433   5.510  10.381  1.3051 -0.2624  0.4536
  262MOL0     C35284   7.301   5.532  10.429  0.6565  0.5051 -0.7098
  262MOL0     N35285   6.702   5.823  10.733  0.1799  1.3889  0.0637
  262MOL0     N35286   6.657   5.940  10.744  0.1272 -0.2760  0.5079
  262MOL0     C35287   5.791   6.574  10.258 -0.4769  0.0642 -0.3443
  262MOL0     C35288   5.663   6.600  10.216 -0.3017  0.1229 -0.5598
  262MOL0     C35289   5.307   6.808   9.986  0.2448 -0.0416  0.1592
  262MOL0     C35290   5.266   6.905   9.893 -0.1274  0.2498  0.5033
  262MOL0     C35291   5.146   6.895   9.822 -0.7452  0.3872 -0.7451
  262MOL0     C35292   5.061   6.787   9.837 -0.4125 -0.0365 -0.2928
  262MOL0     O35293   4.944   6.786   9.770 -0.1746  0.4474 -0.0377
  262MOL0     C35294   4.834   6.693   9.802  0.1774 -0.7792 -0.1982
  262MOL0     C35295   4.852   6.571   9.712  0.6384 -0.8483  0.0081
  262MOL0     C35296   4.802   6.598   9.566  0.4507 -0.4232 -0.0809
  262MOL0     C35297   4.820   6.473   9.469 -0.3790  0.4705 -0.2115
  262MOL0     C35298   4.816   6.522   9.329 -0.4033 -0.5078  0.8542
  262MOL0     C35299   4.833   6.547   9.213  0.3411  0.1836  0.6359
  262MOL0     C35300   5.100   6.685   9.929  0.7697  0.5788 -0.7403
  262MOL0     C35301   5.222   6.694  10.001 -0.3058  0.0906 -0.7644
  262MOL0     C35302   5.246   6.585  10.099 -0.0842 -0.1290 -0.7746
  262MOL0     H35303   5.691   6.927  10.136 -0.6994 -0.0992 -0.8675
  262MOL0     H35304   5.895   6.900  10.246 -1.7340  2.7716 -0.6555
  262MOL0     H35305   6.151   6.703  10.204 -1.8258  1.7089 -1.1067
  262MOL0     H35306   6.100   6.832  10.322 -2.8944 -0.3146 -2.6215
  262MOL0     H35307   6.166   6.648  10.496  2.1457  0.4490  0.7102
  262MOL0     H35308   6.287   6.763  10.448  1.5285 -2.4477  2.4639
  262MOL0     H35309   6.341   6.589  10.250  0.3934  0.4683  1.1618
  262MOL0     H35310   6.242   6.473  10.347 -3.0668  1.3393  2.5169
  262MOL0     H35311   6.513   6.585  10.435  1.1051 -2.2790 -0.8170
  262MOL0     H35312   6.392   6.547  10.542 -0.2919 -2.1726  0.8573
  262MOL0     H35313   6.389   6.327  10.484 -1.6354  1.1401 -0.2282
  262MOL0     H35314   6.455   6.347  10.322  0.2069 -0.7174  0.8130
  262MOL0     H35315   6.683   6.387  10.407 -0.6841  0.5354  0.1348
  262MOL0     H35316   6.622   6.383  10.576 -1.4101  0.7169  0.2238
  262MOL0     H35317   6.740   6.163  10.487 -0.3374 -1.8729  2.0154
  262MOL0     H35318   6.592   6.154  10.391 -1.2858 -0.7318  1.5289
  262MOL0     H35319   6.592   6.174  10.698 -2.1126 -3.3997  2.7835
  262MOL0     H35320   6.461   6.130  10.587 -0.2038 -3.0792 -0.6083
  262MOL0     H35321   6.601   5.903  10.426  1.9010 -2.6350 -1.1050
  262MOL0     H35322   6.667   5.591  10.639 -1.0021 -0.3442 -0.5847
  262MOL0     H35323   6.615   5.624  10.477 -0.4462  0.0691  1.2995
  262MOL0     H35324   6.911   5.626  10.575  0.5294 -0.8894 -0.4158
  262MOL0     H35325   6.847   5.493  10.477  2.4419 -0.5385  0.5670
  262MOL0     H35326   6.858   5.781  10.395 -0.9740 -0.1513  1.1580
  262MOL0     H35327   6.790   5.652  10.304  0.6104  0.4870 -0.5608
  262MOL0     H35328   7.010   5.710  10.241 -0.2469  2.1879  0.3293
  262MOL0     H35329   7.003   5.538  10.292  0.0644  0.8295  0.4223
  262MOL0     H35330   7.231   5.828  10.272  2.5960  1.2898 -0.8428
  262MOL0     H35331   7.468   5.816  10.222 -0.2707  0.8716 -0.1628
  262MOL0     H35332   7.908   5.528  10.513 -1.4488  3.0505 -1.1443
  262MOL0     H35333   8.139   5.538  10.474 -1.2861 -0.9712  1.1085
  262MOL0     H35334   8.307   5.672  10.372 -2.1768 -1.9034 -0.3921
  262MOL0     H35335   8.379   5.512  10.384 -1.9049  0.1940  0.9117
  262MOL0     H35336   8.435   5.694  10.144 -0.4022  3.2174  1.0638
  262MOL0     H35337   8.539   5.725  10.284  3.0612 -0.4147 -0.9648
  262MOL0     H35338   8.630   5.510  10.295 -1.3819 -1.6000 -0.5503
  262MOL0     H35339   8.516   5.433  10.179  0.1174 -0.7194  0.4289
  262MOL0     H35340   8.717   5.656  10.095 -0.9522  1.1569 -0.4170
  262MOL0     H35341   8.622   5.563   9.984 -1.5995  1.6501  0.1971
  262MOL0     H35342   8.730   5.365  10.057 -1.6055  0.7664  0.7763
  262MOL0     H35343   8.838   5.455  10.165 -0.2730  1.8007 -0.1653
  262MOL0     H35344   8.799   5.528   9.868 -0.4724  0.6075  0.4804
  262MOL0     H35345   8.915   5.602   9.974 -0.8183  1.0685 -1.8654
  262MOL0     H35346   8.936   5.299   9.905  2.4028 -0.0565 -0.4713
  262MOL0     H35347   9.052   5.398   9.982 -1.1668  0.5420  2.0139
  262MOL0     H35348   8.939   5.438   9.693 -2.8165 -1.9131  2.2831
  262MOL0     H35349   9.056   5.545   9.767  0.7916  0.2716 -1.7943
  262MOL0     H35350   8.072   5.510  10.051 -0.9877  1.4141 -0.1578
  262MOL0     H35351   7.835   5.505  10.082 -0.2221 -2.0789 -0.0512
  262MOL0     H35352   7.485   5.416  10.395  2.7228  0.9027  5.0189
  262MOL0     H35353   7.256   5.448  10.481  1.7974 -0.0761 -0.6275
  262MOL0     H35354   5.833   6.478  10.287  0.0239  0.9961  2.2966
  262MOL0     H35355   5.586   6.523  10.212  0.0032 -0.1243 -2.4554
  262MOL0     H35356   5.326   6.994   9.878 -0.0903  0.3827  1.3828
  262MOL0     H35357   5.121   6.986   9.768 -0.0283 -0.0504 -1.8625
  262MOL0     H35358   4.743   6.750   9.783  1.1563  0.9891  0.2291
  262MOL0     H35359   4.832   6.667   9.908  0.0536  1.3064  0.3563
  262MOL0     H35360   4.799   6.491   9.765  2.4249 -1.5756  0.7759
  262MOL0     H35361   4.956   6.538   9.708  0.2321 -2.3556  0.9524
  262MOL0     H35362   4.871   6.676   9.531  2.3177 -1.6864  0.6131
  262MOL0     H35363   4.701   6.641   9.571  1.1723  1.5633 -1.4220
  262MOL0     H35364   4.921   6.435   9.484 -0.4455 -0.1778 -1.3457
  262MOL0     H35365   4.755   6.388   9.493  2.8044 -1.3432  3.1146
  262MOL0     H35366   4.848   6.576   9.111  3.2561  1.9882  1.4518
  262MOL0     H35367   5.038   6.597   9.946  2.0518  0.0135  1.2708
  262MOL0     H35368   5.327   6.520  10.065 -1.4508 -1.4258 -1.6481
  262MOL0     H35369   5.255   6.623  10.201  0.4173 -0.2204 -0.7842
  262MOL0     H35370   5.157   6.521  10.102  0.4887 -0.9470 -0.9088
  263MOL0     O35371   3.563   8.386  10.671  0.0480 -0.0773  0.5441
  263MOL0     C35372   3.473   8.395  10.590 -0.5511  0.4284 -0.0456
  263MOL0     O35373   3.492   8.403  10.456  0.1700 -0.5363  0.2535
  263MOL0     C35374   3.619   8.393  10.401  0.6596 -0.2531 -0.2591
  263MOL0     C35375   3.732   8.466  10.448 -0.2011  0.7022  0.7548
  263MOL0     C35376   3.865   8.441  10.386  0.2335 -0.0612 -0.1280
  263MOL0     C35377   3.866   8.354  10.275 -0.0027  0.5088  0.0768
  263MOL0     O35378   3.986   8.306  10.221 -0.7170 -0.4577 -0.1760
  263MOL0     C35379   4.102   8.370  10.273 -0.3446 -0.1995 -0.2581
  263MOL0     C35380   4.222   8.293  10.212 -0.2247  0.0223  0.4345
  263MOL0     C35381   4.218   8.313  10.057 -0.1456  0.0442  0.0977
  263MOL0     C35382   4.286   8.439   9.996 -0.1051  0.2843 -0.2135
  263MOL0     C35383   4.278   8.444   9.836  0.4096  0.3975  0.2624
  263MOL0     C35384   4.367   8.556   9.792 -0.2260 -0.2706 -0.4574
  263MOL0     C35385   4.368   8.580   9.638 -0.5737  0.6991 -0.1961
  263MOL0     C35386   4.440   8.709   9.593 -0.7950 -0.8240 -0.0909
  263MOL0     N35387   4.439   8.735   9.442 -0.1466 -0.5056  0.3722
  263MOL0     C35388   4.536   8.689   9.347  0.1757 -0.3705 -0.2355
  263MOL0     C35389   4.503   8.742   9.229  0.3586 -0.1656 -1.1566
  263MOL0     C35390   4.574   8.753   9.107 -0.2630  0.8353 -0.3490
  263MOL0     C35391   4.611   8.616   9.057  0.3023  0.6734  0.3631
  263MOL0     C35392   4.500   8.515   9.021 -0.0495  0.5734  0.1409
  263MOL0     C35393   4.544   8.389   8.942  0.0006 -0.2215  0.7218
  263MOL0     O35394   4.678   8.332   8.973  0.4782  0.0214 -0.8425
  263MOL0     C35395   4.785   8.338   8.889 -0.1020  0.4925  0.3201
  263MOL0     C35396   4.781   8.367   8.745  0.6853  0.5565  0.0152
  263MOL0     C35397   4.895   8.354   8.670  0.2874 -0.5911  0.1331
  263MOL0     C35398   5.020   8.318   8.722  0.2680 -0.1687  0.8689
  263MOL0     C35399   5.142   8.299   8.637  0.3931 -0.8177  0.8239
  263MOL0     O35400   5.138   8.380   8.522  0.3207  0.1493  0.2635
  263MOL0     C35401   5.240   8.370   8.432 -0.1523 -1.2351 -0.0526
  263MOL0     C35402   5.322   8.483   8.409 -0.5440  0.1619  0.1464
  263MOL0     C35403   5.436   8.474   8.327 -0.1538 -0.0586 -0.0056
  263MOL0     C35404   5.468   8.361   8.260 -0.1018  1.3336  1.1982
  263MOL0     O35405   5.580   8.352   8.177  0.3773  0.6667 -0.1592
  263MOL0     C35406   5.703   8.394   8.239 -0.3767 -0.2589  0.2358
  263MOL0     C35407   5.753   8.527   8.182  0.4225  0.3033 -0.2256
  263MOL0     C35408   5.903   8.564   8.192 -0.3834  0.0277  1.1374
  263MOL0     C35409   5.958   8.644   8.066 -0.4900 -0.4398  0.3460
  263MOL0     C35410   6.111   8.623   8.062 -0.1728 -0.0257 -0.7543
  263MOL0     C35411   6.169   8.712   7.959  0.5561 -0.0902 -1.0523
  263MOL0     C35412   6.321   8.687   7.943  0.1349  0.8368 -0.0500
  263MOL0     C35413   6.369   8.763   7.815 -0.3862 -0.8678  0.9142
  263MOL0    Cl35414   6.403   8.935   7.853 -0.0947 -0.2611  0.5943
  263MOL0     C35415   5.369   8.259   8.245  0.1793 -0.9445 -0.1866
  263MOL0     C35416   5.259   8.260   8.340 -0.7741 -0.5299  1.5549
  263MOL0     O35417   5.227   8.224   8.669 -0.2766 -0.0905  0.0604
  263MOL0     C35418   5.025   8.292   8.860 -0.4847  0.1687  0.3854
  263MOL0     C35419   4.912   8.301   8.940  0.2444 -0.2859  0.0714
  263MOL0     N35420   4.392   8.817   9.257  0.4112  0.1853  0.3610
  263MOL0     N35421   4.352   8.818   9.378  0.3141 -0.1455 -0.1698
  263MOL0     C35422   3.757   8.284  10.230  0.5781 -0.8045 -0.1378
  263MOL0     C35423   3.632   8.303  10.289  0.2211 -0.9608  0.0095
  263MOL0     C35424   3.345   8.376  10.637  0.7893 -0.1372 -0.1660
  263MOL0     C35425   3.317   8.415  10.767  0.2037 -0.8249 -0.6433
  263MOL0     C35426   3.199   8.387  10.828  0.8341  0.8256 -0.8535
  263MOL0     C35427   3.093   8.319  10.765 -0.3209  1.0174 -0.0548
  263MOL0     O35428   2.979   8.278  10.818  0.3796  0.5165  0.3696
  263MOL0     C35429   2.943   8.316  10.952  0.1464 -0.8416  0.4379
  263MOL0     C35430   2.898   8.465  10.969 -0.5721  0.9295  0.2436
  263MOL0     C35431   2.777   8.490  10.888  0.3459 -0.3846  0.1823
  263MOL0     C35432   2.682   8.369  10.868  0.1188 -0.0933  0.1894
  263MOL0     C35433   2.561   8.428  10.809 -0.1922 -1.0541  0.3187
  263MOL0     C35434   2.460   8.476  10.767  0.1267  0.1285  0.1781
  263MOL0     C35435   3.111   8.281  10.639 -1.0412 -0.2129  0.3951
  263MOL0     C35436   3.234   8.302  10.576  0.0092  0.4872 -0.4757
  263MOL0     C35437   3.249   8.235  10.438  0.7799  0.0025 -0.4746
  263MOL0     H35438   3.718   8.531  10.534 -0.7284  2.1703 -0.4086
  263MOL0     H35439   3.950   8.494  10.428  0.0826 -1.1051  1.5883
  263MOL0     H35440   4.101   8.475  10.243  1.9425  1.2593  3.9273
  263MOL0     H35441   4.121   8.370  10.380 -0.6454 -0.7407 -0.1998
  263MOL0     H35442   4.204   8.189  10.239  0.6503 -0.6781 -1.5285
  263MOL0     H35443   4.314   8.326  10.261 -0.3144 -0.2449  0.7853
  263MOL0     H35444   4.113   8.314  10.025 -0.1573  0.9109  0.1258
  263MOL0     H35445   4.265   8.228  10.006 -0.1149 -0.0489  0.2819
  263MOL0     H35446   4.243   8.535  10.027  0.6072  0.7222 -0.5548
  263MOL0     H35447   4.390   8.454  10.025 -0.2597  0.5187  0.2208
  263MOL0     H35448   4.306   8.350   9.787 -1.5369 -0.4127  0.6346
  263MOL0     H35449   4.178   8.471   9.802  0.3370 -0.6232 -0.3731
  263MOL0     H35450   4.349   8.651   9.844  0.7192 -0.9485  1.1786
  263MOL0     H35451   4.465   8.528   9.831 -0.3235 -1.3598 -0.9721
  263MOL0     H35452   4.265   8.588   9.601 -0.5227  0.5363 -0.3738
  263MOL0     H35453   4.409   8.487   9.598 -1.8521 -0.6310  1.4508
  263MOL0     H35454   4.399   8.802   9.634  0.6041 -0.4002  0.3894
  263MOL0     H35455   4.543   8.710   9.628 -1.0352  0.2693  0.6409
  263MOL0     H35456   4.622   8.626   9.368  0.2484 -0.8556 -1.8577
  263MOL0     H35457   4.529   8.806   9.023  0.8689 -0.1752 -1.6366
  263MOL0     H35458   4.672   8.795   9.134  0.2724  0.7816 -2.0912
  263MOL0     H35459   4.657   8.637   8.960  0.6789 -0.4472  0.2787
  263MOL0     H35460   4.683   8.562   9.120 -1.0499 -2.5435 -0.6473
  263MOL0     H35461   4.417   8.565   8.970  1.3641  2.0051 -0.8630
  263MOL0     H35462   4.460   8.469   9.112  0.4740  1.7053  0.9711
  263MOL0     H35463   4.523   8.403   8.836 -0.9495 -1.3215  0.7407
  263MOL0     H35464   4.472   8.309   8.964 -0.6081  0.5066  1.4646
  263MOL0     H35465   4.687   8.388   8.695 -1.7550 -1.5835  3.2722
  263MOL0     H35466   4.894   8.387   8.567 -1.4491 -0.5843  0.1296
  263MOL0     H35467   5.299   8.563   8.479 -1.9253 -0.0824 -0.0050
  263MOL0     H35468   5.510   8.553   8.314  0.7573 -1.1492 -1.8276
  263MOL0     H35469   5.692   8.395   8.348 -1.5807  1.4469  0.1404
  263MOL0     H35470   5.779   8.318   8.218 -0.4210 -0.2241 -0.0567
  263MOL0     H35471   5.739   8.517   8.073  1.6067 -1.1248 -0.2735
  263MOL0     H35472   5.690   8.608   8.219 -0.8039  0.5015 -2.5481
  263MOL0     H35473   5.923   8.620   8.284  1.1708  1.0584  0.2171
  263MOL0     H35474   5.961   8.471   8.196 -1.2710 -0.4886  2.8425
  263MOL0     H35475   5.929   8.749   8.063 -0.8293 -0.5545 -1.7549
  263MOL0     H35476   5.923   8.611   7.967 -0.3808  1.7164 -0.4661
  263MOL0     H35477   6.135   8.519   8.038 -1.8325 -0.2114 -1.7748
  263MOL0     H35478   6.161   8.632   8.159 -1.0744 -1.2270 -0.1590
  263MOL0     H35479   6.122   8.687   7.863  2.1059  0.2492 -1.9440
  263MOL0     H35480   6.155   8.818   7.982 -1.8582  0.0276 -2.6921
  263MOL0     H35481   6.348   8.581   7.931 -1.7963 -0.1213  2.9544
  263MOL0     H35482   6.378   8.719   8.030  0.9397 -1.8540  0.5176
  263MOL0     H35483   6.462   8.717   7.783  0.5344  1.6541 -0.3086
  263MOL0     H35484   6.297   8.750   7.733 -0.4913  0.1291  0.8323
  263MOL0     H35485   5.386   8.166   8.191 -1.8493 -1.7309  0.4471
  263MOL0     H35486   5.196   8.172   8.340 -0.9009 -0.4395  1.7576
  263MOL0     H35487   5.116   8.252   8.903  0.0816  0.3341 -0.6408
  263MOL0     H35488   4.905   8.270   9.044 -3.0036  1.7852  0.6124
  263MOL0     H35489   3.772   8.211  10.152 -0.6234  0.4008 -1.5505
  263MOL0     H35490   3.543   8.255  10.250  0.0028 -1.3251  0.9290
  263MOL0     H35491   3.396   8.463  10.824 -2.1139 -0.4799  2.5321
  263MOL0     H35492   3.184   8.426  10.928  1.3323  0.1565 -0.5073
  263MOL0     H35493   3.031   8.298  11.015  0.0308 -1.8800  0.3172
  263MOL0     H35494   2.865   8.245  10.981 -0.0075 -1.0060 -0.3479
  263MOL0     H35495   2.975   8.521  10.916 -2.9972  0.3808 -4.3988
  263MOL0     H35496   2.877   8.496  11.071  0.4734  3.5862 -0.2761
  263MOL0     H35497   2.816   8.516  10.789 -0.3537  0.0775  0.0232
  263MOL0     H35498   2.726   8.579  10.927 -0.1464 -0.4277 -0.3444
  263MOL0     H35499   2.723   8.291  10.803  0.4232  0.7071 -0.6112
  263MOL0     H35500   2.660   8.326  10.966  1.4168 -1.9052 -0.2531
  263MOL0     H35501   2.375   8.532  10.735 -0.8145 -1.1119  0.4095
  263MOL0     H35502   3.033   8.231  10.583 -0.2654 -0.9625 -0.0422
  263MOL0     H35503   3.162   8.185  10.396  1.3871 -0.7643 -0.8446
  263MOL0     H35504   3.272   8.309  10.360 -0.9405  1.9102  0.7373
  263MOL0     H35505   3.325   8.157  10.432 -1.5133 -2.2691 -2.8805
  264MOL0     O35506   4.915   3.811   7.707  0.0169  0.2780 -0.0313
  264MOL0     C35507   4.946   3.741   7.807 -0.4524  0.0087  0.7744
  264MOL0     O35508   5.066   3.673   7.827  0.7383  0.0189 -0.2072
  264MOL0     C35509   5.165   3.688   7.731 -0.0480  0.4755 -0.1193
  264MOL0     C35510   5.235   3.568   7.697  0.8708 -0.2181 -0.0207
  264MOL0     C35511   5.341   3.578   7.609 -0.0175  0.3784 -0.0826
  264MOL0     C35512   5.394   3.702   7.564  0.3247  0.2439  0.6730
  264MOL0     O35513   5.502   3.725   7.477 -0.2929  0.3328 -0.4640
  264MOL0     C35514   5.546   3.607   7.410  0.4447  0.1346  0.3461
  264MOL0     C35515   5.674   3.647   7.343  0.1044  0.5247 -0.3006
  264MOL0     C35516   5.797   3.642   7.440  0.2939  0.3034  0.1966
  264MOL0     C35517   5.925   3.657   7.351  0.4278  0.2131  0.0407
  264MOL0     C35518   6.056   3.664   7.422 -0.2799  0.1096  0.4441
  264MOL0     C35519   6.171   3.641   7.315 -1.2856 -0.4142  0.8258
  264MOL0     C35520   6.301   3.713   7.358 -0.3480  0.3513 -0.6899
  264MOL0     C35521   6.415   3.636   7.286 -0.0168  0.2609  0.6567
  264MOL0     N35522   6.547   3.707   7.299 -0.1184 -0.8424  0.3850
  264MOL0     C35523   6.573   3.845   7.274 -0.1315  0.4625 -0.3545
  264MOL0     C35524   6.701   3.852   7.310  0.5708 -0.3004 -0.4493
  264MOL0     C35525   6.784   3.977   7.338 -0.1364 -0.1192 -0.2872
  264MOL0     C35526   6.925   3.989   7.270  0.0714  0.0411  0.0880
  264MOL0     C35527   6.916   3.969   7.122 -0.1637 -0.2093 -0.2042
  264MOL0     C35528   7.028   4.013   7.020  0.2697 -0.8422  0.2467
  264MOL0     O35529   7.143   3.937   7.030  0.5556  0.0842 -0.2098
  264MOL0     C35530   7.255   3.985   6.973 -0.6930 -0.1747  0.2707
  264MOL0     C35531   7.328   3.908   6.885 -0.1941 -0.3101  0.4419
  264MOL0     C35532   7.443   3.959   6.824  0.0721 -1.2886  0.8576
  264MOL0     C35533   7.489   4.096   6.852 -0.1364  0.4815 -0.0701
  264MOL0     C35534   7.610   4.151   6.788 -0.1206 -0.2025 -0.1995
  264MOL0     O35535   7.665   4.064   6.707 -0.4526  0.2755  0.2737
  264MOL0     C35536   7.782   4.091   6.643  0.3658  0.4145 -0.2150
  264MOL0     C35537   7.864   3.983   6.600  0.3341 -1.0321 -0.4166
  264MOL0     C35538   7.986   4.007   6.536 -0.3170  0.8140 -0.0714
  264MOL0     C35539   8.016   4.144   6.498 -0.1666  0.1178 -0.6389
  264MOL0     O35540   8.131   4.160   6.437 -0.6156 -0.9062 -0.5420
  264MOL0     C35541   8.192   4.285   6.417 -1.5455  0.3076 -0.5903
  264MOL0     C35542   8.330   4.271   6.360 -0.7626 -0.3754  0.5787
  264MOL0     C35543   8.325   4.182   6.236  0.8412  0.1684 -0.5054
  264MOL0     C35544   8.468   4.188   6.176  0.4011 -0.3988  0.0645
  264MOL0     C35545   8.469   4.113   6.047  0.7072  0.1244  1.3559
  264MOL0     C35546   8.610   4.108   5.989 -0.8286 -0.3927 -0.8121
  264MOL0     C35547   8.625   3.995   5.886 -0.4018  0.3752  0.0718
  264MOL0     C35548   8.752   3.908   5.908 -0.1720 -0.4066  1.0062
  264MOL0    Cl35549   8.719   3.792   6.047 -0.2745  0.3195 -0.1772
  264MOL0     C35550   7.925   4.247   6.531 -1.0858  0.6845  0.5866
  264MOL0     C35551   7.809   4.215   6.595 -0.8189 -0.3684 -0.7405
  264MOL0     O35552   7.660   4.253   6.844 -0.5199  0.0847  0.1443
  264MOL0     C35553   7.423   4.164   6.955 -0.0005  0.0356  0.8776
  264MOL0     C35554   7.302   4.111   7.000 -0.1771  0.2502  0.6764
  264MOL0     N35555   6.755   3.729   7.331  0.2649  0.8019  0.2670
  264MOL0     N35556   6.663   3.635   7.316 -0.2175 -0.7321  1.2973
  264MOL0     C35557   5.329   3.823   7.613  0.2640  0.6521  0.0518
  264MOL0     C35558   5.216   3.810   7.692  0.9332 -0.3090  0.0121
  264MOL0     C35559   4.842   3.749   7.913 -0.7292  0.7536  0.3283
  264MOL0     C35560   4.879   3.732   8.048  0.4100  0.0166 -0.3351
  264MOL0     C35561   4.794   3.756   8.161 -0.5057  0.8099  0.6232
  264MOL0     C35562   4.660   3.771   8.131  0.3799  0.4901  0.0444
  264MOL0     O35563   4.572   3.780   8.230 -0.1615 -0.4040 -0.0276
  264MOL0     C35564   4.607   3.756   8.359  0.0329  0.6656  0.7874
  264MOL0     C35565   4.483   3.776   8.445  1.2464 -0.3160  0.7412
  264MOL0     C35566   4.361   3.689   8.420  0.4911  0.1988 -0.3619
  264MOL0     C35567   4.383   3.531   8.419  0.8500 -0.6184 -0.2484
  264MOL0     C35568   4.252   3.465   8.402 -0.3649 -0.6142 -0.5013
  264MOL0     C35569   4.144   3.420   8.385  0.8754 -0.2105 -0.5147
  264MOL0     C35570   4.615   3.784   7.996  0.1884 -0.3775  0.0475
  264MOL0     C35571   4.700   3.782   7.888 -0.3411  0.2536 -1.0025
  264MOL0     C35572   4.633   3.805   7.756 -0.6393  0.1290 -0.1859
  264MOL0     H35573   5.196   3.474   7.735  0.2226 -0.4133 -1.1407
  264MOL0     H35574   5.389   3.482   7.594  0.7696  0.9118 -1.1082
  264MOL0     H35575   5.567   3.523   7.476  2.3138  0.5303  0.3121
  264MOL0     H35576   5.462   3.578   7.345 -0.1862 -0.2968  1.3322
  264MOL0     H35577   5.673   3.747   7.299  1.8298  0.4763 -0.5153
  264MOL0     H35578   5.700   3.574   7.267  0.8411  0.6429 -0.1706
  264MOL0     H35579   5.798   3.542   7.485 -0.4179  1.2448  2.4549
  264MOL0     H35580   5.794   3.712   7.524 -0.3123  1.2502 -0.5933
  264MOL0     H35581   5.931   3.574   7.280  0.0204  1.2252 -1.2163
  264MOL0     H35582   5.908   3.744   7.288  0.0779 -1.4189 -2.2164
  264MOL0     H35583   6.054   3.764   7.467  0.0960  0.1793  0.3168
  264MOL0     H35584   6.065   3.584   7.496 -2.1765 -6.3931 -5.2693
  264MOL0     H35585   6.194   3.534   7.312  0.8500 -0.0007  1.0461
  264MOL0     H35586   6.135   3.674   7.217  2.4149 -0.6263 -0.7750
  264MOL0     H35587   6.318   3.704   7.466 -1.2340  2.4552 -0.3312
  264MOL0     H35588   6.298   3.818   7.326 -0.3996  0.0305 -1.8002
  264MOL0     H35589   6.424   3.532   7.319  0.1545  0.6491  1.8943
  264MOL0     H35590   6.381   3.633   7.182 -0.7663 -1.8240  0.9144
  264MOL0     H35591   6.499   3.925   7.269  0.8564  1.8584  3.5156
  264MOL0     H35592   6.723   4.059   7.298 -0.3531  0.6676  1.5518
  264MOL0     H35593   6.786   3.991   7.446  0.6959 -1.5502 -0.1075
  264MOL0     H35594   6.968   4.087   7.292  2.1606 -0.5190 -1.1855
  264MOL0     H35595   6.997   3.914   7.306 -0.4341 -0.7998 -0.6033
  264MOL0     H35596   6.823   4.018   7.091 -1.3814  0.3708  3.8424
  264MOL0     H35597   6.900   3.863   7.102  0.0036 -0.5062  1.1222
  264MOL0     H35598   7.059   4.117   7.034 -1.1048 -0.1408 -1.5539
  264MOL0     H35599   7.001   3.999   6.915  2.2477 -0.1579 -0.4011
  264MOL0     H35600   7.300   3.811   6.846  4.9716 -1.8559 -0.2436
  264MOL0     H35601   7.492   3.897   6.751 -0.3766 -2.0729  1.2111
  264MOL0     H35602   7.831   3.886   6.638 -3.6173  0.9638  1.9750
  264MOL0     H35603   8.053   3.923   6.520 -2.0773 -0.4129 -1.2620
  264MOL0     H35604   8.134   4.341   6.343  1.6543  2.8162 -1.3947
  264MOL0     H35605   8.201   4.348   6.506  0.0633 -0.6561 -0.0264
  264MOL0     H35606   8.357   4.373   6.329 -0.0611 -0.3898  1.1164
  264MOL0     H35607   8.400   4.239   6.437  1.9753  3.6076  0.0501
  264MOL0     H35608   8.289   4.081   6.255  0.6203  0.0091 -1.6837
  264MOL0     H35609   8.254   4.224   6.164  2.0032 -0.1345 -1.8730
  264MOL0     H35610   8.536   4.133   6.242  4.2528  3.4025 -0.2168
  264MOL0     H35611   8.519   4.285   6.184  0.4290 -0.5959  3.9495
  264MOL0     H35612   8.415   4.177   5.977  1.9201 -1.1389 -0.8499
  264MOL0     H35613   8.420   4.014   6.049  0.6101 -0.0767 -2.7894
  264MOL0     H35614   8.630   4.209   5.954  0.8961 -0.9384 -1.5086
  264MOL0     H35615   8.678   4.091   6.074  0.1519  2.7374 -0.8660
  264MOL0     H35616   8.619   4.029   5.782  0.7435  3.2759  0.8549
  264MOL0     H35617   8.542   3.923   5.890  1.1338 -1.4333  1.8717
  264MOL0     H35618   8.762   3.847   5.817 -3.9102  3.4153 -2.4151
  264MOL0     H35619   8.847   3.959   5.926  0.9764 -1.9581 -0.2630
  264MOL0     H35620   7.953   4.345   6.494  0.2832 -0.2194 -0.9303
  264MOL0     H35621   7.754   4.305   6.620  0.0398 -0.1170  0.3103
  264MOL0     H35622   7.448   4.262   6.995  1.3489  0.3849 -0.7080
  264MOL0     H35623   7.243   4.175   7.065 -2.4623 -3.3418  2.4578
  264MOL0     H35624   5.371   3.922   7.596 -0.6408  0.6858 -2.3031
  264MOL0     H35625   5.172   3.899   7.735  0.9887  0.0483 -0.6597
  264MOL0     H35626   4.982   3.711   8.077 -0.1698 -0.7739  1.2475
  264MOL0     H35627   4.830   3.741   8.262 -0.7431  2.3662  0.9647
  264MOL0     H35628   4.680   3.829   8.394  0.2584  0.4949  0.6806
  264MOL0     H35629   4.642   3.653   8.376 -2.4683 -0.1090  1.6640
  264MOL0     H35630   4.450   3.880   8.440  3.7275  0.5667  1.2610
  264MOL0     H35631   4.514   3.751   8.548  1.4792 -1.3761  0.4297
  264MOL0     H35632   4.306   3.721   8.331 -1.4602  4.2384  2.0271
  264MOL0     H35633   4.295   3.712   8.504  0.9442 -1.4936  0.5091
  264MOL0     H35634   4.447   3.493   8.338  0.3393  0.2176 -1.0684
  264MOL0     H35635   4.424   3.506   8.517  1.4863  1.6185  0.1070
  264MOL0     H35636   4.046   3.384   8.359  1.1475 -0.2213 -1.5856
  264MOL0     H35637   4.509   3.798   7.978  0.3686  1.4336  0.1510
  264MOL0     H35638   4.647   3.908   7.720 -0.3580  1.2304  2.8512
  264MOL0     H35639   4.671   3.742   7.674  1.9922  0.9978  0.2618
  264MOL0     H35640   4.526   3.795   7.774 -0.8300  0.8331 -0.8598
  265MOL0     O35641   6.531   2.480   4.556  0.7639 -0.5147  0.0247
  265MOL0     C35642   6.507   2.429   4.449  0.7438 -0.5743  0.7237
  265MOL0     O35643   6.604   2.365   4.369 -0.0217  0.0934  0.1328
  265MOL0     C35644   6.746   2.368   4.374 -0.3325  0.0221 -0.4614
  265MOL0     C35645   6.805   2.290   4.278 -0.5613  0.4448 -0.0246
  265MOL0     C35646   6.946   2.276   4.273 -0.7084  0.2201 -0.0229
  265MOL0     C35647   7.031   2.367   4.344  0.7569  0.2889 -0.8511
  265MOL0     O35648   7.173   2.376   4.346 -0.6062  0.3579  0.3178
  265MOL0     C35649   7.239   2.257   4.298  0.1817 -0.3600  1.0342
  265MOL0     C35650   7.377   2.296   4.257 -0.1714  0.3718 -0.1864
  265MOL0     C35651   7.447   2.175   4.178  0.6772 -0.1189  0.4059
  265MOL0     C35652   7.583   2.208   4.119 -0.2942 -0.8818  0.2404
  265MOL0     C35653   7.611   2.116   4.002 -0.3116 -0.7182  0.2406
  265MOL0     C35654   7.609   1.969   4.052 -0.0960 -0.2733 -0.1181
  265MOL0     C35655   7.623   1.876   3.938  0.0964 -0.2305  0.8251
  265MOL0     C35656   7.761   1.866   3.869 -0.6500  0.6757 -0.0596
  265MOL0     N35657   7.864   1.816   3.969  0.2547  0.0860 -0.1769
  265MOL0     C35658   7.936   1.890   4.062  0.4340 -0.0657  0.8239
  265MOL0     C35659   7.994   1.799   4.145 -0.7837 -0.5231  0.8252
  265MOL0     C35660   8.060   1.826   4.281 -1.4078  0.6694  0.2366
  265MOL0     C35661   8.198   1.894   4.253 -0.5785 -0.0336 -0.1663
  265MOL0     C35662   8.278   1.935   4.382 -0.0382 -0.3880 -0.3744
  265MOL0     C35663   8.419   1.970   4.348 -0.4270 -0.5288  0.8464
  265MOL0     O35664   8.478   1.993   4.468  0.5611 -0.5157  0.0128
  265MOL0     C35665   8.616   2.002   4.478  0.4508  0.2580 -0.0803
  265MOL0     C35666   8.704   2.010   4.379  0.0547 -0.9913 -0.2885
  265MOL0     C35667   8.841   2.012   4.410 -0.5084  0.4909 -0.0233
  265MOL0     C35668   8.894   2.011   4.548  0.3462 -0.5590 -0.0312
  265MOL0     C35669   9.040   2.015   4.582 -0.5275 -0.4535 -0.6671
  265MOL0     O35670   9.127   1.971   4.484 -0.3564 -0.9242  0.1798
  265MOL0     C35671   9.265   1.976   4.485 -0.1782 -0.2585 -0.2264
  265MOL0     C35672   9.321   2.097   4.516 -0.0984 -0.8143 -0.0699
  265MOL0     C35673   9.461   2.117   4.505 -0.2023  0.6047 -0.6834
  265MOL0     C35674   9.552   2.013   4.472  0.6811  0.5967 -0.4425
  265MOL0     O35675   9.687   2.039   4.469 -0.5803  0.2721  0.1456
  265MOL0     C35676   9.779   1.931   4.438  0.5636  0.2033  0.2385
  265MOL0     C35677   9.915   1.982   4.481 -1.1199 -0.2008 -0.4397
  265MOL0     C35678  10.023   1.881   4.451  0.0962 -0.0144 -0.1123
  265MOL0     C35679  10.162   1.913   4.510  0.0181 -0.3721 -0.2610
  265MOL0     C35680  10.269   1.810   4.455 -0.2977  0.5541 -0.2784
  265MOL0     C35681  10.409   1.845   4.509  0.2021 -0.3287 -0.2103
  265MOL0     C35682  10.534   1.761   4.453  0.1486 -0.0784  0.6922
  265MOL0     C35683  10.662   1.843   4.450 -1.4227 -0.6845  0.6605
  265MOL0    Cl35684  10.709   1.937   4.603 -0.0213 -0.3055 -0.1631
  265MOL0     C35685   9.484   1.887   4.447 -0.5162 -0.2138 -0.5596
  265MOL0     C35686   9.344   1.870   4.442  0.5811 -0.3366 -0.1409
  265MOL0     O35687   9.063   2.045   4.699  0.7327 -0.4475 -0.3133
  265MOL0     C35688   8.793   2.012   4.649 -0.2670  0.7860  0.7839
  265MOL0     C35689   8.658   2.008   4.619  0.1472  1.1085 -0.0778
  265MOL0     N35690   7.953   1.672   4.099  0.3614  0.2917  0.1144
  265MOL0     N35691   7.876   1.680   3.990 -0.1163 -0.4746 -0.2052
  265MOL0     C35692   6.967   2.454   4.438  1.2352  0.8820  0.2870
  265MOL0     C35693   6.827   2.456   4.452  0.4442  0.2883 -0.3383
  265MOL0     C35694   6.365   2.409   4.414 -0.1274 -0.7072  0.0948
  265MOL0     C35695   6.325   2.298   4.345 -0.0828  0.2357  0.1484
  265MOL0     C35696   6.192   2.276   4.313 -0.4548 -0.4299 -0.5740
  265MOL0     C35697   6.092   2.362   4.341 -0.8634 -0.5235  0.3607
  265MOL0     O35698   5.966   2.337   4.297 -0.4575 -0.0390 -0.7975
  265MOL0     C35699   5.862   2.377   4.382 -0.4294 -0.4897 -0.9681
  265MOL0     C35700   5.729   2.334   4.303 -0.5496 -0.1473  0.7394
  265MOL0     C35701   5.611   2.393   4.363 -0.2881 -0.2278 -0.4960
  265MOL0     C35702   5.486   2.396   4.271  0.7793 -0.2358  0.0319
  265MOL0     C35703   5.472   2.509   4.190  0.1578 -0.2647  0.2866
  265MOL0     C35704   5.464   2.609   4.124  0.7458 -0.6371  0.3302
  265MOL0     C35705   6.133   2.485   4.393 -0.0130 -0.2159 -1.1083
  265MOL0     C35706   6.266   2.510   4.438 -0.1360  0.0137 -0.3653
  265MOL0     C35707   6.315   2.656   4.463  0.4727  0.0586  0.4091
  265MOL0     H35708   6.750   2.241   4.199 -0.2867 -0.3758  0.2835
  265MOL0     H35709   6.985   2.214   4.193 -2.3940 -1.8118  0.6485
  265MOL0     H35710   7.248   2.178   4.372  0.6274 -0.2637  1.0879
  265MOL0     H35711   7.188   2.223   4.207  1.7926 -0.4313  0.1074
  265MOL0     H35712   7.437   2.330   4.342  1.0182 -1.8799 -0.0542
  265MOL0     H35713   7.385   2.384   4.192  2.1699  1.3406  1.2849
  265MOL0     H35714   7.382   2.153   4.094  0.3513 -0.1608  0.6672
  265MOL0     H35715   7.442   2.093   4.250 -0.0739  1.1353  1.8430
  265MOL0     H35716   7.590   2.311   4.083  1.0263 -0.8112  0.6508
  265MOL0     H35717   7.658   2.206   4.198  1.2288  0.7694 -1.0738
  265MOL0     H35718   7.539   2.136   3.922 -0.5893 -1.2958  0.3338
  265MOL0     H35719   7.714   2.134   3.970  0.2083  0.3033  2.2947
  265MOL0     H35720   7.690   1.948   4.123  0.8864  1.3956 -0.6759
  265MOL0     H35721   7.508   1.953   4.089 -0.4949  0.7012 -0.7386
  265MOL0     H35722   7.549   1.894   3.859  1.2059 -1.4987 -0.5656
  265MOL0     H35723   7.592   1.780   3.980 -0.5184 -0.7539 -0.7625
  265MOL0     H35724   7.748   1.795   3.786  0.8435 -2.2929  2.0527
  265MOL0     H35725   7.790   1.964   3.831  0.2610  0.1350 -0.8248
  265MOL0     H35726   7.940   1.998   4.076  0.2813 -0.3515  3.8252
  265MOL0     H35727   7.988   1.874   4.347 -4.5342 -1.6598 -1.2484
  265MOL0     H35728   8.084   1.734   4.336 -2.5702  1.1837  1.6506
  265MOL0     H35729   8.259   1.834   4.185  1.0280  0.5701  0.6863
  265MOL0     H35730   8.182   1.990   4.204  1.6679 -0.3810 -1.7231
  265MOL0     H35731   8.278   1.856   4.457 -0.3777 -0.3589 -0.3455
  265MOL0     H35732   8.225   2.017   4.432  0.8423 -1.1254  1.9011
  265MOL0     H35733   8.422   2.056   4.281  2.0609 -1.5596 -0.5062
  265MOL0     H35734   8.462   1.891   4.286 -1.1140  1.5112 -2.4344
  265MOL0     H35735   8.670   1.998   4.277 -1.0933 -1.2143  0.1010
  265MOL0     H35736   8.907   2.024   4.325 -0.0543 -0.1313  0.2356
  265MOL0     H35737   9.260   2.181   4.549  1.6791 -0.4036  2.3632
  265MOL0     H35738   9.509   2.209   4.539 -1.3662  2.1589 -2.9065
  265MOL0     H35739   9.753   1.847   4.503 -0.8513 -1.5543 -2.4353
  265MOL0     H35740   9.776   1.899   4.333 -0.4449 -0.0054  0.3203
  265MOL0     H35741   9.928   2.084   4.443  3.5419  0.1268  1.3883
  265MOL0     H35742   9.905   1.994   4.589 -2.7146 -0.6659 -0.5069
  265MOL0     H35743   9.992   1.786   4.497  1.5266 -0.7783 -0.6625
  265MOL0     H35744  10.035   1.867   4.343 -0.7625 -0.4132 -0.1700
  265MOL0     H35745  10.165   1.910   4.620  0.8828  0.3759 -0.2540
  265MOL0     H35746  10.187   2.018   4.491 -2.8800  0.5702  0.6801
  265MOL0     H35747  10.273   1.814   4.346  3.1663  0.3167 -0.2798
  265MOL0     H35748  10.236   1.707   4.474  0.8592 -0.2452 -2.2119
  265MOL0     H35749  10.425   1.949   4.479  1.2480 -0.7825 -1.3159
  265MOL0     H35750  10.406   1.847   4.619 -1.1648  0.6443 -0.2279
  265MOL0     H35751  10.508   1.720   4.355  0.6290  2.3456 -0.5305
  265MOL0     H35752  10.538   1.685   4.530 -1.3542  0.3976  1.2646
  265MOL0     H35753  10.751   1.784   4.430 -0.1349  1.5501 -0.5615
  265MOL0     H35754  10.658   1.915   4.369 -1.9050 -0.6433  0.7153
  265MOL0     H35755   9.543   1.798   4.427 -0.2321 -0.8122  2.5066
  265MOL0     H35756   9.303   1.772   4.417 -2.1228  0.1129  1.9896
  265MOL0     H35757   8.830   2.016   4.751  0.1964  1.8738  0.5917
  265MOL0     H35758   8.577   1.996   4.690  1.4805  1.0703  1.4972
  265MOL0     H35759   7.022   2.514   4.510  1.5652  0.7010  0.1892
  265MOL0     H35760   6.785   2.526   4.522 -0.9037 -0.8243  0.0298
  265MOL0     H35761   6.411   2.233   4.335  0.6002  1.2794 -0.8732
  265MOL0     H35762   6.159   2.182   4.271 -1.5626  0.1683 -1.0832
  265MOL0     H35763   5.874   2.484   4.400  0.0051 -0.9820  2.3224
  265MOL0     H35764   5.862   2.329   4.481 -1.5909  4.1643  1.5883
  265MOL0     H35765   5.726   2.225   4.310  0.8031 -0.3054 -0.7597
  265MOL0     H35766   5.728   2.361   4.197  0.7167 -2.3216  0.1072
  265MOL0     H35767   5.632   2.490   4.409 -0.0004 -0.3314 -0.4103
  265MOL0     H35768   5.585   2.328   4.447 -1.3022  0.5400 -0.1915
  265MOL0     H35769   5.491   2.313   4.200 -2.8090 -0.5967  0.0067
  265MOL0     H35770   5.396   2.378   4.331  0.3932  1.7423  0.0895
  265MOL0     H35771   5.436   2.697   4.069 -1.0876 -1.3855 -0.0310
  265MOL0     H35772   6.054   2.560   4.394  0.4530  0.2899  0.0437
  265MOL0     H35773   6.230   2.721   4.485  0.3169 -0.8009  2.6332
  265MOL0     H35774   6.378   2.665   4.552  0.1463  1.1313  0.5509
  265MOL0     H35775   6.369   2.700   4.379 -2.4963  1.6448 -0.8365
  266MOL0     O35776   4.726   8.883   7.975 -0.2724 -0.5531 -0.0245
  266MOL0     C35777   4.786   8.787   8.017  0.5559 -0.1356 -0.4329
  266MOL0     O35778   4.731   8.686   8.076  0.5034  0.5168 -0.4558
  266MOL0     C35779   4.593   8.665   8.093  0.8991  0.2691 -0.0735
  266MOL0     C35780   4.564   8.536   8.150 -1.0238 -0.3493  0.0127
  266MOL0     C35781   4.432   8.495   8.162 -0.6864 -0.7574  0.3476
  266MOL0     C35782   4.326   8.582   8.147  0.0573  0.2522  0.5584
  266MOL0     O35783   4.204   8.541   8.204 -0.3873 -0.4269  0.5165
  266MOL0     C35784   4.089   8.628   8.204  0.3097 -0.8128 -0.0059
  266MOL0     C35785   3.977   8.526   8.231 -0.0361  0.0053 -0.5120
  266MOL0     C35786   3.834   8.573   8.205  0.0781  0.6607  0.4623
  266MOL0     C35787   3.734   8.473   8.272  0.2899  0.0909  0.5825
  266MOL0     C35788   3.590   8.532   8.258 -0.1471  0.0318 -0.2455
  266MOL0     C35789   3.489   8.431   8.323  0.3971 -0.6689 -0.4826
  266MOL0     C35790   3.339   8.463   8.301  0.7442 -0.5076 -0.2137
  266MOL0     C35791   3.256   8.452   8.423 -1.3021  0.5264 -0.4948
  266MOL0     N35792   3.273   8.563   8.518  0.9072 -0.1624 -0.1864
  266MOL0     C35793   3.289   8.692   8.478 -0.7064 -0.2517  0.6467
  266MOL0     C35794   3.293   8.761   8.591  0.7191 -0.7153  0.2704
  266MOL0     C35795   3.337   8.905   8.609  0.8911 -0.0955 -0.4582
  266MOL0     C35796   3.491   8.911   8.646  1.0297 -0.5833 -0.4514
  266MOL0     C35797   3.547   9.048   8.621 -0.4646 -0.7266  0.5345
  266MOL0     C35798   3.688   9.062   8.675 -1.1832  0.1404  0.2224
  266MOL0     O35799   3.775   8.962   8.609  0.4587  0.0928  0.2060
  266MOL0     C35800   3.912   8.993   8.603  0.5119 -0.4851  1.0018
  266MOL0     C35801   3.987   9.075   8.691  0.1052 -0.0207 -0.2024
  266MOL0     C35802   4.120   9.091   8.671 -0.2879  0.5984 -0.2821
  266MOL0     C35803   4.193   9.032   8.566 -0.2074 -0.4981  1.0448
  266MOL0     C35804   4.340   9.068   8.540  0.1518 -0.1308  0.0573
  266MOL0     O35805   4.410   9.034   8.423  0.8370  0.2825  0.5046
  266MOL0     C35806   4.543   9.059   8.400  0.1692 -0.4801  1.5798
  266MOL0     C35807   4.599   9.191   8.384  0.1090  0.9886 -0.7557
  266MOL0     C35808   4.724   9.220   8.330 -0.0957  0.3951  0.4668
  266MOL0     C35809   4.792   9.107   8.283 -0.1440 -0.1851 -0.7331
  266MOL0     O35810   4.915   9.140   8.236 -0.6566 -0.4417 -0.5998
  266MOL0     C35811   5.026   9.050   8.225 -0.0920  0.1986 -0.4819
  266MOL0     C35812   5.164   9.102   8.265  1.0011  0.5205 -0.5918
  266MOL0     C35813   5.196   9.144   8.409 -0.4337 -0.8035  0.1367
  266MOL0     C35814   5.126   9.283   8.456 -0.2107  0.4223 -0.0392
  266MOL0     C35815   5.156   9.315   8.603  0.4079 -0.4906  0.2961
  266MOL0     C35816   5.308   9.349   8.633 -0.3718 -0.2863 -0.0260
  266MOL0     C35817   5.369   9.478   8.576 -0.1282 -0.1325 -0.1552
  266MOL0     C35818   5.525   9.486   8.582 -0.4883  0.1462 -0.7219
  266MOL0    Cl35819   5.590   9.340   8.509  0.1459  0.3442  0.5053
  266MOL0     C35820   4.733   8.984   8.283 -0.2783  0.0257  0.0711
  266MOL0     C35821   4.611   8.958   8.343  0.0413  0.1496 -0.1944
  266MOL0     O35822   4.390   9.131   8.630  0.3858 -0.3582  0.5339
  266MOL0     C35823   4.114   8.961   8.473  0.2836  0.0643 -0.2714
  266MOL0     C35824   3.979   8.942   8.492  0.1061 -0.3026  0.6412
  266MOL0     N35825   3.273   8.668   8.692  0.4111  0.6667 -0.4870
  266MOL0     N35826   3.262   8.552   8.650  0.5111  0.7169  0.2787
  266MOL0     C35827   4.346   8.713   8.102 -0.2543 -0.0584  0.2505
  266MOL0     C35828   4.486   8.759   8.063 -0.3217  0.3317 -0.3002
  266MOL0     C35829   4.933   8.781   8.009  0.3813 -0.6502  0.2721
  266MOL0     C35830   4.994   8.850   7.903 -0.4696 -0.0239  0.0478
  266MOL0     C35831   5.131   8.838   7.875 -0.8718  0.1444  0.3633
  266MOL0     C35832   5.218   8.760   7.956 -0.0824 -0.4028  0.9032
  266MOL0     O35833   5.346   8.761   7.910 -0.5064  0.3380  0.3748
  266MOL0     C35834   5.434   8.664   7.971  0.5032  0.3134 -0.1563
  266MOL0     C35835   5.434   8.539   7.895 -0.5151  0.7039 -0.3255
  266MOL0     C35836   5.541   8.538   7.791 -0.2132 -0.4109  0.7520
  266MOL0     C35837   5.541   8.425   7.693 -0.2663  0.3871 -1.2663
  266MOL0     C35838   5.673   8.414   7.620  0.1619  0.4999 -0.8421
  266MOL0     C35839   5.779   8.397   7.564 -0.5341 -0.0035 -1.0130
  266MOL0     C35840   5.162   8.693   8.064  0.4369 -0.0208 -0.3068
  266MOL0     C35841   5.022   8.700   8.094 -0.3879 -0.0257  0.0886
  266MOL0     C35842   4.969   8.602   8.193 -0.2878 -0.1591  0.6104
  266MOL0     H35843   4.650   8.473   8.170  0.3175 -0.0980 -3.9304
  266MOL0     H35844   4.411   8.399   8.207  0.7561 -0.4678  1.7111
  266MOL0     H35845   4.098   8.699   8.287  1.9332 -0.3147 -0.5737
  266MOL0     H35846   4.073   8.681   8.110  1.6758  1.9710  1.2138
  266MOL0     H35847   3.983   8.487   8.333  1.3020  0.8245 -0.2560
  266MOL0     H35848   3.991   8.442   8.162  1.3785  0.2033 -0.5121
  266MOL0     H35849   3.813   8.579   8.097  0.7365  0.3341  0.3146
  266MOL0     H35850   3.826   8.675   8.244  1.6326  1.0745 -0.2074
  266MOL0     H35851   3.740   8.376   8.222 -1.1543  0.2372  0.0720
  266MOL0     H35852   3.761   8.462   8.377 -0.4844  2.4276  1.0900
  266MOL0     H35853   3.580   8.629   8.307  3.5846  0.6818 -0.5074
  266MOL0     H35854   3.561   8.532   8.153 -0.9984  0.0489 -0.0231
  266MOL0     H35855   3.502   8.331   8.279 -1.6792 -1.7294  1.1804
  266MOL0     H35856   3.510   8.415   8.429 -1.2528 -5.1760 -0.6039
  266MOL0     H35857   3.302   8.384   8.234  2.8252 -1.3667 -0.4146
  266MOL0     H35858   3.331   8.559   8.249  2.7607 -0.5263 -0.6394
  266MOL0     H35859   3.152   8.448   8.392 -1.1802 -1.6734 -0.8033
  266MOL0     H35860   3.287   8.360   8.475  1.6099  0.0944 -2.6888
  266MOL0     H35861   3.320   8.731   8.381 -2.4787  3.2284  1.2930
  266MOL0     H35862   3.317   8.960   8.517 -1.4940  2.7627  1.5817
  266MOL0     H35863   3.275   8.938   8.693 -0.5486 -2.9982 -0.2210
  266MOL0     H35864   3.494   8.886   8.753  1.5067 -0.5398 -0.4513
  266MOL0     H35865   3.547   8.842   8.583  0.0246 -0.3329 -1.6495
  266MOL0     H35866   3.487   9.122   8.675  0.4135  1.4738 -1.3351
  266MOL0     H35867   3.537   9.079   8.517 -1.7214  0.3363  0.9530
  266MOL0     H35868   3.689   9.034   8.780 -1.3556 -0.9020 -0.0369
  266MOL0     H35869   3.726   9.163   8.657 -2.4924  0.9207  1.6444
  266MOL0     H35870   3.944   9.130   8.774  0.8844 -2.7349  2.2038
  266MOL0     H35871   4.167   9.163   8.738  2.2541  1.9747 -3.2846
  266MOL0     H35872   4.543   9.281   8.409 -1.8801 -0.2504 -0.4939
  266MOL0     H35873   4.764   9.320   8.322 -0.0652  0.4075  0.7866
  266MOL0     H35874   5.015   8.962   8.288  0.1479  0.0256 -0.6746
  266MOL0     H35875   5.038   9.023   8.119 -1.7943  0.6100 -0.8052
  266MOL0     H35876   5.232   9.025   8.227 -0.3239 -0.1637 -1.6481
  266MOL0     H35877   5.192   9.189   8.205  3.8674  1.9221  2.3961
  266MOL0     H35878   5.168   9.067   8.482 -3.1685  1.5833  1.8035
  266MOL0     H35879   5.304   9.159   8.417 -0.6520  1.3243 -0.4478
  266MOL0     H35880   5.018   9.284   8.439 -0.3933  1.5066  1.0768
  266MOL0     H35881   5.167   9.363   8.394 -1.1127 -1.9209 -4.0272
  266MOL0     H35882   5.117   9.231   8.661  0.0210  0.7371  1.9089
  266MOL0     H35883   5.100   9.408   8.619  1.3631  0.0015  0.8425
  266MOL0     H35884   5.301   9.373   8.739  2.7467  0.3305  0.1254
  266MOL0     H35885   5.366   9.258   8.613 -1.7235 -1.3558  0.7339
  266MOL0     H35886   5.328   9.562   8.634  2.9865 -0.6932  3.1639
  266MOL0     H35887   5.338   9.497   8.473 -0.8367  0.6699  0.1924
  266MOL0     H35888   5.563   9.574   8.528  2.2801 -0.4596  0.0956
  266MOL0     H35889   5.564   9.483   8.684 -0.5813 -0.5486 -0.7060
  266MOL0     H35890   4.790   8.899   8.248  2.0770  0.6485  2.1442
  266MOL0     H35891   4.567   8.859   8.344 -0.8086  0.5117  0.6244
  266MOL0     H35892   4.149   8.912   8.382 -2.2843  0.6486 -1.6955
  266MOL0     H35893   3.934   8.880   8.414 -0.3520 -1.3638  1.7251
  266MOL0     H35894   4.266   8.787   8.099  1.1763  1.5194 -1.3558
  266MOL0     H35895   4.502   8.862   8.034 -0.2135 -0.4479 -3.4113
  266MOL0     H35896   4.942   8.920   7.839  0.1778  1.8959  1.5093
  266MOL0     H35897   5.168   8.897   7.792 -0.8506  1.1312  1.0585
  266MOL0     H35898   5.413   8.644   8.076 -1.3435 -0.1402 -0.5723
  266MOL0     H35899   5.533   8.710   7.968  0.8849 -0.3561  1.3416
  266MOL0     H35900   5.331   8.528   7.862 -0.6977  0.0681  0.4428
  266MOL0     H35901   5.447   8.453   7.961  0.4583 -0.6884 -2.2120
  266MOL0     H35902   5.643   8.556   7.826  0.9994 -1.9612 -1.7131
  266MOL0     H35903   5.525   8.620   7.720 -2.7182 -1.5927 -0.1317
  266MOL0     H35904   5.528   8.333   7.751  1.1489 -0.5582 -2.3845
  266MOL0     H35905   5.453   8.435   7.629  0.1347 -0.4626 -1.9772
  266MOL0     H35906   5.872   8.387   7.512 -0.6138 -2.3668 -0.7939
  266MOL0     H35907   5.220   8.631   8.132  2.2568  1.1836 -0.6880
  266MOL0     H35908   5.047   8.564   8.259 -1.3860 -0.3901  1.8256
  266MOL0     H35909   4.898   8.646   8.264 -1.0446 -0.2886 -0.0468
  266MOL0     H35910   4.928   8.520   8.133  0.7844  0.1564 -0.6089
  267MOL0     O35911   3.181   6.029   7.188 -0.1890  0.2166 -0.4192
  267MOL0     C35912   3.292   5.995   7.231 -0.0462  0.6335  0.1468
  267MOL0     O35913   3.318   5.890   7.319  0.4970 -0.9523  0.2392
  267MOL0     C35914   3.220   5.796   7.333  0.7083  0.5109  0.1215
  267MOL0     C35915   3.139   5.792   7.449  0.5317 -0.3393  0.0494
  267MOL0     C35916   3.043   5.694   7.468  0.3225 -0.5021 -0.0721
  267MOL0     C35917   3.029   5.582   7.379 -0.6330  0.1663  0.1371
  267MOL0     O35918   2.946   5.475   7.393  0.4680 -0.5196  0.7650
  267MOL0     C35919   2.916   5.443   7.525 -0.5568 -0.5395 -0.7410
  267MOL0     C35920   2.821   5.322   7.530  0.5419 -0.5295 -0.0726
  267MOL0     C35921   2.874   5.198   7.456  0.0012 -0.0292 -0.0669
  267MOL0     C35922   2.769   5.084   7.453 -0.0852 -1.4266  0.5489
  267MOL0     C35923   2.805   4.948   7.389 -0.3050  0.5770 -0.8105
  267MOL0     C35924   2.931   4.882   7.460 -0.1104  0.4655 -0.5037
  267MOL0     C35925   2.942   4.742   7.391  0.0190 -0.3579 -0.3422
  267MOL0     C35926   3.075   4.665   7.423 -0.3332 -0.7800  0.4909
  267MOL0     N35927   3.077   4.627   7.559 -0.0993  0.1905  0.4027
  267MOL0     C35928   2.991   4.548   7.623  0.5825  0.8517 -0.1101
  267MOL0     C35929   3.034   4.545   7.756  0.0200  0.1104  0.1086
  267MOL0     C35930   2.960   4.477   7.867  0.1157  0.4849  0.2572
  267MOL0     C35931   2.922   4.328   7.828 -0.1655  0.8860  0.5442
  267MOL0     C35932   3.032   4.227   7.844 -0.5587  1.0313  0.3448
  267MOL0     C35933   3.141   4.220   7.741  1.1797  0.4915 -0.2262
  267MOL0     O35934   3.182   4.086   7.718  0.4538  0.5438  0.1261
  267MOL0     C35935   3.277   4.033   7.796  0.2108  0.9394  0.9111
  267MOL0     C35936   3.317   3.904   7.743 -1.0708  0.0900  1.0202
  267MOL0     C35937   3.390   3.815   7.818  0.6917  0.5370 -0.5213
  267MOL0     C35938   3.424   3.841   7.947 -0.4261 -0.1227 -0.6178
  267MOL0     C35939   3.493   3.744   8.031 -0.1030 -0.1312  0.0408
  267MOL0     O35940   3.550   3.647   7.975  0.2406 -0.5911  0.7502
  267MOL0     C35941   3.611   3.542   8.041  0.1232  0.4917  0.0218
  267MOL0     C35942   3.619   3.421   7.972  0.9539 -0.9237 -0.3968
  267MOL0     C35943   3.681   3.313   8.031  0.1083 -0.1172 -0.7985
  267MOL0     C35944   3.733   3.316   8.161 -0.6387  0.7908 -0.0256
  267MOL0     O35945   3.769   3.200   8.228  0.8337  0.5298  0.1976
  267MOL0     C35946   3.798   3.078   8.155  0.2191  0.2626  0.4515
  267MOL0     C35947   3.883   2.989   8.239 -0.6085  0.5306  0.2566
  267MOL0     C35948   3.928   2.860   8.171 -0.4231  0.3212  0.1167
  267MOL0     C35949   4.023   2.882   8.057  0.1346  1.2293 -0.0067
  267MOL0     C35950   4.094   2.755   8.015 -0.0816 -0.0036  0.3109
  267MOL0     C35951   4.222   2.762   7.934  0.2114 -0.0578 -0.3715
  267MOL0     C35952   4.265   2.619   7.901 -0.3802 -0.3781  0.0850
  267MOL0     C35953   4.385   2.592   7.815 -0.4798 -0.0847 -0.1901
  267MOL0    Cl35954   4.396   2.706   7.668 -0.2150 -0.1243 -0.1440
  267MOL0     C35955   3.723   3.434   8.232 -0.1044 -0.5301  0.2917
  267MOL0     C35956   3.666   3.548   8.173  0.1365  0.7745 -0.3973
  267MOL0     O35957   3.488   3.768   8.150  0.7855  0.0116 -0.0481
  267MOL0     C35958   3.396   3.973   7.998 -0.4558  0.6144  1.1006
  267MOL0     C35959   3.326   4.068   7.923 -0.2508  0.6219  0.5708
  267MOL0     N35960   3.143   4.620   7.767 -0.1770 -0.0301 -0.2405
  267MOL0     N35961   3.174   4.672   7.652  0.3625  0.2039 -0.3267
  267MOL0     C35962   3.111   5.579   7.264 -0.7564  0.1232 -0.3250
  267MOL0     C35963   3.193   5.690   7.242 -0.1195 -0.5831  0.8545
  267MOL0     C35964   3.419   6.067   7.185  0.0110 -0.2681  0.1122
  267MOL0     C35965   3.539   6.026   7.243  0.6096 -0.8543 -0.8051
  267MOL0     C35966   3.663   6.092   7.214  0.1054 -0.0509  0.6037
  267MOL0     C35967   3.673   6.196   7.126  0.1356  0.2601 -0.5261
  267MOL0     O35968   3.800   6.256   7.115  0.5971 -0.5355 -0.5264
  267MOL0     C35969   3.813   6.367   7.026 -0.0629 -0.2834  0.1990
  267MOL0     C35970   3.938   6.438   7.049  0.1789  0.1532  0.1179
  267MOL0     C35971   3.958   6.571   6.984 -0.4422 -1.0151 -1.1305
  267MOL0     C35972   3.971   6.588   6.835  0.2959  1.4050  0.6501
  267MOL0     C35973   4.067   6.497   6.785 -0.4201 -0.0566 -0.8984
  267MOL0     C35974   4.161   6.420   6.757 -0.5379  0.8302 -0.2132
  267MOL0     C35975   3.554   6.229   7.054 -0.0010  0.0403 -0.0675
  267MOL0     C35976   3.423   6.167   7.084 -0.6030  0.4435 -0.2001
  267MOL0     C35977   3.300   6.209   7.018 -0.2471 -0.5868 -0.2928
  267MOL0     H35978   3.138   5.864   7.531 -0.1007  0.1341 -0.3679
  267MOL0     H35979   2.990   5.705   7.562  1.1626 -1.9287  0.6065
  267MOL0     H35980   3.005   5.424   7.584 -1.5008  3.0880  2.2278
  267MOL0     H35981   2.865   5.521   7.581 -0.1671 -0.2161 -0.8298
  267MOL0     H35982   2.726   5.349   7.483  0.9406  0.7258 -0.1705
  267MOL0     H35983   2.781   5.295   7.629 -2.5613  3.4454 -0.0050
  267MOL0     H35984   2.968   5.157   7.495  0.3172  0.6420 -0.0965
  267MOL0     H35985   2.914   5.227   7.358 -0.5681 -1.0650 -0.6197
  267MOL0     H35986   2.748   5.057   7.557 -0.2707 -0.0569  0.8882
  267MOL0     H35987   2.682   5.119   7.396 -0.4726  2.0168  2.8811
  267MOL0     H35988   2.718   4.887   7.415  0.2881  0.8277  2.0638
  267MOL0     H35989   2.825   4.962   7.283 -1.2854  3.0287 -0.7246
  267MOL0     H35990   3.018   4.942   7.431  0.5682  0.3778  1.2580
  267MOL0     H35991   2.908   4.889   7.566 -2.0437  0.4004 -0.8839
  267MOL0     H35992   2.939   4.754   7.283  1.1130  0.6708 -0.2701
  267MOL0     H35993   2.857   4.680   7.424  1.0504 -2.2422 -1.0306
  267MOL0     H35994   3.087   4.568   7.373 -3.7690 -0.8715 -0.4412
  267MOL0     H35995   3.155   4.733   7.394 -2.8233  2.4552  0.6061
  267MOL0     H35996   2.909   4.498   7.573  1.8988 -1.1037 -0.4277
  267MOL0     H35997   3.014   4.476   7.963 -1.9503  0.7710  1.4765
  267MOL0     H35998   2.861   4.523   7.872 -0.9636 -1.4989 -1.5148
  267MOL0     H35999   2.851   4.298   7.906  0.0759 -2.0743 -0.2503
  267MOL0     H36000   2.867   4.318   7.734 -1.2042 -0.5701  1.2498
  267MOL0     H36001   2.994   4.125   7.849  1.9699 -0.1474 -2.1712
  267MOL0     H36002   3.080   4.240   7.942 -0.8737 -2.5814  1.1119
  267MOL0     H36003   3.219   4.292   7.769  0.0606  0.0267  5.1423
  267MOL0     H36004   3.084   4.238   7.650 -1.4964 -3.5967  0.3788
  267MOL0     H36005   3.289   3.870   7.644  2.9579  0.9298 -0.5908
  267MOL0     H36006   3.418   3.716   7.783 -2.1045 -0.5080 -0.0778
  267MOL0     H36007   3.579   3.406   7.872  2.6570 -1.2579 -1.0632
  267MOL0     H36008   3.692   3.216   7.984  1.1301 -2.5065  3.7629
  267MOL0     H36009   3.709   3.032   8.111  1.0137 -0.5554 -0.3425
  267MOL0     H36010   3.860   3.100   8.067  0.8450  0.0163  0.8275
  267MOL0     H36011   3.970   3.047   8.270 -0.9194  1.6738 -0.8961
  267MOL0     H36012   3.819   2.962   8.324  0.5690 -0.8868  0.7291
  267MOL0     H36013   3.973   2.810   8.257  1.8905  1.2427 -0.4980
  267MOL0     H36014   3.844   2.799   8.134  1.4367 -1.4628 -1.3826
  267MOL0     H36015   4.102   2.950   8.091  0.9746 -0.2159  1.0539
  267MOL0     H36016   3.979   2.923   7.966 -0.2468  1.3056  0.2113
  267MOL0     H36017   4.024   2.694   7.958  1.2766 -2.1323  0.7982
  267MOL0     H36018   4.122   2.699   8.105 -0.4892  0.4074  0.6983
  267MOL0     H36019   4.199   2.818   7.844  0.7042  0.1631 -0.3645
  267MOL0     H36020   4.289   2.823   7.995 -1.7873  1.0141  0.8599
  267MOL0     H36021   4.177   2.576   7.851  0.0416 -2.2256  0.8753
  267MOL0     H36022   4.282   2.572   7.998  0.4350 -0.0811  0.0939
  267MOL0     H36023   4.478   2.603   7.871 -0.9105 -0.7782  0.7077
  267MOL0     H36024   4.381   2.487   7.783 -2.8635 -0.4323  0.9635
  267MOL0     H36025   3.740   3.435   8.339  0.4572 -0.3543  0.2042
  267MOL0     H36026   3.664   3.638   8.234 -0.9519 -0.2677  1.1678
  267MOL0     H36027   3.429   4.007   8.096  0.2075 -0.8504  1.4317
  267MOL0     H36028   3.303   4.162   7.973 -1.8690  0.5566  0.0161
  267MOL0     H36029   3.118   5.497   7.193  2.4536  0.0207 -0.0143
  267MOL0     H36030   3.257   5.679   7.156 -2.7814  0.8971 -1.4736
  267MOL0     H36031   3.547   5.946   7.315 -3.0702  0.2769  1.0808
  267MOL0     H36032   3.751   6.060   7.269 -0.4318 -1.3833  0.7111
  267MOL0     H36033   3.728   6.432   7.049  1.8685  2.6529 -0.4616
  267MOL0     H36034   3.814   6.335   6.921  2.0887  2.0516 -0.6119
  267MOL0     H36035   4.023   6.371   7.030  0.0248  0.4749 -1.9714
  267MOL0     H36036   3.934   6.475   7.152  2.2262  2.0474 -0.4051
  267MOL0     H36037   4.051   6.619   7.017 -1.5105  1.1919 -1.1720
  267MOL0     H36038   3.876   6.635   7.018  1.9436  1.9803 -0.4877
  267MOL0     H36039   3.873   6.568   6.792 -0.0736  0.4230  1.8606
  267MOL0     H36040   3.995   6.693   6.821  0.7539  1.1740 -0.3613
  267MOL0     H36041   4.242   6.350   6.752 -1.0127 -0.0029  2.1748
  267MOL0     H36042   3.555   6.307   6.978  0.0354 -0.7157 -0.8560
  267MOL0     H36043   3.326   6.274   6.934  0.3216  0.6003  0.7631
  267MOL0     H36044   3.242   6.130   6.971 -0.8039  1.8832 -4.1736
  267MOL0     H36045   3.250   6.278   7.086  0.7171  1.4660 -1.5438
  268MOL0     O36046   1.050   4.748   9.632 -0.1513 -0.0995  0.1238
  268MOL0     C36047   1.114   4.679   9.552  0.0159 -0.7986  0.8382
  268MOL0     O36048   1.245   4.712   9.514  0.8382  0.0069  0.1607
  268MOL0     C36049   1.294   4.835   9.545  0.2323  0.8179 -0.0661
  268MOL0     C36050   1.224   4.956   9.534  0.2997  0.5945 -0.0321
  268MOL0     C36051   1.290   5.072   9.566  0.2541 -0.5235 -0.3459
  268MOL0     C36052   1.422   5.084   9.603  0.7526  0.0658 -0.4339
  268MOL0     O36053   1.462   5.207   9.626  0.6064 -0.0174  0.5414
  268MOL0     C36054   1.581   5.219   9.707 -0.0556 -0.0370 -0.8433
  268MOL0     C36055   1.708   5.221   9.628  0.4117 -0.4079 -0.5736
  268MOL0     C36056   1.839   5.187   9.706 -0.0467 -0.7374  0.6631
  268MOL0     C36057   1.965   5.194   9.622 -0.2529  0.1541 -0.3603
  268MOL0     C36058   2.070   5.100   9.681 -0.8103  0.2022 -0.7493
  268MOL0     C36059   2.131   5.146   9.822  0.6928 -0.4715  0.4230
  268MOL0     C36060   2.211   5.037   9.894  0.3038  0.2105 -0.0657
  268MOL0     C36061   2.293   5.096  10.007 -0.2063 -0.9473  0.1618
  268MOL0     N36062   2.348   4.995  10.092 -0.3304 -0.0656  0.7545
  268MOL0     C36063   2.361   5.011  10.226 -0.6690  0.7884  0.0401
  268MOL0     C36064   2.426   4.896  10.254  0.4293  0.5036 -0.4012
  268MOL0     C36065   2.486   4.861  10.384 -0.8182  0.3734 -0.4466
  268MOL0     C36066   2.601   4.960  10.430  0.0076  0.4214  0.2883
  268MOL0     C36067   2.655   4.943  10.576 -0.1593 -0.3323 -0.2486
  268MOL0     C36068   2.752   4.830  10.599  0.5711 -0.7490  0.8399
  268MOL0     O36069   2.827   4.857  10.712  0.7860 -0.6108 -0.2735
  268MOL0     C36070   2.900   4.760  10.765 -0.7266  0.1459 -0.2033
  268MOL0     C36071   2.984   4.800  10.868 -0.4173  1.2277 -0.4740
  268MOL0     C36072   3.078   4.710  10.918 -0.0083  0.2117 -0.0610
  268MOL0     C36073   3.104   4.589  10.854  0.3121 -0.1770  0.4886
  268MOL0     C36074   3.222   4.509  10.893  0.2911  0.1101  0.5691
  268MOL0     O36075   3.229   4.387  10.836  0.2744  0.8427  0.1475
  268MOL0     C36076   3.325   4.291  10.870 -0.1012  0.5362 -0.1339
  268MOL0     C36077   3.459   4.326  10.908 -0.3713  0.1487 -0.6490
  268MOL0     C36078   3.547   4.218  10.917  0.2163  0.6475  1.0768
  268MOL0     C36079   3.504   4.085  10.895  0.5305 -0.0751 -0.8782
  268MOL0     O36080   3.582   3.975  10.906 -0.3293 -0.3198 -0.3532
  268MOL0     C36081   3.718   3.988  10.950 -0.0520  0.1324  0.7233
  268MOL0     C36082   3.736   4.009  11.096  0.6344 -0.5168 -0.1534
  268MOL0     C36083   3.662   3.890  11.166  1.2091 -0.5572  0.8226
  268MOL0     C36084   3.684   3.904  11.326  0.1053  0.7238 -0.9640
  268MOL0     C36085   3.612   3.802  11.397  1.1624  0.0397 -0.1346
  268MOL0     C36086   3.698   3.727  11.494 -0.7533 -0.7526  0.1598
  268MOL0     C36087   3.643   3.601  11.546 -0.0152 -0.4562 -0.2035
  268MOL0     C36088   3.549   3.638  11.662 -0.7823 -0.0971 -0.7675
  268MOL0    Cl36089   3.376   3.676  11.598  0.3213 -0.0890  0.4525
  268MOL0     C36090   3.374   4.053  10.863  0.1821  0.1610 -0.2371
  268MOL0     C36091   3.281   4.156  10.848 -1.6515  0.0736 -0.0937
  268MOL0     O36092   3.293   4.556  10.982  0.4158 -0.0656 -0.0956
  268MOL0     C36093   3.016   4.548  10.757 -0.1187 -0.7369 -0.9265
  268MOL0     C36094   2.908   4.628  10.716 -1.0011  0.2362 -0.7249
  268MOL0     N36095   2.451   4.812  10.146 -0.4059 -0.6253 -0.3655
  268MOL0     N36096   2.401   4.872  10.047 -0.1885 -0.9067  0.4586
  268MOL0     C36097   1.490   4.955   9.630 -0.6267 -0.2385  0.1984
  268MOL0     C36098   1.428   4.845   9.586  0.1848 -0.0200  0.6563
  268MOL0     C36099   1.072   4.542   9.516 -0.2219  0.1228  0.2435
  268MOL0     C36100   0.942   4.508   9.551  0.1859  0.1342  0.3415
  268MOL0     C36101   0.874   4.392   9.503  0.0975 -0.2536 -1.3339
  268MOL0     C36102   0.944   4.300   9.423  0.2658  0.1978  0.4444
  268MOL0     O36103   0.875   4.194   9.369 -0.2091 -0.6409 -0.4980
  268MOL0     C36104   0.906   4.185   9.226  0.1957 -0.3172 -1.6567
  268MOL0     C36105   0.900   4.313   9.150 -0.2073 -0.1677 -0.7348
  268MOL0     C36106   0.916   4.285   9.000 -1.1173 -0.0349  0.0429
  268MOL0     C36107   0.943   4.414   8.914  0.4243 -1.0770  0.5754
  268MOL0     C36108   0.819   4.484   8.885  0.2443  0.1283 -0.8864
  268MOL0     C36109   0.714   4.548   8.856  0.5927 -0.2737  0.2634
  268MOL0     C36110   1.082   4.321   9.414 -0.0269 -0.7393  0.2698
  268MOL0     C36111   1.145   4.445   9.455  0.0721 -0.6086 -0.4907
  268MOL0     C36112   1.290   4.451   9.443  0.2998  0.6764  0.9010
  268MOL0     H36113   1.122   4.952   9.496  0.0054  0.0647  0.7921
  268MOL0     H36114   1.237   5.167   9.573  2.8031  0.8664  1.8446
  268MOL0     H36115   1.585   5.308   9.771  3.0911 -1.9217  1.8632
  268MOL0     H36116   1.573   5.135   9.776 -1.8855  1.9268  1.5066
  268MOL0     H36117   1.719   5.319   9.580 -0.6415  0.8500  1.6190
  268MOL0     H36118   1.687   5.145   9.552 -2.3430 -0.8834  0.5393
  268MOL0     H36119   1.824   5.090   9.753  0.1971 -1.3565 -0.5158
  268MOL0     H36120   1.850   5.259   9.788 -0.6406  0.1127  0.0113
  268MOL0     H36121   1.944   5.148   9.525 -3.2493  0.8411 -0.1376
  268MOL0     H36122   1.996   5.298   9.609  1.3833 -0.4540 -1.6516
  268MOL0     H36123   2.035   4.996   9.675  0.2146 -0.0791 -3.2141
  268MOL0     H36124   2.153   5.103   9.610  1.7006 -2.6535  1.7409
  268MOL0     H36125   2.191   5.238   9.815  0.1691 -0.1053  0.7084
  268MOL0     H36126   2.059   5.181   9.897  0.5999 -2.6704  1.4292
  268MOL0     H36127   2.274   4.987   9.820  0.6884 -0.6923  0.8487
  268MOL0     H36128   2.138   4.963   9.928  0.6381 -0.3207 -0.4839
  268MOL0     H36129   2.370   5.165   9.972 -0.3092 -1.7596 -1.8290
  268MOL0     H36130   2.230   5.159  10.070 -1.5189 -3.4039  1.4548
  268MOL0     H36131   2.327   5.087  10.295 -3.2734 -0.4955  0.2640
  268MOL0     H36132   2.410   4.852  10.463  0.6386 -0.4089  0.9417
  268MOL0     H36133   2.534   4.763  10.380 -0.0441  0.4667  3.1336
  268MOL0     H36134   2.681   4.943  10.357 -0.4079 -2.3537  0.3891
  268MOL0     H36135   2.567   5.063  10.417  2.5080  1.0286 -2.3650
  268MOL0     H36136   2.570   4.927  10.644 -0.8367  0.6999 -0.8241
  268MOL0     H36137   2.704   5.036  10.605 -2.5504  1.6075 -1.9408
  268MOL0     H36138   2.811   4.809  10.509 -1.1755 -0.5651 -0.4029
  268MOL0     H36139   2.684   4.746  10.618 -2.0904  0.5170 -2.1262
  268MOL0     H36140   2.976   4.898  10.915 -1.6147  1.1322 -0.4291
  268MOL0     H36141   3.149   4.732  10.998  2.4440 -2.1940 -1.4288
  268MOL0     H36142   3.488   4.430  10.924  0.1001 -0.0420 -0.2077
  268MOL0     H36143   3.644   4.247  10.954  0.1906  2.4107 -0.1445
  268MOL0     H36144   3.778   3.900  10.924 -1.1059  0.2907 -2.7060
  268MOL0     H36145   3.768   4.069  10.896  2.0761 -1.9743 -0.6487
  268MOL0     H36146   3.843   4.007  11.118  0.1318 -3.1629  2.6601
  268MOL0     H36147   3.697   4.103  11.136  2.7544  1.2376 -1.9631
  268MOL0     H36148   3.554   3.887  11.151  1.4163 -1.2057 -0.6906
  268MOL0     H36149   3.696   3.793  11.130 -0.4552 -1.0855  0.6001
  268MOL0     H36150   3.643   4.002  11.353  0.2435 -0.3141  3.9662
  268MOL0     H36151   3.787   3.904  11.362  0.3335  0.0808 -1.6126
  268MOL0     H36152   3.588   3.725  11.322  2.1741  0.3954 -0.8426
  268MOL0     H36153   3.529   3.846  11.453  0.4580 -0.2079 -0.9459
  268MOL0     H36154   3.794   3.713  11.445 -1.1363  2.7468 -2.0032
  268MOL0     H36155   3.725   3.797  11.574 -0.4291  0.3570 -0.8899
  268MOL0     H36156   3.726   3.541  11.586 -1.3236 -0.9117  1.9776
  268MOL0     H36157   3.578   3.555  11.472 -0.0789  1.3855 -1.3437
  268MOL0     H36158   3.547   3.555  11.734  2.4620  1.8282  1.8493
  268MOL0     H36159   3.584   3.725  11.719 -0.0940  0.8364 -2.5281
  268MOL0     H36160   3.348   3.948  10.863  1.4395 -0.2322  1.8452
  268MOL0     H36161   3.176   4.142  10.827 -2.1880  2.5472  0.6598
  268MOL0     H36162   3.022   4.455  10.701  1.5117 -1.5476  0.4810
  268MOL0     H36163   2.840   4.595  10.637 -0.5027 -1.8942 -0.3189
  268MOL0     H36164   1.588   4.960   9.676  1.5113  0.9799 -4.0369
  268MOL0     H36165   1.480   4.751   9.604  0.6120 -0.0459 -0.6696
  268MOL0     H36166   0.891   4.585   9.608  0.5608 -0.9044  2.1654
  268MOL0     H36167   0.768   4.383   9.526 -0.0119  1.8758 -0.7818
  268MOL0     H36168   0.840   4.110   9.182 -1.7178  1.3982 -1.8706
  268MOL0     H36169   1.009   4.151   9.211  0.5521 -1.0340  1.5588
  268MOL0     H36170   0.980   4.384   9.174 -0.0013 -0.2678 -1.1122
  268MOL0     H36171   0.800   4.347   9.175 -0.0984 -2.1789  3.1517
  268MOL0     H36172   0.827   4.233   8.965  1.3012 -2.0347 -3.9682
  268MOL0     H36173   0.992   4.209   8.977 -1.6546 -1.4616  2.5743
  268MOL0     H36174   1.020   4.480   8.954 -0.7780  0.3561  0.5972
  268MOL0     H36175   0.975   4.380   8.814 -0.9590  3.1560 -1.5537
  268MOL0     H36176   0.632   4.606   8.821  1.2635  0.5585  0.0467
  268MOL0     H36177   1.152   4.253   9.365  2.7455 -0.3741  3.3552
  268MOL0     H36178   1.330   4.485   9.539  2.6740 -1.0929  0.6559
  268MOL0     H36179   1.326   4.348   9.429 -0.5745  0.3234  1.1905
  268MOL0     H36180   1.318   4.516   9.359 -0.7669 -0.7148 -0.6013
  269MOL0     O36181   7.026   9.075   6.585  0.1266  0.1113 -0.3293
  269MOL0     C36182   6.971   9.096   6.475 -0.7349  0.3521  0.9971
  269MOL0     O36183   7.034   9.153   6.370 -0.2878  0.2414  0.0220
  269MOL0     C36184   7.166   9.204   6.381 -0.4667  0.1594 -0.0407
  269MOL0     C36185   7.274   9.123   6.382 -0.3754 -0.0366  0.3143
  269MOL0     C36186   7.403   9.169   6.369 -0.8782  0.0301 -0.0656
  269MOL0     C36187   7.436   9.303   6.382 -0.4946 -0.4591  0.1555
  269MOL0     O36188   7.570   9.351   6.402  0.0789 -0.0414 -0.0869
  269MOL0     C36189   7.618   9.479   6.344  0.0061 -0.6023 -0.3172
  269MOL0     C36190   7.771   9.474   6.337 -0.0708  0.1265  0.0744
  269MOL0     C36191   7.830   9.598   6.259 -0.3997  0.6517  0.7789
  269MOL0     C36192   7.971   9.616   6.303 -0.5384  0.4007 -0.7292
  269MOL0     C36193   8.036   9.739   6.234  0.4696  0.0795 -0.3658
  269MOL0     C36194   8.062   9.705   6.084  0.9995 -0.0876 -0.1195
  269MOL0     C36195   8.150   9.589   6.047  0.8580  0.7064  0.0658
  269MOL0     C36196   8.292   9.614   6.079 -1.1495 -0.0920  0.0361
  269MOL0     N36197   8.387   9.524   6.016 -0.6468 -0.2917 -0.6126
  269MOL0     C36198   8.423   9.526   5.885 -1.5963 -0.8634 -0.1622
  269MOL0     C36199   8.523   9.437   5.878 -0.2798  0.2251 -0.0191
  269MOL0     C36200   8.608   9.405   5.769 -0.1011 -0.0419  0.3660
  269MOL0     C36201   8.737   9.505   5.739 -0.8464  0.7659  0.1069
  269MOL0     C36202   8.817   9.549   5.862  0.2204  0.2781 -0.1868
  269MOL0     C36203   8.920   9.660   5.839  0.7110 -0.3979 -1.1626
  269MOL0     O36204   9.050   9.607   5.802  0.4313 -0.1970 -0.0598
  269MOL0     C36205   9.142   9.703   5.794  0.2151 -1.0398 -0.7978
  269MOL0     C36206   9.257   9.685   5.869  0.4252  0.9236  0.6771
  269MOL0     C36207   9.365   9.778   5.857 -0.2869 -0.3642 -0.6301
  269MOL0     C36208   9.362   9.882   5.760 -0.2031  0.0650  0.0901
  269MOL0     C36209   9.470   9.976   5.725 -0.9184 -0.5637 -0.2606
  269MOL0     O36210   9.566   9.991   5.822 -0.3096 -0.2294  0.2345
  269MOL0     C36211   9.675  10.071   5.784 -0.4138  0.3081 -0.4965
  269MOL0     C36212   9.718  10.160   5.881  1.2469 -0.3691  0.3445
  269MOL0     C36213   9.827  10.244   5.867 -0.6508 -0.1764 -0.5610
  269MOL0     C36214   9.910  10.237   5.749  1.1604 -0.1873  0.0583
  269MOL0     O36215  10.015  10.319   5.728 -0.1621 -0.1009 -0.1692
  269MOL0     C36216  10.111  10.291   5.624  0.2480  0.6535  0.8190
  269MOL0     C36217  10.223  10.382   5.635 -0.6661  0.3675  0.4268
  269MOL0     C36218  10.342  10.334   5.551  0.0508  0.1002  0.4776
  269MOL0     C36219  10.437  10.446   5.511 -0.1443  0.4352 -0.2714
  269MOL0     C36220  10.469  10.549   5.611 -0.9056 -0.8988  0.5572
  269MOL0     C36221  10.567  10.656   5.546  0.3117 -0.4600  0.0910
  269MOL0     C36222  10.530  10.725   5.411 -0.4515 -0.2168 -0.1097
  269MOL0     C36223  10.579  10.868   5.393 -0.5275 -0.6179 -0.6122
  269MOL0    Cl36224  10.743  10.884   5.452 -0.3667 -0.4433 -0.1400
  269MOL0     C36225   9.876  10.145   5.649  0.1829 -0.3379 -0.7281
  269MOL0     C36226   9.760  10.070   5.669  0.1717  0.6886  0.5218
  269MOL0     O36227   9.468  10.043   5.621  0.7561 -0.1796  0.2742
  269MOL0     C36228   9.238   9.906   5.694 -0.5352  0.9260  0.1414
  269MOL0     C36229   9.132   9.807   5.707 -0.2297 -0.6689  0.1449
  269MOL0     N36230   8.538   9.378   6.004 -0.0446 -0.0373 -0.0235
  269MOL0     N36231   8.468   9.440   6.086 -0.3760  0.4138 -0.7919
  269MOL0     C36232   7.328   9.387   6.395  0.6204  0.7775 -0.4124
  269MOL0     C36233   7.196   9.342   6.372  0.0085 -1.1162 -0.0287
  269MOL0     C36234   6.825   9.062   6.449  0.0470  0.2600 -0.6897
  269MOL0     C36235   6.761   9.136   6.349  0.1563 -0.2803  0.6511
  269MOL0     C36236   6.632   9.116   6.304  0.5758  0.6040 -0.9282
  269MOL0     C36237   6.555   9.014   6.364 -0.3238 -0.5863 -1.0767
  269MOL0     O36238   6.428   8.994   6.321  0.0929 -0.0797 -0.1812
  269MOL0     C36239   6.421   8.912   6.204 -0.1345  0.0067 -0.6636
  269MOL0     C36240   6.289   8.930   6.137  0.2997  0.1889 -0.0144
  269MOL0     C36241   6.164   8.868   6.211 -0.2774  0.2080  0.0928
  269MOL0     C36242   6.178   8.715   6.237  0.1564  0.3329  0.3339
  269MOL0     C36243   6.159   8.640   6.108 -0.0070  0.0555  0.2711
  269MOL0     C36244   6.126   8.578   6.008  0.0430  0.8694 -0.0286
  269MOL0     C36245   6.611   8.948   6.474  0.9922  0.1408 -0.9509
  269MOL0     C36246   6.744   8.968   6.517 -0.4109 -0.5853 -0.3742
  269MOL0     C36247   6.809   8.882   6.625  0.3378 -0.0871 -0.0235
  269MOL0     H36248   7.262   9.016   6.394  0.1579 -0.2564 -0.8696
  269MOL0     H36249   7.488   9.102   6.372 -0.7112  0.2161  3.1975
  269MOL0     H36250   7.582   9.504   6.244  1.1414  4.9474  0.3060
  269MOL0     H36251   7.583   9.564   6.405  1.8567 -1.4710  2.1482
  269MOL0     H36252   7.793   9.387   6.274 -0.0549  2.3923 -3.3508
  269MOL0     H36253   7.815   9.468   6.437 -1.8732 -2.2266  0.8205
  269MOL0     H36254   7.771   9.689   6.271  1.3895  2.3131 -2.0863
  269MOL0     H36255   7.830   9.580   6.151 -2.0820 -1.8569  1.0900
  269MOL0     H36256   7.978   9.632   6.411  1.7623 -0.3768 -0.7132
  269MOL0     H36257   8.032   9.527   6.286  0.0611  0.2722  1.6892
  269MOL0     H36258   7.968   9.822   6.254 -1.9389 -1.6600 -0.7713
  269MOL0     H36259   8.135   9.756   6.276 -0.2000  0.3038  1.1786
  269MOL0     H36260   7.968   9.714   6.029 -0.6532  0.2501  2.5456
  269MOL0     H36261   8.112   9.796   6.050  0.2549  0.0361 -0.9096
  269MOL0     H36262   8.139   9.580   5.939 -1.2803  1.5657  0.1561
  269MOL0     H36263   8.108   9.499   6.093 -0.1238 -1.6275 -4.8488
  269MOL0     H36264   8.325   9.716   6.058  0.1947 -0.0707  1.9824
  269MOL0     H36265   8.314   9.610   6.186  0.4203 -0.9891 -0.2833
  269MOL0     H36266   8.394   9.590   5.802  2.8919 -0.4935 -1.7068
  269MOL0     H36267   8.642   9.301   5.768 -1.9944 -0.6964 -1.6682
  269MOL0     H36268   8.541   9.419   5.684 -0.9693  0.4634  1.1189
  269MOL0     H36269   8.793   9.449   5.664  0.5501  3.5672 -1.0986
  269MOL0     H36270   8.703   9.596   5.687  0.0439  0.2329 -1.4614
  269MOL0     H36271   8.877   9.468   5.905  0.5998  0.6427 -0.0148
  269MOL0     H36272   8.751   9.588   5.939 -0.8429  0.6734 -1.2728
  269MOL0     H36273   8.930   9.699   5.940 -1.1373 -2.3926 -0.1316
  269MOL0     H36274   8.884   9.737   5.770  1.8673  2.7443  1.4881
  269MOL0     H36275   9.252   9.611   5.948 -1.6677  0.1962 -0.0692
  269MOL0     H36276   9.448   9.765   5.926 -0.6297 -2.8202 -0.5722
  269MOL0     H36277   9.664  10.160   5.976 -1.6806  2.5955 -1.1182
  269MOL0     H36278   9.856  10.306   5.951  0.4820 -3.7423  1.9055
  269MOL0     H36279  10.141  10.186   5.631  0.4912  0.4041 -2.3871
  269MOL0     H36280  10.058  10.304   5.529  0.1783 -1.5559  0.5100
  269MOL0     H36281  10.186  10.478   5.598 -0.6422  0.6550  1.1230
  269MOL0     H36282  10.246  10.393   5.742 -0.4573 -0.3293  0.4560
  269MOL0     H36283  10.397  10.258   5.608 -1.9227 -0.2480  2.0193
  269MOL0     H36284  10.305  10.277   5.466 -0.5956 -1.8400  2.0052
  269MOL0     H36285  10.412  10.493   5.416  2.2430  1.3009 -0.5244
  269MOL0     H36286  10.527  10.387   5.491 -0.7658 -1.5725  2.2324
  269MOL0     H36287  10.521  10.519   5.703 -0.8204  1.5713  1.3907
  269MOL0     H36288  10.377  10.606   5.626 -0.7943 -0.6684  0.3764
  269MOL0     H36289  10.579  10.737   5.618 -3.0536  1.0387 -0.7856
  269MOL0     H36290  10.655  10.594   5.530  0.0292 -0.9416  0.3951
  269MOL0     H36291  10.421  10.717   5.403 -0.6041 -0.2694  1.7005
  269MOL0     H36292  10.581  10.660   5.339  2.5013 -2.2001  3.4538
  269MOL0     H36293  10.570  10.891   5.286  0.3236  0.8756 -0.3853
  269MOL0     H36294  10.510  10.930   5.450 -1.6334 -0.7930 -1.7175
  269MOL0     H36295   9.935  10.141   5.559  1.2339 -2.7496 -0.0072
  269MOL0     H36296   9.735  10.001   5.588  2.7679  1.9256 -1.5040
  269MOL0     H36297   9.230   9.982   5.617  1.6596  0.1487 -0.9545
  269MOL0     H36298   9.046   9.808   5.642 -0.1380 -0.9284  0.0177
  269MOL0     H36299   7.343   9.492   6.419 -3.6418  1.1621  1.4501
  269MOL0     H36300   7.124   9.423   6.384  0.5734 -0.5645 -0.2810
  269MOL0     H36301   6.815   9.215   6.298  0.1670 -1.1836 -0.8144
  269MOL0     H36302   6.575   9.170   6.230 -0.8528 -0.3226 -0.5394
  269MOL0     H36303   6.431   8.807   6.233 -2.8143  0.2314  1.5216
  269MOL0     H36304   6.501   8.922   6.130  0.0486 -3.1330 -1.0234
  269MOL0     H36305   6.305   8.901   6.033 -1.7905  0.5110 -0.4620
  269MOL0     H36306   6.255   9.033   6.147 -2.6529 -0.7928  0.9939
  269MOL0     H36307   6.074   8.900   6.157 -1.3720  0.5018  2.0054
  269MOL0     H36308   6.156   8.914   6.310 -3.0706 -1.5523  0.7960
  269MOL0     H36309   6.277   8.689   6.274  1.4808  0.1645 -3.0643
  269MOL0     H36310   6.095   8.675   6.297  0.4843 -1.7262 -0.4970
  269MOL0     H36311   6.104   8.526   5.917 -0.8050 -0.5998  0.9868
  269MOL0     H36312   6.553   8.868   6.520  0.8994  0.4683 -0.4850
  269MOL0     H36313   6.910   8.847   6.601  0.5141  0.6004 -0.2894
  269MOL0     H36314   6.807   8.933   6.721 -1.2770  0.3012 -0.2441
  269MOL0     H36315   6.747   8.792   6.637 -0.6909 -0.0178 -3.7291
  270MOL0     O36316   0.249   8.797   5.645 -0.3682  0.7419  0.4568
  270MOL0     C36317   0.171   8.859   5.571 -0.6002  0.2888 -0.2352
  270MOL0     O36318   0.204   8.954   5.471 -0.5602 -0.2411  0.4044
  270MOL0     C36319   0.340   8.976   5.459 -0.1411 -0.4695 -0.9467
  270MOL0     C36320   0.437   8.883   5.417  0.3459  0.3712 -0.2483
  270MOL0     C36321   0.573   8.911   5.423  0.4611  0.0495  0.2403
  270MOL0     C36322   0.618   9.024   5.483 -1.0640 -0.4568 -0.9459
  270MOL0     O36323   0.755   9.034   5.510  0.3866  0.5663  0.8088
  270MOL0     C36324   0.803   9.137   5.598  0.7395 -0.0919 -0.1929
  270MOL0     C36325   0.952   9.112   5.617 -0.0994 -0.1455  0.5219
  270MOL0     C36326   0.998   8.984   5.677 -0.4103 -0.2420 -0.7170
  270MOL0     C36327   1.148   8.976   5.693 -0.6495 -0.8809  0.1331
  270MOL0     C36328   1.195   8.828   5.671  0.5001  0.3204 -0.0596
  270MOL0     C36329   1.149   8.725   5.781  0.5311  0.4526  0.4314
  270MOL0     C36330   1.111   8.585   5.730 -0.2186  0.3931 -0.0399
  270MOL0     C36331   1.247   8.509   5.703  0.6428 -0.6207 -0.7701
  270MOL0     N36332   1.249   8.435   5.576 -0.3488 -0.5358 -0.2834
  270MOL0     C36333   1.282   8.488   5.452  0.2960 -0.8743  0.1272
  270MOL0     C36334   1.269   8.378   5.375 -1.3492 -0.9114  0.2072
  270MOL0     C36335   1.320   8.395   5.221  0.2261 -0.1888  0.4728
  270MOL0     C36336   1.465   8.364   5.205  0.4083  0.1694 -0.6477
  270MOL0     C36337   1.508   8.215   5.215 -0.0706 -1.4125  0.0794
  270MOL0     C36338   1.668   8.208   5.196  0.1802  0.4350  0.6694
  270MOL0     O36339   1.704   8.069   5.197 -0.4371 -0.4192  0.7428
  270MOL0     C36340   1.841   8.047   5.212 -0.0279 -0.5226  0.0542
  270MOL0     C36341   1.940   8.138   5.259  0.2155 -0.0316 -1.2531
  270MOL0     C36342   2.073   8.101   5.274 -1.1113  0.4854 -0.2825
  270MOL0     C36343   2.110   7.973   5.237 -0.3630 -0.1453 -0.6942
  270MOL0     C36344   2.244   7.933   5.262 -0.1950 -0.0752  0.4942
  270MOL0     O36345   2.326   8.003   5.348  1.3687 -0.0777 -0.0461
  270MOL0     C36346   2.458   7.967   5.369  1.1007  0.0804 -0.4009
  270MOL0     C36347   2.486   7.852   5.442  0.8424  0.3437  1.3683
  270MOL0     C36348   2.614   7.804   5.467 -0.7781  0.5889 -0.0625
  270MOL0     C36349   2.721   7.868   5.405 -0.5007  0.5167 -0.1523
  270MOL0     O36350   2.841   7.803   5.425 -0.1527  0.1752  1.0646
  270MOL0     C36351   2.961   7.882   5.436  0.3749  0.5100  0.7213
  270MOL0     C36352   3.048   7.850   5.312  0.2193 -0.3535 -0.9080
  270MOL0     C36353   3.118   7.711   5.316 -0.2910 -0.5434  0.2794
  270MOL0     C36354   3.168   7.651   5.177  0.5428 -0.2993 -0.1495
  270MOL0     C36355   3.252   7.526   5.194 -0.7584  0.2153 -0.5045
  270MOL0     C36356   3.261   7.443   5.066  0.6004 -0.0532 -0.1847
  270MOL0     C36357   3.300   7.298   5.098  0.5146 -0.6472  0.3796
  270MOL0     C36358   3.319   7.222   4.970 -0.1747 -0.0868 -0.3790
  270MOL0    Cl36359   3.482   7.281   4.891 -0.5492  0.0646  0.0568
  270MOL0     C36360   2.697   7.992   5.345 -0.0305 -0.5057 -0.0700
  270MOL0     C36361   2.566   8.043   5.325 -0.2209  0.4034  0.3760
  270MOL0     O36362   2.282   7.833   5.199  0.7191 -0.0656  0.1841
  270MOL0     C36363   2.019   7.886   5.181  0.1481 -0.1043  0.0244
  270MOL0     C36364   1.885   7.924   5.164 -0.3961  0.1666 -0.3473
  270MOL0     N36365   1.210   8.273   5.447 -0.2268  0.2858  0.4286
  270MOL0     N36366   1.202   8.307   5.568  0.5356 -0.8401 -0.4689
  270MOL0     C36367   0.531   9.129   5.514 -0.0901 -0.2892 -0.2132
  270MOL0     C36368   0.395   9.104   5.495  0.1086  0.3571  0.8735
  270MOL0     C36369   0.025   8.830   5.597 -0.1695  0.0342  0.1406
  270MOL0     C36370  -0.075   8.902   5.529 -0.8491 -0.2096 -0.9332
  270MOL0     C36371  -0.208   8.869   5.533  0.6263 -0.2063 -0.9819
  270MOL0     C36372  -0.253   8.772   5.615  0.9835  0.3836 -0.1573
  270MOL0     O36373  -0.390   8.746   5.615 -0.0395 -0.1244  0.0657
  270MOL0     C36374  -0.430   8.611   5.617 -0.9312  1.0773 -0.6142
  270MOL0     C36375  -0.578   8.590   5.582  0.5151  0.0961  0.2065
  270MOL0     C36376  -0.656   8.670   5.685  0.2570  0.3931 -0.4579
  270MOL0     C36377  -0.807   8.657   5.658 -0.0183  0.0870 -0.8015
  270MOL0     C36378  -0.881   8.738   5.750 -0.2034  0.8120 -0.1105
  270MOL0     C36379  -0.935   8.791   5.839  0.2856 -1.4458  0.1603
  270MOL0     C36380  -0.163   8.704   5.690  0.5312  1.0514  0.2877
  270MOL0     C36381  -0.027   8.734   5.684  0.5743 -0.2220  0.5008
  270MOL0     C36382   0.052   8.639   5.764 -0.5413  0.7318 -0.5610
  270MOL0     H36383   0.399   8.789   5.379 -1.4101  0.5211  1.0459
  270MOL0     H36384   0.648   8.837   5.400  2.3904  1.5579  1.3878
  270MOL0     H36385   0.778   9.236   5.559 -0.0305  0.6962  2.1055
  270MOL0     H36386   0.745   9.119   5.689 -2.2330 -0.1966 -1.9764
  270MOL0     H36387   0.989   9.197   5.675 -1.5369  2.1790 -1.7514
  270MOL0     H36388   0.994   9.127   5.516 -1.6315  1.5747  0.0815
  270MOL0     H36389   0.951   8.892   5.641 -2.5236  0.1092  0.9150
  270MOL0     H36390   0.951   8.991   5.776 -0.0309 -2.0110 -0.3709
  270MOL0     H36391   1.194   9.043   5.619 -0.1442 -0.8774  0.4449
  270MOL0     H36392   1.188   9.013   5.787  3.1505 -1.8853 -0.8912
  270MOL0     H36393   1.157   8.797   5.573 -0.2973 -2.9365  1.1599
  270MOL0     H36394   1.304   8.823   5.664  0.7074  2.8660  0.5181
  270MOL0     H36395   1.233   8.727   5.851  1.5289 -0.7136 -0.6871
  270MOL0     H36396   1.059   8.760   5.832  1.0281  0.0518  1.6170
  270MOL0     H36397   1.051   8.601   5.640  0.2507  2.6063 -0.0222
  270MOL0     H36398   1.053   8.527   5.802  0.5621 -1.1732 -0.6365
  270MOL0     H36399   1.332   8.578   5.708 -2.0445  2.9829 -0.0661
  270MOL0     H36400   1.257   8.445   5.791  1.2147 -0.6323 -0.8388
  270MOL0     H36401   1.317   8.587   5.424  0.3188 -1.7657 -3.4822
  270MOL0     H36402   1.260   8.329   5.158 -2.0884  1.6152  0.6483
  270MOL0     H36403   1.296   8.495   5.183  1.3524  0.4485  1.3559
  270MOL0     H36404   1.495   8.411   5.112  3.4577 -0.9351 -0.3191
  270MOL0     H36405   1.510   8.425   5.284 -3.3570  2.7736 -0.2498
  270MOL0     H36406   1.458   8.168   5.130  0.2683  3.0702 -2.9938
  270MOL0     H36407   1.488   8.176   5.315  4.7690  0.4487  2.0958
  270MOL0     H36408   1.716   8.272   5.270  0.5208 -0.0795  0.8968
  270MOL0     H36409   1.692   8.245   5.095  0.8358  1.4329  1.1718
  270MOL0     H36410   1.914   8.239   5.290 -1.4525 -0.5302 -0.9425
  270MOL0     H36411   2.141   8.175   5.314 -2.4578  2.1998 -1.0349
  270MOL0     H36412   2.395   7.797   5.466  0.9322 -0.3621  0.1749
  270MOL0     H36413   2.618   7.717   5.531 -1.9667  0.8600  0.4145
  270MOL0     H36414   2.943   7.990   5.426  1.2155  0.5274 -0.7498
  270MOL0     H36415   3.022   7.865   5.525  1.7388  0.0373 -0.2728
  270MOL0     H36416   2.986   7.850   5.222 -1.3009  1.2421  0.0716
  270MOL0     H36417   3.132   7.918   5.303 -0.7671  0.7090 -2.7346
  270MOL0     H36418   3.198   7.713   5.390 -0.8840 -3.7300  1.1846
  270MOL0     H36419   3.045   7.635   5.345 -0.2759 -1.3636 -1.6358
  270MOL0     H36420   3.207   7.729   5.112  2.2630 -0.0702  1.0645
  270MOL0     H36421   3.071   7.615   5.141  1.1687 -1.9391 -0.2810
  270MOL0     H36422   3.204   7.459   5.266 -2.6569  0.1127 -1.8176
  270MOL0     H36423   3.350   7.550   5.236  0.0448 -0.9087 -1.6510
  270MOL0     H36424   3.173   7.459   5.004 -1.4982  0.5802  2.7258
  270MOL0     H36425   3.341   7.483   5.003  2.1385 -0.6481  1.2922
  270MOL0     H36426   3.229   7.241   5.159  1.4782 -3.8340 -1.2714
  270MOL0     H36427   3.391   7.308   5.156 -0.1932 -3.0996  2.0816
  270MOL0     H36428   3.334   7.117   4.998 -2.0985  0.2463  2.2281
  270MOL0     H36429   3.232   7.222   4.903  0.9636 -1.6232 -1.9738
  270MOL0     H36430   2.776   8.048   5.296 -1.1618  1.4936  0.2886
  270MOL0     H36431   2.549   8.132   5.266 -1.0114 -1.3961 -2.2782
  270MOL0     H36432   2.045   7.787   5.143  1.3695 -1.7112  4.4427
  270MOL0     H36433   1.813   7.854   5.122 -3.2931  1.3981  2.1743
  270MOL0     H36434   0.551   9.219   5.571 -0.6323 -0.8948  0.9807
  270MOL0     H36435   0.315   9.173   5.517  0.7963  2.9659 -3.6789
  270MOL0     H36436  -0.040   8.991   5.476  0.2422  1.3571  2.1375
  270MOL0     H36437  -0.289   8.921   5.482 -0.3071  2.1638  2.5167
  270MOL0     H36438  -0.421   8.568   5.717 -0.1437 -0.6766 -1.3946
  270MOL0     H36439  -0.376   8.541   5.553 -0.5037 -0.3576  1.2575
  270MOL0     H36440  -0.612   8.487   5.594 -1.0301  0.6783  1.0946
  270MOL0     H36441  -0.601   8.624   5.480  0.2400  0.7114  0.4685
  270MOL0     H36442  -0.628   8.775   5.702 -0.6911  0.5098  0.5080
  270MOL0     H36443  -0.631   8.614   5.775  3.5197  1.0694 -0.8180
  270MOL0     H36444  -0.829   8.699   5.560 -1.8469  1.0898 -0.0276
  270MOL0     H36445  -0.846   8.555   5.666 -1.8537  0.8569  1.6755
  270MOL0     H36446  -0.963   8.843   5.929  1.5813  1.9869 -1.2685
  270MOL0     H36447  -0.205   8.616   5.738  0.5553 -0.5525 -2.4076
  270MOL0     H36448   0.102   8.578   5.689 -2.7702  0.8608 -2.2369
  270MOL0     H36449   0.126   8.687   5.830 -1.8604  1.4990  0.4121
  270MOL0     H36450  -0.008   8.562   5.811  2.4367 -2.4506 -1.5446
  271MOL0     O36451   3.194   6.989   5.367 -0.4841 -0.4199  0.2823
  271MOL0     C36452   3.198   6.868   5.357 -0.5800  0.1829 -0.5431
  271MOL0     O36453   3.252   6.783   5.450  0.7815 -0.3379 -0.0115
  271MOL0     C36454   3.342   6.833   5.543  0.3836 -0.5602 -0.3544
  271MOL0     C36455   3.438   6.924   5.528  0.1417 -0.6693  0.7100
  271MOL0     C36456   3.531   6.935   5.630 -0.3547  0.7691 -0.8490
  271MOL0     C36457   3.523   6.865   5.754 -0.3890  1.3401  0.3966
  271MOL0     O36458   3.612   6.891   5.856 -0.1434  0.1555 -0.8982
  271MOL0     C36459   3.608   6.810   5.970  0.0651 -0.1198  0.5569
  271MOL0     C36460   3.713   6.858   6.062 -0.9684  0.4087  0.1471
  271MOL0     C36461   3.859   6.813   6.026  0.6774 -0.3232  0.1884
  271MOL0     C36462   3.959   6.867   6.133  0.4903 -1.3625  0.2896
  271MOL0     C36463   4.111   6.876   6.100  0.7582  0.1038 -0.0020
  271MOL0     C36464   4.185   6.996   6.158 -0.0137  0.4062  0.4759
  271MOL0     C36465   4.339   6.987   6.152 -0.1863  0.4512  0.3626
  271MOL0     C36466   4.384   6.904   6.272 -0.3678 -0.3553  0.6786
  271MOL0     N36467   4.528   6.908   6.276 -0.0432  0.4315 -0.5583
  271MOL0     C36468   4.607   6.979   6.365 -0.1679  0.2380  0.1358
  271MOL0     C36469   4.732   6.937   6.333 -0.5093  0.2222 -0.9524
  271MOL0     C36470   4.861   6.956   6.427  0.9599 -0.3185 -0.0048
  271MOL0     C36471   4.982   6.992   6.345  0.6660  0.3384 -0.5208
  271MOL0     C36472   5.054   6.864   6.299  0.3884  0.1018 -0.2845
  271MOL0     C36473   5.185   6.902   6.238  0.8797 -0.0881  1.0947
  271MOL0     O36474   5.140   6.973   6.121  0.3278 -0.4466  0.3643
  271MOL0     C36475   5.228   6.957   6.020  0.7597 -0.7391 -0.1889
  271MOL0     C36476   5.202   6.903   5.891 -0.0774 -0.4973  0.6055
  271MOL0     C36477   5.306   6.868   5.807  0.0479 -0.4525 -0.7156
  271MOL0     C36478   5.435   6.907   5.842 -0.5547  0.9653 -0.3339
  271MOL0     C36479   5.540   6.904   5.731  0.3074 -0.4311 -0.3508
  271MOL0     O36480   5.662   6.935   5.771 -0.6278 -0.5243  0.2581
  271MOL0     C36481   5.753   6.983   5.672  0.4588  0.2097  0.0856
  271MOL0     C36482   5.882   6.943   5.688 -0.0830 -0.8091 -0.0672
  271MOL0     C36483   5.975   6.991   5.598 -0.6685  0.2470  0.1743
  271MOL0     C36484   5.949   7.089   5.507  0.3241 -0.5538 -0.2092
  271MOL0     O36485   6.041   7.123   5.407  0.4923  0.2436  0.1281
  271MOL0     C36486   6.100   7.255   5.403  0.5672 -0.0433 -0.6213
  271MOL0     C36487   6.223   7.263   5.499  0.3502  1.2269  0.2965
  271MOL0     C36488   6.345   7.192   5.434 -0.4449 -0.4745 -0.0554
  271MOL0     C36489   6.387   7.071   5.511  0.8853  0.6018  0.2163
  271MOL0     C36490   6.504   7.004   5.442 -0.0199  0.8104 -0.4858
  271MOL0     C36491   6.644   7.063   5.474  0.9456  0.6240 -0.9907
  271MOL0     C36492   6.687   7.040   5.622  0.2682  0.1289  0.5266
  271MOL0     C36493   6.697   6.889   5.656 -0.1230  0.6654 -0.3138
  271MOL0    Cl36494   6.829   6.813   5.564  0.4404 -0.1402  0.2126
  271MOL0     C36495   5.820   7.136   5.505 -0.3173 -0.2250 -0.9512
  271MOL0     C36496   5.715   7.085   5.581  0.2335 -0.0246 -0.0369
  271MOL0     O36497   5.497   6.886   5.617  0.5766  0.4670  0.1579
  271MOL0     C36498   5.457   6.967   5.961  0.6206  0.2342  0.1175
  271MOL0     C36499   5.356   7.004   6.044  0.1394 -0.2475 -0.4236
  271MOL0     N36500   4.724   6.855   6.219  0.1932 -0.2710  0.5437
  271MOL0     N36501   4.602   6.835   6.192 -0.7016  0.4579 -0.1014
  271MOL0     C36502   3.416   6.771   5.764  0.0542  0.0408 -0.1226
  271MOL0     C36503   3.330   6.764   5.655 -0.1618  0.3253 -0.6250
  271MOL0     C36504   3.123   6.812   5.250  0.1659 -0.6814 -0.1899
  271MOL0     C36505   3.001   6.877   5.211 -0.5802  0.3458 -0.2951
  271MOL0     C36506   2.920   6.825   5.109 -0.3648  0.3139  0.4413
  271MOL0     C36507   2.958   6.712   5.042  0.0179  1.3391 -0.2911
  271MOL0     O36508   2.897   6.665   4.927  0.2328 -0.4479 -0.5642
  271MOL0     C36509   2.844   6.757   4.833 -0.2016 -0.2485 -0.9077
  271MOL0     C36510   2.835   6.697   4.698  0.2719 -0.0532  0.0394
  271MOL0     C36511   2.773   6.789   4.593 -0.3872 -1.2691  0.4765
  271MOL0     C36512   2.863   6.905   4.540  0.3321 -0.8268 -0.0833
  271MOL0     C36513   2.794   6.969   4.431  0.5029  0.9485  0.5781
  271MOL0     C36514   2.741   7.031   4.338 -0.4694  0.2099  0.1306
  271MOL0     C36515   3.060   6.633   5.096  0.0327  0.0307 -0.3648
  271MOL0     C36516   3.142   6.680   5.200  0.0812 -0.2628  0.7206
  271MOL0     C36517   3.256   6.590   5.234  0.5614 -0.5355 -0.0752
  271MOL0     H36518   3.453   6.985   5.439  1.3271  0.2926  1.5354
  271MOL0     H36519   3.608   7.012   5.632  0.8459 -0.3973 -1.1251
  271MOL0     H36520   3.507   6.816   6.013 -2.3107  1.1303 -4.4602
  271MOL0     H36521   3.618   6.705   5.944  0.7166 -0.0099  0.3411
  271MOL0     H36522   3.695   6.814   6.160  0.0282 -0.3895 -0.0070
  271MOL0     H36523   3.711   6.967   6.076  1.5693  0.4200  1.0364
  271MOL0     H36524   3.884   6.862   5.932 -2.8508 -1.8038 -1.7252
  271MOL0     H36525   3.867   6.705   6.015  2.0392 -0.2721  0.5617
  271MOL0     H36526   3.937   6.972   6.155  1.3005 -0.7043 -1.8390
  271MOL0     H36527   3.942   6.813   6.227  0.9559 -0.7421  0.7367
  271MOL0     H36528   4.155   6.783   6.139 -0.7656  0.0411  1.7266
  271MOL0     H36529   4.123   6.870   5.992 -0.2005  0.7704 -0.1547
  271MOL0     H36530   4.141   7.087   6.116 -2.1042 -1.5961 -2.0404
  271MOL0     H36531   4.156   7.011   6.263  0.0952 -0.6682  0.6713
  271MOL0     H36532   4.385   7.084   6.130 -0.0276  0.2379 -0.2850
  271MOL0     H36533   4.360   6.931   6.060  1.2047 -1.5017  1.7926
  271MOL0     H36534   4.337   6.945   6.362 -1.2341 -1.3201  0.6896
  271MOL0     H36535   4.340   6.805   6.262 -1.3395  0.1442 -0.2193
  271MOL0     H36536   4.582   7.040   6.451 -0.4890  2.0724 -1.2004
  271MOL0     H36537   4.829   7.046   6.481 -0.4301 -0.0609 -1.1927
  271MOL0     H36538   4.884   6.873   6.494  2.4155 -1.9424 -2.3715
  271MOL0     H36539   4.944   7.055   6.264  2.9376  0.5429 -1.5100
  271MOL0     H36540   5.048   7.050   6.411  0.4966  1.4966 -1.3294
  271MOL0     H36541   4.996   6.810   6.223  1.1919 -1.8542  0.4392
  271MOL0     H36542   5.069   6.794   6.382  0.3180 -1.2636 -1.3760
  271MOL0     H36543   5.237   6.810   6.211  0.8970  0.0532  0.6323
  271MOL0     H36544   5.247   6.958   6.308  0.3238  4.0684 -1.4014
  271MOL0     H36545   5.097   6.879   5.874 -0.5384 -0.7057  3.3264
  271MOL0     H36546   5.277   6.840   5.706 -3.1395  1.0101 -0.3474
  271MOL0     H36547   5.910   6.878   5.770  0.7972 -0.6279 -0.2055
  271MOL0     H36548   6.079   6.976   5.626 -0.0528  5.0984  1.2901
  271MOL0     H36549   6.131   7.279   5.301  3.4944 -3.3461 -0.7035
  271MOL0     H36550   6.018   7.321   5.434  0.8826  0.0412  0.0514
  271MOL0     H36551   6.252   7.368   5.508 -2.1150  2.2640 -2.2427
  271MOL0     H36552   6.202   7.221   5.597 -2.5580  0.6909 -0.4612
  271MOL0     H36553   6.330   7.168   5.329 -1.9567 -0.9127  0.2263
  271MOL0     H36554   6.434   7.255   5.442  0.5023 -1.8484  0.3780
  271MOL0     H36555   6.305   6.999   5.508  1.7269 -0.3766  0.2992
  271MOL0     H36556   6.412   7.110   5.610 -0.5624 -1.3164  1.4071
  271MOL0     H36557   6.498   7.009   5.333  1.7134 -1.3521 -0.7610
  271MOL0     H36558   6.501   6.897   5.464 -1.0374  1.0356  0.5279
  271MOL0     H36559   6.727   7.024   5.414  2.8581  0.0554  1.8570
  271MOL0     H36560   6.635   7.172   5.464 -2.4926  0.6998  1.2569
  271MOL0     H36561   6.618   7.095   5.686 -2.8520 -1.5154 -1.1719
  271MOL0     H36562   6.783   7.089   5.641 -0.2394  1.2031  0.3829
  271MOL0     H36563   6.722   6.885   5.763 -1.6292  0.9705  0.0812
  271MOL0     H36564   6.612   6.827   5.627 -0.5772  1.1683 -0.0810
  271MOL0     H36565   5.803   7.218   5.435  3.7301  2.6446  1.0372
  271MOL0     H36566   5.618   7.134   5.572  0.8461  1.2047 -0.2766
  271MOL0     H36567   5.552   7.009   5.993  0.4519  0.4833  0.2942
  271MOL0     H36568   5.378   7.053   6.139 -0.6144 -0.4321 -0.1442
  271MOL0     H36569   3.399   6.700   5.844  3.9617 -2.7584 -1.4794
  271MOL0     H36570   3.250   6.690   5.657  1.4872 -1.5381 -0.5147
  271MOL0     H36571   2.956   6.960   5.266  0.5163  0.9361 -0.2512
  271MOL0     H36572   2.827   6.873   5.078 -0.4221  1.0662  1.7185
  271MOL0     H36573   2.920   6.836   4.827 -1.7106  1.2317 -1.3299
  271MOL0     H36574   2.747   6.800   4.860  0.8068  2.6185 -1.5332
  271MOL0     H36575   2.774   6.606   4.706  0.4236 -0.0985  0.7248
  271MOL0     H36576   2.939   6.674   4.674  0.7905  1.8515  0.3060
  271MOL0     H36577   2.681   6.827   4.639 -0.6142 -3.0749  1.6270
  271MOL0     H36578   2.735   6.734   4.506 -1.9081  1.4927 -0.7171
  271MOL0     H36579   2.874   6.982   4.616 -0.3830 -1.3657  0.5943
  271MOL0     H36580   2.962   6.864   4.516 -0.3201 -1.9669 -0.9456
  271MOL0     H36581   2.703   7.096   4.261 -0.1625  1.9193  1.3742
  271MOL0     H36582   3.078   6.533   5.058 -3.4854 -0.6666 -0.5161
  271MOL0     H36583   3.230   6.534   5.325  1.1610  1.4739  1.4051
  271MOL0     H36584   3.265   6.509   5.160 -1.1346 -0.2879 -0.5803
  271MOL0     H36585   3.352   6.640   5.248 -1.2040  2.7702  1.3692
  272MOL0     O36586   2.420   4.385   8.342  0.0820  0.3548 -0.4197
  272MOL0     C36587   2.403   4.279   8.409 -0.2255  0.2210 -0.6601
  272MOL0     O36588   2.326   4.168   8.370 -0.5953  0.1793  0.4838
  272MOL0     C36589   2.242   4.177   8.254  0.2817  0.0297 -0.1719
  272MOL0     C36590   2.164   4.280   8.212  0.4813 -0.2789 -0.4737
  272MOL0     C36591   2.083   4.273   8.098 -0.0803  0.7605 -0.1802
  272MOL0     C36592   2.078   4.160   8.020 -0.9338  0.1398  0.2382
  272MOL0     O36593   1.997   4.139   7.912  0.0531  0.7428  0.3177
  272MOL0     C36594   1.888   4.225   7.888 -0.4464  0.2690 -0.1511
  272MOL0     C36595   1.770   4.168   7.972 -0.0691 -0.6695  0.6941
  272MOL0     C36596   1.639   4.220   7.906 -0.4606  0.1951 -0.3858
  272MOL0     C36597   1.520   4.146   7.967 -0.3514  0.7628  0.4016
  272MOL0     C36598   1.379   4.191   7.910  0.5160  0.1509 -0.6907
  272MOL0     C36599   1.319   4.080   7.824  0.5431 -0.8129  0.5459
  272MOL0     C36600   1.180   4.127   7.779 -0.0489 -0.1120  0.1197
  272MOL0     C36601   1.115   4.030   7.678  0.2152 -0.0614 -0.0983
  272MOL0     N36602   1.121   3.893   7.724  0.1329  0.4069  1.0836
  272MOL0     C36603   1.091   3.850   7.850 -0.3775 -0.3934 -0.9375
  272MOL0     C36604   1.117   3.718   7.840  0.6907  0.4516 -0.1260
  272MOL0     C36605   1.120   3.615   7.951 -0.6304 -0.1125  0.1870
  272MOL0     C36606   1.262   3.560   7.984  0.2465 -0.2410  0.7934
  272MOL0     C36607   1.341   3.666   8.051  0.1876  0.3348 -0.3064
  272MOL0     C36608   1.490   3.624   8.048 -0.2997 -1.1091 -0.7462
  272MOL0     O36609   1.573   3.725   8.101 -0.4980 -0.1564  0.8449
  272MOL0     C36610   1.712   3.696   8.100 -0.3113 -0.6221 -0.5528
  272MOL0     C36611   1.794   3.801   8.140  0.0109 -0.1239 -0.0312
  272MOL0     C36612   1.931   3.791   8.155  0.0140  0.2407  0.5444
  272MOL0     C36613   1.994   3.670   8.122  0.6578 -0.5030  0.5318
  272MOL0     C36614   2.141   3.660   8.130  0.2981 -0.6928 -0.7687
  272MOL0     O36615   2.193   3.534   8.138  0.2899  0.1126  0.5303
  272MOL0     C36616   2.320   3.511   8.191 -1.0625  0.2267  0.3591
  272MOL0     C36617   2.321   3.414   8.293  0.6013 -0.1983 -0.8063
  272MOL0     C36618   2.443   3.381   8.355 -1.0041 -0.8286 -0.1844
  272MOL0     C36619   2.565   3.439   8.310  1.0649 -0.2463 -0.2970
  272MOL0     O36620   2.670   3.395   8.384 -0.1492  0.6934 -0.0861
  272MOL0     C36621   2.795   3.391   8.312 -0.1189  0.5708 -0.7927
  272MOL0     C36622   2.912   3.336   8.398 -0.2943  0.3282  0.4430
  272MOL0     C36623   2.900   3.187   8.422  0.2901  0.0438 -0.1273
  272MOL0     C36624   2.927   3.151   8.560 -0.4745  0.8423 -0.5639
  272MOL0     C36625   2.929   2.991   8.579  0.3634 -1.2441  0.2779
  272MOL0     C36626   3.058   2.929   8.526  0.5962  0.4152  0.2582
  272MOL0     C36627   3.064   2.787   8.573  0.1782 -0.0047 -0.6167
  272MOL0     C36628   3.203   2.720   8.559 -0.1238  0.2191  0.4814
  272MOL0    Cl36629   3.251   2.737   8.380 -0.0702 -0.2833 -0.4604
  272MOL0     C36630   2.561   3.537   8.213 -0.1724 -0.6904 -0.2074
  272MOL0     C36631   2.434   3.575   8.151  0.0810 -0.1901  0.5480
  272MOL0     O36632   2.209   3.765   8.140 -0.4992  0.5259 -0.0197
  272MOL0     C36633   1.913   3.555   8.095 -0.4639 -0.4534  1.0128
  272MOL0     C36634   1.776   3.566   8.086 -0.5220  0.0740 -0.4819
  272MOL0     N36635   1.153   3.678   7.712  0.1690 -0.2110  0.0762
  272MOL0     N36636   1.153   3.787   7.649  0.6931  1.0637  0.3398
  272MOL0     C36637   2.167   4.053   8.056 -0.2650 -0.7731  0.1288
  272MOL0     C36638   2.242   4.062   8.173  0.0192 -0.3350  0.3134
  272MOL0     C36639   2.504   4.246   8.520 -0.6137 -1.1608  0.8164
  272MOL0     C36640   2.533   4.115   8.546 -0.3291  0.0465  0.4858
  272MOL0     C36641   2.631   4.072   8.636 -0.4816  0.5740 -0.2920
  272MOL0     C36642   2.688   4.171   8.711  0.6971 -0.7819 -0.5874
  272MOL0     O36643   2.770   4.154   8.821 -0.1453 -0.3055 -0.0764
  272MOL0     C36644   2.825   4.028   8.853  0.1276  0.6205 -0.7322
  272MOL0     C36645   2.917   4.038   8.981  0.6176  0.3235 -0.9696
  272MOL0     C36646   3.051   4.113   8.939  0.5543  0.0487 -0.1975
  272MOL0     C36647   3.135   4.185   9.043  0.6707  0.4639 -0.2028
  272MOL0     C36648   3.262   4.230   8.991  0.0386  0.3177 -0.4592
  272MOL0     C36649   3.364   4.284   8.949 -0.3095 -0.6170 -0.2662
  272MOL0     C36650   2.659   4.303   8.690  0.8273  0.4422 -0.6856
  272MOL0     C36651   2.578   4.354   8.592 -0.3365 -0.0572 -0.1252
  272MOL0     C36652   2.556   4.503   8.580  0.6776 -0.0252 -0.1415
  272MOL0     H36653   2.161   4.357   8.289 -0.2628 -0.8581  0.0990
  272MOL0     H36654   2.014   4.357   8.084 -2.3613 -0.3345  3.2207
  272MOL0     H36655   1.918   4.328   7.906  0.6093 -0.3678  2.2498
  272MOL0     H36656   1.873   4.206   7.782 -0.3771  1.6935 -0.4347
  272MOL0     H36657   1.775   4.193   8.078 -0.1624 -1.7170  0.9489
  272MOL0     H36658   1.772   4.059   7.965 -0.4808 -0.5640 -2.7493
  272MOL0     H36659   1.646   4.209   7.797  0.0128 -1.5079 -0.2196
  272MOL0     H36660   1.631   4.327   7.928  0.6395  0.3124 -0.4893
  272MOL0     H36661   1.532   4.038   7.956  1.7787  1.0062 -0.1627
  272MOL0     H36662   1.522   4.165   8.074 -2.8431  1.8244  0.3305
  272MOL0     H36663   1.313   4.192   7.997 -1.0965 -0.9671 -1.8380
  272MOL0     H36664   1.377   4.285   7.855 -0.3383 -0.0738 -1.0600
  272MOL0     H36665   1.375   4.053   7.734 -0.4020 -1.1747  0.0488
  272MOL0     H36666   1.312   3.983   7.874 -2.3228 -1.8959 -1.6737
  272MOL0     H36667   1.187   4.233   7.752  0.6218  1.1112  4.2689
  272MOL0     H36668   1.120   4.122   7.871  0.0291 -0.9611  0.1318
  272MOL0     H36669   1.014   4.066   7.655  0.6704  1.9172  0.7351
  272MOL0     H36670   1.167   4.036   7.582 -0.5695 -3.0260 -0.7962
  272MOL0     H36671   1.063   3.899   7.943 -1.7672 -2.7737 -0.0186
  272MOL0     H36672   1.076   3.660   8.040 -0.4810 -0.6545  0.5373
  272MOL0     H36673   1.059   3.530   7.922  1.5641 -1.4011 -0.9603
  272MOL0     H36674   1.257   3.467   8.042  0.5743 -0.7586  0.0088
  272MOL0     H36675   1.307   3.536   7.888 -0.8845 -0.7536  0.3762
  272MOL0     H36676   1.295   3.684   8.149 -1.5797 -1.0564 -0.8302
  272MOL0     H36677   1.332   3.763   8.001  1.5671  0.5618 -0.1522
  272MOL0     H36678   1.524   3.594   7.948  1.9495 -3.1732  0.5542
  272MOL0     H36679   1.500   3.532   8.107 -2.3706  0.6945  2.7358
  272MOL0     H36680   1.751   3.896   8.169 -2.5530 -1.2445  0.1322
  272MOL0     H36681   1.989   3.879   8.180  0.0385 -0.0785  1.6274
  272MOL0     H36682   2.225   3.373   8.322  1.0576 -0.6807  0.0642
  272MOL0     H36683   2.451   3.314   8.441  2.2705  1.0972  1.1847
  272MOL0     H36684   2.786   3.319   8.230  1.1979 -4.7147  3.1718
  272MOL0     H36685   2.820   3.489   8.271  0.6551  0.7692  0.1226
  272MOL0     H36686   3.010   3.356   8.356 -0.3851  3.7343  1.5651
  272MOL0     H36687   2.912   3.389   8.494 -0.5918 -0.8258  1.1049
  272MOL0     H36688   2.800   3.149   8.399  0.4214 -0.3483 -0.0652
  272MOL0     H36689   2.979   3.146   8.359  4.3029  1.4808  3.5020
  272MOL0     H36690   2.862   3.200   8.633  0.3033  0.0419  0.7180
  272MOL0     H36691   3.027   3.186   8.587  0.2021 -0.2569 -1.5426
  272MOL0     H36692   2.848   2.938   8.529  0.7875 -2.2107  0.6053
  272MOL0     H36693   2.919   2.972   8.686  1.7607 -2.0882  0.2820
  272MOL0     H36694   3.059   2.931   8.416  0.8829  0.2519  0.2592
  272MOL0     H36695   3.148   2.980   8.562  0.7899  1.5754 -1.6957
  272MOL0     H36696   2.998   2.726   8.511 -0.0543  0.5676 -0.9460
  272MOL0     H36697   3.046   2.787   8.681 -0.6561 -0.9542 -0.7394
  272MOL0     H36698   3.278   2.772   8.620 -1.0244  0.9709  0.9792
  272MOL0     H36699   3.213   2.614   8.583  0.5723 -0.1657 -1.3392
  272MOL0     H36700   2.651   3.588   8.182 -0.9360  1.6272  1.0568
  272MOL0     H36701   2.436   3.649   8.072 -0.7768 -0.3261  0.3881
  272MOL0     H36702   1.956   3.458   8.074  0.2899 -0.5412  2.7498
  272MOL0     H36703   1.721   3.475   8.065 -0.5911 -0.3176  1.2715
  272MOL0     H36704   2.175   3.960   8.000 -0.2648 -0.9515  0.4255
  272MOL0     H36705   2.295   3.977   8.213 -0.9173  0.2710  3.0647
  272MOL0     H36706   2.499   4.037   8.479  2.2878 -2.0107  1.3832
  272MOL0     H36707   2.664   3.969   8.649  0.4761  0.9915  0.7615
  272MOL0     H36708   2.888   3.996   8.770  0.9363 -0.8296  0.3822
  272MOL0     H36709   2.744   3.958   8.878 -0.4060  1.7980  1.0291
  272MOL0     H36710   2.937   3.934   9.008 -3.0015 -0.2226  0.1738
  272MOL0     H36711   2.869   4.092   9.063  1.1482 -0.4938 -0.1009
  272MOL0     H36712   3.024   4.190   8.867  1.1876  2.0951  1.6413
  272MOL0     H36713   3.117   4.042   8.889  1.2623  2.0228 -2.2042
  272MOL0     H36714   3.076   4.255   9.103 -0.2332  0.6005 -1.2120
  272MOL0     H36715   3.164   4.107   9.114  3.3208  1.0482 -0.5386
  272MOL0     H36716   3.451   4.343   8.929 -0.1538 -0.2605  1.3282
  272MOL0     H36717   2.687   4.382   8.760 -5.1170  0.5515  2.2269
  272MOL0     H36718   2.595   4.531   8.482 -1.7392  1.0372 -0.8948
  272MOL0     H36719   2.449   4.523   8.567  0.8688  0.1947 -1.5702
  272MOL0     H36720   2.600   4.561   8.661  0.4447 -0.2078  0.1175
  273MOL0     O36721   3.093   7.734   0.723 -0.2323  0.6242 -0.5507
  273MOL0     C36722   3.051   7.827   0.794  0.1813  0.4534 -0.5567
  273MOL0     O36723   3.131   7.890   0.888  0.7437  0.1591  0.0815
  273MOL0     C36724   3.263   7.853   0.897  0.5258 -0.5907 -0.4371
  273MOL0     C36725   3.359   7.930   0.835 -0.2628  0.7451  0.8246
  273MOL0     C36726   3.489   7.890   0.829  0.2557  0.2062  0.5590
  273MOL0     C36727   3.533   7.770   0.895  0.0056 -0.2828  0.1534
  273MOL0     O36728   3.666   7.757   0.906 -0.4155 -0.0497 -0.1324
  273MOL0     C36729   3.712   7.633   0.863 -0.2372 -0.6273 -0.2533
  273MOL0     C36730   3.827   7.664   0.778 -0.5101  1.0567  0.7298
  273MOL0     C36731   3.818   7.757   0.657 -1.1082 -0.2446  0.5824
  273MOL0     C36732   3.957   7.781   0.613  0.1816 -0.2169  0.3347
  273MOL0     C36733   3.981   7.882   0.500  0.6923 -0.1182 -0.5552
  273MOL0     C36734   4.096   7.852   0.401 -0.1867 -0.1383  0.3109
  273MOL0     C36735   4.222   7.816   0.479 -0.3157 -0.1457  0.5885
  273MOL0     C36736   4.321   7.748   0.393  0.2244 -0.0263  0.1577
  273MOL0     N36737   4.439   7.721   0.466  0.8760  0.3218 -0.6848
  273MOL0     C36738   4.527   7.817   0.512  0.0813 -0.2007 -1.0523
  273MOL0     C36739   4.624   7.740   0.574 -0.6313  0.5565 -0.2775
  273MOL0     C36740   4.736   7.795   0.653 -0.1002  0.1572 -0.2157
  273MOL0     C36741   4.873   7.752   0.604  0.2526  0.5368 -0.5356
  273MOL0     C36742   4.918   7.619   0.663 -1.0777  0.3450  0.4649
  273MOL0     C36743   4.945   7.634   0.812 -0.2863 -0.2615 -0.8153
  273MOL0     O36744   5.035   7.528   0.855  0.5378 -0.4830 -0.0010
  273MOL0     C36745   5.167   7.546   0.824 -0.3371  0.3834  0.6590
  273MOL0     C36746   5.248   7.439   0.875 -0.2578 -0.6863  0.3130
  273MOL0     C36747   5.383   7.436   0.847  0.0995 -0.6204  0.1871
  273MOL0     C36748   5.447   7.534   0.765  1.0765 -0.4477  0.4138
  273MOL0     C36749   5.587   7.519   0.739  0.2413  0.1076  0.3963
  273MOL0     O36750   5.653   7.426   0.803  0.3785 -0.3573 -0.4803
  273MOL0     C36751   5.788   7.413   0.809 -0.1116 -0.0341  0.4240
  273MOL0     C36752   5.835   7.314   0.892 -0.1119 -0.6564 -0.3908
  273MOL0     C36753   5.961   7.267   0.896 -0.4718 -0.2283  2.3441
  273MOL0     C36754   6.053   7.318   0.810  0.5799  0.0945  0.0703
  273MOL0     O36755   6.170   7.254   0.781 -0.1233  0.1324  0.3662
  273MOL0     C36756   6.243   7.232   0.895 -0.0044  0.3755 -0.0629
  273MOL0     C36757   6.385   7.276   0.876  0.1957  0.4906 -0.4920
  273MOL0     C36758   6.453   7.279   1.013 -0.3376 -0.5332  0.4102
  273MOL0     C36759   6.602   7.311   0.976 -1.3082 -0.0095 -1.4153
  273MOL0     C36760   6.700   7.306   1.104  0.0400  0.2490  0.7014
  273MOL0     C36761   6.822   7.375   1.057  0.4018 -0.0597 -0.0590
  273MOL0     C36762   6.928   7.376   1.164  0.7345  0.3587  0.4094
  273MOL0     C36763   7.038   7.475   1.126  0.0974 -0.3563  0.6107
  273MOL0    Cl36764   7.139   7.504   1.276  0.1505 -0.3172  0.4067
  273MOL0     C36765   6.015   7.437   0.739 -0.2608  0.1749 -0.7196
  273MOL0     C36766   5.887   7.490   0.737 -0.0250 -1.0091  0.0856
  273MOL0     O36767   5.631   7.594   0.651  0.0909 -0.1992  0.3976
  273MOL0     C36768   5.372   7.642   0.723 -0.3653 -0.4270 -0.5739
  273MOL0     C36769   5.235   7.651   0.751  0.0385  0.8120  0.6905
  273MOL0     N36770   4.586   7.611   0.574 -0.3617  0.0964  0.4419
  273MOL0     N36771   4.470   7.595   0.517 -0.3155  0.6505  0.2765
  273MOL0     C36772   3.437   7.699   0.963  0.2097  1.0933 -0.6299
  273MOL0     C36773   3.309   7.739   0.959 -0.3435 -0.1642  0.2820
  273MOL0     C36774   2.911   7.867   0.764 -0.2416 -0.4706 -0.4843
  273MOL0     C36775   2.835   7.816   0.656 -0.2992 -0.5883 -0.0020
  273MOL0     C36776   2.707   7.845   0.628  0.7557  0.4461  0.8173
  273MOL0     C36777   2.635   7.937   0.708 -0.4653 -0.3510 -0.4401
  273MOL0     O36778   2.507   7.981   0.686  0.2173 -0.2908 -0.2979
  273MOL0     C36779   2.428   7.930   0.580  0.1200 -0.7624 -0.1159
  273MOL0     C36780   2.371   7.788   0.610  0.6969 -0.6618  0.2485
  273MOL0     C36781   2.222   7.789   0.593 -0.0016  0.3662 -0.8167
  273MOL0     C36782   2.165   7.790   0.454  0.2161 -0.4760 -0.2305
  273MOL0     C36783   2.021   7.821   0.457 -0.8982 -1.0594 -0.6849
  273MOL0     C36784   1.904   7.856   0.462  0.5194 -0.6908 -0.6136
  273MOL0     C36785   2.710   8.002   0.809 -0.2707  0.2315 -0.6708
  273MOL0     C36786   2.849   7.974   0.837  0.3136 -0.2356  0.8841
  273MOL0     C36787   2.903   8.061   0.946 -0.6073 -0.4874 -0.1205
  273MOL0     H36788   3.319   8.021   0.791 -1.8389  0.1970  1.0681
  273MOL0     H36789   3.570   7.945   0.782  2.0921 -0.8549  2.3266
  273MOL0     H36790   3.741   7.583   0.956 -0.7826  1.6673  1.2139
  273MOL0     H36791   3.639   7.570   0.811 -0.3578 -0.4433 -0.3075
  273MOL0     H36792   3.873   7.568   0.752 -2.6694  0.6354 -2.0154
  273MOL0     H36793   3.896   7.717   0.844  0.1384  1.1405 -0.0118
  273MOL0     H36794   3.778   7.854   0.690 -0.2756  1.6392 -3.3151
  273MOL0     H36795   3.767   7.715   0.570  0.5142 -0.9746 -0.0540
  273MOL0     H36796   4.019   7.800   0.701  0.9157 -4.4773  0.9443
  273MOL0     H36797   3.996   7.687   0.573  1.7579  0.5640 -0.0487
  273MOL0     H36798   3.889   7.889   0.442  0.5399  0.3502 -0.2620
  273MOL0     H36799   3.995   7.975   0.556 -0.8869 -0.0309 -0.2468
  273MOL0     H36800   4.069   7.775   0.328 -1.7016  0.1309  0.5578
  273MOL0     H36801   4.116   7.944   0.346  1.1064  0.8815  2.3784
  273MOL0     H36802   4.201   7.751   0.564 -0.7358  1.3285  1.6363
  273MOL0     H36803   4.266   7.910   0.514  0.6472 -1.2598  2.5077
  273MOL0     H36804   4.275   7.655   0.357 -0.2511 -0.1687  1.1119
  273MOL0     H36805   4.350   7.803   0.303  0.1915 -0.8087 -0.3404
  273MOL0     H36806   4.524   7.926   0.512  0.7414 -0.1558  0.2933
  273MOL0     H36807   4.728   7.904   0.645  3.8792  0.7738  1.6645
  273MOL0     H36808   4.719   7.770   0.758  2.2282 -0.1151  0.1528
  273MOL0     H36809   4.866   7.752   0.495  0.1278  0.0242 -0.5268
  273MOL0     H36810   4.948   7.818   0.648 -0.4343  0.2143  1.1855
  273MOL0     H36811   5.013   7.585   0.622 -1.2345 -1.2035  1.2984
  273MOL0     H36812   4.853   7.534   0.641  0.8018 -0.9008 -0.5812
  273MOL0     H36813   4.854   7.634   0.873  0.5636  1.8426  0.5605
  273MOL0     H36814   4.988   7.733   0.829  1.4570 -0.5627 -2.9578
  273MOL0     H36815   5.205   7.355   0.928  2.5632 -1.6071  1.3273
  273MOL0     H36816   5.449   7.362   0.893  1.3017 -1.0954 -2.1635
  273MOL0     H36817   5.755   7.282   0.959 -2.0978  1.3085 -1.6548
  273MOL0     H36818   5.985   7.176   0.949 -0.7291  0.1123  3.0543
  273MOL0     H36819   6.202   7.286   0.981  2.4434  1.5143  0.4453
  273MOL0     H36820   6.241   7.125   0.918  0.4555  0.1145 -1.2039
  273MOL0     H36821   6.431   7.215   0.798 -0.6573  0.0526 -0.6588
  273MOL0     H36822   6.384   7.381   0.846  2.1486  1.3940  2.1837
  273MOL0     H36823   6.397   7.342   1.082 -1.6273 -0.2035 -0.8808
  273MOL0     H36824   6.449   7.172   1.033 -2.3106 -0.6191 -0.2319
  273MOL0     H36825   6.600   7.408   0.925 -2.5027  1.8685  1.9147
  273MOL0     H36826   6.641   7.232   0.911 -0.5417 -2.1950  1.4835
  273MOL0     H36827   6.721   7.200   1.113 -1.1656 -0.6357 -3.9836
  273MOL0     H36828   6.655   7.332   1.200  0.8821 -0.1570  1.2101
  273MOL0     H36829   6.849   7.307   0.975 -0.5655 -1.1437  0.4865
  273MOL0     H36830   6.808   7.471   1.005 -2.2303  0.0555  0.6877
  273MOL0     H36831   6.976   7.279   1.181  0.1722  0.0068  0.0481
  273MOL0     H36832   6.880   7.415   1.255 -2.9505  3.9488 -2.6798
  273MOL0     H36833   7.090   7.424   1.044 -0.4479  2.1117 -1.3919
  273MOL0     H36834   7.003   7.567   1.079 -0.0027 -0.7107 -0.0188
  273MOL0     H36835   6.087   7.477   0.667 -0.9238  0.8360 -1.0313
  273MOL0     H36836   5.870   7.581   0.681 -1.4294  0.3245  2.5272
  273MOL0     H36837   5.415   7.730   0.676 -2.6731 -0.0343 -2.1476
  273MOL0     H36838   5.183   7.736   0.709 -0.4354 -1.3645 -3.6896
  273MOL0     H36839   3.467   7.610   1.017  1.3783  0.6614 -1.9124
  273MOL0     H36840   3.246   7.678   1.023  3.8394 -2.3170  2.7733
  273MOL0     H36841   2.880   7.752   0.581 -1.2508  0.3730 -1.4575
  273MOL0     H36842   2.664   7.801   0.538 -0.2018 -1.3072  2.0567
  273MOL0     H36843   2.487   7.919   0.489  0.9552 -3.7762  0.6605
  273MOL0     H36844   2.357   8.012   0.567  0.9930  0.7709  3.5501
  273MOL0     H36845   2.411   7.759   0.708  1.2221  0.5687  0.4139
  273MOL0     H36846   2.419   7.725   0.535 -0.1535 -0.2125 -0.6992
  273MOL0     H36847   2.204   7.880   0.651 -0.0108 -1.6284  2.5622
  273MOL0     H36848   2.182   7.702   0.647  4.1073 -2.0048 -1.1578
  273MOL0     H36849   2.220   7.857   0.388  0.1480 -2.2666 -2.2193
  273MOL0     H36850   2.186   7.694   0.406  0.0807 -0.9207  0.5637
  273MOL0     H36851   1.806   7.899   0.473  0.8352 -0.4227  1.5469
  273MOL0     H36852   2.673   8.089   0.863  2.7911  1.8341 -0.9126
  273MOL0     H36853   2.955   8.001   1.021  0.4195  0.3619 -0.1441
  273MOL0     H36854   2.974   8.133   0.905 -0.9266  0.3092  0.6943
  273MOL0     H36855   2.824   8.118   0.996  1.4004  1.2211  1.2374
  274MOL0     O36856   7.192   8.823   1.944 -0.3003  0.0143  0.0502
  274MOL0     C36857   7.160   8.783   1.829  0.0738 -0.3803  0.1324
  274MOL0     O36858   7.249   8.781   1.727 -0.0648 -0.9224  0.7559
  274MOL0     C36859   7.366   8.854   1.743  0.0299  0.1502 -0.2666
  274MOL0     C36860   7.383   8.974   1.664 -0.2476  0.9007 -0.1246
  274MOL0     C36861   7.500   9.046   1.676  0.0163 -0.2673  0.2138
  274MOL0     C36862   7.601   9.002   1.764 -0.3717  1.1486 -0.4656
  274MOL0     O36863   7.712   9.074   1.796  0.3935  0.1710  0.7429
  274MOL0     C36864   7.781   9.148   1.694 -0.7570  0.0227 -1.7517
  274MOL0     C36865   7.906   9.214   1.731 -0.6156  0.0753 -0.6309
  274MOL0     C36866   7.996   9.122   1.813 -0.2727  0.1575  0.3967
  274MOL0     C36867   8.069   9.011   1.744 -0.2219  0.0539 -0.6908
  274MOL0     C36868   8.106   8.899   1.850 -0.2431  0.0641 -0.3301
  274MOL0     C36869   8.218   8.807   1.811  0.3240 -0.3875  0.3714
  274MOL0     C36870   8.258   8.703   1.922  0.6441  1.0720  0.3333
  274MOL0     C36871   8.366   8.754   2.017 -0.0833 -0.4992 -0.0060
  274MOL0     N36872   8.496   8.772   1.948  1.0462  0.0727  0.2365
  274MOL0     C36873   8.577   8.671   1.929 -0.1154 -0.6803 -0.8415
  274MOL0     C36874   8.689   8.723   1.876 -0.3162  0.1828 -0.6077
  274MOL0     C36875   8.803   8.636   1.833 -0.8851 -0.6870  0.0153
  274MOL0     C36876   8.947   8.697   1.839 -0.4449 -0.4693 -0.8451
  274MOL0     C36877   9.004   8.722   1.984 -0.8997  0.0883 -0.6376
  274MOL0     C36878   9.141   8.794   1.991 -0.2593 -0.1752  0.5869
  274MOL0     O36879   9.240   8.712   1.935 -0.6676  0.0674  0.3023
  274MOL0     C36880   9.365   8.755   1.966 -0.9524 -0.2993 -0.3985
  274MOL0     C36881   9.475   8.667   1.980 -0.1403 -0.0714 -0.3768
  274MOL0     C36882   9.602   8.708   2.018  0.3566 -0.2561  0.2464
  274MOL0     C36883   9.634   8.850   2.040  0.1957  0.2945 -0.0522
  274MOL0     C36884   9.762   8.884   2.100 -1.0222 -0.5706  0.7939
  274MOL0     O36885   9.822   8.786   2.176  0.2278 -0.4823  0.1107
  274MOL0     C36886   9.922   8.814   2.260 -0.2551 -0.9522 -0.2077
  274MOL0     C36887  10.021   8.714   2.264  0.1126 -0.3511  0.8693
  274MOL0     C36888  10.129   8.730   2.349 -0.8314  1.8216  0.1364
  274MOL0     C36889  10.153   8.845   2.422  0.0942 -0.2314  0.8909
  274MOL0     O36890  10.268   8.849   2.490  1.1157 -0.5399  0.1645
  274MOL0     C36891  10.269   8.941   2.596  0.3770  0.2701 -0.2829
  274MOL0     C36892  10.373   8.919   2.713 -0.1595  0.9076  0.6483
  274MOL0     C36893  10.524   8.893   2.665  0.2175 -0.3091  0.4573
  274MOL0     C36894  10.632   8.878   2.772  0.7151  0.1447 -0.4083
  274MOL0     C36895  10.636   8.997   2.862  0.3711  0.0389  0.2739
  274MOL0     C36896  10.754   9.000   2.961  0.1318 -0.8432 -0.0064
  274MOL0     C36897  10.874   9.075   2.899  0.0891  0.5522 -0.2591
  274MOL0     C36898  10.992   9.126   2.987  0.1337 -0.0568  1.1092
  274MOL0    Cl36899  11.120   9.218   2.894  0.0993  0.3898 -0.2632
  274MOL0     C36900  10.048   8.943   2.410 -0.2274  0.7447 -0.4111
  274MOL0     C36901   9.934   8.928   2.340 -0.2277 -0.0853 -0.2301
  274MOL0     O36902   9.804   8.997   2.093  0.2024 -0.4151  0.6709
  274MOL0     C36903   9.526   8.940   2.025  0.2084 -1.1012  0.1586
  274MOL0     C36904   9.399   8.893   1.988  0.6996 -0.2203 -0.0419
  274MOL0     N36905   8.683   8.863   1.868 -0.3690  0.4968  0.3050
  274MOL0     N36906   8.564   8.888   1.924 -0.6399  0.4909 -0.0680
  274MOL0     C36907   7.579   8.890   1.850 -0.2270 -0.5765 -0.1162
  274MOL0     C36908   7.470   8.812   1.833  0.7817  0.0579  0.2922
  274MOL0     C36909   7.021   8.733   1.822 -1.1880  0.7549  0.4756
  274MOL0     C36910   6.926   8.755   1.921  0.3564  0.0733  0.5614
  274MOL0     C36911   6.795   8.725   1.911  0.5062 -0.7677 -0.6317
  274MOL0     C36912   6.746   8.683   1.791  0.5537 -0.9041  0.0223
  274MOL0     O36913   6.608   8.658   1.784 -0.0985  0.2237  0.1427
  274MOL0     C36914   6.580   8.514   1.784  0.0175 -0.1061 -0.5226
  274MOL0     C36915   6.440   8.469   1.856 -0.0350  0.5292  0.5611
  274MOL0     C36916   6.441   8.508   2.004 -0.3119  0.0217  0.6303
  274MOL0     C36917   6.301   8.497   2.063  0.0714  0.7279 -0.1313
  274MOL0     C36918   6.231   8.367   2.041 -0.5661 -0.4425  0.4436
  274MOL0     C36919   6.182   8.260   2.017  0.2044 -0.7511  0.0174
  274MOL0     C36920   6.832   8.650   1.691 -0.0237 -0.7295  0.3674
  274MOL0     C36921   6.971   8.677   1.698  0.9098  0.3197 -0.6355
  274MOL0     C36922   7.055   8.649   1.573 -0.3931 -0.8374 -0.1548
  274MOL0     H36923   7.298   9.006   1.605 -0.8695 -1.2927 -0.4912
  274MOL0     H36924   7.535   9.131   1.617  2.1083 -0.5205  0.9819
  274MOL0     H36925   7.810   9.082   1.611 -0.2269 -0.3324 -1.2968
  274MOL0     H36926   7.716   9.227   1.656 -1.3516 -0.5375 -1.9271
  274MOL0     H36927   7.890   9.304   1.791 -0.1077 -0.7901  0.8455
  274MOL0     H36928   7.958   9.240   1.638  2.2746 -0.0584  0.8158
  274MOL0     H36929   7.949   9.081   1.903 -1.2049  2.4068  1.0177
  274MOL0     H36930   8.072   9.192   1.850  1.9364 -1.9524  0.0925
  274MOL0     H36931   8.013   8.973   1.658 -1.2597  0.6406 -0.2844
  274MOL0     H36932   8.158   9.059   1.702  1.1407 -0.7924  1.0925
  274MOL0     H36933   8.137   8.953   1.940  1.6835 -0.6878 -0.4962
  274MOL0     H36934   8.011   8.849   1.874 -3.2957  4.1163 -2.6848
  274MOL0     H36935   8.199   8.760   1.714  0.0111 -1.7162  1.0576
  274MOL0     H36936   8.297   8.879   1.789 -0.5174  0.3579 -0.2687
  274MOL0     H36937   8.294   8.612   1.873  0.0851  0.9920  0.0608
  274MOL0     H36938   8.162   8.685   1.972  0.9725 -1.0817  0.2515
  274MOL0     H36939   8.333   8.856   2.041 -0.6000 -0.2701 -1.5858
  274MOL0     H36940   8.372   8.688   2.104  1.0707 -0.0836  0.2377
  274MOL0     H36941   8.556   8.565   1.930 -2.7536 -0.2082 -1.0413
  274MOL0     H36942   8.800   8.548   1.899 -0.1438 -1.5557 -1.0730
  274MOL0     H36943   8.772   8.596   1.736 -1.8850  0.7517 -0.2980
  274MOL0     H36944   9.007   8.621   1.788 -1.4270 -0.4733 -2.0407
  274MOL0     H36945   8.953   8.793   1.788  2.6150 -1.0187 -1.7346
  274MOL0     H36946   9.004   8.641   2.057  1.8876 -0.2282 -0.8663
  274MOL0     H36947   8.926   8.788   2.023 -1.1475 -0.5080 -0.1171
  274MOL0     H36948   9.168   8.811   2.096 -1.9159  1.0145  0.8648
  274MOL0     H36949   9.138   8.887   1.935 -0.1346 -1.7662 -2.2256
  274MOL0     H36950   9.483   8.561   1.958  2.7778  0.4437 -2.5149
  274MOL0     H36951   9.684   8.638   2.026  1.5490  1.1521  0.8373
  274MOL0     H36952  10.011   8.630   2.196 -5.0099 -0.2215  1.0983
  274MOL0     H36953  10.208   8.657   2.347 -1.6196  0.9687 -1.1829
  274MOL0     H36954  10.279   9.041   2.554 -0.9837  0.7482  0.4865
  274MOL0     H36955  10.171   8.943   2.645  1.1254  0.8767  1.2742
  274MOL0     H36956  10.350   9.001   2.781 -2.0242  0.3969  0.6863
  274MOL0     H36957  10.347   8.829   2.770  1.5162 -0.7978 -1.0880
  274MOL0     H36958  10.519   8.803   2.603  2.4246  0.0594 -0.3736
  274MOL0     H36959  10.549   8.983   2.608  1.5558  0.1763  1.7459
  274MOL0     H36960  10.725   8.860   2.716 -0.6318 -1.6122 -2.2150
  274MOL0     H36961  10.606   8.789   2.829  1.3704  1.6910  2.4630
  274MOL0     H36962  10.551   8.983   2.929 -0.2453 -1.7600 -0.7939
  274MOL0     H36963  10.638   9.093   2.810  1.2778 -0.0275  0.1740
  274MOL0     H36964  10.724   9.053   3.052  0.5177  0.9922 -0.9196
  274MOL0     H36965  10.790   8.902   2.993  0.2198 -1.0294 -0.6561
  274MOL0     H36966  10.833   9.165   2.852 -3.2014 -1.4175 -1.5144
  274MOL0     H36967  10.904   9.010   2.817  1.0053 -0.5030  0.8835
  274MOL0     H36968  10.956   9.185   3.073  2.7989 -0.4372  2.5829
  274MOL0     H36969  11.041   9.040   3.034 -0.7103 -0.1885  1.7867
  274MOL0     H36970  10.065   9.039   2.458  2.1133 -0.0528  0.5154
  274MOL0     H36971   9.857   9.004   2.335 -0.7564 -0.6655 -1.2326
  274MOL0     H36972   9.535   9.048   2.034 -0.1577 -0.8189 -2.2797
  274MOL0     H36973   9.317   8.961   1.967 -0.5894 -1.3526  1.1262
  274MOL0     H36974   7.665   8.849   1.903  0.4790  0.4070 -0.4578
  274MOL0     H36975   7.466   8.713   1.876  1.5603 -0.0060  0.2417
  274MOL0     H36976   6.952   8.799   2.017  0.4456  1.4686 -0.0739
  274MOL0     H36977   6.720   8.752   1.985 -1.3126  1.8116 -3.2015
  274MOL0     H36978   6.660   8.462   1.838  1.4887 -0.3413 -2.7628
  274MOL0     H36979   6.583   8.477   1.681  1.4153  2.9593 -1.7204
  274MOL0     H36980   6.434   8.360   1.846 -3.1996  0.4451  2.0379
  274MOL0     H36981   6.354   8.509   1.802  0.8110 -1.3321 -2.4179
  274MOL0     H36982   6.478   8.611   2.006  1.5308 -0.5610 -0.8174
  274MOL0     H36983   6.518   8.449   2.056 -0.3066 -0.4703  0.0764
  274MOL0     H36984   6.297   8.511   2.171  1.6502 -0.3161  0.0894
  274MOL0     H36985   6.229   8.568   2.021 -1.2945 -1.1473 -1.1750
  274MOL0     H36986   6.140   8.164   1.992 -1.2416  0.2730 -1.7949
  274MOL0     H36987   6.782   8.619   1.600 -0.8372  2.4986 -0.3839
  274MOL0     H36988   7.097   8.745   1.542 -0.6734  0.0046  1.9200
  274MOL0     H36989   7.138   8.579   1.589 -0.4797 -1.5751 -2.5645
  274MOL0     H36990   6.995   8.606   1.493 -1.2771  0.0809  0.0005
  275MOL0     O36991   7.607   3.763   4.278  0.4238 -0.1041 -0.2175
  275MOL0     C36992   7.534   3.688   4.213 -0.6663 -0.2934  0.0964
  275MOL0     O36993   7.581   3.603   4.119 -0.2784 -0.3065 -0.6807
  275MOL0     C36994   7.707   3.616   4.055  0.5614 -0.3190 -0.5783
  275MOL0     C36995   7.819   3.678   4.117  0.7567  0.0451 -0.1674
  275MOL0     C36996   7.944   3.675   4.048  0.4938  0.1366  0.0155
  275MOL0     C36997   7.954   3.644   3.911 -0.1218  0.4746 -0.0300
  275MOL0     O36998   8.074   3.653   3.846 -0.5310 -0.0415  0.2585
  275MOL0     C36999   8.077   3.726   3.721  1.0691  0.0729  0.1508
  275MOL0     C37000   8.220   3.739   3.687 -0.2047  0.3893  0.5174
  275MOL0     C37001   8.249   3.853   3.575  0.1674  0.5099 -0.6311
  275MOL0     C37002   8.401   3.872   3.560  0.1800 -0.1426 -0.0650
  275MOL0     C37003   8.439   3.983   3.450 -0.6173  0.1296 -0.4063
  275MOL0     C37004   8.586   4.017   3.465  0.4349 -0.2505 -0.5162
  275MOL0     C37005   8.685   3.900   3.437 -0.2995 -0.2603 -0.0586
  275MOL0     C37006   8.826   3.925   3.496  0.2248  0.4342  0.7400
  275MOL0     N37007   8.924   3.809   3.488 -0.1086 -0.0169 -0.1315
  275MOL0     C37008   8.894   3.675   3.507 -0.3864 -0.6198  0.8189
  275MOL0     C37009   9.011   3.615   3.539  0.0181 -0.7492 -0.3916
  275MOL0     C37010   9.008   3.472   3.577 -0.4333  0.3797 -0.1687
  275MOL0     C37011   9.149   3.423   3.592 -0.9259 -0.6271 -0.0676
  275MOL0     C37012   9.213   3.438   3.736 -0.6592  0.1723  1.5600
  275MOL0     C37013   9.349   3.374   3.738  0.3123  0.3686  0.1971
  275MOL0     O37014   9.395   3.438   3.862 -0.4622  0.2523  0.0860
  275MOL0     C37015   9.532   3.421   3.885  0.0110  0.1835 -0.6636
  275MOL0     C37016   9.604   3.315   3.844 -0.2671  0.3052 -0.0361
  275MOL0     C37017   9.731   3.295   3.889 -0.6794 -0.1904 -1.0277
  275MOL0     C37018   9.796   3.390   3.972 -0.3120 -0.0787 -0.1997
  275MOL0     C37019   9.933   3.376   4.025 -0.3203  0.9347  0.4272
  275MOL0     O37020   9.960   3.448   4.141 -0.4100  0.5638  0.5300
  275MOL0     C37021  10.088   3.469   4.195 -0.2330 -0.2483  0.2476
  275MOL0     C37022  10.094   3.539   4.310 -1.5325  0.4160 -0.1771
  275MOL0     C37023  10.217   3.570   4.380 -0.5169 -0.5416 -0.3802
  275MOL0     C37024  10.334   3.538   4.322 -0.9340  0.3721 -0.7089
  275MOL0     O37025  10.457   3.561   4.379  0.1984 -0.3294  0.6588
  275MOL0     C37026  10.521   3.664   4.315 -0.9555 -0.0739 -0.1052
  275MOL0     C37027  10.649   3.699   4.390 -0.1254  0.3376 -0.5349
  275MOL0     C37028  10.770   3.608   4.357 -0.5948 -0.4543 -0.2400
  275MOL0     C37029  10.883   3.676   4.272 -0.4766 -0.5242 -0.8341
  275MOL0     C37030  10.989   3.567   4.255  0.4037 -0.0733 -0.0062
  275MOL0     C37031  11.093   3.616   4.156 -0.9737 -0.7395 -0.3655
  275MOL0     C37032  11.206   3.690   4.227 -0.5467 -0.0496 -0.0988
  275MOL0     C37033  11.309   3.759   4.132 -0.1107 -0.8700 -0.2149
  275MOL0    Cl37034  11.459   3.800   4.215  0.3458 -0.6900 -0.0152
  275MOL0     C37035  10.332   3.483   4.193 -0.0595 -0.2663  0.2268
  275MOL0     C37036  10.213   3.452   4.122  0.3293 -0.3313 -0.5990
  275MOL0     O37037  10.010   3.288   3.974  0.2996 -0.0176  0.0294
  275MOL0     C37038   9.728   3.519   3.991  0.1478  0.2867  0.3208
  275MOL0     C37039   9.593   3.526   3.952  0.2748 -0.8781  0.1455
  275MOL0     N37040   9.113   3.712   3.535  0.4198  0.3336  0.1123
  275MOL0     N37041   9.052   3.830   3.512 -0.2581 -0.0756  0.2812
  275MOL0     C37042   7.847   3.570   3.859  0.3571  0.5229  0.2406
  275MOL0     C37043   7.727   3.554   3.926  0.5980 -0.6166 -0.7070
  275MOL0     C37044   7.397   3.672   4.268 -0.4644 -0.0816 -0.4051
  275MOL0     C37045   7.382   3.655   4.406  0.0993  0.0663 -0.2275
  275MOL0     C37046   7.251   3.645   4.457  0.2893 -0.1305 -0.1990
  275MOL0     C37047   7.134   3.663   4.380 -0.4937 -0.3418  0.3318
  275MOL0     O37048   7.015   3.637   4.438  0.6945 -0.2307  0.0896
  275MOL0     C37049   6.902   3.662   4.372  0.1578  0.2567 -0.7637
  275MOL0     C37050   6.804   3.694   4.486  0.1201  0.4086  0.0043
  275MOL0     C37051   6.660   3.726   4.430 -2.1933  0.1871  0.1885
  275MOL0     C37052   6.584   3.805   4.539 -0.6643 -0.5834  0.0625
  275MOL0     C37053   6.647   3.938   4.558 -0.4064 -0.0425  0.9306
  275MOL0     C37054   6.695   4.045   4.579 -0.9826  0.5081 -0.9412
  275MOL0     C37055   7.159   3.676   4.242  0.1873 -0.1354 -0.2032
  275MOL0     C37056   7.290   3.677   4.181  0.2288  0.7762  0.1447
  275MOL0     C37057   7.307   3.671   4.028 -0.2715 -0.2970 -0.4277
  275MOL0     H37058   7.815   3.711   4.221 -0.6508 -1.2076  0.2191
  275MOL0     H37059   8.021   3.730   4.102  0.4299  1.6187 -1.3334
  275MOL0     H37060   8.038   3.649   3.653 -0.1951  0.0655  0.8473
  275MOL0     H37061   8.016   3.817   3.713  1.2332  0.1326 -0.4189
  275MOL0     H37062   8.252   3.639   3.656 -3.1547 -0.8927  1.3229
  275MOL0     H37063   8.272   3.768   3.779  0.3113  1.3054 -0.0426
  275MOL0     H37064   8.204   3.949   3.602 -0.3938  0.4472 -1.3114
  275MOL0     H37065   8.205   3.825   3.478 -1.2911 -0.6157  0.3103
  275MOL0     H37066   8.423   3.894   3.664 -1.9598 -0.4775  0.5055
  275MOL0     H37067   8.438   3.772   3.535 -3.5168 -0.9271 -3.3834
  275MOL0     H37068   8.423   3.935   3.353 -0.9771 -0.8191  0.1099
  275MOL0     H37069   8.375   4.071   3.465 -0.8867 -0.0535 -0.4938
  275MOL0     H37070   8.598   4.092   3.387 -2.0029  2.2004  1.2740
  275MOL0     H37071   8.608   4.066   3.561  0.3093  0.0408 -0.6376
  275MOL0     H37072   8.694   3.895   3.328 -0.5797  0.1954 -0.1058
  275MOL0     H37073   8.649   3.805   3.477 -0.7754 -0.2779 -0.5136
  275MOL0     H37074   8.868   4.013   3.447 -1.1995 -1.0207 -3.5026
  275MOL0     H37075   8.813   3.950   3.602  0.2513  1.9880  0.3882
  275MOL0     H37076   8.798   3.625   3.497 -1.1122  0.5755  1.5111
  275MOL0     H37077   8.962   3.456   3.675  1.3582  0.9643  0.8109
  275MOL0     H37078   8.945   3.416   3.508 -2.3969 -2.4462  3.5755
  275MOL0     H37079   9.144   3.315   3.571 -2.0441 -0.3093 -1.5987
  275MOL0     H37080   9.201   3.473   3.510 -0.3192  0.4189  0.9253
  275MOL0     H37081   9.142   3.394   3.807 -4.1056  1.0396 -1.0804
  275MOL0     H37082   9.229   3.546   3.750 -0.5561  0.2216  1.0528
  275MOL0     H37083   9.410   3.396   3.650 -1.4784 -0.5846 -1.3535
  275MOL0     H37084   9.335   3.266   3.747  0.9480  0.1675 -1.0439
  275MOL0     H37085   9.562   3.233   3.788  2.7690 -0.4142 -1.4818
  275MOL0     H37086   9.776   3.198   3.870 -1.6018 -1.1683  1.3741
  275MOL0     H37087  10.000   3.559   4.361 -1.5097 -0.8599  0.4085
  275MOL0     H37088  10.217   3.623   4.474 -1.2362  0.3490 -0.8765
  275MOL0     H37089  10.543   3.639   4.211  3.8301 -0.1034  0.7164
  275MOL0     H37090  10.458   3.753   4.315 -1.9523 -0.7525  1.0441
  275MOL0     H37091  10.683   3.802   4.374 -0.4784  0.6398  0.5652
  275MOL0     H37092  10.619   3.690   4.495  0.3166  1.3584 -0.3145
  275MOL0     H37093  10.818   3.570   4.447  1.0497  0.9771 -0.4578
  275MOL0     H37094  10.722   3.528   4.300 -2.4170  1.3376 -1.3765
  275MOL0     H37095  10.929   3.770   4.303  0.6326 -0.7216 -1.8157
  275MOL0     H37096  10.830   3.705   4.181 -2.7048  0.1588  0.5884
  275MOL0     H37097  10.947   3.471   4.223 -1.2909  0.3802  0.7897
  275MOL0     H37098  11.031   3.555   4.355 -1.4738  1.3070  0.9847
  275MOL0     H37099  11.142   3.527   4.115 -1.3181 -1.2983  0.4222
  275MOL0     H37100  11.052   3.674   4.073  0.6908  3.7664  1.6177
  275MOL0     H37101  11.266   3.620   4.287  0.3453 -0.8325 -1.8259
  275MOL0     H37102  11.168   3.760   4.301  0.0754 -0.1475  0.3259
  275MOL0     H37103  11.327   3.703   4.040  0.1595 -1.5013  0.2138
  275MOL0     H37104  11.270   3.858   4.107 -0.9879 -0.6294  1.8644
  275MOL0     H37105  10.421   3.461   4.136 -0.1422  1.8162 -0.7967
  275MOL0     H37106  10.198   3.413   4.022 -1.8022  3.4719 -1.9776
  275MOL0     H37107   9.779   3.595   4.049  3.7489 -2.9568  1.8614
  275MOL0     H37108   9.529   3.613   3.965  1.5976 -0.0685  1.5792
  275MOL0     H37109   7.865   3.522   3.763 -0.1883 -1.7997  1.2408
  275MOL0     H37110   7.649   3.487   3.892 -0.5697 -0.5204  1.5557
  275MOL0     H37111   7.466   3.653   4.475 -0.7432 -1.5812  0.8109
  275MOL0     H37112   7.239   3.623   4.562 -1.1517  3.9329  0.6649
  275MOL0     H37113   6.866   3.571   4.322  0.0340 -0.5278  0.6901
  275MOL0     H37114   6.909   3.743   4.299  1.7592 -1.4849 -2.6797
  275MOL0     H37115   6.846   3.779   4.540 -0.7620  0.3505  0.8220
  275MOL0     H37116   6.800   3.612   4.559 -0.9601 -0.4738 -1.0064
  275MOL0     H37117   6.619   3.627   4.412 -1.7374  0.3760 -2.1326
  275MOL0     H37118   6.664   3.782   4.336  1.6297 -2.1010 -1.2086
  275MOL0     H37119   6.481   3.827   4.510 -0.3856  3.9079  1.6605
  275MOL0     H37120   6.581   3.756   4.637  0.2844 -1.1013 -0.1537
  275MOL0     H37121   6.742   4.138   4.605 -0.9484 -0.0282  1.1003
  275MOL0     H37122   7.073   3.680   4.176  1.0840  1.7989 -1.3577
  275MOL0     H37123   7.360   3.760   3.994 -1.4069  0.8366  0.6810
  275MOL0     H37124   7.358   3.578   4.002 -0.6093 -0.4742 -0.4625
  275MOL0     H37125   7.212   3.667   3.973 -0.3246 -1.4682 -0.2921
  276MOL0     O37126   6.389   9.420   1.982 -0.3714 -0.0625  0.4580
  276MOL0     C37127   6.445   9.318   2.013  1.3119  0.5211 -0.4952
  276MOL0     O37128   6.551   9.313   2.101  0.0554  0.2677 -0.3032
  276MOL0     C37129   6.572   9.425   2.182 -0.2828 -0.0012 -0.5611
  276MOL0     C37130   6.662   9.518   2.146 -0.4864  0.7464  0.1609
  276MOL0     C37131   6.682   9.633   2.223  0.1944 -0.2462 -0.7050
  276MOL0     C37132   6.614   9.654   2.344 -0.6640 -0.3266 -0.1352
  276MOL0     O37133   6.638   9.754   2.438  0.5914 -0.5666  0.4278
  276MOL0     C37134   6.650   9.884   2.378  0.5152 -0.5640  0.4620
  276MOL0     C37135   6.743   9.983   2.459  0.0774 -0.3178 -0.1076
  276MOL0     C37136   6.887   9.914   2.471  0.4290 -0.3333 -0.4081
  276MOL0     C37137   7.003  10.020   2.486 -0.6178 -0.4405 -0.4660
  276MOL0     C37138   7.142   9.962   2.482 -1.0389 -0.2653 -0.0721
  276MOL0     C37139   7.235  10.088   2.481 -0.7187  0.1484 -0.7204
  276MOL0     C37140   7.377  10.024   2.457  0.7190 -0.4662 -0.1813
  276MOL0     C37141   7.492  10.134   2.454 -0.6234 -0.2363 -0.7790
  276MOL0     N37142   7.538  10.167   2.591  0.6428  0.1075 -0.7561
  276MOL0     C37143   7.487  10.258   2.680  0.2996  0.1782  0.2779
  276MOL0     C37144   7.573  10.259   2.785 -0.0997 -0.3935  1.3780
  276MOL0     C37145   7.561  10.347   2.900  0.0396 -0.5250  0.3080
  276MOL0     C37146   7.423  10.333   2.976 -0.2312  0.5785  0.1778
  276MOL0     C37147   7.443  10.408   3.112  0.2609 -0.0238  0.9227
  276MOL0     C37148   7.310  10.431   3.190  0.3767  0.6786 -0.5709
  276MOL0     O37149   7.219  10.318   3.206  0.3611  0.8352 -0.5834
  276MOL0     C37150   7.099  10.335   3.270 -0.9271 -1.1964 -0.2419
  276MOL0     C37151   7.015  10.227   3.268  0.6666  0.2987  0.7184
  276MOL0     C37152   6.881  10.231   3.313  0.2841  1.0282  0.5081
  276MOL0     C37153   6.828  10.349   3.368 -0.2339 -0.1655  0.0668
  276MOL0     C37154   6.686  10.353   3.417  0.3505 -1.1537 -0.3180
  276MOL0     O37155   6.630  10.243   3.464  0.2030 -0.4142 -0.5865
  276MOL0     C37156   6.499  10.253   3.504  0.1878 -0.4139 -0.6817
  276MOL0     C37157   6.441  10.342   3.599 -0.3117 -0.3236 -0.9261
  276MOL0     C37158   6.307  10.344   3.629  0.1907  0.0476  0.5636
  276MOL0     C37159   6.225  10.240   3.580  0.1619  0.6545 -0.0716
  276MOL0     O37160   6.092  10.243   3.617  0.5048  0.1759  0.1041
  276MOL0     C37161   6.010  10.155   3.546 -0.2935  0.1856  0.1068
  276MOL0     C37162   5.867  10.176   3.598  0.2918 -0.9362 -0.2782
  276MOL0     C37163   5.819  10.307   3.555 -0.7264  0.2586  0.6145
  276MOL0     C37164   5.727  10.363   3.667 -0.9339 -0.1048  0.6472
  276MOL0     C37165   5.678  10.503   3.631  0.4993  0.0975 -0.2033
  276MOL0     C37166   5.579  10.497   3.514  0.3694  0.3846  0.5803
  276MOL0     C37167   5.517  10.637   3.474 -0.8650  0.0293  0.9351
  276MOL0     C37168   5.447  10.626   3.335  0.7927 -0.6335  0.1440
  276MOL0    Cl37169   5.373  10.780   3.292  0.1326 -0.3591  0.2861
  276MOL0     C37170   6.285  10.142   3.503 -0.5507 -0.3279  0.4158
  276MOL0     C37171   6.417  10.149   3.463 -0.5535  0.0731  0.2423
  276MOL0     O37172   6.637  10.464   3.407 -0.4085  0.7264  0.1394
  276MOL0     C37173   6.916  10.460   3.362  0.1960 -0.1004 -1.1151
  276MOL0     C37174   7.045  10.454   3.319 -0.0255 -0.3626 -0.6692
  276MOL0     N37175   7.668  10.162   2.761 -0.2867 -0.0091  0.3079
  276MOL0     N37176   7.641  10.106   2.652 -0.0304 -0.3325 -0.2440
  276MOL0     C37177   6.525   9.549   2.387  0.0770  0.0591 -0.3913
  276MOL0     C37178   6.501   9.441   2.306 -0.3677  0.0835 -0.0528
  276MOL0     C37179   6.388   9.188   1.954  0.3980 -0.0852  1.3961
  276MOL0     C37180   6.475   9.082   1.960 -0.7910  0.3906  0.4161
  276MOL0     C37181   6.452   8.963   1.885  0.8632 -0.2923 -0.2964
  276MOL0     C37182   6.328   8.932   1.830  0.3243  0.1884  0.2324
  276MOL0     O37183   6.318   8.812   1.767  0.2820 -0.5707  0.0885
  276MOL0     C37184   6.183   8.779   1.709  0.6742 -0.6861 -0.3845
  276MOL0     C37185   6.087   8.722   1.806 -0.6155  0.0141  0.2731
  276MOL0     C37186   5.959   8.658   1.751  0.2765 -0.6156  0.2272
  276MOL0     C37187   5.843   8.665   1.858  0.4757 -0.7799  0.1892
  276MOL0     C37188   5.858   8.594   1.982 -0.1089  0.2915 -0.6960
  276MOL0     C37189   5.862   8.511   2.073 -0.0357  0.5353 -0.1558
  276MOL0     C37190   6.223   9.030   1.852  0.3672 -0.1158 -0.3822
  276MOL0     C37191   6.247   9.157   1.904  0.2465 -0.8347 -0.4284
  276MOL0     C37192   6.143   9.269   1.909 -0.5882 -0.0694  0.6718
  276MOL0     H37193   6.713   9.511   2.050 -2.6642  1.3597 -1.1116
  276MOL0     H37194   6.759   9.702   2.189  0.7515 -1.7629 -2.7232
  276MOL0     H37195   6.684   9.879   2.274  3.0599 -1.0563  1.2405
  276MOL0     H37196   6.554   9.933   2.359  0.6406 -0.9683 -1.4972
  276MOL0     H37197   6.698   9.990   2.558  0.3072 -0.4955  0.0105
  276MOL0     H37198   6.746  10.080   2.408  1.7999 -0.2678  0.0301
  276MOL0     H37199   6.914   9.859   2.381  1.0711 -0.0300 -0.4039
  276MOL0     H37200   6.885   9.851   2.560 -0.7821  2.7118  1.9300
  276MOL0     H37201   7.010  10.088   2.400  1.7632 -1.1408 -0.8766
  276MOL0     H37202   6.994  10.082   2.576  0.8046 -0.0018 -0.6124
  276MOL0     H37203   7.166   9.895   2.565 -3.9829  0.4639  1.5385
  276MOL0     H37204   7.160   9.907   2.390 -0.1302 -0.2984  0.1163
  276MOL0     H37205   7.219  10.167   2.408 -0.9209 -0.2312 -1.0885
  276MOL0     H37206   7.246  10.134   2.580  0.2078 -1.4644 -0.0213
  276MOL0     H37207   7.373   9.967   2.364 -0.9193 -1.3509  0.3993
  276MOL0     H37208   7.396   9.959   2.542  2.3684  0.4554  0.1976
  276MOL0     H37209   7.570  10.100   2.386  0.0910  2.5033 -1.4737
  276MOL0     H37210   7.458  10.229   2.411 -0.1017  0.6297  0.6651
  276MOL0     H37211   7.406  10.330   2.675  1.5737  1.7721  1.3437
  276MOL0     H37212   7.646  10.331   2.967 -1.3104 -2.9367  1.6114
  276MOL0     H37213   7.561  10.452   2.870  1.6034 -0.3866  0.7209
  276MOL0     H37214   7.338  10.367   2.916 -1.5033 -2.3585  0.1471
  276MOL0     H37215   7.402  10.228   2.997 -0.6972 -0.6954 -5.1889
  276MOL0     H37216   7.486  10.508   3.104 -2.2202  1.2815  2.6700
  276MOL0     H37217   7.506  10.344   3.176  0.2251 -1.5196 -0.4883
  276MOL0     H37218   7.248  10.511   3.149 -1.1848  0.7291  1.7593
  276MOL0     H37219   7.345  10.463   3.288 -1.0354  0.0814  0.1474
  276MOL0     H37220   7.038  10.136   3.214  2.1470  0.6055  0.7861
  276MOL0     H37221   6.807  10.154   3.296  0.1191  1.2657  0.1360
  276MOL0     H37222   6.504  10.422   3.638 -1.4163  0.2838 -0.3325
  276MOL0     H37223   6.269  10.418   3.698 -0.0307  0.4077  0.0567
  276MOL0     H37224   6.024  10.183   3.441  0.2405  1.5065  0.5113
  276MOL0     H37225   6.037  10.050   3.559  0.1063  0.2333 -0.2790
  276MOL0     H37226   5.801  10.094   3.566 -0.0863 -0.5080 -0.6119
  276MOL0     H37227   5.884  10.167   3.706 -0.6710  1.5751  0.1350
  276MOL0     H37228   5.905  10.375   3.559  3.9837 -4.5325 -3.4426
  276MOL0     H37229   5.781  10.306   3.452  0.8060 -2.1020 -0.0200
  276MOL0     H37230   5.781  10.360   3.762  0.1705  0.0582  0.0280
  276MOL0     H37231   5.640  10.297   3.679 -1.1374 -0.1489 -0.8580
  276MOL0     H37232   5.762  10.571   3.612  1.2126 -0.5941  0.4096
  276MOL0     H37233   5.613  10.535   3.712 -0.9426  1.3385 -1.7809
  276MOL0     H37234   5.636  10.464   3.427 -0.9070  0.4067 -0.2927
  276MOL0     H37235   5.501  10.426   3.542  1.2218 -0.8674 -0.0718
  276MOL0     H37236   5.585  10.723   3.475 -0.0928 -0.4354 -2.3364
  276MOL0     H37237   5.439  10.658   3.548 -2.9206  2.4287 -1.6918
  276MOL0     H37238   5.520  10.600   3.258  0.5156 -1.8707  0.2824
  276MOL0     H37239   5.370  10.548   3.339  2.2549 -2.1176  0.0977
  276MOL0     H37240   6.242  10.053   3.457 -0.5990 -0.6581  1.0877
  276MOL0     H37241   6.449  10.078   3.388  2.2845  1.1704  0.3186
  276MOL0     H37242   6.878  10.554   3.399  0.7252  1.3416 -3.9833
  276MOL0     H37243   7.101  10.546   3.328  2.5546 -1.9540  0.9224
  276MOL0     H37244   6.476   9.557   2.483  2.6430 -0.0356  1.0271
  276MOL0     H37245   6.431   9.371   2.349  0.5989 -0.3699  0.8418
  276MOL0     H37246   6.570   9.101   2.008  1.1264 -2.5573 -1.8187
  276MOL0     H37247   6.532   8.891   1.870  0.1418 -1.3969  0.9487
  276MOL0     H37248   6.225   8.694   1.653  2.6553 -2.1449  3.0157
  276MOL0     H37249   6.146   8.863   1.650  2.1629  1.6225  1.7624
  276MOL0     H37250   6.067   8.800   1.880 -0.3157  1.3342 -0.9806
  276MOL0     H37251   6.137   8.642   1.861 -3.1183 -2.2920 -0.6237
  276MOL0     H37252   5.982   8.552   1.735  2.0838 -0.4629  1.5076
  276MOL0     H37253   5.932   8.706   1.657 -0.9062 -1.1316  0.2938
  276MOL0     H37254   5.819   8.769   1.879 -1.7672 -0.8242 -1.7315
  276MOL0     H37255   5.748   8.629   1.818 -1.8871  0.9445  3.7600
  276MOL0     H37256   5.863   8.450   2.161  0.4404 -0.5613 -0.8925
  276MOL0     H37257   6.123   9.003   1.818 -0.7280 -0.6988  2.9706
  276MOL0     H37258   6.046   9.234   1.876  0.1771  0.9363 -3.0566
  276MOL0     H37259   6.139   9.312   2.010 -2.6277 -1.3417  1.1834
  276MOL0     H37260   6.167   9.353   1.843 -2.0121 -1.4676 -1.7582
  277MOL0     O37261   6.978   4.324   6.953 -0.2647 -0.6392  0.8180
  277MOL0     C37262   6.956   4.448   6.945  0.9393 -0.8556 -0.2417
  277MOL0     O37263   7.044   4.554   6.950  0.1960 -1.0421  0.6532
  277MOL0     C37264   7.182   4.556   6.928  0.0813  0.3432  0.3534
  277MOL0     C37265   7.264   4.456   6.874 -0.9580 -0.7540  0.3738
  277MOL0     C37266   7.396   4.495   6.839 -0.2176  0.4248 -0.0818
  277MOL0     C37267   7.435   4.628   6.848  0.3856 -0.3027  0.3609
  277MOL0     O37268   7.561   4.670   6.826 -0.5181 -0.1124 -0.6855
  277MOL0     C37269   7.666   4.571   6.806 -0.0927  0.0946 -0.3496
  277MOL0     C37270   7.794   4.663   6.790  0.3014 -0.4552 -0.3117
  277MOL0     C37271   7.914   4.589   6.744 -0.3821 -0.3429  0.2065
  277MOL0     C37272   7.969   4.485   6.843 -0.4603  1.1112 -0.0366
  277MOL0     C37273   8.080   4.554   6.926 -0.6379  0.2042 -1.0765
  277MOL0     C37274   8.156   4.461   7.027  0.4123 -0.2677  1.1721
  277MOL0     C37275   8.273   4.539   7.091 -0.8042  0.0524 -0.3408
  277MOL0     C37276   8.385   4.447   7.167 -0.4157  0.3855  0.2651
  277MOL0     N37277   8.503   4.434   7.082  0.0371 -0.0930  0.6141
  277MOL0     C37278   8.537   4.334   6.991 -0.5131  0.3253  0.1016
  277MOL0     C37279   8.667   4.351   6.952  0.2041 -0.2355 -0.2681
  277MOL0     C37280   8.757   4.275   6.854  0.2667  1.0457 -0.7277
  277MOL0     C37281   8.853   4.180   6.915 -0.1178  0.6205  0.0367
  277MOL0     C37282   8.919   4.096   6.801  0.1241  0.1697  1.3185
  277MOL0     C37283   9.038   4.005   6.843  0.4655  0.9999  0.3144
  277MOL0     O37284   9.159   4.083   6.845 -0.6421 -0.1533  1.0942
  277MOL0     C37285   9.288   4.029   6.832  0.5912  0.3946  0.7040
  277MOL0     C37286   9.319   3.893   6.827 -0.0096 -0.2364 -0.9335
  277MOL0     C37287   9.448   3.845   6.850 -0.5817  0.2553 -1.1379
  277MOL0     C37288   9.553   3.939   6.866  0.4754  0.4374 -0.3208
  277MOL0     C37289   9.695   3.891   6.870 -0.5013  0.8309 -0.1863
  277MOL0     O37290   9.794   3.980   6.879  0.1206 -0.2598  0.0418
  277MOL0     C37291   9.933   3.962   6.886 -0.2596  0.6365 -0.2455
  277MOL0     C37292  10.006   4.085   6.899  0.1994 -0.7116  0.8014
  277MOL0     C37293  10.149   4.083   6.892  0.8183 -0.4632 -0.1938
  277MOL0     C37294  10.214   3.963   6.886 -0.2210 -0.5598 -0.4924
  277MOL0     O37295  10.353   3.969   6.871  0.1957 -0.0929 -0.8185
  277MOL0     C37296  10.429   3.854   6.912  0.3488  0.4998  0.0370
  277MOL0     C37297  10.574   3.882   6.912  0.5505  0.5397  0.0047
  277MOL0     C37298  10.624   4.008   6.988  0.2997  0.1733  0.2342
  277MOL0     C37299  10.756   3.982   7.069 -0.3899 -0.5635  0.8397
  277MOL0     C37300  10.720   3.935   7.210 -0.1986  0.9560 -0.1071
  277MOL0     C37301  10.845   3.908   7.288  0.0566 -0.9236  0.8975
  277MOL0     C37302  10.936   4.036   7.316  1.1453  0.3100  0.3012
  277MOL0     C37303  11.026   4.028   7.436 -0.3148 -0.7546 -0.0607
  277MOL0    Cl37304  11.163   4.158   7.397  0.2283 -0.4776  0.1385
  277MOL0     C37305  10.145   3.838   6.879 -0.0937  0.2018  0.0731
  277MOL0     C37306  10.008   3.842   6.872  0.0535 -0.2193  0.9290
  277MOL0     O37307   9.719   3.774   6.848 -0.0396  0.6434 -0.0550
  277MOL0     C37308   9.524   4.077   6.873  0.1199  0.1846 -0.4264
  277MOL0     C37309   9.389   4.116   6.866 -0.3332 -0.5151  0.0548
  277MOL0     N37310   8.707   4.473   7.010  0.3580  0.7218  0.3443
  277MOL0     N37311   8.610   4.515   7.082 -0.2935  0.1911 -0.2814
  277MOL0     C37312   7.354   4.726   6.902  0.0880  0.5276  0.0681
  277MOL0     C37313   7.236   4.685   6.949  1.2301  0.4341 -0.4100
  277MOL0     C37314   6.809   4.493   6.937 -0.8667 -0.1290  0.4720
  277MOL0     C37315   6.783   4.628   6.926  0.2979  0.6835 -0.1361
  277MOL0     C37316   6.656   4.674   6.908 -1.2586 -0.2916  0.6615
  277MOL0     C37317   6.547   4.587   6.914  0.4474  0.3569 -0.1894
  277MOL0     O37318   6.415   4.612   6.912  0.5768  0.4408  0.1894
  277MOL0     C37319   6.374   4.751   6.888 -0.2580  0.6875  0.0408
  277MOL0     C37320   6.286   4.795   6.998  0.2765 -0.1934 -0.1024
  277MOL0     C37321   6.366   4.831   7.123 -0.3858 -0.8366 -0.5503
  277MOL0     C37322   6.294   4.912   7.230 -0.2380  0.1274 -0.1301
  277MOL0     C37323   6.190   4.835   7.302  0.0067 -0.1059  0.2697
  277MOL0     C37324   6.108   4.776   7.374  0.0714  0.2517  0.3804
  277MOL0     C37325   6.569   4.451   6.933  0.1115  0.0761  0.5463
  277MOL0     C37326   6.699   4.401   6.956  0.5682  0.3415 -0.0461
  277MOL0     C37327   6.708   4.261   6.992  0.2911 -0.0841  0.6956
  277MOL0     H37328   7.245   4.352   6.849  0.4780 -0.8634 -0.3892
  277MOL0     H37329   7.463   4.417   6.806 -2.5327 -1.9918  0.5865
  277MOL0     H37330   7.681   4.505   6.892 -0.6582  3.0229  2.1596
  277MOL0     H37331   7.653   4.519   6.711  1.8865 -0.5585 -0.3033
  277MOL0     H37332   7.822   4.713   6.883  0.6030 -0.3151 -0.4766
  277MOL0     H37333   7.783   4.748   6.722  0.5212  1.5366  1.9794
  277MOL0     H37334   7.984   4.670   6.725 -1.8049  0.3883 -2.3399
  277MOL0     H37335   7.896   4.550   6.644  2.2650  0.3654 -0.6252
  277MOL0     H37336   7.892   4.448   6.911 -1.0013  1.3887 -0.4797
  277MOL0     H37337   8.011   4.397   6.794 -0.5377  1.2234 -0.3083
  277MOL0     H37338   8.159   4.596   6.864  0.7473  1.3459  1.3167
  277MOL0     H37339   8.039   4.634   6.988  3.5679  2.2323 -0.6010
  277MOL0     H37340   8.100   4.432   7.116  1.3024  1.6425  2.4418
  277MOL0     H37341   8.186   4.372   6.971 -0.7456 -0.3356  0.6358
  277MOL0     H37342   8.251   4.608   7.173  1.4414 -0.6229  0.9194
  277MOL0     H37343   8.340   4.594   7.025 -2.0486  3.8340  1.3002
  277MOL0     H37344   8.427   4.501   7.252  0.9318 -0.5816  0.2502
  277MOL0     H37345   8.358   4.349   7.208 -3.3195  1.8232  2.1554
  277MOL0     H37346   8.467   4.258   6.958 -0.1225  1.0169 -2.5194
  277MOL0     H37347   8.694   4.218   6.785 -0.2725 -0.9280  1.2703
  277MOL0     H37348   8.816   4.351   6.801 -1.7261  2.2685 -1.2792
  277MOL0     H37349   8.929   4.228   6.977  1.2317 -0.4817 -0.6997
  277MOL0     H37350   8.789   4.119   6.979 -1.0507  2.0622  0.5290
  277MOL0     H37351   8.940   4.165   6.719  1.4805  2.5405  3.5018
  277MOL0     H37352   8.846   4.029   6.755 -1.0120  1.2492  1.5200
  277MOL0     H37353   9.062   3.923   6.773  4.6562 -0.7844  3.3879
  277MOL0     H37354   9.014   3.963   6.941  1.4517  0.3598  0.3045
  277MOL0     H37355   9.232   3.829   6.814 -2.2092  2.7846 -2.5924
  277MOL0     H37356   9.456   3.737   6.840  1.0474  0.3998 -1.7207
  277MOL0     H37357   9.946   4.175   6.904 -0.2406 -0.8161 -1.3356
  277MOL0     H37358  10.212   4.171   6.901 -0.8249  1.1400 -2.6762
  277MOL0     H37359  10.403   3.827   7.014  1.2707 -0.4330  0.0341
  277MOL0     H37360  10.400   3.776   6.841 -1.3303  0.5115  0.6675
  277MOL0     H37361  10.615   3.792   6.959  2.0171  1.6952  1.0566
  277MOL0     H37362  10.608   3.882   6.808  2.0794  3.8544  0.3839
  277MOL0     H37363  10.641   4.077   6.905  0.3639 -0.5399 -0.3524
  277MOL0     H37364  10.556   4.053   7.061  1.1699  3.4761 -0.8096
  277MOL0     H37365  10.820   4.071   7.071 -1.6234  0.3887 -0.1558
  277MOL0     H37366  10.810   3.896   7.029 -1.8368 -1.0712 -0.1074
  277MOL0     H37367  10.666   3.840   7.210 -1.0209  1.4098  0.5291
  277MOL0     H37368  10.667   4.016   7.260  1.7193  3.3331 -1.7111
  277MOL0     H37369  10.816   3.854   7.379 -1.3108 -0.4624  0.7586
  277MOL0     H37370  10.906   3.837   7.232 -2.4954 -1.7289 -1.0661
  277MOL0     H37371  10.870   4.119   7.345 -2.4745 -1.8770 -1.0516
  277MOL0     H37372  10.993   4.054   7.224  1.4224 -1.8247  0.0031
  277MOL0     H37373  10.972   4.051   7.528  2.7180  2.0997  1.2265
  277MOL0     H37374  11.081   3.934   7.449 -0.2794 -0.5726  1.1810
  277MOL0     H37375  10.192   3.741   6.877 -1.2767 -0.3891 -0.9752
  277MOL0     H37376   9.957   3.748   6.855  0.5558 -0.3977  0.3693
  277MOL0     H37377   9.608   4.144   6.890  0.2389 -0.3570  1.3309
  277MOL0     H37378   9.356   4.217   6.886 -1.4218 -0.3729 -2.2217
  277MOL0     H37379   7.396   4.820   6.937  0.6143 -0.5985  2.7242
  277MOL0     H37380   7.169   4.759   6.992 -1.8710 -1.7452 -1.1245
  277MOL0     H37381   6.861   4.705   6.930 -0.8411  1.8795 -0.1730
  277MOL0     H37382   6.643   4.781   6.893 -0.0097 -0.1523  0.4888
  277MOL0     H37383   6.309   4.768   6.801  0.4039  1.8616 -0.2489
  277MOL0     H37384   6.453   4.822   6.863 -0.3551  0.8803  0.2756
  277MOL0     H37385   6.205   4.725   7.020 -2.1394  1.0177 -4.1488
  277MOL0     H37386   6.231   4.887   6.977 -3.7926 -1.0610  4.7829
  277MOL0     H37387   6.447   4.895   7.087 -0.2212 -0.9165 -0.3259
  277MOL0     H37388   6.407   4.735   7.158  2.0089 -0.2579 -1.5514
  277MOL0     H37389   6.358   4.941   7.314 -3.6858 -0.8575  3.1295
  277MOL0     H37390   6.237   4.992   7.183 -3.5639 -1.2791  1.1725
  277MOL0     H37391   6.036   4.723   7.434  0.5852 -0.4267  0.4127
  277MOL0     H37392   6.483   4.385   6.939 -0.1251 -0.3455 -3.8837
  277MOL0     H37393   6.760   4.240   7.086 -0.4453 -0.0046  1.1323
  277MOL0     H37394   6.611   4.209   6.991 -0.7115  1.7285  0.0748
  277MOL0     H37395   6.756   4.203   6.913 -4.0010 -1.6651 -1.0629
  278MOL0     O37396  10.952   4.341   0.183 -0.3438 -0.0772  0.2637
  278MOL0     C37397  10.853   4.411   0.213  0.0200  0.3464  0.5304
  278MOL0     O37398  10.861   4.520   0.291  0.3701 -0.0177  0.1841
  278MOL0     C37399  10.985   4.572   0.306 -0.3946 -0.9805  0.2469
  278MOL0     C37400  11.025   4.690   0.230 -0.2415  0.2332 -1.5335
  278MOL0     C37401  11.153   4.731   0.251 -0.5842  0.7357  0.2704
  278MOL0     C37402  11.245   4.661   0.334  0.5450 -0.1966  0.1474
  278MOL0     O37403  11.379   4.701   0.336  0.3068  0.4603 -0.6022
  278MOL0     C37404  11.436   4.786   0.233  0.2782 -0.1782 -0.1029
  278MOL0     C37405  11.584   4.759   0.244  0.3641 -0.9470 -0.7741
  278MOL0     C37406  11.628   4.638   0.178  0.6614 -0.4774  0.8147
  278MOL0     C37407  11.639   4.644   0.023  0.5540  0.4455  0.3348
  278MOL0     C37408  11.737   4.741  -0.044  0.5747 -0.0228  0.2681
  278MOL0     C37409  11.747   4.740  -0.192  0.1300  0.2513 -0.3455
  278MOL0     C37410  11.867   4.822  -0.256 -0.4724  0.3003  0.1720
  278MOL0     C37411  11.897   4.958  -0.185 -0.7897 -0.3268 -0.5398
  278MOL0     N37412  11.982   5.039  -0.271  0.7402  0.0742 -0.0067
  278MOL0     C37413  12.088   5.108  -0.230  0.3597 -0.5494 -1.0189
  278MOL0     C37414  12.135   5.169  -0.338 -0.2050 -0.2053  0.9699
  278MOL0     C37415  12.247   5.261  -0.360  0.3892 -0.4265 -0.5541
  278MOL0     C37416  12.373   5.181  -0.387 -0.3640  0.6455  0.3428
  278MOL0     C37417  12.492   5.267  -0.397  0.2931  0.0722 -0.6998
  278MOL0     C37418  12.610   5.177  -0.433  0.6369  0.1506  0.0652
  278MOL0     O37419  12.742   5.220  -0.381  0.0186  0.1271 -0.5207
  278MOL0     C37420  12.848   5.131  -0.404 -0.2584 -0.3493 -0.1579
  278MOL0     C37421  12.838   5.004  -0.458  0.4223 -0.5418  0.4220
  278MOL0     C37422  12.952   4.934  -0.496  0.1855 -0.0656 -0.4444
  278MOL0     C37423  13.080   4.976  -0.467  0.0383  0.0040  0.7809
  278MOL0     C37424  13.197   4.905  -0.524  0.4588  0.8900  0.3040
  278MOL0     O37425  13.304   4.902  -0.445  0.3359  0.3077  0.7139
  278MOL0     C37426  13.404   4.822  -0.487  0.3476  0.3994 -0.1741
  278MOL0     C37427  13.402   4.685  -0.456  0.0735  0.5730  0.0630
  278MOL0     C37428  13.517   4.615  -0.483 -0.0686  0.0953 -0.1232
  278MOL0     C37429  13.637   4.681  -0.517 -0.1818  0.6924  0.2286
  278MOL0     O37430  13.764   4.624  -0.535  0.5026  0.0749 -0.5974
  278MOL0     C37431  13.775   4.502  -0.464 -0.2159 -0.5501 -0.1910
  278MOL0     C37432  13.914   4.451  -0.478  0.0573 -0.9489 -0.2158
  278MOL0     C37433  13.929   4.300  -0.464 -0.1821 -0.0670  0.4440
  278MOL0     C37434  14.074   4.264  -0.436 -0.2817 -0.2614 -0.8041
  278MOL0     C37435  14.088   4.118  -0.408  0.2759 -0.5072 -0.5179
  278MOL0     C37436  14.212   4.089  -0.338 -0.1991  0.3694 -0.2716
  278MOL0     C37437  14.223   3.951  -0.268 -0.3196 -0.6234  0.1903
  278MOL0     C37438  14.241   3.840  -0.372 -0.2480  0.5413 -0.4534
  278MOL0    Cl37439  14.388   3.852  -0.458 -0.0875 -0.2087 -0.0799
  278MOL0     C37440  13.635   4.819  -0.553  0.1148  0.2475 -1.0858
  278MOL0     C37441  13.515   4.887  -0.537  0.2121 -0.3829 -0.6730
  278MOL0     O37442  13.176   4.823  -0.619  0.8386 -0.2023 -0.0014
  278MOL0     C37443  13.095   5.099  -0.398 -0.1220 -0.2078  0.1687
  278MOL0     C37444  12.980   5.176  -0.369 -0.3112  0.4479 -0.1784
  278MOL0     N37445  12.051   5.142  -0.440  1.1799  1.3558  0.2404
  278MOL0     N37446  11.953   5.062  -0.399 -0.5288 -1.0630 -0.0523
  278MOL0     C37447  11.202   4.561   0.409 -0.0596  0.8713  0.8335
  278MOL0     C37448  11.068   4.521   0.400 -0.0288  0.7051 -0.1470
  278MOL0     C37449  10.721   4.373   0.156  0.2475  0.2181 -0.1682
  278MOL0     C37450  10.614   4.459   0.175  0.5155 -0.5364 -0.0753
  278MOL0     C37451  10.489   4.425   0.130  0.0732 -0.0991 -0.0247
  278MOL0     C37452  10.458   4.307   0.066  0.8376  0.8368  0.1968
  278MOL0     O37453  10.332   4.273   0.022  0.3345 -0.7032 -0.1843
  278MOL0     C37454  10.223   4.366   0.043 -0.0454 -0.2632 -0.1018
  278MOL0     C37455  10.083   4.314  -0.010  0.4566 -0.3571 -0.0683
  278MOL0     C37456   9.981   4.428  -0.049  0.0252 -0.1058 -0.0382
  278MOL0     C37457   9.828   4.380  -0.038  0.1128 -1.2832 -0.2810
  278MOL0     C37458   9.732   4.477  -0.090 -0.8365 -0.0543  0.1211
  278MOL0     C37459   9.654   4.562  -0.124  0.3468 -0.9129 -0.3086
  278MOL0     C37460  10.565   4.226   0.041 -0.2963  0.4601  0.1041
  278MOL0     C37461  10.700   4.254   0.083 -0.0862  0.6176 -0.1319
  278MOL0     C37462  10.805   4.144   0.043 -0.0079 -0.9445  0.2561
  278MOL0     H37463  10.962   4.748   0.164 -2.2369 -2.2209 -1.9492
  278MOL0     H37464  11.179   4.812   0.184 -1.5064  1.1549  0.4004
  278MOL0     H37465  11.409   4.743   0.136  1.7399 -0.1326 -0.5582
  278MOL0     H37466  11.402   4.890   0.226 -0.1703 -0.4225 -2.7906
  278MOL0     H37467  11.612   4.757   0.349 -3.7224  3.1243  0.7650
  278MOL0     H37468  11.628   4.850   0.201  0.6196  0.5554  2.3690
  278MOL0     H37469  11.563   4.558   0.215  1.7787 -1.0969  1.4843
  278MOL0     H37470  11.729   4.621   0.216  0.4944 -2.6722  0.3708
  278MOL0     H37471  11.677   4.545  -0.004  0.5734  1.1115 -2.3415
  278MOL0     H37472  11.541   4.648  -0.025  0.6828  0.9296  0.1115
  278MOL0     H37473  11.707   4.842  -0.014  0.7256  0.1423 -0.1281
  278MOL0     H37474  11.833   4.712  -0.002  0.0439 -2.1235  0.1375
  278MOL0     H37475  11.774   4.638  -0.221  1.0384  0.3642  0.0549
  278MOL0     H37476  11.651   4.782  -0.225  0.5636  2.3987  0.9422
  278MOL0     H37477  11.835   4.836  -0.360 -0.1857 -2.1303 -0.3057
  278MOL0     H37478  11.955   4.756  -0.256 -0.9574 -0.4099  1.9983
  278MOL0     H37479  11.807   5.017  -0.167  0.0113  0.8618 -0.2900
  278MOL0     H37480  11.950   4.950  -0.089  0.2050  2.7826 -0.7165
  278MOL0     H37481  12.140   5.114  -0.134 -0.1997  2.1788 -0.8052
  278MOL0     H37482  12.228   5.339  -0.433 -0.7012 -2.0475 -2.1027
  278MOL0     H37483  12.268   5.309  -0.264  1.6302  1.1556 -1.5809
  278MOL0     H37484  12.390   5.108  -0.307  1.2611  0.2171 -0.3365
  278MOL0     H37485  12.357   5.116  -0.474 -3.0115 -0.6117  1.6394
  278MOL0     H37486  12.496   5.323  -0.303 -2.9289  2.8814 -2.0598
  278MOL0     H37487  12.489   5.338  -0.480 -0.4129 -2.1626 -2.6818
  278MOL0     H37488  12.611   5.171  -0.542  1.4127 -1.2895  0.1167
  278MOL0     H37489  12.588   5.073  -0.407 -0.6571  0.7317  1.4313
  278MOL0     H37490  12.740   4.969  -0.489  1.4020 -1.7657 -1.4463
  278MOL0     H37491  12.930   4.835  -0.536 -0.2395 -1.0427  2.0278
  278MOL0     H37492  13.317   4.629  -0.421  2.1740  0.0421  5.2195
  278MOL0     H37493  13.508   4.512  -0.450  0.4619 -0.6836 -2.1976
  278MOL0     H37494  13.743   4.517  -0.360  0.8605 -0.4424  0.1328
  278MOL0     H37495  13.708   4.429  -0.512  0.9365 -1.3216 -0.6778
  278MOL0     H37496  13.957   4.481  -0.574  0.8719  0.7871  0.6460
  278MOL0     H37497  13.957   4.494  -0.387 -1.1707 -0.7567  0.2941
  278MOL0     H37498  13.867   4.275  -0.378  0.0342  0.6015  0.8049
  278MOL0     H37499  13.898   4.247  -0.555  2.2075 -0.0033 -0.4892
  278MOL0     H37500  14.106   4.322  -0.349  0.2746  1.1722 -1.9216
  278MOL0     H37501  14.129   4.296  -0.524  1.9004  0.1503  0.6244
  278MOL0     H37502  14.074   4.060  -0.500 -3.5767 -2.8922  1.3094
  278MOL0     H37503  14.002   4.076  -0.356  0.4872 -0.4561 -0.1224
  278MOL0     H37504  14.298   4.115  -0.399  0.9113  2.2225  1.9308
  278MOL0     H37505  14.226   4.158  -0.254  2.1854  0.8181 -0.9685
  278MOL0     H37506  14.132   3.939  -0.207  0.5942 -0.0752  1.7210
  278MOL0     H37507  14.311   3.955  -0.203 -1.1919  1.3457  1.3613
  278MOL0     H37508  14.237   3.744  -0.320  2.0053  1.0008  0.7426
  278MOL0     H37509  14.161   3.850  -0.446 -1.2134 -0.5673  0.4080
  278MOL0     H37510  13.727   4.866  -0.586  1.0572 -1.1600 -0.5363
  278MOL0     H37511  13.510   4.994  -0.557  0.5786 -0.0599  0.8594
  278MOL0     H37512  13.195   5.133  -0.372 -0.4378  0.0545  1.0554
  278MOL0     H37513  12.984   5.269  -0.314 -0.6739 -0.1155  0.8332
  278MOL0     H37514  11.273   4.509   0.473 -1.3131 -2.3016 -0.1512
  278MOL0     H37515  11.038   4.444   0.470  0.6609 -0.0241 -0.6396
  278MOL0     H37516  10.622   4.559   0.218  0.5632 -0.4748 -0.2278
  278MOL0     H37517  10.429   4.516   0.130  3.0834  2.0146  0.2133
  278MOL0     H37518  10.239   4.461  -0.010  0.2306 -0.1922  0.1071
  278MOL0     H37519  10.224   4.394   0.149 -1.1813 -0.7960  0.0589
  278MOL0     H37520  10.042   4.247   0.066  1.7018  0.7070  1.6032
  278MOL0     H37521  10.095   4.257  -0.102  0.1822  1.4697 -1.2917
  278MOL0     H37522  10.008   4.454  -0.152  3.5882  1.8398  1.2193
  278MOL0     H37523   9.988   4.516   0.016  1.3377  1.4053 -2.1214
  278MOL0     H37524   9.815   4.285  -0.090  2.5726 -2.9686  1.9633
  278MOL0     H37525   9.811   4.362   0.068  2.7183  1.7540  0.8212
  278MOL0     H37526   9.577   4.636  -0.118 -0.4468 -1.7757  0.4480
  278MOL0     H37527  10.533   4.132  -0.001  3.5452 -1.2617  0.6317
  278MOL0     H37528  10.755   4.062  -0.008 -1.6295 -0.6795  1.3402
  278MOL0     H37529  10.874   4.196  -0.024  0.1831 -1.4151  0.0860
  278MOL0     H37530  10.854   4.102   0.132 -2.5270  0.0786  2.2675
  279MOL0     O37531   8.678   6.612  11.222  0.3758  0.0095  0.1455
  279MOL0     C37532   8.663   6.680  11.326 -0.0402 -0.6854 -0.3980
  279MOL0     O37533   8.772   6.699  11.415 -0.0749  0.5537  0.5067
  279MOL0     C37534   8.892   6.627  11.427 -0.2351 -0.3608  0.1132
  279MOL0     C37535   8.948   6.554  11.315 -0.0372 -0.3225  0.3592
  279MOL0     C37536   9.058   6.469  11.339  0.0869 -0.3965  0.1059
  279MOL0     C37537   9.113   6.452  11.469 -1.0271 -0.0590  0.2878
  279MOL0     O37538   9.224   6.365  11.469 -0.1491  1.0082  0.3308
  279MOL0     C37539   9.303   6.359  11.594  0.7704  0.0354  0.3629
  279MOL0     C37540   9.431   6.282  11.561 -0.2726  0.1520 -0.6680
  279MOL0     C37541   9.531   6.278  11.677  0.2516  0.2412 -1.0834
  279MOL0     C37542   9.663   6.206  11.653 -0.6466 -0.8215 -0.2002
  279MOL0     C37543   9.753   6.274  11.552 -1.0461 -0.4683 -0.3799
  279MOL0     C37544   9.812   6.409  11.596  0.1344 -0.3778 -0.4080
  279MOL0     C37545   9.923   6.393  11.702  0.6232 -0.0904  0.6711
  279MOL0     C37546   9.974   6.528  11.753 -0.2437 -0.0555  0.7759
  279MOL0     N37547  10.076   6.502  11.849 -0.2852  1.0002 -0.0617
  279MOL0     C37548  10.062   6.513  11.983 -0.0129 -0.4784 -0.1155
  279MOL0     C37549  10.183   6.480  12.035 -0.2843 -0.3517  0.2665
  279MOL0     C37550  10.236   6.478  12.172  0.8658  0.5041  0.7285
  279MOL0     C37551  10.242   6.624  12.218 -0.4023 -0.4386 -0.1761
  279MOL0     C37552  10.336   6.700  12.121 -0.5261 -0.1458 -1.1352
  279MOL0     C37553  10.475   6.648  12.113  0.2777  0.3537 -0.7961
  279MOL0     O37554  10.552   6.763  12.085  0.1404 -0.0506 -0.6387
  279MOL0     C37555  10.688   6.746  12.100  1.0631 -0.3459  0.1357
  279MOL0     C37556  10.760   6.629  12.084 -0.2432 -0.1901  0.0123
  279MOL0     C37557  10.898   6.611  12.118  0.3358  0.2420  0.2577
  279MOL0     C37558  10.970   6.730  12.160  0.5327  0.1312  0.0739
  279MOL0     C37559  11.119   6.722  12.195 -0.3289  0.8527  0.4910
  279MOL0     O37560  11.156   6.837  12.269  0.3699  0.6637  0.6967
  279MOL0     C37561  11.277   6.819  12.330 -0.3319  0.3207 -0.5752
  279MOL0     C37562  11.394   6.850  12.265 -0.8630 -0.9117  0.2940
  279MOL0     C37563  11.517   6.848  12.334 -0.0482  0.6307  0.0577
  279MOL0     C37564  11.517   6.801  12.466 -0.5265  0.2994 -0.4319
  279MOL0     O37565  11.632   6.803  12.539 -0.5248 -0.4516  0.3948
  279MOL0     C37566  11.751   6.738  12.482  0.5016 -0.3491  0.1312
  279MOL0     C37567  11.872   6.737  12.578 -0.0473 -0.3188 -0.6461
  279MOL0     C37568  11.915   6.884  12.609 -0.0890  0.4962  0.6815
  279MOL0     C37569  11.828   6.964  12.698  0.1300  0.7936  0.2639
  279MOL0     C37570  11.889   7.085  12.766 -0.5222  0.3455  0.1909
  279MOL0     C37571  11.941   7.196  12.667 -0.0936 -0.1469  0.2716
  279MOL0     C37572  12.022   7.305  12.747 -0.6345  0.2091  0.0432
  279MOL0     C37573  11.926   7.407  12.807 -0.5081 -0.2344  0.2094
  279MOL0    Cl37574  12.011   7.539  12.897 -0.4953  0.1910 -0.3447
  279MOL0     C37575  11.401   6.765  12.526  0.8760  0.3968  0.6464
  279MOL0     C37576  11.277   6.775  12.458  0.3688 -0.2984  0.0108
  279MOL0     O37577  11.189   6.619  12.181  1.0226 -0.1648  0.0410
  279MOL0     C37578  10.894   6.855  12.168  0.5677  0.0182 -0.2847
  279MOL0     C37579  10.758   6.863  12.136  0.5486 -0.0389 -0.0556
  279MOL0     N37580  10.264   6.445  11.930  1.1325 -0.4046 -0.1960
  279MOL0     N37581  10.202   6.448  11.821  0.5630  0.2747 -0.3230
  279MOL0     C37582   9.048   6.515  11.579 -0.0870 -0.2917 -0.1445
  279MOL0     C37583   8.942   6.599  11.552 -0.4635 -0.1701 -0.6541
  279MOL0     C37584   8.551   6.775  11.345  0.2006 -0.3223 -0.2295
  279MOL0     C37585   8.583   6.892  11.411 -0.0314 -0.6763 -0.2138
  279MOL0     C37586   8.491   6.989  11.438  0.0616 -0.0116 -0.1185
  279MOL0     C37587   8.357   6.977  11.390 -0.0990 -0.3515  0.2319
  279MOL0     O37588   8.270   7.079  11.410 -0.2641 -0.3691  0.2239
  279MOL0     C37589   8.130   7.065  11.373  0.5234  0.2359  0.7784
  279MOL0     C37590   8.046   6.980  11.469  0.1995  0.1677 -0.3476
  279MOL0     C37591   8.041   7.038  11.615  0.3056  0.5457 -0.2074
  279MOL0     C37592   7.910   7.018  11.693 -0.0465 -0.2594  0.3060
  279MOL0     C37593   7.797   7.085  11.632  0.2674  0.2446 -0.2980
  279MOL0     C37594   7.696   7.124  11.573 -0.0307  0.0708  0.4513
  279MOL0     C37595   8.327   6.868  11.310  0.9004 -0.2503  0.0212
  279MOL0     C37596   8.416   6.760  11.298 -0.3561  0.4654  0.5224
  279MOL0     C37597   8.367   6.630  11.226  0.1587  1.1703 -1.0236
  279MOL0     H37598   8.912   6.572  11.214  2.0538  1.7226 -0.1178
  279MOL0     H37599   9.110   6.414  11.261 -1.6481  0.4140 -1.7126
  279MOL0     H37600   9.320   6.465  11.617  0.5937  0.6811 -2.1867
  279MOL0     H37601   9.250   6.311  11.677  0.8706 -1.7513 -0.5648
  279MOL0     H37602   9.480   6.329  11.476  1.2083  1.0812  0.6328
  279MOL0     H37603   9.399   6.178  11.548  0.0650 -0.8179  4.2093
  279MOL0     H37604   9.471   6.228  11.753  1.9377  1.3207  1.0559
  279MOL0     H37605   9.554   6.381  11.706 -1.3599  0.2489  0.2818
  279MOL0     H37606   9.707   6.198  11.753  0.7330 -1.0841 -0.8087
  279MOL0     H37607   9.638   6.105  11.617  0.0351 -1.4204  0.9586
  279MOL0     H37608   9.837   6.205  11.535 -1.2014 -0.8499  0.3487
  279MOL0     H37609   9.700   6.293  11.459  1.2023  0.9349 -1.4693
  279MOL0     H37610   9.856   6.465  11.513 -1.6462  1.1176 -0.4017
  279MOL0     H37611   9.732   6.475  11.631  2.0461  0.7918  1.9666
  279MOL0     H37612  10.005   6.337  11.655  1.1069 -0.3402  1.7881
  279MOL0     H37613   9.899   6.337  11.792  2.3176 -0.1914  1.1012
  279MOL0     H37614   9.994   6.589  11.665 -2.7885 -1.1051 -0.6181
  279MOL0     H37615   9.886   6.575  11.798  0.0397  0.5300  0.7319
  279MOL0     H37616   9.979   6.550  12.041 -0.1086 -2.0490  0.8229
  279MOL0     H37617  10.164   6.429  12.239 -2.7069  4.0351 -0.1667
  279MOL0     H37618  10.331   6.425  12.188  0.3328 -0.7440 -0.0842
  279MOL0     H37619  10.147   6.676  12.202  0.9574  1.4743 -2.9745
  279MOL0     H37620  10.278   6.641  12.320 -0.3080 -1.8269  0.0408
  279MOL0     H37621  10.341   6.802  12.160 -0.1799 -0.6026  0.0465
  279MOL0     H37622  10.304   6.701  12.016  0.3276 -2.4388 -1.4677
  279MOL0     H37623  10.476   6.563  12.045  3.2149 -2.7780  2.6564
  279MOL0     H37624  10.498   6.608  12.212  0.9804  1.7158 -0.3790
  279MOL0     H37625  10.710   6.543  12.041  0.4646  0.3817 -2.0623
  279MOL0     H37626  10.951   6.516  12.113 -2.3148 -1.2869 -0.4280
  279MOL0     H37627  11.384   6.888  12.164 -2.3133  0.0090  0.7557
  279MOL0     H37628  11.613   6.878  12.294 -0.0422  0.9200  0.2856
  279MOL0     H37629  11.735   6.640  12.438  0.2003  0.5182 -1.8239
  279MOL0     H37630  11.787   6.797  12.397  1.7787  0.8695  1.4642
  279MOL0     H37631  11.836   6.676  12.661  2.2674  0.6611  1.1898
  279MOL0     H37632  11.957   6.688  12.528 -1.4924  0.7954 -4.5021
  279MOL0     H37633  12.014   6.884  12.655  0.8070 -0.0549 -1.1402
  279MOL0     H37634  11.924   6.933  12.511  1.5754  0.2028  0.6609
  279MOL0     H37635  11.780   6.892  12.765  0.3859 -1.3077 -1.6597
  279MOL0     H37636  11.760   7.023  12.636  0.5044  2.6161  1.4913
  279MOL0     H37637  11.967   7.054  12.835  0.0463  0.6282 -0.3084
  279MOL0     H37638  11.808   7.122  12.829 -2.1442 -2.6938  0.0643
  279MOL0     H37639  12.016   7.152  12.601  1.1825 -0.2266  1.7141
  279MOL0     H37640  11.852   7.239  12.620 -0.0686  0.1926  0.5257
  279MOL0     H37641  12.085   7.347  12.668 -1.0164 -0.5454 -0.6676
  279MOL0     H37642  12.082   7.268  12.832 -0.6752  2.3469  1.0631
  279MOL0     H37643  11.880   7.460  12.723 -0.1616 -1.6785 -0.9484
  279MOL0     H37644  11.854   7.361  12.876 -1.1485  0.3215 -0.0802
  279MOL0     H37645  11.403   6.730  12.629  1.9622 -1.4095  0.0514
  279MOL0     H37646  11.184   6.749  12.509  0.5525 -0.2304  0.3815
  279MOL0     H37647  10.923   6.954  12.203 -0.6684  0.6264 -0.9104
  279MOL0     H37648  10.706   6.958  12.138  2.4405  1.0448  0.2866
  279MOL0     H37649   9.082   6.506  11.682 -1.3637 -0.0160  0.3123
  279MOL0     H37650   8.918   6.664  11.635  2.0700 -1.2591  1.0761
  279MOL0     H37651   8.684   6.916  11.442 -1.5549  4.6738  1.6678
  279MOL0     H37652   8.502   7.085  11.489  0.5543  0.0455 -0.3290
  279MOL0     H37653   8.122   7.017  11.275  2.9855 -1.8907  1.5229
  279MOL0     H37654   8.090   7.167  11.364  0.9349  0.2206 -2.7101
  279MOL0     H37655   8.071   6.875  11.455 -2.8874 -0.6692 -0.1463
  279MOL0     H37656   7.944   6.984  11.430 -0.7038 -1.4704  1.6433
  279MOL0     H37657   8.070   7.143  11.621  1.6931  0.0980  2.9783
  279MOL0     H37658   8.115   6.984  11.675 -1.6953  1.6001  3.4798
  279MOL0     H37659   7.899   6.909  11.691  3.4710 -0.7644 -1.9891
  279MOL0     H37660   7.928   7.060  11.793  1.6240  2.6235 -1.0812
  279MOL0     H37661   7.597   7.146  11.539 -0.5075  0.1279  1.8134
  279MOL0     H37662   8.229   6.854  11.267  0.3952  2.2548  0.1881
  279MOL0     H37663   8.287   6.656  11.157 -4.0952 -2.5400  1.9280
  279MOL0     H37664   8.443   6.588  11.161  1.4432  2.1515 -0.2166
  279MOL0     H37665   8.341   6.557  11.303 -1.6369 -0.0636 -2.7216
  280MOL0     O37666   6.188   3.419   0.329 -0.3131  0.7032 -0.4768
  280MOL0     C37667   6.172   3.507   0.414 -0.7769 -0.6600  0.6896
  280MOL0     O37668   6.247   3.617   0.418  0.0857 -0.1230  0.1534
  280MOL0     C37669   6.360   3.613   0.335  0.0065  0.7051  0.2480
  280MOL0     C37670   6.341   3.681   0.210  0.3469 -0.3165 -0.2614
  280MOL0     C37671   6.458   3.687   0.139 -0.3116  0.5998  0.6646
  280MOL0     C37672   6.582   3.641   0.174  0.2779  0.6573 -0.7202
  280MOL0     O37673   6.677   3.659   0.079 -0.2272  0.3335 -0.4512
  280MOL0     C37674   6.815   3.654   0.124 -0.1263  0.9271  0.0042
  280MOL0     C37675   6.899   3.675  -0.004 -0.1570 -0.9039 -0.1248
  280MOL0     C37676   7.044   3.669   0.026 -0.7824 -0.4106  0.5443
  280MOL0     C37677   7.110   3.703  -0.100 -0.8320  0.1762  0.7289
  280MOL0     C37678   7.261   3.677  -0.089  0.7491  0.9683 -0.0695
  280MOL0     C37679   7.323   3.716  -0.218  0.0926  0.9555  0.0452
  280MOL0     C37680   7.474   3.742  -0.202 -0.0683  0.2660  0.1661
  280MOL0     C37681   7.557   3.622  -0.139  0.5074 -1.2494  0.0994
  280MOL0     N37682   7.700   3.618  -0.151  0.4673  0.0345  0.0841
  280MOL0     C37683   7.779   3.500  -0.134 -0.1424  0.1262 -0.5298
  280MOL0     C37684   7.904   3.546  -0.153  0.7192  0.6977  0.4457
  280MOL0     C37685   8.028   3.458  -0.140 -0.9365 -0.2110 -0.1005
  280MOL0     C37686   8.114   3.458  -0.265 -1.2798 -0.0520  0.0162
  280MOL0     C37687   8.209   3.579  -0.295 -0.0833  0.5354  0.6524
  280MOL0     C37688   8.208   3.698  -0.197 -0.0772  0.3467 -0.7124
  280MOL0     O37689   8.323   3.775  -0.217 -0.7731 -0.5970 -0.4069
  280MOL0     C37690   8.402   3.807  -0.111 -0.6697 -0.3540  0.0794
  280MOL0     C37691   8.526   3.852  -0.150  0.1681  0.0957  0.4517
  280MOL0     C37692   8.628   3.883  -0.058 -0.1943  0.0871  0.1094
  280MOL0     C37693   8.601   3.856   0.075 -0.1074 -0.1683 -1.0989
  280MOL0     C37694   8.711   3.883   0.172 -0.1742 -0.3649  0.2961
  280MOL0     O37695   8.826   3.876   0.122 -0.1146  0.0014 -0.2182
  280MOL0     C37696   8.941   3.892   0.194  0.4991 -1.4030 -0.1498
  280MOL0     C37697   8.957   3.997   0.293  0.2393  0.8953  0.5448
  280MOL0     C37698   9.077   4.022   0.354 -0.3604  0.6753 -0.6014
  280MOL0     C37699   9.184   3.929   0.320 -0.8469  0.0025 -0.4927
  280MOL0     O37700   9.308   3.955   0.386 -0.2770  0.2886 -0.8966
  280MOL0     C37701   9.389   3.836   0.401 -0.3291 -0.5180 -0.4254
  280MOL0     C37702   9.492   3.852   0.523  0.0304  0.4185 -0.8840
  280MOL0     C37703   9.432   3.907   0.659  0.2697  0.2448  0.8009
  280MOL0     C37704   9.329   3.810   0.712  0.0998  0.2745  0.8466
  280MOL0     C37705   9.267   3.836   0.852 -0.6903  0.7809  0.0085
  280MOL0     C37706   9.156   3.741   0.894 -0.3659  0.0002 -1.1945
  280MOL0     C37707   9.031   3.727   0.802 -0.1562  0.6333  0.0396
  280MOL0     C37708   8.940   3.857   0.791 -0.2644  0.9162 -0.1590
  280MOL0    Cl37709   8.823   3.841   0.922 -0.1122  0.1208 -0.4430
  280MOL0     C37710   9.172   3.835   0.217 -0.1644 -0.0574  1.6975
  280MOL0     C37711   9.056   3.818   0.156  1.1906 -0.2004 -0.0351
  280MOL0     O37712   8.686   3.887   0.292 -0.1147  0.5888 -0.5663
  280MOL0     C37713   8.474   3.828   0.120  0.3729  0.0765 -0.0742
  280MOL0     C37714   8.378   3.808   0.022  0.2265 -0.7645 -0.4685
  280MOL0     N37715   7.898   3.680  -0.176 -1.0407 -0.1578  0.1341
  280MOL0     N37716   7.779   3.720  -0.165  0.6151  0.0328  0.1354
  280MOL0     C37717   6.597   3.567   0.298  0.2882  0.0645  0.2796
  280MOL0     C37718   6.479   3.552   0.371 -0.0826 -0.3123  0.5241
  280MOL0     C37719   6.061   3.494   0.502 -0.0107 -0.1945  0.6183
  280MOL0     C37720   6.066   3.521   0.640 -0.4277  1.0222 -0.4460
  280MOL0     C37721   5.966   3.491   0.731  0.3008 -0.5653  0.6920
  280MOL0     C37722   5.844   3.440   0.679 -0.0469  0.8944  0.0262
  280MOL0     O37723   5.735   3.408   0.757 -0.0889 -0.4808  0.0753
  280MOL0     C37724   5.748   3.390   0.898 -0.4784  0.0920  0.8133
  280MOL0     C37725   5.650   3.275   0.944  0.8779 -0.3881  0.2532
  280MOL0     C37726   5.502   3.332   0.935  0.4686 -0.3761 -0.2695
  280MOL0     C37727   5.390   3.218   0.964 -0.8843  0.5424  0.0367
  280MOL0     C37728   5.260   3.281   0.976  0.1016  0.0249 -0.2730
  280MOL0     C37729   5.158   3.345   0.987 -0.2873 -0.3713 -0.7829
  280MOL0     C37730   5.827   3.419   0.539 -0.1366 -0.7166 -0.4506
  280MOL0     C37731   5.938   3.443   0.450 -0.3818 -0.7150 -0.2085
  280MOL0     C37732   5.917   3.422   0.301  0.0145 -0.0388 -0.0548
  280MOL0     H37733   6.252   3.729   0.171  1.1609  3.0420  1.6192
  280MOL0     H37734   6.441   3.742   0.047 -0.6755  0.3993  0.6081
  280MOL0     H37735   6.844   3.730   0.197  1.6180 -1.4958  1.9941
  280MOL0     H37736   6.838   3.557   0.169 -0.9210  2.6550  4.6456
  280MOL0     H37737   6.877   3.774  -0.045  0.7310  0.2976  2.1628
  280MOL0     H37738   6.871   3.611  -0.088 -2.2593  0.6369 -0.6658
  280MOL0     H37739   7.078   3.568   0.051  1.7845  0.0070 -0.9136
  280MOL0     H37740   7.070   3.735   0.109 -0.0493 -2.7452  2.2973
  280MOL0     H37741   7.063   3.635  -0.172  0.9980 -0.6187  0.2301
  280MOL0     H37742   7.102   3.809  -0.126 -2.5025  0.2052  1.2440
  280MOL0     H37743   7.304   3.730  -0.004 -1.2846 -1.3692  2.6111
  280MOL0     H37744   7.287   3.572  -0.073  1.9112  1.3175  0.4066
  280MOL0     H37745   7.294   3.648  -0.298  3.6344 -0.4210 -0.2619
  280MOL0     H37746   7.277   3.811  -0.247 -1.2718  0.2859 -0.0338
  280MOL0     H37747   7.482   3.826  -0.132 -1.9335 -0.2070  1.0292
  280MOL0     H37748   7.523   3.770  -0.295 -0.3762  0.6524  0.1203
  280MOL0     H37749   7.524   3.612  -0.035  1.0128  0.9781  0.5165
  280MOL0     H37750   7.510   3.550  -0.207 -0.6026  2.1081 -3.0056
  280MOL0     H37751   7.745   3.399  -0.113 -0.6986 -0.2308 -2.7893
  280MOL0     H37752   8.100   3.486  -0.062 -1.1878  1.7328 -0.5038
  280MOL0     H37753   8.000   3.354  -0.122  1.7542 -0.6566  2.2080
  280MOL0     H37754   8.182   3.373  -0.267 -1.9385 -0.5910 -0.1720
  280MOL0     H37755   8.035   3.449  -0.340 -1.2559  0.3403 -0.0573
  280MOL0     H37756   8.187   3.616  -0.395  2.9101 -0.2865 -0.4068
  280MOL0     H37757   8.312   3.544  -0.288 -0.2983 -0.2385  0.0159
  280MOL0     H37758   8.212   3.665  -0.093  1.9559  2.3750 -0.0704
  280MOL0     H37759   8.118   3.758  -0.218  0.6153  1.9420  0.6718
  280MOL0     H37760   8.553   3.857  -0.255 -1.5495 -0.8219 -0.0585
  280MOL0     H37761   8.722   3.913  -0.102 -0.1350  2.2380  1.5712
  280MOL0     H37762   8.870   4.060   0.307  0.4268  1.1738  0.4657
  280MOL0     H37763   9.088   4.110   0.417  0.2192  1.7557 -2.1401
  280MOL0     H37764   9.327   3.746   0.414 -2.7880  0.7169 -2.6621
  280MOL0     H37765   9.450   3.824   0.311  2.7783 -0.0936  1.4906
  280MOL0     H37766   9.530   3.753   0.552 -0.3209  0.5039 -0.0981
  280MOL0     H37767   9.579   3.914   0.502  1.4064 -0.6962  1.1954
  280MOL0     H37768   9.512   3.919   0.732 -1.9379 -0.7516  3.5747
  280MOL0     H37769   9.389   4.006   0.642  1.8927  1.0418  1.1316
  280MOL0     H37770   9.357   3.705   0.719  1.2314  0.1793 -3.0131
  280MOL0     H37771   9.250   3.811   0.637  1.2448  0.8506 -0.4106
  280MOL0     H37772   9.231   3.939   0.855 -0.0511  0.9930  0.6682
  280MOL0     H37773   9.350   3.820   0.922 -0.1796 -1.6700 -1.0436
  280MOL0     H37774   9.202   3.642   0.898 -2.5042 -1.0336 -1.0426
  280MOL0     H37775   9.127   3.754   0.999 -1.4138 -0.1276 -1.4588
  280MOL0     H37776   8.976   3.639   0.837 -1.9408  1.3233 -0.8998
  280MOL0     H37777   9.072   3.698   0.705 -0.7399  0.2155 -0.0831
  280MOL0     H37778   8.995   3.952   0.787  1.4976 -0.0914 -3.2790
  280MOL0     H37779   8.882   3.844   0.699 -1.1345  0.2958  0.4667
  280MOL0     H37780   9.261   3.780   0.187 -0.1763  1.1514 -0.7554
  280MOL0     H37781   9.030   3.740   0.086 -3.2852 -0.6523  1.7798
  280MOL0     H37782   8.444   3.820   0.224 -2.7660 -0.9820 -0.9409
  280MOL0     H37783   8.276   3.806   0.059  1.5145 -0.0261  3.7177
  280MOL0     H37784   6.698   3.537   0.327 -0.1022 -1.3323  0.2988
  280MOL0     H37785   6.472   3.510   0.471 -0.9573  1.5586  1.2943
  280MOL0     H37786   6.161   3.561   0.674  0.0972  0.6463 -1.4251
  280MOL0     H37787   5.980   3.516   0.835 -0.6736 -2.1740  1.2382
  280MOL0     H37788   5.732   3.481   0.958 -2.2669 -2.0896  3.9695
  280MOL0     H37789   5.849   3.357   0.922 -0.2753  0.2188  0.1335
  280MOL0     H37790   5.680   3.244   1.045  0.8761  1.7286  0.9704
  280MOL0     H37791   5.652   3.194   0.871  0.2123  0.9466 -1.3037
  280MOL0     H37792   5.482   3.360   0.832 -2.6649 -0.5860  0.1815
  280MOL0     H37793   5.492   3.416   1.005  0.1498 -1.4096  0.9740
  280MOL0     H37794   5.389   3.148   0.879 -0.5855 -0.0425  0.5085
  280MOL0     H37795   5.413   3.166   1.057  4.3684 -0.8415 -1.6916
  280MOL0     H37796   5.073   3.409   1.004 -0.1590 -0.3522 -0.1697
  280MOL0     H37797   5.733   3.373   0.509  0.8893 -1.6752 -2.4427
  280MOL0     H37798   5.969   3.334   0.262 -0.4300 -1.0911  1.6647
  280MOL0     H37799   5.810   3.421   0.279 -0.0821 -1.1758  0.4266
  280MOL0     H37800   5.956   3.503   0.238  0.4341 -1.8173 -2.2054
  281MOL0     O37801   6.111   7.787  10.930  0.1655  0.4469  0.0846
  281MOL0     C37802   6.045   7.839  10.841  0.8568  0.6130  0.3536
  281MOL0     O37803   6.096   7.866  10.710 -0.1775  0.2109  0.2939
  281MOL0     C37804   6.227   7.855  10.681  0.6375  0.1922 -0.1125
  281MOL0     C37805   6.315   7.916  10.771 -0.1603 -0.5146  0.5579
  281MOL0     C37806   6.454   7.917  10.750 -0.8863 -0.2059  0.9957
  281MOL0     C37807   6.501   7.834  10.642  0.1975  0.5081  0.1269
  281MOL0     O37808   6.637   7.811  10.612  0.8863  0.4469  0.2206
  281MOL0     C37809   6.747   7.886  10.670 -0.4666  0.7789  0.5551
  281MOL0     C37810   6.870   7.833  10.610  0.2432  0.2965 -0.0929
  281MOL0     C37811   6.986   7.925  10.655 -0.0359 -0.1048 -0.1990
  281MOL0     C37812   7.116   7.877  10.596  0.2523 -0.5945  0.4376
  281MOL0     C37813   7.131   7.943  10.456 -0.2053 -0.0066 -0.1722
  281MOL0     C37814   7.271   7.893  10.397 -0.7289 -0.0294  0.1230
  281MOL0     C37815   7.280   7.942  10.253 -0.8247  0.0915  0.8222
  281MOL0     C37816   7.412   7.904  10.192  0.2101 -1.0344  0.7731
  281MOL0     N37817   7.517   7.969  10.259 -0.0247  0.2581 -0.8277
  281MOL0     C37818   7.534   8.108  10.250  0.0123 -0.4455 -0.7247
  281MOL0     C37819   7.638   8.129  10.326 -0.5974 -0.4817 -0.3399
  281MOL0     C37820   7.698   8.268  10.343 -0.1077 -0.0057  0.1875
  281MOL0     C37821   7.702   8.293  10.492  0.9493 -0.8760 -0.1503
  281MOL0     C37822   7.736   8.437  10.526 -0.0843  0.1100  0.4842
  281MOL0     C37823   7.866   8.482  10.461  0.1963 -0.4639  0.3699
  281MOL0     O37824   7.835   8.531  10.322 -0.3253  0.5967 -0.1148
  281MOL0     C37825   7.938   8.586  10.249 -0.0689 -0.3247 -1.2509
  281MOL0     C37826   8.064   8.582  10.302  0.0805  0.3459 -1.0171
  281MOL0     C37827   8.175   8.634  10.234  0.2863  0.3381 -0.5890
  281MOL0     C37828   8.154   8.697  10.114  0.5290  1.1115  0.7834
  281MOL0     C37829   8.268   8.743  10.032  1.1378 -0.0083 -0.5901
  281MOL0     O37830   8.384   8.757  10.102 -0.6783  0.4826  0.7148
  281MOL0     C37831   8.498   8.797  10.038  0.1826 -0.1713 -0.3431
  281MOL0     C37832   8.539   8.751   9.909 -1.5630 -0.3032  0.2188
  281MOL0     C37833   8.658   8.810   9.857 -0.1407 -0.0471 -0.0871
  281MOL0     C37834   8.740   8.893   9.940 -0.0702 -0.6831 -0.4234
  281MOL0     O37835   8.862   8.944   9.910  0.4223 -0.3463 -0.0377
  281MOL0     C37836   8.898   8.940   9.772 -0.4197 -0.7711  0.3541
  281MOL0     C37837   9.026   9.015   9.778 -0.8817 -0.2980  0.1594
  281MOL0     C37838   9.113   8.984   9.656  0.2761  0.0064  0.1912
  281MOL0     C37839   9.065   9.074   9.540  0.3986  0.0585  0.1685
  281MOL0     C37840   9.148   9.029   9.427 -0.8519  0.2206 -0.1142
  281MOL0     C37841   9.092   9.071   9.288 -0.6439  0.0026 -0.7882
  281MOL0     C37842   9.206   9.075   9.190  0.2753  0.7312  0.1081
  281MOL0     C37843   9.176   9.094   9.048 -0.1501  0.2809 -0.4823
  281MOL0    Cl37844   9.343   9.093   8.984  0.1739 -0.2063  0.2782
  281MOL0     C37845   8.699   8.932  10.067  0.4081  0.3197 -0.3357
  281MOL0     C37846   8.575   8.887  10.117 -0.6284  0.7901  0.2166
  281MOL0     O37847   8.243   8.765   9.913 -0.6531  0.5962 -0.8522
  281MOL0     C37848   8.023   8.686  10.053 -0.6743  0.5795 -0.6727
  281MOL0     C37849   7.920   8.630  10.117 -0.0067  1.0259 -0.3846
  281MOL0     N37850   7.689   8.011  10.381 -0.4548  0.6753 -0.0267
  281MOL0     N37851   7.626   7.915  10.322  0.4331  0.2139  0.5522
  281MOL0     C37852   6.413   7.764  10.553 -0.1052 -0.3215  0.8526
  281MOL0     C37853   6.272   7.769  10.579  0.1317 -0.1152  1.1881
  281MOL0     C37854   5.903   7.859  10.870  0.3375  0.0074  0.3146
  281MOL0     C37855   5.828   7.952  10.796 -0.2131  0.2865 -0.4939
  281MOL0     C37856   5.704   7.986  10.827 -0.2387  0.2864  0.2662
  281MOL0     C37857   5.638   7.942  10.939 -0.1832 -0.0011  0.2268
  281MOL0     O37858   5.502   7.977  10.962  0.0841 -0.3969 -0.5448
  281MOL0     C37859   5.476   8.101  11.036 -0.0954  0.6112 -0.2900
  281MOL0     C37860   5.464   8.074  11.178  0.4136  0.2314 -0.2994
  281MOL0     C37861   5.313   8.038  11.219 -0.8914 -0.3885 -0.3201
  281MOL0     C37862   5.270   7.891  11.189 -0.2450 -0.0398 -0.2648
  281MOL0     C37863   5.120   7.880  11.206 -0.6458  0.1023  0.5508
  281MOL0     C37864   5.000   7.859  11.205  0.0090 -0.8514  0.4624
  281MOL0     C37865   5.712   7.847  11.012  0.1831  0.2794 -0.0785
  281MOL0     C37866   5.837   7.798  10.984 -0.4761 -1.4368 -0.1645
  281MOL0     C37867   5.881   7.684  11.063  0.1583 -0.4591 -0.8631
  281MOL0     H37868   6.274   7.964  10.859 -0.5477 -0.5001  0.3736
  281MOL0     H37869   6.528   7.973  10.806 -0.7685  0.0774  0.5626
  281MOL0     H37870   6.733   7.990  10.639  3.3228  1.2159 -0.1853
  281MOL0     H37871   6.744   7.883  10.780  0.3950  0.4171  0.5755
  281MOL0     H37872   6.860   7.821  10.502 -0.1392 -1.0259  0.0648
  281MOL0     H37873   6.884   7.729  10.641  1.5581  0.3298 -0.5461
  281MOL0     H37874   6.996   7.907  10.763 -3.0231 -1.4107 -0.0374
  281MOL0     H37875   6.971   8.033  10.642 -2.7724 -0.5279 -1.2746
  281MOL0     H37876   7.204   7.891  10.660 -0.6660 -0.7193  1.7485
  281MOL0     H37877   7.103   7.770  10.576 -1.1129 -0.8104  2.2838
  281MOL0     H37878   7.047   7.936  10.386 -1.2118  0.5951  0.9404
  281MOL0     H37879   7.144   8.048  10.484 -1.7405 -0.0573  0.8919
  281MOL0     H37880   7.349   7.928  10.464 -1.2121 -1.4976  1.5311
  281MOL0     H37881   7.262   7.784  10.402 -0.1545 -0.0356  1.8142
  281MOL0     H37882   7.286   8.051  10.245  1.1173 -0.0624 -0.8476
  281MOL0     H37883   7.192   7.905  10.200 -1.5762  0.0288  2.0705
  281MOL0     H37884   7.417   7.794  10.195  2.9065 -0.9940 -0.0283
  281MOL0     H37885   7.421   7.927  10.086  0.0656 -1.4965  0.6553
  281MOL0     H37886   7.467   8.181  10.206 -2.3720 -1.3465  1.1430
  281MOL0     H37887   7.796   8.273  10.296  0.8209  3.5101  2.1741
  281MOL0     H37888   7.640   8.345  10.290  2.4424  3.0939  1.5648
  281MOL0     H37889   7.604   8.273  10.536 -0.5512  2.9439 -1.3170
  281MOL0     H37890   7.770   8.226  10.545 -0.0077 -0.0368  2.2854
  281MOL0     H37891   7.735   8.444  10.635 -1.0968 -1.2585  0.5940
  281MOL0     H37892   7.655   8.507  10.499 -0.0053  0.4783  1.1918
  281MOL0     H37893   7.927   8.391  10.460  1.4592  0.3604 -0.8895
  281MOL0     H37894   7.908   8.568  10.514  3.5295 -0.0826 -2.5204
  281MOL0     H37895   8.095   8.532  10.393  1.1082  0.0678 -1.5020
  281MOL0     H37896   8.276   8.623  10.272  0.3807 -1.6969 -1.3219
  281MOL0     H37897   8.494   8.674   9.847 -0.3701 -2.2570  1.6483
  281MOL0     H37898   8.679   8.788   9.753  0.1528  1.8504 -0.4789
  281MOL0     H37899   8.912   8.837   9.739 -0.9897  0.1284 -3.0814
  281MOL0     H37900   8.827   8.992   9.708  1.5095 -2.1874 -3.2006
  281MOL0     H37901   9.003   9.121   9.772  3.4409  0.7693 -0.9481
  281MOL0     H37902   9.090   8.993   9.864 -0.6532  2.5337  0.7971
  281MOL0     H37903   9.219   9.002   9.674  0.1679 -1.6166  3.2475
  281MOL0     H37904   9.104   8.878   9.628  0.7450 -0.4934  1.8009
  281MOL0     H37905   9.084   9.179   9.561  2.5239 -0.2619  0.1043
  281MOL0     H37906   8.959   9.075   9.515  0.1078  0.8052  1.3528
  281MOL0     H37907   9.158   8.920   9.435  0.5883  0.4079  1.0899
  281MOL0     H37908   9.243   9.080   9.444 -0.6034 -0.0284 -0.7387
  281MOL0     H37909   9.010   9.004   9.261 -0.7731 -0.6228  0.9873
  281MOL0     H37910   9.049   9.171   9.293 -3.4313 -1.1273 -0.2579
  281MOL0     H37911   9.257   8.979   9.197  0.0103  0.3531 -2.1770
  281MOL0     H37912   9.282   9.148   9.219  1.9674 -0.4276 -1.2046
  281MOL0     H37913   9.127   9.006   9.006 -0.2951 -0.1430  0.5447
  281MOL0     H37914   9.111   9.181   9.035 -1.1561 -0.1623  1.3436
  281MOL0     H37915   8.765   8.996  10.125  0.0361  0.1922  0.2342
  281MOL0     H37916   8.544   8.924  10.214 -0.3245 -0.5226  0.8424
  281MOL0     H37917   8.011   8.728   9.954  1.6551 -0.3078 -1.4116
  281MOL0     H37918   7.824   8.629  10.066 -0.0941  2.5729 -0.2987
  281MOL0     H37919   6.442   7.693  10.476  1.0765  0.6425  0.3850
  281MOL0     H37920   6.205   7.726  10.505  0.4759  0.8387  0.3006
  281MOL0     H37921   5.870   7.996  10.706  1.7614 -0.4104  0.0554
  281MOL0     H37922   5.646   8.052  10.763 -2.5978 -0.3907  1.5629
  281MOL0     H37923   5.384   8.152  11.007 -1.5546 -2.3713 -1.2405
  281MOL0     H37924   5.555   8.176  11.025 -0.0879  0.7235  0.4885
  281MOL0     H37925   5.495   8.163  11.235  1.3927 -1.6426  2.2661
  281MOL0     H37926   5.531   7.994  11.209 -0.7621 -1.9742 -3.0659
  281MOL0     H37927   5.248   8.106  11.163 -0.7943  0.0846  0.1381
  281MOL0     H37928   5.298   8.057  11.326 -0.1943  3.0074 -0.6937
  281MOL0     H37929   5.312   7.875  11.089  3.3447 -0.3302  1.1239
  281MOL0     H37930   5.320   7.833  11.267  0.0811  2.5833  1.6163
  281MOL0     H37931   4.896   7.836  11.196 -0.1938  0.0382  0.3792
  281MOL0     H37932   5.657   7.803  11.095 -2.2347  1.8719 -0.7338
  281MOL0     H37933   5.922   7.606  10.999 -1.3205  0.6310 -3.3046
  281MOL0     H37934   5.964   7.716  11.128  2.2278 -3.5337 -1.7951
  281MOL0     H37935   5.802   7.643  11.126 -0.7635  0.6775 -1.2249
  282MOL0     O37936   4.990  10.207  10.915  0.1610 -0.1231 -0.2952
  282MOL0     C37937   4.916  10.233  10.823 -0.5547 -0.4706 -0.0417
  282MOL0     O37938   4.960  10.276  10.696 -0.7217  0.0354 -0.1983
  282MOL0     C37939   5.090  10.315  10.691  0.3052  0.8503  0.0491
  282MOL0     C37940   5.140  10.449  10.704  0.3084 -0.3518  0.6691
  282MOL0     C37941   5.275  10.479  10.699  0.4427 -0.2490  0.1659
  282MOL0     C37942   5.373  10.380  10.686 -0.2180 -1.3104  0.4758
  282MOL0     O37943   5.510  10.398  10.692 -0.2828  0.3530 -0.5580
  282MOL0     C37944   5.565  10.498  10.605 -0.9231  0.7608  1.1371
  282MOL0     C37945   5.716  10.475  10.616 -0.0902 -0.2192  0.7464
  282MOL0     C37946   5.784  10.559  10.503  0.2306 -0.7008  0.3102
  282MOL0     C37947   5.910  10.494  10.454  0.6550  0.2430  0.1877
  282MOL0     C37948   6.016  10.590  10.401  0.4170  0.6969 -0.3098
  282MOL0     C37949   6.143  10.506  10.368 -0.5798  0.0842  0.8017
  282MOL0     C37950   6.251  10.596  10.302  0.0738 -0.7191  0.3109
  282MOL0     C37951   6.350  10.666  10.390  0.0272 -0.0783 -0.3161
  282MOL0     N37952   6.448  10.732  10.309 -0.7085  0.0590  0.7276
  282MOL0     C37953   6.523  10.673  10.209  0.4661 -0.9385 -0.2202
  282MOL0     C37954   6.592  10.775  10.145 -0.5993 -0.2184 -0.6967
  282MOL0     C37955   6.706  10.771  10.058  0.2718  0.7210 -0.7087
  282MOL0     C37956   6.837  10.739  10.117 -0.3582 -0.5020  0.1679
  282MOL0     C37957   6.862  10.592  10.173 -0.0308 -0.3104 -0.6785
  282MOL0     C37958   7.008  10.567  10.169 -0.5046 -0.3379  0.2842
  282MOL0     O37959   7.083  10.646  10.265 -1.0413 -0.1242 -0.2439
  282MOL0     C37960   7.216  10.628  10.288  0.2087  0.7355 -0.3491
  282MOL0     C37961   7.272  10.710  10.388  0.2064 -0.2212  0.3644
  282MOL0     C37962   7.406  10.709  10.410  0.2394 -0.1683 -0.1884
  282MOL0     C37963   7.491  10.616  10.346 -0.3654 -0.2030 -0.4911
  282MOL0     C37964   7.633  10.605  10.380 -0.3915 -0.5255 -0.4160
  282MOL0     O37965   7.701  10.526  10.291 -0.2592 -0.4115  0.3429
  282MOL0     C37966   7.831  10.493  10.324  0.2373  0.3829  1.0371
  282MOL0     C37967   7.938  10.576  10.348 -0.1442 -0.5633  0.2317
  282MOL0     C37968   8.065  10.532  10.382 -0.1702 -0.0577 -0.0530
  282MOL0     C37969   8.110  10.402  10.361 -0.2333 -0.1720 -0.6645
  282MOL0     O37970   8.237  10.355  10.383  0.1240 -0.6275 -0.1253
  282MOL0     C37971   8.351  10.432  10.350  0.0845  0.5350  0.1929
  282MOL0     C37972   8.480  10.355  10.371  0.8843 -0.2484  1.2452
  282MOL0     C37973   8.509  10.255  10.259  0.7607  0.6779 -0.0559
  282MOL0     C37974   8.649  10.205  10.264 -0.2436 -0.5418  0.3719
  282MOL0     C37975   8.682  10.101  10.156  0.0630 -0.1579 -0.6343
  282MOL0     C37976   8.818  10.025  10.172 -0.4944  0.1999  0.4623
  282MOL0     C37977   8.929  10.130  10.185 -0.7691 -0.4581 -0.4128
  282MOL0     C37978   8.976  10.158  10.328 -0.6075 -0.5368 -0.0154
  282MOL0    Cl37979   9.056  10.009  10.398 -0.6640  0.3031 -0.0743
  282MOL0     C37980   8.009  10.308  10.347 -0.3602  0.1829 -0.2683
  282MOL0     C37981   7.876  10.351  10.327  0.6914 -0.5504  0.2648
  282MOL0     O37982   7.684  10.660  10.480 -0.0154 -0.7674 -0.0518
  282MOL0     C37983   7.427  10.520  10.268  0.0393  0.1293  0.1498
  282MOL0     C37984   7.294  10.542  10.221  0.1287  0.4663 -0.6124
  282MOL0     N37985   6.556  10.893  10.208  0.5571  0.3413 -0.4745
  282MOL0     N37986   6.469  10.864  10.298 -0.1010  0.3856  0.0606
  282MOL0     C37987   5.328  10.250  10.671 -1.2512  0.6717 -0.8544
  282MOL0     C37988   5.190  10.217  10.680 -0.5625 -0.4948 -0.0357
  282MOL0     C37989   4.774  10.213  10.849 -1.2313  0.0529 -1.2302
  282MOL0     C37990   4.705  10.095  10.812  0.5576 -0.3055 -0.1295
  282MOL0     C37991   4.574  10.070  10.851  0.0208 -0.1000 -0.0347
  282MOL0     C37992   4.504  10.150  10.937 -0.3201  0.1574 -0.2355
  282MOL0     O37993   4.376  10.125  10.978 -0.4165  0.0697  0.6010
  282MOL0     C37994   4.299  10.021  10.910  0.2972 -0.6555 -0.0890
  282MOL0     C37995   4.163   9.997  10.980 -0.2994  0.0316 -0.0454
  282MOL0     C37996   4.180   9.995  11.132  0.5117 -0.1532  0.3192
  282MOL0     C37997   4.142   9.865  11.200 -0.5693  0.2198 -0.0666
  282MOL0     C37998   4.017   9.810  11.151 -0.3380  0.4134 -0.0903
  282MOL0     C37999   3.916   9.764  11.101  0.2828  0.0325  0.3164
  282MOL0     C38000   4.567  10.276  10.970  0.3251 -0.3877 -0.5503
  282MOL0     C38001   4.696  10.309  10.922  0.5952 -0.0165 -0.1553
  282MOL0     C38002   4.743  10.455  10.930 -0.6814 -0.9708 -0.0763
  282MOL0     H38003   5.060  10.521  10.704  1.0786  0.5174  0.4844
  282MOL0     H38004   5.312  10.579  10.714  0.8905 -0.4685  0.5526
  282MOL0     H38005   5.538  10.462  10.505 -0.4339 -1.6116  1.7967
  282MOL0     H38006   5.547  10.602  10.631  1.9640  1.3576  1.1480
  282MOL0     H38007   5.738  10.369  10.600 -0.5502 -0.2650  0.3969
  282MOL0     H38008   5.755  10.501  10.715  0.9143  1.0373  0.0469
  282MOL0     H38009   5.807  10.657  10.546 -0.0755 -1.3518  2.0426
  282MOL0     H38010   5.717  10.569  10.418  2.3459 -1.8264 -1.5877
  282MOL0     H38011   5.957  10.429  10.529  0.2151 -1.1005 -0.6512
  282MOL0     H38012   5.881  10.432  10.368 -2.5696 -0.5375  1.6856
  282MOL0     H38013   5.975  10.634  10.309 -2.6267 -0.6992  0.2538
  282MOL0     H38014   6.045  10.670  10.469  0.4772 -0.4422  1.0354
  282MOL0     H38015   6.185  10.459  10.458  0.1664 -0.3302  0.2431
  282MOL0     H38016   6.113  10.435  10.291  1.1227 -1.1725  1.2507
  282MOL0     H38017   6.207  10.668  10.233 -0.3884  0.3533  1.6768
  282MOL0     H38018   6.305  10.532  10.231 -1.9408  0.0822 -2.0894
  282MOL0     H38019   6.302  10.737  10.459 -3.0394 -0.4650 -1.8770
  282MOL0     H38020   6.394  10.589  10.453  3.0378 -1.4977 -3.8358
  282MOL0     H38021   6.524  10.567  10.187  2.3483 -0.8931 -0.4672
  282MOL0     H38022   6.682  10.690   9.989 -0.8301  0.7015 -0.3166
  282MOL0     H38023   6.717  10.864  10.002  1.5039  0.0369 -1.6541
  282MOL0     H38024   6.909  10.757  10.037 -1.0092  1.7285  0.0115
  282MOL0     H38025   6.853  10.801  10.206  0.1958 -0.1383 -0.1823
  282MOL0     H38026   6.820  10.513  10.111  0.4298 -0.9846 -0.1401
  282MOL0     H38027   6.826  10.581  10.275 -1.6835 -3.6985 -1.5011
  282MOL0     H38028   7.052  10.579  10.070 -1.3965 -3.3792 -0.5780
  282MOL0     H38029   7.007  10.460  10.189 -4.1828 -0.6927 -1.1709
  282MOL0     H38030   7.211  10.788  10.430  2.2912  2.1108 -0.7100
  282MOL0     H38031   7.454  10.779  10.478 -0.8332  0.0142  0.4116
  282MOL0     H38032   7.921  10.683  10.337  0.0045 -0.6841 -1.4386
  282MOL0     H38033   8.131  10.614  10.410 -1.6007  0.9128  0.6208
  282MOL0     H38034   8.353  10.450  10.243  0.2581 -2.5140 -0.3958
  282MOL0     H38035   8.352  10.529  10.402  0.4903 -0.0379  1.2886
  282MOL0     H38036   8.561  10.428  10.375  1.2399 -0.4740 -0.7229
  282MOL0     H38037   8.473  10.311  10.471 -3.8481 -1.2837  0.6975
  282MOL0     H38038   8.442  10.170  10.272  0.1441  0.3800 -3.8391
  282MOL0     H38039   8.490  10.293  10.158 -1.1811  0.2010  0.0807
  282MOL0     H38040   8.667  10.148  10.355 -0.7732 -2.7356 -0.8375
  282MOL0     H38041   8.715  10.292  10.256  1.7030 -2.1415 -2.6449
  282MOL0     H38042   8.686  10.151  10.059  1.1207  1.0810  0.0111
  282MOL0     H38043   8.604  10.024  10.156  0.2243 -0.3234 -0.4825
  282MOL0     H38044   8.809   9.964  10.262 -0.3714  0.3017  0.5418
  282MOL0     H38045   8.839   9.947  10.098 -1.7528  1.1877 -1.0144
  282MOL0     H38046   8.900  10.225  10.139  0.4322 -0.4630 -1.2289
  282MOL0     H38047   9.013  10.102  10.121  0.2107 -0.4147  0.8153
  282MOL0     H38048   9.048  10.240  10.317 -0.1118 -1.1497 -1.8388
  282MOL0     H38049   8.901  10.192  10.399 -1.2633  1.6068 -1.6544
  282MOL0     H38050   8.037  10.203  10.346 -0.8363  0.0431 -1.2878
  282MOL0     H38051   7.801  10.282  10.291  0.5395  0.3339 -1.2212
  282MOL0     H38052   7.482  10.444  10.212 -1.0564 -0.5645 -0.0105
  282MOL0     H38053   7.252  10.457  10.169  1.9700  0.3017 -1.9199
  282MOL0     H38054   5.398  10.166  10.671 -0.4838  1.1915  2.1145
  282MOL0     H38055   5.154  10.115  10.687  1.7491 -1.3276  0.7884
  282MOL0     H38056   4.752  10.014  10.758 -0.5878 -0.3320 -1.1480
  282MOL0     H38057   4.536   9.974  10.816 -2.7769  1.4188 -1.4441
  282MOL0     H38058   4.355   9.928  10.909  0.5180 -0.5254  0.2848
  282MOL0     H38059   4.264  10.047  10.810 -1.4618 -0.2276  0.6036
  282MOL0     H38060   4.116   9.907  10.939 -1.6972  0.1574  1.1824
  282MOL0     H38061   4.102  10.086  10.964  0.6231  0.2801 -2.7194
  282MOL0     H38062   4.124  10.079  11.176  0.5650  0.2924 -0.4394
  282MOL0     H38063   4.284  10.014  11.159  0.2921 -1.3506  2.2532
  282MOL0     H38064   4.225   9.794  11.199  0.8486  1.7373  1.6923
  282MOL0     H38065   4.129   9.885  11.307 -2.9317  1.0887 -0.4494
  282MOL0     H38066   3.838   9.709  11.052  2.6940 -2.1231 -1.4178
  282MOL0     H38067   4.497  10.346  11.014  0.0074 -0.9989 -0.0559
  282MOL0     H38068   4.749  10.494  11.032 -2.0689  1.4131 -0.8189
  282MOL0     H38069   4.834  10.471  10.872 -2.1103  2.5190 -1.6691
  282MOL0     H38070   4.681  10.527  10.875  1.0138  0.4303 -0.2473
  283MOL0     O38071   5.820   5.403   1.513  0.0460 -0.1970 -0.0381
  283MOL0     C38072   5.764   5.395   1.617  0.0312  0.4119 -0.6590
  283MOL0     O38073   5.831   5.375   1.743 -0.6219 -0.0096  0.1990
  283MOL0     C38074   5.960   5.404   1.751 -1.0711  0.7257 -0.1176
  283MOL0     C38075   6.001   5.525   1.701 -0.0370 -0.7772  1.0330
  283MOL0     C38076   6.129   5.569   1.701  0.5154 -0.0817  0.2839
  283MOL0     C38077   6.225   5.492   1.755 -0.1601 -0.1100  0.7374
  283MOL0     O38078   6.354   5.541   1.761  0.2288 -0.6558  0.2320
  283MOL0     C38079   6.471   5.457   1.774  0.2854 -0.0664  0.4943
  283MOL0     C38080   6.573   5.532   1.695 -0.4491  0.3409  0.2101
  283MOL0     C38081   6.710   5.493   1.730 -0.0307 -0.4467  0.0326
  283MOL0     C38082   6.810   5.516   1.613 -0.6490  0.4446  0.0399
  283MOL0     C38083   6.957   5.482   1.648  0.4955 -0.4474  1.0905
  283MOL0     C38084   7.023   5.546   1.522 -0.3914 -0.4506 -0.0049
  283MOL0     C38085   7.173   5.527   1.551  0.4187  0.4087 -0.8020
  283MOL0     C38086   7.243   5.623   1.458 -0.7991  0.2815  0.4351
  283MOL0     N38087   7.306   5.742   1.518  0.2962 -0.2967  0.1462
  283MOL0     C38088   7.246   5.832   1.599 -1.1974  0.2647 -0.3335
  283MOL0     C38089   7.347   5.895   1.659  0.0354  0.1476  0.9074
  283MOL0     C38090   7.311   6.009   1.742 -0.0112  0.0751 -0.3077
  283MOL0     C38091   7.300   6.153   1.678 -0.2394  0.4459  0.1065
  283MOL0     C38092   7.213   6.249   1.766  0.4450 -0.3108  0.3628
  283MOL0     C38093   7.064   6.243   1.725 -0.7198 -0.3586  0.0762
  283MOL0     O38094   7.023   6.108   1.743  0.8037  0.4234  0.1543
  283MOL0     C38095   6.881   6.089   1.729 -0.3944  0.5354 -0.7911
  283MOL0     C38096   6.833   5.959   1.720 -0.6522 -0.0080 -0.3506
  283MOL0     C38097   6.699   5.928   1.710  0.1759 -0.2379  0.4423
  283MOL0     C38098   6.601   6.030   1.691 -0.1149  0.3871  0.5813
  283MOL0     C38099   6.452   6.010   1.676 -0.7467 -0.1694  0.0190
  283MOL0     O38100   6.370   6.118   1.646 -0.0595  0.4055 -0.2356
  283MOL0     C38101   6.238   6.095   1.631 -0.1767 -0.0718 -0.1070
  283MOL0     C38102   6.153   6.078   1.735 -0.3620 -0.5768 -0.8324
  283MOL0     C38103   6.027   6.029   1.716 -0.4307 -0.1473  0.3469
  283MOL0     C38104   5.974   6.002   1.587 -0.8126  0.2967  0.5601
  283MOL0     O38105   5.848   5.960   1.583 -0.0065  0.7790  0.2731
  283MOL0     C38106   5.804   5.895   1.467  0.7486  0.5419  0.2348
  283MOL0     C38107   5.662   5.841   1.483  0.2982  0.4611 -0.4373
  283MOL0     C38108   5.647   5.761   1.615  0.7047  0.8649  0.3163
  283MOL0     C38109   5.510   5.766   1.663  1.4724 -0.8019  0.0761
  283MOL0     C38110   5.491   5.897   1.739 -0.4586  0.0928 -0.4583
  283MOL0     C38111   5.348   5.943   1.749  0.1501 -0.1495 -0.0718
  283MOL0     C38112   5.330   6.078   1.822  0.0107 -0.4061  0.4713
  283MOL0     C38113   5.385   6.201   1.746 -0.3355  0.4726 -0.0680
  283MOL0    Cl38114   5.297   6.206   1.590  0.1942 -0.2248 -0.6315
  283MOL0     C38115   6.051   6.044   1.478 -0.5883  0.1054  0.3901
  283MOL0     C38116   6.185   6.092   1.496  0.1194 -1.4095  0.1498
  283MOL0     O38117   6.409   5.893   1.682  0.5306 -0.4338  0.1791
  283MOL0     C38118   6.652   6.162   1.695 -0.3748 -0.1368 -0.5645
  283MOL0     C38119   6.786   6.186   1.720 -0.0136 -0.3297 -0.8964
  283MOL0     N38120   7.469   5.856   1.598  0.2889  0.2244 -0.2485
  283MOL0     N38121   7.441   5.762   1.513  0.5617 -0.5409 -0.1532
  283MOL0     C38122   6.199   5.362   1.793 -0.2456  0.6594  0.5476
  283MOL0     C38123   6.061   5.317   1.805  0.2228 -0.0274 -0.1734
  283MOL0     C38124   5.619   5.396   1.613  0.3341 -0.4734 -0.5517
  283MOL0     C38125   5.551   5.362   1.734 -0.2545 -0.0339 -0.5093
  283MOL0     C38126   5.412   5.367   1.752 -0.6819 -0.0393  0.1706
  283MOL0     C38127   5.334   5.412   1.646 -0.2192 -0.2038  0.1706
  283MOL0     O38128   5.191   5.414   1.654 -0.0628  0.3480  0.0328
  283MOL0     C38129   5.127   5.539   1.687  0.2097  0.5900 -0.0045
  283MOL0     C38130   5.114   5.540   1.830  0.1703  0.2704  0.2543
  283MOL0     C38131   5.010   5.435   1.887 -0.2187  0.0488 -0.0918
  283MOL0     C38132   5.023   5.427   2.039 -0.0821  0.2520 -0.1327
  283MOL0     C38133   5.141   5.348   2.082 -0.3175  0.8792 -0.1896
  283MOL0     C38134   5.229   5.272   2.110  0.2328  1.4346  0.2854
  283MOL0     C38135   5.388   5.452   1.524 -0.7746 -0.0613  0.1022
  283MOL0     C38136   5.534   5.452   1.503 -0.0410  0.4117  0.1332
  283MOL0     C38137   5.569   5.495   1.364  0.0675  0.2824  0.3849
  283MOL0     H38138   5.926   5.582   1.646  0.7547  0.2919  1.0318
  283MOL0     H38139   6.146   5.663   1.650  0.0671 -1.6663 -3.0946
  283MOL0     H38140   6.503   5.442   1.878 -0.9071  2.2754  1.2753
  283MOL0     H38141   6.444   5.360   1.730 -3.4095  1.2655 -0.5439
  283MOL0     H38142   6.566   5.639   1.715  3.2490  0.9412 -0.8896
  283MOL0     H38143   6.553   5.521   1.588 -0.5273  2.4328 -0.0231
  283MOL0     H38144   6.709   5.388   1.759 -0.0278 -0.9499 -1.6653
  283MOL0     H38145   6.733   5.556   1.817 -2.8348  2.8394 -1.3581
  283MOL0     H38146   6.781   5.452   1.529  0.9337 -1.4849  0.8835
  283MOL0     H38147   6.803   5.623   1.593  1.5074  0.3603 -1.5703
  283MOL0     H38148   6.995   5.529   1.739 -1.8352  1.9502  0.9446
  283MOL0     H38149   6.966   5.373   1.651  3.0960 -0.2640  1.8961
  283MOL0     H38150   6.998   5.512   1.421  1.0742  2.3181 -1.4271
  283MOL0     H38151   7.003   5.654   1.528 -1.8033 -0.7494  1.6635
  283MOL0     H38152   7.205   5.424   1.535  2.6842  0.1837  3.5835
  283MOL0     H38153   7.204   5.542   1.655  0.7276 -2.4495 -0.4137
  283MOL0     H38154   7.321   5.566   1.408  0.3065  1.7970  0.3751
  283MOL0     H38155   7.173   5.658   1.381 -1.6228 -0.8676  0.6335
  283MOL0     H38156   7.141   5.840   1.622 -0.9872  1.1344  0.3818
  283MOL0     H38157   7.218   6.008   1.800  0.5164 -0.0645  0.5406
  283MOL0     H38158   7.390   6.016   1.817  0.4355 -0.0017 -0.7669
  283MOL0     H38159   7.403   6.189   1.687  0.2144 -0.4275 -1.3049
  283MOL0     H38160   7.257   6.150   1.578  0.1098 -0.7478 -0.0269
  283MOL0     H38161   7.245   6.352   1.749 -0.6373  0.4847  2.7240
  283MOL0     H38162   7.212   6.219   1.871 -0.6167 -4.5797 -0.6273
  283MOL0     H38163   7.053   6.277   1.622  0.1952 -0.1375  0.0445
  283MOL0     H38164   7.014   6.314   1.791 -0.4685  2.1478 -2.2402
  283MOL0     H38165   6.907   5.881   1.735  0.0389  0.2997 -1.9590
  283MOL0     H38166   6.665   5.825   1.721 -1.1755  0.0837 -0.4439
  283MOL0     H38167   6.201   6.074   1.832  0.6722  0.2973 -1.2862
  283MOL0     H38168   5.967   6.008   1.805 -0.8115 -0.4942  0.0151
  283MOL0     H38169   5.800   5.961   1.380 -2.0667 -0.6106 -0.6253
  283MOL0     H38170   5.865   5.810   1.435 -2.6246 -1.8972 -0.2822
  283MOL0     H38171   5.601   5.932   1.487  0.5696  0.6366  3.0766
  283MOL0     H38172   5.614   5.774   1.412  1.0225 -0.7302  0.1670
  283MOL0     H38173   5.670   5.655   1.601 -3.4726 -0.4603  1.9389
  283MOL0     H38174   5.713   5.800   1.692 -0.9253  3.0905  0.6728
  283MOL0     H38175   5.493   5.683   1.731  0.4692 -0.1750  0.6022
  283MOL0     H38176   5.439   5.755   1.581 -0.7011 -3.6577  2.1424
  283MOL0     H38177   5.543   5.977   1.684 -1.4352  0.3333 -1.0627
  283MOL0     H38178   5.532   5.888   1.840 -1.5426 -1.4058 -0.1331
  283MOL0     H38179   5.298   5.952   1.652 -2.1807  1.6978  1.1962
  283MOL0     H38180   5.294   5.870   1.810  0.5017  1.2307  2.0160
  283MOL0     H38181   5.376   6.075   1.921 -0.0149 -1.6443  0.4561
  283MOL0     H38182   5.223   6.098   1.832 -0.2566 -0.8506 -1.2324
  283MOL0     H38183   5.367   6.291   1.805  1.9312  0.3772  0.8835
  283MOL0     H38184   5.489   6.180   1.720 -0.7347 -0.4605 -1.0431
  283MOL0     H38185   6.009   6.031   1.378  0.3281 -0.6625  0.0889
  283MOL0     H38186   6.255   6.119   1.417  1.5017 -0.9859  1.4500
  283MOL0     H38187   6.592   6.248   1.669 -0.1251  0.6250  1.2633
  283MOL0     H38188   6.812   6.291   1.730 -1.0234 -0.2240  1.1549
  283MOL0     H38189   6.266   5.285   1.832 -0.9445 -1.6402 -2.4627
  283MOL0     H38190   6.046   5.215   1.839 -2.2318  0.5598  0.7420
  283MOL0     H38191   5.603   5.330   1.824 -0.0859 -0.0134 -0.5991
  283MOL0     H38192   5.359   5.327   1.838 -1.3518  1.0317  0.2719
  283MOL0     H38193   5.030   5.543   1.636 -0.9541  1.5493  2.1598
  283MOL0     H38194   5.185   5.625   1.652 -2.3996  2.4664  0.0471
  283MOL0     H38195   5.086   5.641   1.859  0.6277  0.7378 -0.8783
  283MOL0     H38196   5.216   5.526   1.867  0.0392  1.0209  0.9057
  283MOL0     H38197   5.018   5.335   1.844  1.9341 -2.1534  4.6208
  283MOL0     H38198   4.917   5.472   1.845  1.9266  1.3919 -4.2336
  283MOL0     H38199   5.051   5.523   2.083  0.4819  0.3709 -0.7316
  283MOL0     H38200   4.933   5.386   2.087 -0.0412  0.8750  0.4827
  283MOL0     H38201   5.305   5.204   2.143  2.0983  2.8474 -0.8615
  283MOL0     H38202   5.319   5.493   1.450  0.2724  1.6623  0.0265
  283MOL0     H38203   5.576   5.414   1.291 -2.4351  1.1617 -0.9438
  283MOL0     H38204   5.501   5.569   1.321  1.0347  1.1966  0.3793
  283MOL0     H38205   5.665   5.548   1.375  0.6772  0.0096 -2.6728
  284MOL0     O38206   8.072   8.269   5.885  0.1111  0.0355 -0.4623
  284MOL0     C38207   8.015   8.288   5.988 -0.4023  1.0895 -0.5101
  284MOL0     O38208   7.995   8.412   6.049 -0.8256  0.3607 -0.4419
  284MOL0     C38209   8.084   8.517   6.025  0.0976  0.6744  0.3666
  284MOL0     C38210   8.224   8.488   6.033 -0.6004  0.4160  0.6197
  284MOL0     C38211   8.322   8.585   6.024 -0.0751 -0.6333 -0.4208
  284MOL0     C38212   8.282   8.721   6.009  0.0315  0.3602  1.1286
  284MOL0     O38213   8.377   8.822   5.993  0.0978  0.3580 -0.3120
  284MOL0     C38214   8.496   8.779   5.923 -0.3844  0.1562  0.1218
  284MOL0     C38215   8.575   8.904   5.878 -0.3277 -0.6323 -0.3625
  284MOL0     C38216   8.649   8.988   5.986  0.4549  0.2525 -0.4418
  284MOL0     C38217   8.770   8.908   6.044 -0.4927 -0.1260 -0.3379
  284MOL0     C38218   8.841   8.978   6.159 -0.0391 -1.4241  0.2185
  284MOL0     C38219   8.939   9.089   6.112  0.1930  0.8003  0.0877
  284MOL0     C38220   8.997   9.156   6.233 -0.3056 -0.4337  0.1564
  284MOL0     C38221   9.076   9.291   6.202 -0.8096  0.5247  0.4828
  284MOL0     N38222   9.208   9.272   6.140 -0.5284 -0.4297  0.0152
  284MOL0     C38223   9.235   9.253   6.008 -1.0518 -0.6852  1.0358
  284MOL0     C38224   9.372   9.259   6.005 -0.2946 -0.2138 -0.0052
  284MOL0     C38225   9.444   9.247   5.883  0.4996 -0.2131  0.6589
  284MOL0     C38226   9.565   9.337   5.887 -0.3332 -0.3227 -0.4101
  284MOL0     C38227   9.528   9.467   5.817 -0.1646  0.0261 -0.6009
  284MOL0     C38228   9.649   9.558   5.803 -0.5881  0.8376 -0.5332
  284MOL0     O38229   9.750   9.497   5.718 -0.2048  0.5970  0.6642
  284MOL0     C38230   9.869   9.572   5.719 -0.5392  0.9756  0.2785
  284MOL0     C38231   9.903   9.700   5.774  0.2721  0.1233  0.6866
  284MOL0     C38232  10.032   9.746   5.758 -0.3155  0.2500 -0.3878
  284MOL0     C38233  10.129   9.690   5.673  0.4872  0.0047 -0.0572
  284MOL0     C38234  10.260   9.757   5.645  0.0720 -0.2226 -0.2640
  284MOL0     O38235  10.277   9.857   5.730 -0.3833 -0.6520  0.5811
  284MOL0     C38236  10.393   9.914   5.766 -0.2417 -0.5965  0.6746
  284MOL0     C38237  10.526   9.875   5.720  0.3114  0.2987 -0.4206
  284MOL0     C38238  10.636   9.941   5.755 -1.3335 -0.1898 -0.4230
  284MOL0     C38239  10.629  10.059   5.837 -0.1173 -0.0849 -0.2948
  284MOL0     O38240  10.753  10.121   5.851 -0.2669 -1.5006 -0.5828
  284MOL0     C38241  10.746  10.237   5.932  0.0078  0.5106 -0.4624
  284MOL0     C38242  10.873  10.326   5.914  0.3565  0.1511 -0.4474
  284MOL0     C38243  10.905  10.316   5.758  0.2259  0.8777  0.2180
  284MOL0     C38244  11.013  10.419   5.707  1.0695  0.2253 -1.1513
  284MOL0     C38245  11.058  10.424   5.561  0.1554  0.1071 -0.7857
  284MOL0     C38246  10.943  10.462   5.466 -1.0405  0.6768 -0.1937
  284MOL0     C38247  10.948  10.398   5.327  0.0487 -0.7135 -0.1153
  284MOL0     C38248  10.826  10.453   5.247  0.1642  0.8269  0.4459
  284MOL0    Cl38249  10.831  10.373   5.091  0.2000 -0.1822  0.4004
  284MOL0     C38250  10.501  10.110   5.881  0.5124  0.6393  0.0943
  284MOL0     C38251  10.389  10.037   5.847 -0.1377 -0.1649 -0.7323
  284MOL0     O38252  10.336   9.708   5.561  0.2645 -0.0789 -0.6158
  284MOL0     C38253  10.089   9.572   5.599 -0.2394  0.3005 -0.3252
  284MOL0     C38254   9.970   9.511   5.630  0.2603  0.2269  0.4011
  284MOL0     N38255   9.415   9.273   6.135  0.3925 -0.3368  1.0860
  284MOL0     N38256   9.318   9.264   6.213 -0.5969 -0.1472 -0.0809
  284MOL0     C38257   8.145   8.751   5.994 -0.5171 -0.3197 -0.4548
  284MOL0     C38258   8.050   8.652   6.007 -0.3790 -0.3933 -0.4609
  284MOL0     C38259   7.953   8.170   6.055 -0.5223  0.1931 -0.8973
  284MOL0     C38260   7.835   8.195   6.136  0.1876  0.5767  0.6102
  284MOL0     C38261   7.751   8.090   6.169 -0.0708 -0.7133  0.2870
  284MOL0     C38262   7.786   7.960   6.159 -0.2219 -0.7855  0.1391
  284MOL0     O38263   7.702   7.855   6.188 -0.3966  0.3145 -0.4825
  284MOL0     C38264   7.562   7.881   6.205 -0.2133 -0.3238  0.4963
  284MOL0     C38265   7.470   7.754   6.199 -0.7355  0.4294  0.5190
  284MOL0     C38266   7.459   7.687   6.052  0.0615  0.0191  0.4723
  284MOL0     C38267   7.315   7.653   5.996 -0.0844  0.6435 -0.1453
  284MOL0     C38268   7.265   7.542   6.067 -0.4823  0.6047 -0.3219
  284MOL0     C38269   7.248   7.431   6.115  0.1976 -0.0495 -0.4816
  284MOL0     C38270   7.911   7.933   6.097  0.4670 -0.0338 -0.0892
  284MOL0     C38271   7.995   8.036   6.048 -0.0259  1.5583  0.2013
  284MOL0     C38272   8.117   7.995   5.975 -0.3951 -0.9779 -0.3377
  284MOL0     H38273   8.260   8.386   6.046  1.9487  1.2735  0.8225
  284MOL0     H38274   8.423   8.547   6.026  0.8931  1.7404 -1.3240
  284MOL0     H38275   8.552   8.715   5.991  1.6570  0.2106 -1.4004
  284MOL0     H38276   8.470   8.711   5.841 -1.5592 -1.7360  1.9533
  284MOL0     H38277   8.509   8.969   5.820  0.6563  1.9703  1.2524
  284MOL0     H38278   8.658   8.866   5.817  0.7260 -0.2635  0.7714
  284MOL0     H38279   8.586   9.019   6.070  0.3563  1.5089 -0.9575
  284MOL0     H38280   8.669   9.083   5.937 -2.2036  2.0969  1.7247
  284MOL0     H38281   8.723   8.818   6.084 -1.3220 -0.3908 -1.8444
  284MOL0     H38282   8.833   8.878   5.960 -1.0117 -0.0691 -0.7561
  284MOL0     H38283   8.771   9.015   6.235  1.5905  1.7117  0.3751
  284MOL0     H38284   8.905   8.907   6.211  2.1311  1.0310  1.1665
  284MOL0     H38285   9.012   9.041   6.047 -2.8841 -0.9248 -2.3378
  284MOL0     H38286   8.886   9.166   6.055 -2.4736 -0.2071  1.0522
  284MOL0     H38287   9.066   9.087   6.284 -0.8739 -0.1369  1.3714
  284MOL0     H38288   8.922   9.188   6.306  0.6273  0.8048  0.6147
  284MOL0     H38289   9.007   9.347   6.137 -0.4175  0.0947 -0.3236
  284MOL0     H38290   9.085   9.348   6.295 -0.6133 -2.1522  2.2051
  284MOL0     H38291   9.160   9.252   5.929 -0.6778  0.0244  0.6623
  284MOL0     H38292   9.484   9.146   5.869  2.6540  0.6009  0.6229
  284MOL0     H38293   9.373   9.267   5.802 -1.5384 -1.5411  2.0411
  284MOL0     H38294   9.601   9.360   5.987 -1.3975  2.0798 -0.4916
  284MOL0     H38295   9.639   9.283   5.828  0.0922 -0.6651  0.4417
  284MOL0     H38296   9.457   9.516   5.885 -0.2226 -0.3091 -0.4241
  284MOL0     H38297   9.487   9.443   5.718 -0.9759  2.7029 -1.0104
  284MOL0     H38298   9.680   9.568   5.907  0.9868  2.3428 -1.1047
  284MOL0     H38299   9.614   9.654   5.765 -2.0335  1.3168  1.8410
  284MOL0     H38300   9.829   9.764   5.822  0.8371  1.4527 -0.1675
  284MOL0     H38301  10.056   9.840   5.804 -0.9314  0.2517 -0.0588
  284MOL0     H38302  10.549   9.798   5.646  1.2093  1.0567 -0.9562
  284MOL0     H38303  10.731   9.901   5.720  0.6313  4.1103 -0.6769
  284MOL0     H38304  10.666  10.302   5.895  1.1901  2.5537  0.3838
  284MOL0     H38305  10.722  10.203   6.033 -4.3424 -0.0933 -1.5238
  284MOL0     H38306  10.855  10.430   5.942 -1.3487 -0.5833  1.4417
  284MOL0     H38307  10.950  10.278   5.975 -0.5207 -1.7196 -0.7238
  284MOL0     H38308  10.944  10.216   5.739 -1.7094  0.2251 -0.5706
  284MOL0     H38309  10.812  10.339   5.706  0.0677 -0.7886 -0.2981
  284MOL0     H38310  11.101  10.394   5.767 -2.1390 -1.1061  3.5343
  284MOL0     H38311  10.978  10.519   5.732  0.7329  0.9561 -4.1548
  284MOL0     H38312  11.088  10.327   5.521  1.5100 -0.1453  0.7268
  284MOL0     H38313  11.140  10.495   5.551 -0.0573  0.4350 -0.2747
  284MOL0     H38314  10.844  10.437   5.507  0.3543 -1.7322  1.9636
  284MOL0     H38315  10.954  10.571   5.464 -1.3051  0.7383 -3.0898
  284MOL0     H38316  10.945  10.288   5.327  0.6294 -0.7373 -0.9503
  284MOL0     H38317  11.038  10.435   5.278  1.5772 -3.3407  0.5028
  284MOL0     H38318  10.732  10.422   5.294  2.6942 -1.9190  4.3876
  284MOL0     H38319  10.835  10.562   5.241  0.0631  0.7802 -0.8918
  284MOL0     H38320  10.488  10.200   5.939  2.0154  1.3893 -0.6949
  284MOL0     H38321  10.297  10.076   5.889  0.8395  2.1454 -0.6038
  284MOL0     H38322  10.166   9.526   5.538  0.1696 -0.2429  0.5764
  284MOL0     H38323   9.954   9.411   5.591  0.2938 -0.4060  1.9326
  284MOL0     H38324   8.108   8.852   5.977 -1.0383 -0.4736 -0.2563
  284MOL0     H38325   7.944   8.674   5.997 -0.0141  0.4091 -3.2265
  284MOL0     H38326   7.795   8.293   6.159 -0.7308  0.6156 -1.0329
  284MOL0     H38327   7.655   8.114   6.213 -0.2302 -0.3923 -0.2353
  284MOL0     H38328   7.526   7.956   6.133 -0.4455 -0.7529  0.1595
  284MOL0     H38329   7.543   7.934   6.299 -1.4583  1.5488 -0.7219
  284MOL0     H38330   7.370   7.785   6.228 -1.8465 -0.4332 -2.1219
  284MOL0     H38331   7.502   7.687   6.280  1.7736  2.0837  1.0170
  284MOL0     H38332   7.516   7.594   6.063 -0.3073 -0.1412  1.0964
  284MOL0     H38333   7.503   7.753   5.977 -1.8049 -0.3273 -1.0007
  284MOL0     H38334   7.250   7.740   6.003 -1.3338  0.0131 -2.5923
  284MOL0     H38335   7.312   7.630   5.889  1.3047 -0.5263  0.0360
  284MOL0     H38336   7.222   7.331   6.145 -2.6965  1.2534  1.9298
  284MOL0     H38337   7.936   7.829   6.077 -1.8987 -0.3919 -1.7289
  284MOL0     H38338   8.108   8.020   5.869 -0.5525  1.3945  0.1899
  284MOL0     H38339   8.202   8.046   6.022  0.6924 -0.7884 -2.4234
  284MOL0     H38340   8.129   7.886   5.983 -2.8187 -1.2437  0.3837
  285MOL0     O38341   6.432   8.286   9.279  0.0792  0.6088  0.2442
  285MOL0     C38342   6.459   8.177   9.337  0.2491  0.7186 -0.0246
  285MOL0     O38343   6.584   8.119   9.350  0.4783  0.0844  0.5738
  285MOL0     C38344   6.695   8.164   9.284 -0.3915  0.0124 -0.1951
  285MOL0     C38345   6.782   8.248   9.354 -0.5995  0.3806  0.0470
  285MOL0     C38346   6.899   8.299   9.297 -1.0873  0.6804 -1.0239
  285MOL0     C38347   6.927   8.278   9.156  0.3601  1.0027 -0.0997
  285MOL0     O38348   7.043   8.329   9.107 -0.1508  0.8477 -0.0847
  285MOL0     C38349   7.070   8.347   8.967  0.3408  0.7106  0.0645
  285MOL0     C38350   7.117   8.207   8.904 -1.3128  0.6666  0.1853
  285MOL0     C38351   7.135   8.208   8.757  0.0242  0.6802  1.0129
  285MOL0     C38352   7.271   8.280   8.722 -0.0072 -0.0722 -0.3338
  285MOL0     C38353   7.281   8.300   8.571 -0.6339 -0.0455  0.1796
  285MOL0     C38354   7.357   8.182   8.503 -0.4357 -1.4148  0.3017
  285MOL0     C38355   7.401   8.219   8.358 -0.2332  0.1787  0.8093
  285MOL0     C38356   7.485   8.107   8.304 -0.5235 -0.6648  0.3820
  285MOL0     N38357   7.621   8.119   8.361 -0.8202  0.7678  0.2387
  285MOL0     C38358   7.724   8.168   8.280 -0.4270  0.9663  1.0605
  285MOL0     C38359   7.836   8.129   8.355 -0.0483  0.0010 -0.0308
  285MOL0     C38360   7.973   8.170   8.303 -0.3696  0.3842  0.0938
  285MOL0     C38361   8.013   8.114   8.168 -0.2579 -0.4385  0.0566
  285MOL0     C38362   8.127   8.190   8.103 -0.3490 -0.0696 -0.0843
  285MOL0     C38363   8.256   8.147   8.165 -0.3180 -0.5835  0.6347
  285MOL0     O38364   8.374   8.219   8.106  0.3553  0.0046  0.5639
  285MOL0     C38365   8.505   8.213   8.148 -0.0707 -0.5224 -0.8261
  285MOL0     C38366   8.589   8.274   8.053  0.1762  0.1037 -0.0255
  285MOL0     C38367   8.723   8.266   8.076 -0.6616 -0.3243  0.9140
  285MOL0     C38368   8.781   8.221   8.195  0.0926  0.8092  0.2227
  285MOL0     C38369   8.928   8.246   8.236  0.5398 -0.0885  0.5076
  285MOL0     O38370   8.986   8.145   8.292 -0.4448 -0.0807 -0.7891
  285MOL0     C38371   9.125   8.127   8.314 -0.3479  0.6956  0.2304
  285MOL0     C38372   9.226   8.211   8.264 -0.6648  0.2222 -0.7037
  285MOL0     C38373   9.361   8.178   8.285  0.1196  0.5455  0.3864
  285MOL0     C38374   9.403   8.068   8.358 -0.2345  0.0082  0.3732
  285MOL0     O38375   9.534   8.055   8.385 -0.0212  0.7321  0.2006
  285MOL0     C38376   9.591   7.963   8.470  0.6564  0.7963  0.0398
  285MOL0     C38377   9.549   8.006   8.619  0.6477  0.4999 -0.1369
  285MOL0     C38378   9.593   7.896   8.717 -0.3405  0.0138  0.0378
  285MOL0     C38379   9.603   7.954   8.859 -0.1184  0.3458  0.8635
  285MOL0     C38380   9.627   7.838   8.952 -0.0762  0.0378  0.1471
  285MOL0     C38381   9.639   7.898   9.086  0.6014  0.0710  0.6769
  285MOL0     C38382   9.687   7.800   9.193  0.5593  0.6008  0.1152
  285MOL0     C38383   9.569   7.705   9.236  0.2699  0.3747  0.1456
  285MOL0    Cl38384   9.443   7.811   9.304  0.0768 -0.1583  0.1754
  285MOL0     C38385   9.300   7.978   8.404  0.8326  0.3860 -0.7180
  285MOL0     C38386   9.166   8.006   8.378  0.4298 -0.4164  0.7150
  285MOL0     O38387   8.971   8.362   8.216  0.0244  0.0632  0.3346
  285MOL0     C38388   8.693   8.156   8.295 -0.1918  0.4012  0.3923
  285MOL0     C38389   8.560   8.154   8.265 -0.3549  0.2902  0.3492
  285MOL0     N38390   7.804   8.055   8.464  0.1653  0.0350  0.1014
  285MOL0     N38391   7.672   8.042   8.462  0.6460  0.9503  0.8789
  285MOL0     C38392   6.830   8.200   9.082 -0.6651 -0.0213  0.6771
  285MOL0     C38393   6.722   8.141   9.146  0.6434  0.7977 -0.2022
  285MOL0     C38394   6.347   8.092   9.395 -0.0495 -0.6454 -0.1124
  285MOL0     C38395   6.372   7.962   9.439  0.3666 -0.7601 -0.8313
  285MOL0     C38396   6.267   7.884   9.485 -0.2689  0.9503  0.9194
  285MOL0     C38397   6.145   7.931   9.501 -0.0121  0.4009  0.0893
  285MOL0     O38398   6.053   7.844   9.559  0.2913 -0.1310  0.2684
  285MOL0     C38399   5.991   7.907   9.672  0.0160  1.3322 -0.6353
  285MOL0     C38400   6.079   7.883   9.793 -0.2405 -0.6779 -0.2137
  285MOL0     C38401   6.104   7.730   9.824 -0.4184 -0.0420  0.0707
  285MOL0     C38402   6.218   7.661   9.753 -0.3032 -0.5618  0.2591
  285MOL0     C38403   6.349   7.730   9.745  0.7089  0.3110 -0.3778
  285MOL0     C38404   6.444   7.809   9.746  0.4431  0.4813  0.1439
  285MOL0     C38405   6.121   8.057   9.454  0.8015  0.1719  0.6471
  285MOL0     C38406   6.214   8.141   9.404  0.3048  0.5867 -0.0440
  285MOL0     C38407   6.161   8.279   9.354 -0.1523 -0.3601 -0.1217
  285MOL0     H38408   6.747   8.256   9.457  1.2221 -0.5681  0.7777
  285MOL0     H38409   6.964   8.360   9.360 -0.3972 -1.7424  0.7584
  285MOL0     H38410   6.983   8.388   8.914  1.2084  0.0263 -1.9969
  285MOL0     H38411   7.147   8.422   8.947 -0.6352  1.4349 -1.1199
  285MOL0     H38412   7.039   8.132   8.925 -1.3403  0.3782 -0.8824
  285MOL0     H38413   7.205   8.173   8.960 -0.6966  0.4703 -0.8810
  285MOL0     H38414   7.053   8.264   8.712 -0.9714 -1.7834 -0.4275
  285MOL0     H38415   7.139   8.105   8.722 -2.8293  0.3848  1.3073
  285MOL0     H38416   7.260   8.384   8.754 -0.4800 -0.4842  0.9087
  285MOL0     H38417   7.355   8.238   8.779 -0.9828  0.8155  1.8607
  285MOL0     H38418   7.183   8.318   8.528 -2.1806 -3.5185  1.8886
  285MOL0     H38419   7.332   8.397   8.557  1.2938 -0.3762  3.5916
  285MOL0     H38420   7.451   8.165   8.557  0.4560 -0.8643 -1.0132
  285MOL0     H38421   7.298   8.090   8.509 -0.4547 -1.3149  2.7921
  285MOL0     H38422   7.454   8.315   8.356  0.4398 -0.0771 -3.9339
  285MOL0     H38423   7.312   8.224   8.294  0.2296 -1.6787 -0.0383
  285MOL0     H38424   7.444   8.012   8.339 -3.2700  1.1787  2.5422
  285MOL0     H38425   7.479   8.118   8.195 -1.0983  0.9286  0.5634
  285MOL0     H38426   7.714   8.223   8.187 -2.4237 -0.9464  0.0632
  285MOL0     H38427   7.975   8.279   8.298 -1.9696  0.3983 -1.0068
  285MOL0     H38428   8.043   8.138   8.381 -1.0589 -2.4084 -0.3229
  285MOL0     H38429   8.025   8.006   8.175 -0.0575 -0.2881  3.0954
  285MOL0     H38430   7.938   8.139   8.091  0.2295  2.6849  0.4694
  285MOL0     H38431   8.124   8.300   8.111  0.2128 -0.1848  2.9877
  285MOL0     H38432   8.128   8.166   7.996 -0.4971  0.1732 -0.1432
  285MOL0     H38433   8.259   8.042   8.134 -0.1278  0.6526 -4.3370
  285MOL0     H38434   8.263   8.159   8.274  0.4720  3.8935  0.2715
  285MOL0     H38435   8.545   8.315   7.963  0.3146 -1.3321 -0.7875
  285MOL0     H38436   8.792   8.318   8.011  0.2322 -0.9247  1.3573
  285MOL0     H38437   9.196   8.303   8.215 -0.8684  0.8220  0.5258
  285MOL0     H38438   9.437   8.252   8.265  1.6037 -0.2953  2.5871
  285MOL0     H38439   9.556   7.864   8.438  0.7295  0.7169  0.1995
  285MOL0     H38440   9.700   7.964   8.466  0.7191  1.9085  1.2776
  285MOL0     H38441   9.606   8.095   8.648  1.5361  0.6865 -2.2552
  285MOL0     H38442   9.442   8.028   8.625  0.8903  1.6872  0.1911
  285MOL0     H38443   9.525   7.811   8.711 -0.7476  0.3272  0.2169
  285MOL0     H38444   9.694   7.861   8.692 -0.3269  0.7852 -1.0562
  285MOL0     H38445   9.516   8.011   8.893  0.3050  0.7815  1.2288
  285MOL0     H38446   9.692   8.017   8.850 -0.2831  0.4995  0.2446
  285MOL0     H38447   9.720   7.789   8.923  1.1294  0.6869  2.5926
  285MOL0     H38448   9.547   7.764   8.948  0.7426 -0.8442 -3.3441
  285MOL0     H38449   9.715   7.977   9.081  1.4821 -0.8357 -1.0958
  285MOL0     H38450   9.543   7.943   9.113  0.5786  1.4382 -1.4412
  285MOL0     H38451   9.719   7.858   9.280 -0.9480 -0.9015  1.7537
  285MOL0     H38452   9.768   7.738   9.154 -1.1003  0.2696 -3.1804
  285MOL0     H38453   9.533   7.653   9.147 -0.8625  0.3458  0.6004
  285MOL0     H38454   9.615   7.632   9.303  1.4367  1.8803  1.0592
  285MOL0     H38455   9.326   7.890   8.461 -0.4438  1.0706  1.0005
  285MOL0     H38456   9.088   7.938   8.410  0.2464 -1.3406 -1.4960
  285MOL0     H38457   8.727   8.121   8.392  0.9997 -0.3121 -0.2625
  285MOL0     H38458   8.490   8.123   8.343 -0.9980 -0.4112 -0.4912
  285MOL0     H38459   6.845   8.193   8.975  2.7698  1.0307  0.9636
  285MOL0     H38460   6.653   8.083   9.087 -0.5304  0.9190  0.9983
  285MOL0     H38461   6.470   7.919   9.427  0.1660 -1.2762 -0.6271
  285MOL0     H38462   6.295   7.781   9.505 -1.7090  0.4052  0.1913
  285MOL0     H38463   5.904   7.843   9.687 -0.0621  1.3536 -1.0002
  285MOL0     H38464   5.954   8.009   9.657  1.2010  1.6845 -1.3064
  285MOL0     H38465   6.044   7.932   9.885  1.1096  0.1305 -0.0970
  285MOL0     H38466   6.176   7.931   9.777 -0.0223 -1.3076 -0.7968
  285MOL0     H38467   6.010   7.678   9.806 -0.8461 -0.1798  2.3688
  285MOL0     H38468   6.132   7.728   9.930 -1.4115 -2.3877  0.3494
  285MOL0     H38469   6.237   7.561   9.795  1.0288  0.0931  1.2944
  285MOL0     H38470   6.193   7.658   9.647  3.1840  3.0423 -0.9201
  285MOL0     H38471   6.521   7.883   9.748 -0.1871  1.2655 -1.8055
  285MOL0     H38472   6.017   8.088   9.447 -0.5008 -3.5753  1.2441
  285MOL0     H38473   6.190   8.363   9.418 -0.9086 -0.3180  0.1821
  285MOL0     H38474   6.195   8.307   9.254  0.7354 -3.1003 -0.6656
  285MOL0     H38475   6.052   8.283   9.366 -0.6817 -6.9152  0.5299
  286MOL0     O38476   2.568   5.001   0.594  0.1401  0.2696  0.1301
  286MOL0     C38477   2.487   4.915   0.550 -0.0048 -0.0157 -0.0720
  286MOL0     O38478   2.521   4.784   0.520  0.2814  0.0558 -0.0964
  286MOL0     C38479   2.647   4.735   0.506  0.1705 -0.8149 -0.5727
  286MOL0     C38480   2.756   4.816   0.473  1.1187 -0.1097 -0.8223
  286MOL0     C38481   2.882   4.763   0.454 -0.2777 -0.7258 -1.5389
  286MOL0     C38482   2.900   4.627   0.465 -0.0578  0.5817  0.7989
  286MOL0     O38483   3.028   4.563   0.446 -0.7670 -0.2243  0.2876
  286MOL0     C38484   3.131   4.627   0.370 -0.0477  0.0121 -0.0978
  286MOL0     C38485   3.251   4.524   0.375 -0.6377  0.5609  0.0294
  286MOL0     C38486   3.369   4.571   0.274  0.2191 -0.7445 -0.1732
  286MOL0     C38487   3.505   4.500   0.290 -0.6905  0.6798  0.4996
  286MOL0     C38488   3.597   4.554   0.184  0.5387 -0.1408  0.9309
  286MOL0     C38489   3.746   4.498   0.193 -0.1287  1.1645 -1.2114
  286MOL0     C38490   3.772   4.351   0.163 -0.1842 -1.0081 -0.1444
  286MOL0     C38491   3.731   4.311   0.013 -0.1145 -0.9825 -0.2504
  286MOL0     N38492   3.762   4.402  -0.092  0.3891 -0.4949 -0.6014
  286MOL0     C38493   3.887   4.418  -0.129  0.1687  0.9189  0.5361
  286MOL0     C38494   3.890   4.509  -0.226 -0.6645 -1.0844  0.0866
  286MOL0     C38495   4.013   4.568  -0.294 -0.8413  0.9123  0.1703
  286MOL0     C38496   4.107   4.623  -0.181  0.4127  0.6536  0.6716
  286MOL0     C38497   4.262   4.614  -0.207  0.2778 -0.1805  0.2322
  286MOL0     C38498   4.295   4.707  -0.318  0.2229  0.1574  0.5210
  286MOL0     O38499   4.415   4.658  -0.377  0.3443 -0.1430 -0.1515
  286MOL0     C38500   4.543   4.694  -0.336  0.2199 -0.3867  0.0783
  286MOL0     C38501   4.595   4.804  -0.261  0.2675  0.8364 -0.0163
  286MOL0     C38502   4.737   4.827  -0.244 -0.5929 -0.4812 -0.6345
  286MOL0     C38503   4.830   4.737  -0.300  0.9744 -0.1047 -0.1931
  286MOL0     C38504   4.976   4.740  -0.272 -0.7966  0.2473 -0.1704
  286MOL0     O38505   5.067   4.661  -0.333 -0.2038 -0.5625  0.2670
  286MOL0     C38506   5.201   4.672  -0.308  0.0037 -0.2124  0.7694
  286MOL0     C38507   5.275   4.556  -0.303  0.5432 -0.0153  0.4532
  286MOL0     C38508   5.411   4.567  -0.269  0.2458 -0.8471 -0.8033
  286MOL0     C38509   5.477   4.692  -0.243 -0.4479 -0.1646  0.6281
  286MOL0     O38510   5.613   4.713  -0.225  0.9437  0.3264  0.2248
  286MOL0     C38511   5.717   4.623  -0.265 -0.8984  0.3797  0.2434
  286MOL0     C38512   5.852   4.653  -0.201  1.1298  0.6609  0.2308
  286MOL0     C38513   5.925   4.773  -0.259  0.0125 -0.3746  0.0409
  286MOL0     C38514   6.075   4.763  -0.217 -0.0681 -0.6683 -0.3035
  286MOL0     C38515   6.143   4.875  -0.279  0.1222 -0.2250  0.1171
  286MOL0     C38516   6.298   4.871  -0.243  0.4820 -0.3270 -0.0549
  286MOL0     C38517   6.364   5.005  -0.269  0.0281  0.7530 -0.2746
  286MOL0     C38518   6.512   4.997  -0.221  0.5421 -0.2361 -0.4157
  286MOL0    Cl38519   6.601   4.845  -0.282  0.2986  0.2184 -0.0285
  286MOL0     C38520   5.398   4.805  -0.256  0.1588  0.6833 -0.3127
  286MOL0     C38521   5.263   4.799  -0.281 -0.6014  0.3626  0.4452
  286MOL0     O38522   5.012   4.816  -0.177 -0.0376 -0.0394  0.5775
  286MOL0     C38523   4.777   4.627  -0.370 -0.3946 -0.8773  0.1852
  286MOL0     C38524   4.640   4.611  -0.390 -0.3455  0.3602 -0.2670
  286MOL0     N38525   3.757   4.536  -0.263  0.8174  0.6632 -0.6475
  286MOL0     N38526   3.684   4.479  -0.174 -0.7493  0.4343 -0.2891
  286MOL0     C38527   2.794   4.543   0.488  0.4045 -0.3386 -0.3509
  286MOL0     C38528   2.667   4.599   0.497  0.2841  0.4004 -0.4603
  286MOL0     C38529   2.339   4.931   0.554  0.8389 -0.2762  0.1481
  286MOL0     C38530   2.253   4.813   0.555 -0.5107 -0.6537  0.1446
  286MOL0     C38531   2.113   4.830   0.548 -0.1087 -0.4157  0.1912
  286MOL0     C38532   2.065   4.955   0.539  0.4926 -0.6859 -0.5542
  286MOL0     O38533   1.930   4.967   0.526  0.1789 -0.0782  0.5602
  286MOL0     C38534   1.871   5.094   0.480  0.4190  0.1566 -0.9921
  286MOL0     C38535   1.724   5.082   0.483 -0.1529  0.2459 -0.5151
  286MOL0     C38536   1.664   4.980   0.382  0.0541 -0.2730 -0.8004
  286MOL0     C38537   1.542   5.049   0.316 -0.3460 -0.2072  0.1724
  286MOL0     C38538   1.426   5.044   0.406  0.4216  0.6951 -0.9906
  286MOL0     C38539   1.347   5.028   0.493 -0.4264  0.5459 -0.3490
  286MOL0     C38540   2.145   5.068   0.551 -0.3054 -0.0878  0.2509
  286MOL0     C38541   2.281   5.060   0.560  0.0265 -0.0069  0.2732
  286MOL0     C38542   2.353   5.193   0.575  0.0150  0.0125  0.1845
  286MOL0     H38543   2.753   4.924   0.465  1.5840 -0.0609 -0.3843
  286MOL0     H38544   2.960   4.838   0.444 -1.6679  1.3885  1.8052
  286MOL0     H38545   3.086   4.639   0.271  0.5922  1.7691 -0.2084
  286MOL0     H38546   3.160   4.722   0.416 -1.3779  0.4824 -0.1779
  286MOL0     H38547   3.226   4.424   0.338  1.1188  0.0818  0.0580
  286MOL0     H38548   3.293   4.526   0.476 -0.5477 -0.4785  0.0290
  286MOL0     H38549   3.395   4.672   0.307  0.7205 -0.7230 -0.6091
  286MOL0     H38550   3.324   4.574   0.174  2.6423 -0.3335 -1.3300
  286MOL0     H38551   3.550   4.519   0.388  1.2617 -1.0194 -0.0007
  286MOL0     H38552   3.496   4.391   0.279 -0.6830  0.6749  0.5416
  286MOL0     H38553   3.549   4.536   0.087  0.0756  0.4849  1.0345
  286MOL0     H38554   3.606   4.663   0.196  0.2228 -0.1802  1.5427
  286MOL0     H38555   3.818   4.548   0.128  0.4797  1.2337 -0.4896
  286MOL0     H38556   3.777   4.524   0.294 -1.5774 -0.2338 -0.3515
  286MOL0     H38557   3.718   4.285   0.231 -0.4055 -0.9153 -0.2288
  286MOL0     H38558   3.878   4.333   0.186 -0.2497  0.9225  1.9862
  286MOL0     H38559   3.776   4.213  -0.001 -1.5960 -1.8394  0.7660
  286MOL0     H38560   3.624   4.290   0.012  0.1582 -2.6079 -1.8552
  286MOL0     H38561   3.967   4.364  -0.079 -0.1105  1.2668  1.3794
  286MOL0     H38562   4.061   4.484  -0.346 -0.4446  1.7886 -0.9073
  286MOL0     H38563   3.984   4.644  -0.367 -0.4744  1.5564  0.6885
  286MOL0     H38564   4.060   4.720  -0.166 -0.1113  0.6827 -0.9913
  286MOL0     H38565   4.100   4.567  -0.087  0.3899  0.7130  0.7049
  286MOL0     H38566   4.295   4.513  -0.229  2.3622  0.7154 -1.0613
  286MOL0     H38567   4.317   4.648  -0.119 -0.3250  0.6368  0.3057
  286MOL0     H38568   4.308   4.808  -0.278  0.4948  0.1528  0.4409
  286MOL0     H38569   4.218   4.704  -0.396  1.2406  1.6396 -0.5898
  286MOL0     H38570   4.523   4.873  -0.218 -1.2736  0.2516 -1.5296
  286MOL0     H38571   4.758   4.908  -0.175  1.1871 -2.2938  1.0777
  286MOL0     H38572   5.232   4.458  -0.323  3.2475 -0.9251 -1.4218
  286MOL0     H38573   5.462   4.472  -0.258  0.1037 -0.6851  1.6249
  286MOL0     H38574   5.699   4.520  -0.233 -0.6169 -0.2064 -1.4040
  286MOL0     H38575   5.712   4.619  -0.374 -1.2757  1.7983  0.1847
  286MOL0     H38576   5.835   4.661  -0.093  1.8308  2.5227  0.2354
  286MOL0     H38577   5.915   4.567  -0.225 -2.7637 -2.8067  1.2714
  286MOL0     H38578   5.911   4.783  -0.367 -0.4336 -1.2174  0.0064
  286MOL0     H38579   5.892   4.870  -0.222  2.1274  1.6353 -2.9085
  286MOL0     H38580   6.113   4.665  -0.248  1.1205 -0.3180 -0.0121
  286MOL0     H38581   6.081   4.770  -0.108 -3.9131  0.3859 -0.0004
  286MOL0     H38582   6.091   4.969  -0.256 -0.6780 -0.2420 -1.4779
  286MOL0     H38583   6.140   4.875  -0.388 -0.3505 -0.3842  0.1253
  286MOL0     H38584   6.315   4.850  -0.138 -1.3556 -1.0728  0.1402
  286MOL0     H38585   6.329   4.786  -0.305 -5.1141 -2.1168 -1.0253
  286MOL0     H38586   6.326   5.086  -0.206  1.4901  1.0037  0.3252
  286MOL0     H38587   6.354   5.038  -0.373 -1.3929 -2.2071 -1.1842
  286MOL0     H38588   6.559   5.080  -0.275 -1.2292 -0.2321 -2.0608
  286MOL0     H38589   6.512   5.008  -0.112  1.6776 -1.1035 -0.3030
  286MOL0     H38590   5.440   4.905  -0.254 -0.1099  0.9189 -2.9215
  286MOL0     H38591   5.218   4.895  -0.306  1.4096  0.4303 -3.9045
  286MOL0     H38592   4.844   4.551  -0.409 -1.4150 -0.6808 -2.1474
  286MOL0     H38593   4.608   4.519  -0.438 -1.4388 -0.5818  2.1187
  286MOL0     H38594   2.812   4.437   0.478  1.1832 -0.3649  1.0111
  286MOL0     H38595   2.583   4.530   0.504  2.2270 -1.9838  4.1661
  286MOL0     H38596   2.288   4.711   0.555 -0.2460 -0.6279 -2.3887
  286MOL0     H38597   2.043   4.747   0.548  1.2295 -1.6189 -1.7486
  286MOL0     H38598   1.915   5.120   0.384 -1.2202 -0.1420 -1.8516
  286MOL0     H38599   1.897   5.168   0.557  1.5136 -0.2264 -0.9782
  286MOL0     H38600   1.688   5.181   0.452 -1.3064 -0.5269 -1.7946
  286MOL0     H38601   1.689   5.067   0.585  1.4069  0.4721  0.0790
  286MOL0     H38602   1.643   4.882   0.427  1.1908  0.3086  1.1156
  286MOL0     H38603   1.739   4.967   0.304  1.0811  0.8613 -0.0497
  286MOL0     H38604   1.555   5.155   0.295 -3.2823  0.2143  0.0805
  286MOL0     H38605   1.517   5.001   0.220  0.6590  0.1061 -0.2523
  286MOL0     H38606   1.282   4.995   0.571  0.4301  0.7689  0.4838
  286MOL0     H38607   2.098   5.164   0.567 -2.3002 -0.9321 -0.1467
  286MOL0     H38608   2.433   5.215   0.504 -0.7696  1.7551 -0.2216
  286MOL0     H38609   2.292   5.283   0.569  1.0181  0.8519  1.7276
  286MOL0     H38610   2.399   5.191   0.674 -2.1671  0.5817  1.2628
  287MOL0     O38611   6.592   1.794   0.333  1.1793 -0.4831  0.6843
  287MOL0     C38612   6.622   1.748   0.446  0.2534  0.2425  0.8606
  287MOL0     O38613   6.747   1.722   0.487 -0.0693  0.1678 -0.9072
  287MOL0     C38614   6.857   1.771   0.421 -0.1317  0.1688 -0.2973
  287MOL0     C38615   6.869   1.796   0.286  0.3821  0.4332 -0.3683
  287MOL0     C38616   6.970   1.875   0.236  0.4306 -0.2228 -0.1227
  287MOL0     C38617   7.080   1.914   0.320  0.2220  0.3023  0.4729
  287MOL0     O38618   7.194   1.974   0.277 -0.4087 -0.4815 -0.2328
  287MOL0     C38619   7.198   2.009   0.142 -0.7339 -0.4015 -0.1512
  287MOL0     C38620   7.313   2.101   0.111  0.3605  0.7792  0.1508
  287MOL0     C38621   7.445   2.021   0.104  0.4328 -0.0267  0.2668
  287MOL0     C38622   7.557   2.127   0.097  0.6605  0.6299  0.0906
  287MOL0     C38623   7.699   2.069   0.083 -1.0506 -0.0563  0.0711
  287MOL0     C38624   7.735   2.018  -0.058 -0.8912  0.4362  0.5461
  287MOL0     C38625   7.881   2.020  -0.099  0.5326  0.2959 -0.6430
  287MOL0     C38626   7.933   2.159  -0.136  0.1983  0.5471 -0.4573
  287MOL0     N38627   8.001   2.163  -0.271 -0.4314  0.7945  0.1057
  287MOL0     C38628   8.129   2.107  -0.283 -0.0401 -0.4049  0.1001
  287MOL0     C38629   8.152   2.110  -0.416  0.1809  0.3667  0.9582
  287MOL0     C38630   8.256   2.042  -0.498  0.1275 -0.4272 -0.3215
  287MOL0     C38631   8.282   1.893  -0.464 -0.4760 -0.1576  0.0591
  287MOL0     C38632   8.417   1.838  -0.503 -0.7378 -0.3008  0.2655
  287MOL0     C38633   8.425   1.801  -0.653 -0.2588  0.4386 -0.1801
  287MOL0     O38634   8.538   1.710  -0.673 -0.8046  0.3606  0.6175
  287MOL0     C38635   8.665   1.759  -0.679 -0.2806 -0.7365  0.3766
  287MOL0     C38636   8.703   1.893  -0.650 -1.1917 -0.7251  0.8532
  287MOL0     C38637   8.839   1.928  -0.638 -0.0780 -0.6441 -0.3622
  287MOL0     C38638   8.935   1.834  -0.678  0.7347  0.7188  0.5521
  287MOL0     C38639   9.077   1.868  -0.671  0.0793 -0.1774  0.3174
  287MOL0     O38640   9.171   1.770  -0.727 -0.5930  0.4477 -0.2216
  287MOL0     C38641   9.305   1.782  -0.736  0.0278  0.8607 -0.8097
  287MOL0     C38642   9.370   1.667  -0.785 -0.9176 -0.9966  0.8884
  287MOL0     C38643   9.508   1.661  -0.792 -0.5595 -0.4275  0.4972
  287MOL0     C38644   9.587   1.775  -0.752  0.7311 -0.3059  0.5669
  287MOL0     O38645   9.720   1.757  -0.746  0.1332  0.1580 -0.1800
  287MOL0     C38646   9.806   1.866  -0.764 -0.8757  0.1634  0.3430
  287MOL0     C38647   9.846   1.930  -0.629  0.5909  0.8210  0.6960
  287MOL0     C38648   9.934   1.825  -0.555 -0.0102 -0.2091  0.3538
  287MOL0     C38649   9.995   1.904  -0.444  0.1721  0.0051 -0.4625
  287MOL0     C38650  10.088   1.802  -0.369 -0.1287  1.1300  0.1279
  287MOL0     C38651  10.185   1.881  -0.284 -1.1953  0.0210 -0.5245
  287MOL0     C38652  10.130   1.946  -0.160  0.0301 -0.6818 -0.4398
  287MOL0     C38653  10.229   2.034  -0.082 -1.0852 -0.0987  0.4493
  287MOL0    Cl38654  10.149   2.119   0.040  0.1027 -0.0127  0.5260
  287MOL0     C38655   9.524   1.890  -0.697 -0.6922 -0.1619  0.4576
  287MOL0     C38656   9.386   1.889  -0.695  0.6161  0.2326  0.4341
  287MOL0     O38657   9.104   1.958  -0.596 -0.3980  0.4029  0.3182
  287MOL0     C38658   8.899   1.703  -0.710  0.0994 -0.2771 -0.1712
  287MOL0     C38659   8.767   1.670  -0.714 -0.3165  0.1304  0.3200
  287MOL0     N38660   8.047   2.171  -0.483  0.7369  0.7857  0.5701
  287MOL0     N38661   7.955   2.199  -0.391  0.4606  0.5167  0.1470
  287MOL0     C38662   7.080   1.869   0.454 -0.1371  0.1721  0.0718
  287MOL0     C38663   6.970   1.797   0.501  0.5062  0.8494  0.4197
  287MOL0     C38664   6.500   1.701   0.528 -0.6085 -0.2754  0.1436
  287MOL0     C38665   6.379   1.747   0.482 -0.7046 -0.4033  0.0419
  287MOL0     C38666   6.266   1.712   0.549  0.0425  0.4490  1.2692
  287MOL0     C38667   6.265   1.629   0.662 -0.8202 -0.0876  0.1902
  287MOL0     O38668   6.152   1.607   0.739 -0.9778  0.0555  0.6409
  287MOL0     C38669   6.027   1.676   0.705 -0.5724  0.0804  1.1326
  287MOL0     C38670   5.928   1.675   0.824 -0.2168 -0.2085 -0.4640
  287MOL0     C38671   5.995   1.730   0.949 -0.2348 -0.6091  0.1461
  287MOL0     C38672   5.956   1.657   1.077 -0.2073 -0.2435 -0.0089
  287MOL0     C38673   5.819   1.694   1.115  0.7177 -0.0660 -0.4032
  287MOL0     C38674   5.709   1.736   1.143  0.2166 -0.0098 -0.3081
  287MOL0     C38675   6.389   1.580   0.707 -0.6021 -0.2916  0.6213
  287MOL0     C38676   6.512   1.616   0.642  0.3242  0.2843  1.1136
  287MOL0     C38677   6.643   1.555   0.689 -0.4291 -0.6721 -0.0720
  287MOL0     H38678   6.784   1.785   0.219 -0.0192 -0.3172  0.2474
  287MOL0     H38679   6.978   1.908   0.133  0.3432  3.0213  0.7875
  287MOL0     H38680   7.200   1.923   0.074  3.3942 -0.8764  0.3704
  287MOL0     H38681   7.104   2.064   0.126  0.1550  1.7653  1.6181
  287MOL0     H38682   7.311   2.179   0.188 -0.0240  1.3667 -0.4444
  287MOL0     H38683   7.297   2.150   0.015  2.0730 -0.2474 -0.7177
  287MOL0     H38684   7.440   1.962   0.012  3.3605 -1.2179  0.7909
  287MOL0     H38685   7.453   1.957   0.192  0.5534  1.5390  1.4367
  287MOL0     H38686   7.530   2.183   0.007 -0.9352 -1.2389 -0.6764
  287MOL0     H38687   7.548   2.184   0.190 -1.5461 -1.6265  1.4060
  287MOL0     H38688   7.773   2.143   0.115 -1.5895  0.7436 -0.4700
  287MOL0     H38689   7.701   1.982   0.150 -3.9904 -0.8422 -0.7360
  287MOL0     H38690   7.705   1.914  -0.067 -1.7587  0.7653 -0.6048
  287MOL0     H38691   7.679   2.082  -0.128  1.8357  1.5744 -0.7458
  287MOL0     H38692   7.887   1.956  -0.188  1.6398 -2.1507  1.0785
  287MOL0     H38693   7.940   1.981  -0.015 -0.3277  0.8260  0.2349
  287MOL0     H38694   7.852   2.233  -0.134  0.4511  0.9733 -2.9013
  287MOL0     H38695   8.009   2.192  -0.065  0.4364 -0.5822 -0.1722
  287MOL0     H38696   8.199   2.077  -0.205 -0.1498  1.2258  0.8734
  287MOL0     H38697   8.221   2.058  -0.600 -1.9655  2.5109  0.6997
  287MOL0     H38698   8.339   2.107  -0.470  0.2649 -1.6737  2.5627
  287MOL0     H38699   8.275   1.882  -0.356  2.2308 -1.6788  0.1445
  287MOL0     H38700   8.204   1.825  -0.501  2.1377 -3.6368  0.4724
  287MOL0     H38701   8.440   1.744  -0.451  3.2423  1.0487  1.3716
  287MOL0     H38702   8.498   1.909  -0.483 -0.8590  0.2375 -1.0830
  287MOL0     H38703   8.427   1.887  -0.720  3.4094  0.3015 -0.4512
  287MOL0     H38704   8.329   1.758  -0.682 -0.5810  1.0584 -0.0294
  287MOL0     H38705   8.639   1.977  -0.626 -0.4699  0.5896 -1.4676
  287MOL0     H38706   8.867   2.031  -0.619 -2.5391  0.6729 -3.1040
  287MOL0     H38707   9.299   1.596  -0.828 -2.0652  1.8033 -2.2321
  287MOL0     H38708   9.562   1.574  -0.829 -1.1376 -0.5366 -0.0974
  287MOL0     H38709   9.895   1.839  -0.821  0.8604  3.5231  1.2360
  287MOL0     H38710   9.770   1.943  -0.832  2.3499  1.1587 -0.3945
  287MOL0     H38711   9.898   2.026  -0.641 -1.6158  2.1237  0.8908
  287MOL0     H38712   9.756   1.943  -0.568  0.1286  1.5677 -0.1240
  287MOL0     H38713   9.864   1.751  -0.515  0.5888 -0.5729  0.7496
  287MOL0     H38714  10.010   1.780  -0.620 -1.1736 -2.1618  0.2520
  287MOL0     H38715   9.924   1.951  -0.374  0.0931  2.4843 -2.0834
  287MOL0     H38716  10.061   1.978  -0.491  2.8572 -1.0342  1.3909
  287MOL0     H38717  10.135   1.739  -0.444 -0.0931  0.4649  0.7000
  287MOL0     H38718  10.024   1.739  -0.306 -0.7850  0.4985 -1.1449
  287MOL0     H38719  10.256   1.804  -0.251 -0.6818  1.4739  2.0785
  287MOL0     H38720  10.241   1.951  -0.346  1.3131 -1.5644 -0.2337
  287MOL0     H38721  10.101   1.871  -0.086  1.9845 -0.2607  0.8243
  287MOL0     H38722  10.050   2.018  -0.183 -0.6114 -0.4547  2.2068
  287MOL0     H38723  10.306   1.965  -0.047  1.8134  1.9554 -1.4311
  287MOL0     H38724  10.272   2.100  -0.158 -1.7011 -0.1753  0.0244
  287MOL0     H38725   9.580   1.976  -0.664 -0.2399 -0.9777  1.8958
  287MOL0     H38726   9.343   1.985  -0.669  1.4520  0.6427  0.3299
  287MOL0     H38727   8.975   1.635  -0.748  0.9275 -0.8945  2.3870
  287MOL0     H38728   8.748   1.571  -0.753  1.7831 -0.0059 -0.5457
  287MOL0     H38729   7.164   1.901   0.516 -0.7588  2.0806  0.0156
  287MOL0     H38730   6.969   1.786   0.609 -1.2843 -2.6691  0.1817
  287MOL0     H38731   6.368   1.805   0.391 -1.9427  1.4522  1.3174
  287MOL0     H38732   6.172   1.756   0.516  0.4286  0.7388  0.5231
  287MOL0     H38733   5.993   1.626   0.615  1.3795 -0.9872  0.9299
  287MOL0     H38734   6.049   1.782   0.688  0.3227 -0.3196 -0.3989
  287MOL0     H38735   5.913   1.568   0.834  1.8020 -0.7273 -2.2593
  287MOL0     H38736   5.831   1.724   0.812 -0.8400 -1.2601  0.1993
  287MOL0     H38737   5.985   1.839   0.955 -1.2249 -0.7135  0.4681
  287MOL0     H38738   6.104   1.718   0.946  0.2754  2.6183  1.6346
  287MOL0     H38739   5.964   1.550   1.056  1.6373 -0.3001  0.7927
  287MOL0     H38740   6.016   1.690   1.162 -1.5932 -0.2473  1.0216
  287MOL0     H38741   5.621   1.766   1.197 -0.1016 -5.9445  3.3797
  287MOL0     H38742   6.382   1.525   0.800 -0.0306 -0.7272  0.4087
  287MOL0     H38743   6.612   1.482   0.765 -0.4518  1.2324  1.8546
  287MOL0     H38744   6.704   1.504   0.614  0.9634 -1.9351  1.7952
  287MOL0     H38745   6.701   1.626   0.749  1.6529 -0.8565 -1.7464
  288MOL0     O38746   2.095   0.922   3.148  0.4376 -0.8746  0.4800
  288MOL0     C38747   2.089   0.814   3.204  0.8778  0.2788 -0.4030
  288MOL0     O38748   2.142   0.794   3.329  0.1673  0.2047 -0.4039
  288MOL0     C38749   2.261   0.864   3.353 -1.1219  0.5587  1.1551
  288MOL0     C38750   2.384   0.817   3.311 -0.8718  0.5283  0.3810
  288MOL0     C38751   2.507   0.884   3.320 -0.2528  0.6336 -0.4070
  288MOL0     C38752   2.504   1.007   3.392  0.0799 -1.1897  0.6967
  288MOL0     O38753   2.610   1.084   3.418  0.2987  0.3528 -0.1650
  288MOL0     C38754   2.737   1.018   3.424  1.0980 -0.2485  0.6834
  288MOL0     C38755   2.843   1.126   3.461  0.0198 -0.0916 -0.9996
  288MOL0     C38756   2.884   1.207   3.337  1.0441  0.7335 -0.9998
  288MOL0     C38757   2.979   1.324   3.367 -0.2422  0.6127  1.0640
  288MOL0     C38758   3.043   1.372   3.229 -0.1382  0.8629 -0.0048
  288MOL0     C38759   3.189   1.416   3.235  0.8145 -0.2825  0.5331
  288MOL0     C38760   3.202   1.542   3.315 -0.2705  0.0159 -0.4192
  288MOL0     C38761   3.349   1.558   3.359 -0.0368 -0.3796  0.3348
  288MOL0     N38762   3.428   1.606   3.244  0.1756  0.3014 -0.1920
  288MOL0     C38763   3.493   1.726   3.257  0.0324  0.3384  0.1811
  288MOL0     C38764   3.570   1.737   3.151  0.3549 -0.2585  0.7295
  288MOL0     C38765   3.665   1.852   3.117  0.3034 -0.0353  0.5849
  288MOL0     C38766   3.812   1.818   3.107 -0.0514  0.9130  0.2105
  288MOL0     C38767   3.846   1.704   3.013 -0.1539 -0.2860  0.6845
  288MOL0     C38768   4.001   1.698   3.007 -0.0527  0.1380 -0.2772
  288MOL0     O38769   4.024   1.560   2.969  0.1928  0.1279  0.0426
  288MOL0     C38770   4.158   1.532   2.960  0.3448  0.3930 -0.2286
  288MOL0     C38771   4.222   1.511   2.841 -0.4434  0.2366 -0.2964
  288MOL0     C38772   4.356   1.450   2.838  0.2258  0.2108  0.1744
  288MOL0     C38773   4.426   1.444   2.956 -0.2710  0.0004 -0.6356
  288MOL0     C38774   4.574   1.394   2.965  0.1105 -0.3753  0.1212
  288MOL0     O38775   4.654   1.393   2.851 -0.2866  0.4402  1.4231
  288MOL0     C38776   4.791   1.364   2.869  0.2123  0.1649 -0.7105
  288MOL0     C38777   4.844   1.260   2.794  0.2678  0.0103 -0.6698
  288MOL0     C38778   4.979   1.224   2.803 -1.5067  0.7044  0.1309
  288MOL0     C38779   5.072   1.300   2.879  0.1040 -0.6552 -0.2449
  288MOL0     O38780   5.208   1.299   2.887 -0.1536 -0.0382  0.3560
  288MOL0     C38781   5.287   1.224   2.793 -0.2082  0.4117 -0.4335
  288MOL0     C38782   5.431   1.214   2.843  0.7374 -0.4672 -0.4009
  288MOL0     C38783   5.517   1.130   2.757 -0.0141  0.5056  0.5031
  288MOL0     C38784   5.660   1.149   2.797 -0.1655  0.0607  0.5117
  288MOL0     C38785   5.768   1.058   2.729  0.2189  0.0961  0.0768
  288MOL0     C38786   5.716   0.936   2.641 -0.6481 -0.4706 -0.1237
  288MOL0     C38787   5.825   0.864   2.564 -0.2744 -0.2907  0.1860
  288MOL0     C38788   5.805   0.716   2.541 -0.1546 -0.7277  1.1933
  288MOL0    Cl38789   5.665   0.686   2.430 -0.6576  0.4126 -0.2073
  288MOL0     C38790   5.018   1.399   2.959  0.4197 -1.0091 -0.6130
  288MOL0     C38791   4.878   1.425   2.958  0.2561  1.0639  0.0227
  288MOL0     O38792   4.620   1.380   3.077 -0.3003  0.0424  0.2258
  288MOL0     C38793   4.362   1.472   3.080  0.2528  0.5493  0.0844
  288MOL0     C38794   4.234   1.513   3.081 -0.4811  0.6386 -0.5122
  288MOL0     N38795   3.532   1.637   3.057  0.5537 -0.6183  0.9185
  288MOL0     N38796   3.452   1.552   3.118 -0.6649 -0.6305  0.1368
  288MOL0     C38797   2.382   1.059   3.437 -0.2943 -0.4329  0.4172
  288MOL0     C38798   2.265   0.986   3.419  0.2247 -0.1210 -0.1825
  288MOL0     C38799   2.010   0.707   3.143  0.2253  0.7966 -0.2440
  288MOL0     C38800   1.981   0.716   3.006  0.5065  0.3446 -0.1979
  288MOL0     C38801   1.920   0.616   2.941  0.3599 -0.0949 -0.2142
  288MOL0     C38802   1.897   0.495   3.003 -0.3939  0.4947 -0.1626
  288MOL0     O38803   1.832   0.390   2.949 -0.2507  0.2230 -0.2099
  288MOL0     C38804   1.875   0.358   2.810  0.3742 -0.2712 -0.1198
  288MOL0     C38805   1.818   0.223   2.766 -0.5585  0.6859  0.3266
  288MOL0     C38806   1.668   0.201   2.743  0.0026 -0.9172  0.7314
  288MOL0     C38807   1.625   0.062   2.705  0.1662 -0.5529  0.3730
  288MOL0     C38808   1.478   0.057   2.675 -0.2489  0.4291 -0.4505
  288MOL0     C38809   1.356   0.043   2.679 -0.1955 -0.5901 -0.3086
  288MOL0     C38810   1.919   0.477   3.138  0.5126  0.9890  0.6523
  288MOL0     C38811   1.981   0.583   3.208 -0.4582  0.0273 -0.1593
  288MOL0     C38812   2.006   0.558   3.354  0.1957  0.3343 -0.1781
  288MOL0     H38813   2.378   0.723   3.257 -1.5113  0.9742 -0.3442
  288MOL0     H38814   2.602   0.844   3.287 -0.4229 -0.4408  0.3319
  288MOL0     H38815   2.731   0.936   3.496  0.0926 -0.8088 -0.0216
  288MOL0     H38816   2.762   0.979   3.324 -0.5087  0.4394 -0.0279
  288MOL0     H38817   2.932   1.078   3.504  0.6745  0.4068 -1.7637
  288MOL0     H38818   2.799   1.191   3.538 -1.4401 -2.3454  0.1651
  288MOL0     H38819   2.794   1.242   3.286  0.0164  1.1091  0.9550
  288MOL0     H38820   2.937   1.143   3.265  0.5791 -0.7423 -0.0814
  288MOL0     H38821   2.930   1.411   3.413 -0.6907  1.1182 -0.3234
  288MOL0     H38822   3.065   1.282   3.420 -0.0946 -2.5731 -1.4139
  288MOL0     H38823   3.036   1.289   3.159 -1.5438 -0.0711  1.1931
  288MOL0     H38824   2.989   1.458   3.189 -3.7014 -0.7938  0.9291
  288MOL0     H38825   3.251   1.338   3.279  3.2531 -0.7183 -3.2187
  288MOL0     H38826   3.212   1.417   3.128  0.6859 -4.5931  0.2846
  288MOL0     H38827   3.144   1.538   3.407  2.5336  0.0329  1.4565
  288MOL0     H38828   3.180   1.635   3.262 -1.7791  1.7079  2.8742
  288MOL0     H38829   3.364   1.637   3.434  0.8616 -1.4523  1.3266
  288MOL0     H38830   3.392   1.474   3.414 -1.0604 -0.1768  1.4910
  288MOL0     H38831   3.487   1.798   3.337  0.4912  0.1561  0.3811
  288MOL0     H38832   3.634   1.907   3.028 -1.6369  3.2966  3.0890
  288MOL0     H38833   3.654   1.931   3.192  0.2975  2.0091 -1.4593
  288MOL0     H38834   3.850   1.909   3.058  2.2528 -0.7025 -1.1660
  288MOL0     H38835   3.861   1.793   3.201 -2.9241 -1.4088  1.2499
  288MOL0     H38836   3.797   1.724   2.918 -1.6270 -1.8367  1.0556
  288MOL0     H38837   3.807   1.605   3.039 -0.2437 -0.6424 -0.7329
  288MOL0     H38838   4.051   1.718   3.102 -1.7304 -0.0978  0.7108
  288MOL0     H38839   4.051   1.761   2.934  4.3239 -1.5268  0.9485
  288MOL0     H38840   4.176   1.541   2.748  3.7026  0.2710 -2.6067
  288MOL0     H38841   4.405   1.412   2.748 -1.0641  0.8052 -0.8152
  288MOL0     H38842   4.782   1.196   2.731 -0.4242 -0.3005  0.2963
  288MOL0     H38843   5.013   1.137   2.747  0.8023  2.3102 -1.1500
  288MOL0     H38844   5.244   1.124   2.799  0.8209  0.0097  1.1367
  288MOL0     H38845   5.267   1.248   2.689 -3.7677  2.4577  0.5588
  288MOL0     H38846   5.455   1.321   2.842 -0.3049 -0.2187 -0.7142
  288MOL0     H38847   5.424   1.183   2.948 -1.7012 -0.4753 -0.4973
  288MOL0     H38848   5.494   1.024   2.769  0.3577  0.4872  1.0875
  288MOL0     H38849   5.512   1.168   2.654 -0.1292 -2.4664 -0.6787
  288MOL0     H38850   5.666   1.130   2.905  0.0715  1.8797  0.8421
  288MOL0     H38851   5.698   1.251   2.792 -0.0894  0.3279  3.9528
  288MOL0     H38852   5.823   1.018   2.814  1.0949 -2.0001 -1.3817
  288MOL0     H38853   5.840   1.122   2.677 -1.3546  3.4173  1.6879
  288MOL0     H38854   5.670   0.866   2.711  0.5093 -0.4536  0.6860
  288MOL0     H38855   5.645   0.970   2.565  1.1476  2.1770 -0.7884
  288MOL0     H38856   5.913   0.872   2.628 -2.4884 -0.3783  3.4779
  288MOL0     H38857   5.839   0.910   2.465 -1.1018  1.1012  0.6858
  288MOL0     H38858   5.894   0.665   2.503  0.1524  1.1338 -0.7314
  288MOL0     H38859   5.777   0.671   2.637 -3.8071  1.2708  1.2541
  288MOL0     H38860   5.083   1.464   3.017 -3.3790 -0.0110  3.0222
  288MOL0     H38861   4.835   1.500   3.023 -1.5298 -1.0410  1.4363
  288MOL0     H38862   4.425   1.468   3.168  0.5621  1.7426 -0.0549
  288MOL0     H38863   4.188   1.537   3.176  0.3305  0.0765  0.0376
  288MOL0     H38864   2.382   1.153   3.492 -1.0957 -0.2657  0.1572
  288MOL0     H38865   2.176   1.030   3.461  0.2386 -0.6150  0.3637
  288MOL0     H38866   1.986   0.808   2.949  1.4402 -0.8394 -2.1345
  288MOL0     H38867   1.895   0.622   2.836 -2.2453  2.0291  0.4049
  288MOL0     H38868   1.984   0.350   2.806  0.2526 -1.6452 -2.0881
  288MOL0     H38869   1.846   0.431   2.735 -1.2796 -0.1132  0.6251
  288MOL0     H38870   1.833   0.155   2.850 -3.7396  0.2550  0.6822
  288MOL0     H38871   1.872   0.192   2.675 -1.9653 -0.7888 -0.0601
  288MOL0     H38872   1.640   0.265   2.658 -1.0242 -2.3603 -0.0524
  288MOL0     H38873   1.616   0.237   2.832 -0.5804  3.8196 -1.1718
  288MOL0     H38874   1.684   0.018   2.624  0.3326 -0.8524  0.6538
  288MOL0     H38875   1.643  -0.002   2.792 -0.3811  0.8230  1.5347
  288MOL0     H38876   1.249   0.040   2.677 -0.5500  4.3486  0.0072
  288MOL0     H38877   1.879   0.394   3.196 -1.2300  1.8801  0.8132
  288MOL0     H38878   1.979   0.455   3.378  1.2277 -0.0271 -0.5148
  288MOL0     H38879   2.114   0.564   3.368  0.7814 -2.9013 -2.2740
  288MOL0     H38880   1.951   0.623   3.423  0.1068 -0.4278  0.4693
  289MOL0     O38881   1.361   8.391   4.709 -1.2066  0.6545  0.0523
  289MOL0     C38882   1.356   8.270   4.738  0.2497  0.1941 -1.1600
  289MOL0     O38883   1.465   8.190   4.747  0.7233 -1.0344 -0.4982
  289MOL0     C38884   1.582   8.245   4.722 -0.4475  0.0397  0.2898
  289MOL0     C38885   1.675   8.261   4.816 -0.1098  1.0742  0.1133
  289MOL0     C38886   1.795   8.325   4.787 -0.5487 -0.0756 -0.2459
  289MOL0     C38887   1.828   8.368   4.661  0.8793 -0.1640  1.0388
  289MOL0     O38888   1.950   8.430   4.646  0.1163  0.1849 -0.4000
  289MOL0     C38889   1.956   8.518   4.532  0.2428  0.5948 -0.0851
  289MOL0     C38890   2.099   8.571   4.494 -0.7539  0.2568  0.5871
  289MOL0     C38891   2.172   8.639   4.612 -0.6496 -0.7680 -0.3145
  289MOL0     C38892   2.311   8.683   4.569  0.0728 -0.8536  0.9144
  289MOL0     C38893   2.366   8.803   4.642  0.0816 -0.4058  0.1343
  289MOL0     C38894   2.518   8.804   4.638 -0.4402 -0.3023 -0.3007
  289MOL0     C38895   2.580   8.914   4.732  0.4213  0.2282 -0.3009
  289MOL0     C38896   2.710   8.965   4.671  0.6937  0.2580 -0.9165
  289MOL0     N38897   2.751   9.082   4.736 -0.0016 -0.4347  0.1353
  289MOL0     C38898   2.860   9.074   4.832 -0.0163  0.5179  0.3519
  289MOL0     C38899   2.862   9.195   4.885  0.2999  0.0647  0.2494
  289MOL0     C38900   2.960   9.247   4.987 -0.0845  0.1353  0.1692
  289MOL0     C38901   3.105   9.233   4.942  0.2348  0.2621  0.6314
  289MOL0     C38902   3.210   9.293   5.039 -0.1969  0.1014 -0.7750
  289MOL0     C38903   3.354   9.265   5.002 -0.1613 -0.1359  0.2507
  289MOL0     O38904   3.384   9.334   4.878 -0.4132  0.3826  0.4335
  289MOL0     C38905   3.490   9.283   4.814 -0.5034 -0.6394  0.0448
  289MOL0     C38906   3.606   9.346   4.831 -0.7574  0.8739  0.0411
  289MOL0     C38907   3.717   9.289   4.768 -0.6201  0.0614  0.4237
  289MOL0     C38908   3.698   9.187   4.677  0.1046  1.0060 -0.1186
  289MOL0     C38909   3.821   9.149   4.592  0.2752  0.3395 -0.9233
  289MOL0     O38910   3.920   9.241   4.586  0.6850  0.8220 -0.4870
  289MOL0     C38911   4.051   9.232   4.529  0.2730 -0.7126  0.1875
  289MOL0     C38912   4.115   9.111   4.485  0.4955 -0.2239 -0.1203
  289MOL0     C38913   4.246   9.106   4.428  0.6341  0.8642  0.6570
  289MOL0     C38914   4.317   9.227   4.421 -0.3924 -0.1932  0.2968
  289MOL0     O38915   4.445   9.246   4.374  0.1823 -0.3124  0.6659
  289MOL0     C38916   4.480   9.143   4.290 -0.1678  0.0929  0.5117
  289MOL0     C38917   4.621   9.162   4.235 -0.2674 -0.2236  0.4371
  289MOL0     C38918   4.722   9.133   4.345 -0.8363  0.0214  0.3318
  289MOL0     C38919   4.866   9.178   4.309  0.8232  0.1415 -0.2286
  289MOL0     C38920   4.922   9.100   4.195 -0.4388 -0.5795  0.0515
  289MOL0     C38921   5.055   9.164   4.145 -0.4147  0.2779  0.0936
  289MOL0     C38922   5.103   9.095   4.012 -0.3995  0.3969 -0.2967
  289MOL0     C38923   5.219   9.159   3.951 -0.3749 -0.1906 -0.1677
  289MOL0    Cl38924   5.188   9.331   3.894 -0.3445  0.1576  0.1254
  289MOL0     C38925   4.250   9.346   4.470  0.2209  0.0590  0.2572
  289MOL0     C38926   4.121   9.352   4.519 -0.0290 -0.5585 -0.2610
  289MOL0     O38927   3.821   9.042   4.532  0.0356 -0.7241 -0.1227
  289MOL0     C38928   3.575   9.127   4.658  0.6505  0.0434 -0.2110
  289MOL0     C38929   3.471   9.172   4.732 -0.2285 -0.3167  0.1444
  289MOL0     N38930   2.753   9.272   4.835 -0.0110 -0.0038 -0.5663
  289MOL0     N38931   2.688   9.202   4.745 -0.4708  0.3618 -0.0298
  289MOL0     C38932   1.737   8.346   4.561 -0.1384 -0.3720  0.3681
  289MOL0     C38933   1.609   8.295   4.596  0.1937  0.7613 -0.4775
  289MOL0     C38934   1.223   8.200   4.762  0.3343  0.1472  0.2496
  289MOL0     C38935   1.224   8.067   4.811 -0.1441  0.0819 -0.6176
  289MOL0     C38936   1.104   7.997   4.846  0.9182 -0.4949 -0.3025
  289MOL0     C38937   0.977   8.057   4.830 -0.0529  0.6461  0.2581
  289MOL0     O38938   0.868   7.981   4.865  0.0084 -0.3022  0.4034
  289MOL0     C38939   0.735   8.042   4.863  0.7941  0.2538  0.0701
  289MOL0     C38940   0.646   7.932   4.927  0.9742  1.2854  0.6174
  289MOL0     C38941   0.534   7.993   5.004 -0.2081  0.0048 -0.1672
  289MOL0     C38942   0.442   7.894   5.067  0.1532  0.0937 -0.1826
  289MOL0     C38943   0.371   7.815   4.966 -0.4075  0.7509 -0.2327
  289MOL0     C38944   0.314   7.736   4.889 -0.1850 -0.8715 -0.3537
  289MOL0     C38945   0.972   8.188   4.780  0.6476  0.1129 -0.0113
  289MOL0     C38946   1.090   8.259   4.747 -0.6715 -0.7595 -0.4392
  289MOL0     C38947   1.076   8.385   4.679 -0.1578 -0.7308 -0.1604
  289MOL0     H38948   1.650   8.215   4.910  0.0366  1.9458  0.5936
  289MOL0     H38949   1.871   8.335   4.864  1.0930  0.5551 -1.8828
  289MOL0     H38950   1.932   8.465   4.440  1.2481 -0.0155 -0.0154
  289MOL0     H38951   1.893   8.605   4.550  1.5788  1.8265 -1.0757
  289MOL0     H38952   2.090   8.624   4.399 -2.1337 -4.5723 -2.2958
  289MOL0     H38953   2.169   8.488   4.485 -2.9878 -1.6687  0.0224
  289MOL0     H38954   2.173   8.582   4.705  1.1997 -0.1683  0.0778
  289MOL0     H38955   2.118   8.734   4.623  1.2155  0.4139 -0.7874
  289MOL0     H38956   2.381   8.601   4.588  1.8330  0.4505  0.2806
  289MOL0     H38957   2.312   8.706   4.462 -0.7415  0.6555  1.1932
  289MOL0     H38958   2.323   8.890   4.592 -0.7233 -0.4694  0.7026
  289MOL0     H38959   2.333   8.803   4.746  0.7112  0.0724  0.3426
  289MOL0     H38960   2.566   8.707   4.654  0.5861  0.0491 -1.1963
  289MOL0     H38961   2.536   8.829   4.533 -3.0425  2.9490 -0.1375
  289MOL0     H38962   2.593   8.889   4.838  1.4741 -0.5629 -0.6054
  289MOL0     H38963   2.510   8.997   4.720  0.8602  0.3439 -2.5744
  289MOL0     H38964   2.785   8.889   4.693 -1.1376 -1.4913 -0.3781
  289MOL0     H38965   2.693   8.978   4.563 -2.6474  1.1791 -0.3818
  289MOL0     H38966   2.922   8.986   4.845 -0.3106  0.3974  0.9621
  289MOL0     H38967   2.943   9.355   5.000 -1.6604 -0.0241 -0.3495
  289MOL0     H38968   2.937   9.207   5.086  2.3551  1.6778  1.4851
  289MOL0     H38969   3.138   9.129   4.929  1.2646  0.8697 -2.4073
  289MOL0     H38970   3.118   9.276   4.842  1.8588  2.6240  1.7782
  289MOL0     H38971   3.193   9.247   5.137 -0.9955  0.9636 -0.4854
  289MOL0     H38972   3.206   9.402   5.045  0.2706  0.0425  1.5418
  289MOL0     H38973   3.377   9.158   5.004 -0.1021 -0.1186  2.9258
  289MOL0     H38974   3.428   9.300   5.074  0.4885 -0.4631 -0.2454
  289MOL0     H38975   3.615   9.422   4.908 -1.5142 -1.7699  2.9392
  289MOL0     H38976   3.810   9.341   4.785 -0.5019 -0.3795  1.1693
  289MOL0     H38977   4.052   9.024   4.499 -1.0227  1.1130  1.6979
  289MOL0     H38978   4.284   9.010   4.393 -1.9072 -0.3260  0.9367
  289MOL0     H38979   4.473   9.047   4.344  1.7275 -1.7786 -2.3142
  289MOL0     H38980   4.425   9.143   4.196  1.9268 -0.3340 -0.7739
  289MOL0     H38981   4.644   9.091   4.155 -0.2997  0.8905 -0.5903
  289MOL0     H38982   4.632   9.259   4.186  2.2914 -1.3229 -1.4215
  289MOL0     H38983   4.684   9.183   4.434 -0.6413  1.6149 -0.4467
  289MOL0     H38984   4.718   9.024   4.357  1.4374 -0.2818 -1.1558
  289MOL0     H38985   4.931   9.164   4.396  1.0208 -0.4320 -0.4666
  289MOL0     H38986   4.862   9.286   4.289  0.5435  0.4478  1.3584
  289MOL0     H38987   4.859   9.092   4.106  1.7067 -2.0849 -1.4430
  289MOL0     H38988   4.940   8.997   4.226 -2.0167 -1.7040 -2.4278
  289MOL0     H38989   5.031   9.268   4.120  1.2221  0.7739  0.4548
  289MOL0     H38990   5.139   9.165   4.215 -0.2402  0.7431 -0.1196
  289MOL0     H38991   5.028   9.087   3.933 -0.7603  2.6543 -0.2481
  289MOL0     H38992   5.137   8.996   4.044 -2.2115 -0.2394 -0.2287
  289MOL0     H38993   5.303   9.174   4.020  2.0070  0.8469 -3.0888
  289MOL0     H38994   5.248   9.096   3.868 -0.1053 -0.2238 -0.0494
  289MOL0     H38995   4.303   9.440   4.459  1.1676 -0.7183 -3.0962
  289MOL0     H38996   4.074   9.443   4.553 -2.9985 -1.2210 -2.2365
  289MOL0     H38997   3.563   9.049   4.584  2.2641 -2.6429  2.1521
  289MOL0     H38998   3.373   9.135   4.704  0.4024 -0.7170 -1.6518
  289MOL0     H38999   1.735   8.385   4.460 -0.3487  0.5885  0.7310
  289MOL0     H39000   1.525   8.291   4.528  1.0919 -1.1005 -1.5372
  289MOL0     H39001   1.319   8.017   4.825  0.3802  1.5966  1.8572
  289MOL0     H39002   1.117   7.901   4.893  5.0052  0.6841  1.4559
  289MOL0     H39003   0.713   8.070   4.760  2.8593  1.6098 -0.0483
  289MOL0     H39004   0.741   8.132   4.925  2.6658 -1.1919  2.1619
  289MOL0     H39005   0.696   7.871   5.002 -0.2053 -1.0092 -0.3410
  289MOL0     H39006   0.607   7.863   4.851  0.6792  0.2361  1.6951
  289MOL0     H39007   0.471   8.044   4.930 -0.6422  0.5010  0.5258
  289MOL0     H39008   0.567   8.065   5.080 -2.0401 -1.3185  2.0316
  289MOL0     H39009   0.497   7.817   5.122 -2.6772 -1.7171  0.3127
  289MOL0     H39010   0.372   7.941   5.137  0.0532 -2.3964  1.5197
  289MOL0     H39011   0.259   7.681   4.815  0.1314  0.2019 -1.4304
  289MOL0     H39012   0.882   8.239   4.747 -0.5109 -2.4811 -1.1271
  289MOL0     H39013   1.142   8.389   4.592  0.3836  2.3842  0.2738
  289MOL0     H39014   0.975   8.399   4.641  0.8795  0.9908 -2.5103
  289MOL0     H39015   1.099   8.459   4.756  3.9467 -1.0698 -0.8414
  290MOL0     O39016   5.843   5.011   8.003 -0.0512  0.3365  0.3090
  290MOL0     C39017   5.811   4.941   8.096 -0.9721 -0.0833 -0.3445
  290MOL0     O39018   5.897   4.855   8.173  1.2333 -0.2882 -0.4873
  290MOL0     C39019   6.031   4.857   8.140  0.5473 -0.4265  0.6295
  290MOL0     C39020   6.097   4.740   8.115 -0.2005  0.2065 -0.1979
  290MOL0     C39021   6.243   4.745   8.101  0.1919 -0.6037  0.1802
  290MOL0     C39022   6.301   4.878   8.115  0.3058  0.0782  0.6874
  290MOL0     O39023   6.432   4.913   8.106  0.4100  0.2303  0.6280
  290MOL0     C39024   6.530   4.817   8.075  0.6799 -0.2257 -0.0498
  290MOL0     C39025   6.666   4.876   8.088  1.1761 -0.6271 -0.0229
  290MOL0     C39026   6.688   4.960   8.209  0.2471  0.4821 -0.0316
  290MOL0     C39027   6.834   5.017   8.217  0.0688 -1.1253 -0.7250
  290MOL0     C39028   6.851   5.104   8.341  0.8290  0.1599 -0.6803
  290MOL0     C39029   6.980   5.191   8.341 -0.0908  0.3478  0.7056
  290MOL0     C39030   7.016   5.251   8.479 -0.0665 -0.0818  0.4898
  290MOL0     C39031   7.137   5.340   8.461 -0.4277  0.7450 -0.2858
  290MOL0     N39032   7.254   5.258   8.426  0.1185 -0.1556  0.1790
  290MOL0     C39033   7.300   5.250   8.296  0.0558 -0.2813 -0.2591
  290MOL0     C39034   7.418   5.187   8.297 -0.1213  0.5697 -0.1958
  290MOL0     C39035   7.508   5.137   8.185  0.4466 -0.3570 -0.7925
  290MOL0     C39036   7.428   5.071   8.074  0.0463  0.1923  0.4648
  290MOL0     C39037   7.531   5.014   7.961  0.5142 -0.1942 -0.5303
  290MOL0     C39038   7.589   5.124   7.871 -0.1558 -0.0715 -0.2998
  290MOL0     O39039   7.662   5.085   7.748  0.2842 -0.2863  0.3620
  290MOL0     C39040   7.789   5.024   7.769 -0.2256 -0.8389  0.1175
  290MOL0     C39041   7.830   4.953   7.656 -0.1079 -0.3248 -1.1711
  290MOL0     C39042   7.958   4.908   7.644 -0.9125 -0.0540 -0.1606
  290MOL0     C39043   8.047   4.916   7.754  0.2322 -0.2927 -0.8303
  290MOL0     C39044   8.183   4.857   7.753 -0.3187  0.0900 -0.2178
  290MOL0     O39045   8.219   4.811   7.635  0.2888  0.6837 -0.3462
  290MOL0     C39046   8.346   4.818   7.584 -0.6725 -0.4379 -0.6902
  290MOL0     C39047   8.447   4.908   7.635  0.0738 -0.0646 -0.4762
  290MOL0     C39048   8.568   4.918   7.561 -0.5309 -0.3641 -1.1017
  290MOL0     C39049   8.596   4.851   7.447 -0.0774  0.1290 -0.3197
  290MOL0     O39050   8.707   4.872   7.373 -0.2884  0.0920 -0.2356
  290MOL0     C39051   8.775   5.000   7.390  0.9042  0.4608 -0.0136
  290MOL0     C39052   8.887   5.005   7.291 -0.5137  0.1310 -1.1315
  290MOL0     C39053   8.977   5.126   7.324  0.5324 -0.0507  0.9446
  290MOL0     C39054   9.108   5.131   7.238  0.1705  0.9160 -0.9176
  290MOL0     C39055   9.203   5.247   7.283  1.3794  0.3620  0.2805
  290MOL0     C39056   9.320   5.264   7.181  1.2564  0.1027  0.0401
  290MOL0     C39057   9.308   5.403   7.122  0.3183 -0.1450  0.6642
  290MOL0     C39058   9.178   5.420   7.033 -1.0899  0.2552 -0.5229
  290MOL0    Cl39059   9.183   5.328   6.869 -0.3440 -0.5994 -0.6955
  290MOL0     C39060   8.500   4.753   7.404 -0.3460 -0.3621  0.8224
  290MOL0     C39061   8.372   4.743   7.465 -0.4400 -0.0580  0.0587
  290MOL0     O39062   8.248   4.850   7.861  0.3724  0.5762 -0.2593
  290MOL0     C39063   8.012   4.991   7.864  0.5267 -0.0270  0.4774
  290MOL0     C39064   7.881   5.039   7.876 -0.6767  0.6313 -0.2541
  290MOL0     N39065   7.437   5.146   8.432 -0.2991 -0.6027  0.0749
  290MOL0     N39066   7.342   5.194   8.505  0.5827 -0.6485 -0.2530
  290MOL0     C39067   6.230   4.990   8.143 -0.6559  0.1801  0.8847
  290MOL0     C39068   6.096   4.976   8.159  0.1789  0.3811 -0.5142
  290MOL0     C39069   5.670   4.923   8.131  0.6005  0.3322 -0.7532
  290MOL0     C39070   5.633   4.806   8.203 -0.4826 -0.3751 -0.0945
  290MOL0     C39071   5.498   4.793   8.241 -0.1412 -0.3872 -0.1673
  290MOL0     C39072   5.401   4.885   8.215  0.2729  0.2420  0.1124
  290MOL0     O39073   5.274   4.869   8.247  0.0969  0.2167 -0.1228
  290MOL0     C39074   5.195   4.835   8.133 -0.3827  0.4140 -1.2758
  290MOL0     C39075   5.047   4.826   8.164  0.6886  0.5841  0.4289
  290MOL0     C39076   4.951   4.807   8.044 -0.3344  0.4884 -0.0903
  290MOL0     C39077   5.021   4.723   7.926  0.2813 -0.6206  0.0671
  290MOL0     C39078   4.908   4.665   7.844 -0.2478 -0.1152  0.1702
  290MOL0     C39079   4.814   4.624   7.779 -0.2794  0.8969 -0.5108
  290MOL0     C39080   5.445   4.996   8.141 -0.0746  0.3831  0.3054
  290MOL0     C39081   5.571   5.022   8.093 -0.6362  0.7226 -0.4462
  290MOL0     C39082   5.591   5.151   8.029  0.3505 -0.5173  0.5292
  290MOL0     H39083   6.042   4.647   8.100 -2.1040  1.2392  0.0763
  290MOL0     H39084   6.304   4.655   8.090 -1.0089 -1.5584  1.1371
  290MOL0     H39085   6.515   4.727   8.135 -0.6502 -0.7626 -1.1295
  290MOL0     H39086   6.517   4.778   7.973 -0.3206 -2.4238  0.8364
  290MOL0     H39087   6.683   4.932   7.996 -0.5560 -0.3238 -0.1902
  290MOL0     H39088   6.734   4.791   8.098  3.2191  1.0447  1.2622
  290MOL0     H39089   6.656   4.906   8.298  0.6699  0.7315  0.2780
  290MOL0     H39090   6.615   5.041   8.204  0.7710  0.9553 -0.1689
  290MOL0     H39091   6.902   4.933   8.227 -0.5699 -1.5952 -0.2625
  290MOL0     H39092   6.857   5.067   8.122 -0.1216  1.0021  0.2899
  290MOL0     H39093   6.767   5.175   8.337  1.6436  1.2437  0.4539
  290MOL0     H39094   6.836   5.038   8.427  0.2403  2.4709  1.0982
  290MOL0     H39095   7.052   5.113   8.316  0.0459  0.5610  0.4378
  290MOL0     H39096   6.975   5.271   8.267 -2.1247  0.8063  1.2825
  290MOL0     H39097   7.023   5.166   8.548 -0.3436 -2.5766 -2.3081
  290MOL0     H39098   6.940   5.321   8.513  2.7457  2.6517  1.6048
  290MOL0     H39099   7.115   5.402   8.374 -0.9842  0.5737 -0.2700
  290MOL0     H39100   7.153   5.393   8.555 -0.7389  0.1555  0.1017
  290MOL0     H39101   7.250   5.289   8.209 -0.1565 -0.7165 -0.3322
  290MOL0     H39102   7.551   5.232   8.151 -0.2650 -0.6440 -2.6402
  290MOL0     H39103   7.577   5.062   8.223 -2.7153 -1.7702  2.8176
  290MOL0     H39104   7.374   4.987   8.120  1.5233 -1.9117 -1.3969
  290MOL0     H39105   7.356   5.136   8.024 -0.3677 -0.0462  0.7403
  290MOL0     H39106   7.467   4.942   7.909 -1.9686 -0.0617  2.0617
  290MOL0     H39107   7.618   4.965   8.004  0.6520  0.3170 -0.2186
  290MOL0     H39108   7.655   5.194   7.922 -0.0896 -1.1174  1.0994
  290MOL0     H39109   7.506   5.190   7.844  1.2816  1.0682 -2.1674
  290MOL0     H39110   7.756   4.924   7.583 -1.9059  1.0593  0.0126
  290MOL0     H39111   8.000   4.862   7.555 -1.2626 -0.0391 -0.3367
  290MOL0     H39112   8.438   4.962   7.728  0.5494 -2.4436  1.0533
  290MOL0     H39113   8.641   4.975   7.618  0.6970 -2.3020 -0.6211
  290MOL0     H39114   8.712   5.087   7.372  2.0051  1.7164  1.8494
  290MOL0     H39115   8.808   5.007   7.494 -1.0183 -0.0010  0.6709
  290MOL0     H39116   8.950   4.917   7.298  1.1338  1.3272 -0.2385
  290MOL0     H39117   8.843   5.020   7.191 -1.3517  0.9621 -0.6599
  290MOL0     H39118   8.912   5.213   7.311 -1.5315 -1.7186 -0.9323
  290MOL0     H39119   9.010   5.118   7.428  0.5114 -0.3933  0.9256
  290MOL0     H39120   9.079   5.145   7.133  0.4453  0.2531 -1.0845
  290MOL0     H39121   9.167   5.040   7.249  0.0594  1.0836  1.7273
  290MOL0     H39122   9.247   5.223   7.380  0.1495  2.9506  1.5894
  290MOL0     H39123   9.144   5.339   7.291  0.6840  0.3554 -3.2339
  290MOL0     H39124   9.412   5.265   7.240  1.4609  1.1900 -0.2811
  290MOL0     H39125   9.321   5.184   7.106  0.5154 -0.5581  0.7209
  290MOL0     H39126   9.398   5.422   7.063 -2.0229 -0.5654 -3.4453
  290MOL0     H39127   9.315   5.469   7.209  0.8365 -2.0057  2.1011
  290MOL0     H39128   9.088   5.394   7.091 -2.2081  2.8685 -0.9273
  290MOL0     H39129   9.170   5.525   7.004  0.5536  1.0877  1.7179
  290MOL0     H39130   8.531   4.683   7.327 -0.9285 -0.2416  0.4748
  290MOL0     H39131   8.297   4.673   7.429  1.3736 -0.7909 -2.6051
  290MOL0     H39132   8.081   5.006   7.946 -1.5669  2.6240  1.9154
  290MOL0     H39133   7.842   5.087   7.965 -3.8989  0.8373 -1.6389
  290MOL0     H39134   6.291   5.076   8.170 -0.3586  0.3519 -0.2902
  290MOL0     H39135   6.031   5.059   8.186 -0.8501 -0.3641 -0.6443
  290MOL0     H39136   5.703   4.729   8.234 -0.1714 -0.0690 -0.0426
  290MOL0     H39137   5.482   4.698   8.290 -0.7754  0.1794  0.7557
  290MOL0     H39138   5.224   4.735   8.099 -1.0920 -0.4724  0.5478
  290MOL0     H39139   5.213   4.917   8.064  0.0388  1.2477 -0.1959
  290MOL0     H39140   5.021   4.924   8.205  0.8035 -0.3592  2.9359
  290MOL0     H39141   5.027   4.743   8.233 -2.0259  0.4033 -0.4257
  290MOL0     H39142   4.910   4.904   8.016 -1.5826 -0.4342 -1.6373
  290MOL0     H39143   4.864   4.753   8.081 -1.6145  2.0792 -0.6781
  290MOL0     H39144   5.077   4.795   7.866 -1.1913  2.7781  2.4295
  290MOL0     H39145   5.079   4.640   7.966  0.2738  0.2540  2.0222
  290MOL0     H39146   4.727   4.597   7.723  0.6534 -0.8047 -1.2207
  290MOL0     H39147   5.366   5.070   8.130 -1.5480 -0.7906  2.2653
  290MOL0     H39148   5.658   5.220   8.081 -0.1304 -0.6551  1.3476
  290MOL0     H39149   5.638   5.120   7.934  0.2755 -1.6485  0.8468
  290MOL0     H39150   5.504   5.212   8.006  0.9230 -0.4603 -1.8352
  291MOL0     O39151   2.396   7.679   6.157 -0.2749  0.2864 -0.2561
  291MOL0     C39152   2.427   7.773   6.085  0.7986 -0.1764  0.1047
  291MOL0     O39153   2.549   7.843   6.086  0.0838  0.6856  0.5304
  291MOL0     C39154   2.664   7.795   6.106 -1.0222  0.3278  0.3814
  291MOL0     C39155   2.701   7.665   6.140 -0.1932 -0.2356  0.1107
  291MOL0     C39156   2.839   7.640   6.176 -0.6512  0.6998 -0.1320
  291MOL0     C39157   2.940   7.741   6.162  0.8240  0.7548  0.4943
  291MOL0     O39158   3.064   7.693   6.182 -0.3493  0.6352 -0.1405
  291MOL0     C39159   3.172   7.785   6.185 -0.7538 -0.1320  0.8169
  291MOL0     C39160   3.297   7.724   6.249  0.0228 -0.5768 -0.2237
  291MOL0     C39161   3.424   7.687   6.162  0.1003  0.3656 -0.4695
  291MOL0     C39162   3.485   7.813   6.104  0.0218  0.3933  0.0388
  291MOL0     C39163   3.603   7.784   6.009  0.6312  0.2076  0.4308
  291MOL0     C39164   3.745   7.775   6.081  0.7927  0.5541  1.2047
  291MOL0     C39165   3.760   7.647   6.157  0.2532  1.5424  0.2100
  291MOL0     C39166   3.899   7.593   6.174  0.4969 -0.0762  0.0177
  291MOL0     N39167   3.987   7.686   6.248 -0.0585 -0.5052 -0.3071
  291MOL0     C39168   4.048   7.806   6.205  0.4705 -0.0904 -0.1346
  291MOL0     C39169   4.094   7.865   6.320 -0.5826 -0.0207 -0.6730
  291MOL0     C39170   4.161   7.998   6.330 -0.3416 -0.2720 -0.6102
  291MOL0     C39171   4.300   8.002   6.279  0.0315  0.6507  0.0328
  291MOL0     C39172   4.357   8.141   6.267 -0.7536 -0.0651  0.2994
  291MOL0     C39173   4.482   8.136   6.175  0.1883 -0.0942 -0.1080
  291MOL0     O39174   4.533   8.273   6.159 -0.4200 -0.3627  0.0705
  291MOL0     C39175   4.668   8.285   6.150  0.4756  0.4960 -0.7397
  291MOL0     C39176   4.720   8.392   6.218 -0.0250 -0.0642  0.7268
  291MOL0     C39177   4.857   8.422   6.202 -0.4760 -0.1537  0.1467
  291MOL0     C39178   4.930   8.348   6.105 -0.4622 -0.2235 -0.3806
  291MOL0     C39179   5.071   8.385   6.076 -0.1170  0.5865  0.0331
  291MOL0     O39180   5.119   8.513   6.090 -0.5486 -0.3837  0.1665
  291MOL0     C39181   5.255   8.532   6.108 -0.3530  0.5912  0.4665
  291MOL0     C39182   5.330   8.604   6.014 -0.3037 -0.0155  0.0042
  291MOL0     C39183   5.464   8.632   6.029  0.5639  0.0059  0.1009
  291MOL0     C39184   5.529   8.566   6.141  0.0689  0.4405 -0.1761
  291MOL0     O39185   5.664   8.580   6.164 -0.1490  0.1776  0.5605
  291MOL0     C39186   5.745   8.599   6.050  0.4710 -0.5204 -0.0864
  291MOL0     C39187   5.805   8.738   6.060 -0.4618  0.5163 -1.0613
  291MOL0     C39188   5.715   8.864   6.072  0.3090 -0.0224 -0.1890
  291MOL0     C39189   5.798   8.995   6.065 -0.6309  0.5200 -0.2786
  291MOL0     C39190   5.708   9.123   6.041 -0.5744  0.3410  0.9825
  291MOL0     C39191   5.788   9.252   6.027 -1.2627 -0.1908 -0.2789
  291MOL0     C39192   5.872   9.295   6.153  0.1574 -0.8126  0.0828
  291MOL0     C39193   5.961   9.417   6.113 -0.6607  0.7082  0.5106
  291MOL0    Cl39194   6.087   9.357   6.005 -0.0581  0.5877  0.1120
  291MOL0     C39195   5.458   8.490   6.236 -0.3111  0.5174  0.5914
  291MOL0     C39196   5.318   8.473   6.224  0.1539  0.1864 -0.0120
  291MOL0     O39197   5.140   8.288   6.051 -0.8289  0.2411  0.2301
  291MOL0     C39198   4.880   8.228   6.050  0.4015  0.8751 -0.1005
  291MOL0     C39199   4.741   8.205   6.065 -0.0956  0.3677 -0.1774
  291MOL0     N39200   4.066   7.792   6.433  0.0052  0.4346  0.1064
  291MOL0     N39201   3.997   7.688   6.389  0.3981  0.9895 -0.6023
  291MOL0     C39202   2.896   7.870   6.130  1.0815  0.4816  0.0584
  291MOL0     C39203   2.761   7.899   6.106 -0.1534 -0.4554 -0.0116
  291MOL0     C39204   2.326   7.838   5.995  0.2135  0.3845 -0.3154
  291MOL0     C39205   2.375   7.909   5.877  0.4744  0.8181  1.1804
  291MOL0     C39206   2.287   7.974   5.797  0.1249  0.3918  0.3587
  291MOL0     C39207   2.152   7.970   5.814  0.2950  0.3622  0.0126
  291MOL0     O39208   2.075   8.047   5.736 -0.5124 -0.8966 -0.0585
  291MOL0     C39209   1.995   7.988   5.632 -0.1365  1.3365  0.3215
  291MOL0     C39210   1.855   8.032   5.615 -0.1233 -0.5846 -0.0817
  291MOL0     C39211   1.839   8.186   5.606  1.0467 -0.1356  0.0727
  291MOL0     C39212   1.698   8.225   5.567 -0.9406  0.5971  0.2791
  291MOL0     C39213   1.604   8.217   5.677 -1.6151 -0.1409 -0.3692
  291MOL0     C39214   1.532   8.225   5.773  0.5359 -0.2006 -0.3147
  291MOL0     C39215   2.102   7.891   5.918 -0.1417 -0.7659 -0.5273
  291MOL0     C39216   2.184   7.827   6.016 -0.6708  0.7562 -0.4186
  291MOL0     C39217   2.118   7.739   6.119 -0.3383 -0.1573 -0.5251
  291MOL0     H39218   2.626   7.587   6.137 -0.7001  0.2300  0.5009
  291MOL0     H39219   2.862   7.539   6.207 -4.5196 -0.2841  0.0567
  291MOL0     H39220   3.193   7.813   6.081 -0.0813 -0.0444  0.9738
  291MOL0     H39221   3.147   7.874   6.243 -2.7144  0.2897 -0.5856
  291MOL0     H39222   3.270   7.626   6.291  0.4077 -1.3733 -1.7781
  291MOL0     H39223   3.340   7.781   6.332  1.2580 -1.9346  0.1063
  291MOL0     H39224   3.403   7.617   6.081  2.7077 -2.0957  0.8207
  291MOL0     H39225   3.493   7.634   6.228 -0.9995  0.8711  1.1294
  291MOL0     H39226   3.412   7.875   6.051  0.7739  0.3536 -1.0784
  291MOL0     H39227   3.527   7.875   6.185  4.5563  0.0751 -1.7739
  291MOL0     H39228   3.587   7.690   5.954  0.1175 -0.2877  1.4055
  291MOL0     H39229   3.603   7.868   5.939 -2.3880  1.5101  1.7976
  291MOL0     H39230   3.817   7.789   5.999  0.4498 -2.8103  0.1719
  291MOL0     H39231   3.770   7.852   6.154  2.8588  1.4963 -0.3814
  291MOL0     H39232   3.710   7.582   6.086 -0.6565  1.9706  0.4490
  291MOL0     H39233   3.720   7.670   6.257  3.4973  2.3021  1.4969
  291MOL0     H39234   3.900   7.500   6.233  1.7477  2.5896  4.7024
  291MOL0     H39235   3.944   7.576   6.076 -1.8434 -1.7760 -0.8619
  291MOL0     H39236   4.059   7.844   6.104  1.6719  1.5778  0.5766
  291MOL0     H39237   4.096   8.074   6.286 -0.2863  0.6072  0.7722
  291MOL0     H39238   4.163   8.019   6.437 -1.0292  1.8052 -0.9693
  291MOL0     H39239   4.366   7.952   6.350 -1.5157 -1.0734  0.3473
  291MOL0     H39240   4.304   7.952   6.182  1.4142  1.5907 -0.4220
  291MOL0     H39241   4.385   8.172   6.368 -0.8334 -1.3227  0.7152
  291MOL0     H39242   4.290   8.220   6.231 -1.3194  0.1870  1.8382
  291MOL0     H39243   4.444   8.107   6.077 -2.6121  1.0475  0.5584
  291MOL0     H39244   4.551   8.059   6.211  0.0567 -0.9421 -1.5876
  291MOL0     H39245   4.644   8.443   6.277 -0.7574 -2.7094  2.2046
  291MOL0     H39246   4.899   8.505   6.258  0.0441 -1.0353  1.0989
  291MOL0     H39247   5.280   8.652   5.931 -0.3596 -1.4167 -0.7841
  291MOL0     H39248   5.508   8.686   5.945 -0.5687  2.3368  0.9186
  291MOL0     H39249   5.822   8.522   6.048 -0.0327 -1.0235 -1.3928
  291MOL0     H39250   5.689   8.579   5.958 -1.8955 -3.0106  1.7202
  291MOL0     H39251   5.868   8.720   6.147 -1.8393 -0.2256 -0.1687
  291MOL0     H39252   5.866   8.756   5.972  1.4168  2.8107  0.5831
  291MOL0     H39253   5.634   8.854   5.999 -0.7088  0.2821  0.8761
  291MOL0     H39254   5.665   8.861   6.169 -1.7723  0.1208 -1.2081
  291MOL0     H39255   5.876   8.974   5.991  2.5568  1.9913  2.4293
  291MOL0     H39256   5.843   9.008   6.164 -2.9899 -0.9943  1.0865
  291MOL0     H39257   5.625   9.145   6.109 -1.2692  0.6546  0.0408
  291MOL0     H39258   5.672   9.112   5.939 -0.1756  4.1704  0.2610
  291MOL0     H39259   5.853   9.245   5.939 -1.1228 -0.6584 -0.1400
  291MOL0     H39260   5.726   9.340   6.008  0.9066  1.1972 -1.3174
  291MOL0     H39261   5.953   9.228   6.184  2.3320  0.2708 -2.7758
  291MOL0     H39262   5.805   9.322   6.235  2.0203  3.2757  0.4957
  291MOL0     H39263   5.909   9.496   6.058 -0.1012  0.9588  0.3348
  291MOL0     H39264   6.025   9.460   6.191  3.9769 -1.0940 -1.9384
  291MOL0     H39265   5.516   8.442   6.314  2.6430 -1.5081 -2.5357
  291MOL0     H39266   5.264   8.400   6.283  0.8313 -0.7704 -0.5513
  291MOL0     H39267   4.943   8.160   5.995 -1.2026 -1.4572  0.8013
  291MOL0     H39268   4.688   8.132   6.005 -0.2258  0.3179 -0.0017
  291MOL0     H39269   2.965   7.953   6.115  0.2884  0.9137 -1.4375
  291MOL0     H39270   2.737   8.001   6.075  1.0651 -0.8411 -2.4169
  291MOL0     H39271   2.481   7.920   5.860  1.0029 -2.8796  1.1036
  291MOL0     H39272   2.314   8.036   5.712 -1.2156  0.2263 -0.2127
  291MOL0     H39273   1.983   7.880   5.638  0.9557  1.1060 -1.0779
  291MOL0     H39274   2.055   8.004   5.542 -1.1475 -1.1300 -0.8546
  291MOL0     H39275   1.804   7.999   5.706 -0.0325 -1.0925 -0.2143
  291MOL0     H39276   1.808   7.983   5.530 -0.4986  0.0159 -0.2229
  291MOL0     H39277   1.909   8.230   5.534 -1.6737  1.1938 -1.9557
  291MOL0     H39278   1.858   8.230   5.704 -3.1581  1.0865  0.5519
  291MOL0     H39279   1.700   8.329   5.535 -1.6510  0.5702  0.1333
  291MOL0     H39280   1.656   8.166   5.485 -4.6607  2.0844  0.9177
  291MOL0     H39281   1.456   8.217   5.848  0.4904 -0.2002 -0.3613
  291MOL0     H39282   1.994   7.892   5.920 -0.1679 -0.0309 -1.5506
  291MOL0     H39283   2.013   7.727   6.092 -0.1559 -1.0529 -0.8558
  291MOL0     H39284   2.156   7.637   6.111  0.6036  0.1390 -0.0936
  291MOL0     H39285   2.124   7.760   6.226  2.5886 -1.7476 -0.2712
  292MOL0     O39286   4.260   0.725   8.999  0.4072  0.5604 -0.2542
  292MOL0     C39287   4.185   0.782   8.920  0.4365 -0.1191 -0.5337
  292MOL0     O39288   4.198   0.796   8.782  0.0898  0.3330  0.2702
  292MOL0     C39289   4.310   0.737   8.723  0.1822 -0.3267  0.4204
  292MOL0     C39290   4.302   0.637   8.620  0.5138  0.4521 -0.0505
  292MOL0     C39291   4.418   0.590   8.554  0.4077  0.3171 -0.1090
  292MOL0     C39292   4.546   0.636   8.589  0.3211 -0.3064 -0.2498
  292MOL0     O39293   4.649   0.586   8.515  0.3849  0.6597 -0.0905
  292MOL0     C39294   4.783   0.634   8.523 -0.2670  0.1215  1.0783
  292MOL0     C39295   4.872   0.582   8.402  0.3089  0.3251 -0.1578
  292MOL0     C39296   5.022   0.601   8.433 -0.3020  0.1150  0.2749
  292MOL0     C39297   5.099   0.562   8.308 -0.2603  0.3852 -0.4937
  292MOL0     C39298   5.249   0.558   8.333 -0.1963 -0.0475  1.0790
  292MOL0     C39299   5.320   0.515   8.204  0.0068 -0.0666 -0.4384
  292MOL0     C39300   5.466   0.551   8.210 -1.0607 -0.9111  0.1780
  292MOL0     C39301   5.557   0.479   8.315 -0.3347 -0.3880 -0.1595
  292MOL0     N39302   5.696   0.531   8.321 -0.5504  0.1556 -0.3789
  292MOL0     C39303   5.777   0.571   8.213 -0.2216 -0.8982 -0.0695
  292MOL0     C39304   5.879   0.643   8.267 -0.0409  0.0149 -0.4815
  292MOL0     C39305   5.975   0.733   8.201 -0.4879 -0.1378 -0.3324
  292MOL0     C39306   5.911   0.851   8.114  0.6625 -0.2537 -0.3396
  292MOL0     C39307   5.838   0.952   8.213 -1.3834  0.5531  0.1070
  292MOL0     C39308   5.688   0.916   8.228 -0.7550  0.6987 -0.7403
  292MOL0     O39309   5.628   0.963   8.106 -0.2943  0.2108  0.0982
  292MOL0     C39310   5.484   0.957   8.103  0.6536  0.0520  0.0310
  292MOL0     C39311   5.419   0.980   7.981  0.3497  0.6961 -0.4066
  292MOL0     C39312   5.277   0.985   7.972 -0.2796  0.1124  0.5139
  292MOL0     C39313   5.196   0.949   8.079  0.3830 -0.0132 -1.1489
  292MOL0     C39314   5.046   0.952   8.082  0.1691 -0.7958  0.0440
  292MOL0     O39315   4.972   0.885   8.172 -0.3050 -0.3415 -0.0596
  292MOL0     C39316   4.838   0.855   8.150 -0.4549 -0.2114  0.6443
  292MOL0     C39317   4.792   0.802   8.031 -0.5955 -0.4959  0.2241
  292MOL0     C39318   4.656   0.780   8.011  1.2686  0.3548  0.7192
  292MOL0     C39319   4.565   0.798   8.115  0.7960  0.1767  0.7802
  292MOL0     O39320   4.436   0.764   8.087  0.6482 -0.9285  0.2928
  292MOL0     C39321   4.349   0.725   8.194  0.0036  0.4449 -0.2604
  292MOL0     C39322   4.213   0.689   8.139  0.1232  0.2741 -0.0908
  292MOL0     C39323   4.130   0.667   8.265  1.0813 -0.0712 -0.2228
  292MOL0     C39324   3.977   0.667   8.229 -0.2010 -0.0540  0.0856
  292MOL0     C39325   3.888   0.668   8.352  0.2288 -0.0871  0.0560
  292MOL0     C39326   3.745   0.711   8.332  0.0856 -0.1960  0.7924
  292MOL0     C39327   3.652   0.596   8.307  0.0409 -0.2300 -0.5393
  292MOL0     C39328   3.510   0.650   8.286  0.7804 -0.0699  1.1078
  292MOL0    Cl39329   3.443   0.717   8.426  0.5390 -0.2685 -0.2940
  292MOL0     C39330   4.607   0.839   8.244 -0.6564  0.0530  0.4340
  292MOL0     C39331   4.746   0.872   8.255  0.3389  0.5055 -0.2523
  292MOL0     O39332   5.001   1.001   7.976  0.4514  0.1709 -0.4555
  292MOL0     C39333   5.257   0.932   8.201 -0.3935 -0.6228  0.3616
  292MOL0     C39334   5.400   0.940   8.218 -0.0754 -0.5735 -0.4142
  292MOL0     N39335   5.871   0.641   8.407 -0.4701  0.5006  0.1175
  292MOL0     N39336   5.764   0.561   8.435 -0.5030  0.4545  0.4455
  292MOL0     C39337   4.553   0.742   8.688  0.1007 -0.3048  0.3676
  292MOL0     C39338   4.439   0.796   8.745 -0.1113 -0.6749 -0.0072
  292MOL0     C39339   4.063   0.854   8.978  0.5140  0.3394  0.5768
  292MOL0     C39340   3.997   0.806   9.097  0.3496 -0.2805  0.3460
  292MOL0     C39341   3.875   0.867   9.136  1.1469 -0.3949 -0.1682
  292MOL0     C39342   3.800   0.954   9.053 -1.1303  0.0885  0.2876
  292MOL0     O39343   3.672   1.002   9.068  0.0019 -0.5095 -0.3175
  292MOL0     C39344   3.596   0.952   9.188 -0.3903 -0.5473  0.5127
  292MOL0     C39345   3.528   0.821   9.145 -0.5636 -0.2832  0.6359
  292MOL0     C39346   3.440   0.781   9.268 -0.3998 -0.7058  0.5751
  292MOL0     C39347   3.352   0.674   9.209  0.0676 -0.0321 -0.4395
  292MOL0     C39348   3.274   0.597   9.319 -0.4364 -0.1358  0.1224
  292MOL0     C39349   3.211   0.535   9.403 -0.6434  0.5624  0.7995
  292MOL0     C39350   3.870   1.001   8.939 -0.9408  0.4628 -0.3268
  292MOL0     C39351   4.001   0.969   8.914  0.3550  0.2104 -0.0730
  292MOL0     C39352   4.050   1.045   8.792  0.1811  0.1834 -0.4182
  292MOL0     H39353   4.207   0.593   8.589 -1.7034  3.6041  1.6891
  292MOL0     H39354   4.411   0.508   8.482 -1.1271  0.1956  0.1536
  292MOL0     H39355   4.775   0.743   8.528 -1.6198  0.1469 -0.6356
  292MOL0     H39356   4.812   0.598   8.622 -0.2484  0.9706  1.3976
  292MOL0     H39357   4.848   0.652   8.321  2.8917 -0.9562 -2.1933
  292MOL0     H39358   4.846   0.479   8.377 -3.5181  1.6774 -2.7377
  292MOL0     H39359   5.037   0.537   8.521 -1.5707 -1.4685 -0.6020
  292MOL0     H39360   5.032   0.709   8.448 -2.6723  0.4730 -0.2978
  292MOL0     H39361   5.064   0.464   8.274  0.1155  0.2439 -0.4800
  292MOL0     H39362   5.066   0.640   8.241  0.3825 -0.5046 -1.8982
  292MOL0     H39363   5.294   0.656   8.352 -0.1436  0.1902 -0.1683
  292MOL0     H39364   5.267   0.496   8.421 -2.1909 -1.0257  0.8581
  292MOL0     H39365   5.298   0.408   8.190 -3.2732 -0.3116  4.2279
  292MOL0     H39366   5.279   0.563   8.114  1.8893  1.8345 -0.3448
  292MOL0     H39367   5.477   0.659   8.219 -0.9141 -0.9450  0.4340
  292MOL0     H39368   5.500   0.528   8.109 -1.8154 -1.7648  0.1064
  292MOL0     H39369   5.523   0.495   8.418  3.2088 -0.0800  1.1057
  292MOL0     H39370   5.568   0.376   8.278 -0.3134 -0.6828  0.6445
  292MOL0     H39371   5.763   0.550   8.108 -2.6004 -1.8021  0.3747
  292MOL0     H39372   6.037   0.777   8.280  0.7831 -0.8830 -0.8746
  292MOL0     H39373   6.032   0.653   8.152  0.2106  0.3263 -0.2878
  292MOL0     H39374   6.001   0.880   8.059 -0.2335 -0.7804 -2.1340
  292MOL0     H39375   5.841   0.813   8.039 -0.4844 -0.5351  0.8422
  292MOL0     H39376   5.855   1.053   8.174 -2.9014  0.9407  0.4003
  292MOL0     H39377   5.884   0.944   8.312  2.5134  0.8884 -1.4643
  292MOL0     H39378   5.653   0.954   8.324  0.5001 -1.0548  0.4792
  292MOL0     H39379   5.663   0.810   8.231 -1.6874  0.9303  0.3881
  292MOL0     H39380   5.463   1.009   7.886 -2.8275  2.7090 -1.4331
  292MOL0     H39381   5.242   1.010   7.872  0.5005  1.0712  0.4576
  292MOL0     H39382   4.859   0.788   7.946 -0.1093 -0.1803  0.5526
  292MOL0     H39383   4.625   0.752   7.911  0.7447  1.4943  0.5462
  292MOL0     H39384   4.382   0.639   8.252 -1.6239 -0.7960 -1.0729
  292MOL0     H39385   4.345   0.815   8.257 -0.9750  2.2109 -2.6755
  292MOL0     H39386   4.174   0.767   8.073 -0.6359  1.8765  2.1285
  292MOL0     H39387   4.212   0.592   8.088 -0.5875  0.9450 -1.4065
  292MOL0     H39388   4.153   0.571   8.311 -0.4063 -1.3464 -2.0097
  292MOL0     H39389   4.139   0.759   8.324 -0.7292  1.3663 -2.0372
  292MOL0     H39390   3.950   0.581   8.169  2.5460 -1.3895  0.5948
  292MOL0     H39391   3.962   0.765   8.181  0.3728  0.0249  0.0617
  292MOL0     H39392   3.937   0.731   8.428  0.8408 -1.2903  0.6962
  292MOL0     H39393   3.897   0.565   8.389  0.1975 -1.2547 -2.9182
  292MOL0     H39394   3.714   0.750   8.429 -0.0947  2.5839 -0.2835
  292MOL0     H39395   3.731   0.803   8.275 -0.6444 -0.1267  1.0738
  292MOL0     H39396   3.633   0.529   8.392 -4.9546  1.0303 -0.3186
  292MOL0     H39397   3.676   0.530   8.224 -0.5254  0.8355 -1.5755
  292MOL0     H39398   3.517   0.719   8.202 -0.1848 -1.7674 -0.4272
  292MOL0     H39399   3.431   0.578   8.260  0.8390  0.0105  0.7015
  292MOL0     H39400   4.541   0.862   8.328 -0.2341  2.0262  0.2713
  292MOL0     H39401   4.792   0.897   8.350  0.7794 -0.1964 -0.2788
  292MOL0     H39402   5.212   0.924   8.299  1.9838 -0.5403  1.5302
  292MOL0     H39403   5.443   0.927   8.317 -0.9235 -1.8019 -0.1823
  292MOL0     H39404   4.644   0.795   8.714 -0.9171  1.0041  1.4369
  292MOL0     H39405   4.449   0.868   8.826  2.1285 -0.8127 -0.1166
  292MOL0     H39406   4.055   0.733   9.152  1.1194 -1.0461 -1.3893
  292MOL0     H39407   3.829   0.814   9.219 -0.1178 -2.3316 -1.9733
  292MOL0     H39408   3.519   1.026   9.210  0.5569  0.0650  1.9308
  292MOL0     H39409   3.664   0.938   9.272 -0.0755 -0.6795  0.2401
  292MOL0     H39410   3.604   0.744   9.124 -1.4399 -0.8298 -0.6377
  292MOL0     H39411   3.473   0.835   9.052  0.1503  1.1210  0.4077
  292MOL0     H39412   3.378   0.865   9.300  0.3999 -0.0666  0.4798
  292MOL0     H39413   3.515   0.757   9.345  0.4873  1.3785  0.4299
  292MOL0     H39414   3.288   0.704   9.125  1.0658  2.6240 -0.3416
  292MOL0     H39415   3.422   0.603   9.165 -1.7216 -1.2830 -1.4100
  292MOL0     H39416   3.154   0.481   9.476 -0.0230 -0.0692  0.8266
  292MOL0     H39417   3.810   1.068   8.877 -3.3052 -1.0629  0.1886
  292MOL0     H39418   4.153   1.067   8.822  0.3087 -1.1274  0.1846
  292MOL0     H39419   4.049   0.982   8.703 -0.9117  1.4974 -1.3783
  292MOL0     H39420   3.990   1.133   8.768  1.8676  1.5450  0.1237
  293MOL0     O39421   1.141   7.369   7.149 -0.4361  0.1492  0.3971
  293MOL0     C39422   1.126   7.262   7.210 -0.5781 -0.1668  1.1088
  293MOL0     O39423   1.229   7.175   7.253  0.1894  0.0346  0.8042
  293MOL0     C39424   1.356   7.198   7.212  0.2915  0.0521  0.0325
  293MOL0     C39425   1.439   7.301   7.263  0.4048 -0.8873  1.0749
  293MOL0     C39426   1.579   7.307   7.230 -0.4730  0.3073  0.2748
  293MOL0     C39427   1.636   7.221   7.145 -0.6367  0.7021 -0.3905
  293MOL0     O39428   1.761   7.244   7.100 -0.3994  0.3005  0.0043
  293MOL0     C39429   1.789   7.240   6.960 -0.0671  0.6760  1.1134
  293MOL0     C39430   1.935   7.289   6.927 -0.4079  0.9036  0.2397
  293MOL0     C39431   2.035   7.192   6.982  1.1337 -0.4596 -0.8444
  293MOL0     C39432   2.172   7.252   7.019  0.1987 -0.6583 -0.2275
  293MOL0     C39433   2.277   7.162   7.090  0.6985  0.5101  0.4961
  293MOL0     C39434   2.342   7.067   6.991  1.1530 -0.2723  0.1275
  293MOL0     C39435   2.466   7.005   7.054 -0.2754 -0.1424 -0.8257
  293MOL0     C39436   2.420   6.899   7.155  0.5459 -0.6716  0.0994
  293MOL0     N39437   2.533   6.816   7.196 -1.1321 -0.2263  0.3212
  293MOL0     C39438   2.644   6.861   7.281 -0.1949  0.9943 -0.8984
  293MOL0     C39439   2.691   6.739   7.324  0.4085 -0.4278  0.4652
  293MOL0     C39440   2.790   6.712   7.438  0.8762  0.3377 -0.3229
  293MOL0     C39441   2.934   6.765   7.429 -0.2413 -0.8241 -0.3972
  293MOL0     C39442   3.003   6.764   7.563  0.1879 -0.8658  0.5547
  293MOL0     C39443   3.155   6.796   7.537 -0.2632 -0.1088 -0.0829
  293MOL0     O39444   3.159   6.937   7.490 -0.1878 -0.2661  0.5038
  293MOL0     C39445   3.276   6.993   7.442 -0.2819  0.3316  0.1193
  293MOL0     C39446   3.384   6.928   7.382  0.5333  0.3658  0.4877
  293MOL0     C39447   3.501   6.996   7.343  0.0413  1.7747 -0.2892
  293MOL0     C39448   3.511   7.135   7.359 -0.3850  0.1518  0.8491
  293MOL0     C39449   3.642   7.203   7.325  0.5853 -0.9203  0.8648
  293MOL0     O39450   3.753   7.130   7.337 -0.1271  0.0498 -0.1150
  293MOL0     C39451   3.873   7.205   7.343  0.7231 -0.1037  0.7150
  293MOL0     C39452   3.954   7.185   7.459 -0.0208  0.1291 -0.0125
  293MOL0     C39453   4.088   7.230   7.468 -0.7023  0.0116  0.1003
  293MOL0     C39454   4.145   7.294   7.358 -0.5638 -0.0039  0.4410
  293MOL0     O39455   4.276   7.327   7.365  1.2186  0.0676 -0.3338
  293MOL0     C39456   4.354   7.361   7.251 -0.0495 -0.0594 -0.3881
  293MOL0     C39457   4.505   7.308   7.266  0.3880 -0.6715 -0.0280
  293MOL0     C39458   4.614   7.396   7.202  0.0029 -0.0390 -0.2324
  293MOL0     C39459   4.579   7.456   7.060  0.9077  0.6803  0.8455
  293MOL0     C39460   4.587   7.335   6.952  0.0057 -0.6678  0.4886
  293MOL0     C39461   4.704   7.231   6.949 -0.2767  0.2703 -0.3726
  293MOL0     C39462   4.837   7.313   6.936  0.1673  0.8396  0.2865
  293MOL0     C39463   4.966   7.224   6.899 -0.7025 -0.1549 -0.3152
  293MOL0    Cl39464   4.999   7.092   7.015 -0.2492 -0.2069 -0.4989
  293MOL0     C39465   4.063   7.322   7.241 -0.4580 -0.2265 -0.5060
  293MOL0     C39466   3.929   7.278   7.237  0.1843  0.2566 -0.4273
  293MOL0     O39467   3.636   7.325   7.305 -0.0645 -0.2844  0.3764
  293MOL0     C39468   3.395   7.203   7.402 -0.0800 -0.4127 -0.8625
  293MOL0     C39469   3.274   7.137   7.441  0.1851  0.7337 -0.6346
  293MOL0     N39470   2.641   6.635   7.243 -0.4224 -0.1977 -0.3478
  293MOL0     N39471   2.539   6.678   7.170 -0.3378 -0.2562 -0.2143
  293MOL0     C39472   1.555   7.111   7.101  0.5318  0.9185  0.4144
  293MOL0     C39473   1.420   7.102   7.136 -0.1346  0.4212  0.0917
  293MOL0     C39474   0.991   7.212   7.256  0.4542  0.5083  0.0005
  293MOL0     C39475   0.988   7.152   7.381  0.0108 -0.2814 -0.3173
  293MOL0     C39476   0.872   7.109   7.442 -0.0652  0.1694 -0.0075
  293MOL0     C39477   0.746   7.126   7.382  0.8930 -0.0056  0.3205
  293MOL0     O39478   0.629   7.066   7.414 -0.2739 -0.2660 -0.3008
  293MOL0     C39479   0.628   6.953   7.498 -0.2157  0.1747  0.7694
  293MOL0     C39480   0.488   6.900   7.512 -0.3854 -0.9761 -0.1640
  293MOL0     C39481   0.486   6.787   7.608 -0.3410  0.3768  0.0508
  293MOL0     C39482   0.369   6.703   7.587 -0.8956 -0.1433 -0.3535
  293MOL0     C39483   0.342   6.613   7.704 -0.0564  0.4930  0.5833
  293MOL0     C39484   0.351   6.530   7.797  0.1979 -1.0248 -0.1942
  293MOL0     C39485   0.742   7.203   7.266 -0.3518 -0.7655  0.8737
  293MOL0     C39486   0.860   7.239   7.197 -0.6272 -0.4157 -0.7549
  293MOL0     C39487   0.852   7.295   7.056 -0.0144 -1.1977 -0.3103
  293MOL0     H39488   1.400   7.374   7.334  0.6887  1.4282 -1.0325
  293MOL0     H39489   1.638   7.396   7.250 -0.1588  0.2101 -0.2245
  293MOL0     H39490   1.764   7.145   6.911 -1.8314  0.0143  3.0994
  293MOL0     H39491   1.727   7.315   6.910 -1.4311 -1.0616  0.0841
  293MOL0     H39492   1.951   7.388   6.971  2.6896  0.6849 -0.1203
  293MOL0     H39493   1.953   7.292   6.819 -1.6530 -1.0393 -0.0743
  293MOL0     H39494   2.062   7.113   6.912  1.9960 -0.8691 -0.0732
  293MOL0     H39495   2.006   7.149   7.078 -0.4300  1.0648 -0.5879
  293MOL0     H39496   2.222   7.287   6.928  1.9020 -0.2355  0.8157
  293MOL0     H39497   2.153   7.347   7.070 -0.6687 -0.6561 -0.5458
  293MOL0     H39498   2.361   7.215   7.134 -0.6690  2.8845  0.3917
  293MOL0     H39499   2.240   7.102   7.174  3.1275 -1.2236  0.4345
  293MOL0     H39500   2.269   6.989   6.970 -0.8835  1.2810  1.0569
  293MOL0     H39501   2.363   7.114   6.894  0.0818 -1.7390 -0.8639
  293MOL0     H39502   2.536   7.074   7.103 -0.5457 -1.1233  1.0331
  293MOL0     H39503   2.525   6.955   6.977 -0.1511 -1.0223 -0.1845
  293MOL0     H39504   2.387   6.950   7.246  0.7952 -1.5150  0.6761
  293MOL0     H39505   2.340   6.832   7.124 -0.3285 -2.0453  4.6207
  293MOL0     H39506   2.668   6.962   7.312 -0.1843  0.9580 -0.7894
  293MOL0     H39507   2.742   6.739   7.532 -1.3689 -0.7578 -1.0995
  293MOL0     H39508   2.789   6.603   7.435  0.3339  0.3435 -0.3110
  293MOL0     H39509   2.975   6.693   7.357 -1.3911 -2.2364  0.3252
  293MOL0     H39510   2.934   6.868   7.390  0.2480 -0.8133 -0.3818
  293MOL0     H39511   2.993   6.667   7.614 -0.5965 -0.5871  0.9471
  293MOL0     H39512   2.963   6.833   7.638 -2.4707 -2.4577  0.7006
  293MOL0     H39513   3.197   6.734   7.457 -2.4587 -2.4307  0.4303
  293MOL0     H39514   3.223   6.788   7.622 -0.9264  1.2424  0.6108
  293MOL0     H39515   3.373   6.821   7.373 -1.5307  0.4995  0.8303
  293MOL0     H39516   3.586   6.942   7.303 -0.0202  1.1501  0.4043
  293MOL0     H39517   3.910   7.125   7.538 -1.1493  0.1972 -0.5746
  293MOL0     H39518   4.148   7.200   7.553 -0.3027  0.0455 -0.1673
  293MOL0     H39519   4.314   7.322   7.157 -1.3581 -2.3640  1.0416
  293MOL0     H39520   4.367   7.470   7.248 -1.5640  0.1531 -0.1124
  293MOL0     H39521   4.526   7.316   7.373 -0.0661 -2.2117  0.2037
  293MOL0     H39522   4.512   7.203   7.235  1.7585 -0.7797  0.5705
  293MOL0     H39523   4.629   7.480   7.270  0.1292  0.2261 -0.5854
  293MOL0     H39524   4.709   7.340   7.206 -0.2386 -0.4149  0.4763
  293MOL0     H39525   4.650   7.534   7.033  0.2678  0.5322 -1.4232
  293MOL0     H39526   4.480   7.500   7.071 -0.2632 -1.6808  0.4029
  293MOL0     H39527   4.591   7.384   6.854 -3.6719 -1.8458 -0.4172
  293MOL0     H39528   4.493   7.280   6.965  0.4008 -1.3183  0.6126
  293MOL0     H39529   4.699   7.164   7.036  1.1603  0.4948 -0.0867
  293MOL0     H39530   4.692   7.167   6.862 -0.8486 -0.0990 -0.0309
  293MOL0     H39531   4.862   7.345   7.037  1.0677 -0.8984  0.6540
  293MOL0     H39532   4.823   7.393   6.862  0.6133  0.6901  0.0338
  293MOL0     H39533   4.941   7.186   6.800 -2.6676  1.5460 -0.5208
  293MOL0     H39534   5.054   7.288   6.884 -0.6589 -0.1929 -0.2208
  293MOL0     H39535   4.110   7.365   7.153  1.3422 -1.1266 -0.0443
  293MOL0     H39536   3.855   7.286   7.159 -2.2175  0.3485  1.7063
  293MOL0     H39537   3.405   7.311   7.415  1.1463 -0.6205  0.0402
  293MOL0     H39538   3.179   7.177   7.476 -1.9757 -3.9453 -0.4252
  293MOL0     H39539   1.606   7.040   7.038 -1.2880 -0.7106  0.6851
  293MOL0     H39540   1.361   7.018   7.099 -1.1918  1.4672 -0.6833
  293MOL0     H39541   1.082   7.131   7.433 -0.3797 -0.2647  0.4093
  293MOL0     H39542   0.870   7.040   7.526  1.8624 -0.9965 -0.8557
  293MOL0     H39543   0.662   6.983   7.597 -1.1291  4.6284 -0.0315
  293MOL0     H39544   0.692   6.872   7.462  0.8439  1.3208 -0.0239
  293MOL0     H39545   0.460   6.872   7.410 -0.2135 -0.5235 -0.3376
  293MOL0     H39546   0.419   6.975   7.552  1.8203  2.3723 -2.1337
  293MOL0     H39547   0.480   6.828   7.709  1.3748 -2.2735  1.3360
  293MOL0     H39548   0.574   6.724   7.595 -2.1913 -2.5108  0.5190
  293MOL0     H39549   0.285   6.764   7.553 -1.1562 -2.0165 -3.5017
  293MOL0     H39550   0.403   6.634   7.509  1.4337  0.4454  0.0771
  293MOL0     H39551   0.353   6.464   7.881 -1.3545  0.6968  1.2735
  293MOL0     H39552   0.643   7.220   7.224  0.0774  1.6516  0.6955
  293MOL0     H39553   0.757   7.270   7.009 -0.7190 -0.3129  0.5911
  293MOL0     H39554   0.869   7.402   7.075 -0.9230 -0.7041 -2.1075
  293MOL0     H39555   0.932   7.260   6.989  0.2150 -0.7155 -0.2916
  294MOL0     O39556   3.618   4.625   7.159 -0.3981  0.2408  0.1993
  294MOL0     C39557   3.618   4.532   7.236  0.6694 -0.8155 -0.2493
  294MOL0     O39558   3.723   4.496   7.320 -0.5634 -0.1125  0.3249
  294MOL0     C39559   3.825   4.585   7.357  0.5856  1.0462 -0.0743
  294MOL0     C39560   3.871   4.700   7.288  0.4875 -0.5956 -0.4673
  294MOL0     C39561   3.975   4.783   7.335 -0.3111 -0.1188  0.0662
  294MOL0     C39562   4.041   4.748   7.456  0.5967 -0.6798  0.1555
  294MOL0     O39563   4.154   4.808   7.500 -0.3303 -0.0710  0.2171
  294MOL0     C39564   4.124   4.934   7.561 -0.8966  1.2083  0.9169
  294MOL0     C39565   4.258   4.983   7.608  0.8013  0.1035 -1.0449
  294MOL0     C39566   4.234   5.107   7.690 -0.4231  0.0452  0.9092
  294MOL0     C39567   4.370   5.149   7.762  0.5534  0.0754  0.1236
  294MOL0     C39568   4.349   5.283   7.827 -0.7521  0.0112  0.1945
  294MOL0     C39569   4.482   5.338   7.905 -0.2504 -0.0914  0.4538
  294MOL0     C39570   4.565   5.404   7.801 -0.2173 -0.3828 -0.3052
  294MOL0     C39571   4.685   5.479   7.862  0.0112 -0.1597  0.1562
  294MOL0     N39572   4.762   5.553   7.756 -0.0494  0.3304 -0.8888
  294MOL0     C39573   4.890   5.542   7.724 -0.4925  0.3317  0.5902
  294MOL0     C39574   4.910   5.645   7.641 -0.5269 -0.0761  0.8478
  294MOL0     C39575   5.036   5.655   7.569 -0.2039  0.0787  1.5608
  294MOL0     C39576   5.010   5.609   7.422 -0.1665 -0.6065 -0.0966
  294MOL0     C39577   5.095   5.675   7.308  1.0757 -0.2384  0.1655
  294MOL0     C39578   5.245   5.669   7.334 -0.4364  0.9709 -1.0212
  294MOL0     O39579   5.317   5.694   7.207 -0.4880  0.0133  0.3363
  294MOL0     C39580   5.455   5.720   7.220  0.5286 -0.6571 -0.1950
  294MOL0     C39581   5.529   5.721   7.338 -0.9572  0.0017 -0.8495
  294MOL0     C39582   5.666   5.754   7.326 -0.0674 -0.3642  0.1944
  294MOL0     C39583   5.731   5.770   7.199 -0.5709 -0.2813  0.7177
  294MOL0     C39584   5.874   5.804   7.188  0.1520  0.0633  0.4965
  294MOL0     O39585   5.942   5.770   7.075  0.1361  0.4174  0.2889
  294MOL0     C39586   6.076   5.775   7.065 -0.9894 -0.2478 -0.2231
  294MOL0     C39587   6.136   5.660   7.004 -0.0624  0.1061  0.1753
  294MOL0     C39588   6.272   5.651   6.996 -0.6765  0.1882  1.1252
  294MOL0     C39589   6.362   5.760   7.037 -0.4404  0.4057  0.5058
  294MOL0     O39590   6.496   5.753   7.010  0.4520  0.1526 -0.0903
  294MOL0     C39591   6.582   5.789   7.119 -1.5852  0.1067  0.2542
  294MOL0     C39592   6.592   5.683   7.230  0.2120  0.1511  0.3911
  294MOL0     C39593   6.663   5.554   7.196  0.2033  1.1446 -0.6122
  294MOL0     C39594   6.812   5.552   7.208 -0.2395 -0.3983 -0.0211
  294MOL0     C39595   6.875   5.413   7.166 -0.4057  0.4992  0.2116
  294MOL0     C39596   7.030   5.420   7.190  0.9188 -0.7021  0.3560
  294MOL0     C39597   7.101   5.291   7.163 -0.1141  0.2266 -0.5694
  294MOL0     C39598   7.250   5.318   7.164 -0.7018  0.1697 -0.7639
  294MOL0    Cl39599   7.292   5.395   7.010  0.1276  0.1954 -0.3285
  294MOL0     C39600   6.306   5.880   7.085 -0.2741 -0.0116  0.1735
  294MOL0     C39601   6.163   5.878   7.103  0.2427 -1.0312  0.7018
  294MOL0     O39602   5.926   5.862   7.279 -0.2287 -0.2024 -0.1203
  294MOL0     C39603   5.654   5.757   7.081  0.1852  0.1240  0.0033
  294MOL0     C39604   5.514   5.743   7.095  0.0880 -0.1211 -0.1380
  294MOL0     N39605   4.792   5.720   7.619 -0.3576 -0.0731 -0.0868
  294MOL0     N39606   4.710   5.660   7.691 -0.1609  0.2642  0.0597
  294MOL0     C39607   3.995   4.642   7.521  0.0415 -0.2505 -0.3322
  294MOL0     C39608   3.896   4.553   7.470 -0.1786  0.2224  0.1814
  294MOL0     C39609   3.487   4.456   7.256 -0.6032 -0.1593 -0.1211
  294MOL0     C39610   3.460   4.383   7.381  0.4005  0.1373 -0.1343
  294MOL0     C39611   3.338   4.320   7.410  0.2080  0.6045 -0.5027
  294MOL0     C39612   3.239   4.327   7.318 -0.2304 -0.4237  0.2075
  294MOL0     O39613   3.117   4.263   7.324 -0.7716  0.3367 -0.0899
  294MOL0     C39614   3.112   4.132   7.375  0.8757  0.7676  0.0233
  294MOL0     C39615   2.972   4.097   7.409  0.2076  0.1118  0.1003
  294MOL0     C39616   2.963   3.954   7.470 -0.7410  0.1030 -0.0579
  294MOL0     C39617   2.822   3.901   7.464  0.5169  0.8361 -0.0479
  294MOL0     C39618   2.779   3.860   7.325 -0.2684 -1.1084 -0.0812
  294MOL0     C39619   2.757   3.822   7.210 -0.0269 -1.1818 -0.4257
  294MOL0     C39620   3.257   4.398   7.192 -0.0438 -0.5828 -0.4834
  294MOL0     C39621   3.381   4.451   7.160 -0.2749 -0.4738 -0.6992
  294MOL0     C39622   3.384   4.522   7.027  0.6819 -0.1137  0.4274
  294MOL0     H39623   3.828   4.737   7.195  1.3992 -1.5890 -1.3053
  294MOL0     H39624   4.004   4.866   7.271  0.7346 -0.8056 -0.3793
  294MOL0     H39625   4.082   5.003   7.487 -0.1776  0.2675 -0.3992
  294MOL0     H39626   4.059   4.920   7.648 -1.5828  1.3425  0.4315
  294MOL0     H39627   4.325   5.019   7.529  1.4984 -1.0206 -0.9789
  294MOL0     H39628   4.303   4.903   7.668  2.5446  0.9882 -1.1080
  294MOL0     H39629   4.157   5.093   7.767  0.2044  1.0668  1.7535
  294MOL0     H39630   4.197   5.187   7.626 -1.3709 -1.0822 -0.0016
  294MOL0     H39631   4.385   5.077   7.843  5.0559  1.1277  0.4718
  294MOL0     H39632   4.463   5.148   7.705  1.3581 -2.7908  1.3025
  294MOL0     H39633   4.323   5.350   7.745  3.4749  0.7147 -0.7914
  294MOL0     H39634   4.273   5.285   7.906  0.5092  0.7417  1.4475
  294MOL0     H39635   4.455   5.408   7.984  1.2806  2.4737 -1.1719
  294MOL0     H39636   4.521   5.250   7.957  0.1462 -0.4941 -0.4816
  294MOL0     H39637   4.506   5.478   7.745  3.7527  1.0330 -3.0790
  294MOL0     H39638   4.606   5.335   7.727 -0.3958 -0.4991 -0.2966
  294MOL0     H39639   4.637   5.553   7.926 -1.3434 -2.7923  2.3841
  294MOL0     H39640   4.754   5.413   7.916  1.5091  1.4656  0.3292
  294MOL0     H39641   4.956   5.470   7.772 -0.1024  0.7092  0.6329
  294MOL0     H39642   5.075   5.758   7.570 -1.2677  0.4902  2.1404
  294MOL0     H39643   5.115   5.593   7.613 -1.4178 -1.7124  1.3008
  294MOL0     H39644   5.025   5.501   7.415  2.5948 -0.3530  0.7747
  294MOL0     H39645   4.903   5.611   7.396 -0.6239 -1.6302  1.5852
  294MOL0     H39646   5.062   5.774   7.277 -0.9841 -0.9758 -0.1876
  294MOL0     H39647   5.077   5.613   7.220 -2.7602 -0.5362  0.9656
  294MOL0     H39648   5.273   5.572   7.374  0.9256  1.9320  0.4959
  294MOL0     H39649   5.269   5.740   7.414 -2.9323  0.9159 -0.1455
  294MOL0     H39650   5.485   5.720   7.437  1.1460  2.4742  0.2308
  294MOL0     H39651   5.721   5.759   7.419 -0.2407  0.0643  0.2772
  294MOL0     H39652   6.074   5.581   6.964 -0.0731 -0.0197  0.4372
  294MOL0     H39653   6.304   5.566   6.937 -3.5084  0.3190 -0.8395
  294MOL0     H39654   6.685   5.791   7.082 -1.8321 -0.4049 -0.4904
  294MOL0     H39655   6.561   5.891   7.150  0.3098  0.4439  0.5807
  294MOL0     H39656   6.637   5.730   7.318  1.6915 -0.8257  0.1950
  294MOL0     H39657   6.490   5.660   7.261  0.1264 -1.3114 -0.8471
  294MOL0     H39658   6.621   5.483   7.268  0.4902  1.6866  0.1027
  294MOL0     H39659   6.631   5.524   7.096  0.9488 -0.5510 -0.3807
  294MOL0     H39660   6.830   5.576   7.313 -5.1825 -0.1749  0.9910
  294MOL0     H39661   6.847   5.637   7.149 -1.4957 -0.0770 -0.3234
  294MOL0     H39662   6.855   5.378   7.065  0.3942  0.1531  0.1602
  294MOL0     H39663   6.823   5.332   7.218 -2.3142  0.5416 -1.5159
  294MOL0     H39664   7.062   5.502   7.126 -0.5182  0.9839  1.6955
  294MOL0     H39665   7.033   5.451   7.295 -0.6301 -1.4356  0.6393
  294MOL0     H39666   7.074   5.246   7.067  3.5600 -0.3090 -1.5078
  294MOL0     H39667   7.062   5.224   7.240 -1.3669  0.2083 -1.2060
  294MOL0     H39668   7.291   5.384   7.241  2.4428  0.3546 -2.4497
  294MOL0     H39669   7.310   5.227   7.172  1.6417  1.6554 -0.4053
  294MOL0     H39670   6.360   5.969   7.116 -0.0786  0.2926 -0.9925
  294MOL0     H39671   6.116   5.961   7.154  1.4587  0.3952 -0.3965
  294MOL0     H39672   5.703   5.771   6.985 -0.7148  1.4489 -0.2906
  294MOL0     H39673   5.451   5.745   7.007  1.6419 -3.1133 -1.4670
  294MOL0     H39674   4.038   4.623   7.619 -0.0807 -0.8643 -0.3910
  294MOL0     H39675   3.865   4.467   7.529  2.8148 -0.3547  1.0906
  294MOL0     H39676   3.543   4.382   7.451  1.2121 -2.8193 -1.0003
  294MOL0     H39677   3.330   4.265   7.503 -0.8417 -0.5323 -1.2155
  294MOL0     H39678   3.178   4.118   7.462  1.0974  1.2102 -0.0689
  294MOL0     H39679   3.145   4.067   7.294 -3.8319 -1.2642 -0.5578
  294MOL0     H39680   2.915   4.095   7.316  5.3372 -0.1393 -3.4391
  294MOL0     H39681   2.942   4.178   7.477  0.8356  2.7983 -2.6241
  294MOL0     H39682   2.995   3.961   7.574  2.6555  1.8010 -1.0876
  294MOL0     H39683   3.034   3.882   7.431 -2.1786 -0.6634 -1.3866
  294MOL0     H39684   2.820   3.810   7.524  3.4773  1.5610  1.2989
  294MOL0     H39685   2.753   3.975   7.507 -0.2080  0.1801 -0.0458
  294MOL0     H39686   2.729   3.782   7.114  2.2623  0.9279 -2.1107
  294MOL0     H39687   3.172   4.401   7.123 -0.3458 -0.4734 -0.1126
  294MOL0     H39688   3.318   4.464   6.961  0.6814 -2.2691  2.1946
  294MOL0     H39689   3.343   4.621   7.045 -0.2576 -0.6120  1.0956
  294MOL0     H39690   3.476   4.543   6.971 -0.5793  2.2342 -0.8897
  295MOL0     O39691   8.701   2.411   7.764  0.6767 -1.1299 -1.0041
  295MOL0     C39692   8.598   2.481   7.766  0.3859  0.0879 -0.1878
  295MOL0     O39693   8.549   2.549   7.655 -0.4722 -0.2854  0.1275
  295MOL0     C39694   8.628   2.582   7.547  0.1893  0.1191  0.1264
  295MOL0     C39695   8.768   2.597   7.553 -0.1356 -0.4242 -0.4385
  295MOL0     C39696   8.835   2.643   7.434 -0.8177  0.6101 -0.7218
  295MOL0     C39697   8.771   2.653   7.307  1.1542  0.4574  0.1503
  295MOL0     O39698   8.862   2.676   7.200  0.5283  0.4727 -0.2640
  295MOL0     C39699   8.798   2.683   7.075 -0.0042  0.9346  0.4852
  295MOL0     C39700   8.899   2.732   6.971 -0.1823 -0.6285 -0.2350
  295MOL0     C39701   9.005   2.626   6.953  0.2059  0.1967  0.2553
  295MOL0     C39702   9.111   2.663   6.847  0.0784 -0.6181  0.2590
  295MOL0     C39703   9.228   2.570   6.858 -0.9170  0.2570 -0.2199
  295MOL0     C39704   9.325   2.624   6.750 -0.1000  0.4992  0.5144
  295MOL0     C39705   9.448   2.535   6.741  0.3773 -0.7910  0.0130
  295MOL0     C39706   9.419   2.402   6.663  0.0375  0.5068 -0.0663
  295MOL0     N39707   9.517   2.357   6.563 -0.8807 -0.5180 -0.0341
  295MOL0     C39708   9.547   2.420   6.448  1.5702  0.2881 -0.4380
  295MOL0     C39709   9.625   2.336   6.371  1.7385 -0.1795  0.1234
  295MOL0     C39710   9.671   2.370   6.231 -0.4125  0.3953  0.0999
  295MOL0     C39711   9.700   2.251   6.143  0.7459  0.8370  0.3216
  295MOL0     C39712   9.578   2.164   6.107 -0.1881 -0.6225 -0.0060
  295MOL0     C39713   9.488   2.244   6.006 -0.6395  0.1910 -0.9864
  295MOL0     O39714   9.420   2.354   6.059 -0.6062 -0.3153 -0.3765
  295MOL0     C39715   9.311   2.339   6.145 -0.0441 -0.0566 -0.0216
  295MOL0     C39716   9.253   2.215   6.183  0.4627 -0.3161 -0.1721
  295MOL0     C39717   9.145   2.219   6.276  0.8986 -0.1619  0.1856
  295MOL0     C39718   9.098   2.338   6.334  0.6483  0.4320 -1.1757
  295MOL0     C39719   8.993   2.341   6.434 -0.0379 -0.1328 -0.0412
  295MOL0     O39720   8.960   2.455   6.481  0.0926 -0.4793 -0.2384
  295MOL0     C39721   8.846   2.474   6.550 -0.3540  0.6250 -1.0598
  295MOL0     C39722   8.751   2.561   6.487 -0.6545  0.5158  0.7204
  295MOL0     C39723   8.637   2.595   6.545  0.9381 -1.0005  0.0962
  295MOL0     C39724   8.599   2.538   6.672 -0.3610  0.2000 -0.7443
  295MOL0     O39725   8.481   2.584   6.734 -0.7215  0.9029 -1.0535
  295MOL0     C39726   8.484   2.626   6.873  0.8500 -0.4914 -0.6507
  295MOL0     C39727   8.340   2.655   6.933 -0.6670 -0.3274 -0.3079
  295MOL0     C39728   8.253   2.751   6.849 -1.8337  0.1953  0.2210
  295MOL0     C39729   8.327   2.887   6.865  0.3917 -1.0184  0.9123
  295MOL0     C39730   8.248   2.996   6.773  0.1457  0.5241 -0.1448
  295MOL0     C39731   8.095   3.001   6.806 -0.0932 -0.2898 -0.3994
  295MOL0     C39732   8.019   3.118   6.733  0.0384 -0.4771 -0.1924
  295MOL0     C39733   7.876   3.101   6.750  0.1111 -0.6654 -0.0426
  295MOL0    Cl39734   7.811   2.948   6.676 -0.2078  0.2371  0.2228
  295MOL0     C39735   8.695   2.463   6.740  0.0438  0.6813 -0.9179
  295MOL0     C39736   8.810   2.418   6.675  0.2860  0.0127 -0.1140
  295MOL0     O39737   8.934   2.244   6.454 -0.2925  0.4902  1.0507
  295MOL0     C39738   9.170   2.459   6.304 -0.6076  0.6507 -0.4168
  295MOL0     C39739   9.274   2.456   6.213  0.3497 -0.4889 -0.2639
  295MOL0     N39740   9.624   2.217   6.442 -0.1674  0.0185 -0.0015
  295MOL0     N39741   9.570   2.225   6.559 -0.0655  0.3616  0.3198
  295MOL0     C39742   8.626   2.645   7.299  0.2879 -1.2517 -0.2363
  295MOL0     C39743   8.560   2.603   7.422  0.0701  0.2578  0.1602
  295MOL0     C39744   8.510   2.474   7.877 -0.4633 -0.7211  0.4210
  295MOL0     C39745   8.369   2.467   7.847  0.1002  0.0888  0.3019
  295MOL0     C39746   8.274   2.435   7.945 -1.4953 -0.4360  1.1418
  295MOL0     C39747   8.318   2.422   8.076 -0.0180  0.0898 -0.6311
  295MOL0     O39748   8.224   2.359   8.147  0.0697  0.1651  0.0352
  295MOL0     C39749   8.223   2.371   8.292  0.0020  0.4073 -0.3803
  295MOL0     C39750   8.105   2.291   8.365 -0.4931  0.5473  0.1803
  295MOL0     C39751   7.972   2.294   8.296  0.1431  0.2332 -0.4851
  295MOL0     C39752   7.871   2.188   8.348 -0.2733  0.2047  0.7050
  295MOL0     C39753   7.837   2.201   8.489 -0.4819  0.6398  0.2495
  295MOL0     C39754   7.812   2.205   8.602 -0.6425 -0.0212  0.4063
  295MOL0     C39755   8.451   2.441   8.110 -0.0339 -0.6353  0.1343
  295MOL0     C39756   8.544   2.467   8.017 -0.8764  0.3067 -0.1502
  295MOL0     C39757   8.681   2.461   8.068  0.1168 -0.5177 -0.0573
  295MOL0     H39758   8.829   2.598   7.643  1.4786 -0.0871 -1.5067
  295MOL0     H39759   8.939   2.669   7.446  0.0748 -3.2105  1.5803
  295MOL0     H39760   8.768   2.583   7.043  2.3388  0.5389 -0.7154
  295MOL0     H39761   8.710   2.748   7.068 -1.8060 -1.5413 -1.5191
  295MOL0     H39762   8.954   2.821   7.005  1.5647 -0.6930 -2.6298
  295MOL0     H39763   8.852   2.748   6.874  1.0352 -0.7900 -0.8688
  295MOL0     H39764   8.963   2.526   6.946 -0.7283  0.5388  0.7521
  295MOL0     H39765   9.054   2.624   7.050  2.5082  0.6600 -0.8390
  295MOL0     H39766   9.066   2.659   6.747  0.0373  0.0863  0.2405
  295MOL0     H39767   9.146   2.766   6.863  1.7486 -1.0837 -0.1920
  295MOL0     H39768   9.274   2.578   6.957 -0.1077  1.7455 -0.6958
  295MOL0     H39769   9.189   2.468   6.848 -0.2279  0.1268 -1.9679
  295MOL0     H39770   9.280   2.632   6.650 -0.6323 -2.0322  0.4718
  295MOL0     H39771   9.358   2.721   6.787 -0.6662  0.4798  1.0803
  295MOL0     H39772   9.491   2.507   6.838  0.8244 -2.5481 -0.6647
  295MOL0     H39773   9.524   2.596   6.691  1.1161 -1.2517  0.5495
  295MOL0     H39774   9.404   2.322   6.736 -3.4683  0.7433 -0.3510
  295MOL0     H39775   9.329   2.425   6.605 -0.0935  1.9886  0.6623
  295MOL0     H39776   9.521   2.518   6.409 -0.5932  0.0212  0.2483
  295MOL0     H39777   9.605   2.442   6.183  0.0729  0.7652 -0.0247
  295MOL0     H39778   9.772   2.414   6.229 -0.0776 -0.3325 -2.7854
  295MOL0     H39779   9.749   2.271   6.047 -1.9870 -1.5069 -1.7160
  295MOL0     H39780   9.777   2.185   6.184  1.3145  2.3644  1.8194
  295MOL0     H39781   9.522   2.134   6.196  0.6691 -1.2057  0.3495
  295MOL0     H39782   9.613   2.073   6.058 -0.5758  0.3330 -2.1988
  295MOL0     H39783   9.425   2.162   5.970  1.8181 -3.9028  2.8531
  295MOL0     H39784   9.558   2.273   5.927  2.7485  2.7461  2.5687
  295MOL0     H39785   9.280   2.122   6.135 -1.4156 -1.6152  1.1548
  295MOL0     H39786   9.100   2.122   6.294  1.1420 -0.1676  0.7873
  295MOL0     H39787   8.777   2.598   6.388  3.0884 -1.5156  0.7382
  295MOL0     H39788   8.569   2.652   6.482 -0.6619 -1.0804  1.6464
  295MOL0     H39789   8.512   2.545   6.941 -2.7242 -0.7327  0.7029
  295MOL0     H39790   8.553   2.711   6.885  1.6301 -0.6893 -3.1110
  295MOL0     H39791   8.280   2.564   6.935 -2.3184  0.6709 -1.5888
  295MOL0     H39792   8.347   2.699   7.033 -1.4491  0.0318 -0.4043
  295MOL0     H39793   8.257   2.725   6.743 -0.2056 -0.0098  0.3020
  295MOL0     H39794   8.150   2.756   6.884 -1.9161  0.2218 -0.0217
  295MOL0     H39795   8.431   2.880   6.831  0.5195  0.4367  0.9406
  295MOL0     H39796   8.328   2.924   6.968 -0.5254  0.2797  0.4743
  295MOL0     H39797   8.266   2.972   6.668  0.2432  0.2490 -0.0657
  295MOL0     H39798   8.293   3.095   6.786  0.8369  0.2910 -0.7344
  295MOL0     H39799   8.050   2.905   6.782 -0.0092 -1.0934  2.2862
  295MOL0     H39800   8.084   3.029   6.912 -1.6345  1.4872 -0.9616
  295MOL0     H39801   8.049   3.117   6.628  1.8891  3.4373  0.1350
  295MOL0     H39802   8.046   3.214   6.778 -2.4916  0.0950  0.2631
  295MOL0     H39803   7.843   3.120   6.853  0.8889  0.6694 -0.0268
  295MOL0     H39804   7.829   3.187   6.701  0.4217 -0.6211 -0.2655
  295MOL0     H39805   8.686   2.434   6.844  3.9089  4.6802  0.8893
  295MOL0     H39806   8.868   2.340   6.721 -1.9117  0.0263  3.0136
  295MOL0     H39807   9.144   2.543   6.369 -0.5373 -0.2875  0.8559
  295MOL0     H39808   9.336   2.541   6.187 -1.1228  0.5984 -0.3829
  295MOL0     H39809   8.583   2.652   7.199 -0.1712  3.6240  0.0712
  295MOL0     H39810   8.452   2.594   7.417  0.1478 -0.6493 -0.0415
  295MOL0     H39811   8.333   2.492   7.748  0.9010  1.2044  0.2811
  295MOL0     H39812   8.176   2.434   7.899 -0.1243 -3.1806 -2.1809
  295MOL0     H39813   8.222   2.475   8.324 -0.4805  0.9641 -2.1039
  295MOL0     H39814   8.318   2.334   8.331  0.7093  3.0280  0.5744
  295MOL0     H39815   8.097   2.333   8.466 -0.6049 -0.3097  0.5371
  295MOL0     H39816   8.127   2.184   8.367  0.9914  0.8272 -0.4588
  295MOL0     H39817   7.984   2.279   8.189  2.3517 -4.3675  0.1703
  295MOL0     H39818   7.931   2.395   8.306 -0.6347 -0.2281  1.4956
  295MOL0     H39819   7.783   2.206   8.286 -1.4088  0.0783  2.2201
  295MOL0     H39820   7.916   2.089   8.336  1.5709  1.1975 -1.0229
  295MOL0     H39821   7.800   2.208   8.708  0.1702  0.5267  0.4884
  295MOL0     H39822   8.475   2.439   8.216 -0.2957  0.8483  0.2366
  295MOL0     H39823   8.719   2.363   8.039 -2.3845 -2.5313  2.9513
  295MOL0     H39824   8.742   2.543   8.027 -1.0036  0.1730 -0.3869
  295MOL0     H39825   8.686   2.453   8.177  2.5732 -0.7664 -0.1342
  296MOL0     O39826   4.700   8.749  10.829 -0.3550  0.2330 -0.3785
  296MOL0     C39827   4.738   8.672  10.914  0.1497 -0.2069  0.1835
  296MOL0     O39828   4.853   8.610  10.905  0.0105 -0.1007 -0.2412
  296MOL0     C39829   4.922   8.614  10.795  0.2126 -0.4556  0.3492
  296MOL0     C39830   5.058   8.655  10.806  0.2558  0.1331  0.2699
  296MOL0     C39831   5.144   8.640  10.702 -0.6800  0.4323 -0.5509
  296MOL0     C39832   5.090   8.584  10.585 -0.6819  0.5626 -0.2481
  296MOL0     O39833   5.157   8.545  10.471  0.1898 -0.3381 -0.0558
  296MOL0     C39834   5.278   8.616  10.448  0.5468  0.5554  0.0408
  296MOL0     C39835   5.311   8.562  10.312 -0.4107 -0.3220  0.5770
  296MOL0     C39836   5.453   8.585  10.271  0.1984 -1.0325  0.2422
  296MOL0     C39837   5.485   8.732  10.234  0.8596  0.6904 -1.0242
  296MOL0     C39838   5.622   8.748  10.167  0.5157 -0.0332  0.0902
  296MOL0     C39839   5.691   8.880  10.203  0.3203 -0.8649  0.0731
  296MOL0     C39840   5.819   8.907  10.121 -0.3977 -0.1378 -0.2520
  296MOL0     C39841   5.942   8.936  10.204  0.1156  0.1776 -0.4728
  296MOL0     N39842   6.052   8.941  10.109 -0.1186 -0.1571  0.3327
  296MOL0     C39843   6.127   8.830  10.070  0.2666 -0.5169  1.2128
  296MOL0     C39844   6.230   8.884  10.011 -0.1973  0.0319 -0.2243
  296MOL0     C39845   6.353   8.810   9.960  0.5832  0.4195  0.2840
  296MOL0     C39846   6.347   8.784   9.805  0.0356 -0.1068  0.0226
  296MOL0     C39847   6.432   8.658   9.775  0.5549  0.1994 -0.8970
  296MOL0     C39848   6.476   8.645   9.637  0.2392  0.5439  1.0610
  296MOL0     O39849   6.591   8.551   9.610  0.9561 -0.1102 -0.1896
  296MOL0     C39850   6.720   8.595   9.641  0.1124 -1.2805  0.4427
  296MOL0     C39851   6.830   8.499   9.633 -0.1801  0.0224 -0.5997
  296MOL0     C39852   6.961   8.539   9.654 -0.1156 -0.4546  0.4586
  296MOL0     C39853   6.988   8.666   9.688  0.3018  0.5658  0.8619
  296MOL0     C39854   7.128   8.717   9.699  0.3414 -0.4760  0.0791
  296MOL0     O39855   7.153   8.857   9.693 -0.6304  0.0306 -0.5429
  296MOL0     C39856   7.280   8.907   9.687  0.5972  0.1525 -0.9677
  296MOL0     C39857   7.323   8.983   9.585 -0.0083 -0.0260  0.4694
  296MOL0     C39858   7.447   9.043   9.578  0.1766  0.1013  0.6281
  296MOL0     C39859   7.535   9.017   9.677 -0.6776  0.5988 -1.0019
  296MOL0     O39860   7.651   9.089   9.674 -0.6769  0.0643  0.3038
  296MOL0     C39861   7.752   9.098   9.779  0.8345  0.2692 -0.4094
  296MOL0     C39862   7.844   8.973   9.774  0.1732  0.6997 -0.4520
  296MOL0     C39863   7.991   9.006   9.810 -0.0093 -0.6909 -0.9468
  296MOL0     C39864   8.095   9.005   9.697 -0.0180 -0.2659  1.1914
  296MOL0     C39865   8.236   9.051   9.736  0.4043  0.3211  0.3991
  296MOL0     C39866   8.333   9.032   9.613  0.0496 -0.2885 -0.2938
  296MOL0     C39867   8.478   9.080   9.652  0.0887  0.8317  0.0886
  296MOL0     C39868   8.552   9.100   9.524 -0.6952  0.3046 -0.6820
  296MOL0    Cl39869   8.713   9.167   9.551  0.4030 -0.3361  0.5489
  296MOL0     C39870   7.496   8.926   9.783 -0.1991  0.0569  0.7805
  296MOL0     C39871   7.364   8.881   9.796 -0.3792  0.1067  0.1172
  296MOL0     O39872   7.213   8.632   9.707 -0.1343  0.6154  0.4000
  296MOL0     C39873   6.883   8.756   9.709  0.4352  0.1737 -0.7435
  296MOL0     C39874   6.752   8.726   9.682 -0.4354 -0.5559 -0.8201
  296MOL0     N39875   6.217   9.022  10.011 -0.3481  0.3600  0.2090
  296MOL0     N39876   6.110   9.059  10.071 -0.1632 -0.3758  1.3553
  296MOL0     C39877   4.957   8.544  10.575 -0.0138 -0.7293 -0.3129
  296MOL0     C39878   4.867   8.562  10.681  0.1645  0.0505 -0.8912
  296MOL0     C39879   4.646   8.627  11.021  0.3172  0.4586 -0.4305
  296MOL0     C39880   4.511   8.669  11.002  0.2849 -0.6989  0.4341
  296MOL0     C39881   4.420   8.634  11.097  0.4706  0.0143 -0.4526
  296MOL0     C39882   4.455   8.560  11.218 -0.2420  1.0406  0.1016
  296MOL0     O39883   4.347   8.509  11.291  0.4978  0.0532 -0.1173
  296MOL0     C39884   4.365   8.424  11.408  0.1668 -0.5797 -0.1160
  296MOL0     C39885   4.403   8.513  11.526 -0.5198 -0.0291  0.2706
  296MOL0     C39886   4.324   8.635  11.554  0.0088 -0.1274  0.3105
  296MOL0     C39887   4.183   8.590  11.601  0.8063 -0.2228  0.0980
  296MOL0     C39888   4.092   8.712  11.586  0.6057 -0.6954 -0.3168
  296MOL0     C39889   4.005   8.803  11.581 -0.4058  0.1507  0.0204
  296MOL0     C39890   4.586   8.534  11.234 -0.5096  0.5438  0.2546
  296MOL0     C39891   4.688   8.567  11.142 -0.1368 -0.3057  0.3434
  296MOL0     C39892   4.826   8.517  11.167  0.4424 -0.2787 -0.1311
  296MOL0     H39893   5.101   8.696  10.896 -1.2276  1.7992  0.2544
  296MOL0     H39894   5.246   8.678  10.701 -0.5612  0.1711  0.3815
  296MOL0     H39895   5.276   8.725  10.462 -1.1954  0.2641  2.5882
  296MOL0     H39896   5.365   8.595  10.511  2.3010  2.1457 -1.6897
  296MOL0     H39897   5.244   8.605  10.238  1.6436  1.4725 -0.3100
  296MOL0     H39898   5.293   8.454  10.304 -1.3444 -0.1645  0.3312
  296MOL0     H39899   5.473   8.528  10.180  2.1425 -1.2442  0.7536
  296MOL0     H39900   5.529   8.548  10.341  3.9336  3.7520 -0.6844
  296MOL0     H39901   5.402   8.771  10.175  0.3705  0.4031 -0.5328
  296MOL0     H39902   5.474   8.789  10.326  0.9239  2.0363 -1.8312
  296MOL0     H39903   5.690   8.663  10.177  0.2897 -0.6692 -2.9608
  296MOL0     H39904   5.604   8.751  10.059 -0.2106 -2.3830  0.0932
  296MOL0     H39905   5.623   8.962  10.177 -0.5185 -0.2010  3.8200
  296MOL0     H39906   5.710   8.874  10.311  1.1690 -1.3757 -0.1003
  296MOL0     H39907   5.793   8.990  10.054  0.3672  0.9514  0.7803
  296MOL0     H39908   5.840   8.823  10.054 -3.0383 -0.7203 -0.4739
  296MOL0     H39909   5.937   9.040  10.235  0.5408  1.2752 -3.6898
  296MOL0     H39910   5.967   8.866  10.285  2.5311  0.5431 -0.8294
  296MOL0     H39911   6.107   8.724  10.079  0.3205 -0.5937  0.4935
  296MOL0     H39912   6.445   8.865   9.981  1.5841 -0.7665 -0.8025
  296MOL0     H39913   6.358   8.714  10.012 -1.1527 -0.7324 -1.5048
  296MOL0     H39914   6.247   8.766   9.765  0.6908 -1.8504 -0.9467
  296MOL0     H39915   6.387   8.872   9.755  1.1711 -2.4395 -3.5636
  296MOL0     H39916   6.378   8.566   9.797 -1.0445  0.9379 -1.6443
  296MOL0     H39917   6.522   8.663   9.838  0.3206 -0.0635 -0.5439
  296MOL0     H39918   6.492   8.743   9.591 -1.8317  2.1530  3.5063
  296MOL0     H39919   6.389   8.628   9.573  0.2234  0.2021  1.1698
  296MOL0     H39920   6.818   8.395   9.603  1.6946 -0.0843 -1.0679
  296MOL0     H39921   7.036   8.462   9.635 -0.4885 -0.2121 -2.6124
  296MOL0     H39922   7.256   8.990   9.500  1.6291  0.0251 -0.8553
  296MOL0     H39923   7.472   9.111   9.498  0.1429  3.0772  2.9627
  296MOL0     H39924   7.818   9.181   9.752  1.5059  0.1859  0.9115
  296MOL0     H39925   7.717   9.128   9.879  1.1930  0.8268 -0.4459
  296MOL0     H39926   7.819   8.897   9.849 -0.7180 -1.8032 -3.0705
  296MOL0     H39927   7.840   8.928   9.674  0.2610  0.6069 -0.4138
  296MOL0     H39928   8.019   9.093   9.872  1.3837 -1.1546 -0.8758
  296MOL0     H39929   8.031   8.931   9.879 -0.4589 -1.5670 -1.6225
  296MOL0     H39930   8.059   9.061   9.610  1.2819 -2.5222 -0.9333
  296MOL0     H39931   8.091   8.897   9.678 -0.2295 -0.2314  1.0377
  296MOL0     H39932   8.281   8.997   9.819  0.6663 -0.1273 -0.0288
  296MOL0     H39933   8.240   9.157   9.761 -2.0956  0.3785  0.8446
  296MOL0     H39934   8.322   8.926   9.588  1.4676 -0.8104  1.1316
  296MOL0     H39935   8.288   9.096   9.536  2.4410  1.9043 -0.0340
  296MOL0     H39936   8.522   9.004   9.717 -0.9627 -0.0114 -0.1576
  296MOL0     H39937   8.468   9.177   9.701 -0.1065  1.6449 -1.4851
  296MOL0     H39938   8.558   9.007   9.466  0.0235  0.0486 -0.2241
  296MOL0     H39939   8.499   9.170   9.460 -0.6793 -1.4791 -2.7719
  296MOL0     H39940   7.564   8.905   9.865  0.0928 -0.0440  0.5147
  296MOL0     H39941   7.348   8.811   9.878 -0.0248 -1.7307 -1.2949
  296MOL0     H39942   6.905   8.857   9.741  2.8562  0.1869 -2.2556
  296MOL0     H39943   6.673   8.798   9.697  0.7182  0.6164 -0.1018
  296MOL0     H39944   4.924   8.498  10.482 -1.5436  1.4562 -0.9489
  296MOL0     H39945   4.770   8.519  10.659 -0.9882  1.2298  1.5703
  296MOL0     H39946   4.473   8.716  10.912 -2.4640 -1.5431  1.0563
  296MOL0     H39947   4.317   8.651  11.065  0.3784 -4.0391 -3.0255
  296MOL0     H39948   4.447   8.352  11.402  1.6320  1.1002 -2.1386
  296MOL0     H39949   4.271   8.376  11.436  0.0056  0.4798  1.2227
  296MOL0     H39950   4.508   8.543  11.517 -0.5773 -0.3507 -1.9501
  296MOL0     H39951   4.401   8.447  11.614  0.4537  1.4226  1.4259
  296MOL0     H39952   4.323   8.690  11.459  0.6513 -0.2760  0.2133
  296MOL0     H39953   4.366   8.703  11.629  3.6703 -0.5511 -1.1088
  296MOL0     H39954   4.152   8.523  11.520  0.8419  0.1560 -0.2352
  296MOL0     H39955   4.176   8.541  11.698 -0.0701  0.9817  0.6542
  296MOL0     H39956   3.942   8.890  11.573  1.9880  1.8395 -2.0563
  296MOL0     H39957   4.616   8.479  11.322  2.5723  2.0148  0.2556
  296MOL0     H39958   4.846   8.505  11.273  2.5555 -1.1486 -0.5879
  296MOL0     H39959   4.839   8.423  11.112  0.8468 -0.9643  1.1059
  296MOL0     H39960   4.902   8.586  11.129  0.4352 -1.1977 -1.9242
  297MOL0     O39961   9.809   4.949   8.506  0.4577 -0.1512  0.1651
  297MOL0     C39962   9.725   4.918   8.416 -0.4708 -0.0643 -0.2415
  297MOL0     O39963   9.751   4.887   8.288  0.8500  0.3789  0.4442
  297MOL0     C39964   9.880   4.909   8.243 -0.0260 -0.0883  0.9531
  297MOL0     C39965   9.982   4.818   8.266  0.3424  0.5748 -0.6167
  297MOL0     C39966  10.110   4.860   8.245 -0.3078 -0.0836 -0.0313
  297MOL0     C39967  10.142   4.974   8.171 -0.3232  0.3517  0.1210
  297MOL0     O39968  10.276   4.988   8.147  0.1997  0.6672 -1.3155
  297MOL0     C39969  10.312   5.081   8.039 -0.7649 -0.0263  0.0082
  297MOL0     C39970  10.463   5.100   8.020  0.5777  0.1992  0.5416
  297MOL0     C39971  10.539   5.128   8.147 -0.0293 -0.6611  0.7772
  297MOL0     C39972  10.678   5.173   8.115  0.1428 -0.4867 -0.3256
  297MOL0     C39973  10.759   5.189   8.246 -0.3229 -0.2815  0.5894
  297MOL0     C39974  10.902   5.240   8.223 -0.0841  0.9563  1.4085
  297MOL0     C39975  10.980   5.258   8.351 -0.0121  0.5287 -0.2708
  297MOL0     C39976  11.130   5.278   8.317  0.5244 -0.7224 -0.3993
  297MOL0     N39977  11.156   5.414   8.265 -0.2231  0.1942  0.1051
  297MOL0     C39978  11.163   5.454   8.133  0.0561  0.4818  0.4350
  297MOL0     C39979  11.216   5.578   8.123 -0.0857  0.5258  0.0353
  297MOL0     C39980  11.244   5.666   7.999  0.7031 -0.0963  0.2589
  297MOL0     C39981  11.376   5.625   7.932 -0.4780  0.5344 -0.5671
  297MOL0     C39982  11.492   5.633   8.031  0.3085  0.5484  0.1785
  297MOL0     C39983  11.626   5.652   7.956  0.5472 -0.4894 -0.2760
  297MOL0     O39984  11.727   5.697   8.044  0.5066  0.1312 -0.1360
  297MOL0     C39985  11.845   5.740   7.994 -0.4411 -0.7271 -1.4237
  297MOL0     C39986  11.941   5.750   8.094  0.0514 -0.5075  0.4599
  297MOL0     C39987  12.070   5.777   8.061 -1.1217 -0.5187 -0.7281
  297MOL0     C39988  12.107   5.804   7.933 -0.1781  0.4844  0.5037
  297MOL0     C39989  12.244   5.830   7.890  0.4034 -0.0984  0.2442
  297MOL0     O39990  12.337   5.853   7.988 -0.4480 -0.3514  0.7596
  297MOL0     C39991  12.472   5.856   7.963 -0.4755  0.1941  0.2712
  297MOL0     C39992  12.538   5.799   7.858  0.3138  0.7524 -0.1873
  297MOL0     C39993  12.674   5.810   7.850 -0.2839 -0.3494  0.1855
  297MOL0     C39994  12.750   5.872   7.950  0.6085 -0.2129  0.7350
  297MOL0     O39995  12.883   5.862   7.931 -0.4304  0.0365 -0.5491
  297MOL0     C39996  12.973   5.952   8.002 -0.0515  0.5090 -0.2857
  297MOL0     C39997  13.109   5.973   7.939 -0.5954 -0.1347  1.1424
  297MOL0     C39998  13.220   5.879   7.986 -0.9236  0.7075 -0.1107
  297MOL0     C39999  13.198   5.740   7.936  0.9145 -0.6451 -0.1695
  297MOL0     C40000  13.205   5.724   7.784 -0.6387 -0.7629 -0.4721
  297MOL0     C40001  13.192   5.580   7.736  0.1090 -0.1931 -0.0094
  297MOL0     C40002  13.065   5.515   7.779  0.1989 -0.1339  0.4053
  297MOL0     C40003  12.944   5.566   7.705  0.1655  0.3087  0.4294
  297MOL0    Cl40004  12.810   5.483   7.792 -0.1263  0.3546 -0.2341
  297MOL0     C40005  12.688   5.948   8.052  0.8696  0.4860  0.1276
  297MOL0     C40006  12.539   5.933   8.057 -0.2673  0.7005  0.2843
  297MOL0     O40007  12.264   5.827   7.770 -0.2584 -0.5206  0.1573
  297MOL0     C40008  12.016   5.789   7.832  0.1526 -0.4104  0.1417
  297MOL0     C40009  11.883   5.759   7.861  1.0752 -0.2152 -0.5833
  297MOL0     N40010  11.242   5.613   8.259  0.3649  0.5624  1.0684
  297MOL0     N40011  11.214   5.516   8.343 -0.3369 -0.0195  0.4285
  297MOL0     C40012  10.040   5.062   8.131  0.0937 -0.7087  0.6448
  297MOL0     C40013   9.906   5.022   8.168 -0.8803 -0.9105  0.0662
  297MOL0     C40014   9.584   4.942   8.450  0.2184 -0.0563 -0.9949
  297MOL0     C40015   9.545   4.906   8.581  0.7184  0.4216 -0.4137
  297MOL0     C40016   9.416   4.926   8.634  0.4235 -0.2782  0.0595
  297MOL0     C40017   9.327   5.013   8.557  0.5641 -0.5295 -1.4340
  297MOL0     O40018   9.195   5.044   8.581 -0.4434  0.0980  0.2204
  297MOL0     C40019   9.133   5.007   8.701  0.8553 -0.4676 -0.1324
  297MOL0     C40020   9.045   5.125   8.741  0.1953 -0.5498 -0.2602
  297MOL0     C40021   8.952   5.096   8.854 -0.1647 -0.7844 -0.2407
  297MOL0     C40022   8.858   5.216   8.897 -0.6026  0.6765  0.5910
  297MOL0     C40023   8.759   5.239   8.792 -0.3930 -0.6381 -0.1534
  297MOL0     C40024   8.678   5.235   8.710  0.0409 -0.4399  0.1539
  297MOL0     C40025   9.373   5.057   8.437 -0.0169  1.1559  0.0737
  297MOL0     C40026   9.493   5.011   8.376 -0.3668  0.1775 -0.9552
  297MOL0     C40027   9.524   5.078   8.245 -0.2633  0.4105 -0.4683
  297MOL0     H40028   9.952   4.724   8.312 -1.1716 -0.0024 -2.6177
  297MOL0     H40029  10.198   4.807   8.282 -0.2030  0.5612  0.6783
  297MOL0     H40030  10.278   5.052   7.939  1.1346  0.4035 -0.8010
  297MOL0     H40031  10.275   5.183   8.050  0.5134  0.5506 -0.7854
  297MOL0     H40032  10.470   5.182   7.948  0.2533  0.3827  0.7212
  297MOL0     H40033  10.497   5.013   7.962 -1.3549  0.1940 -0.6562
  297MOL0     H40034  10.538   5.036   8.206  0.0995 -0.2374  1.4378
  297MOL0     H40035  10.497   5.202   8.215 -0.3911 -0.4281  0.3110
  297MOL0     H40036  10.736   5.111   8.046 -1.4618 -1.3379 -0.9691
  297MOL0     H40037  10.680   5.272   8.070  3.4930 -1.0762 -1.7875
  297MOL0     H40038  10.701   5.252   8.314 -2.6863 -1.4541 -0.2472
  297MOL0     H40039  10.773   5.097   8.304 -0.1020  0.1487  1.2317
  297MOL0     H40040  10.952   5.163   8.163 -0.0877  1.7037  0.4195
  297MOL0     H40041  10.903   5.337   8.172 -1.1757  0.3929  0.2603
  297MOL0     H40042  10.984   5.163   8.406  1.4393  1.0871  0.6473
  297MOL0     H40043  10.934   5.339   8.408 -0.4652  0.7674 -0.9645
  297MOL0     H40044  11.172   5.273   8.418  1.0408  0.4394 -0.5401
  297MOL0     H40045  11.169   5.194   8.260 -0.4335 -0.2925 -1.7429
  297MOL0     H40046  11.122   5.402   8.047 -0.6911  3.0273 -0.8674
  297MOL0     H40047  11.160   5.659   7.930 -0.2314  2.6844  0.9846
  297MOL0     H40048  11.247   5.772   8.028 -3.1945  0.8511 -2.1137
  297MOL0     H40049  11.364   5.527   7.884 -1.9985  0.8341 -0.8498
  297MOL0     H40050  11.401   5.697   7.853  2.0492 -0.7727 -1.0579
  297MOL0     H40051  11.490   5.534   8.075 -2.2986  0.0324 -0.9118
  297MOL0     H40052  11.466   5.714   8.101 -2.2735 -0.2946  0.3167
  297MOL0     H40053  11.604   5.726   7.878 -2.5045 -0.2765  0.6498
  297MOL0     H40054  11.661   5.556   7.917  1.3796 -0.4103  0.2554
  297MOL0     H40055  11.909   5.744   8.197 -0.9040  0.2986  0.2234
  297MOL0     H40056  12.146   5.787   8.139  0.2349 -0.9688 -1.9419
  297MOL0     H40057  12.482   5.738   7.788 -1.2405  0.0431  1.5817
  297MOL0     H40058  12.726   5.758   7.771 -1.5651 -2.4374  0.6317
  297MOL0     H40059  12.929   6.053   7.999 -0.7369  0.3762  2.1913
  297MOL0     H40060  12.985   5.930   8.109  0.4966 -1.4605 -0.7290
  297MOL0     H40061  13.092   5.974   7.831 -0.1667 -1.6851  1.0249
  297MOL0     H40062  13.148   6.070   7.969 -0.1879 -0.7130  2.5756
  297MOL0     H40063  13.315   5.923   7.954 -1.1681 -0.4722 -2.6976
  297MOL0     H40064  13.220   5.874   8.095  2.0255 -0.9047 -0.0720
  297MOL0     H40065  13.104   5.708   7.981  1.0189 -0.3047  0.3029
  297MOL0     H40066  13.271   5.672   7.981  0.4030 -1.8678 -1.1215
  297MOL0     H40067  13.304   5.745   7.743  0.7402 -0.9194  2.5140
  297MOL0     H40068  13.125   5.787   7.743 -0.1482 -0.0243 -0.3034
  297MOL0     H40069  13.196   5.585   7.627 -1.7967  1.7034 -0.0436
  297MOL0     H40070  13.269   5.520   7.786  0.9568  1.8230  1.1963
  297MOL0     H40071  13.060   5.526   7.888  0.5018 -0.0822  0.4152
  297MOL0     H40072  13.071   5.408   7.754 -4.0290 -0.4716  0.2313
  297MOL0     H40073  12.930   5.674   7.712  0.1051  0.3318  0.0042
  297MOL0     H40074  12.954   5.542   7.599  0.5821  1.2774  0.2363
  297MOL0     H40075  12.731   6.025   8.115 -1.5722  2.8192 -0.8364
  297MOL0     H40076  12.480   5.972   8.139 -1.1632 -0.8962  0.4482
  297MOL0     H40077  12.041   5.819   7.731 -1.6476  1.0354  0.0635
  297MOL0     H40078  11.812   5.751   7.779 -1.9752 -0.7432  1.9257
  297MOL0     H40079  10.043   5.157   8.077  0.6613 -0.4330  1.1443
  297MOL0     H40080   9.828   5.096   8.157 -1.2923 -1.3386  0.0811
  297MOL0     H40081   9.619   4.864   8.649 -1.0124  0.6775  1.7572
  297MOL0     H40082   9.392   4.880   8.729  0.4871  1.4200  0.9448
  297MOL0     H40083   9.192   5.006   8.794 -1.0197  1.1397  1.1486
  297MOL0     H40084   9.090   4.907   8.692  0.5865 -0.7791  3.3047
  297MOL0     H40085   8.984   5.162   8.658 -0.9345 -0.2721  0.6764
  297MOL0     H40086   9.115   5.202   8.776 -0.9391  0.4200 -0.0466
  297MOL0     H40087   9.021   5.061   8.932 -2.6463 -0.9491  1.9954
  297MOL0     H40088   8.889   5.012   8.824 -1.0354 -0.3063  0.2472
  297MOL0     H40089   8.795   5.198   8.985 -0.2734 -0.8673  0.5479
  297MOL0     H40090   8.911   5.309   8.915 -2.1285  2.2207 -2.1964
  297MOL0     H40091   8.587   5.232   8.654 -2.8242  0.9018  4.2527
  297MOL0     H40092   9.296   5.114   8.386 -2.4354 -1.1995  0.8379
  297MOL0     H40093   9.446   5.136   8.196  1.5843  2.6280 -0.9942
  297MOL0     H40094   9.593   5.162   8.265 -4.3039  3.8216  0.5292
  297MOL0     H40095   9.562   4.997   8.182 -1.3673  0.4773 -1.2396
  298MOL0     O40096   7.524   0.651   7.113  0.3346  0.1639 -0.4101
  298MOL0     C40097   7.430   0.618   7.184 -0.1952  0.2822  0.3849
  298MOL0     O40098   7.430   0.624   7.317  0.5596 -0.1158  0.0302
  298MOL0     C40099   7.505   0.716   7.386  0.3527  0.1522  0.3489
  298MOL0     C40100   7.566   0.834   7.343 -0.3761  0.5417 -0.4718
  298MOL0     C40101   7.645   0.912   7.433 -0.1597 -0.1999 -0.4213
  298MOL0     C40102   7.665   0.873   7.564  0.2200  0.6000 -0.5009
  298MOL0     O40103   7.745   0.942   7.657 -0.1395 -0.0825  0.8381
  298MOL0     C40104   7.794   1.078   7.634  0.3352  1.0652  0.6554
  298MOL0     C40105   7.919   1.067   7.546  0.5623 -0.4319 -0.3618
  298MOL0     C40106   8.056   1.046   7.615 -0.1188  0.1877 -0.9865
  298MOL0     C40107   8.175   1.073   7.520 -0.5002 -0.2617 -0.7853
  298MOL0     C40108   8.305   1.093   7.609  0.4176 -0.0297  0.5371
  298MOL0     C40109   8.427   1.049   7.530 -0.7477 -1.1440 -0.1479
  298MOL0     C40110   8.556   1.065   7.612 -0.3947  0.7011 -0.1615
  298MOL0     C40111   8.679   1.060   7.517 -1.5913  0.8619 -0.7237
  298MOL0     N40112   8.796   1.054   7.601 -0.6882 -0.3661 -0.8786
  298MOL0     C40113   8.894   1.146   7.595 -0.1173  0.1375  0.7078
  298MOL0     C40114   9.000   1.080   7.649  1.2619 -0.4983 -0.2764
  298MOL0     C40115   9.133   1.141   7.652  0.4703 -0.3574 -0.0752
  298MOL0     C40116   9.221   1.104   7.531 -0.6285 -0.5762 -0.1831
  298MOL0     C40117   9.245   0.956   7.523  0.4727 -0.0363 -0.2494
  298MOL0     C40118   9.321   0.919   7.403  0.5029 -0.1098  0.7170
  298MOL0     O40119   9.263   0.970   7.281 -0.2999  0.8219 -0.2696
  298MOL0     C40120   9.330   0.945   7.172  0.5421  0.0163 -0.0621
  298MOL0     C40121   9.251   0.942   7.061 -0.0752  0.3635 -0.3964
  298MOL0     C40122   9.295   0.896   6.932 -0.3406 -0.3364 -0.1872
  298MOL0     C40123   9.424   0.854   6.917 -0.0058 -0.0057 -0.6981
  298MOL0     C40124   9.477   0.794   6.794 -0.3672  0.0999  0.0174
  298MOL0     O40125   9.422   0.846   6.679 -0.1936 -0.0327  0.0168
  298MOL0     C40126   9.442   0.784   6.554 -0.6852  0.7697 -0.1677
  298MOL0     C40127   9.443   0.650   6.537 -0.0465 -0.0498 -0.3027
  298MOL0     C40128   9.478   0.590   6.411 -0.2247  0.0487 -0.1472
  298MOL0     C40129   9.520   0.673   6.310  0.0806  0.2024  0.6988
  298MOL0     O40130   9.537   0.620   6.181 -0.1655  1.0658  0.4487
  298MOL0     C40131   9.677   0.608   6.142  1.0568  0.1918 -1.0760
  298MOL0     C40132   9.673   0.498   6.030 -0.7088 -0.7497 -0.1603
  298MOL0     C40133   9.806   0.482   5.953 -1.4259 -1.1970 -0.1492
  298MOL0     C40134   9.830   0.577   5.835  0.9784 -0.6210  0.2201
  298MOL0     C40135   9.975   0.601   5.798 -0.2027  0.0969  0.2345
  298MOL0     C40136  10.047   0.463   5.788  0.4831 -0.6564  0.0808
  298MOL0     C40137  10.186   0.491   5.742 -0.4087  0.9253  0.3959
  298MOL0     C40138  10.261   0.373   5.695  0.4822  0.3538  0.6659
  298MOL0    Cl40139  10.254   0.237   5.818  0.4779  0.3228  0.0027
  298MOL0     C40140   9.513   0.813   6.323 -0.2038  0.3533  0.0974
  298MOL0     C40141   9.479   0.862   6.446  1.8143  0.1451  0.1437
  298MOL0     O40142   9.551   0.700   6.799 -0.3210 -0.0397  0.5290
  298MOL0     C40143   9.505   0.866   7.028 -0.7804  0.6691 -0.5127
  298MOL0     C40144   9.462   0.897   7.159 -0.3765  0.9708  0.0040
  298MOL0     N40145   8.957   0.954   7.695  0.1349 -0.3028  0.2057
  298MOL0     N40146   8.832   0.947   7.669  0.1368  0.0785  1.0685
  298MOL0     C40147   7.612   0.749   7.603 -0.8128  0.5753  0.1036
  298MOL0     C40148   7.540   0.675   7.514  0.6237 -0.0157  0.6743
  298MOL0     C40149   7.299   0.571   7.134  0.0981  0.9416  0.2795
  298MOL0     C40150   7.202   0.546   7.228  0.4473  0.3849 -0.1923
  298MOL0     C40151   7.080   0.476   7.192  0.1568  0.1337  0.6998
  298MOL0     C40152   7.058   0.428   7.066  0.4619 -0.3166  0.0126
  298MOL0     O40153   6.928   0.374   7.049 -0.2473  0.3245 -0.6093
  298MOL0     C40154   6.929   0.243   6.987 -0.3069  0.8462  0.0096
  298MOL0     C40155   6.886   0.129   7.085 -0.4009  0.2931  0.5121
  298MOL0     C40156   6.883  -0.008   7.014 -0.6457  0.0171 -0.0538
  298MOL0     C40157   6.855  -0.122   7.115 -0.5948  0.0063 -0.1237
  298MOL0     C40158   6.850  -0.249   7.044  1.0462 -0.2510 -0.2129
  298MOL0     C40159   6.842  -0.359   6.996 -0.1322  0.2081 -0.6606
  298MOL0     C40160   7.141   0.471   6.970 -0.2101  0.3418 -0.2319
  298MOL0     C40161   7.263   0.536   6.995 -0.7125 -0.5006 -0.2725
  298MOL0     C40162   7.345   0.567   6.870 -0.0912  0.2171 -0.9202
  298MOL0     H40163   7.571   0.873   7.242  1.4328  0.7601 -0.3294
  298MOL0     H40164   7.687   1.007   7.402 -3.5653  1.4612 -0.3946
  298MOL0     H40165   7.710   1.131   7.587 -0.2098 -0.3158 -0.0089
  298MOL0     H40166   7.823   1.126   7.727  1.7073  1.9475 -0.1914
  298MOL0     H40167   7.928   1.161   7.491  1.1389 -0.9824 -1.2304
  298MOL0     H40168   7.915   0.986   7.472  2.6673 -1.0277  0.1018
  298MOL0     H40169   8.064   0.949   7.665 -0.8588  0.3925 -0.4511
  298MOL0     H40170   8.072   1.114   7.700  1.4817 -2.1910  0.7531
  298MOL0     H40171   8.183   0.983   7.459  1.4798 -1.2601  0.7923
  298MOL0     H40172   8.157   1.160   7.456 -0.9465  0.9644  0.9125
  298MOL0     H40173   8.323   1.199   7.628 -0.1269 -0.0775  1.3740
  298MOL0     H40174   8.303   1.041   7.706  0.3650  1.3377  1.2942
  298MOL0     H40175   8.413   0.944   7.501 -1.3878 -0.3151 -3.1893
  298MOL0     H40176   8.432   1.102   7.435 -1.4782 -0.4849  0.1759
  298MOL0     H40177   8.560   0.979   7.679 -1.2952  2.3452  2.1370
  298MOL0     H40178   8.560   1.151   7.680  1.1369  0.2911  0.2860
  298MOL0     H40179   8.677   0.966   7.461  1.0096 -0.6555  1.4782
  298MOL0     H40180   8.683   1.155   7.461  3.8665  1.5517  0.2260
  298MOL0     H40181   8.894   1.248   7.556  3.4752 -0.7267 -2.0823
  298MOL0     H40182   9.130   1.250   7.662  1.3093 -0.5550  4.8477
  298MOL0     H40183   9.174   1.112   7.749 -0.3981  0.5376  0.5720
  298MOL0     H40184   9.168   1.129   7.438 -1.1202  0.4935  0.3597
  298MOL0     H40185   9.311   1.164   7.545 -2.3532  2.3078 -0.6254
  298MOL0     H40186   9.151   0.901   7.533  0.1969  0.2225 -1.2746
  298MOL0     H40187   9.302   0.920   7.608 -0.5527 -0.6543  0.1984
  298MOL0     H40188   9.348   0.814   7.395  0.7486  0.0207 -0.2810
  298MOL0     H40189   9.415   0.975   7.406  0.4093  0.1554 -0.7437
  298MOL0     H40190   9.146   0.965   7.075  0.2223  0.3539  2.2205
  298MOL0     H40191   9.226   0.896   6.849 -0.5978  0.8468  0.0055
  298MOL0     H40192   9.438   0.573   6.613  2.5889  0.5337  0.5615
  298MOL0     H40193   9.473   0.484   6.391  0.2799  0.6043 -3.8904
  298MOL0     H40194   9.725   0.700   6.106 -0.3776  1.3430 -0.1870
  298MOL0     H40195   9.733   0.579   6.231 -1.0469  3.1559  1.4052
  298MOL0     H40196   9.637   0.410   6.084 -2.5336  1.6996  2.9284
  298MOL0     H40197   9.595   0.520   5.955 -0.4275 -1.9051 -0.8294
  298MOL0     H40198   9.888   0.486   6.025 -1.1891 -1.1178 -0.4190
  298MOL0     H40199   9.813   0.380   5.912  0.8904 -1.7053  1.2880
  298MOL0     H40200   9.777   0.668   5.866  1.5693 -0.1775 -0.0648
  298MOL0     H40201   9.779   0.533   5.749  0.9968 -0.6708  0.2352
  298MOL0     H40202  10.023   0.663   5.874  2.4739  0.7503 -1.8257
  298MOL0     H40203   9.981   0.651   5.701 -1.0272 -1.4568 -0.6657
  298MOL0     H40204  10.055   0.421   5.889 -0.5465  0.6034  0.7183
  298MOL0     H40205   9.991   0.402   5.717 -1.1569  1.4171 -0.5064
  298MOL0     H40206  10.244   0.543   5.819  0.0440 -1.0949  1.4863
  298MOL0     H40207  10.176   0.551   5.651  1.7097 -0.7116 -1.0307
  298MOL0     H40208  10.213   0.347   5.599  0.9979  0.1925  0.4496
  298MOL0     H40209  10.361   0.409   5.670  0.7026  1.6330  3.1473
  298MOL0     H40210   9.531   0.895   6.254 -0.1330  1.6858  1.6308
  298MOL0     H40211   9.478   0.969   6.463  0.3215  0.4300 -1.4745
  298MOL0     H40212   9.607   0.832   7.013 -1.4795 -1.5754 -0.6465
  298MOL0     H40213   9.531   0.887   7.242 -1.7850  0.6724  1.1729
  298MOL0     H40214   7.631   0.703   7.700 -1.3486 -0.2826 -0.1890
  298MOL0     H40215   7.499   0.575   7.524  1.2276 -0.6291 -2.1076
  298MOL0     H40216   7.209   0.576   7.333 -3.1987  0.9584  0.0090
  298MOL0     H40217   6.997   0.450   7.257 -1.3646  1.2030 -0.7642
  298MOL0     H40218   7.027   0.224   6.943 -0.0292  0.0456  0.9524
  298MOL0     H40219   6.854   0.241   6.907  0.0395 -2.0990 -0.3201
  298MOL0     H40220   6.788   0.145   7.132 -0.4088 -2.7527  1.7444
  298MOL0     H40221   6.961   0.125   7.165 -3.3233  0.6863  3.4949
  298MOL0     H40222   6.979  -0.031   6.967  0.6237  1.6992  1.5890
  298MOL0     H40223   6.799  -0.009   6.944 -1.7928  1.3902  1.2548
  298MOL0     H40224   6.944  -0.127   7.178 -1.4415 -0.5364  1.0723
  298MOL0     H40225   6.760  -0.106   7.168 -1.1011  1.4622 -1.4048
  298MOL0     H40226   6.841  -0.451   6.941  3.7597  0.4819 -1.4539
  298MOL0     H40227   7.126   0.440   6.867  3.4647  1.3521 -1.2213
  298MOL0     H40228   7.452   0.574   6.888  0.2247  0.7576 -2.7409
  298MOL0     H40229   7.332   0.483   6.800  1.3658 -1.0034  0.2142
  298MOL0     H40230   7.312   0.659   6.820  1.4884  1.1133 -0.3586
  299MOL0     O40231   8.699   7.419   2.961 -0.4766  0.7840 -0.3041
  299MOL0     C40232   8.685   7.369   3.076  0.0875  0.1684  0.0074
  299MOL0     O40233   8.771   7.281   3.135 -0.7248 -0.1183 -0.4773
  299MOL0     C40234   8.827   7.192   3.053 -0.0192  1.1877 -0.0910
  299MOL0     C40235   8.961   7.204   3.011 -0.2001 -0.3956 -0.4505
  299MOL0     C40236   9.021   7.122   2.917 -0.2483  0.9784 -0.1598
  299MOL0     C40237   8.939   7.029   2.852  0.6411  0.2168  1.3182
  299MOL0     O40238   8.986   6.935   2.756 -1.8496  0.3639 -0.0311
  299MOL0     C40239   9.095   6.974   2.674 -0.8556  0.1623 -0.2598
  299MOL0     C40240   9.046   6.942   2.529 -0.2308 -0.3511 -0.0199
  299MOL0     C40241   9.165   6.968   2.436 -0.3405 -0.6109  0.0930
  299MOL0     C40242   9.140   6.938   2.288 -0.3725  0.1630 -0.7482
  299MOL0     C40243   9.055   7.050   2.223 -0.1801  0.0622  0.8934
  299MOL0     C40244   9.017   7.002   2.082  0.4445  0.0393 -0.2932
  299MOL0     C40245   8.885   7.071   2.038 -0.8441  0.6192  0.5474
  299MOL0     C40246   8.755   7.017   2.105 -0.4299  0.4389 -0.7744
  299MOL0     N40247   8.673   7.116   2.170  0.3114  0.0230  0.0804
  299MOL0     C40248   8.693   7.161   2.292 -0.6230 -0.2314  0.1578
  299MOL0     C40249   8.652   7.287   2.291 -0.3263 -0.8285 -0.0437
  299MOL0     C40250   8.668   7.412   2.377 -0.1273  0.1755 -0.0471
  299MOL0     C40251   8.601   7.399   2.522 -1.7413  0.1673  0.2437
  299MOL0     C40252   8.675   7.301   2.618 -0.7535  0.0208  0.0772
  299MOL0     C40253   8.797   7.359   2.679  0.4147  0.7543 -0.9831
  299MOL0     O40254   8.907   7.351   2.588  0.0944 -0.4372  0.7829
  299MOL0     C40255   9.037   7.369   2.620  0.1421 -0.3474  0.6181
  299MOL0     C40256   9.080   7.411   2.749  0.4604  0.6780 -1.2176
  299MOL0     C40257   9.215   7.440   2.785 -0.6854  0.0209 -0.8207
  299MOL0     C40258   9.312   7.420   2.676 -0.5561 -0.8327 -0.2905
  299MOL0     C40259   9.458   7.436   2.700 -0.9954  0.7356 -0.6546
  299MOL0     O40260   9.532   7.429   2.584  0.3014  0.0019 -0.6286
  299MOL0     C40261   9.671   7.447   2.591 -0.2668 -0.3765 -0.1856
  299MOL0     C40262   9.728   7.532   2.502 -0.1557 -0.3994  0.6506
  299MOL0     C40263   9.870   7.532   2.494 -0.1597 -0.2661  0.9629
  299MOL0     C40264   9.947   7.441   2.570 -0.6538 -0.2356  0.5480
  299MOL0     O40265  10.080   7.439   2.550 -0.6708 -0.0644  0.1008
  299MOL0     C40266  10.151   7.322   2.598 -0.1291  0.3368  0.5056
  299MOL0     C40267  10.099   7.186   2.542  0.8039 -0.5193 -0.7536
  299MOL0     C40268  10.206   7.082   2.520  0.2774 -0.0218  0.1865
  299MOL0     C40269  10.274   7.042   2.651 -0.4852  0.0661 -0.2268
  299MOL0     C40270  10.386   6.946   2.625 -0.1456  0.6319  0.4145
  299MOL0     C40271  10.501   7.001   2.534  0.3216  0.0064  0.2029
  299MOL0     C40272  10.581   7.102   2.611 -0.6526  0.8908  0.0009
  299MOL0     C40273  10.728   7.111   2.574 -0.3422 -0.9461 -0.3937
  299MOL0    Cl40274  10.714   7.163   2.398 -0.0226  0.0334  0.5568
  299MOL0     C40275   9.882   7.368   2.668 -0.1276 -0.3103 -0.1102
  299MOL0     C40276   9.743   7.368   2.680  0.0703 -0.6211 -0.5706
  299MOL0     O40277   9.501   7.456   2.815 -0.2835  0.4476  0.5132
  299MOL0     C40278   9.272   7.377   2.549  0.5413 -0.0847 -0.5822
  299MOL0     C40279   9.136   7.352   2.520 -0.2202  0.7811 -0.8611
  299MOL0     N40280   8.597   7.312   2.168  0.8521 -0.6563 -0.5159
  299MOL0     N40281   8.609   7.212   2.095 -0.4045 -0.7451  0.0030
  299MOL0     C40282   8.801   7.016   2.886 -1.2274  0.4555  0.1990
  299MOL0     C40283   8.749   7.096   2.994 -0.2369  1.5061 -0.2979
  299MOL0     C40284   8.574   7.427   3.152  0.0059 -0.5373 -0.4653
  299MOL0     C40285   8.601   7.450   3.290 -0.1239 -0.6374  0.6301
  299MOL0     C40286   8.510   7.502   3.376  1.2801 -0.9974 -0.1994
  299MOL0     C40287   8.388   7.553   3.324 -0.0496  0.2312  0.8112
  299MOL0     O40288   8.299   7.619   3.407 -0.2167  0.2850  0.0454
  299MOL0     C40289   8.288   7.602   3.555 -0.4998 -0.5294  0.4147
  299MOL0     C40290   8.156   7.666   3.607 -0.7066 -0.4728  0.6556
  299MOL0     C40291   8.138   7.794   3.524 -0.3363 -0.3000 -0.4401
  299MOL0     C40292   8.029   7.881   3.572  0.4013 -0.9115 -0.0103
  299MOL0     C40293   8.056   7.975   3.677  0.4084 -0.0330  0.2556
  299MOL0     C40294   8.084   8.072   3.748  0.3206  0.5560  1.0459
  299MOL0     C40295   8.368   7.549   3.189  0.4354  0.3333  0.8248
  299MOL0     C40296   8.455   7.485   3.103 -0.3640  0.3978 -0.2824
  299MOL0     C40297   8.412   7.472   2.954 -0.2494 -0.2650 -0.4457
  299MOL0     H40298   9.031   7.268   3.063  0.6835 -1.1097 -0.7279
  299MOL0     H40299   9.129   7.128   2.904  0.3146 -2.3025  1.8835
  299MOL0     H40300   9.118   7.081   2.681 -2.0616  0.4345 -0.2250
  299MOL0     H40301   9.186   6.917   2.689  1.2118  3.3415  0.2336
  299MOL0     H40302   8.952   6.987   2.495  1.2794  0.6049 -3.3179
  299MOL0     H40303   9.022   6.836   2.515 -2.6895  0.0965  0.2650
  299MOL0     H40304   9.238   6.904   2.485 -0.3831  2.0360  4.1173
  299MOL0     H40305   9.205   7.070   2.433  0.4252 -0.8146  1.9220
  299MOL0     H40306   9.236   6.925   2.237  0.7382  0.2813  1.1832
  299MOL0     H40307   9.087   6.842   2.284  0.2526 -0.2589  0.5311
  299MOL0     H40308   8.969   7.071   2.286 -0.0352 -0.3377  1.2271
  299MOL0     H40309   9.105   7.147   2.218 -0.7854  0.4120  1.6021
  299MOL0     H40310   9.106   7.024   2.023  1.5389 -0.9939  0.8924
  299MOL0     H40311   8.992   6.895   2.080 -1.0035  0.3581 -0.3019
  299MOL0     H40312   8.864   7.058   1.932 -1.0909 -2.4187  0.8853
  299MOL0     H40313   8.905   7.174   2.070 -2.3521  0.1769  3.2828
  299MOL0     H40314   8.697   6.978   2.021  0.1293  3.2441 -2.5835
  299MOL0     H40315   8.780   6.946   2.185 -2.5254  1.9205  1.3441
  299MOL0     H40316   8.749   7.125   2.377  2.0413  1.4746 -0.7520
  299MOL0     H40317   8.771   7.447   2.386 -0.6102  1.1415  2.6459
  299MOL0     H40318   8.620   7.499   2.333 -0.7296 -0.0775  0.0907
  299MOL0     H40319   8.592   7.498   2.568 -0.6345  0.6628 -0.5513
  299MOL0     H40320   8.498   7.366   2.508 -2.4882  1.7211  1.8330
  299MOL0     H40321   8.693   7.202   2.575  1.2790  0.4104 -0.0698
  299MOL0     H40322   8.604   7.273   2.697 -0.2074  0.2875  0.6762
  299MOL0     H40323   8.822   7.309   2.773  0.9875  0.0621 -1.4961
  299MOL0     H40324   8.775   7.465   2.694  0.3900  0.7062 -0.6714
  299MOL0     H40325   9.005   7.426   2.825  0.3930  3.1344 -1.6578
  299MOL0     H40326   9.236   7.477   2.885  1.9621  2.3191 -2.0913
  299MOL0     H40327   9.670   7.588   2.430 -0.0615 -0.0340  0.8583
  299MOL0     H40328   9.910   7.589   2.410 -2.6630  1.1036  0.5978
  299MOL0     H40329  10.255   7.326   2.565  0.5782 -0.6366  2.4668
  299MOL0     H40330  10.141   7.320   2.707 -1.9577  1.8520  0.4170
  299MOL0     H40331  10.035   7.134   2.614  0.5241  0.0994 -0.5484
  299MOL0     H40332  10.045   7.201   2.449  2.2912  0.1304 -1.5520
  299MOL0     H40333  10.169   6.993   2.469 -0.0926 -0.8168  1.7811
  299MOL0     H40334  10.277   7.134   2.454  0.8584 -0.0167  0.8001
  299MOL0     H40335  10.198   6.992   2.711  1.2095  1.2544  3.2677
  299MOL0     H40336  10.312   7.132   2.702  0.7926 -0.3419 -0.4287
  299MOL0     H40337  10.346   6.855   2.580 -0.4931  2.1941 -2.7342
  299MOL0     H40338  10.429   6.923   2.723  0.9695  0.3406 -0.1253
  299MOL0     H40339  10.562   6.914   2.508 -0.7036 -0.5662 -0.3494
  299MOL0     H40340  10.465   7.045   2.441  0.0297  3.0458  1.6209
  299MOL0     H40341  10.572   7.091   2.720  0.7471  2.3010  0.2944
  299MOL0     H40342  10.537   7.201   2.595  2.1598  2.3590  0.7424
  299MOL0     H40343  10.776   7.185   2.638 -2.5284 -0.3604  0.6563
  299MOL0     H40344  10.772   7.014   2.596  1.3030 -0.0634  0.4206
  299MOL0     H40345   9.938   7.305   2.737  1.2182  2.1726  1.2179
  299MOL0     H40346   9.695   7.292   2.742  0.0610 -1.2051 -1.2774
  299MOL0     H40347   9.333   7.361   2.461  0.7234 -1.9570 -0.1534
  299MOL0     H40348   9.124   7.318   2.418 -1.5392  0.2077 -0.5428
  299MOL0     H40349   8.744   6.934   2.844 -2.5677 -0.7649  3.9768
  299MOL0     H40350   8.640   7.092   2.998 -0.4782  2.5130 -3.3383
  299MOL0     H40351   8.695   7.419   3.333  0.5116  0.3047 -0.0493
  299MOL0     H40352   8.536   7.512   3.481 -0.0658  0.9061  0.0074
  299MOL0     H40353   8.369   7.650   3.610 -0.5121  0.3472 -0.3078
  299MOL0     H40354   8.291   7.494   3.573 -0.7765 -0.8003 -0.9792
  299MOL0     H40355   8.165   7.691   3.713  0.0311  2.3467  0.0191
  299MOL0     H40356   8.070   7.601   3.589 -2.1560  0.8664  2.3678
  299MOL0     H40357   8.105   7.767   3.423 -1.4065  1.8347 -0.7133
  299MOL0     H40358   8.227   7.857   3.527 -0.9597  0.6129 -0.6857
  299MOL0     H40359   8.016   7.945   3.484  0.7290  1.8110  1.8035
  299MOL0     H40360   7.934   7.832   3.597 -3.8195  4.4236 -3.2774
  299MOL0     H40361   8.100   8.167   3.795  2.3415  0.7609  0.0694
  299MOL0     H40362   8.278   7.599   3.155  0.1488 -1.4473 -1.2496
  299MOL0     H40363   8.458   7.551   2.894 -0.3403  1.3688  1.5395
  299MOL0     H40364   8.439   7.375   2.912  2.2039  0.5430 -0.9077
  299MOL0     H40365   8.303   7.482   2.952 -0.1858  1.4752  1.3664
  300MOL0     O40366  10.937   7.661   9.912 -0.2807  0.0507 -0.1505
  300MOL0     C40367  10.898   7.754   9.840 -0.3029  0.4914 -0.4218
  300MOL0     O40368  10.972   7.846   9.782  0.1922  0.5914  0.0111
  300MOL0     C40369  11.108   7.844   9.781 -0.3903 -0.3866  0.5341
  300MOL0     C40370  11.172   7.866   9.910  0.2201  0.0955  0.0224
  300MOL0     C40371  11.312   7.863   9.927  0.1623  0.3127  0.0207
  300MOL0     C40372  11.395   7.858   9.809 -0.1955  0.7864 -0.4965
  300MOL0     O40373  11.528   7.857   9.836  0.4927 -0.8577 -0.1861
  300MOL0     C40374  11.627   7.914   9.749 -0.0037 -1.0024 -0.0648
  300MOL0     C40375  11.627   8.072   9.753  0.2640  0.5181 -0.5628
  300MOL0     C40376  11.766   8.133   9.736  0.3763 -0.2633 -0.2589
  300MOL0     C40377  11.865   8.104   9.860 -1.0107 -0.3961  0.1237
  300MOL0     C40378  11.984   8.188   9.847 -0.0824 -0.5849 -0.0399
  300MOL0     C40379  12.106   8.148   9.931 -0.0429  0.2233 -0.3266
  300MOL0     C40380  12.066   8.196  10.068 -0.2290  0.8803 -0.2147
  300MOL0     C40381  12.153   8.118  10.162 -0.7530 -1.2988 -0.1684
  300MOL0     N40382  12.303   8.137  10.142 -0.2290  0.3988  0.7415
  300MOL0     C40383  12.385   8.075  10.051 -0.0109 -0.4750  0.0089
  300MOL0     C40384  12.518   8.103  10.075  0.8011  0.0790  0.5477
  300MOL0     C40385  12.642   8.057  10.009 -1.0664 -0.0829 -0.7331
  300MOL0     C40386  12.646   7.902   9.987  0.0814  0.7002 -0.3248
  300MOL0     C40387  12.760   7.856   9.886 -0.7439  0.1647  0.0660
  300MOL0     C40388  12.896   7.880   9.936  0.6978 -0.5256  0.0628
  300MOL0     O40389  12.988   7.837   9.838 -0.0892 -0.7173 -0.1069
  300MOL0     C40390  13.103   7.769   9.856  0.4484  0.6958 -0.3357
  300MOL0     C40391  13.167   7.708   9.746 -0.0890 -0.8087 -0.1196
  300MOL0     C40392  13.296   7.651   9.760  0.8493  0.3566 -0.5665
  300MOL0     C40393  13.353   7.624   9.885 -0.6334  0.4361  0.0525
  300MOL0     C40394  13.489   7.568   9.898  0.1491  0.0267 -0.2749
  300MOL0     O40395  13.557   7.532   9.788 -0.3346 -0.1609 -0.8100
  300MOL0     C40396  13.686   7.506   9.777 -0.1770  0.0890  0.2916
  300MOL0     C40397  13.739   7.528   9.646 -0.5107  0.8196 -0.1776
  300MOL0     C40398  13.873   7.503   9.621  0.1307  0.3469  0.1934
  300MOL0     C40399  13.959   7.461   9.728  0.5845  0.2530  0.8949
  300MOL0     O40400  14.083   7.418   9.712 -0.3042 -0.5079 -0.4438
  300MOL0     C40401  14.149   7.418   9.585  0.5861  0.3944  0.3331
  300MOL0     C40402  14.284   7.359   9.599 -0.5484  0.4414  0.8050
  300MOL0     C40403  14.373   7.374   9.468 -0.1453 -0.5129 -0.1933
  300MOL0     C40404  14.522   7.341   9.501  0.6713 -0.0135 -0.2478
  300MOL0     C40405  14.607   7.388   9.386 -0.5200  0.3222  0.0446
  300MOL0     C40406  14.763   7.380   9.424 -0.5118 -0.3335  0.2084
  300MOL0     C40407  14.837   7.344   9.294 -0.3817 -0.4153  0.0946
  300MOL0     C40408  14.988   7.364   9.325 -0.2584 -0.4304 -0.0668
  300MOL0    Cl40409  15.028   7.541   9.377 -0.1440 -0.5539 -0.1111
  300MOL0     C40410  13.903   7.460   9.853 -0.5270  0.4248  0.4164
  300MOL0     C40411  13.768   7.475   9.881 -0.1663  0.0323  0.2403
  300MOL0     O40412  13.538   7.584  10.011  0.5170 -0.5389 -0.0767
  300MOL0     C40413  13.287   7.675   9.997 -0.3620  0.0038 -0.2495
  300MOL0     C40414  13.164   7.749   9.984 -1.0103 -0.2110 -0.0358
  300MOL0     N40415  12.516   8.211  10.164  0.3415 -0.6828 -0.6190
  300MOL0     N40416  12.391   8.223  10.210  0.4592  0.1156  0.4459
  300MOL0     C40417  11.339   7.838   9.683 -0.3547 -1.0515 -0.3468
  300MOL0     C40418  11.192   7.827   9.667  0.0234  0.5348 -0.7153
  300MOL0     C40419  10.754   7.779   9.828  0.7241 -0.0412  0.0333
  300MOL0     C40420  10.711   7.900   9.769 -0.1557 -0.2848 -0.5727
  300MOL0     C40421  10.580   7.931   9.754 -0.3134  0.3616  0.8874
  300MOL0     C40422  10.477   7.845   9.765 -0.4230  0.1519 -0.5237
  300MOL0     O40423  10.350   7.889   9.728  0.4899 -0.5723 -0.8199
  300MOL0     C40424  10.244   7.797   9.721  0.1240 -0.2500 -0.4462
  300MOL0     C40425  10.152   7.820   9.599  0.4837  0.5121 -0.2818
  300MOL0     C40426  10.100   7.702   9.523 -0.2423 -0.0611  0.4244
  300MOL0     C40427  10.025   7.744   9.388 -0.7250 -0.6424  0.8756
  300MOL0     C40428   9.978   7.617   9.339  0.3719  0.2631  0.4125
  300MOL0     C40429   9.946   7.510   9.303  0.4084 -0.2751 -0.3548
  300MOL0     C40430  10.516   7.723   9.834  0.6829 -0.8215  0.3230
  300MOL0     C40431  10.652   7.688   9.868 -0.1914  0.4165  0.1322
  300MOL0     C40432  10.670   7.546   9.904  0.2589 -0.6905  0.0713
  300MOL0     H40433  11.100   7.877   9.990 -1.4413  2.9642 -1.6846
  300MOL0     H40434  11.364   7.873  10.022 -1.4439 -1.6766  1.1966
  300MOL0     H40435  11.717   7.863   9.785 -1.4832 -1.5450  3.2711
  300MOL0     H40436  11.604   7.888   9.646  2.9284  2.0157 -1.6801
  300MOL0     H40437  11.597   8.098   9.855  2.6621 -0.9132  0.6097
  300MOL0     H40438  11.558   8.100   9.673  1.3386 -3.9780 -3.4577
  300MOL0     H40439  11.767   8.242   9.728  1.6060  0.0021  2.5655
  300MOL0     H40440  11.812   8.101   9.642  2.9755 -0.9148  1.1571
  300MOL0     H40441  11.827   8.132   9.959  0.3458  0.4861  0.4216
  300MOL0     H40442  11.891   7.998   9.860 -0.9968 -0.4074  1.3847
  300MOL0     H40443  12.018   8.173   9.744 -1.0786 -1.1661 -0.3015
  300MOL0     H40444  11.954   8.291   9.867 -2.8142 -0.8367 -2.1945
  300MOL0     H40445  12.127   8.041   9.923  3.6850  0.5553  2.3049
  300MOL0     H40446  12.196   8.200   9.895  0.2936 -0.7017 -0.8455
  300MOL0     H40447  11.959   8.196  10.094 -0.0167 -0.6866  0.8331
  300MOL0     H40448  12.096   8.300  10.076  1.0874  0.4988  0.0115
  300MOL0     H40449  12.131   8.154  10.263  1.7462 -0.2657  0.0929
  300MOL0     H40450  12.127   8.011  10.163 -1.1692 -1.3305 -3.3616
  300MOL0     H40451  12.360   8.007   9.970  1.6469 -2.6507  1.2068
  300MOL0     H40452  12.667   8.116   9.920  0.2946 -3.3446 -2.7110
  300MOL0     H40453  12.713   8.077  10.090  0.6529  2.3374 -2.6653
  300MOL0     H40454  12.649   7.860  10.088 -2.7991  1.6685  0.2688
  300MOL0     H40455  12.550   7.867   9.947  0.0254  1.3175 -0.7344
  300MOL0     H40456  12.741   7.895   9.785 -2.2150  1.1122  0.6659
  300MOL0     H40457  12.755   7.750   9.861  4.8429 -0.2170 -0.5486
  300MOL0     H40458  12.922   7.824  10.025  0.0519 -0.7782  0.0996
  300MOL0     H40459  12.914   7.985   9.964  0.3479 -0.5399  0.3457
  300MOL0     H40460  13.123   7.711   9.646  2.5744 -0.9854 -1.3754
  300MOL0     H40461  13.347   7.626   9.667 -1.7171 -1.6787 -1.5489
  300MOL0     H40462  13.683   7.570   9.563  0.8245 -0.2613 -1.6843
  300MOL0     H40463  13.913   7.517   9.521 -0.9581 -1.9595 -0.6148
  300MOL0     H40464  14.091   7.358   9.514 -0.4244 -1.3406  2.5004
  300MOL0     H40465  14.151   7.521   9.547  0.2335 -0.1085 -1.1034
  300MOL0     H40466  14.337   7.412   9.679 -1.8462  0.6050  1.5948
  300MOL0     H40467  14.272   7.253   9.622 -1.2719  1.1509  4.4895
  300MOL0     H40468  14.332   7.316   9.385 -1.0197  1.0331 -0.8924
  300MOL0     H40469  14.364   7.471   9.418 -0.0926 -1.2976 -1.8051
  300MOL0     H40470  14.515   7.233   9.511 -3.4750  0.2634  1.9783
  300MOL0     H40471  14.549   7.399   9.589 -5.3559  3.2786  0.0017
  300MOL0     H40472  14.596   7.489   9.345 -0.8764 -0.5750 -2.2364
  300MOL0     H40473  14.587   7.317   9.305  0.9555 -2.5929  2.0563
  300MOL0     H40474  14.789   7.476   9.470  1.3692 -1.0194  0.6534
  300MOL0     H40475  14.784   7.306   9.501  2.2985  2.0426  1.9304
  300MOL0     H40476  14.808   7.412   9.214  0.2710 -1.7938 -1.3593
  300MOL0     H40477  14.807   7.244   9.262 -2.6414  0.7006 -1.5237
  300MOL0     H40478  15.033   7.297   9.399  0.7003  0.0022 -0.2401
  300MOL0     H40479  15.045   7.341   9.235 -0.5089 -0.0895 -0.3179
  300MOL0     H40480  13.965   7.432   9.938 -0.6044 -1.0514  0.0235
  300MOL0     H40481  13.727   7.461   9.981 -0.9033  2.3209  0.3193
  300MOL0     H40482  13.330   7.674  10.097  0.7038  2.0832 -0.6313
  300MOL0     H40483  13.118   7.780  10.077  1.8662 -0.8123  1.6931
  300MOL0     H40484  11.395   7.828   9.591  0.8703 -0.6589  0.3230
  300MOL0     H40485  11.145   7.801   9.573  0.4341  0.4924 -0.9104
  300MOL0     H40486  10.781   7.983   9.770  0.7475 -0.9521  2.4485
  300MOL0     H40487  10.550   8.030   9.721 -0.6612  0.0580  0.2658
  300MOL0     H40488  10.179   7.809   9.808  0.1409  1.2576 -0.6053
  300MOL0     H40489  10.294   7.700   9.720  3.4726  1.3016 -1.9798
  300MOL0     H40490  10.199   7.877   9.518 -1.7744  0.6778 -1.5705
  300MOL0     H40491  10.073   7.883   9.642  1.2162  0.4408  1.2504
  300MOL0     H40492  10.033   7.633   9.574 -1.2542  0.8793  0.3958
  300MOL0     H40493  10.188   7.644   9.495 -1.3415 -1.1652 -0.9392
  300MOL0     H40494   9.940   7.810   9.405 -1.6023 -1.4734 -0.0942
  300MOL0     H40495  10.105   7.782   9.323  0.1940 -3.3356  0.3035
  300MOL0     H40496   9.922   7.408   9.280  0.7866 -0.7062  1.0532
  300MOL0     H40497  10.432   7.662   9.866 -0.3421  1.9052  3.3660
  300MOL0     H40498  10.704   7.542  10.008 -1.3283 -0.9116  0.6031
  300MOL0     H40499  10.576   7.490   9.895 -1.4769  2.1548 -0.8440
  300MOL0     H40500  10.735   7.500   9.829 -0.1327  0.0009 -0.7092
  301MOL0     O40501   7.514   3.799   8.838  0.5283 -0.3307 -0.2430
  301MOL0     C40502   7.398   3.769   8.812 -0.0982 -0.4314 -1.1074
  301MOL0     O40503   7.358   3.673   8.719 -0.7313 -0.4136 -0.2188
  301MOL0     C40504   7.459   3.625   8.630  0.4900 -0.1950  0.5882
  301MOL0     C40505   7.414   3.511   8.558 -0.4784 -0.1544 -1.5292
  301MOL0     C40506   7.501   3.440   8.473  0.2823 -0.9837  0.1547
  301MOL0     C40507   7.631   3.478   8.450 -0.0343 -0.1221  0.6199
  301MOL0     O40508   7.713   3.386   8.387  0.0455  0.6026  0.3336
  301MOL0     C40509   7.851   3.412   8.365  0.0721 -0.3493 -0.4530
  301MOL0     C40510   7.932   3.360   8.496 -0.1460 -0.6350  0.5066
  301MOL0     C40511   8.073   3.422   8.492 -0.2862 -0.0967 -1.0447
  301MOL0     C40512   8.153   3.367   8.619  0.9711 -0.5373  0.9000
  301MOL0     C40513   8.297   3.411   8.614  0.1759 -0.0689  0.8636
  301MOL0     C40514   8.329   3.555   8.661 -0.2484  0.4818  0.0955
  301MOL0     C40515   8.483   3.571   8.675  0.1313 -0.4976  0.3293
  301MOL0     C40516   8.564   3.534   8.547  0.9909  0.1878 -0.3216
  301MOL0     N40517   8.698   3.589   8.542  0.5597 -0.0205 -0.7510
  301MOL0     C40518   8.802   3.575   8.626  0.4166  0.8903 -1.8122
  301MOL0     C40519   8.901   3.640   8.574  0.2213  1.1435 -0.2321
  301MOL0     C40520   9.035   3.649   8.634 -0.8818  0.1483 -0.0507
  301MOL0     C40521   9.134   3.567   8.559 -0.6568 -0.0131  0.2145
  301MOL0     C40522   9.190   3.617   8.434 -0.4074 -0.8037  0.9391
  301MOL0     C40523   9.291   3.515   8.375 -0.7705  0.2788  0.5948
  301MOL0     O40524   9.423   3.539   8.433  0.1526  0.3720  0.1406
  301MOL0     C40525   9.533   3.459   8.402  1.0229  0.3353  0.4738
  301MOL0     C40526   9.656   3.504   8.449 -0.1787  0.1600 -0.2809
  301MOL0     C40527   9.778   3.432   8.430  0.2465 -1.1012  0.1305
  301MOL0     C40528   9.778   3.308   8.376 -0.2371  0.8081  0.1776
  301MOL0     C40529   9.899   3.226   8.371  0.4048  0.1725 -0.6249
  301MOL0     O40530   9.884   3.099   8.316 -1.2092 -0.2104  0.4498
  301MOL0     C40531   9.999   3.028   8.299  0.3298  0.8577  0.2009
  301MOL0     C40532  10.041   2.919   8.379  1.6960 -0.3143  0.7269
  301MOL0     C40533  10.154   2.839   8.349 -0.2831 -0.6923 -0.3209
  301MOL0     C40534  10.216   2.851   8.220 -0.0811 -0.6857 -0.8188
  301MOL0     O40535  10.316   2.762   8.183 -0.0586 -0.6543 -0.6926
  301MOL0     C40536  10.425   2.801   8.105 -0.1782  0.4321 -0.6453
  301MOL0     C40537  10.548   2.739   8.165  0.3196  0.0897 -0.2609
  301MOL0     C40538  10.552   2.739   8.314 -0.0685 -0.4209  0.1928
  301MOL0     C40539  10.548   2.884   8.362  0.2691  0.0998 -0.8063
  301MOL0     C40540  10.512   2.893   8.511  0.1554 -0.0704  0.7125
  301MOL0     C40541  10.635   2.871   8.599 -0.8428 -0.1995  0.3796
  301MOL0     C40542  10.602   2.836   8.748  0.1207 -0.3423  0.6454
  301MOL0     C40543  10.727   2.780   8.804  0.2725  0.4148  0.5218
  301MOL0    Cl40544  10.747   2.835   8.979  0.4128 -0.0117  0.2212
  301MOL0     C40545  10.175   2.961   8.139 -0.6458  0.0293  0.3316
  301MOL0     C40546  10.076   3.049   8.177  0.0041 -0.8197  0.1425
  301MOL0     O40547  10.011   3.277   8.404  0.2162  0.0944 -0.5368
  301MOL0     C40548   9.653   3.263   8.321  0.6619 -0.2868 -0.0148
  301MOL0     C40549   9.533   3.335   8.332  0.2924 -0.1317 -1.3795
  301MOL0     N40550   8.851   3.700   8.458  0.1016 -0.0302 -0.0382
  301MOL0     N40551   8.738   3.659   8.434 -0.0491 -0.2814  0.3934
  301MOL0     C40552   7.674   3.593   8.515 -0.0071  0.8206  0.0720
  301MOL0     C40553   7.590   3.667   8.595 -0.5732 -0.1928  0.0478
  301MOL0     C40554   7.299   3.817   8.913  0.7720 -0.7276 -0.3379
  301MOL0     C40555   7.162   3.778   8.890 -0.3561 -0.8138  0.2296
  301MOL0     C40556   7.063   3.815   8.981 -0.3985 -0.8007 -0.5727
  301MOL0     C40557   7.093   3.900   9.096  0.3320 -0.3865  0.1359
  301MOL0     O40558   7.001   3.940   9.194  0.6763  0.1712  0.5017
  301MOL0     C40559   6.872   3.864   9.198 -0.3898  0.1395  0.8062
  301MOL0     C40560   6.800   3.905   9.332 -0.1414  0.3696  0.3959
  301MOL0     C40561   6.774   4.055   9.326  0.4305  0.3240 -0.6210
  301MOL0     C40562   6.701   4.099   9.453  0.3270 -0.1974  0.4790
  301MOL0     C40563   6.575   4.025   9.488 -0.5326  0.2662 -0.8450
  301MOL0     C40564   6.483   3.945   9.496  0.8690 -0.1139  0.5273
  301MOL0     C40565   7.219   3.937   9.115 -0.4797  0.1803  0.1044
  301MOL0     C40566   7.321   3.894   9.030  0.1128 -0.1495 -0.2213
  301MOL0     C40567   7.459   3.918   9.081 -0.1119  0.1520  0.0590
  301MOL0     H40568   7.313   3.476   8.572 -1.4725  2.3508 -1.8899
  301MOL0     H40569   7.458   3.347   8.435 -1.5294 -0.0958 -0.0903
  301MOL0     H40570   7.873   3.356   8.273  2.7323  0.1712 -0.2095
  301MOL0     H40571   7.875   3.517   8.348 -2.6216  0.7748  1.9367
  301MOL0     H40572   7.927   3.251   8.485  0.1640 -0.5604 -0.4114
  301MOL0     H40573   7.896   3.406   8.589 -0.9856  1.6341 -0.8515
  301MOL0     H40574   8.083   3.531   8.504 -1.0415 -0.2339  1.4596
  301MOL0     H40575   8.132   3.394   8.405 -0.2345 -2.3294 -0.3561
  301MOL0     H40576   8.109   3.420   8.705  0.0235  1.0131 -0.4763
  301MOL0     H40577   8.149   3.258   8.619  0.3746 -0.5337  2.1492
  301MOL0     H40578   8.355   3.346   8.681  3.6144 -1.4019 -3.0114
  301MOL0     H40579   8.336   3.389   8.515  1.1573  1.1745  0.9447
  301MOL0     H40580   8.294   3.623   8.583 -1.9213 -0.5374 -0.0859
  301MOL0     H40581   8.280   3.575   8.757 -0.1717  0.0981  0.2188
  301MOL0     H40582   8.510   3.519   8.767 -0.4779  0.2336  0.9437
  301MOL0     H40583   8.502   3.677   8.696 -0.9670  0.0667 -1.2943
  301MOL0     H40584   8.577   3.426   8.530  0.5125  0.6843 -4.9670
  301MOL0     H40585   8.498   3.566   8.467  0.6674 -1.3864 -0.7280
  301MOL0     H40586   8.816   3.510   8.711  1.5240 -0.5312 -3.0307
  301MOL0     H40587   9.068   3.753   8.642 -1.3680  0.2626  0.5160
  301MOL0     H40588   9.024   3.612   8.736 -1.7661 -0.0661 -0.2126
  301MOL0     H40589   9.215   3.539   8.627 -0.3609  1.9481  0.7306
  301MOL0     H40590   9.077   3.479   8.528  1.4394 -0.6351 -2.1806
  301MOL0     H40591   9.237   3.715   8.448  1.4459 -1.2140 -1.6624
  301MOL0     H40592   9.111   3.629   8.359  0.1173  0.0739  0.5038
  301MOL0     H40593   9.297   3.526   8.266  4.0910  0.3663  0.6362
  301MOL0     H40594   9.266   3.411   8.397 -1.6852  0.3425 -0.1057
  301MOL0     H40595   9.655   3.601   8.498 -2.1801  0.0062  0.0568
  301MOL0     H40596   9.867   3.479   8.471 -1.1231  0.2993  1.6849
  301MOL0     H40597   9.982   2.883   8.463  1.3906  1.1101  1.1545
  301MOL0     H40598  10.185   2.766   8.423  0.6326  0.1979  0.2010
  301MOL0     H40599  10.409   2.754   8.007 -0.8962 -1.8528  0.5069
  301MOL0     H40600  10.436   2.909   8.091  1.8580  0.0994 -2.2341
  301MOL0     H40601  10.553   2.633   8.138  2.4068 -0.3319  1.5112
  301MOL0     H40602  10.632   2.797   8.127 -0.4873  1.5258  0.0600
  301MOL0     H40603  10.462   2.690   8.353  0.5079 -2.1520 -0.5329
  301MOL0     H40604  10.645   2.697   8.354  1.6791  2.2672 -0.7954
  301MOL0     H40605  10.480   2.949   8.307  1.8563  2.1145 -0.5333
  301MOL0     H40606  10.647   2.929   8.351  1.7161 -2.0379  2.0115
  301MOL0     H40607  10.437   2.818   8.536  2.0035 -2.0140  0.7200
  301MOL0     H40608  10.467   2.990   8.532 -3.1198 -1.3345  0.2498
  301MOL0     H40609  10.692   2.785   8.562  0.2416  0.6029  0.1357
  301MOL0     H40610  10.694   2.962   8.587 -1.5940  0.4215  1.2551
  301MOL0     H40611  10.517   2.768   8.762 -0.7204  0.8471  1.6135
  301MOL0     H40612  10.585   2.935   8.792 -0.9335  1.4917 -3.3766
  301MOL0     H40613  10.725   2.672   8.789  0.4375  0.6657 -1.5656
  301MOL0     H40614  10.817   2.809   8.750  1.3910 -0.4475  1.8612
  301MOL0     H40615  10.221   2.973   8.041  2.5812  0.2509  1.7233
  301MOL0     H40616  10.041   3.121   8.103 -1.5345 -1.6964 -0.0368
  301MOL0     H40617   9.639   3.167   8.272 -0.9160  0.2558 -0.6674
  301MOL0     H40618   9.442   3.286   8.301 -2.1345  0.6053  3.5913
  301MOL0     H40619   7.779   3.616   8.499  0.0621  0.3078 -0.2347
  301MOL0     H40620   7.638   3.752   8.642 -2.9164  0.2969  1.7378
  301MOL0     H40621   7.121   3.729   8.802 -0.1749 -2.7309  1.1437
  301MOL0     H40622   6.959   3.792   8.962 -0.6035 -0.1785 -0.2117
  301MOL0     H40623   6.885   3.756   9.198  0.4034  0.1760 -1.6446
  301MOL0     H40624   6.808   3.885   9.111  0.2389 -1.1874  0.0117
  301MOL0     H40625   6.850   3.884   9.427 -2.6762 -1.3471  1.4893
  301MOL0     H40626   6.710   3.843   9.334  1.3412 -1.8707  0.7683
  301MOL0     H40627   6.725   4.073   9.229 -0.5176  0.7445 -0.0717
  301MOL0     H40628   6.870   4.107   9.322  0.8296 -0.3625 -0.1949
  301MOL0     H40629   6.767   4.074   9.537 -0.6886 -1.9208  0.8075
  301MOL0     H40630   6.673   4.204   9.440  0.8170 -0.3230 -2.1313
  301MOL0     H40631   6.406   3.869   9.496 -0.2928  0.9891 -0.9106
  301MOL0     H40632   7.237   3.996   9.204  1.4393 -1.0606  0.5996
  301MOL0     H40633   7.522   3.984   9.020  2.5495 -0.2240  2.2190
  301MOL0     H40634   7.457   3.959   9.182  1.5537  0.6389 -0.0670
  301MOL0     H40635   7.516   3.825   9.089 -0.1648  0.1434  0.3376
  302MOL0     O40636   6.510   6.862   9.897  0.4117  0.3412 -0.3206
  302MOL0     C40637   6.484   6.962   9.965 -1.0792 -0.2644  0.8335
  302MOL0     O40638   6.400   7.070   9.925 -0.4284  0.2780 -0.3597
  302MOL0     C40639   6.322   7.048   9.822 -0.2790 -0.0495  1.3465
  302MOL0     C40640   6.374   7.058   9.689 -0.4913  0.1454 -0.0299
  302MOL0     C40641   6.293   7.041   9.585  0.5759  0.0245  0.4470
  302MOL0     C40642   6.162   7.029   9.601  0.3360  1.4326  0.3004
  302MOL0     O40643   6.074   7.038   9.495 -0.0438  0.4861  0.0883
  302MOL0     C40644   5.966   7.123   9.498 -0.0821  0.5904  0.2075
  302MOL0     C40645   5.990   7.274   9.505 -0.1680 -0.6578 -0.5868
  302MOL0     C40646   6.094   7.313   9.404 -0.3489  0.0393  0.0102
  302MOL0     C40647   6.124   7.463   9.400  0.2761  0.4045 -0.0592
  302MOL0     C40648   6.252   7.503   9.320 -1.4147 -0.4646 -0.2068
  302MOL0     C40649   6.384   7.445   9.382 -0.7870  0.1569 -0.0216
  302MOL0     C40650   6.520   7.478   9.310  0.1673  0.2936  0.2572
  302MOL0     C40651   6.550   7.626   9.284  0.4085  0.6561  0.0130
  302MOL0     N40652   6.663   7.664   9.201  0.8424 -0.0131  0.2329
  302MOL0     C40653   6.733   7.573   9.129 -0.2187 -0.3025 -0.9776
  302MOL0     C40654   6.836   7.647   9.074  0.4701 -0.2446  0.2451
  302MOL0     C40655   6.945   7.584   8.998  0.2390 -0.5646  0.4182
  302MOL0     C40656   7.079   7.644   9.038 -0.5060  0.4000  0.1934
  302MOL0     C40657   7.157   7.683   8.908 -0.0431  0.3032  0.4285
  302MOL0     C40658   7.115   7.826   8.849  1.0769 -0.6401 -0.4867
  302MOL0     O40659   7.219   7.868   8.763 -0.1668 -1.0306 -0.3963
  302MOL0     C40660   7.345   7.898   8.819 -0.3809 -0.5409 -0.1847
  302MOL0     C40661   7.368   7.941   8.955 -1.1694 -0.3349 -0.4440
  302MOL0     C40662   7.501   7.967   8.995  0.1648  0.0883 -0.3976
  302MOL0     C40663   7.603   7.947   8.903 -0.7067  0.2656 -0.2039
  302MOL0     C40664   7.745   7.971   8.942 -0.3221  0.5845  0.2995
  302MOL0     O40665   7.835   7.990   8.849  0.3471 -0.1095 -0.1272
  302MOL0     C40666   7.971   8.028   8.854 -0.9010  1.3435  1.1073
  302MOL0     C40667   8.030   8.068   8.733  0.0487  0.1072 -0.6296
  302MOL0     C40668   8.160   8.098   8.726  0.5875  0.1370 -0.2979
  302MOL0     C40669   8.250   8.075   8.831 -0.1674  0.0267 -0.8630
  302MOL0     O40670   8.379   8.118   8.808 -0.4362  0.0140 -0.2401
  302MOL0     C40671   8.479   8.085   8.913 -0.1823 -0.1235  0.0865
  302MOL0     C40672   8.534   7.943   8.927 -0.1406 -0.1248 -0.5178
  302MOL0     C40673   8.570   7.886   8.795  0.0272  1.1742 -0.4764
  302MOL0     C40674   8.663   7.775   8.797  0.5436  0.0931  0.3745
  302MOL0     C40675   8.584   7.647   8.745  0.1143  0.3093  0.1495
  302MOL0     C40676   8.485   7.596   8.854  0.2340 -0.3240  0.3032
  302MOL0     C40677   8.333   7.567   8.810  0.1529  0.4826  0.6296
  302MOL0     C40678   8.263   7.698   8.770 -0.0427 -0.7016  0.2554
  302MOL0    Cl40679   8.085   7.670   8.758 -0.0033  0.3039  0.1111
  302MOL0     C40680   8.198   8.024   8.956 -0.4237  0.7766  0.1407
  302MOL0     C40681   8.059   8.008   8.967  0.5420 -0.0459  0.1640
  302MOL0     O40682   7.770   7.982   9.063 -0.2632 -0.6080  0.0797
  302MOL0     C40683   7.580   7.910   8.771 -0.4560  0.0625  0.1721
  302MOL0     C40684   7.455   7.889   8.728  0.0385  0.0305  0.1723
  302MOL0     N40685   6.811   7.783   9.104  0.5351  0.3134  0.3280
  302MOL0     N40686   6.712   7.790   9.185 -0.3638 -0.5246  0.1480
  302MOL0     C40687   6.111   7.001   9.726  0.2677  0.0791  0.6198
  302MOL0     C40688   6.191   7.027   9.838 -0.1378 -0.2062  0.6011
  302MOL0     C40689   6.554   6.974  10.092 -0.1725  1.1965  0.7260
  302MOL0     C40690   6.558   7.101  10.154  0.0979  0.2635  0.7561
  302MOL0     C40691   6.626   7.123  10.267 -0.1430  0.5235  0.3993
  302MOL0     C40692   6.695   7.017  10.319 -0.5733 -0.0778 -0.5575
  302MOL0     O40693   6.767   7.052  10.434 -0.4514 -0.0858  0.1828
  302MOL0     C40694   6.840   6.948  10.494 -0.0332  0.0069  0.2452
  302MOL0     C40695   6.914   6.997  10.617  0.7379  0.9179 -0.0486
  302MOL0     C40696   6.819   7.031  10.729  0.1781  0.0809 -0.7442
  302MOL0     C40697   6.892   7.069  10.858  0.8875  0.1786  0.0269
  302MOL0     C40698   6.799   7.087  10.966  0.1272 -0.1282 -0.4188
  302MOL0     C40699   6.705   7.102  11.042 -0.7130  0.4883  0.1235
  302MOL0     C40700   6.691   6.892  10.270  0.1414 -0.0540 -0.9175
  302MOL0     C40701   6.617   6.864  10.156 -0.0781  0.2802 -0.3355
  302MOL0     C40702   6.615   6.722  10.125  0.4972  0.6797  0.1623
  302MOL0     H40703   6.479   7.084   9.678 -0.6950  1.1858  0.2985
  302MOL0     H40704   6.334   7.042   9.485  1.2385 -0.8305  0.6945
  302MOL0     H40705   5.915   7.099   9.404 -1.0859 -1.3184  1.1811
  302MOL0     H40706   5.899   7.103   9.582 -1.4290  2.6107 -0.3191
  302MOL0     H40707   6.016   7.297   9.609 -0.1993 -0.6049 -0.5914
  302MOL0     H40708   5.897   7.326   9.482  1.1176  1.6139 -0.8760
  302MOL0     H40709   6.065   7.284   9.303  1.0009 -1.5912  0.0526
  302MOL0     H40710   6.187   7.256   9.414  0.3024  0.3110 -3.3946
  302MOL0     H40711   6.042   7.517   9.352  0.7812  1.4598  0.2396
  302MOL0     H40712   6.124   7.505   9.501 -2.4897  0.4741 -0.0267
  302MOL0     H40713   6.244   7.476   9.215  0.3173  2.7988 -1.3012
  302MOL0     H40714   6.251   7.612   9.330 -2.5811 -0.6369  2.7898
  302MOL0     H40715   6.409   7.473   9.485  1.5471  2.2326 -1.0434
  302MOL0     H40716   6.374   7.336   9.382 -1.2526  0.1770 -1.6168
  302MOL0     H40717   6.520   7.411   9.224  0.7398 -0.6076  0.9392
  302MOL0     H40718   6.600   7.443   9.375  2.5624  1.7486 -1.7372
  302MOL0     H40719   6.458   7.658   9.234 -0.6307  0.0162  1.4601
  302MOL0     H40720   6.563   7.680   9.379  2.0040  1.3195 -0.5548
  302MOL0     H40721   6.705   7.471   9.106  0.5785 -0.5608 -0.8389
  302MOL0     H40722   6.930   7.477   9.015 -2.1772 -0.4792 -0.8083
  302MOL0     H40723   6.925   7.588   8.891 -2.0886  1.7095  0.8429
  302MOL0     H40724   7.072   7.728   9.107  0.8970  0.6807  0.0112
  302MOL0     H40725   7.144   7.570   9.086  1.0908  0.3476 -1.9076
  302MOL0     H40726   7.146   7.600   8.838 -1.6207  1.0396 -0.2400
  302MOL0     H40727   7.261   7.679   8.944 -0.1232 -0.0942  0.6233
  302MOL0     H40728   7.079   7.899   8.922 -2.0508 -2.0630 -0.4570
  302MOL0     H40729   7.025   7.807   8.790 -1.3745  0.8710  2.4742
  302MOL0     H40730   7.293   7.932   9.033 -0.5738 -3.2375 -0.0737
  302MOL0     H40731   7.520   8.001   9.096 -0.2929 -1.1089  0.1230
  302MOL0     H40732   7.955   8.086   8.657 -0.7991  1.4926  0.4609
  302MOL0     H40733   8.210   8.139   8.639 -2.8122  0.7278 -2.1478
  302MOL0     H40734   8.567   8.150   8.904 -0.0099  0.1624  2.8344
  302MOL0     H40735   8.430   8.120   9.004  0.5860  1.2555 -0.0133
  302MOL0     H40736   8.623   7.962   8.987  1.0213 -2.0799 -1.5399
  302MOL0     H40737   8.464   7.879   8.982  0.3557 -1.6636 -1.6400
  302MOL0     H40738   8.477   7.859   8.744 -0.0238 -0.9388  0.6100
  302MOL0     H40739   8.628   7.959   8.739  0.8526 -0.3752 -1.7179
  302MOL0     H40740   8.708   7.751   8.894 -0.7474 -0.4950  0.8570
  302MOL0     H40741   8.741   7.790   8.722  0.5782  0.0236  0.3967
  302MOL0     H40742   8.644   7.561   8.715 -2.3542 -1.9450  1.2330
  302MOL0     H40743   8.530   7.679   8.656 -0.0504  3.9755  1.3896
  302MOL0     H40744   8.533   7.504   8.890 -0.2830 -1.2542 -1.2844
  302MOL0     H40745   8.484   7.669   8.936 -0.0190  1.5275 -1.2775
  302MOL0     H40746   8.282   7.528   8.899  0.4841  0.0847  0.6500
  302MOL0     H40747   8.330   7.496   8.727  1.7121  1.6050 -0.4504
  302MOL0     H40748   8.272   7.769   8.853 -2.0241  0.5617 -0.5419
  302MOL0     H40749   8.307   7.737   8.678  3.0387  0.4816  2.0514
  302MOL0     H40750   8.261   8.011   9.043 -1.1726 -1.5692  0.4215
  302MOL0     H40751   8.020   7.966   9.059  1.7025 -2.6915 -0.4548
  302MOL0     H40752   7.668   7.892   8.709  2.6850  2.6868  3.4448
  302MOL0     H40753   7.439   7.867   8.623 -2.2046 -1.5982  0.7624
  302MOL0     H40754   6.006   6.984   9.743  0.1156 -1.3350 -1.4570
  302MOL0     H40755   6.159   7.023   9.942  1.2999  1.6134  1.1758
  302MOL0     H40756   6.509   7.188  10.113 -0.7606 -0.4882  0.1354
  302MOL0     H40757   6.621   7.223  10.310  0.3826  0.1942  1.2293
  302MOL0     H40758   6.911   6.908  10.421 -1.9123  0.8795 -2.1948
  302MOL0     H40759   6.779   6.863  10.523  0.6615  0.0112  1.7975
  302MOL0     H40760   6.969   7.090  10.598  0.2457  0.9441 -1.4368
  302MOL0     H40761   6.980   6.919  10.655  0.1438 -0.7545 -2.2161
  302MOL0     H40762   6.745   6.952  10.745 -0.0603  0.4611  0.0971
  302MOL0     H40763   6.771   7.127  10.708 -0.5309  0.8007  3.2949
  302MOL0     H40764   6.959   6.991  10.894  1.1763  0.7020  0.6462
  302MOL0     H40765   6.941   7.166  10.841  0.5871  0.7209  2.0088
  302MOL0     H40766   6.617   7.111  11.102 -0.7071 -1.1362  0.4318
  302MOL0     H40767   6.748   6.806  10.304 -1.3333 -1.2982 -1.5007
  302MOL0     H40768   6.512   6.690  10.110  0.6914 -0.4959  1.1812
  302MOL0     H40769   6.661   6.709  10.027 -0.0652 -2.5758  0.2452
  302MOL0     H40770   6.667   6.658  10.197  0.7410  3.1775  2.3932
  303MOL0     O40771   1.535   6.356  10.711  0.3101  0.2292  0.2087
  303MOL0     C40772   1.520   6.438  10.622  0.1339 -0.2572  0.6880
  303MOL0     O40773   1.617   6.476  10.535 -0.2872 -0.0659 -0.9503
  303MOL0     C40774   1.745   6.431  10.559 -0.4443  0.0173  0.0941
  303MOL0     C40775   1.797   6.313  10.495 -0.3759 -1.6648  0.5739
  303MOL0     C40776   1.935   6.281  10.509  0.1381 -0.6447 -0.1177
  303MOL0     C40777   2.016   6.363  10.590  0.2471  0.5552  0.6549
  303MOL0     O40778   2.153   6.338  10.618 -0.3278 -0.2335  0.1673
  303MOL0     C40779   2.202   6.212  10.577 -0.1682 -0.5490  0.0805
  303MOL0     C40780   2.340   6.174  10.632 -0.4699 -0.2211 -0.2064
  303MOL0     C40781   2.338   6.180  10.784 -0.3965  0.7613  0.0534
  303MOL0     C40782   2.454   6.115  10.845 -0.0092 -1.0814  0.7299
  303MOL0     C40783   2.459   6.151  10.994  0.4304  0.3309  0.1281
  303MOL0     C40784   2.562   6.078  11.064 -0.0634  0.1806  0.9729
  303MOL0     C40785   2.569   6.112  11.207  0.7289  0.5453  0.2720
  303MOL0     C40786   2.676   6.041  11.285  0.1902  0.2532  0.4021
  303MOL0     N40787   2.810   6.095  11.266  0.4834 -0.7304  0.7503
  303MOL0     C40788   2.896   6.032  11.176 -0.0234  0.1613  0.5549
  303MOL0     C40789   3.004   6.111  11.166  0.4340  0.0990 -0.5258
  303MOL0     C40790   3.129   6.100  11.077  0.5989 -0.3584  0.0015
  303MOL0     C40791   3.241   6.027  11.153  0.2240 -0.7265 -0.3231
  303MOL0     C40792   3.324   6.110  11.261 -0.0110 -0.1224  0.2886
  303MOL0     C40793   3.414   6.019  11.348  0.0201  0.3628  0.6551
  303MOL0     O40794   3.484   5.925  11.263 -0.4173  0.1878  0.0979
  303MOL0     C40795   3.606   5.862  11.301  0.3800 -0.9152 -0.4990
  303MOL0     C40796   3.658   5.874  11.433 -0.8811  0.4880 -0.1426
  303MOL0     C40797   3.767   5.790  11.462 -0.5946  0.3267 -0.3845
  303MOL0     C40798   3.835   5.715  11.372  0.9671 -0.6519  0.4148
  303MOL0     C40799   3.962   5.658  11.405  0.0345 -0.8036 -0.0708
  303MOL0     O40800   4.007   5.668  11.530  0.0895 -0.4710 -0.6484
  303MOL0     C40801   4.140   5.624  11.544  0.6358  0.1351 -0.5420
  303MOL0     C40802   4.165   5.518  11.631 -0.0609 -0.6499 -0.9191
  303MOL0     C40803   4.298   5.485  11.667 -0.3655  0.4139  0.2539
  303MOL0     C40804   4.402   5.539  11.594 -1.4367 -0.1278 -0.1102
  303MOL0     O40805   4.530   5.490  11.621  0.4468 -0.1610 -0.0385
  303MOL0     C40806   4.550   5.356  11.602  1.6686 -0.2363  0.1169
  303MOL0     C40807   4.667   5.320  11.685  0.1260  1.2374 -0.0694
  303MOL0     C40808   4.651   5.181  11.746 -0.4435 -0.2832 -0.1846
  303MOL0     C40809   4.791   5.155  11.820 -0.0934  0.7690 -0.1314
  303MOL0     C40810   4.811   5.003  11.849  0.7371 -0.5476  0.2617
  303MOL0     C40811   4.928   4.973  11.930 -0.8377  0.6535  0.2925
  303MOL0     C40812   4.962   5.070  12.048 -0.4947  0.4150  0.3009
  303MOL0     C40813   5.099   5.035  12.109 -0.5136 -0.1124  0.0754
  303MOL0    Cl40814   5.167   5.151  12.216 -0.1059  0.5235  0.3189
  303MOL0     C40815   4.380   5.643  11.507 -0.0290 -0.5938  0.9278
  303MOL0     C40816   4.246   5.690  11.480  0.6863  0.0465 -0.5862
  303MOL0     O40817   4.025   5.613  11.310  0.6127  0.0878 -0.0423
  303MOL0     C40818   3.782   5.710  11.237  0.0304  0.3498  0.0229
  303MOL0     C40819   3.664   5.784  11.207  0.7214  0.7388  1.3513
  303MOL0     N40820   2.982   6.216  11.258  0.4209  0.6879  0.0087
  303MOL0     N40821   2.865   6.210  11.313 -0.5817 -0.3876  0.2135
  303MOL0     C40822   1.964   6.474  10.657 -1.0579  0.3957  0.1470
  303MOL0     C40823   1.833   6.509  10.633 -0.0301 -1.1457  0.2201
  303MOL0     C40824   1.389   6.497  10.613  0.6811 -0.5092  0.0115
  303MOL0     C40825   1.294   6.467  10.718 -0.2440 -0.3498  0.3791
  303MOL0     C40826   1.163   6.520  10.721 -0.6700  0.0453 -0.3802
  303MOL0     C40827   1.106   6.591  10.617  0.2226 -0.4870  0.1303
  303MOL0     O40828   0.975   6.631  10.613 -0.3537  0.2168 -0.0917
  303MOL0     C40829   0.896   6.615  10.723 -0.0640 -0.7359 -0.2422
  303MOL0     C40830   0.765   6.694  10.691  0.4356  0.2823  0.0314
  303MOL0     C40831   0.668   6.625  10.595 -0.6885  0.8568 -1.1859
  303MOL0     C40832   0.569   6.729  10.532 -0.1265 -0.7221 -0.1656
  303MOL0     C40833   0.458   6.657  10.466 -0.0343  0.4347  0.3069
  303MOL0     C40834   0.370   6.582  10.422  0.0755 -0.0533 -0.3766
  303MOL0     C40835   1.192   6.627  10.517  0.1701  0.4215  0.6354
  303MOL0     C40836   1.331   6.582  10.507  0.1658 -0.2794  0.2000
  303MOL0     C40837   1.399   6.601  10.375 -0.6807 -0.6480  0.0987
  303MOL0     H40838   1.722   6.259  10.437 -0.3421 -1.4759  0.3563
  303MOL0     H40839   1.985   6.195  10.466  2.7729  0.3766  0.7024
  303MOL0     H40840   2.137   6.127  10.599 -2.6864  0.8046 -1.7150
  303MOL0     H40841   2.207   6.211  10.467 -0.4239 -3.3818  0.0270
  303MOL0     H40842   2.411   6.250  10.598 -1.4127  0.6572 -0.2882
  303MOL0     H40843   2.366   6.072  10.603 -0.3618 -0.3747  0.4042
  303MOL0     H40844   2.240   6.148  10.822 -0.6250  0.9101 -0.3925
  303MOL0     H40845   2.332   6.286  10.812  0.4407  1.7549 -3.1524
  303MOL0     H40846   2.441   6.008  10.828 -2.0669 -0.3360 -3.6237
  303MOL0     H40847   2.550   6.137  10.796 -1.4226  0.7050 -1.3818
  303MOL0     H40848   2.469   6.260  11.000 -1.5490  0.5491  0.0840
  303MOL0     H40849   2.364   6.120  11.039  1.0579  0.3539  1.5044
  303MOL0     H40850   2.545   5.970  11.060  0.9794  0.0242  0.2250
  303MOL0     H40851   2.657   6.106  11.018 -0.7304 -1.0369 -1.2872
  303MOL0     H40852   2.467   6.087  11.240  0.1666  2.8159  0.3785
  303MOL0     H40853   2.580   6.220  11.212  0.0658  0.7145 -1.1967
  303MOL0     H40854   2.655   6.047  11.392 -1.4225 -1.0360  0.2126
  303MOL0     H40855   2.679   5.938  11.247  0.1272  0.5852 -0.5270
  303MOL0     H40856   2.871   5.941  11.122  1.2973 -1.2081  2.1220
  303MOL0     H40857   3.099   6.039  10.991 -3.4100  0.8779  0.3003
  303MOL0     H40858   3.159   6.198  11.040 -0.4052 -0.7500 -1.9940
  303MOL0     H40859   3.186   5.947  11.204 -1.8966  2.0113  2.0459
  303MOL0     H40860   3.319   5.986  11.088  0.2379 -0.4293 -0.4996
  303MOL0     H40861   3.253   6.155  11.331 -0.4696 -1.3695  0.6389
  303MOL0     H40862   3.389   6.185  11.214 -1.3631  0.8888 -0.0374
  303MOL0     H40863   3.354   5.981  11.431  1.3805  0.2764  1.6299
  303MOL0     H40864   3.486   6.082  11.400  0.4077  0.0364  0.5136
  303MOL0     H40865   3.610   5.922  11.517 -0.6568  0.1397  0.1883
  303MOL0     H40866   3.796   5.803  11.566 -2.1523 -0.6329  0.1988
  303MOL0     H40867   4.085   5.470  11.687  0.9719  1.0962  2.3329
  303MOL0     H40868   4.336   5.401  11.725  1.7282 -1.8307 -3.8829
  303MOL0     H40869   4.462   5.301  11.636  1.8020 -0.5560 -0.0555
  303MOL0     H40870   4.563   5.329  11.497 -0.9250  0.7667 -0.5533
  303MOL0     H40871   4.763   5.326  11.633  1.6792 -1.0985  2.2662
  303MOL0     H40872   4.660   5.385  11.773 -2.3780  0.3750  0.4424
  303MOL0     H40873   4.569   5.187  11.818 -1.1404  0.9413 -1.0279
  303MOL0     H40874   4.623   5.117  11.661 -1.5680  0.6733 -0.5692
  303MOL0     H40875   4.790   5.212  11.913 -1.2296 -3.9905  3.1028
  303MOL0     H40876   4.879   5.191  11.767  2.6106  0.1406  3.5857
  303MOL0     H40877   4.810   4.941  11.759 -0.8147 -0.1918 -0.0047
  303MOL0     H40878   4.719   4.971  11.899 -0.7268 -2.1792 -3.1354
  303MOL0     H40879   4.921   4.872  11.970  0.0494 -0.0438 -1.2396
  303MOL0     H40880   5.017   4.961  11.867 -2.3263  0.1071 -1.8343
  303MOL0     H40881   4.879   5.064  12.121  2.1281 -0.3294  3.4681
  303MOL0     H40882   4.968   5.176  12.022 -0.8728  0.7207  1.3726
  303MOL0     H40883   5.094   4.944  12.170  0.1705  0.1826  0.5755
  303MOL0     H40884   5.175   5.025  12.031 -1.9518  0.4133 -1.4496
  303MOL0     H40885   4.467   5.678  11.452 -0.9183  1.5602  0.7973
  303MOL0     H40886   4.244   5.780  11.419  0.7952  0.5379  0.1117
  303MOL0     H40887   3.825   5.666  11.148 -0.2446  0.6446 -0.2544
  303MOL0     H40888   3.628   5.784  11.105  0.3231  0.0322  1.4843
  303MOL0     H40889   2.021   6.536  10.725 -0.8357  0.6717 -0.2864
  303MOL0     H40890   1.792   6.601  10.673 -0.2289 -0.4902 -1.3876
  303MOL0     H40891   1.316   6.395  10.796 -2.5393 -1.0073  0.4897
  303MOL0     H40892   1.109   6.487  10.809  0.7624 -0.3570  0.3710
  303MOL0     H40893   0.950   6.666  10.803  1.0680  1.3359 -2.1850
  303MOL0     H40894   0.877   6.513  10.756  2.9890 -0.8742  1.3977
  303MOL0     H40895   0.786   6.801  10.677  1.2782  0.1737  0.4204
  303MOL0     H40896   0.711   6.705  10.786  1.1584  2.1410  0.2835
  303MOL0     H40897   0.611   6.556  10.657  1.1956  0.2247 -0.0535
  303MOL0     H40898   0.722   6.568  10.520 -2.7135 -1.2394 -1.1512
  303MOL0     H40899   0.544   6.793  10.617  2.7504  0.3884 -0.0263
  303MOL0     H40900   0.616   6.789  10.454 -1.1870  0.7851  0.3028
  303MOL0     H40901   0.292   6.513  10.397 -0.7890  0.7832 -0.0440
  303MOL0     H40902   1.141   6.659  10.426 -2.6774 -2.1189  1.2033
  303MOL0     H40903   1.323   6.594  10.297 -1.3792 -0.0266  0.7041
  303MOL0     H40904   1.453   6.696  10.374 -0.2504 -0.8940 -0.7918
  303MOL0     H40905   1.472   6.525  10.347 -0.4147 -0.4289  0.1953
  304MOL0     O40906   2.779   4.369   9.917  0.6860 -0.5114 -0.5507
  304MOL0     C40907   2.709   4.468   9.934  0.1657 -1.2178  0.8584
  304MOL0     O40908   2.761   4.583   9.997  0.6335 -0.3422 -0.2517
  304MOL0     C40909   2.883   4.585  10.062  0.0040  0.3219  0.1691
  304MOL0     C40910   2.995   4.516  10.009 -0.0651 -0.5299  0.1696
  304MOL0     C40911   3.112   4.511  10.089  1.0942 -0.4038  0.0420
  304MOL0     C40912   3.118   4.561  10.219 -0.7223  0.5391 -0.1190
  304MOL0     O40913   3.236   4.532  10.291  0.4218  0.3687  0.5367
  304MOL0     C40914   3.231   4.555  10.435 -0.4660 -0.0627 -0.2961
  304MOL0     C40915   3.357   4.492  10.501  0.5730 -0.9657 -0.1419
  304MOL0     C40916   3.486   4.577  10.479  0.5326 -0.5015  0.3722
  304MOL0     C40917   3.582   4.571  10.600 -0.0749 -0.2905 -0.6566
  304MOL0     C40918   3.649   4.438  10.598 -0.1315  0.2423  0.4299
  304MOL0     C40919   3.754   4.428  10.707  0.3343 -0.1673  0.8251
  304MOL0     C40920   3.833   4.298  10.684 -0.8015  0.1093  0.8428
  304MOL0     C40921   3.934   4.275  10.795 -0.4401  0.0952  0.6217
  304MOL0     N40922   3.996   4.143  10.811  0.3311  0.6874 -0.1950
  304MOL0     C40923   4.026   4.053  10.711  0.4940 -0.8012 -0.4525
  304MOL0     C40924   4.055   3.937  10.777  0.1269  0.4957  0.0749
  304MOL0     C40925   4.101   3.807  10.709  0.5772 -0.7541 -0.1215
  304MOL0     C40926   4.251   3.791  10.724  0.0585 -0.2505  0.1896
  304MOL0     C40927   4.321   3.891  10.628  0.0573 -0.0231  0.7106
  304MOL0     C40928   4.465   3.908  10.672 -0.0169 -0.9049  0.1076
  304MOL0     O40929   4.535   3.786  10.647 -0.1422  0.0152  0.2690
  304MOL0     C40930   4.671   3.777  10.671  0.1565  0.4942  0.1168
  304MOL0     C40931   4.761   3.881  10.685  0.8733 -0.1704 -0.3930
  304MOL0     C40932   4.892   3.843  10.718 -0.2150  0.8730 -0.2651
  304MOL0     C40933   4.939   3.711  10.735  0.5409 -0.4391 -0.1008
  304MOL0     C40934   5.074   3.671  10.772  0.4096 -0.7818  0.3968
  304MOL0     O40935   5.174   3.743  10.716 -0.5943 -0.4977  0.2176
  304MOL0     C40936   5.305   3.743  10.761 -0.2889 -1.0037  0.4156
  304MOL0     C40937   5.351   3.698  10.890 -0.6219  0.0216  0.1210
  304MOL0     C40938   5.492   3.693  10.913 -0.5361  0.2844  0.7836
  304MOL0     C40939   5.585   3.745  10.817 -0.0326  0.0006 -0.6473
  304MOL0     O40940   5.728   3.742  10.838  0.1929 -0.1654 -0.1449
  304MOL0     C40941   5.759   3.644  10.936 -0.0007 -0.1746 -0.0740
  304MOL0     C40942   5.910   3.634  10.930  0.3304 -0.2279  0.4988
  304MOL0     C40943   5.969   3.567  11.048  0.7031  0.9844  0.3090
  304MOL0     C40944   6.112   3.549  11.038 -0.2936 -0.1736 -0.0986
  304MOL0     C40945   6.168   3.434  11.122  0.4222  0.2733  0.3686
  304MOL0     C40946   6.318   3.439  11.098 -0.6681 -0.5455 -0.4935
  304MOL0     C40947   6.391   3.306  11.155 -0.4152 -0.5940  0.3062
  304MOL0     C40948   6.536   3.312  11.099 -0.3295  0.0597  0.2093
  304MOL0    Cl40949   6.613   3.457  11.154 -0.3868  0.6402 -0.0791
  304MOL0     C40950   5.545   3.789  10.701  0.4584 -0.6398 -0.4287
  304MOL0     C40951   5.407   3.796  10.676 -0.2995 -0.0144 -1.0790
  304MOL0     O40952   5.087   3.585  10.859  0.3944 -0.2516  0.2623
  304MOL0     C40953   4.843   3.606  10.710  0.5066 -0.1547  0.3007
  304MOL0     C40954   4.707   3.643  10.684 -0.2174 -1.0782 -0.6264
  304MOL0     N40955   4.055   3.959  10.911 -0.4685  0.3598  0.4501
  304MOL0     N40956   4.014   4.084  10.933  0.7387 -0.1455 -0.6801
  304MOL0     C40957   2.999   4.620  10.265 -0.0987  0.0273  0.1972
  304MOL0     C40958   2.883   4.637  10.190 -0.7222 -0.5457 -0.3525
  304MOL0     C40959   2.569   4.466   9.890 -0.0799  0.6653 -0.0488
  304MOL0     C40960   2.501   4.588   9.893 -0.3663  0.3035 -0.2705
  304MOL0     C40961   2.364   4.603   9.863 -0.8084 -0.3905 -0.1742
  304MOL0     C40962   2.293   4.485   9.849  0.1905  0.2331 -0.2936
  304MOL0     O40963   2.155   4.485   9.828  0.4765  0.4199  0.2130
  304MOL0     C40964   2.075   4.575   9.909  0.4981  0.1442  0.4954
  304MOL0     C40965   1.950   4.587   9.828  0.6929 -0.0740 -0.4368
  304MOL0     C40966   1.969   4.704   9.731  0.2131 -0.6405  0.4472
  304MOL0     C40967   1.845   4.752   9.648  0.3445 -0.3858 -0.0172
  304MOL0     C40968   1.804   4.654   9.548 -0.6059  0.0390 -0.7443
  304MOL0     C40969   1.765   4.562   9.482 -0.4790 -0.0059  0.9824
  304MOL0     C40970   2.361   4.365   9.835  0.1604 -0.4156  0.7855
  304MOL0     C40971   2.500   4.352   9.846  0.4074 -0.6037  0.2336
  304MOL0     C40972   2.559   4.208   9.816  0.1764  0.4384 -0.4749
  304MOL0     H40973   3.002   4.465   9.913  0.6723  3.1532 -1.9154
  304MOL0     H40974   3.194   4.453  10.047  0.8027 -0.1696 -0.8706
  304MOL0     H40975   3.219   4.662  10.457  1.0094  0.1055 -0.2312
  304MOL0     H40976   3.145   4.505  10.481 -1.0816  2.2469  1.2504
  304MOL0     H40977   3.366   4.394  10.453  1.3437 -0.2659 -1.4936
  304MOL0     H40978   3.348   4.478  10.609  1.6585 -0.7297 -0.0092
  304MOL0     H40979   3.462   4.682  10.460 -1.8972 -0.5166  2.7222
  304MOL0     H40980   3.542   4.534  10.395  1.7845  0.7198  0.5486
  304MOL0     H40981   3.659   4.647  10.587 -0.0163 -0.4612 -1.3559
  304MOL0     H40982   3.528   4.580  10.695  1.3421 -2.4634  0.4395
  304MOL0     H40983   3.587   4.348  10.606  2.4657 -1.9424 -1.9235
  304MOL0     H40984   3.712   4.434  10.509 -0.8029  0.0196 -0.0386
  304MOL0     H40985   3.817   4.518  10.712  1.4313 -0.8978  0.5235
  304MOL0     H40986   3.703   4.418  10.803  0.1897  1.0906  0.8959
  304MOL0     H40987   3.892   4.296  10.592  0.6082  2.3237  1.6080
  304MOL0     H40988   3.760   4.217  10.686 -2.2983  1.3778  0.0401
  304MOL0     H40989   4.009   4.350  10.771  0.8775 -1.1895  0.5904
  304MOL0     H40990   3.878   4.313  10.882 -0.5240  0.6269  0.3387
  304MOL0     H40991   4.025   4.064  10.603 -0.1728  0.5432 -0.3294
  304MOL0     H40992   4.042   3.727  10.756 -0.3355 -0.4421 -0.7088
  304MOL0     H40993   4.069   3.816  10.605 -1.0758  3.4666  0.5099
  304MOL0     H40994   4.268   3.797  10.832 -1.0163 -0.5803  0.3928
  304MOL0     H40995   4.288   3.693  10.692  2.4981  0.4909  0.5370
  304MOL0     H40996   4.283   3.992  10.615 -2.1914 -1.1311 -2.6254
  304MOL0     H40997   4.315   3.856  10.525 -1.9040  0.0948  0.7565
  304MOL0     H40998   4.479   3.928  10.778  1.5054 -0.8208 -0.0727
  304MOL0     H40999   4.501   3.999  10.622 -2.6459  0.2562  0.2076
  304MOL0     H41000   4.737   3.987  10.692 -0.2186 -0.5098  3.0553
  304MOL0     H41001   4.963   3.923  10.737  0.8016 -0.3054  1.1192
  304MOL0     H41002   5.283   3.661  10.967  0.4837 -1.6863  0.3462
  304MOL0     H41003   5.527   3.667  11.012 -0.9343 -1.9578  0.4099
  304MOL0     H41004   5.740   3.682  11.037 -1.5749  0.4186 -0.5671
  304MOL0     H41005   5.715   3.545  10.920  0.0992 -0.6152  2.0481
  304MOL0     H41006   5.929   3.590  10.832  1.8162  1.6784 -0.1358
  304MOL0     H41007   5.946   3.737  10.932 -2.4972  0.8675 -0.5185
  304MOL0     H41008   5.944   3.619  11.140  2.7943 -1.4706  2.4209
  304MOL0     H41009   5.928   3.466  11.058  1.2201  0.9375  2.4889
  304MOL0     H41010   6.157   3.647  11.057 -2.4076  1.4515 -2.7225
  304MOL0     H41011   6.143   3.526  10.935  0.0686 -0.5935  0.1012
  304MOL0     H41012   6.128   3.340  11.083  2.2076  0.0415 -1.0529
  304MOL0     H41013   6.140   3.448  11.227  1.1290 -0.4845  0.6683
  304MOL0     H41014   6.343   3.446  10.992  1.1430  0.4348 -0.0393
  304MOL0     H41015   6.359   3.524  11.153 -0.4008 -1.1921  0.3324
  304MOL0     H41016   6.352   3.212  11.115 -0.2703 -0.6653  0.3325
  304MOL0     H41017   6.392   3.315  11.264  2.0710  1.0323  0.2251
  304MOL0     H41018   6.595   3.224  11.125  1.0536  0.9109  0.0682
  304MOL0     H41019   6.541   3.306  10.990 -0.2322 -2.0410  0.2950
  304MOL0     H41020   5.613   3.819  10.622  1.2506  0.4502  0.6188
  304MOL0     H41021   5.378   3.851  10.587  1.8093  2.0478 -0.5830
  304MOL0     H41022   4.881   3.506  10.727  3.0158  0.4922 -0.9361
  304MOL0     H41023   4.626   3.571  10.676 -3.7526  2.3025  1.3255
  304MOL0     H41024   3.013   4.663  10.364 -1.6641  0.9587  0.0434
  304MOL0     H41025   2.788   4.677  10.225 -1.2811 -0.5633 -1.7914
  304MOL0     H41026   2.548   4.681   9.922  0.6876 -0.3852  0.3093
  304MOL0     H41027   2.315   4.700   9.858 -1.9894 -0.7347  2.7667
  304MOL0     H41028   2.134   4.665   9.933  0.8820  1.3299 -3.9990
  304MOL0     H41029   2.059   4.523  10.004  0.0212 -0.9504 -0.1657
  304MOL0     H41030   1.866   4.609   9.894  0.7706 -1.5963  0.1967
  304MOL0     H41031   1.930   4.499   9.766  1.2080  2.5597 -4.7868
  304MOL0     H41032   2.033   4.665   9.652 -1.1111 -0.3623 -0.8220
  304MOL0     H41033   2.008   4.796   9.776 -0.2275 -0.7319  1.0247
  304MOL0     H41034   1.759   4.786   9.706 -2.2434 -1.1234 -3.0973
  304MOL0     H41035   1.867   4.840   9.586 -3.9040  0.0419 -1.2057
  304MOL0     H41036   1.740   4.481   9.416  2.8738  0.1241 -0.6320
  304MOL0     H41037   2.304   4.274   9.819  0.3900 -0.5401  0.6741
  304MOL0     H41038   2.605   4.173   9.909 -1.0279  0.8790  0.3101
  304MOL0     H41039   2.482   4.143   9.775  0.0291  0.4178 -0.1699
  304MOL0     H41040   2.641   4.200   9.744  1.3836 -0.7602  0.9478
  305MOL0     O41041   2.658   3.595  10.960 -0.2859  0.5443  0.1843
  305MOL0     C41042   2.564   3.572  11.039  0.4736 -0.2593  0.1150
  305MOL0     O41043   2.566   3.476  11.133  0.1521  0.0723  0.3641
  305MOL0     C41044   2.683   3.403  11.151  0.2980  0.5805  0.4540
  305MOL0     C41045   2.741   3.404  11.275 -0.2074  0.3801 -0.9091
  305MOL0     C41046   2.859   3.331  11.303  1.5393 -0.6801 -0.8150
  305MOL0     C41047   2.919   3.265  11.202 -0.1232  0.1524  0.5125
  305MOL0     O41048   3.035   3.200  11.211 -0.3102 -0.1165 -0.6790
  305MOL0     C41049   3.123   3.228  11.323 -1.0376 -0.3369  0.9962
  305MOL0     C41050   3.245   3.136  11.330 -0.4379 -0.7767  0.3754
  305MOL0     C41051   3.330   3.144  11.197 -0.1936 -1.8122  0.4828
  305MOL0     C41052   3.463   3.076  11.225  0.6023 -0.2392 -0.1996
  305MOL0     C41053   3.560   3.059  11.120 -0.6597  0.1876  0.1910
  305MOL0     C41054   3.681   2.983  11.182  0.3869 -0.6084  0.5692
  305MOL0     C41055   3.654   2.834  11.182  0.2539  0.3847 -0.7200
  305MOL0     C41056   3.766   2.739  11.211  0.0927 -0.3476 -0.5397
  305MOL0     N41057   3.837   2.712  11.082 -0.1488 -0.5316  0.0004
  305MOL0     C41058   3.905   2.600  11.057 -0.0183  0.5454 -0.6727
  305MOL0     C41059   3.935   2.602  10.923 -0.0629  0.5030 -0.5114
  305MOL0     C41060   4.006   2.497  10.850 -0.3996  0.2223  0.2329
  305MOL0     C41061   4.159   2.533  10.836 -0.6266 -0.2423 -0.8608
  305MOL0     C41062   4.246   2.530  10.969 -0.0631 -0.2929 -0.2111
  305MOL0     C41063   4.395   2.521  10.952  0.0824 -0.8405 -0.0546
  305MOL0     O41064   4.451   2.514  11.083 -0.2875  0.4761 -0.2809
  305MOL0     C41065   4.587   2.495  11.099  0.2482 -0.0026  0.5234
  305MOL0     C41066   4.679   2.482  10.995 -0.6470 -0.4837  0.9898
  305MOL0     C41067   4.813   2.452  11.013  0.6220  1.0572 -0.0694
  305MOL0     C41068   4.862   2.438  11.142  0.4007  0.5647 -0.3819
  305MOL0     C41069   5.002   2.401  11.169  0.5929  0.1954  0.1261
  305MOL0     O41070   5.097   2.401  11.065  0.4262  0.6444 -0.3258
  305MOL0     C41071   5.227   2.389  11.099 -0.5767  0.2311 -0.2051
  305MOL0     C41072   5.298   2.283  11.048 -0.6682 -0.1421  0.1137
  305MOL0     C41073   5.440   2.287  11.065 -0.3568  0.4693  0.3276
  305MOL0     C41074   5.504   2.390  11.131 -0.9986  1.1763  0.0328
  305MOL0     O41075   5.639   2.366  11.152  0.9175 -0.0371  0.9136
  305MOL0     C41076   5.734   2.474  11.181  0.1032 -0.1929  0.2890
  305MOL0     C41077   5.818   2.448  11.308  0.4383 -0.2740 -0.2269
  305MOL0     C41078   5.740   2.402  11.435  0.0669  0.1796  0.8576
  305MOL0     C41079   5.837   2.395  11.547 -1.3390 -0.4018 -0.5257
  305MOL0     C41080   5.796   2.307  11.666  0.0632  0.1691 -0.3891
  305MOL0     C41081   5.876   2.317  11.796  0.7086 -0.6154 -0.3950
  305MOL0     C41082   6.025   2.262  11.783 -0.3382 -0.0375 -0.4006
  305MOL0     C41083   6.020   2.115  11.743  0.0129 -0.0965  0.0354
  305MOL0    Cl41084   6.170   2.026  11.812  0.1597 -0.0811 -0.2316
  305MOL0     C41085   5.424   2.493  11.185  0.2213  0.1706 -0.3488
  305MOL0     C41086   5.288   2.497  11.158  0.0304 -0.5626  0.3973
  305MOL0     O41087   5.025   2.371  11.281 -0.1299  0.2544 -0.0378
  305MOL0     C41088   4.765   2.434  11.249  0.1572 -0.3216 -0.5388
  305MOL0     C41089   4.633   2.459  11.231  0.1248 -0.4007  0.6388
  305MOL0     N41090   3.863   2.710  10.876  0.0055 -1.0911 -0.2760
  305MOL0     N41091   3.823   2.784  10.975  0.4768 -0.0160  0.3554
  305MOL0     C41092   2.861   3.259  11.077 -0.6853  0.7972  0.9888
  305MOL0     C41093   2.737   3.326  11.047 -0.0176 -0.3518 -0.8777
  305MOL0     C41094   2.427   3.635  11.026  0.2054  0.0052 -0.3286
  305MOL0     C41095   2.322   3.554  11.072  0.9459 -0.4670  0.8201
  305MOL0     C41096   2.193   3.599  11.061  0.2155  0.6565  0.6996
  305MOL0     C41097   2.160   3.724  11.008  0.1426  0.2279 -0.1924
  305MOL0     O41098   2.025   3.766  10.996 -0.1640 -0.1067 -0.1032
  305MOL0     C41099   1.981   3.888  10.935  0.2853 -0.9089  0.5562
  305MOL0     C41100   1.846   3.913  10.991  0.4521  0.6060  0.0471
  305MOL0     C41101   1.742   3.809  10.937  1.2786 -1.0965 -0.2127
  305MOL0     C41102   1.596   3.848  10.967 -0.8642  1.1976  0.0984
  305MOL0     C41103   1.563   3.856  11.111 -0.6299 -0.0480 -0.0321
  305MOL0     C41104   1.547   3.855  11.230 -0.9946  0.5166 -0.8228
  305MOL0     C41105   2.271   3.804  10.975 -0.8095 -0.3832  1.1646
  305MOL0     C41106   2.406   3.758  10.968  0.0809  0.5013  1.1814
  305MOL0     C41107   2.508   3.848  10.898 -0.0843 -0.3772  0.5281
  305MOL0     H41108   2.696   3.465  11.352 -0.5700 -1.3314  0.2895
  305MOL0     H41109   2.899   3.334  11.404 -0.1934 -0.9191 -0.0810
  305MOL0     H41110   3.161   3.329  11.308  0.6540 -1.1654 -0.7400
  305MOL0     H41111   3.074   3.210  11.419  0.2455  1.4518  2.0359
  305MOL0     H41112   3.232   3.031  11.360  1.9275 -0.5407  2.6223
  305MOL0     H41113   3.293   3.183  11.416 -2.0964  0.3476  0.7286
  305MOL0     H41114   3.337   3.247  11.159 -3.1201 -1.6136  0.2906
  305MOL0     H41115   3.280   3.092  11.116  1.6422 -2.0202 -0.5604
  305MOL0     H41116   3.521   3.116  11.309 -0.7180  0.1049  0.5803
  305MOL0     H41117   3.435   2.973  11.250  0.1327  0.2305  1.3436
  305MOL0     H41118   3.523   3.004  11.033  1.8011  0.3318 -1.0374
  305MOL0     H41119   3.588   3.163  11.097 -2.3934  1.0123  1.5114
  305MOL0     H41120   3.780   2.998  11.137  1.7393 -0.7386  3.3385
  305MOL0     H41121   3.699   3.017  11.284 -1.1017 -0.8831  0.9570
  305MOL0     H41122   3.605   2.802  11.090 -2.1759  0.2980  0.4939
  305MOL0     H41123   3.587   2.822  11.268  0.2861  4.0032 -0.0392
  305MOL0     H41124   3.829   2.786  11.287 -1.4587  1.6462 -0.4157
  305MOL0     H41125   3.730   2.638  11.234  2.3854 -1.1939 -0.3506
  305MOL0     H41126   3.919   2.525  11.135 -1.8345  0.0614 -0.7695
  305MOL0     H41127   3.984   2.399  10.892 -0.0160 -1.7690 -3.6863
  305MOL0     H41128   3.963   2.496  10.749 -0.2085 -0.8381  0.1464
  305MOL0     H41129   4.210   2.469  10.764  2.3972  2.8219 -1.7206
  305MOL0     H41130   4.178   2.628  10.785  1.8222 -0.2242 -0.0339
  305MOL0     H41131   4.202   2.453  11.033 -3.2348  1.6145  0.1445
  305MOL0     H41132   4.216   2.622  11.021 -1.6214 -0.7483 -0.2360
  305MOL0     H41133   4.435   2.612  10.906  0.8462 -0.0018  2.1442
  305MOL0     H41134   4.417   2.426  10.903  1.2399  0.1403 -1.5335
  305MOL0     H41135   4.651   2.483  10.890 -0.3184 -1.2433  0.8865
  305MOL0     H41136   4.881   2.430  10.931  1.3700 -2.1249  1.2542
  305MOL0     H41137   5.253   2.192  11.009  1.6756 -1.2336 -0.2201
  305MOL0     H41138   5.484   2.193  11.034 -3.0362 -0.9479  0.4544
  305MOL0     H41139   5.795   2.485  11.091  3.3550 -3.2056  1.8643
  305MOL0     H41140   5.678   2.565  11.199 -1.1053 -0.6866 -0.8098
  305MOL0     H41141   5.891   2.368  11.289 -1.1739 -1.9266  0.2510
  305MOL0     H41142   5.867   2.543  11.330  1.0265 -0.2380 -1.5865
  305MOL0     H41143   5.670   2.479  11.469 -0.1966 -0.0732  0.8892
  305MOL0     H41144   5.688   2.307  11.422  0.5861 -0.1768  1.3219
  305MOL0     H41145   5.827   2.496  11.587 -2.3544 -1.2674  1.5920
  305MOL0     H41146   5.942   2.379  11.521 -0.0677 -0.0519  3.6543
  305MOL0     H41147   5.795   2.203  11.632 -0.0896  0.7471 -2.2611
  305MOL0     H41148   5.694   2.336  11.690 -0.5603  0.1762 -2.8129
  305MOL0     H41149   5.895   2.422  11.821  1.2494 -0.3893 -1.6878
  305MOL0     H41150   5.829   2.264  11.879 -0.3828 -2.4618 -2.1227
  305MOL0     H41151   6.061   2.285  11.884 -1.7942  2.3198 -0.3438
  305MOL0     H41152   6.074   2.330  11.714 -0.2971  2.1720  1.6776
  305MOL0     H41153   5.928   2.068  11.779 -0.3060 -1.9670 -2.9375
  305MOL0     H41154   6.021   2.095  11.636  1.9422 -0.3128  0.0721
  305MOL0     H41155   5.472   2.579  11.232  0.2992  1.1790 -2.1969
  305MOL0     H41156   5.230   2.585  11.185 -0.3917 -0.0777 -1.8480
  305MOL0     H41157   4.791   2.410  11.352  1.2408  3.0512  0.1294
  305MOL0     H41158   4.559   2.455  11.310  0.0549  2.4885  0.8154
  305MOL0     H41159   2.914   3.207  10.998  0.3130  2.9332  0.1800
  305MOL0     H41160   2.689   3.324  10.950 -2.6060  1.1748  0.2636
  305MOL0     H41161   2.332   3.459  11.123 -2.1947 -0.3768  1.8491
  305MOL0     H41162   2.106   3.543  11.093 -1.9711  3.5948  0.3551
  305MOL0     H41163   1.982   3.884  10.825  1.3466 -0.4613  0.5336
  305MOL0     H41164   2.042   3.977  10.955 -1.0083  0.2588 -0.5043
  305MOL0     H41165   1.816   4.016  10.970 -1.8899 -0.5924 -3.1590
  305MOL0     H41166   1.853   3.916  11.100  1.3499 -2.1206  0.1338
  305MOL0     H41167   1.762   3.708  10.973 -2.6324 -1.7997  0.4253
  305MOL0     H41168   1.761   3.798  10.830  0.7855 -2.1256 -0.1999
  305MOL0     H41169   1.568   3.941  10.916  0.5192  2.7001  1.9254
  305MOL0     H41170   1.535   3.764  10.933 -0.2702  0.0684  1.7053
  305MOL0     H41171   1.525   3.834  11.333 -2.3745 -1.3563 -1.4531
  305MOL0     H41172   2.252   3.901  10.930  0.2852 -0.1423  1.2012
  305MOL0     H41173   2.457   3.943  10.881  1.1813 -0.0740 -1.9975
  305MOL0     H41174   2.590   3.867  10.967 -0.5112 -0.2129  0.9924
  305MOL0     H41175   2.556   3.822  10.803 -1.7653 -0.0370 -0.4625
  306MOL0     O41176   3.536   5.049   3.897  0.7925  0.6347  0.1621
  306MOL0     C41177   3.475   5.147   3.858 -0.6989 -0.2471  0.3075
  306MOL0     O41178   3.528   5.267   3.828 -0.3040  0.0585  0.1998
  306MOL0     C41179   3.654   5.311   3.862 -0.6341  0.1445  0.0579
  306MOL0     C41180   3.722   5.279   3.979  0.6186  0.9735 -0.1647
  306MOL0     C41181   3.842   5.342   4.007 -1.3325  0.3302 -0.2272
  306MOL0     C41182   3.909   5.416   3.916  0.4026  1.0770 -0.2119
  306MOL0     O41183   4.029   5.458   3.949  0.1523 -0.4110 -0.9131
  306MOL0     C41184   4.105   5.538   3.857  0.4945 -0.0597  0.7699
  306MOL0     C41185   4.248   5.558   3.899  0.3315 -0.1026  0.6512
  306MOL0     C41186   4.314   5.426   3.880  0.5513  0.2065 -0.6701
  306MOL0     C41187   4.460   5.429   3.909 -0.0148 -0.7283 -0.3056
  306MOL0     C41188   4.543   5.314   3.840  0.6638  0.3754  0.4716
  306MOL0     C41189   4.691   5.323   3.870  0.5409 -0.3988  0.1107
  306MOL0     C41190   4.779   5.268   3.756 -0.3316  0.0692 -0.0365
  306MOL0     C41191   4.919   5.291   3.801  0.2010  0.2356  0.0500
  306MOL0     N41192   4.952   5.196   3.917  0.1200 -0.0629 -0.5590
  306MOL0     C41193   5.024   5.222   4.031  0.3186 -0.2411  0.8380
  306MOL0     C41194   5.050   5.103   4.085  0.1419 -0.8456 -0.4335
  306MOL0     C41195   5.109   5.078   4.222  0.1229  0.6320  0.5922
  306MOL0     C41196   5.252   5.125   4.235  0.1278 -0.5825  0.4376
  306MOL0     C41197   5.328   5.124   4.373  0.7820 -1.0182  0.4999
  306MOL0     C41198   5.378   4.987   4.420  0.5895  0.1263  0.2829
  306MOL0     O41199   5.446   4.985   4.545  0.8325 -0.4085 -0.0112
  306MOL0     C41200   5.578   5.034   4.548  0.4600 -0.4315 -0.3682
  306MOL0     C41201   5.647   5.089   4.441  0.4603 -0.4500  0.7448
  306MOL0     C41202   5.780   5.130   4.455  0.9296  0.3052 -0.1340
  306MOL0     C41203   5.844   5.118   4.577 -0.4718 -1.5351  1.2480
  306MOL0     C41204   5.976   5.158   4.581 -0.0406  0.5522 -0.6449
  306MOL0     O41205   6.047   5.137   4.470 -1.1169 -0.2679  0.1100
  306MOL0     C41206   6.187   5.139   4.476  0.5313  0.3306 -0.0868
  306MOL0     C41207   6.246   5.041   4.551  0.6348 -0.4557 -0.1605
  306MOL0     C41208   6.371   5.001   4.510 -0.3916 -0.1918 -0.1039
  306MOL0     C41209   6.440   5.067   4.413 -0.2621 -0.1134  0.4753
  306MOL0     O41210   6.568   5.012   4.391  0.3938 -0.6857  0.5701
  306MOL0     C41211   6.644   5.053   4.283  0.0934 -0.0675  0.7779
  306MOL0     C41212   6.647   4.941   4.187 -0.6367  0.7473  0.2585
  306MOL0     C41213   6.694   4.805   4.255 -0.0596  0.7905 -0.6053
  306MOL0     C41214   6.721   4.703   4.140  0.5977  0.4302  0.3008
  306MOL0     C41215   6.807   4.585   4.177 -0.7931  0.5974 -0.4762
  306MOL0     C41216   6.750   4.490   4.282  0.0486 -0.4222  0.0736
  306MOL0     C41217   6.767   4.524   4.426  0.3448  0.3862  0.8687
  306MOL0     C41218   6.848   4.415   4.490 -0.0964 -0.5500 -0.3089
  306MOL0    Cl41219   6.883   4.485   4.648 -0.2297 -0.2078  0.2605
  306MOL0     C41220   6.390   5.177   4.344  0.7069  0.1149 -0.3898
  306MOL0     C41221   6.256   5.211   4.381 -0.6701  0.2003  0.2177
  306MOL0     O41222   6.015   5.205   4.691  0.0888  0.6362 -0.0161
  306MOL0     C41223   5.776   5.060   4.684  0.7492 -0.0030 -0.1500
  306MOL0     C41224   5.639   5.025   4.673 -0.8541  0.1525  0.1994
  306MOL0     N41225   4.997   5.003   4.011  0.2093  0.9316  0.1684
  306MOL0     N41226   4.936   5.058   3.903 -0.5388  0.3931 -0.6609
  306MOL0     C41227   3.844   5.438   3.796  0.2264  0.5679 -0.1533
  306MOL0     C41228   3.727   5.377   3.762  0.3077 -0.6206  0.8108
  306MOL0     C41229   3.343   5.125   3.830 -0.1068  0.1820 -0.7222
  306MOL0     C41230   3.297   5.191   3.707  0.0353  0.4930  0.5455
  306MOL0     C41231   3.169   5.172   3.659 -0.3674 -0.3930 -0.7431
  306MOL0     C41232   3.076   5.094   3.730  0.4742 -1.0541 -0.7603
  306MOL0     O41233   2.942   5.093   3.684 -0.8698  0.4212  0.1880
  306MOL0     C41234   2.833   5.094   3.775  0.8666  0.5167  0.1402
  306MOL0     C41235   2.699   5.104   3.705 -0.0197  0.2688 -0.1869
  306MOL0     C41236   2.679   4.983   3.612 -0.3799  0.4567 -0.1904
  306MOL0     C41237   2.539   4.986   3.555 -0.2363 -0.2358 -0.9905
  306MOL0     C41238   2.494   4.845   3.527 -0.0608 -0.1685 -0.3597
  306MOL0     C41239   2.467   4.724   3.518  0.1112 -0.0763  1.2818
  306MOL0     C41240   3.121   5.038   3.848  0.3548  0.0751  1.0904
  306MOL0     C41241   3.249   5.060   3.905 -0.2268  0.1828 -0.0688
  306MOL0     C41242   3.278   4.993   4.040  0.3100  0.1485  0.6087
  306MOL0     H41243   3.669   5.211   4.045 -1.5616  1.7268 -1.0740
  306MOL0     H41244   3.886   5.318   4.103  1.2000 -2.1113 -1.8461
  306MOL0     H41245   4.109   5.494   3.757 -1.5456 -0.3162  0.7741
  306MOL0     H41246   4.054   5.633   3.840 -0.4593 -0.9021 -1.4403
  306MOL0     H41247   4.245   5.602   4.000 -5.1210 -0.8142  1.0816
  306MOL0     H41248   4.289   5.631   3.829  0.1111 -1.6052 -1.1284
  306MOL0     H41249   4.304   5.389   3.778 -1.0351 -0.7814 -0.1961
  306MOL0     H41250   4.264   5.357   3.949 -0.2811  0.3895 -1.0861
  306MOL0     H41251   4.501   5.527   3.881 -0.9465 -0.3137 -0.2594
  306MOL0     H41252   4.480   5.427   4.016  1.4463 -1.9345 -0.5653
  306MOL0     H41253   4.501   5.216   3.863 -0.6047  0.6354 -0.6535
  306MOL0     H41254   4.535   5.320   3.731 -0.6398  0.7277  0.5749
  306MOL0     H41255   4.721   5.428   3.875 -0.0109 -0.1628 -1.1367
  306MOL0     H41256   4.709   5.270   3.964  0.8808  0.1533  0.3606
  306MOL0     H41257   4.757   5.319   3.662 -1.8940 -1.0499 -0.3337
  306MOL0     H41258   4.757   5.162   3.739 -0.6473  0.5068 -2.8339
  306MOL0     H41259   4.987   5.289   3.715 -0.7151  2.1190 -0.7932
  306MOL0     H41260   4.919   5.397   3.828 -0.7905  0.8895 -2.2233
  306MOL0     H41261   5.044   5.318   4.078  0.0225 -0.6782  1.8682
  306MOL0     H41262   5.046   5.122   4.300  1.3460  4.2807 -0.2584
  306MOL0     H41263   5.104   4.971   4.242  0.5160  0.8884  2.1462
  306MOL0     H41264   5.315   5.070   4.164  2.7983 -0.7092  2.7170
  306MOL0     H41265   5.236   5.232   4.215 -2.3540 -0.3639  3.0692
  306MOL0     H41266   5.260   5.161   4.450  1.8283  0.2604  0.8360
  306MOL0     H41267   5.404   5.202   4.377 -1.2122  1.0400  0.2513
  306MOL0     H41268   5.451   4.947   4.349  1.0977 -0.6483  1.2196
  306MOL0     H41269   5.294   4.917   4.414 -0.3538  1.3250 -1.7044
  306MOL0     H41270   5.606   5.106   4.342 -0.2671 -1.4193  0.8613
  306MOL0     H41271   5.830   5.175   4.370 -2.1692 -1.0692 -2.9378
  306MOL0     H41272   6.185   4.982   4.618  2.1295 -0.1368  1.5606
  306MOL0     H41273   6.430   4.925   4.561 -0.3363 -0.5220 -0.6526
  306MOL0     H41274   6.617   5.148   4.236  1.3280 -0.2274 -0.3195
  306MOL0     H41275   6.747   5.060   4.318  0.5235 -3.8656  0.7310
  306MOL0     H41276   6.544   4.929   4.152 -0.9169  3.0185  0.1597
  306MOL0     H41277   6.714   4.962   4.104 -0.4336 -0.6200  0.0445
  306MOL0     H41278   6.787   4.810   4.312 -0.0677  1.6758 -0.6496
  306MOL0     H41279   6.615   4.779   4.326 -0.5198  0.2714 -1.2933
  306MOL0     H41280   6.776   4.751   4.060  2.3510 -4.0089 -1.4927
  306MOL0     H41281   6.627   4.664   4.099 -0.1133  2.1221  0.2291
  306MOL0     H41282   6.908   4.614   4.207 -1.1216  1.1099  0.1544
  306MOL0     H41283   6.806   4.529   4.082 -2.4417  2.2828 -1.5187
  306MOL0     H41284   6.642   4.473   4.273 -0.0115  0.1688 -0.4462
  306MOL0     H41285   6.796   4.392   4.268 -1.0578 -0.8491 -0.7544
  306MOL0     H41286   6.667   4.525   4.470 -0.6768  1.2537 -1.3129
  306MOL0     H41287   6.809   4.625   4.438 -0.4230  0.7426  0.6508
  306MOL0     H41288   6.787   4.326   4.510 -0.9985  0.4077  1.5670
  306MOL0     H41289   6.938   4.396   4.431 -1.1342 -0.3047 -2.0201
  306MOL0     H41290   6.437   5.238   4.268  0.2804  1.2651  0.2394
  306MOL0     H41291   6.207   5.296   4.335  0.6885 -0.8549 -3.6285
  306MOL0     H41292   5.823   5.030   4.777  0.9813 -0.1656 -0.3193
  306MOL0     H41293   5.584   4.973   4.751  1.5064 -0.1845  1.7337
  306MOL0     H41294   3.883   5.499   3.715 -2.4383  1.9858 -0.4824
  306MOL0     H41295   3.684   5.401   3.665  0.7135 -1.0179  0.5322
  306MOL0     H41296   3.368   5.257   3.658  0.2111  0.1181  0.2941
  306MOL0     H41297   3.129   5.229   3.576 -0.0870  1.1118  0.1081
  306MOL0     H41298   2.850   5.175   3.846 -1.5897 -0.2468  1.7186
  306MOL0     H41299   2.836   5.006   3.840 -0.2874 -0.8730 -1.5911
  306MOL0     H41300   2.689   5.195   3.646 -0.7637 -0.0361 -0.5394
  306MOL0     H41301   2.628   5.099   3.788 -1.0133  0.4111 -1.0058
  306MOL0     H41302   2.705   4.893   3.669  0.7548  1.0771  0.3186
  306MOL0     H41303   2.743   4.981   3.523 -0.9486  2.3513 -0.6890
  306MOL0     H41304   2.467   5.042   3.616  1.7009  2.2479 -0.7851
  306MOL0     H41305   2.539   5.044   3.462 -1.1419  0.3990 -0.6147
  306MOL0     H41306   2.447   4.619   3.509  1.1709 -0.2501  0.7027
  306MOL0     H41307   3.055   4.963   3.892 -2.2133 -0.0876 -2.5538
  306MOL0     H41308   3.341   4.905   4.026 -0.0239  0.1219 -0.9993
  306MOL0     H41309   3.319   5.056   4.120 -0.3427 -0.4861  1.4591
  306MOL0     H41310   3.183   4.967   4.088 -1.0415  1.2306 -1.3179
  307MOL0     O41311   6.522   3.472  10.286  0.1709  0.4050 -0.0853
  307MOL0     C41312   6.516   3.355  10.330 -0.1326  0.1514  0.8378
  307MOL0     O41313   6.628   3.272  10.360  0.1060  0.1975 -0.2026
  307MOL0     C41314   6.749   3.320  10.328 -0.0123 -0.4570 -0.0761
  307MOL0     C41315   6.794   3.439  10.386  0.3000  0.6890  0.3017
  307MOL0     C41316   6.903   3.506  10.330 -0.3607 -0.2481 -0.4215
  307MOL0     C41317   6.979   3.451  10.232  0.5599  0.7620  0.2856
  307MOL0     O41318   7.078   3.517  10.173 -0.2775 -0.4688 -0.1029
  307MOL0     C41319   7.209   3.452  10.189  0.0981  0.5991 -0.1962
  307MOL0     C41320   7.311   3.550  10.145  0.4862  0.0598 -0.0379
  307MOL0     C41321   7.295   3.686  10.220  0.2374 -0.4219 -1.1459
  307MOL0     C41322   7.393   3.797  10.174 -0.2609  0.7227  0.0274
  307MOL0     C41323   7.398   3.921  10.265 -0.1629  0.0446 -0.1568
  307MOL0     C41324   7.504   4.015  10.215 -1.2656 -1.1643  0.4496
  307MOL0     C41325   7.529   4.136  10.310  0.1470  0.5712 -0.3324
  307MOL0     C41326   7.395   4.216  10.338 -0.1235 -0.6302 -0.0362
  307MOL0     N41327   7.305   4.250  10.225 -0.4623  0.7987 -0.3315
  307MOL0     C41328   7.313   4.362  10.146 -0.5113 -0.4206  0.3917
  307MOL0     C41329   7.191   4.373  10.086 -1.0899  0.1311  0.0233
  307MOL0     C41330   7.147   4.487   9.999  0.2579 -0.2198  0.5572
  307MOL0     C41331   7.061   4.571  10.084  0.1145 -0.8554  0.5982
  307MOL0     C41332   6.986   4.663   9.978 -0.0214 -0.3106 -1.1411
  307MOL0     C41333   6.873   4.743  10.033  0.4212 -0.5299 -0.2078
  307MOL0     O41334   6.768   4.661  10.097  0.4072 -0.2613 -0.6102
  307MOL0     C41335   6.643   4.720  10.095 -0.7527  0.1476 -0.2973
  307MOL0     C41336   6.540   4.651  10.050  0.5391  0.5688 -0.3415
  307MOL0     C41337   6.411   4.693  10.063  0.3071  0.3655  0.2073
  307MOL0     C41338   6.381   4.808  10.142 -0.6537  0.6933 -0.1619
  307MOL0     C41339   6.244   4.851  10.154  0.0151 -0.1738 -0.7895
  307MOL0     O41340   6.216   4.957  10.242 -0.2329  0.3366  0.5129
  307MOL0     C41341   6.092   5.008  10.268 -1.2701  0.2510  0.0597
  307MOL0     C41342   6.101   5.130  10.324  0.8288 -0.5160  0.3091
  307MOL0     C41343   5.984   5.196  10.371  0.4600 -0.4340 -0.1369
  307MOL0     C41344   5.855   5.146  10.367  0.2856 -0.3379  0.4125
  307MOL0     O41345   5.752   5.225  10.422  0.1420  0.4254  0.5584
  307MOL0     C41346   5.625   5.152  10.432  0.2056 -0.0212 -0.2227
  307MOL0     C41347   5.524   5.253  10.487 -0.7485 -0.6806 -0.3714
  307MOL0     C41348   5.382   5.188  10.478 -0.8162 -0.5483  0.1352
  307MOL0     C41349   5.257   5.276  10.485  0.6059 -0.3484  0.7029
  307MOL0     C41350   5.133   5.213  10.415  0.0463 -0.1494 -0.9887
  307MOL0     C41351   5.114   5.059  10.443  0.2221 -0.0950 -0.9401
  307MOL0     C41352   5.003   5.010  10.344  0.0662 -0.3972 -0.4890
  307MOL0     C41353   4.880   5.102  10.319 -0.3853 -0.8227  0.6720
  307MOL0    Cl41354   4.762   5.006  10.229 -0.0011 -0.5485  0.3258
  307MOL0     C41355   5.843   5.018  10.302 -0.5441  0.5234 -0.0181
  307MOL0     C41356   5.962   4.954  10.254  0.6833 -0.2623  0.0448
  307MOL0     O41357   6.163   4.793  10.076  0.4223 -0.5101 -0.3023
  307MOL0     C41358   6.489   4.868  10.211 -0.3426  0.1745 -0.0183
  307MOL0     C41359   6.615   4.826  10.180 -0.4174 -0.2119  0.1585
  307MOL0     N41360   7.107   4.280  10.132 -0.6129  0.0920 -0.0426
  307MOL0     N41361   7.180   4.206  10.212  0.5269 -0.1760 -0.1069
  307MOL0     C41362   6.940   3.324  10.178  0.3848 -0.0910  0.4042
  307MOL0     C41363   6.824   3.270  10.223  0.5761  0.2120  0.5367
  307MOL0     C41364   6.379   3.308  10.370 -0.1596  0.4233  0.2857
  307MOL0     C41365   6.364   3.173  10.408  0.1222  0.8257  0.3345
  307MOL0     C41366   6.244   3.127  10.473 -0.1332 -0.4825  0.1829
  307MOL0     C41367   6.129   3.205  10.481 -0.0602 -0.2507  0.8137
  307MOL0     O41368   6.023   3.153  10.550 -0.1143  0.8334  0.2326
  307MOL0     C41369   5.917   3.129  10.449  0.1951 -0.0577  0.1988
  307MOL0     C41370   5.796   3.056  10.507 -0.4207  0.1960  0.9682
  307MOL0     C41371   5.681   3.157  10.541 -0.7967  0.2646 -0.9924
  307MOL0     C41372   5.715   3.263  10.649 -0.0454 -0.1727 -0.0766
  307MOL0     C41373   5.599   3.343  10.671 -0.3155  0.4233 -1.2166
  307MOL0     C41374   5.495   3.406  10.698  0.7458 -0.3407 -0.0817
  307MOL0     C41375   6.145   3.335  10.425 -0.9846  0.3693  0.4333
  307MOL0     C41376   6.266   3.388  10.375  1.3246  0.2021 -1.0132
  307MOL0     C41377   6.261   3.532  10.331 -0.3268  0.3035  0.5488
  307MOL0     H41378   6.750   3.484  10.474 -0.0914  0.5129  0.2015
  307MOL0     H41379   6.933   3.602  10.371 -0.8627 -0.3328  0.1596
  307MOL0     H41380   7.225   3.427  10.294  1.8922  0.0629 -0.5562
  307MOL0     H41381   7.213   3.360  10.129  0.7379 -1.3321  2.6226
  307MOL0     H41382   7.318   3.579  10.040  0.8996  0.0109 -0.0267
  307MOL0     H41383   7.408   3.503  10.166 -1.0086 -1.9674  3.1933
  307MOL0     H41384   7.302   3.671  10.328 -2.1026  1.2900 -0.7031
  307MOL0     H41385   7.200   3.733  10.196  0.1951 -0.8053 -1.7542
  307MOL0     H41386   7.493   3.762  10.148 -0.9731 -0.3015 -1.4174
  307MOL0     H41387   7.356   3.823  10.074  2.7473 -0.4677 -1.5227
  307MOL0     H41388   7.300   3.967  10.271  0.1643  0.6687  0.5571
  307MOL0     H41389   7.431   3.889  10.365 -0.8354 -1.3078 -0.3445
  307MOL0     H41390   7.602   3.967  10.202 -1.9942 -2.9938  1.3069
  307MOL0     H41391   7.473   4.057  10.119 -1.4047 -1.1215  0.5140
  307MOL0     H41392   7.583   4.213  10.254 -0.9737  0.5004 -1.5629
  307MOL0     H41393   7.583   4.112  10.402 -1.8604 -0.5340  0.6080
  307MOL0     H41394   7.337   4.161  10.413  1.3604 -0.6209  1.1734
  307MOL0     H41395   7.417   4.308  10.392  1.9823 -2.2316  2.0478
  307MOL0     H41396   7.387   4.441  10.146 -1.9384  0.9570  0.4104
  307MOL0     H41397   7.234   4.538   9.957  1.1956  0.8436  3.5099
  307MOL0     H41398   7.088   4.441   9.920  2.2667 -2.7768  0.3933
  307MOL0     H41399   6.984   4.511  10.133  1.3622 -5.1392 -2.0490
  307MOL0     H41400   7.120   4.637  10.148 -0.9050  2.0750 -1.2558
  307MOL0     H41401   6.942   4.595   9.905  2.5216 -1.4757 -1.7159
  307MOL0     H41402   7.064   4.723   9.929  0.0031  1.1714  0.6133
  307MOL0     H41403   6.834   4.808   9.954 -0.8199 -1.7659 -0.6486
  307MOL0     H41404   6.918   4.813  10.104 -0.2495  1.1076 -1.3270
  307MOL0     H41405   6.566   4.559   9.997 -1.5114 -0.4217  0.2644
  307MOL0     H41406   6.327   4.635  10.024 -2.6201  2.5315  2.7545
  307MOL0     H41407   6.192   5.180  10.355  1.2343 -1.2238  0.2876
  307MOL0     H41408   5.999   5.283  10.434  2.1416 -2.0279  1.8004
  307MOL0     H41409   5.592   5.108  10.337 -2.4776 -2.9031  1.8418
  307MOL0     H41410   5.640   5.061  10.491  0.8445 -0.8718 -1.6242
  307MOL0     H41411   5.558   5.297  10.582 -1.7385  1.6955 -1.0474
  307MOL0     H41412   5.533   5.333  10.413  1.7969 -0.0805  0.4861
  307MOL0     H41413   5.371   5.141  10.380 -2.7153 -4.1827  1.8754
  307MOL0     H41414   5.374   5.116  10.560  0.7896 -2.0595 -0.9680
  307MOL0     H41415   5.277   5.375  10.442  1.4365 -0.5172  0.6899
  307MOL0     H41416   5.231   5.292  10.590 -0.0077  0.1822  0.4818
  307MOL0     H41417   5.131   5.247  10.311 -0.2534  1.1846 -0.5703
  307MOL0     H41418   5.047   5.262  10.461  0.5248  0.6898 -0.9621
  307MOL0     H41419   5.195   4.988  10.423 -2.2306 -2.4811 -3.4242
  307MOL0     H41420   5.065   5.044  10.540  0.1608  1.9161 -0.6300
  307MOL0     H41421   4.958   4.918  10.383 -1.3488  0.9555  1.2251
  307MOL0     H41422   5.040   4.987  10.243 -1.8968  1.7442 -1.8224
  307MOL0     H41423   4.838   5.126  10.417 -2.4952 -0.1994 -0.3316
  307MOL0     H41424   4.895   5.193  10.260  0.5415 -0.7615  0.9858
  307MOL0     H41425   5.745   4.972  10.298 -1.3133  2.1016  0.0698
  307MOL0     H41426   5.968   4.859  10.203 -1.9880 -0.5036  0.0572
  307MOL0     H41427   6.474   4.949  10.282  2.4217  0.6606  0.1582
  307MOL0     H41428   6.708   4.868  10.217  1.9711 -3.6084 -1.4815
  307MOL0     H41429   6.985   3.282  10.088  1.7814 -0.6972  1.3510
  307MOL0     H41430   6.783   3.184  10.171  2.0566 -0.7795  0.9452
  307MOL0     H41431   6.440   3.096  10.413 -0.3701  0.1548 -1.5936
  307MOL0     H41432   6.247   3.029  10.522  0.1544 -0.9550 -0.7604
  307MOL0     H41433   5.960   3.065  10.370  0.2994 -1.2249  1.1683
  307MOL0     H41434   5.886   3.224  10.405  0.1371  0.0733  0.5235
  307MOL0     H41435   5.822   2.983  10.584  2.7341  0.1490 -0.0233
  307MOL0     H41436   5.769   2.996  10.419 -0.9093  0.2749  1.0620
  307MOL0     H41437   5.591   3.105  10.574 -0.0238 -2.5852 -2.9957
  307MOL0     H41438   5.667   3.210  10.447 -2.1360 -1.6227 -1.9240
  307MOL0     H41439   5.738   3.213  10.743  1.3037  2.9206  1.3970
  307MOL0     H41440   5.793   3.332  10.615 -0.2677 -1.3837 -3.4134
  307MOL0     H41441   5.413   3.474  10.700  0.6363 -0.1832 -3.5734
  307MOL0     H41442   6.058   3.399  10.424 -0.9020  0.5636  2.3939
  307MOL0     H41443   6.160   3.575  10.339  0.6169  2.6503  0.9038
  307MOL0     H41444   6.324   3.596  10.393 -1.4898  2.2177 -0.1298
  307MOL0     H41445   6.308   3.540  10.233 -0.9188  0.7702  0.2914
  308MOL0     O41446   8.535   6.997   5.631 -1.1614  0.1172  0.7147
  308MOL0     C41447   8.442   6.980   5.711  0.7843  0.3157 -0.5051
  308MOL0     O41448   8.457   6.943   5.845 -0.2126 -0.2254  0.4660
  308MOL0     C41449   8.593   6.932   5.890 -0.2299 -0.0887 -0.6708
  308MOL0     C41450   8.681   7.040   5.872 -0.6868  0.1341 -0.9961
  308MOL0     C41451   8.810   7.037   5.921 -0.7966  1.0573  0.2445
  308MOL0     C41452   8.855   6.919   5.986 -0.0015 -0.3396 -0.5321
  308MOL0     O41453   8.979   6.906   6.055 -0.1749 -0.2220  0.7055
  308MOL0     C41454   9.085   7.007   6.029 -1.5782  0.2419 -0.6744
  308MOL0     C41455   9.210   6.991   6.122  0.2158 -0.6342 -0.5402
  308MOL0     C41456   9.316   7.091   6.071 -0.2063 -0.6824 -0.2281
  308MOL0     C41457   9.412   7.116   6.188 -0.4293 -0.1861  0.0232
  308MOL0     C41458   9.527   7.216   6.141  0.5114 -0.1800 -0.5245
  308MOL0     C41459   9.614   7.230   6.266 -0.0378  0.4300  0.0427
  308MOL0     C41460   9.691   7.364   6.258 -0.5816 -0.0521  0.0285
  308MOL0     C41461   9.829   7.350   6.337  1.0811 -0.2442  0.4006
  308MOL0     N41462   9.896   7.484   6.333 -0.7638 -0.3004  0.1204
  308MOL0     C41463   9.966   7.534   6.221  0.2235 -0.1696 -0.6843
  308MOL0     C41464  10.003   7.659   6.259 -0.1899 -0.8320  0.0636
  308MOL0     C41465  10.097   7.759   6.190  0.2462  0.6866 -0.1711
  308MOL0     C41466  10.007   7.865   6.125  0.0942  0.5043 -0.7170
  308MOL0     C41467  10.063   8.015   6.118 -0.1043 -0.8460 -0.1440
  308MOL0     C41468  10.212   8.020   6.121 -0.4230  0.1202 -0.8612
  308MOL0     O41469  10.262   8.147   6.073 -0.4997  0.1787 -0.0122
  308MOL0     C41470  10.396   8.155   6.031  0.1926  0.6897 -1.1144
  308MOL0     C41471  10.433   8.286   6.001  0.4447  0.0194  0.4166
  308MOL0     C41472  10.559   8.318   5.951 -0.7495 -0.0088 -0.6294
  308MOL0     C41473  10.659   8.222   5.938  0.0060  0.0086 -0.7423
  308MOL0     C41474  10.787   8.253   5.876 -0.0754  0.5145  0.4321
  308MOL0     O41475  10.869   8.152   5.839 -0.2199 -0.6480 -0.5561
  308MOL0     C41476  11.001   8.183   5.801  0.7689  0.7141 -0.9903
  308MOL0     C41477  11.110   8.121   5.860 -0.3394  0.2148  0.6407
  308MOL0     C41478  11.238   8.158   5.825 -0.4516 -0.4144  0.0988
  308MOL0     C41479  11.265   8.243   5.716  0.4643 -0.2234 -0.6809
  308MOL0     O41480  11.390   8.287   5.690 -0.5029 -0.5102 -0.3699
  308MOL0     C41481  11.504   8.254   5.776 -0.1323 -0.3523  0.8803
  308MOL0     C41482  11.614   8.350   5.754 -0.1743 -1.3318  0.1300
  308MOL0     C41483  11.741   8.324   5.834 -0.1980 -0.3492  0.1086
  308MOL0     C41484  11.872   8.391   5.776  0.4655  0.6826  0.5077
  308MOL0     C41485  11.875   8.533   5.830  0.6687 -0.8825  0.1443
  308MOL0     C41486  11.973   8.619   5.744  0.8433 -0.8224 -0.1672
  308MOL0     C41487  11.972   8.774   5.772  0.3683  0.5226 -0.6605
  308MOL0     C41488  11.975   8.807   5.924 -0.6210 -0.2463  0.6321
  308MOL0    Cl41489  11.975   8.987   5.934 -0.3871  0.2000 -0.6710
  308MOL0     C41490  11.154   8.292   5.646 -0.1647 -0.3054 -1.2269
  308MOL0     C41491  11.029   8.259   5.690  0.4345 -0.4110 -0.0884
  308MOL0     O41492  10.821   8.370   5.880  0.1915  0.3757  0.5892
  308MOL0     C41493  10.631   8.094   5.984  0.0068 -0.5776 -0.0665
  308MOL0     C41494  10.495   8.060   6.024 -0.4750  0.3506  0.2082
  308MOL0     N41495   9.952   7.681   6.390  0.1494 -0.8060  0.5107
  308MOL0     N41496   9.891   7.576   6.430 -0.2625  0.4866 -0.1970
  308MOL0     C41497   8.771   6.814   5.999 -0.3887 -0.1426 -0.3740
  308MOL0     C41498   8.638   6.814   5.954 -0.1326 -0.5881  0.4953
  308MOL0     C41499   8.309   7.025   5.657 -0.0138  0.0162  0.0580
  308MOL0     C41500   8.314   7.119   5.559 -0.7833 -1.0545  0.2487
  308MOL0     C41501   8.194   7.178   5.509  0.1165  0.2712  0.1820
  308MOL0     C41502   8.071   7.131   5.554  0.0025  0.0867  0.7920
  308MOL0     O41503   7.956   7.189   5.490  0.0912  0.2234 -0.1215
  308MOL0     C41504   7.828   7.123   5.499 -0.4500  0.2596  0.3147
  308MOL0     C41505   7.739   7.155   5.616 -0.1008  0.3431  0.1787
  308MOL0     C41506   7.612   7.078   5.618 -0.4184 -1.0411 -0.0330
  308MOL0     C41507   7.613   6.945   5.678 -0.0200 -0.0587  0.2796
  308MOL0     C41508   7.519   6.935   5.790  0.0566 -0.0810  0.2463
  308MOL0     C41509   7.434   6.933   5.874  0.6627 -0.9846  0.4288
  308MOL0     C41510   8.068   7.037   5.656  1.3162  0.2339 -0.1056
  308MOL0     C41511   8.181   6.977   5.705  0.1706  0.3734  0.1562
  308MOL0     C41512   8.172   6.868   5.805 -0.2244 -0.1132 -0.2240
  308MOL0     H41513   8.639   7.129   5.826  0.8517  1.6168  0.3126
  308MOL0     H41514   8.877   7.122   5.909 -3.2846  2.8097 -2.6429
  308MOL0     H41515   9.125   7.005   5.927 -0.0552  1.3478 -0.1371
  308MOL0     H41516   9.048   7.109   6.039  0.1607  1.1551 -2.8284
  308MOL0     H41517   9.246   6.890   6.104 -1.7229 -1.1766 -1.5456
  308MOL0     H41518   9.185   7.005   6.228  0.8169 -0.2857 -0.4392
  308MOL0     H41519   9.275   7.187   6.036  3.0643 -0.4373 -4.0656
  308MOL0     H41520   9.376   7.045   5.993  2.1706  2.4355 -0.4090
  308MOL0     H41521   9.355   7.158   6.272  1.0145  0.1303  0.8765
  308MOL0     H41522   9.467   7.028   6.224  0.2079  1.3629  3.1542
  308MOL0     H41523   9.579   7.172   6.056  0.4947 -1.1057 -0.0741
  308MOL0     H41524   9.488   7.313   6.111 -0.9234 -0.6694 -0.3615
  308MOL0     H41525   9.552   7.219   6.356  0.8149 -2.8472  0.3385
  308MOL0     H41526   9.686   7.149   6.281 -0.3821  0.6205  3.5797
  308MOL0     H41527   9.631   7.440   6.309  1.3396  2.8086 -1.7153
  308MOL0     H41528   9.721   7.394   6.157  2.8352 -3.9521 -0.3580
  308MOL0     H41529   9.819   7.311   6.438  0.1720  0.9036  0.7803
  308MOL0     H41530   9.893   7.284   6.278  0.0553 -2.7128  1.9223
  308MOL0     H41531   9.996   7.482   6.130 -0.7508 -0.7750 -0.6686
  308MOL0     H41532  10.156   7.811   6.266  0.6550 -0.3279  0.2166
  308MOL0     H41533  10.168   7.703   6.129  0.1013 -0.7892  0.9710
  308MOL0     H41534   9.997   7.830   6.021  2.5488 -0.0622 -0.8180
  308MOL0     H41535   9.909   7.866   6.173 -0.4487  0.0897 -1.7756
  308MOL0     H41536  10.027   8.071   6.204 -0.4801 -0.5053 -0.5160
  308MOL0     H41537  10.021   8.060   6.027 -1.4346  0.8608  1.2416
  308MOL0     H41538  10.255   7.943   6.056  0.1266  0.5269 -0.9823
  308MOL0     H41539  10.247   7.997   6.222 -0.3090  2.6216 -0.2761
  308MOL0     H41540  10.361   8.367   6.012  0.2682 -0.0419 -0.2398
  308MOL0     H41541  10.570   8.415   5.905  1.0428 -0.6007 -1.5531
  308MOL0     H41542  11.109   8.049   5.942  1.2865 -1.3021 -0.5790
  308MOL0     H41543  11.311   8.099   5.879  0.4014 -1.4103 -2.0253
  308MOL0     H41544  11.463   8.257   5.877 -1.6072  1.5174  0.2841
  308MOL0     H41545  11.534   8.156   5.738  1.8080  0.0139  1.3853
  308MOL0     H41546  11.645   8.347   5.649  0.7244  2.0412  0.1706
  308MOL0     H41547  11.572   8.447   5.782  1.4174 -1.4235  3.3340
  308MOL0     H41548  11.735   8.351   5.940  2.5782  3.3581 -0.4639
  308MOL0     H41549  11.758   8.216   5.831 -3.7536 -0.9991 -2.0527
  308MOL0     H41550  11.871   8.396   5.667 -1.7680 -2.2653  0.2598
  308MOL0     H41551  11.953   8.324   5.806 -0.7279 -1.9312 -1.6487
  308MOL0     H41552  11.901   8.532   5.936 -0.8054  0.8396  0.5654
  308MOL0     H41553  11.776   8.579   5.818  0.5316 -1.0665  0.5792
  308MOL0     H41554  12.078   8.589   5.736  1.2080  0.4328 -0.3745
  308MOL0     H41555  11.928   8.610   5.645 -2.7517 -1.1863  1.3633
  308MOL0     H41556  11.875   8.814   5.741  0.6329  1.8704  0.1540
  308MOL0     H41557  12.058   8.818   5.721  1.7183 -0.2813  0.8324
  308MOL0     H41558  11.891   8.762   5.979 -0.1543  2.9411  4.3027
  308MOL0     H41559  12.069   8.764   5.958 -1.6313 -1.7961  1.6072
  308MOL0     H41560  11.180   8.365   5.570  0.4361  1.0152  0.2100
  308MOL0     H41561  10.941   8.303   5.644 -0.2856 -1.9599 -0.2657
  308MOL0     H41562  10.700   8.010   5.991 -0.2344 -0.7395  0.4005
  308MOL0     H41563  10.468   7.960   6.055 -1.7941 -0.3963 -2.9138
  308MOL0     H41564   8.811   6.727   6.051 -0.8409 -0.4004 -0.4502
  308MOL0     H41565   8.566   6.739   5.986 -2.3314  1.3949  0.4505
  308MOL0     H41566   8.409   7.150   5.516 -2.1226  3.2651 -0.0933
  308MOL0     H41567   8.209   7.244   5.424 -0.3664 -2.4069 -2.1279
  308MOL0     H41568   7.849   7.016   5.494  0.4669  0.4737 -0.9542
  308MOL0     H41569   7.762   7.140   5.414 -0.7050  0.5926  0.5776
  308MOL0     H41570   7.717   7.262   5.619  0.2188  0.6050 -2.9490
  308MOL0     H41571   7.798   7.136   5.706 -0.0625 -1.2149 -0.1398
  308MOL0     H41572   7.577   7.071   5.514  2.8961 -0.7711 -1.2796
  308MOL0     H41573   7.547   7.148   5.672  1.0512  0.4822 -0.1298
  308MOL0     H41574   7.578   6.878   5.600  0.8714 -1.4089  0.9962
  308MOL0     H41575   7.713   6.913   5.708  0.2174 -0.1061 -0.5439
  308MOL0     H41576   7.363   6.945   5.953 -0.4010 -3.0818 -0.1115
  308MOL0     H41577   7.970   7.004   5.691 -0.0443  2.6727 -1.3595
  308MOL0     H41578   8.181   6.918   5.901  0.9183  0.6979 -0.7301
  308MOL0     H41579   8.083   6.805   5.801 -0.4203  0.2204 -1.9830
  308MOL0     H41580   8.260   6.803   5.797  0.4621  0.6005  1.2642
  309MOL0     O41581   6.561   0.001   1.290  0.2637 -0.1833  0.2090
  309MOL0     C41582   6.553  -0.029   1.413  0.2474  0.6827  0.6197
  309MOL0     O41583   6.644  -0.006   1.511 -0.4802 -0.3120  0.0368
  309MOL0     C41584   6.772   0.025   1.469  0.7613 -0.0239  0.2906
  309MOL0     C41585   6.864  -0.061   1.403 -0.4261 -0.4462 -0.7139
  309MOL0     C41586   6.988  -0.023   1.356  0.0177  0.3158  0.6381
  309MOL0     C41587   7.027   0.111   1.382 -0.4472  0.2903 -0.1473
  309MOL0     O41588   7.147   0.164   1.337 -0.2206  0.1339  1.2351
  309MOL0     C41589   7.224   0.094   1.236  0.0729 -0.1864 -0.2497
  309MOL0     C41590   7.340   0.190   1.190 -0.2544  0.0791 -0.1911
  309MOL0     C41591   7.393   0.128   1.064 -0.6267  0.4104 -0.2221
  309MOL0     C41592   7.530   0.179   1.042  0.8267 -0.0340  0.0510
  309MOL0     C41593   7.639   0.127   1.137  0.0037  0.7798 -0.3085
  309MOL0     C41594   7.782   0.184   1.093  0.2447 -0.4455 -0.5429
  309MOL0     C41595   7.844   0.140   0.960 -0.0853 -0.7416 -0.1263
  309MOL0     C41596   7.927   0.246   0.893 -0.7582 -0.2258  0.8771
  309MOL0     N41597   8.019   0.304   0.985 -0.0282  0.8196 -0.3002
  309MOL0     C41598   8.125   0.241   1.048  0.7901 -0.6961 -0.0192
  309MOL0     C41599   8.175   0.326   1.139 -0.0733  0.2778  0.2362
  309MOL0     C41600   8.289   0.310   1.226 -0.4088  0.0647  0.3620
  309MOL0     C41601   8.363   0.177   1.226  0.5922  0.6853 -0.2347
  309MOL0     C41602   8.508   0.180   1.285 -0.1922 -0.3624 -0.7424
  309MOL0     C41603   8.572   0.043   1.299  0.2073  0.1595  0.2322
  309MOL0     O41604   8.682   0.042   1.387 -0.0318 -0.5670  0.4960
  309MOL0     C41605   8.759  -0.073   1.397  0.1031 -0.0792  1.6779
  309MOL0     C41606   8.888  -0.052   1.423 -0.7775 -0.1634  0.1872
  309MOL0     C41607   8.982  -0.146   1.427  0.1603  0.1305 -0.1987
  309MOL0     C41608   8.948  -0.281   1.418  0.0056 -0.6903 -0.2896
  309MOL0     C41609   9.042  -0.395   1.418 -0.2617  0.2237  0.1235
  309MOL0     O41610   9.008  -0.512   1.462 -0.0474 -0.1640 -0.1568
  309MOL0     C41611   9.084  -0.631   1.449  0.3785  0.1876 -0.4088
  309MOL0     C41612   9.217  -0.638   1.479  0.1171 -0.0975 -0.2273
  309MOL0     C41613   9.285  -0.760   1.491  0.3181  0.0866 -0.6639
  309MOL0     C41614   9.211  -0.882   1.468  0.4503  0.1087  0.0417
  309MOL0     O41615   9.278  -1.004   1.477  0.6086  0.2631  0.2562
  309MOL0     C41616   9.340  -1.025   1.601 -0.1196 -0.3141 -0.6711
  309MOL0     C41617   9.373  -1.173   1.613 -0.2806 -0.0013  0.0574
  309MOL0     C41618   9.479  -1.195   1.725 -0.1189 -0.1197 -0.5320
  309MOL0     C41619   9.618  -1.141   1.683 -0.3762  0.1876  0.1077
  309MOL0     C41620   9.732  -1.231   1.719 -0.1672  0.7692  1.1706
  309MOL0     C41621   9.754  -1.241   1.860 -1.0788 -0.0927  0.2669
  309MOL0     C41622   9.867  -1.343   1.891 -0.0892 -0.3464  0.2054
  309MOL0     C41623   9.870  -1.358   2.048  1.2028 -0.5344 -0.2736
  309MOL0    Cl41624  10.027  -1.437   2.099  0.7302 -0.0872  0.4872
  309MOL0     C41625   9.079  -0.868   1.427  0.1216 -0.0006  1.1378
  309MOL0     C41626   9.014  -0.749   1.428 -0.1572  0.7762  2.3430
  309MOL0     O41627   9.149  -0.374   1.367 -0.7804 -0.0850 -0.1518
  309MOL0     C41628   8.806  -0.314   1.408 -0.5437 -0.2877  0.6252
  309MOL0     C41629   8.712  -0.206   1.404 -0.0024 -0.4724  1.5640
  309MOL0     N41630   8.093   0.436   1.143 -0.4615  0.0866 -0.1387
  309MOL0     N41631   7.998   0.418   1.060  0.2418  0.3657  0.4982
  309MOL0     C41632   6.948   0.196   1.465 -0.2328 -0.2081 -0.0762
  309MOL0     C41633   6.819   0.156   1.493 -0.6525  0.1652  0.5952
  309MOL0     C41634   6.414  -0.072   1.455 -0.4719 -0.7893 -0.9013
  309MOL0     C41635   6.317  -0.071   1.355  0.0154 -1.5061  0.0022
  309MOL0     C41636   6.183  -0.101   1.383  0.1354  0.2679  0.0339
  309MOL0     C41637   6.145  -0.132   1.512 -0.7651 -0.4320 -0.5157
  309MOL0     O41638   6.014  -0.164   1.539  0.3794 -0.0148 -0.4697
  309MOL0     C41639   5.916  -0.175   1.429  0.5421  0.6566  0.4276
  309MOL0     C41640   5.762  -0.187   1.462 -0.4891  0.1141 -0.2728
  309MOL0     C41641   5.697  -0.319   1.415 -0.4264  0.3772 -0.2201
  309MOL0     C41642   5.548  -0.300   1.407  0.4760 -0.2015 -0.3453
  309MOL0     C41643   5.480  -0.239   1.522  0.8808 -0.5290  0.0133
  309MOL0     C41644   5.420  -0.184   1.616  0.7114 -0.1261  0.3789
  309MOL0     C41645   6.241  -0.145   1.610 -0.2689  1.0347  0.5176
  309MOL0     C41646   6.383  -0.121   1.587 -0.6264  0.1326 -0.3362
  309MOL0     C41647   6.491  -0.161   1.681 -0.0970 -0.1632 -0.2525
  309MOL0     H41648   6.836  -0.163   1.380 -1.9344 -0.1960 -0.0988
  309MOL0     H41649   7.057  -0.092   1.309 -0.4320 -0.2221  0.7489
  309MOL0     H41650   7.259  -0.003   1.273 -2.4366 -1.0716 -0.0013
  309MOL0     H41651   7.161   0.082   1.147  0.6545 -0.9976 -0.5644
  309MOL0     H41652   7.411   0.192   1.273 -0.4102 -1.2176 -0.0068
  309MOL0     H41653   7.297   0.290   1.180 -2.6707 -0.8455  0.1832
  309MOL0     H41654   7.330   0.137   0.975  1.7792 -1.3381 -2.2612
  309MOL0     H41655   7.399   0.020   1.074 -2.8776  0.0868 -1.6395
  309MOL0     H41656   7.548   0.164   0.935 -0.9803  3.1198 -0.8528
  309MOL0     H41657   7.522   0.288   1.052  0.7226 -0.1111  0.8359
  309MOL0     H41658   7.615   0.157   1.239 -0.0337 -2.5813  0.7862
  309MOL0     H41659   7.654   0.019   1.131  1.2486  0.7089  2.5274
  309MOL0     H41660   7.770   0.291   1.075 -2.0593 -0.4456  0.5740
  309MOL0     H41661   7.847   0.166   1.179 -0.8923 -0.5295  0.3353
  309MOL0     H41662   7.768   0.103   0.891 -1.1981  0.4139  0.4441
  309MOL0     H41663   7.914   0.058   0.977 -2.3628 -3.0611 -1.2774
  309MOL0     H41664   7.985   0.194   0.816  0.2726  0.9974  0.7892
  309MOL0     H41665   7.865   0.323   0.847 -2.2141 -2.3327 -0.8522
  309MOL0     H41666   8.163   0.144   1.019  2.2097 -0.0077 -0.4906
  309MOL0     H41667   8.356   0.387   1.185 -0.6169  0.7476  1.2810
  309MOL0     H41668   8.269   0.334   1.331 -0.6687 -0.6520  0.4795
  309MOL0     H41669   8.298   0.109   1.282  0.7674  0.2170 -0.5929
  309MOL0     H41670   8.364   0.142   1.122 -3.0572  0.5327 -0.3602
  309MOL0     H41671   8.498   0.230   1.382 -2.8778  0.9579 -1.5902
  309MOL0     H41672   8.575   0.242   1.225  0.5136 -0.3081  0.0770
  309MOL0     H41673   8.606   0.005   1.203 -0.1567  2.4722 -0.8814
  309MOL0     H41674   8.507  -0.022   1.358  0.2452  0.2583  0.3845
  309MOL0     H41675   8.924   0.050   1.438  0.5915 -0.8683  2.1034
  309MOL0     H41676   9.083  -0.112   1.448  0.0903  1.2021 -1.4968
  309MOL0     H41677   9.260  -0.539   1.488  2.4359 -0.6506 -3.5382
  309MOL0     H41678   9.390  -0.756   1.516  0.8186 -3.7492 -1.4839
  309MOL0     H41679   9.427  -0.959   1.599 -0.4548  0.1452 -3.2786
  309MOL0     H41680   9.282  -0.995   1.689  2.4547 -0.6295  1.2442
  309MOL0     H41681   9.285  -1.236   1.630  0.2633 -0.7959 -0.0102
  309MOL0     H41682   9.424  -1.209   1.522  3.8591 -2.7318  3.0701
  309MOL0     H41683   9.444  -1.132   1.807 -1.4463  0.7931 -1.7390
  309MOL0     H41684   9.489  -1.302   1.744  0.6759 -0.3304 -1.9830
  309MOL0     H41685   9.637  -1.040   1.721  1.1201  0.4047 -1.1411
  309MOL0     H41686   9.612  -1.124   1.575  0.5965  4.1071  0.5270
  309MOL0     H41687   9.828  -1.204   1.675  0.1423  1.1169  2.0322
  309MOL0     H41688   9.709  -1.334   1.692 -1.8037  1.4582 -0.2270
  309MOL0     H41689   9.783  -1.139   1.886 -1.5683  0.7882 -2.4147
  309MOL0     H41690   9.668  -1.266   1.923  0.1173  1.7066  2.7931
  309MOL0     H41691   9.969  -1.323   1.857  0.2590  0.4924  1.6661
  309MOL0     H41692   9.837  -1.443   1.857  1.3927 -1.0682  0.8944
  309MOL0     H41693   9.870  -1.259   2.093 -1.7362  0.8717 -2.9782
  309MOL0     H41694   9.785  -1.415   2.088 -3.5321  4.7464 -1.5652
  309MOL0     H41695   9.014  -0.954   1.413 -0.0514  0.3647 -0.5737
  309MOL0     H41696   8.911  -0.732   1.396  0.3861 -1.2419 -0.9115
  309MOL0     H41697   8.781  -0.419   1.403  3.9149 -1.5476  0.6395
  309MOL0     H41698   8.606  -0.220   1.385 -0.0336  3.4931 -3.6581
  309MOL0     H41699   6.994   0.291   1.490  3.9183 -2.1542  0.6309
  309MOL0     H41700   6.761   0.228   1.550 -2.5906  1.1851 -2.4697
  309MOL0     H41701   6.341  -0.036   1.255 -1.1163  0.2295  0.3033
  309MOL0     H41702   6.121  -0.094   1.294 -0.4656 -2.0027  0.2113
  309MOL0     H41703   5.941  -0.260   1.364  1.3383  1.0021  0.2656
  309MOL0     H41704   5.913  -0.090   1.360  0.2594 -1.7268 -2.7054
  309MOL0     H41705   5.704  -0.107   1.415  0.8803 -0.2430 -2.7199
  309MOL0     H41706   5.763  -0.189   1.572  2.2458 -1.4984 -0.2392
  309MOL0     H41707   5.722  -0.395   1.489  2.8072  0.8165 -0.6993
  309MOL0     H41708   5.729  -0.351   1.315  2.5819  0.2041  0.6971
  309MOL0     H41709   5.536  -0.233   1.321  0.6165  0.5389  0.2035
  309MOL0     H41710   5.491  -0.390   1.383  0.7846  0.0340 -2.1751
  309MOL0     H41711   5.352  -0.142   1.687 -0.2250 -0.2653 -0.4142
  309MOL0     H41712   6.218  -0.174   1.712  0.1875  2.2749  1.0037
  309MOL0     H41713   6.584  -0.195   1.635  0.0136 -0.2951  0.0661
  309MOL0     H41714   6.526  -0.076   1.741 -2.2169  1.5570 -1.3172
  309MOL0     H41715   6.452  -0.247   1.737  0.4347 -1.5676 -1.9381
  310MOL0     O41716   9.354  11.301   3.653  1.0256 -0.1899  0.5816
  310MOL0     C41717   9.388  11.203   3.718 -0.1426  0.2004 -0.5533
  310MOL0     O41718   9.310  11.091   3.718 -0.1902  0.3299 -0.4007
  310MOL0     C41719   9.193  11.093   3.648  0.2069 -0.0328  0.1983
  310MOL0     C41720   9.080  11.164   3.674 -1.2291 -0.8446 -0.1487
  310MOL0     C41721   8.958  11.153   3.606 -0.2511 -0.8055 -0.0695
  310MOL0     C41722   8.960  11.076   3.489  0.8107  0.1328 -0.3574
  310MOL0     O41723   8.833  11.068   3.429  0.1517  0.0706  0.3599
  310MOL0     C41724   8.814  10.988   3.311  0.5513  0.0803 -0.7431
  310MOL0     C41725   8.671  11.016   3.258 -0.6271 -1.6642 -0.8571
  310MOL0     C41726   8.637  10.943   3.130  1.4160 -0.2537 -0.3365
  310MOL0     C41727   8.489  10.953   3.109 -0.4842 -0.0908  1.0013
  310MOL0     C41728   8.468  10.959   2.960 -0.2875 -0.4675 -0.3141
  310MOL0     C41729   8.332  10.976   2.909  0.2148  0.1605 -0.3540
  310MOL0     C41730   8.332  10.978   2.757  0.6574 -0.2268  0.4213
  310MOL0     C41731   8.352  11.113   2.703 -0.4518 -0.3399 -0.0866
  310MOL0     N41732   8.489  11.164   2.713 -0.3379  0.9945 -0.0107
  310MOL0     C41733   8.530  11.286   2.767  0.7078  0.6618 -0.0693
  310MOL0     C41734   8.662  11.294   2.759  0.6208 -0.4602 -0.2409
  310MOL0     C41735   8.746  11.404   2.807 -0.3605  0.5667 -0.3215
  310MOL0     C41736   8.862  11.365   2.899  1.1366  0.5592  0.1887
  310MOL0     C41737   8.804  11.312   3.032 -0.3395  0.0663 -0.0983
  310MOL0     C41738   8.915  11.281   3.136  0.0888 -0.2452  0.3960
  310MOL0     O41739   8.998  11.180   3.075 -0.1515 -0.0493  0.1760
  310MOL0     C41740   9.132  11.180   3.104 -0.4323 -0.4813  0.8638
  310MOL0     C41741   9.211  11.129   3.003 -0.2285 -0.2787 -1.2900
  310MOL0     C41742   9.357  11.125   3.029 -0.2048  0.2329  0.2532
  310MOL0     C41743   9.416  11.181   3.143 -0.0057  0.2412  0.5497
  310MOL0     C41744   9.556  11.182   3.176  0.0015 -0.3242  0.4491
  310MOL0     O41745   9.596  11.232   3.300 -0.2993  0.4724  0.1862
  310MOL0     C41746   9.733  11.251   3.330  0.5747 -0.7110 -0.7555
  310MOL0     C41747   9.775  11.239   3.468  0.9918 -0.5648 -0.2814
  310MOL0     C41748   9.900  11.284   3.504  0.5928 -0.0096 -0.6082
  310MOL0     C41749   9.999  11.305   3.410 -0.1024 -0.6290  0.1000
  310MOL0     O41750  10.132  11.329   3.435  0.8202  0.1925  0.1568
  310MOL0     C41751  10.175  11.308   3.572 -0.1311 -0.6094 -0.4677
  310MOL0     C41752  10.161  11.446   3.638  0.2393  0.2489  0.5500
  310MOL0     C41753  10.213  11.455   3.780  0.2991  0.6122 -0.0631
  310MOL0     C41754  10.359  11.406   3.799  0.7093 -0.7707  0.7704
  310MOL0     C41755  10.419  11.434   3.932 -0.2687 -0.4846  0.8217
  310MOL0     C41756  10.559  11.368   3.962 -0.2585 -0.0593 -0.4872
  310MOL0     C41757  10.613  11.387   4.101 -0.0730 -0.4066  0.5147
  310MOL0     C41758  10.675  11.526   4.114 -0.3403 -0.1879  0.0981
  310MOL0    Cl41759  10.829  11.513   4.034 -0.4861 -0.2119  0.5185
  310MOL0     C41760   9.965  11.314   3.277 -0.0996  0.3704  0.2759
  310MOL0     C41761   9.830  11.287   3.232  0.3683 -0.1872  0.1541
  310MOL0     O41762   9.630  11.143   3.078 -0.8249 -0.1855  0.6798
  310MOL0     C41763   9.328  11.220   3.243  1.1924  0.0736  0.7513
  310MOL0     C41764   9.188  11.220   3.217  0.1056 -0.1462 -0.0325
  310MOL0     N41765   8.709  11.172   2.717 -0.6771 -0.2263 -0.2309
  310MOL0     N41766   8.607  11.097   2.675 -0.0633 -0.2757 -0.4575
  310MOL0     C41767   9.072  11.001   3.446 -0.5806  0.0716 -0.3423
  310MOL0     C41768   9.185  11.014   3.527  0.1309 -0.3846  0.1266
  310MOL0     C41769   9.524  11.191   3.786 -0.6236  0.5144 -0.0126
  310MOL0     C41770   9.565  11.075   3.851 -0.6481 -0.0514 -0.9724
  310MOL0     C41771   9.687  11.050   3.912  0.0833  0.9569 -0.1739
  310MOL0     C41772   9.791  11.134   3.909 -0.7461 -0.3536 -0.2475
  310MOL0     O41773   9.904  11.105   3.981 -0.1580  0.4362 -0.8294
  310MOL0     C41774  10.011  11.198   3.978 -0.3560 -0.1887  0.2116
  310MOL0     C41775  10.142  11.167   4.050 -0.5840 -0.2781 -0.5570
  310MOL0     C41776  10.232  11.078   3.969 -0.4979  0.3686  0.4893
  310MOL0     C41777  10.196  10.926   3.963  0.1307  0.2377 -0.6040
  310MOL0     C41778  10.162  10.873   4.094 -0.0711 -0.2381 -0.1533
  310MOL0     C41779  10.136  10.816   4.200  0.2437 -0.3228  0.0360
  310MOL0     C41780   9.756  11.259   3.847 -0.0797 -1.2718  0.1063
  310MOL0     C41781   9.628  11.285   3.785  0.0203 -0.6882 -0.3725
  310MOL0     C41782   9.599  11.431   3.738  0.2562  0.0283  0.1224
  310MOL0     H41783   9.089  11.239   3.752  2.3788 -0.4460 -0.7898
  310MOL0     H41784   8.866  11.206   3.630 -0.7693 -2.0797  0.9346
  310MOL0     H41785   8.883  11.004   3.228 -0.9203 -2.9564 -2.7251
  310MOL0     H41786   8.823  10.881   3.334  2.9194  0.5520  1.0131
  310MOL0     H41787   8.666  11.125   3.251  0.7860 -1.5556 -0.5179
  310MOL0     H41788   8.601  10.985   3.337 -0.8987  3.2970  1.1654
  310MOL0     H41789   8.663  10.837   3.141  1.5410 -0.5865 -3.1969
  310MOL0     H41790   8.691  10.987   3.046  0.6843  0.4653 -0.4358
  310MOL0     H41791   8.440  10.873   3.166 -0.9274  0.0730  0.8563
  310MOL0     H41792   8.443  11.039   3.160 -1.7011  0.4480 -0.8974
  310MOL0     H41793   8.542  11.028   2.917  2.1115 -0.6618  3.1519
  310MOL0     H41794   8.507  10.864   2.922  0.5226  1.2516 -4.2932
  310MOL0     H41795   8.278  10.885   2.938 -1.4996  1.4579  0.7522
  310MOL0     H41796   8.281  11.055   2.966  2.8920  1.9588 -0.2258
  310MOL0     H41797   8.236  10.946   2.715 -0.7410  0.8981  2.5404
  310MOL0     H41798   8.414  10.920   2.714  2.3020 -0.2438  3.3457
  310MOL0     H41799   8.336  11.105   2.595  3.4286 -1.9693 -0.6887
  310MOL0     H41800   8.285  11.188   2.747 -1.3673 -0.9546 -0.4102
  310MOL0     H41801   8.453  11.354   2.803 -1.1750 -0.2893 -2.0422
  310MOL0     H41802   8.788  11.444   2.714 -1.4469 -1.8338 -1.9538
  310MOL0     H41803   8.704  11.486   2.866  2.3296  0.1507  2.4022
  310MOL0     H41804   8.927  11.293   2.848  1.4335  1.8673 -1.3616
  310MOL0     H41805   8.921  11.454   2.923  3.6172 -1.6934  3.3799
  310MOL0     H41806   8.742  11.223   3.028  1.1372 -1.0453  0.6728
  310MOL0     H41807   8.737  11.387   3.076  0.9071  0.4184  1.3116
  310MOL0     H41808   8.879  11.243   3.232  1.9559  0.9346  1.6193
  310MOL0     H41809   8.979  11.369   3.144 -0.3099  0.0734  0.1302
  310MOL0     H41810   9.172  11.078   2.915 -0.4549 -0.0004 -1.3522
  310MOL0     H41811   9.418  11.101   2.942 -2.8812  0.0818 -1.6944
  310MOL0     H41812   9.697  11.207   3.536 -0.7040  2.8625 -0.4137
  310MOL0     H41813   9.921  11.288   3.611  0.7199 -0.1107 -0.6288
  310MOL0     H41814  10.120  11.229   3.624  1.3920 -1.4523 -0.0553
  310MOL0     H41815  10.280  11.277   3.575  0.5811  1.5812 -0.8005
  310MOL0     H41816  10.223  11.513   3.578 -0.3587  2.0508  1.8553
  310MOL0     H41817  10.058  11.476   3.620  0.4648 -0.5622 -2.8174
  310MOL0     H41818  10.208  11.562   3.802  0.5913  0.6860 -0.3510
  310MOL0     H41819  10.137  11.413   3.847  3.1198 -0.3008  2.8116
  310MOL0     H41820  10.419  11.455   3.721 -0.8181 -2.3331 -1.5097
  310MOL0     H41821  10.342  11.301   3.777 -0.2697 -0.5603  0.4890
  310MOL0     H41822  10.344  11.411   4.008 -0.3993 -1.2812  0.4629
  310MOL0     H41823  10.437  11.542   3.939  1.9199 -0.8829  2.2545
  310MOL0     H41824  10.553  11.262   3.940  2.4504 -0.7132  1.4450
  310MOL0     H41825  10.643  11.397   3.898  0.9961  0.4510  1.3130
  310MOL0     H41826  10.690  11.312   4.122  0.2563  0.0047  0.7918
  310MOL0     H41827  10.536  11.378   4.179 -0.5322 -2.6787 -0.1401
  310MOL0     H41828  10.612  11.593   4.055 -1.2807 -1.4949 -0.4296
  310MOL0     H41829  10.690  11.548   4.220  0.9554 -1.0723  0.1226
  310MOL0     H41830  10.046  11.336   3.208  1.6584  0.2031  2.1971
  310MOL0     H41831   9.806  11.295   3.126  2.1388 -0.7228 -0.3195
  310MOL0     H41832   9.354  11.252   3.343 -1.3240  0.8514  1.2098
  310MOL0     H41833   9.130  11.264   3.297 -0.9703 -1.6387  0.0461
  310MOL0     H41834   9.078  10.944   3.354 -2.8945  1.9443 -1.7778
  310MOL0     H41835   9.275  10.957   3.506  0.1049 -0.0243 -1.0201
  310MOL0     H41836   9.492  10.997   3.869  0.1682 -0.6465 -0.1222
  310MOL0     H41837   9.706  10.946   3.935 -2.4171  0.7156  1.1834
  310MOL0     H41838   9.977  11.293   4.019 -2.3522 -1.6394  2.1880
  310MOL0     H41839  10.037  11.211   3.873 -0.3830  3.8086  0.5569
  310MOL0     H41840  10.122  11.125   4.149  0.9387 -0.3066 -0.2308
  310MOL0     H41841  10.192  11.264   4.060  0.6786 -0.8997 -0.6635
  310MOL0     H41842  10.337  11.092   3.995  0.5073 -3.6248 -0.7329
  310MOL0     H41843  10.235  11.115   3.866 -1.0516  0.4360  0.4935
  310MOL0     H41844  10.105  10.930   3.902  1.1014  4.4119 -2.0775
  310MOL0     H41845  10.268  10.862   3.912  0.3226 -2.1316  2.3220
  310MOL0     H41846  10.111  10.755   4.284 -0.6538 -0.3700 -0.2541
  310MOL0     H41847   9.824  11.343   3.853 -0.4077 -0.9129 -0.9591
  310MOL0     H41848   9.680  11.500   3.763  0.3148  0.1948 -0.4990
  310MOL0     H41849   9.594  11.422   3.629  2.8485 -0.0051 -0.0643
  310MOL0     H41850   9.518  11.482   3.791  2.8786  2.1408  2.3413
  311MOL0     O41851   7.759   2.864   8.414  0.4739 -0.6121 -0.5655
  311MOL0     C41852   7.786   2.962   8.341  1.1056 -0.0856  0.0980
  311MOL0     O41853   7.687   3.023   8.264 -0.1079 -0.5631  0.1378
  311MOL0     C41854   7.562   2.978   8.265  0.7946 -0.0244 -0.2060
  311MOL0     C41855   7.501   2.918   8.155 -0.2648  0.1894  0.6058
  311MOL0     C41856   7.366   2.904   8.152 -0.7204 -0.5180  0.6175
  311MOL0     C41857   7.287   2.927   8.264  0.1874  0.6061  0.2594
  311MOL0     O41858   7.154   2.910   8.269 -0.2839 -0.1238 -0.1416
  311MOL0     C41859   7.076   2.910   8.144 -0.4179 -0.5023 -0.1016
  311MOL0     C41860   6.933   2.915   8.185 -0.3777  0.3601  0.0878
  311MOL0     C41861   6.865   2.778   8.183 -0.0570 -0.2490  0.8800
  311MOL0     C41862   6.715   2.784   8.222  0.3942  0.2271 -0.4573
  311MOL0     C41863   6.671   2.644   8.285  0.1494  0.7636  0.1643
  311MOL0     C41864   6.532   2.642   8.320 -0.4646 -0.5314 -0.1090
  311MOL0     C41865   6.488   2.507   8.376 -0.4152  0.3395 -0.1089
  311MOL0     C41866   6.360   2.515   8.460  0.2376 -0.5698 -0.4834
  311MOL0     N41867   6.267   2.599   8.394 -0.3972 -0.7486 -0.1004
  311MOL0     C41868   6.215   2.586   8.266 -0.5527  0.3227 -0.6363
  311MOL0     C41869   6.131   2.688   8.240  1.0406  0.7800  0.4731
  311MOL0     C41870   6.043   2.716   8.130  0.0258  0.7679 -0.3521
  311MOL0     C41871   6.115   2.774   8.004 -0.3541 -0.5512 -0.1500
  311MOL0     C41872   6.172   2.922   8.025  1.0482 -0.0658  0.4834
  311MOL0     C41873   6.322   2.930   8.061 -0.0866 -0.0803  0.3096
  311MOL0     O41874   6.396   2.853   7.970 -0.2727  0.8958  1.0726
  311MOL0     C41875   6.517   2.896   7.918 -0.5496 -0.0554 -0.0552
  311MOL0     C41876   6.585   2.795   7.869 -0.8474  0.8870  0.6578
  311MOL0     C41877   6.712   2.817   7.812 -0.6859  0.4381 -0.2865
  311MOL0     C41878   6.782   2.942   7.815  0.3433 -0.4523  0.2927
  311MOL0     C41879   6.916   2.953   7.768 -0.0288 -0.4190 -0.0469
  311MOL0     O41880   6.977   2.843   7.730  0.2431 -0.4417  0.2137
  311MOL0     C41881   7.119   2.844   7.719 -0.1810  0.2683  0.5606
  311MOL0     C41882   7.193   2.939   7.650 -0.7576 -0.4791  0.0215
  311MOL0     C41883   7.335   2.934   7.656  0.5938 -0.3619  0.3397
  311MOL0     C41884   7.403   2.836   7.729  0.3202 -0.0693 -0.3873
  311MOL0     O41885   7.542   2.843   7.727  0.4456  0.2872  0.1798
  311MOL0     C41886   7.603   2.716   7.713  1.2243 -0.3414  0.2839
  311MOL0     C41887   7.754   2.744   7.691  0.6143  0.4285  0.1656
  311MOL0     C41888   7.780   2.810   7.557 -0.9654 -0.4929 -0.0776
  311MOL0     C41889   7.930   2.843   7.545 -0.4637  0.2973 -0.3785
  311MOL0     C41890   7.962   2.896   7.402 -0.4026 -0.3953  0.8042
  311MOL0     C41891   8.109   2.926   7.389  0.0228 -0.7007  0.1389
  311MOL0     C41892   8.153   2.978   7.250  0.3933 -0.1190  0.7739
  311MOL0     C41893   8.283   3.060   7.248  0.8903 -0.2124  0.5887
  311MOL0    Cl41894   8.415   2.973   7.332  0.2811  0.0156  0.0606
  311MOL0     C41895   7.326   2.741   7.796  0.0764 -0.7051 -0.0969
  311MOL0     C41896   7.187   2.747   7.796  0.0285  0.7599 -0.5007
  311MOL0     O41897   6.969   3.063   7.784  1.0216  1.0449 -0.3690
  311MOL0     C41898   6.711   3.053   7.879 -0.5913 -0.1859  0.3697
  311MOL0     C41899   6.575   3.030   7.926  0.1180  0.5539 -0.1702
  311MOL0     N41900   6.128   2.763   8.355  0.0803  0.7282 -0.4059
  311MOL0     N41901   6.198   2.710   8.448 -0.0980 -0.3730  0.3321
  311MOL0     C41902   7.348   2.982   8.383 -0.6814  0.3095 -0.1355
  311MOL0     C41903   7.482   3.011   8.374 -0.2637 -0.4675  0.3100
  311MOL0     C41904   7.923   2.993   8.299 -0.3829  0.5163 -0.7007
  311MOL0     C41905   7.946   3.116   8.215  0.4836  0.1988 -0.1496
  311MOL0     C41906   8.077   3.164   8.188  0.6011 -0.4084 -0.7133
  311MOL0     C41907   8.182   3.100   8.232 -0.4108 -0.1385  0.8699
  311MOL0     O41908   8.307   3.140   8.219 -0.3293  0.2418  0.4507
  311MOL0     C41909   8.341   3.260   8.144  0.7627  0.3123 -0.0735
  311MOL0     C41910   8.490   3.277   8.144 -0.2892 -0.7428  0.6885
  311MOL0     C41911   8.544   3.350   8.268  0.2713  0.2201  0.6348
  311MOL0     C41912   8.693   3.381   8.249 -0.3540 -0.2826  0.5297
  311MOL0     C41913   8.736   3.484   8.158  0.5341 -0.5153 -0.2834
  311MOL0     C41914   8.757   3.584   8.092 -0.0714 -0.6287 -0.0688
  311MOL0     C41915   8.168   2.986   8.311  0.7830 -0.0222 -0.1086
  311MOL0     C41916   8.043   2.929   8.355  0.5335  0.6066  0.7580
  311MOL0     C41917   8.035   2.812   8.447  0.1910 -0.5138  0.1803
  311MOL0     H41918   7.556   2.887   8.067  0.3024  0.7465  0.7635
  311MOL0     H41919   7.321   2.872   8.058  0.4375  0.0554 -0.1552
  311MOL0     H41920   7.097   2.997   8.081 -0.6873 -0.7188 -0.4991
  311MOL0     H41921   7.098   2.821   8.084  0.6697 -0.2190 -0.1390
  311MOL0     H41922   6.892   2.967   8.097 -1.1712  1.6476  1.1798
  311MOL0     H41923   6.921   2.971   8.278  0.8334  1.8170 -0.5743
  311MOL0     H41924   6.909   2.720   8.265 -0.5712  0.6677  1.8266
  311MOL0     H41925   6.877   2.732   8.084  0.9571  3.1656 -0.7434
  311MOL0     H41926   6.703   2.863   8.297  1.5316  0.1264 -0.1530
  311MOL0     H41927   6.659   2.805   8.130 -2.3193 -0.9423  0.8279
  311MOL0     H41928   6.685   2.570   8.205  0.3199  1.9606 -0.9352
  311MOL0     H41929   6.733   2.614   8.370  1.3531  1.7138 -0.3506
  311MOL0     H41930   6.516   2.720   8.395 -2.0276 -0.3044 -0.6484
  311MOL0     H41931   6.469   2.671   8.236  2.0771  2.0766 -1.2796
  311MOL0     H41932   6.567   2.462   8.437 -1.3870 -0.4670  0.5809
  311MOL0     H41933   6.477   2.435   8.294  0.4142 -1.8569  1.6086
  311MOL0     H41934   6.320   2.415   8.477 -1.4762  0.1166 -0.2977
  311MOL0     H41935   6.370   2.552   8.563 -3.1929 -1.0547  0.1269
  311MOL0     H41936   6.235   2.507   8.195  4.1817  1.5182 -0.9520
  311MOL0     H41937   6.004   2.619   8.097  0.9637  1.6469 -4.6716
  311MOL0     H41938   5.963   2.776   8.174  0.6764  0.0892  1.8807
  311MOL0     H41939   6.202   2.712   7.978  0.1194  0.3867 -0.8780
  311MOL0     H41940   6.049   2.768   7.917 -2.0146  2.6184  0.7207
  311MOL0     H41941   6.101   2.969   8.095 -0.6805 -2.4822  0.4878
  311MOL0     H41942   6.160   2.987   7.938  3.4942  2.1269  1.6653
  311MOL0     H41943   6.351   2.914   8.165  2.0881 -2.1851 -0.5382
  311MOL0     H41944   6.344   3.036   8.044  1.0529 -0.4188 -0.4098
  311MOL0     H41945   6.544   2.694   7.865 -0.2192  0.6588 -1.6591
  311MOL0     H41946   6.763   2.731   7.769  0.6074  1.4468 -0.8280
  311MOL0     H41947   7.151   3.018   7.588  1.8467  3.2933  2.6013
  311MOL0     H41948   7.396   3.004   7.600  2.9606  1.2878  4.5200
  311MOL0     H41949   7.594   2.658   7.806  1.6725 -1.8335 -0.5785
  311MOL0     H41950   7.562   2.654   7.633  2.6536  0.0380 -0.7882
  311MOL0     H41951   7.779   2.819   7.767  1.5396 -1.0983  1.4287
  311MOL0     H41952   7.817   2.659   7.719  0.4157  0.1857 -0.1207
  311MOL0     H41953   7.762   2.743   7.473 -1.0501 -0.2565 -0.2486
  311MOL0     H41954   7.718   2.898   7.537 -1.2417 -0.9594 -1.3486
  311MOL0     H41955   8.002   2.762   7.562  0.6613  1.4620  0.6538
  311MOL0     H41956   7.956   2.917   7.621 -1.0179  0.6917 -0.5738
  311MOL0     H41957   7.904   2.985   7.375  0.8667 -0.2459 -1.6835
  311MOL0     H41958   7.934   2.816   7.332  1.5420  1.2037 -2.0099
  311MOL0     H41959   8.133   2.993   7.473  2.5948 -1.3214 -0.0190
  311MOL0     H41960   8.160   2.834   7.416 -1.8603 -1.2064  2.3154
  311MOL0     H41961   8.075   3.033   7.195  1.5339  1.2638  0.4708
  311MOL0     H41962   8.176   2.887   7.195  1.8171 -0.0727  1.2565
  311MOL0     H41963   8.311   3.070   7.142  2.0762 -2.6802  0.6065
  311MOL0     H41964   8.262   3.159   7.288  2.3127  0.4779 -0.2897
  311MOL0     H41965   7.389   2.664   7.839  0.1126 -0.3718  0.4633
  311MOL0     H41966   7.134   2.675   7.857 -0.1328 -0.6330 -2.1865
  311MOL0     H41967   6.760   3.147   7.900  0.7130 -0.0157 -2.8863
  311MOL0     H41968   6.539   3.117   7.980  2.0460  0.2365  1.7503
  311MOL0     H41969   7.287   3.001   8.470 -1.5457  0.1285 -0.6922
  311MOL0     H41970   7.519   3.043   8.471 -4.1463 -0.6412  2.0520
  311MOL0     H41971   7.863   3.173   8.176  0.4789  0.8536  0.7940
  311MOL0     H41972   8.097   3.248   8.122  3.6739 -1.6992 -1.6037
  311MOL0     H41973   8.280   3.339   8.188 -1.1331 -1.4530  0.6368
  311MOL0     H41974   8.306   3.257   8.041 -0.0752  4.1815 -0.0641
  311MOL0     H41975   8.513   3.349   8.065 -0.0056 -0.1916  1.2626
  311MOL0     H41976   8.543   3.183   8.123 -2.0338 -1.4640 -0.6803
  311MOL0     H41977   8.517   3.289   8.354 -1.2729 -0.5086 -0.3300
  311MOL0     H41978   8.492   3.446   8.278 -0.4442 -0.1362  0.3966
  311MOL0     H41979   8.731   3.412   8.347 -2.8320  1.4316  1.0461
  311MOL0     H41980   8.748   3.292   8.218  2.7521  1.4855  0.5700
  311MOL0     H41981   8.770   3.674   8.037 -0.9431  1.0481  2.3043
  311MOL0     H41982   8.262   2.944   8.347  1.4132  1.6881  0.3322
  311MOL0     H41983   7.968   2.848   8.525  0.4943  2.3755 -0.7468
  311MOL0     H41984   7.993   2.729   8.390 -1.2328  2.0838 -2.8659
  311MOL0     H41985   8.132   2.778   8.484  1.7941  1.5502 -1.8447
  312MOL0     O41986   3.417   5.625   5.816 -0.8600 -0.3166 -0.2851
  312MOL0     C41987   3.429   5.685   5.713  0.8719 -0.2743  0.2227
  312MOL0     O41988   3.541   5.737   5.661 -0.8388  0.0364 -0.1359
  312MOL0     C41989   3.654   5.704   5.724  0.0937 -0.2385 -0.6240
  312MOL0     C41990   3.689   5.773   5.849 -0.5230 -0.7336 -0.2520
  312MOL0     C41991   3.802   5.741   5.924  0.1367 -0.0908 -0.2936
  312MOL0     C41992   3.884   5.640   5.869 -0.6406 -0.5553 -0.1801
  312MOL0     O41993   4.007   5.631   5.928 -0.0193  0.7307  0.0086
  312MOL0     C41994   4.085   5.517   5.892 -0.2651 -0.8591 -0.7841
  312MOL0     C41995   4.186   5.489   5.993  0.5050 -0.2394 -0.6393
  312MOL0     C41996   4.264   5.362   5.970  0.0476 -0.8754  0.7690
  312MOL0     C41997   4.182   5.226   5.970 -0.7867 -0.1196 -0.3361
  312MOL0     C41998   4.128   5.186   6.101 -0.2698  0.7292 -0.5346
  312MOL0     C41999   4.028   5.070   6.088 -0.0268 -0.3715 -0.8718
  312MOL0     C42000   3.988   5.020   6.229  0.2511 -1.6579  0.9788
  312MOL0     C42001   3.904   5.122   6.309  1.0943 -0.3801  0.4222
  312MOL0     N42002   3.777   5.148   6.238  0.4605  0.4393 -0.2138
  312MOL0     C42003   3.748   5.251   6.150  0.2803 -0.6844  0.2675
  312MOL0     C42004   3.648   5.205   6.073 -0.0410  0.2321  0.6618
  312MOL0     C42005   3.571   5.287   5.966  0.3062 -0.4157  0.3808
  312MOL0     C42006   3.656   5.307   5.841 -1.1763  0.2310  0.2358
  312MOL0     C42007   3.689   5.171   5.771  0.1702 -0.1330 -0.3587
  312MOL0     C42008   3.569   5.111   5.698  0.1666 -0.3709  0.3327
  312MOL0     O42009   3.505   5.207   5.621  0.3127 -0.7506 -0.1196
  312MOL0     C42010   3.368   5.205   5.613 -0.9205  0.0573  0.7946
  312MOL0     C42011   3.284   5.092   5.637 -0.1751 -0.9082  0.1499
  312MOL0     C42012   3.140   5.121   5.660 -0.0136  0.9360 -0.3078
  312MOL0     C42013   3.083   5.248   5.634  0.6171  0.1810  0.4731
  312MOL0     C42014   2.944   5.272   5.650  0.3570  0.0405 -0.3291
  312MOL0     O42015   2.903   5.400   5.635 -0.7665 -0.4702 -0.0265
  312MOL0     C42016   2.770   5.423   5.646 -0.4716  0.1428 -0.3924
  312MOL0     C42017   2.682   5.362   5.557  0.2785 -0.1308  0.1030
  312MOL0     C42018   2.547   5.392   5.558 -0.4018 -1.0131 -0.3828
  312MOL0     C42019   2.492   5.475   5.658  0.1935 -0.3892  0.1468
  312MOL0     O42020   2.355   5.494   5.677  0.1449  0.7210  0.5833
  312MOL0     C42021   2.299   5.606   5.735 -0.3382 -1.0892 -0.3017
  312MOL0     C42022   2.161   5.589   5.766 -0.4890 -0.1929  0.7382
  312MOL0     C42023   2.075   5.559   5.646  0.4192 -0.1614 -0.3792
  312MOL0     C42024   2.075   5.683   5.558  0.2031 -0.3536 -0.0931
  312MOL0     C42025   1.981   5.686   5.443  0.1468 -0.3779  0.5894
  312MOL0     C42026   2.013   5.796   5.339 -0.0595 -0.0031  0.0306
  312MOL0     C42027   1.892   5.825   5.248 -0.0157 -0.3866 -0.6252
  312MOL0     C42028   1.917   5.771   5.107 -0.9044  0.5158 -0.7772
  312MOL0    Cl42029   1.768   5.772   5.018 -0.4110  0.6411 -0.0339
  312MOL0     C42030   2.583   5.536   5.743  0.0552  0.4896  0.2726
  312MOL0     C42031   2.720   5.505   5.740 -0.0343 -0.3606 -0.1171
  312MOL0     O42032   2.869   5.178   5.691 -0.4526 -0.8812  0.5464
  312MOL0     C42033   3.165   5.345   5.592 -0.3320  0.6348  0.3081
  312MOL0     C42034   3.311   5.329   5.592  0.5859 -0.4323 -0.6066
  312MOL0     N42035   3.602   5.091   6.132  0.1654 -0.4581 -0.9988
  312MOL0     N42036   3.676   5.058   6.230 -0.9929  0.3985 -0.1072
  312MOL0     C42037   3.858   5.581   5.747 -0.7155 -0.6045 -0.5353
  312MOL0     C42038   3.741   5.605   5.676  0.0262 -0.9853  0.0005
  312MOL0     C42039   3.305   5.687   5.628 -0.4333  0.4139 -0.4925
  312MOL0     C42040   3.318   5.710   5.488 -0.2363  0.0198  0.0984
  312MOL0     C42041   3.206   5.724   5.405  0.1089  0.4755 -0.1922
  312MOL0     C42042   3.080   5.709   5.455  0.5741  0.4229  0.4086
  312MOL0     O42043   2.967   5.699   5.379  0.0666  0.1578  0.0882
  312MOL0     C42044   2.938   5.796   5.274  0.3461 -0.8281  0.1391
  312MOL0     C42045   2.788   5.812   5.244  0.1235 -0.6679  0.3003
  312MOL0     C42046   2.717   5.873   5.370 -0.0537 -0.7619 -0.7193
  312MOL0     C42047   2.570   5.914   5.342  0.2433  0.3613  0.2094
  312MOL0     C42048   2.483   5.798   5.360 -0.1072 -0.0194  0.0114
  312MOL0     C42049   2.434   5.691   5.391  0.5029 -0.8483 -0.1143
  312MOL0     C42050   3.062   5.690   5.588  0.7332 -0.0426 -0.2716
  312MOL0     C42051   3.170   5.680   5.679  0.7200  0.9529  0.4085
  312MOL0     C42052   3.138   5.657   5.820 -0.1577 -0.2236  0.2479
  312MOL0     H42053   3.633   5.865   5.863 -0.0874 -0.2930 -1.2981
  312MOL0     H42054   3.821   5.795   6.017 -0.1119  2.2931 -1.5392
  312MOL0     H42055   4.029   5.424   5.879 -0.8707 -0.4147 -1.4345
  312MOL0     H42056   4.140   5.531   5.798  0.1914  2.8965 -0.1207
  312MOL0     H42057   4.140   5.478   6.092  0.9650 -1.6406 -0.5526
  312MOL0     H42058   4.256   5.571   6.006  1.1348 -1.1665  2.8643
  312MOL0     H42059   4.339   5.360   6.050  0.3454  0.7714  0.5675
  312MOL0     H42060   4.307   5.361   5.870 -0.3688 -0.9364  0.5907
  312MOL0     H42061   4.104   5.216   5.895 -2.2882  1.9557  0.8627
  312MOL0     H42062   4.254   5.147   5.944 -1.7510 -1.4485  0.8596
  312MOL0     H42063   4.213   5.153   6.162  0.2291  2.2763 -0.3464
  312MOL0     H42064   4.094   5.275   6.154  0.6380  0.0422  1.2788
  312MOL0     H42065   3.940   5.095   6.028 -1.1761  0.5499  1.0784
  312MOL0     H42066   4.064   4.982   6.034 -1.6509 -1.6413 -0.0086
  312MOL0     H42067   4.076   4.994   6.290  1.3646  1.3959  0.8672
  312MOL0     H42068   3.933   4.927   6.214 -1.7840 -0.4705  0.6724
  312MOL0     H42069   3.888   5.095   6.414  1.4865  3.7775  1.7219
  312MOL0     H42070   3.957   5.216   6.322 -0.9403  0.7905  0.6481
  312MOL0     H42071   3.791   5.349   6.135 -2.2446  1.1948  3.8803
  312MOL0     H42072   3.473   5.244   5.944  0.3958 -1.6397  2.1056
  312MOL0     H42073   3.547   5.388   6.001 -4.7584 -1.5871  1.0753
  312MOL0     H42074   3.612   5.378   5.770 -1.5420 -0.2352 -0.0118
  312MOL0     H42075   3.749   5.356   5.870  0.9808 -0.8979 -3.9391
  312MOL0     H42076   3.726   5.092   5.836 -0.0008  1.2007  1.4059
  312MOL0     H42077   3.765   5.186   5.694  1.0896  1.0303  0.7497
  312MOL0     H42078   3.503   5.060   5.770  0.9537  2.2394  3.1312
  312MOL0     H42079   3.621   5.039   5.635 -1.1299  1.1093 -2.6216
  312MOL0     H42080   3.320   4.991   5.658 -1.4019 -1.6742 -1.2587
  312MOL0     H42081   3.092   5.027   5.686 -1.4001  1.3754 -1.1277
  312MOL0     H42082   2.727   5.296   5.483  0.2699 -0.6350  0.5382
  312MOL0     H42083   2.484   5.344   5.484 -2.0883  1.3241 -0.5365
  312MOL0     H42084   2.346   5.633   5.831  0.7206 -2.5564 -0.3751
  312MOL0     H42085   2.325   5.693   5.673  3.3907 -2.6706 -1.2281
  312MOL0     H42086   2.163   5.515   5.846  1.7099  0.4391  1.3298
  312MOL0     H42087   2.137   5.685   5.813 -1.9271  1.0217 -2.2208
  312MOL0     H42088   2.112   5.470   5.595 -1.2192 -1.1736  0.1336
  312MOL0     H42089   1.972   5.538   5.675  0.5053 -0.8363 -0.5478
  312MOL0     H42090   2.173   5.686   5.510 -0.2226 -4.1346 -1.5807
  312MOL0     H42091   2.071   5.775   5.616 -1.7613  0.0888 -0.8441
  312MOL0     H42092   1.878   5.691   5.480  0.1630  0.7777  0.5213
  312MOL0     H42093   2.004   5.592   5.391  4.3029  0.1442  1.1551
  312MOL0     H42094   2.038   5.890   5.388 -0.1551  0.0088  0.0583
  312MOL0     H42095   2.104   5.766   5.287 -1.5094 -1.9983 -1.5565
  312MOL0     H42096   1.855   5.926   5.233 -0.7100 -0.3263  1.2242
  312MOL0     H42097   1.802   5.776   5.286  0.6254 -0.9673  0.2000
  312MOL0     H42098   1.984   5.827   5.041 -1.6584 -0.0161 -2.0252
  312MOL0     H42099   1.956   5.669   5.113  1.4560  1.4350  0.9480
  312MOL0     H42100   2.559   5.611   5.818 -1.0565  1.4544 -0.9925
  312MOL0     H42101   2.795   5.555   5.801  1.1586 -2.0576 -0.1120
  312MOL0     H42102   3.120   5.442   5.576 -3.7147 -0.8258  0.2800
  312MOL0     H42103   3.372   5.414   5.563  2.1664 -1.5054 -0.5368
  312MOL0     H42104   3.927   5.518   5.692  0.8239  0.5599 -0.0062
  312MOL0     H42105   3.718   5.557   5.582 -2.0251  1.1938 -0.7081
  312MOL0     H42106   3.418   5.715   5.446  1.7983 -2.0507  4.1230
  312MOL0     H42107   3.213   5.743   5.298  2.0161 -2.3423 -0.6573
  312MOL0     H42108   2.977   5.761   5.178 -1.5234  0.3656 -1.1159
  312MOL0     H42109   2.976   5.895   5.302 -1.2954 -0.3052  0.6230
  312MOL0     H42110   2.756   5.714   5.206  1.0475 -1.6189  1.8614
  312MOL0     H42111   2.795   5.881   5.160  2.5803 -2.6127 -1.2375
  312MOL0     H42112   2.764   5.969   5.393  0.2090 -1.2760  0.9858
  312MOL0     H42113   2.727   5.804   5.454  1.8960  0.8823  0.4986
  312MOL0     H42114   2.541   5.987   5.418  1.2895 -1.2232  2.2182
  312MOL0     H42115   2.572   5.946   5.237  3.1542  1.6132  0.5429
  312MOL0     H42116   2.391   5.602   5.432 -0.6798 -1.0360 -1.6814
  312MOL0     H42117   2.956   5.700   5.611 -0.3333 -2.5545 -3.2995
  312MOL0     H42118   3.180   5.724   5.895 -0.4056  0.0290  0.1610
  312MOL0     H42119   3.030   5.669   5.828 -0.1266  1.9650 -1.7395
  312MOL0     H42120   3.182   5.562   5.853 -0.4710 -0.3278  0.3617
  313MOL0     O42121   9.677   7.187  11.197  0.1853 -0.8954 -0.7772
  313MOL0     C42122   9.579   7.153  11.260  0.8652  1.0474 -0.2440
  313MOL0     O42123   9.569   7.033  11.325 -0.2695  0.1436  0.5798
  313MOL0     C42124   9.686   6.957  11.341  0.1218 -0.5161 -0.9898
  313MOL0     C42125   9.697   6.824  11.310 -0.4346 -0.2406  1.1915
  313MOL0     C42126   9.818   6.755  11.329  1.3200  0.6987 -0.3072
  313MOL0     C42127   9.915   6.809  11.407 -0.5637 -0.4109 -0.0931
  313MOL0     O42128  10.034   6.737  11.426 -0.8052  0.5898 -0.4631
  313MOL0     C42129  10.151   6.808  11.384 -0.1589  0.2493 -0.3207
  313MOL0     C42130  10.248   6.708  11.325  0.3742  0.7811 -0.4965
  313MOL0     C42131  10.283   6.605  11.444  0.2359 -1.0430  0.0127
  313MOL0     C42132  10.345   6.473  11.388 -0.0577  0.5074 -0.8557
  313MOL0     C42133  10.465   6.503  11.312 -0.0525 -0.3514 -0.1044
  313MOL0     C42134  10.556   6.379  11.295  0.6083 -0.7182 -0.0168
  313MOL0     C42135  10.704   6.415  11.286  0.1210 -0.1804 -0.1230
  313MOL0     C42136  10.735   6.486  11.157 -0.2107 -0.3960  1.2885
  313MOL0     N42137  10.883   6.489  11.152 -0.6251  0.7308 -0.1284
  313MOL0     C42138  10.962   6.569  11.231 -0.7760 -0.2261 -1.0867
  313MOL0     C42139  11.084   6.512  11.242  1.0873 -0.1753  0.5326
  313MOL0     C42140  11.202   6.580  11.293  0.1399  0.0764 -0.3579
  313MOL0     C42141  11.222   6.581  11.446 -0.2047  0.4554 -0.1704
  313MOL0     C42142  11.349   6.665  11.479  0.2343 -0.1529 -0.3440
  313MOL0     C42143  11.481   6.592  11.461 -0.0136  0.6469  1.1309
  313MOL0     O42144  11.570   6.679  11.516  0.2173 -0.0640  0.2721
  313MOL0     C42145  11.702   6.634  11.515 -0.5247 -0.4156  0.8920
  313MOL0     C42146  11.749   6.520  11.582 -0.0583 -0.6610 -0.1745
  313MOL0     C42147  11.881   6.474  11.577 -0.5050  0.3034  1.5270
  313MOL0     C42148  11.981   6.559  11.509  0.0130 -0.2594  0.3826
  313MOL0     C42149  12.116   6.515  11.511  0.5676 -0.9166 -0.4620
  313MOL0     O42150  12.153   6.410  11.586 -0.3069  0.5993  0.8310
  313MOL0     C42151  12.287   6.396  11.608  0.5431  0.2748 -0.0956
  313MOL0     C42152  12.359   6.300  11.535  0.2196 -1.0482  0.3540
  313MOL0     C42153  12.492   6.278  11.561 -0.3777 -0.2776 -0.4493
  313MOL0     C42154  12.561   6.349  11.664  0.2318  0.4734 -0.1065
  313MOL0     O42155  12.693   6.325  11.674  0.8630  0.0421  0.2411
  313MOL0     C42156  12.766   6.447  11.660  1.0094  0.1192 -0.1523
  313MOL0     C42157  12.905   6.396  11.604  0.5024 -0.2864 -0.2053
  313MOL0     C42158  12.910   6.402  11.447  0.3068 -0.0388  0.0527
  313MOL0     C42159  13.052   6.378  11.400 -1.1077  0.2717 -0.1249
  313MOL0     C42160  13.101   6.238  11.437  0.2768 -0.2896  0.4354
  313MOL0     C42161  13.241   6.206  11.396  0.5290  0.1313  0.5130
  313MOL0     C42162  13.335   6.302  11.456 -0.2433 -0.1609  0.5013
  313MOL0     C42163  13.485   6.259  11.440  0.0405 -0.2468  0.0297
  313MOL0    Cl42164  13.554   6.298  11.278  0.0700  0.1155 -0.1837
  313MOL0     C42165  12.487   6.445  11.739  0.4074  0.4952 -0.0889
  313MOL0     C42166  12.354   6.463  11.705  1.0469  0.4781 -0.8504
  313MOL0     O42167  12.195   6.578  11.439  1.0253  0.4856 -0.2579
  313MOL0     C42168  11.935   6.671  11.449  0.6069 -0.5942  0.1094
  313MOL0     C42169  11.797   6.706  11.453 -0.0912  0.0055 -0.1009
  313MOL0     N42170  11.091   6.404  11.165  1.2628  0.3295 -0.9373
  313MOL0     N42171  10.964   6.384  11.129 -0.2460 -0.0744  0.9457
  313MOL0     C42172   9.905   6.939  11.453 -0.0812 -0.3010 -1.1915
  313MOL0     C42173   9.794   7.004  11.422  1.1493 -0.0552 -0.4504
  313MOL0     C42174   9.452   7.226  11.242 -0.1293  1.2140  0.9235
  313MOL0     C42175   9.336   7.148  11.229  0.4910  0.2036 -0.6798
  313MOL0     C42176   9.213   7.211  11.217  0.2435 -0.7009  0.6733
  313MOL0     C42177   9.201   7.353  11.215  0.9171  0.2875 -0.9113
  313MOL0     O42178   9.075   7.415  11.212 -0.1365 -0.0775  0.9455
  313MOL0     C42179   8.969   7.327  11.256  0.4817  0.2596  0.1236
  313MOL0     C42180   8.836   7.397  11.263  0.1737  0.1500 -0.4468
  313MOL0     C42181   8.836   7.547  11.294  0.2396  0.2070  0.1961
  313MOL0     C42182   8.903   7.579  11.427  0.6920  0.2778  0.0530
  313MOL0     C42183   8.861   7.518  11.554  0.0059  0.3414  0.2260
  313MOL0     C42184   8.815   7.443  11.639  0.3660 -0.2618  0.0244
  313MOL0     C42185   9.316   7.425  11.210 -0.0950 -0.8803 -1.0225
  313MOL0     C42186   9.445   7.367  11.227 -0.0101  0.0092  0.0853
  313MOL0     C42187   9.559   7.465  11.249  0.2177 -0.0486 -1.0394
  313MOL0     H42188   9.629   6.761  11.253 -0.0330 -1.0897  1.6278
  313MOL0     H42189   9.844   6.663  11.278  3.1636 -0.8308  3.0282
  313MOL0     H42190  10.130   6.882  11.306 -1.8915  1.5931  1.3084
  313MOL0     H42191  10.189   6.856  11.476 -1.4660 -0.1266  0.4345
  313MOL0     H42192  10.340   6.760  11.298  0.5910  0.1928 -0.9384
  313MOL0     H42193  10.209   6.654  11.238  0.1005 -2.9386  1.7104
  313MOL0     H42194  10.194   6.580  11.503  0.5051 -1.1593  0.3730
  313MOL0     H42195  10.357   6.634  11.519  0.0815 -1.3280  0.2794
  313MOL0     H42196  10.362   6.410  11.476 -1.7825 -0.8676 -1.4421
  313MOL0     H42197  10.281   6.425  11.313  1.8909 -1.1485 -1.5658
  313MOL0     H42198  10.436   6.534  11.211 -1.6394  3.0924  1.2364
  313MOL0     H42199  10.525   6.583  11.358 -0.1362 -0.7937  0.7997
  313MOL0     H42200  10.550   6.313  11.383 -1.5774  0.9690  1.1764
  313MOL0     H42201  10.530   6.326  11.203  1.7104 -0.6209 -0.4017
  313MOL0     H42202  10.766   6.325  11.282  0.0227 -0.1939 -2.1269
  313MOL0     H42203  10.739   6.476  11.370 -1.9983 -1.0964  1.5373
  313MOL0     H42204  10.696   6.440  11.066  1.3288 -1.7942  1.2687
  313MOL0     H42205  10.707   6.592  11.160  0.8150 -0.1073  1.1244
  313MOL0     H42206  10.926   6.662  11.275 -1.8056 -0.4042 -1.5414
  313MOL0     H42207  11.281   6.514  11.256 -1.6284 -2.4577  0.1431
  313MOL0     H42208  11.208   6.679  11.246 -0.6348 -0.0656 -0.7724
  313MOL0     H42209  11.144   6.634  11.501  0.0368 -0.4338  1.0704
  313MOL0     H42210  11.230   6.478  11.482 -0.9471  0.1878 -0.7456
  313MOL0     H42211  11.343   6.688  11.586 -0.0320 -0.1425 -0.3630
  313MOL0     H42212  11.346   6.756  11.418  1.4672  0.4767  0.4872
  313MOL0     H42213  11.518   6.568  11.361  2.3201  0.6135  1.9285
  313MOL0     H42214  11.479   6.496  11.514 -1.5977 -0.8402 -1.4176
  313MOL0     H42215  11.681   6.456  11.638  0.1104  1.6440  2.9013
  313MOL0     H42216  11.921   6.388  11.630  2.1452  0.4976  0.0355
  313MOL0     H42217  12.302   6.246  11.460 -2.2958  0.0858  1.3411
  313MOL0     H42218  12.539   6.196  11.508 -0.6785 -1.7838  1.5213
  313MOL0     H42219  12.724   6.520  11.591 -0.8517  0.0141  0.7955
  313MOL0     H42220  12.767   6.499  11.756 -0.4859  0.4441 -0.2846
  313MOL0     H42221  12.967   6.472  11.653 -1.0330  0.6904  0.3233
  313MOL0     H42222  12.927   6.295  11.638 -2.5009 -0.5743  1.2387
  313MOL0     H42223  12.840   6.327  11.409 -0.3763  0.3862  0.4495
  313MOL0     H42224  12.879   6.500  11.411 -0.6450 -0.7699 -1.1925
  313MOL0     H42225  13.124   6.447  11.447  0.4868 -0.4775 -1.4002
  313MOL0     H42226  13.066   6.390  11.293 -0.7512  1.2236  0.0117
  313MOL0     H42227  13.039   6.164  11.385 -1.6695  0.9898  0.8399
  313MOL0     H42228  13.091   6.225  11.545 -0.3339 -2.0912  0.1945
  313MOL0     H42229  13.269   6.103  11.421  1.7104 -0.5909 -3.1428
  313MOL0     H42230  13.249   6.207  11.287 -1.3559 -0.1817  0.3437
  313MOL0     H42231  13.317   6.319  11.563 -1.2797  0.7697  0.1946
  313MOL0     H42232  13.318   6.395  11.401 -2.0675 -0.9901 -0.4140
  313MOL0     H42233  13.538   6.314  11.518 -1.1541 -0.7147  1.2180
  313MOL0     H42234  13.494   6.153  11.466  0.7012  0.0007  0.8891
  313MOL0     H42235  12.536   6.515  11.806  1.1649  2.1150 -2.2121
  313MOL0     H42236  12.288   6.527  11.763  1.5463  0.6589 -0.4690
  313MOL0     H42237  11.989   6.733  11.378 -3.4591  2.5710 -0.5535
  313MOL0     H42238  11.752   6.798  11.417 -1.4428 -0.0967  1.2712
  313MOL0     H42239   9.980   6.988  11.514 -0.5931 -0.6176 -0.2917
  313MOL0     H42240   9.791   7.102  11.468 -1.8098 -0.0558 -0.5084
  313MOL0     H42241   9.326   7.040  11.225 -0.5667  0.2108  0.9428
  313MOL0     H42242   9.127   7.145  11.208  0.6902 -1.2657  0.4878
  313MOL0     H42243   9.000   7.280  11.350 -1.5150  2.3118  1.9545
  313MOL0     H42244   8.946   7.259  11.174 -1.5664  1.3348 -0.2651
  313MOL0     H42245   8.764   7.352  11.332  0.4655 -1.7731 -1.3522
  313MOL0     H42246   8.789   7.390  11.164 -0.1228  0.1203 -0.3060
  313MOL0     H42247   8.734   7.581  11.314 -1.0645 -3.1097 -0.2429
  313MOL0     H42248   8.881   7.593  11.205 -3.3839 -0.7204 -2.3748
  313MOL0     H42249   9.006   7.544  11.415 -0.6149 -3.8934 -0.4079
  313MOL0     H42250   8.904   7.688  11.440  0.9411  0.5044 -1.6188
  313MOL0     H42251   8.773   7.374  11.709 -0.6391  0.1360 -0.1767
  313MOL0     H42252   9.301   7.531  11.195  0.7616 -0.8216 -1.5108
  313MOL0     H42253   9.652   7.440  11.197  0.5744  0.3669 -0.6076
  313MOL0     H42254   9.536   7.567  11.216 -1.8322  0.0409  0.4494
  313MOL0     H42255   9.572   7.455  11.357 -2.1342  1.9822 -0.4495
  314MOL0     O42256   9.526   9.520   9.150 -0.0132  0.1811 -0.3055
  314MOL0     C42257   9.455   9.584   9.072  0.2551 -0.0328  0.2319
  314MOL0     O42258   9.491   9.685   8.991  0.0362  0.4334  0.1704
  314MOL0     C42259   9.617   9.718   8.977 -0.1919 -0.1496  0.1759
  314MOL0     C42260   9.701   9.745   9.085 -1.1468 -0.2116 -0.0153
  314MOL0     C42261   9.832   9.767   9.069  0.4088  0.0662 -0.3963
  314MOL0     C42262   9.884   9.790   8.941  0.7352  0.1545 -0.2130
  314MOL0     O42263  10.007   9.853   8.936  0.5686  0.1405 -0.1961
  314MOL0     C42264  10.090   9.830   8.820  0.1001 -0.2324  0.4047
  314MOL0     C42265  10.228   9.894   8.847 -0.8638  0.1715  0.6647
  314MOL0     C42266  10.319   9.862   8.733  0.2114  0.3518 -0.7121
  314MOL0     C42267  10.466   9.909   8.749 -0.4803 -0.5668 -0.9788
  314MOL0     C42268  10.565   9.824   8.670 -0.3183  0.7129 -0.6374
  314MOL0     C42269  10.704   9.868   8.721  0.7140 -0.4016  0.1641
  314MOL0     C42270  10.811   9.798   8.645  0.1743 -0.8369 -0.2666
  314MOL0     C42271  10.943   9.841   8.688 -0.2526  0.8242 -0.2030
  314MOL0     N42272  11.031   9.818   8.570 -0.6758  0.1916 -0.0581
  314MOL0     C42273  11.086   9.693   8.540  1.1901  0.0014  0.4228
  314MOL0     C42274  11.191   9.708   8.452  0.0297  0.8283  0.3434
  314MOL0     C42275  11.287   9.598   8.414 -0.8744  0.3829  0.7120
  314MOL0     C42276  11.414   9.645   8.332 -0.0969  0.5033  0.6652
  314MOL0     C42277  11.382   9.670   8.182  0.0120  0.2312  0.0874
  314MOL0     C42278  11.501   9.706   8.102 -0.9293 -0.2706 -0.3527
  314MOL0     O42279  11.604   9.605   8.123  0.6255  0.0861 -0.3509
  314MOL0     C42280  11.726   9.631   8.067  0.2405 -0.2037 -0.6254
  314MOL0     C42281  11.827   9.547   8.092  0.0810 -0.8341 -0.6226
  314MOL0     C42282  11.954   9.563   8.035 -0.1644  0.4954  0.0663
  314MOL0     C42283  11.980   9.665   7.945 -0.0813  0.3446  0.5159
  314MOL0     C42284  12.119   9.692   7.891 -0.2682 -0.1752  0.6569
  314MOL0     O42285  12.144   9.824   7.865 -0.3278 -1.1490  0.1970
  314MOL0     C42286  12.257   9.849   7.793 -0.4905 -0.5657 -0.0713
  314MOL0     C42287  12.371   9.907   7.855 -0.3314 -0.0622 -0.2556
  314MOL0     C42288  12.484   9.924   7.780 -0.2797 -0.0043  0.2258
  314MOL0     C42289  12.483   9.919   7.641  0.4376  0.4758 -0.2215
  314MOL0     O42290  12.606   9.936   7.580 -0.6792  0.4338  0.1083
  314MOL0     C42291  12.644   9.857   7.468  0.1652  0.6807 -0.7363
  314MOL0     C42292  12.783   9.879   7.427  0.6015  0.7063 -0.5542
  314MOL0     C42293  12.878   9.843   7.541  0.5933  0.3511 -1.0345
  314MOL0     C42294  13.030   9.859   7.512  0.3104  0.2446 -0.0942
  314MOL0     C42295  13.116   9.772   7.614 -0.6777 -0.6954  0.1492
  314MOL0     C42296  13.262   9.810   7.605 -0.9673 -0.0187 -0.8100
  314MOL0     C42297  13.343   9.706   7.683 -0.5032  0.0884 -0.6184
  314MOL0     C42298  13.492   9.728   7.679 -0.5202  0.5231  0.1852
  314MOL0    Cl42299  13.568   9.658   7.533 -0.1181  0.2715  0.1622
  314MOL0     C42300  12.367   9.885   7.574  0.0922  0.4968 -1.0557
  314MOL0     C42301  12.259   9.843   7.657 -0.4322  0.2201 -0.5766
  314MOL0     O42302  12.201   9.603   7.879  0.1011 -0.3311  0.0063
  314MOL0     C42303  11.878   9.745   7.911 -0.6870 -0.6505 -0.6386
  314MOL0     C42304  11.749   9.722   7.968  0.8623 -1.3575  0.1554
  314MOL0     N42305  11.178   9.844   8.409 -0.4904  0.2471 -0.6513
  314MOL0     N42306  11.082   9.904   8.476 -0.2380 -0.4224  0.7140
  314MOL0     C42307   9.800   9.767   8.826 -0.7991 -0.2804  0.7104
  314MOL0     C42308   9.668   9.731   8.845 -0.4324 -0.4293  0.4488
  314MOL0     C42309   9.320   9.527   9.061 -0.0725  0.3252  0.5863
  314MOL0     C42310   9.249   9.529   8.942 -0.4270 -0.4145 -0.2530
  314MOL0     C42311   9.121   9.487   8.929 -0.2080 -0.3165 -0.3579
  314MOL0     C42312   9.045   9.450   9.048 -0.1241 -0.2644  1.0379
  314MOL0     O42313   8.911   9.395   9.037 -0.5177 -0.1992  0.5763
  314MOL0     C42314   8.835   9.339   9.147  0.0701 -0.1288 -0.3830
  314MOL0     C42315   8.771   9.433   9.255  0.5354 -1.1893  0.3704
  314MOL0     C42316   8.703   9.558   9.196 -0.4749 -0.3392 -0.5317
  314MOL0     C42317   8.662   9.646   9.311  0.2847  0.1240 -0.4330
  314MOL0     C42318   8.780   9.715   9.368  0.1461 -0.8352 -0.1934
  314MOL0     C42319   8.873   9.776   9.405 -0.7432  0.3263 -0.1155
  314MOL0     C42320   9.114   9.456   9.170  0.8814 -0.3655 -0.4522
  314MOL0     C42321   9.254   9.482   9.177  0.0743 -0.3014 -0.0552
  314MOL0     C42322   9.303   9.485   9.321 -0.5239 -0.4032 -0.6464
  314MOL0     H42323   9.664   9.724   9.185  0.2407 -4.6861 -0.2065
  314MOL0     H42324   9.894   9.770   9.159  0.4540 -1.4845 -0.3536
  314MOL0     H42325  10.089   9.723   8.797 -0.9368  0.3849 -2.9896
  314MOL0     H42326  10.051   9.877   8.729  2.9708 -2.6989 -2.3331
  314MOL0     H42327  10.265   9.850   8.940 -0.0949  0.8396  0.6857
  314MOL0     H42328  10.208  10.001   8.851  1.8160  0.8798 -1.5798
  314MOL0     H42329  10.272   9.891   8.639 -0.3133  2.4538  0.1362
  314MOL0     H42330  10.330   9.753   8.728  0.5178  0.3641 -0.4048
  314MOL0     H42331  10.482  10.014   8.724 -0.1872 -0.9983 -2.7462
  314MOL0     H42332  10.489   9.897   8.855 -2.1527  0.9260 -0.4049
  314MOL0     H42333  10.544   9.717   8.683 -2.5830  0.9429 -1.9489
  314MOL0     H42334  10.549   9.831   8.562 -0.1333 -1.7798 -0.8862
  314MOL0     H42335  10.715   9.976   8.719 -0.4775 -0.2313 -2.8287
  314MOL0     H42336  10.709   9.854   8.829 -0.9260 -0.9857  0.1906
  314MOL0     H42337  10.799   9.824   8.539 -0.5195  2.9894  0.6131
  314MOL0     H42338  10.813   9.689   8.656  1.6448 -0.7381  0.7014
  314MOL0     H42339  10.952   9.949   8.707 -1.7270  1.3976 -2.3285
  314MOL0     H42340  10.982   9.780   8.770 -2.1496  1.3251  1.1270
  314MOL0     H42341  11.069   9.606   8.602 -0.8388  0.8645  1.1521
  314MOL0     H42342  11.332   9.564   8.508  1.5583  1.0416 -0.1391
  314MOL0     H42343  11.224   9.520   8.370 -0.9926  0.0594  1.4415
  314MOL0     H42344  11.462   9.727   8.385 -1.1537 -0.5924  3.4659
  314MOL0     H42345  11.493   9.570   8.340 -0.6097 -0.4228 -1.9601
  314MOL0     H42346  11.302   9.745   8.184 -2.3968 -2.1340 -1.2585
  314MOL0     H42347  11.342   9.582   8.131  0.7771 -0.0020 -0.1320
  314MOL0     H42348  11.533   9.802   8.144 -2.1471  0.4594 -1.0524
  314MOL0     H42349  11.477   9.718   7.996 -2.6659  0.0674  0.0524
  314MOL0     H42350  11.804   9.465   8.160  1.0890 -0.6632 -0.0580
  314MOL0     H42351  12.033   9.500   8.073  0.9000  1.5697 -0.2832
  314MOL0     H42352  12.388   9.918   7.961 -1.8068  0.9827 -0.0878
  314MOL0     H42353  12.582   9.942   7.823 -0.1840 -1.6852  0.7650
  314MOL0     H42354  12.615   9.752   7.482  2.0389  0.1159 -0.7145
  314MOL0     H42355  12.581   9.889   7.385 -2.3974 -3.5309 -0.7116
  314MOL0     H42356  12.806   9.829   7.332  2.8717  2.7669 -1.1868
  314MOL0     H42357  12.792   9.987   7.411  1.4831  0.6559 -0.4580
  314MOL0     H42358  12.847   9.902   7.628 -3.6009 -0.8920 -1.4526
  314MOL0     H42359  12.859   9.738   7.566 -0.3266  0.6601 -0.3761
  314MOL0     H42360  13.052   9.965   7.514 -3.1378  1.1010 -0.1142
  314MOL0     H42361  13.053   9.812   7.416  3.4382 -2.8750  1.9188
  314MOL0     H42362  13.107   9.667   7.588  2.5161 -1.2926  1.0144
  314MOL0     H42363  13.090   9.789   7.719 -1.4390  3.3302 -0.5081
  314MOL0     H42364  13.302   9.807   7.503  3.3223 -0.2471  0.6555
  314MOL0     H42365  13.282   9.910   7.645 -0.2218  0.2922 -1.9161
  314MOL0     H42366  13.325   9.606   7.640 -3.3604  1.5960 -3.3314
  314MOL0     H42367  13.322   9.713   7.790  1.0886 -1.4878 -0.1545
  314MOL0     H42368  13.516   9.834   7.681 -0.0551  0.4855 -1.4216
  314MOL0     H42369  13.533   9.680   7.768 -0.7116  1.1087  0.5963
  314MOL0     H42370  12.387   9.864   7.469  3.3223 -0.1272 -0.4509
  314MOL0     H42371  12.176   9.794   7.607  2.4235 -1.9762 -3.6180
  314MOL0     H42372  11.882   9.820   7.832 -0.3765 -0.4133 -0.3985
  314MOL0     H42373  11.662   9.779   7.935  1.0867 -0.4619  1.0640
  314MOL0     H42374   9.832   9.809   8.732  0.8767 -1.2902  0.7741
  314MOL0     H42375   9.596   9.727   8.764  1.2189 -2.7757 -1.0155
  314MOL0     H42376   9.289   9.564   8.847 -0.6374 -1.2526 -0.6623
  314MOL0     H42377   9.078   9.481   8.829 -1.0100 -0.6674  0.0060
  314MOL0     H42378   8.889   9.251   9.183  2.5984  0.9627 -1.2569
  314MOL0     H42379   8.747   9.300   9.096 -1.7309 -0.1286  2.4822
  314MOL0     H42380   8.848   9.470   9.323  0.3115 -0.4307  0.2295
  314MOL0     H42381   8.701   9.376   9.316 -0.7786 -0.7941 -0.7002
  314MOL0     H42382   8.609   9.529   9.148  0.8511 -2.0218 -2.2770
  314MOL0     H42383   8.767   9.607   9.122 -1.1990 -0.0863 -1.0100
  314MOL0     H42384   8.597   9.723   9.270  0.5581  0.2659 -0.6087
  314MOL0     H42385   8.614   9.581   9.385 -0.3084 -1.9391 -2.4905
  314MOL0     H42386   8.964   9.826   9.429 -0.7328  1.3507 -2.1159
  314MOL0     H42387   9.066   9.426   9.263  4.0293 -0.1501  1.4156
  314MOL0     H42388   9.234   9.422   9.378 -1.7590 -2.9340 -4.5319
  314MOL0     H42389   9.404   9.444   9.329 -0.3995 -0.0359 -0.2310
  314MOL0     H42390   9.305   9.586   9.364 -0.1037 -0.2089 -1.1104
  315MOL0     O42391   0.590   4.882   6.594  0.1235  0.2714  0.1140
  315MOL0     C42392   0.609   5.007   6.596 -0.3807 -0.2951 -0.0227
  315MOL0     O42393   0.732   5.064   6.593 -0.0890 -0.1195 -0.1413
  315MOL0     C42394   0.836   4.973   6.590  0.4602  1.3231 -0.2797
  315MOL0     C42395   0.926   4.965   6.704 -0.2009 -0.1323  1.3906
  315MOL0     C42396   1.039   4.877   6.698 -0.1556 -0.4729 -0.7516
  315MOL0     C42397   1.063   4.796   6.583  0.0966 -0.2671 -0.5604
  315MOL0     O42398   1.156   4.691   6.579 -0.1396 -0.0470 -0.4690
  315MOL0     C42399   1.234   4.648   6.685 -0.3538  0.3623 -0.0916
  315MOL0     C42400   1.369   4.715   6.693  0.3663 -0.3247  0.7583
  315MOL0     C42401   1.474   4.651   6.604 -0.4523  0.2941 -0.1517
  315MOL0     C42402   1.612   4.727   6.603  0.6109 -0.4785 -0.0001
  315MOL0     C42403   1.710   4.666   6.501  0.6684 -0.9552  0.0644
  315MOL0     C42404   1.839   4.749   6.501 -0.2630  0.0137  0.4094
  315MOL0     C42405   1.945   4.695   6.402  0.0139  0.2976 -0.2711
  315MOL0     C42406   2.061   4.798   6.385 -1.6452  0.1414 -0.1790
  315MOL0     N42407   2.155   4.771   6.272 -0.3062 -0.2979 -0.0629
  315MOL0     C42408   2.158   4.822   6.143 -0.4977  0.0963 -0.5903
  315MOL0     C42409   2.269   4.767   6.080 -0.5749 -0.9852 -0.0357
  315MOL0     C42410   2.337   4.813   5.952 -0.4877  0.0966 -0.4918
  315MOL0     C42411   2.487   4.779   5.968  0.1732 -0.7561 -0.7612
  315MOL0     C42412   2.559   4.818   5.841  0.1641 -0.1227 -0.3701
  315MOL0     C42413   2.710   4.847   5.868 -0.8552  0.5939 -0.7189
  315MOL0     O42414   2.772   4.738   5.941  0.2909 -0.5150  0.0132
  315MOL0     C42415   2.895   4.722   5.893 -0.3562  0.9299  0.2749
  315MOL0     C42416   2.997   4.807   5.936 -0.9219 -0.0899 -0.5161
  315MOL0     C42417   3.125   4.782   5.898  0.1828 -0.2779  0.7820
  315MOL0     C42418   3.154   4.677   5.814  0.1248  0.8357 -0.4904
  315MOL0     C42419   3.296   4.637   5.782 -0.3882  0.2114 -0.0827
  315MOL0     O42420   3.395   4.728   5.819  0.0672  0.4001  0.8300
  315MOL0     C42421   3.528   4.708   5.810 -0.0362  0.1982  0.1112
  315MOL0     C42422   3.601   4.595   5.765  0.5100  0.0613  0.3557
  315MOL0     C42423   3.734   4.585   5.774  0.1788  0.3082  1.2588
  315MOL0     C42424   3.814   4.695   5.814  1.2838 -0.0234  0.2691
  315MOL0     O42425   3.949   4.690   5.832  0.4242 -0.0151  0.4436
  315MOL0     C42426   4.027   4.607   5.741 -0.0409 -0.1890  0.5206
  315MOL0     C42427   4.183   4.611   5.757 -0.5563  0.3624 -0.4308
  315MOL0     C42428   4.226   4.761   5.786  0.4308  0.3761 -0.2547
  315MOL0     C42429   4.382   4.770   5.805 -0.1620 -0.3444  0.1695
  315MOL0     C42430   4.423   4.887   5.903 -0.7105  0.2123  0.1730
  315MOL0     C42431   4.580   4.890   5.934  0.8235  0.2341 -0.5057
  315MOL0     C42432   4.644   5.022   5.914 -0.2943 -0.0031 -0.1320
  315MOL0     C42433   4.793   5.019   5.913  0.0540  0.4091 -0.7808
  315MOL0    Cl42434   4.865   5.173   5.907 -0.3981 -0.8611  0.0593
  315MOL0     C42435   3.744   4.804   5.870 -0.7498  0.3882  0.5030
  315MOL0     C42436   3.606   4.806   5.862 -0.8574 -0.6685 -0.3819
  315MOL0     O42437   3.322   4.534   5.727 -0.3080  0.1920 -0.3247
  315MOL0     C42438   3.052   4.598   5.775 -0.3830 -0.5530 -0.1417
  315MOL0     C42439   2.926   4.620   5.806 -0.5635  0.1132 -0.5800
  315MOL0     N42440   2.315   4.676   6.172  0.2895  0.0503  0.4664
  315MOL0     N42441   2.246   4.674   6.281  0.0207 -0.0302  0.0355
  315MOL0     C42442   0.969   4.794   6.480 -0.6993 -0.3971  0.4348
  315MOL0     C42443   0.863   4.887   6.481  0.5915 -0.4612 -0.2537
  315MOL0     C42444   0.491   5.097   6.594 -0.3694 -0.7551  0.5616
  315MOL0     C42445   0.510   5.228   6.642  0.0101 -0.5746 -0.4473
  315MOL0     C42446   0.410   5.318   6.639  0.6174 -0.0749  0.1376
  315MOL0     C42447   0.285   5.292   6.580  0.2194 -0.5641 -0.5540
  315MOL0     O42448   0.199   5.401   6.571 -0.4432 -0.1123 -0.1401
  315MOL0     C42449   0.112   5.424   6.459 -0.2230 -0.5343 -0.3496
  315MOL0     C42450  -0.020   5.418   6.530  0.2637 -0.1123  0.0287
  315MOL0     C42451  -0.042   5.496   6.667 -1.0427  0.3013  1.1524
  315MOL0     C42452  -0.175   5.463   6.723 -0.1045  0.3005 -1.0211
  315MOL0     C42453  -0.291   5.496   6.650 -0.6062  0.0830 -0.0610
  315MOL0     C42454  -0.398   5.519   6.595 -0.0419  0.1517 -0.0589
  315MOL0     C42455   0.264   5.165   6.542 -0.1060 -0.3528  0.5347
  315MOL0     C42456   0.360   5.065   6.548 -0.2639  1.5410 -0.9806
  315MOL0     C42457   0.320   4.922   6.520  0.3228 -0.1607  0.9853
  315MOL0     H42458   0.889   5.026   6.785 -0.8866  0.5320  0.6094
  315MOL0     H42459   1.107   4.869   6.782 -0.2911 -1.4270 -0.7248
  315MOL0     H42460   1.183   4.670   6.779  3.0220  2.1996  1.5129
  315MOL0     H42461   1.253   4.541   6.667  4.3968  1.2468 -1.7383
  315MOL0     H42462   1.412   4.704   6.793 -1.4853  0.7202  1.7204
  315MOL0     H42463   1.374   4.822   6.672 -1.2463 -0.7304 -2.1957
  315MOL0     H42464   1.434   4.632   6.504 -2.0915  1.8057  0.1782
  315MOL0     H42465   1.488   4.553   6.651 -3.6642 -0.0849  0.2085
  315MOL0     H42466   1.595   4.832   6.580  4.1108  1.0120  3.1828
  315MOL0     H42467   1.648   4.722   6.706 -0.5439 -1.1165  0.3910
  315MOL0     H42468   1.726   4.561   6.524  1.7458 -0.4628  1.7795
  315MOL0     H42469   1.657   4.671   6.406  1.8970  1.8996 -0.5811
  315MOL0     H42470   1.814   4.852   6.476  1.7718  0.6786  0.9449
  315MOL0     H42471   1.892   4.749   6.597  1.3599 -0.3189 -0.4672
  315MOL0     H42472   1.903   4.670   6.304 -0.3005 -0.9287  0.1607
  315MOL0     H42473   1.982   4.601   6.443 -0.1693  0.7907  1.0808
  315MOL0     H42474   2.022   4.898   6.363  2.6814  1.8190 -1.2315
  315MOL0     H42475   2.123   4.799   6.476 -1.5059  0.8685 -0.2743
  315MOL0     H42476   2.107   4.913   6.115  1.4379  1.7113  0.8513
  315MOL0     H42477   2.306   4.763   5.860 -1.2011 -0.1313 -0.1356
  315MOL0     H42478   2.331   4.922   5.945  0.5722  0.1538 -0.8158
  315MOL0     H42479   2.527   4.837   6.052  1.5211 -2.1277 -0.4156
  315MOL0     H42480   2.506   4.678   6.004  1.3742  0.1910  1.4781
  315MOL0     H42481   2.506   4.901   5.794 -0.7758 -0.1091  0.6856
  315MOL0     H42482   2.552   4.741   5.763  2.8456  1.3679 -2.2762
  315MOL0     H42483   2.726   4.944   5.917  4.7278 -0.2512 -0.1975
  315MOL0     H42484   2.753   4.870   5.771  1.9753  1.5774  0.6636
  315MOL0     H42485   2.975   4.895   5.996 -0.2436  0.7435 -1.4586
  315MOL0     H42486   3.198   4.851   5.940 -0.0430  0.5072 -0.0817
  315MOL0     H42487   3.564   4.500   5.728  2.6777 -0.8500  0.3632
  315MOL0     H42488   3.781   4.496   5.735  0.3225  0.6797  0.5853
  315MOL0     H42489   3.998   4.502   5.737 -2.7110  0.4911 -1.6331
  315MOL0     H42490   4.008   4.646   5.640  3.9889  2.5504  0.5802
  315MOL0     H42491   4.219   4.562   5.848 -0.1246  1.8757  0.2358
  315MOL0     H42492   4.239   4.561   5.677 -1.2825 -0.9825 -0.1318
  315MOL0     H42493   4.185   4.827   5.709 -0.6450  2.9385  2.2993
  315MOL0     H42494   4.190   4.799   5.883  0.8352  0.9452 -0.3195
  315MOL0     H42495   4.430   4.783   5.708  1.0754  1.9982  1.0048
  315MOL0     H42496   4.426   4.681   5.851 -0.4851 -0.4553  0.2667
  315MOL0     H42497   4.374   4.880   6.001  0.9498  0.1343  1.0199
  315MOL0     H42498   4.394   4.975   5.845 -2.4015 -0.5046 -0.1333
  315MOL0     H42499   4.600   4.863   6.038 -0.8705  0.6740 -0.0245
  315MOL0     H42500   4.629   4.822   5.864  0.6052 -1.7842  1.1723
  315MOL0     H42501   4.610   5.092   5.991  1.1043  0.9399 -0.3295
  315MOL0     H42502   4.615   5.051   5.813 -3.0513 -1.6727  0.0804
  315MOL0     H42503   4.824   4.977   6.009  1.1253  2.3327 -0.2349
  315MOL0     H42504   4.820   4.952   5.830 -0.0282  1.3031 -1.5474
  315MOL0     H42505   3.806   4.879   5.918  0.0869 -0.4588  0.7802
  315MOL0     H42506   3.565   4.890   5.917  1.9755 -0.6681  1.9259
  315MOL0     H42507   3.080   4.511   5.716  1.2162  1.4630 -2.5877
  315MOL0     H42508   2.857   4.552   5.757 -0.3002 -0.4011 -0.2395
  315MOL0     H42509   0.976   4.722   6.399  2.3973 -0.8858  1.0276
  315MOL0     H42510   0.791   4.883   6.399 -0.8649  0.6574  0.9185
  315MOL0     H42511   0.607   5.266   6.671 -0.3880  1.4257 -1.5854
  315MOL0     H42512   0.436   5.419   6.667  0.9176  0.1915 -1.0373
  315MOL0     H42513   0.122   5.340   6.389 -3.1283 -2.7715  1.6840
  315MOL0     H42514   0.122   5.519   6.406 -1.4827 -0.5411 -0.6234
  315MOL0     H42515  -0.034   5.312   6.552 -2.3651  0.4700  1.5154
  315MOL0     H42516  -0.097   5.457   6.463  0.8695  3.4170  1.1516
  315MOL0     H42517  -0.017   5.603   6.658  1.1395 -0.1187  1.5587
  315MOL0     H42518   0.033   5.452   6.733 -0.0586  0.0597 -0.1037
  315MOL0     H42519  -0.175   5.356   6.746 -1.2883  0.7616  1.4262
  315MOL0     H42520  -0.174   5.515   6.819  5.1207  2.3241 -1.7918
  315MOL0     H42521  -0.500   5.524   6.564 -0.8149 -1.8727  1.8977
  315MOL0     H42522   0.168   5.149   6.494  0.3826  0.5243 -0.8110
  315MOL0     H42523   0.323   4.863   6.612 -0.1271  2.1033  2.5246
  315MOL0     H42524   0.222   4.926   6.473  0.0999  4.4206  1.4226
  315MOL0     H42525   0.387   4.877   6.446  0.0779  0.8272  0.1455
  316MOL0     O42526   0.309   4.361   8.079  0.3505 -0.5739  0.4917
  316MOL0     C42527   0.279   4.325   7.965 -0.1491  0.6537 -0.1479
  316MOL0     O42528   0.365   4.312   7.856 -0.0380  0.2472 -0.9359
  316MOL0     C42529   0.496   4.336   7.864 -0.1809  0.3060 -0.1795
  316MOL0     C42530   0.562   4.422   7.959 -0.3186 -0.4569  0.1785
  316MOL0     C42531   0.701   4.443   7.951  0.1592  0.3421 -0.0019
  316MOL0     C42532   0.779   4.372   7.862  0.3949 -0.0153 -0.8035
  316MOL0     O42533   0.921   4.379   7.853  0.6009 -0.1035 -0.7827
  316MOL0     C42534   0.984   4.475   7.936 -0.3239  0.1027  0.5073
  316MOL0     C42535   1.131   4.449   7.935 -0.6919  0.8684 -0.3889
  316MOL0     C42536   1.195   4.528   8.055  0.0449 -0.2784 -0.3222
  316MOL0     C42537   1.341   4.511   8.061 -1.3485  0.1418  0.3762
  316MOL0     C42538   1.407   4.643   8.109 -0.2762  0.0185 -0.0873
  316MOL0     C42539   1.558   4.647   8.106 -0.1621 -0.5706 -1.0144
  316MOL0     C42540   1.636   4.552   8.194 -0.0471  0.8468 -0.6737
  316MOL0     C42541   1.776   4.601   8.248  1.0218 -0.3768 -0.0342
  316MOL0     N42542   1.853   4.660   8.143 -0.1504 -0.1019 -0.6501
  316MOL0     C42543   1.943   4.759   8.158 -1.0480  0.0687 -0.5813
  316MOL0     C42544   2.017   4.741   8.046 -0.2514 -0.2718 -0.5570
  316MOL0     C42545   2.136   4.836   8.006  0.5875  0.3048 -0.1539
  316MOL0     C42546   2.276   4.782   8.037 -0.6561 -0.4743  0.4285
  316MOL0     C42547   2.316   4.795   8.186  0.4146 -0.2666  0.7368
  316MOL0     C42548   2.457   4.738   8.214 -0.0624 -0.0765 -0.7424
  316MOL0     O42549   2.555   4.840   8.191 -0.2840  0.5971 -0.2777
  316MOL0     C42550   2.682   4.798   8.195 -0.0419 -0.5950  0.6984
  316MOL0     C42551   2.768   4.889   8.130  0.2123  0.2401 -0.8167
  316MOL0     C42552   2.907   4.856   8.122  0.2133 -0.2207 -0.2299
  316MOL0     C42553   2.959   4.738   8.162 -0.6451  0.3564 -0.1844
  316MOL0     C42554   3.105   4.702   8.167  0.0310  0.1912 -0.3533
  316MOL0     O42555   3.140   4.584   8.212  0.1160 -0.3499 -0.2210
  316MOL0     C42556   3.263   4.547   8.197 -0.5096  0.3097 -0.7462
  316MOL0     C42557   3.334   4.533   8.314  0.8597  0.4784 -0.2360
  316MOL0     C42558   3.458   4.488   8.310 -0.2161  0.1748 -0.2135
  316MOL0     C42559   3.526   4.444   8.191  0.3350  0.5392 -0.3403
  316MOL0     O42560   3.658   4.413   8.214 -0.4297 -0.3825  0.3730
  316MOL0     C42561   3.723   4.337   8.114  0.0738  0.5300 -0.2422
  316MOL0     C42562   3.673   4.189   8.096  0.3514 -0.1299 -0.4857
  316MOL0     C42563   3.698   4.106   8.226 -0.0376  0.4225 -0.1389
  316MOL0     C42564   3.839   4.042   8.234 -0.0703  0.5944 -1.0860
  316MOL0     C42565   3.873   3.974   8.365  0.2181  0.3415  0.5569
  316MOL0     C42566   3.751   3.905   8.434 -1.0271 -0.4036 -0.5520
  316MOL0     C42567   3.808   3.784   8.513 -0.5342 -0.1765 -0.6018
  316MOL0     C42568   3.685   3.699   8.553  0.2080 -0.6033 -0.0370
  316MOL0    Cl42569   3.737   3.544   8.627 -0.0457  0.0903  0.1851
  316MOL0     C42570   3.461   4.461   8.076  0.2937  0.4066  0.6861
  316MOL0     C42571   3.326   4.510   8.078  0.3041  0.8192 -0.5399
  316MOL0     O42572   3.180   4.778   8.119  0.1524 -0.5139 -0.0884
  316MOL0     C42573   2.869   4.644   8.214 -0.0241 -0.4759 -0.4507
  316MOL0     C42574   2.735   4.670   8.231 -0.2273  0.5615  0.7466
  316MOL0     N42575   1.980   4.629   7.971  1.0228  0.1470 -0.3700
  316MOL0     N42576   1.880   4.582   8.033  0.2509 -0.4286 -0.1229
  316MOL0     C42577   0.716   4.290   7.776 -0.5304  0.3373 -0.4684
  316MOL0     C42578   0.574   4.261   7.785 -0.1012  0.6796 -0.3757
  316MOL0     C42579   0.129   4.312   7.952  0.1211  0.2298  0.1830
  316MOL0     C42580   0.043   4.350   8.059 -0.5047  0.1851 -0.2188
  316MOL0     C42581  -0.096   4.356   8.053 -0.1196  0.6153 -0.1215
  316MOL0     C42582  -0.153   4.315   7.928 -0.3507 -0.2654 -0.3507
  316MOL0     O42583  -0.284   4.344   7.889  0.9405 -0.4141  0.5637
  316MOL0     C42584  -0.375   4.402   7.988 -0.9384  0.0678 -0.1176
  316MOL0     C42585  -0.512   4.389   7.928  0.1659 -0.2053  0.3157
  316MOL0     C42586  -0.570   4.237   7.917 -0.4708 -0.3747 -0.8207
  316MOL0     C42587  -0.698   4.232   7.829 -0.4338  0.0895  0.3847
  316MOL0     C42588  -0.796   4.316   7.883  0.6278  0.0297  0.2636
  316MOL0     C42589  -0.891   4.383   7.921  0.2906 -0.3024  0.6803
  316MOL0     C42590  -0.076   4.264   7.822 -0.9529  0.3058 -0.5679
  316MOL0     C42591   0.061   4.271   7.831  0.0281  1.0657  0.9153
  316MOL0     C42592   0.135   4.235   7.702 -0.1794  0.1605 -0.6981
  316MOL0     H42593   0.506   4.479   8.033 -0.1593 -1.7888  1.3682
  316MOL0     H42594   0.744   4.504   8.030  1.6277  0.3336 -0.7711
  316MOL0     H42595   0.962   4.575   7.900  0.7746  0.7235  1.4885
  316MOL0     H42596   0.947   4.460   8.038 -1.5689  0.8864  0.1874
  316MOL0     H42597   1.169   4.471   7.834 -0.3218  0.7081 -0.2862
  316MOL0     H42598   1.146   4.343   7.961  2.5447  1.6759  1.6629
  316MOL0     H42599   1.148   4.494   8.148 -0.5222  0.6463 -0.2558
  316MOL0     H42600   1.167   4.634   8.054 -0.3367 -0.3196  1.5498
  316MOL0     H42601   1.379   4.432   8.127  3.0865  1.4071 -0.3212
  316MOL0     H42602   1.381   4.486   7.962 -0.6712 -3.3478  1.3811
  316MOL0     H42603   1.371   4.733   8.057 -0.6461  0.1635  0.4125
  316MOL0     H42604   1.360   4.660   8.206 -3.6892 -0.3383 -1.5229
  316MOL0     H42605   1.591   4.621   8.004  4.8241 -0.1989  0.2329
  316MOL0     H42606   1.589   4.747   8.137 -1.6479 -1.3977  3.9679
  316MOL0     H42607   1.644   4.462   8.134  0.2378 -0.4099  1.1594
  316MOL0     H42608   1.582   4.526   8.286  1.5605 -0.6300 -0.1018
  316MOL0     H42609   1.764   4.673   8.329 -1.0366  2.1644 -2.3803
  316MOL0     H42610   1.830   4.512   8.281 -0.0546 -0.5257  1.4305
  316MOL0     H42611   1.952   4.829   8.241 -5.0065 -1.3866  1.3041
  316MOL0     H42612   2.124   4.846   7.898  2.2097 -0.0350 -0.3931
  316MOL0     H42613   2.120   4.935   8.049  1.0854 -0.2280  1.3549
  316MOL0     H42614   2.277   4.677   8.007  4.0415 -0.7957  0.9649
  316MOL0     H42615   2.349   4.833   7.973 -1.8900 -1.8159 -2.1720
  316MOL0     H42616   2.235   4.745   8.240 -1.7663  1.0642 -1.1195
  316MOL0     H42617   2.321   4.902   8.204  1.0765  0.0913 -1.3407
  316MOL0     H42618   2.470   4.647   8.155  0.1413  1.7681 -3.7310
  316MOL0     H42619   2.455   4.698   8.316 -0.1195 -0.4628 -0.8908
  316MOL0     H42620   2.737   4.973   8.069  0.1121 -0.8622 -2.3177
  316MOL0     H42621   2.975   4.928   8.079  1.9087 -2.0931 -0.8311
  316MOL0     H42622   3.286   4.542   8.411 -0.5419 -4.3637 -0.2017
  316MOL0     H42623   3.510   4.481   8.405  0.3332  1.1829 -0.4289
  316MOL0     H42624   3.722   4.405   8.029  0.5347  2.0317  0.8979
  316MOL0     H42625   3.826   4.319   8.145 -0.7197 -2.1381  1.1667
  316MOL0     H42626   3.565   4.186   8.079  0.0334 -0.2639  1.2803
  316MOL0     H42627   3.722   4.146   8.009  1.1086  1.2601 -0.7751
  316MOL0     H42628   3.692   4.177   8.309 -1.1686  2.1284 -1.6113
  316MOL0     H42629   3.621   4.030   8.238  1.1450 -0.9885 -1.1985
  316MOL0     H42630   3.910   4.123   8.216  0.0104  0.4779 -1.3076
  316MOL0     H42631   3.853   3.970   8.152 -0.0482 -1.0963  0.3240
  316MOL0     H42632   3.909   4.045   8.441  0.1200  0.5121  0.4443
  316MOL0     H42633   3.958   3.907   8.349  1.0391  0.8917  2.3085
  316MOL0     H42634   3.693   3.967   8.503  0.0214  0.9850 -0.8765
  316MOL0     H42635   3.681   3.859   8.363  1.3735 -4.2899 -0.7084
  316MOL0     H42636   3.849   3.816   8.609 -1.8491  0.9084 -0.3586
  316MOL0     H42637   3.883   3.725   8.460 -1.5323 -2.7885  0.7130
  316MOL0     H42638   3.622   3.758   8.620  0.1689  1.0575 -1.4713
  316MOL0     H42639   3.616   3.681   8.470 -1.7525  0.1334  1.3507
  316MOL0     H42640   3.508   4.442   7.979 -0.6041  0.3687  0.2532
  316MOL0     H42641   3.282   4.523   7.980 -3.1781  1.7275  0.9886
  316MOL0     H42642   2.896   4.548   8.257  1.0707 -0.4933 -1.1339
  316MOL0     H42643   2.666   4.597   8.273 -0.1306 -0.5603 -0.9550
  316MOL0     H42644   0.771   4.237   7.699 -2.4497  0.0399 -1.7291
  316MOL0     H42645   0.522   4.192   7.720  0.9366 -0.0182 -0.5052
  316MOL0     H42646   0.088   4.365   8.156  0.1581 -0.6083 -0.3953
  316MOL0     H42647  -0.150   4.387   8.141 -0.0361  1.3954 -0.3356
  316MOL0     H42648  -0.376   4.510   8.003 -1.2409 -0.0337  0.6097
  316MOL0     H42649  -0.363   4.356   8.086 -1.5136  1.0186  0.4077
  316MOL0     H42650  -0.509   4.446   7.835  2.6830 -1.5229 -0.4828
  316MOL0     H42651  -0.580   4.431   8.003 -0.5478 -1.3892  0.3660
  316MOL0     H42652  -0.591   4.202   8.018  0.0396  1.2503 -0.1159
  316MOL0     H42653  -0.490   4.167   7.891 -0.4676 -1.2560  1.3554
  316MOL0     H42654  -0.676   4.275   7.731 -0.3888  0.9769  0.7747
  316MOL0     H42655  -0.722   4.126   7.822  3.6022 -0.8859 -1.7507
  316MOL0     H42656  -0.985   4.433   7.933  1.7780  3.4094 -1.3523
  316MOL0     H42657  -0.142   4.233   7.741 -2.4082 -2.5308  1.5212
  316MOL0     H42658   0.065   4.204   7.625 -0.7313  0.5921 -0.3770
  316MOL0     H42659   0.187   4.325   7.669 -2.0130  1.7074  0.4179
  316MOL0     H42660   0.197   4.152   7.740  0.3580  1.7669  2.2696
  317MOL0     O42661  10.720   5.027   4.020  0.4893  0.2197 -0.3453
  317MOL0     C42662  10.629   5.104   4.056 -1.1296  0.1855  0.4463
  317MOL0     O42663  10.657   5.233   4.109 -0.8187 -0.2975 -0.7433
  317MOL0     C42664  10.784   5.289   4.087 -0.3352 -0.2029 -0.5344
  317MOL0     C42665  10.850   5.298   3.962  0.7521  1.3364  0.2266
  317MOL0     C42666  10.958   5.379   3.943  0.4582 -0.0271  0.8465
  317MOL0     C42667  11.021   5.440   4.046 -0.5510 -0.3596 -0.7493
  317MOL0     O42668  11.140   5.502   4.019  0.1413  0.1877 -0.5904
  317MOL0     C42669  11.136   5.639   4.044 -0.0540 -0.2708 -0.0681
  317MOL0     C42670  11.283   5.679   4.082  0.5085 -0.2482  0.0863
  317MOL0     C42671  11.308   5.636   4.230  0.6585 -0.0549  0.5347
  317MOL0     C42672  11.427   5.718   4.277 -0.3801 -0.5106  0.3458
  317MOL0     C42673  11.475   5.679   4.418  0.3282 -0.1210 -0.1524
  317MOL0     C42674  11.575   5.784   4.467 -0.1387  0.3525  0.5576
  317MOL0     C42675  11.668   5.735   4.582 -0.7339  0.3656 -0.4711
  317MOL0     C42676  11.760   5.621   4.548 -0.8495 -0.1184  0.3663
  317MOL0     N42677  11.859   5.598   4.657 -0.5190  0.3962 -0.5313
  317MOL0     C42678  11.975   5.668   4.675 -0.4647  1.1028  0.0318
  317MOL0     C42679  12.039   5.609   4.784  0.2884 -0.5596  0.8093
  317MOL0     C42680  12.181   5.637   4.845  0.2979 -0.2617 -0.2673
  317MOL0     C42681  12.235   5.784   4.867  0.3210  0.1218 -0.0765
  317MOL0     C42682  12.377   5.791   4.936  0.1668 -0.2380  0.0240
  317MOL0     C42683  12.422   5.938   4.935 -0.3904 -0.6182 -0.1339
  317MOL0     O42684  12.568   5.941   4.982 -0.5293  0.1383 -0.0197
  317MOL0     C42685  12.611   5.937   5.109  0.6276  1.0396 -0.8858
  317MOL0     C42686  12.520   5.942   5.219 -0.5995  0.2053  0.3115
  317MOL0     C42687  12.566   5.949   5.347  0.9670 -0.2226 -0.3409
  317MOL0     C42688  12.704   5.952   5.375  0.9434  0.8086  0.2093
  317MOL0     C42689  12.766   5.947   5.508  0.1939  0.1591 -0.4527
  317MOL0     O42690  12.891   5.901   5.534 -0.0474 -0.6199 -0.0143
  317MOL0     C42691  12.936   5.908   5.664 -0.5039 -0.0321 -0.5569
  317MOL0     C42692  12.953   6.028   5.745  0.9205 -0.1917  0.8205
  317MOL0     C42693  13.020   6.025   5.866  0.1455  1.1170 -0.6318
  317MOL0     C42694  13.073   5.902   5.914  0.7018  0.0188  0.2624
  317MOL0     O42695  13.141   5.889   6.035  0.5736  0.4813  0.1837
  317MOL0     C42696  13.186   6.010   6.099 -0.6344 -0.1973  0.2842
  317MOL0     C42697  13.294   5.973   6.201 -0.3265 -0.2136  0.7377
  317MOL0     C42698  13.414   5.950   6.121  0.0690  0.3384  0.1411
  317MOL0     C42699  13.523   5.906   6.211 -0.4525 -0.8008  0.0207
  317MOL0     C42700  13.645   5.867   6.134  0.0128  0.0775 -0.0663
  317MOL0     C42701  13.746   5.807   6.224  0.4001  0.2929 -0.3313
  317MOL0     C42702  13.869   5.753   6.154  0.0178 -0.3511 -0.5414
  317MOL0     C42703  13.957   5.676   6.257 -0.6304 -0.1092  0.6958
  317MOL0    Cl42704  14.117   5.631   6.184 -0.1100 -0.2242  0.2094
  317MOL0     C42705  13.043   5.779   5.842 -0.7013  0.2819 -0.6664
  317MOL0     C42706  12.981   5.783   5.718 -1.0822 -0.2576 -0.5370
  317MOL0     O42707  12.689   5.986   5.594  1.5170  0.4865 -0.4779
  317MOL0     C42708  12.790   5.951   5.266 -0.2660 -0.2916  0.0560
  317MOL0     C42709  12.747   5.943   5.142 -0.2953 -0.3245  0.5186
  317MOL0     N42710  11.954   5.500   4.826 -0.3707 -0.9607 -0.0982
  317MOL0     N42711  11.852   5.503   4.753  0.9908  0.0607 -0.0538
  317MOL0     C42712  10.957   5.434   4.174 -0.0778 -0.3591  0.2867
  317MOL0     C42713  10.838   5.374   4.185  0.0263 -1.0823 -0.3067
  317MOL0     C42714  10.493   5.064   4.041  0.3807  0.9791 -0.5753
  317MOL0     C42715  10.398   5.165   4.046  0.6926 -0.6911  0.0075
  317MOL0     C42716  10.259   5.132   4.028 -0.4636 -0.1817  0.6292
  317MOL0     C42717  10.220   5.000   3.996  0.0031  0.5017 -0.2491
  317MOL0     O42718  10.094   4.962   3.965  0.5681  0.2133  0.0228
  317MOL0     C42719  10.009   4.943   4.074 -0.1053 -0.2336 -0.9459
  317MOL0     C42720   9.888   5.032   4.074 -0.2626  0.5080  0.9247
  317MOL0     C42721   9.787   4.986   3.970 -0.6602  0.3501  0.5024
  317MOL0     C42722   9.680   5.082   3.918 -0.8845  0.0286 -0.5684
  317MOL0     C42723   9.587   5.117   4.022 -0.4668 -0.6946  0.0722
  317MOL0     C42724   9.516   5.149   4.113 -0.7448  0.8071  0.2636
  317MOL0     C42725  10.323   4.899   4.001  0.3763  0.9428 -0.0989
  317MOL0     C42726  10.450   4.930   4.030  0.6533  0.4103  0.1880
  317MOL0     C42727  10.542   4.808   4.040 -0.4289 -0.5285 -0.3456
  317MOL0     H42728  10.805   5.254   3.874  0.7190  0.7474  0.5319
  317MOL0     H42729  10.989   5.386   3.839  1.1642 -1.3260  0.9372
  317MOL0     H42730  11.104   5.683   3.949  1.3281 -0.6386 -0.7275
  317MOL0     H42731  11.065   5.670   4.121  1.5358  3.3590  0.1218
  317MOL0     H42732  11.286   5.788   4.074 -2.8394  0.2572  3.1772
  317MOL0     H42733  11.353   5.620   4.022  0.5226 -1.7054  1.4689
  317MOL0     H42734  11.326   5.529   4.243  1.2903 -0.2976 -1.7551
  317MOL0     H42735  11.227   5.661   4.298  1.1812 -1.4040  1.6867
  317MOL0     H42736  11.515   5.710   4.213 -0.7879  1.3156 -0.5155
  317MOL0     H42737  11.397   5.823   4.273  2.6250  0.4141 -2.7460
  317MOL0     H42738  11.396   5.667   4.492 -0.5041  1.2676 -0.7833
  317MOL0     H42739  11.528   5.583   4.424  0.6979  0.1508  1.4397
  317MOL0     H42740  11.636   5.827   4.387 -1.2521  1.3672  0.2161
  317MOL0     H42741  11.510   5.859   4.514 -0.7852  0.0705  0.1302
  317MOL0     H42742  11.593   5.698   4.653 -2.9708  0.7365 -2.4836
  317MOL0     H42743  11.733   5.813   4.623 -0.5620 -0.0897  0.1451
  317MOL0     H42744  11.704   5.527   4.539  0.5865 -1.0520  0.7961
  317MOL0     H42745  11.811   5.648   4.455 -2.5976  2.6417  0.0805
  317MOL0     H42746  12.014   5.748   4.614  0.5260  0.4807 -0.1867
  317MOL0     H42747  12.191   5.576   4.935  2.6808 -1.3069 -1.1448
  317MOL0     H42748  12.244   5.581   4.775  0.5175 -1.1684  0.6157
  317MOL0     H42749  12.245   5.823   4.765  0.3356  0.5533  0.0891
  317MOL0     H42750  12.157   5.829   4.928  1.2236 -0.3788  1.4877
  317MOL0     H42751  12.441   5.720   4.883 -0.4673 -1.9043  1.3831
  317MOL0     H42752  12.369   5.759   5.040 -0.7115  1.2377  0.4343
  317MOL0     H42753  12.360   6.006   4.994  0.3356 -0.5279  0.5467
  317MOL0     H42754  12.423   5.978   4.834  1.1446  1.6621  0.6899
  317MOL0     H42755  12.415   5.965   5.205 -1.1135  0.0551  3.2161
  317MOL0     H42756  12.491   5.949   5.425  0.1479  0.8295 -1.0988
  317MOL0     H42757  12.934   6.124   5.698  2.5167 -0.4307 -0.3970
  317MOL0     H42758  13.020   6.114   5.928 -2.3935 -1.7310  4.0162
  317MOL0     H42759  13.215   6.082   6.022 -0.9994  0.2480  0.5580
  317MOL0     H42760  13.105   6.046   6.163  0.3507 -0.0832  1.5014
  317MOL0     H42761  13.310   6.048   6.279  1.0708 -0.8973  1.1494
  317MOL0     H42762  13.264   5.886   6.260 -0.8790 -0.4592  0.0988
  317MOL0     H42763  13.403   5.870   6.048  2.1779  0.7381 -0.6913
  317MOL0     H42764  13.445   6.043   6.072  0.1939  0.7658  1.0144
  317MOL0     H42765  13.500   5.823   6.279 -1.7166 -0.3901  0.1145
  317MOL0     H42766  13.557   5.994   6.267  0.3797  0.5388 -2.4364
  317MOL0     H42767  13.681   5.961   6.091 -1.2924  0.4689 -0.3496
  317MOL0     H42768  13.631   5.786   6.062 -1.6881 -1.0493  1.4469
  317MOL0     H42769  13.780   5.877   6.302  0.3622  1.4958 -1.3726
  317MOL0     H42770  13.709   5.721   6.281  1.0907  1.6642  2.3835
  317MOL0     H42771  13.927   5.827   6.099 -0.3512 -1.1838 -2.1110
  317MOL0     H42772  13.839   5.682   6.076 -5.8346  1.4926 -0.4811
  317MOL0     H42773  13.991   5.745   6.334  1.5038 -0.9775  0.6012
  317MOL0     H42774  13.894   5.596   6.298  0.5638 -0.8898  1.0775
  317MOL0     H42775  13.083   5.690   5.888  2.1338  0.7103 -2.1283
  317MOL0     H42776  12.978   5.692   5.660 -1.3484  1.0344 -2.6638
  317MOL0     H42777  12.899   5.949   5.270  0.0469  2.2061 -3.3551
  317MOL0     H42778  12.813   5.931   5.056 -0.7130  2.0943 -0.2152
  317MOL0     H42779  10.996   5.478   4.266  0.2588  0.5433 -0.2776
  317MOL0     H42780  10.793   5.372   4.284  1.8194 -0.2548  0.5899
  317MOL0     H42781  10.415   5.271   4.056  0.9500 -0.8039  0.8049
  317MOL0     H42782  10.184   5.210   4.030 -1.3265 -0.9731  0.0691
  317MOL0     H42783  10.062   4.969   4.166  0.3149  0.5911 -1.4081
  317MOL0     H42784   9.980   4.839   4.086 -0.2931 -0.2282 -1.3265
  317MOL0     H42785   9.916   5.135   4.052  1.8681 -0.2664 -0.3839
  317MOL0     H42786   9.838   5.027   4.171  0.6157  1.3899  1.4305
  317MOL0     H42787   9.746   4.885   3.978  1.7708 -1.5731 -5.2798
  317MOL0     H42788   9.851   4.956   3.886  0.3347  0.0597  1.3289
  317MOL0     H42789   9.728   5.176   3.889 -0.6171  0.6691  1.7949
  317MOL0     H42790   9.618   5.057   3.831 -0.8676  0.0755 -0.5940
  317MOL0     H42791   9.466   5.189   4.199 -0.6286 -1.7777  1.6136
  317MOL0     H42792  10.288   4.799   3.979 -1.6526  0.8130  3.0219
  317MOL0     H42793  10.612   4.820   4.123  0.4859 -0.2007 -1.1516
  317MOL0     H42794  10.478   4.725   4.072  0.1589 -0.6971  0.4417
  317MOL0     H42795  10.600   4.797   3.948  1.0908  0.1605  0.4834
  318MOL0     O42796   2.275   8.850   7.461  0.0140 -0.1961  0.3710
  318MOL0     C42797   2.242   8.843   7.342  0.0399  1.2694  0.3757
  318MOL0     O42798   2.325   8.820   7.241 -0.2334  1.0148  0.3283
  318MOL0     C42799   2.447   8.770   7.277 -0.0264  0.2854  0.0498
  318MOL0     C42800   2.532   8.861   7.333 -0.7027  0.1862  0.3384
  318MOL0     C42801   2.661   8.807   7.365  0.0552 -0.7916 -0.0833
  318MOL0     C42802   2.690   8.672   7.351 -0.1393  0.6722 -0.4991
  318MOL0     O42803   2.812   8.617   7.385  1.0443  0.1315 -0.4557
  318MOL0     C42804   2.828   8.499   7.464  0.3339  0.1388  0.3620
  318MOL0     C42805   2.963   8.486   7.531 -0.4514 -0.1853  0.4564
  318MOL0     C42806   3.087   8.481   7.434  0.7872  0.2501 -0.1243
  318MOL0     C42807   3.220   8.473   7.500 -0.5450  0.7276  0.9617
  318MOL0     C42808   3.330   8.522   7.408 -0.0409  0.3603  0.4080
  318MOL0     C42809   3.354   8.437   7.283 -0.0051  0.4518 -0.7887
  318MOL0     C42810   3.473   8.474   7.199  0.6477 -0.1736  0.1355
  318MOL0     C42811   3.590   8.385   7.224 -0.3287  1.1086  1.0688
  318MOL0     N42812   3.723   8.423   7.172  0.2702 -0.8455  0.9572
  318MOL0     C42813   3.758   8.480   7.048 -0.2903  0.5391  0.2951
  318MOL0     C42814   3.878   8.540   7.069 -0.2246  0.0755 -0.6916
  318MOL0     C42815   3.929   8.630   6.958 -0.7281  0.8547  1.2518
  318MOL0     C42816   4.040   8.554   6.879  0.1216 -0.2067 -0.5985
  318MOL0     C42817   4.171   8.522   6.962  1.0652  0.1151 -0.0725
  318MOL0     C42818   4.274   8.625   6.989  0.4828 -0.7473  0.3214
  318MOL0     O42819   4.376   8.605   6.894  0.7177  0.6164 -0.4571
  318MOL0     C42820   4.485   8.689   6.907  0.1497  0.0751 -0.2178
  318MOL0     C42821   4.591   8.653   6.828  0.0674 -0.0611 -0.3076
  318MOL0     C42822   4.706   8.737   6.820  0.4765  0.1041  0.4119
  318MOL0     C42823   4.712   8.854   6.893  0.1485  0.6659 -0.2642
  318MOL0     C42824   4.838   8.942   6.903 -0.4560 -0.6736 -0.8818
  318MOL0     O42825   4.827   9.046   6.992 -0.4243  0.4968 -0.2045
  318MOL0     C42826   4.943   9.120   7.009 -0.8386 -0.7947 -0.4441
  318MOL0     C42827   5.031   9.106   7.118  0.4373  0.0073  0.2452
  318MOL0     C42828   5.143   9.186   7.128  0.2797  0.4325  0.6628
  318MOL0     C42829   5.174   9.275   7.028  0.3286 -0.4110 -0.5633
  318MOL0     O42830   5.305   9.326   7.044  0.2125 -0.5805  0.0167
  318MOL0     C42831   5.374   9.362   6.920  1.5486  0.4076  0.1956
  318MOL0     C42832   5.515   9.409   6.961 -0.0107 -0.9189  1.0012
  318MOL0     C42833   5.602   9.421   6.834  0.3470 -0.5413 -0.6101
  318MOL0     C42834   5.747   9.453   6.877 -0.8342  0.1099 -0.7957
  318MOL0     C42835   5.844   9.445   6.747 -0.5373  0.0906 -0.4185
  318MOL0     C42836   5.995   9.442   6.799  0.5172 -0.1088 -0.5010
  318MOL0     C42837   6.037   9.554   6.897  0.3701 -0.3364 -1.0695
  318MOL0     C42838   6.187   9.551   6.928  0.1251 -0.8760  0.5201
  318MOL0    Cl42839   6.231   9.408   7.028 -0.3922 -0.4725 -0.1795
  318MOL0     C42840   5.106   9.288   6.916  0.7950 -0.5208  0.3854
  318MOL0     C42841   4.982   9.215   6.910  0.3191  0.2298 -0.8966
  318MOL0     O42842   4.931   8.919   6.831 -1.2837 -0.0187 -0.4071
  318MOL0     C42843   4.599   8.885   6.976 -0.3328  0.0337 -0.0748
  318MOL0     C42844   4.492   8.798   6.988 -0.1630 -1.3276  0.0958
  318MOL0     N42845   3.907   8.522   7.205  0.4465  0.3823 -0.2344
  318MOL0     N42846   3.816   8.453   7.262 -0.6745 -0.7902  0.3556
  318MOL0     C42847   2.595   8.587   7.292 -0.4952  0.4282  0.4943
  318MOL0     C42848   2.474   8.635   7.252 -0.1118 -0.1007  0.4607
  318MOL0     C42849   2.103   8.887   7.292  0.2965  0.2820  0.4419
  318MOL0     C42850   2.080   8.918   7.154 -0.2322  0.5122 -0.2496
  318MOL0     C42851   1.951   8.953   7.101  0.1874  0.2259 -0.3849
  318MOL0     C42852   1.840   8.952   7.192 -0.3708  0.7017  0.1188
  318MOL0     O42853   1.720   8.976   7.134  0.2010  0.2031  0.7021
  318MOL0     C42854   1.596   8.966   7.208 -0.4016  0.0331  0.0962
  318MOL0     C42855   1.480   9.015   7.130 -1.0333  0.1818 -0.2981
  318MOL0     C42856   1.354   9.029   7.221 -0.6159  0.2461 -0.5333
  318MOL0     C42857   1.228   9.017   7.136  0.5942  0.6290 -0.2542
  318MOL0     C42858   1.102   9.062   7.198  0.2072  0.3143  0.4313
  318MOL0     C42859   1.010   9.128   7.241  0.7347  0.4390  0.9005
  318MOL0     C42860   1.863   8.923   7.327 -0.5222  0.5134  0.2397
  318MOL0     C42861   1.990   8.901   7.376  0.9710  0.5660 -0.5557
  318MOL0     C42862   2.004   8.863   7.529  0.6318  0.2332  1.0428
  318MOL0     H42863   2.517   8.968   7.340 -0.3614  0.3180 -0.7933
  318MOL0     H42864   2.738   8.866   7.413 -1.9812  1.7472  0.2581
  318MOL0     H42865   2.747   8.489   7.537 -0.1908 -0.7665 -0.3182
  318MOL0     H42866   2.825   8.416   7.394  1.6691  1.1848 -1.0108
  318MOL0     H42867   2.966   8.394   7.591 -0.6005 -0.0563  0.6618
  318MOL0     H42868   2.973   8.573   7.596  1.3712 -0.1350  0.1664
  318MOL0     H42869   3.083   8.563   7.361 -0.3801 -2.1829 -3.0435
  318MOL0     H42870   3.075   8.392   7.371 -0.9158  0.5667 -0.3107
  318MOL0     H42871   3.221   8.535   7.590 -0.3096  2.8584 -0.4172
  318MOL0     H42872   3.237   8.369   7.529 -0.9949  0.3846  0.0391
  318MOL0     H42873   3.318   8.627   7.381 -0.9440  0.1076 -0.2155
  318MOL0     H42874   3.423   8.520   7.466  0.7875 -2.6160 -0.8451
  318MOL0     H42875   3.354   8.331   7.312 -0.8998  1.5686  4.3507
  318MOL0     H42876   3.272   8.451   7.212 -0.4216  0.8681 -0.2384
  318MOL0     H42877   3.506   8.577   7.215 -0.2467  0.5523 -2.3162
  318MOL0     H42878   3.441   8.473   7.095 -1.6685  5.6394  0.4230
  318MOL0     H42879   3.604   8.391   7.333 -1.7381  1.0957  1.2735
  318MOL0     H42880   3.560   8.283   7.198 -1.6123  1.7509 -0.1277
  318MOL0     H42881   3.713   8.461   6.951  0.5765 -1.5861  0.2548
  318MOL0     H42882   3.845   8.655   6.892 -1.9611 -3.8738  0.6632
  318MOL0     H42883   3.965   8.726   6.995 -2.0131  0.9500  2.3173
  318MOL0     H42884   3.993   8.460   6.850  0.2797 -1.0923  1.8025
  318MOL0     H42885   4.062   8.607   6.786 -0.1505  4.5181  1.7449
  318MOL0     H42886   4.217   8.434   6.916 -3.3080 -2.3295 -0.4119
  318MOL0     H42887   4.136   8.488   7.060  0.8937  0.0109 -0.1688
  318MOL0     H42888   4.311   8.621   7.092  3.3354 -0.8653 -0.6262
  318MOL0     H42889   4.236   8.726   6.972  3.3150  0.1876 -1.1550
  318MOL0     H42890   4.592   8.566   6.763 -0.9688  0.4356 -1.0182
  318MOL0     H42891   4.786   8.717   6.749 -0.7236  0.1198 -1.0108
  318MOL0     H42892   5.008   9.030   7.192 -1.9077  0.9762  0.5971
  318MOL0     H42893   5.202   9.167   7.217 -1.6581 -1.8634  1.5655
  318MOL0     H42894   5.377   9.277   6.851  0.3384  1.5766 -1.3912
  318MOL0     H42895   5.315   9.440   6.869 -0.4858 -0.1732  1.5303
  318MOL0     H42896   5.528   9.505   7.013 -1.0600 -0.9443  1.3312
  318MOL0     H42897   5.564   9.337   7.028 -0.1950 -1.3750  0.6476
  318MOL0     H42898   5.600   9.327   6.778 -0.9223 -0.1183 -1.3089
  318MOL0     H42899   5.564   9.495   6.763 -0.5657  0.5859  1.0065
  318MOL0     H42900   5.783   9.386   6.956 -1.3253 -0.5302 -1.1023
  318MOL0     H42901   5.760   9.552   6.922  4.3974  0.1687 -1.7698
  318MOL0     H42902   5.838   9.532   6.682 -0.8917  0.4681  0.1071
  318MOL0     H42903   5.812   9.364   6.681 -1.5971  0.3774 -0.2741
  318MOL0     H42904   6.010   9.347   6.849 -1.2071 -0.0393  0.2386
  318MOL0     H42905   6.054   9.452   6.707  1.7601 -5.6714 -0.6034
  318MOL0     H42906   5.981   9.537   6.989  3.4516  0.1161  1.0567
  318MOL0     H42907   6.018   9.654   6.855  0.5583 -0.1600 -0.7456
  318MOL0     H42908   6.240   9.554   6.833  0.2525  2.4238  0.5962
  318MOL0     H42909   6.221   9.640   6.981 -2.0129 -0.0193  0.5476
  318MOL0     H42910   5.123   9.356   6.833 -0.7239 -1.5405 -0.8140
  318MOL0     H42911   4.923   9.226   6.820 -0.6833  1.0848 -0.1530
  318MOL0     H42912   4.608   8.964   7.050  0.4480  0.9220 -1.0914
  318MOL0     H42913   4.418   8.821   7.063  0.0866  2.2713 -0.6182
  318MOL0     H42914   2.594   8.479   7.297 -0.6452  0.4107  0.1277
  318MOL0     H42915   2.407   8.568   7.199  0.0537  0.6900 -0.7785
  318MOL0     H42916   2.150   8.909   7.072 -0.7798 -1.7867 -0.5129
  318MOL0     H42917   1.937   8.967   6.994  0.7184 -2.9332 -0.9644
  318MOL0     H42918   1.599   9.024   7.300  0.7218 -0.6933  0.5316
  318MOL0     H42919   1.576   8.863   7.241  1.2633  0.0385  1.1875
  318MOL0     H42920   1.456   8.952   7.043 -1.1702 -0.4205  0.1703
  318MOL0     H42921   1.498   9.113   7.085 -1.4680  1.2129  1.6488
  318MOL0     H42922   1.348   9.126   7.271 -0.3222  0.7634 -1.4832
  318MOL0     H42923   1.356   8.955   7.301  2.8514  2.2520  1.5031
  318MOL0     H42924   1.227   9.067   7.039  0.9507 -2.6636 -2.0819
  318MOL0     H42925   1.221   8.909   7.119  1.5131  0.5791 -0.3832
  318MOL0     H42926   0.917   9.178   7.260  0.4640  1.1795 -1.9133
  318MOL0     H42927   1.783   8.898   7.395 -0.8025  1.8920  0.4470
  318MOL0     H42928   2.079   8.919   7.585  2.9844 -0.6758 -1.0400
  318MOL0     H42929   1.904   8.873   7.573 -0.3055 -0.5116 -0.8053
  318MOL0     H42930   2.040   8.759   7.525 -0.3315 -0.0782 -0.2173
  319MOL0     O42931   5.300   4.866   9.368 -0.4668 -0.5235 -0.3213
  319MOL0     C42932   5.296   4.909   9.487 -0.1571  0.0866 -0.1678
  319MOL0     O42933   5.399   4.968   9.553  0.2276 -0.3321  0.2594
  319MOL0     C42934   5.527   4.968   9.502  0.1256  0.2019 -1.0022
  319MOL0     C42935   5.588   4.858   9.425  0.1869 -0.3518 -0.6460
  319MOL0     C42936   5.702   4.877   9.352 -0.5850 -0.3915  0.0907
  319MOL0     C42937   5.774   5.004   9.351  1.5063 -0.5390  0.0283
  319MOL0     O42938   5.887   5.038   9.274  0.0157  0.4297  0.3855
  319MOL0     C42939   5.926   4.951   9.171  0.1664  0.7441 -0.4467
  319MOL0     C42940   6.013   5.035   9.078 -0.2186  0.4566  0.2772
  319MOL0     C42941   5.935   5.142   8.993  0.4277 -0.2661 -0.3904
  319MOL0     C42942   6.023   5.270   8.966 -0.3678  0.8360 -0.0181
  319MOL0     C42943   6.059   5.365   9.082  0.2541  0.8038 -0.1523
  319MOL0     C42944   6.090   5.506   9.029  0.1271  1.0500 -0.2879
  319MOL0     C42945   6.179   5.517   8.904 -0.1132 -0.6491  0.7426
  319MOL0     C42946   6.204   5.663   8.866 -0.9420 -0.4373 -0.5440
  319MOL0     N42947   6.287   5.743   8.956 -0.4262 -0.3552 -0.7403
  319MOL0     C42948   6.259   5.846   9.042 -0.8461 -0.2045  0.3119
  319MOL0     C42949   6.379   5.890   9.085 -0.2883 -0.3591 -0.6430
  319MOL0     C42950   6.372   6.011   9.179  0.6023  0.4714  0.5938
  319MOL0     C42951   6.511   6.020   9.245 -0.1916  0.9274 -0.3232
  319MOL0     C42952   6.598   6.110   9.160 -0.2933  0.6035  0.6299
  319MOL0     C42953   6.737   6.105   9.212  1.2235  0.8229 -0.0031
  319MOL0     O42954   6.828   6.208   9.161 -0.4129 -0.1799  0.0605
  319MOL0     C42955   6.963   6.188   9.185 -0.2986  0.3734  0.3202
  319MOL0     C42956   7.032   6.065   9.192  0.4406  1.0239 -0.2821
  319MOL0     C42957   7.169   6.058   9.201  0.1728 -0.2033 -0.0347
  319MOL0     C42958   7.250   6.173   9.202 -1.0075  0.1530  0.0896
  319MOL0     C42959   7.400   6.174   9.199  0.6727  0.2764  0.3551
  319MOL0     O42960   7.474   6.295   9.204  0.1926  0.4953  0.7190
  319MOL0     C42961   7.605   6.289   9.156  0.1274 -0.2565  1.0493
  319MOL0     C42962   7.706   6.339   9.240 -0.4879 -0.5960 -0.0795
  319MOL0     C42963   7.844   6.320   9.215 -0.1393  0.0554  0.0324
  319MOL0     C42964   7.877   6.259   9.094 -0.5098  0.3674 -0.0112
  319MOL0     O42965   8.008   6.240   9.063 -0.3432  0.6859  0.0225
  319MOL0     C42966   8.107   6.329   9.103 -0.8587 -0.0879 -0.7348
  319MOL0     C42967   8.233   6.283   9.038  0.5346 -0.3275 -0.0899
  319MOL0     C42968   8.350   6.380   9.061  0.7162 -0.4019  0.4043
  319MOL0     C42969   8.447   6.375   8.942  1.5263 -0.0116  0.2656
  319MOL0     C42970   8.502   6.234   8.906 -0.0982 -0.6417  0.0030
  319MOL0     C42971   8.623   6.229   8.815 -0.8731  0.3671 -0.2373
  319MOL0     C42972   8.756   6.301   8.858  0.1214  0.3681 -0.5272
  319MOL0     C42973   8.880   6.276   8.758 -0.8340 -0.2697 -0.4971
  319MOL0    Cl42974   8.923   6.103   8.763 -0.0669 -0.2097 -0.1266
  319MOL0     C42975   7.785   6.202   9.009 -0.0038 -1.0266 -0.4761
  319MOL0     C42976   7.652   6.215   9.039  0.7825 -0.3528 -0.7794
  319MOL0     O42977   7.443   6.059   9.210 -0.1127 -0.6657 -0.2967
  319MOL0     C42978   7.179   6.295   9.188 -0.6039  0.0715  0.0800
  319MOL0     C42979   7.040   6.301   9.190 -0.2883  0.0559  0.1179
  319MOL0     N42980   6.483   5.823   9.020  0.1440  0.0016  0.4556
  319MOL0     N42981   6.426   5.742   8.942 -0.2899  0.6509  0.2943
  319MOL0     C42982   5.731   5.097   9.440  0.0026  0.1913  0.1107
  319MOL0     C42983   5.610   5.081   9.512 -0.3904 -0.0479  0.1242
  319MOL0     C42984   5.161   4.900   9.546  0.4503 -0.5091 -0.7800
  319MOL0     C42985   5.048   4.946   9.480  0.1289 -0.4511  0.2445
  319MOL0     C42986   4.922   4.933   9.536 -0.1453 -0.1647 -0.1640
  319MOL0     C42987   4.900   4.879   9.665 -0.0064  1.3006 -0.9516
  319MOL0     O42988   4.783   4.848   9.728  0.0592 -0.0322 -0.2972
  319MOL0     C42989   4.663   4.867   9.647  1.0331 -0.3895 -0.1597
  319MOL0     C42990   4.541   4.841   9.731  0.4967 -0.6175 -0.4334
  319MOL0     C42991   4.511   4.947   9.839  0.0644  0.0493 -0.2071
  319MOL0     C42992   4.406   4.887   9.936  0.0960  0.7878  1.1682
  319MOL0     C42993   4.371   4.989  10.028  0.1275 -0.4440  0.1099
  319MOL0     C42994   4.332   5.073  10.105 -0.4523  0.1230  0.0476
  319MOL0     C42995   5.010   4.831   9.730  0.4868  0.1159 -0.1247
  319MOL0     C42996   5.138   4.850   9.674 -0.0259 -0.1056 -0.0223
  319MOL0     C42997   5.256   4.809   9.760  0.1882  0.0936  0.6116
  319MOL0     H42998   5.534   4.764   9.419  1.2961 -0.9236 -2.2283
  319MOL0     H42999   5.747   4.791   9.303  0.4792 -0.3958  1.0330
  319MOL0     H43000   5.999   4.890   9.225  1.5702  0.8959 -2.0652
  319MOL0     H43001   5.854   4.890   9.116  0.9083 -0.3741 -0.2176
  319MOL0     H43002   6.051   4.956   9.013 -0.5124 -1.7636  2.6736
  319MOL0     H43003   6.092   5.083   9.137  2.0044 -0.4593 -1.7855
  319MOL0     H43004   5.843   5.173   9.044  0.1613  1.0067 -1.5633
  319MOL0     H43005   5.913   5.111   8.890  2.0803 -0.3395 -0.7467
  319MOL0     H43006   6.115   5.225   8.926 -1.5388 -0.9784 -0.7755
  319MOL0     H43007   5.967   5.321   8.888  0.4909 -1.0048 -1.9445
  319MOL0     H43008   5.977   5.366   9.154 -0.3397  2.4530 -0.8112
  319MOL0     H43009   6.147   5.321   9.129 -0.1393 -3.8824 -3.1248
  319MOL0     H43010   5.994   5.549   8.999 -2.0678 -1.9603  1.7897
  319MOL0     H43011   6.129   5.560   9.116  0.0902 -0.3488  0.6320
  319MOL0     H43012   6.129   5.473   8.817 -1.6108  1.6267  0.3421
  319MOL0     H43013   6.272   5.467   8.931  0.4206 -0.2338 -0.2410
  319MOL0     H43014   6.256   5.674   8.770  2.3693 -2.1003  0.9051
  319MOL0     H43015   6.111   5.720   8.867 -1.6510 -1.5448 -1.1139
  319MOL0     H43016   6.165   5.896   9.064 -0.7980 -0.3714  0.9137
  319MOL0     H43017   6.349   6.100   9.120  1.1204  0.2495  0.0521
  319MOL0     H43018   6.294   5.997   9.255 -2.0245 -1.1014 -2.1324
  319MOL0     H43019   6.489   6.059   9.345  0.5775  3.0953 -0.9576
  319MOL0     H43020   6.558   5.922   9.260 -0.7944  0.2188 -2.6560
  319MOL0     H43021   6.556   6.210   9.173 -2.9750  0.0836 -2.5805
  319MOL0     H43022   6.590   6.080   9.055 -2.1376  0.8577  0.6547
  319MOL0     H43023   6.772   6.009   9.173  1.0164  1.6147 -2.2564
  319MOL0     H43024   6.733   6.096   9.321  0.7202 -2.2204 -0.1824
  319MOL0     H43025   6.977   5.972   9.185  2.7863 -0.3136 -3.0478
  319MOL0     H43026   7.209   5.957   9.210  1.9591  0.5767  1.4999
  319MOL0     H43027   7.685   6.382   9.338  1.0174 -4.0970  2.0000
  319MOL0     H43028   7.919   6.355   9.285 -0.5445 -0.1889  0.5974
  319MOL0     H43029   8.083   6.426   9.059  0.0012  0.3018 -0.3580
  319MOL0     H43030   8.115   6.357   9.209 -1.2750 -0.7732 -0.5150
  319MOL0     H43031   8.271   6.189   9.079  1.8591 -0.2243 -1.0172
  319MOL0     H43032   8.209   6.254   8.935 -0.9319 -3.4206  1.0034
  319MOL0     H43033   8.307   6.481   9.061 -3.0561 -1.6333 -4.2921
  319MOL0     H43034   8.411   6.365   9.150 -2.3137  1.9961  3.1002
  319MOL0     H43035   8.531   6.435   8.978 -0.2132  2.2822  0.7911
  319MOL0     H43036   8.402   6.430   8.859 -0.1993 -0.5046  0.8278
  319MOL0     H43037   8.435   6.170   8.848 -0.2068 -0.6215  0.1036
  319MOL0     H43038   8.518   6.184   9.003  2.7450  0.7449  0.3540
  319MOL0     H43039   8.656   6.125   8.817  0.0360  0.6137 -1.4742
  319MOL0     H43040   8.599   6.267   8.715 -0.4344 -2.8003 -1.6777
  319MOL0     H43041   8.786   6.267   8.958  0.2197  0.2229 -0.6054
  319MOL0     H43042   8.743   6.409   8.869  0.7090  0.3822  0.1186
  319MOL0     H43043   8.864   6.317   8.658  0.0663  2.5241  0.4202
  319MOL0     H43044   8.964   6.322   8.811 -1.4704 -1.9846  2.2425
  319MOL0     H43045   7.816   6.148   8.920  0.9370 -1.3711  0.0480
  319MOL0     H43046   7.570   6.183   8.977 -1.3942  0.5516  1.4502
  319MOL0     H43047   7.229   6.390   9.173 -4.1127  1.9071 -1.1214
  319MOL0     H43048   6.987   6.395   9.181  2.2789  1.4188 -1.8720
  319MOL0     H43049   5.789   5.189   9.443  2.5769 -1.3173  2.3989
  319MOL0     H43050   5.587   5.157   9.586  3.1674 -0.8583  2.3257
  319MOL0     H43051   5.057   5.000   9.386 -2.3922  0.5885  0.5094
  319MOL0     H43052   4.852   4.990   9.476  1.7883  0.3747 -2.0108
  319MOL0     H43053   4.664   4.801   9.559 -1.2590 -1.6650  0.6704
  319MOL0     H43054   4.658   4.972   9.617 -1.7990  0.1533  1.8750
  319MOL0     H43055   4.558   4.745   9.782  1.9721 -1.8856 -3.0747
  319MOL0     H43056   4.455   4.834   9.664  0.3900 -1.1563 -0.2469
  319MOL0     H43057   4.467   5.040   9.801 -3.2900 -1.4620 -0.3687
  319MOL0     H43058   4.609   4.975   9.880  1.4362  0.4106 -3.4205
  319MOL0     H43059   4.309   4.865   9.892 -0.7116  2.8125  1.8039
  319MOL0     H43060   4.442   4.804   9.998 -1.0151  0.5512  1.5039
  319MOL0     H43061   4.293   5.153  10.165  1.4503  2.1487 -1.2600
  319MOL0     H43062   4.994   4.782   9.826  0.3274 -0.8850 -0.6548
  319MOL0     H43063   5.309   4.899   9.792 -0.4066  1.1719 -1.2638
  319MOL0     H43064   5.231   4.745   9.845 -1.2075  2.0656  1.7763
  319MOL0     H43065   5.333   4.751   9.708  0.0250  0.9708 -0.6531
  320MOL0     O43066   3.570   3.803   6.997  0.2780  0.1760  0.3514
  320MOL0     C43067   3.657   3.819   6.907 -0.9703 -0.7261 -1.1085
  320MOL0     O43068   3.633   3.830   6.773  0.1844 -0.0822  0.8482
  320MOL0     C43069   3.508   3.798   6.720 -0.6565 -0.7620  0.5122
  320MOL0     C43070   3.380   3.832   6.786 -0.4657  0.0285  0.1440
  320MOL0     C43071   3.267   3.798   6.717 -0.1263  0.5000 -0.0187
  320MOL0     C43072   3.266   3.744   6.592 -0.0608 -0.0637  0.4434
  320MOL0     O43073   3.145   3.719   6.541  0.0684  0.3680  1.2554
  320MOL0     C43074   3.123   3.612   6.454 -0.0125  0.4126 -0.1465
  320MOL0     C43075   2.977   3.563   6.467 -0.3703 -0.5757 -0.2435
  320MOL0     C43076   2.949   3.498   6.600 -0.0706  0.0669  0.0279
  320MOL0     C43077   2.820   3.430   6.588  0.4221 -0.5276  0.2928
  320MOL0     C43078   2.769   3.360   6.717 -0.0040  0.2791  0.2112
  320MOL0     C43079   2.683   3.248   6.674 -0.3494 -0.4341  0.4856
  320MOL0     C43080   2.617   3.175   6.793 -0.0496 -1.2159  0.9976
  320MOL0     C43081   2.561   3.038   6.744 -0.0845  0.0479 -0.2656
  320MOL0     N43082   2.487   2.953   6.838 -0.3758 -0.3858 -0.1640
  320MOL0     C43083   2.371   2.984   6.904 -0.3194 -0.1191  0.2728
  320MOL0     C43084   2.368   2.906   7.012  0.5591  0.1558 -0.0019
  320MOL0     C43085   2.257   2.891   7.109 -0.5401  0.4071  0.4849
  320MOL0     C43086   2.288   2.892   7.262 -0.1036  0.2155  0.1010
  320MOL0     C43087   2.177   2.920   7.361  0.5919 -0.5003 -0.1860
  320MOL0     C43088   2.236   2.960   7.496  0.3573 -0.0706 -0.0660
  320MOL0     O43089   2.133   3.027   7.576 -0.2024 -0.6919  0.1917
  320MOL0     C43090   2.050   2.957   7.661  0.2784  0.2823  0.5466
  320MOL0     C43091   2.078   2.962   7.800 -0.8757 -0.4402  0.6148
  320MOL0     C43092   1.992   2.901   7.881 -0.1938  0.2683  0.4160
  320MOL0     C43093   1.882   2.823   7.838  0.0703  0.4509 -0.6767
  320MOL0     C43094   1.775   2.768   7.939 -0.5128  0.3023  0.1439
  320MOL0     O43095   1.789   2.805   8.076  0.4070 -0.2101 -0.1856
  320MOL0     C43096   1.675   2.798   8.156  0.4450  0.9313  0.2890
  320MOL0     C43097   1.693   2.746   8.281  0.3022  0.6237  0.3405
  320MOL0     C43098   1.585   2.759   8.376  0.3068  0.1562  0.5661
  320MOL0     C43099   1.467   2.831   8.338 -0.0444  0.0118  0.3094
  320MOL0     O43100   1.369   2.835   8.425  0.2069 -0.0261  0.0620
  320MOL0     C43101   1.325   2.965   8.450  0.0510 -0.9937  0.2789
  320MOL0     C43102   1.435   3.057   8.506 -0.2224 -0.0307  1.0049
  320MOL0     C43103   1.491   3.011   8.641  0.4400  0.1735  0.7018
  320MOL0     C43104   1.583   3.112   8.709 -0.5548  0.7017  0.2037
  320MOL0     C43105   1.645   3.057   8.836 -1.2561  0.4098 -0.6189
  320MOL0     C43106   1.742   2.939   8.835  0.5130  0.3479 -0.5770
  320MOL0     C43107   1.873   2.956   8.742 -0.2195 -0.0066  0.5068
  320MOL0     C43108   1.943   2.825   8.757 -0.1516  0.1711  1.1191
  320MOL0    Cl43109   2.080   2.840   8.638 -0.8361  0.1280 -0.1109
  320MOL0     C43110   1.448   2.872   8.206  0.1279 -0.4601  0.4846
  320MOL0     C43111   1.556   2.857   8.111  0.1853 -1.2459  0.5951
  320MOL0     O43112   1.688   2.694   7.895  0.4630 -0.1243 -0.2789
  320MOL0     C43113   1.866   2.805   7.698  0.2478  0.1503  0.0545
  320MOL0     C43114   1.947   2.879   7.613 -0.4373 -0.3566  0.4284
  320MOL0     N43115   2.467   2.820   7.010  0.1296 -0.5669  0.7606
  320MOL0     N43116   2.546   2.858   6.917  0.7474 -0.5988  0.0062
  320MOL0     C43117   3.386   3.716   6.528  0.8571 -0.8453  0.5738
  320MOL0     C43118   3.512   3.730   6.599  0.4730 -0.0338  0.0187
  320MOL0     C43119   3.799   3.844   6.950 -0.4745 -0.3890 -0.0457
  320MOL0     C43120   3.833   3.919   7.066  0.5667  0.0810 -0.0206
  320MOL0     C43121   3.960   3.937   7.113  0.1737 -0.2019 -0.5827
  320MOL0     C43122   4.071   3.892   7.052 -0.7003  0.3150 -0.2296
  320MOL0     O43123   4.196   3.922   7.102  0.1131 -0.5409  0.0408
  320MOL0     C43124   4.303   3.938   7.016 -0.2364  0.1887  0.0274
  320MOL0     C43125   4.296   4.045   6.906  0.0712 -0.0809 -0.6235
  320MOL0     C43126   4.302   4.197   6.955  0.1054  0.6037  0.2984
  320MOL0     C43127   4.203   4.229   7.065 -0.0778  0.9427  0.4671
  320MOL0     C43128   4.180   4.374   7.064  1.0665 -0.6166 -0.1166
  320MOL0     C43129   4.154   4.494   7.090 -0.1755 -0.0897 -0.2465
  320MOL0     C43130   4.042   3.812   6.938 -0.9541  0.8188  0.4331
  320MOL0     C43131   3.912   3.793   6.885 -0.1526 -0.0260 -0.1461
  320MOL0     C43132   3.910   3.719   6.761 -0.0320  0.7109  1.2709
  320MOL0     H43133   3.381   3.885   6.881 -0.0871  0.6455 -0.1989
  320MOL0     H43134   3.176   3.839   6.760 -2.1056 -0.4037 -3.0248
  320MOL0     H43135   3.139   3.648   6.351  1.4156  0.2548  0.0102
  320MOL0     H43136   3.192   3.532   6.480 -1.0263 -0.2135  0.6875
  320MOL0     H43137   2.962   3.499   6.379  0.3752 -0.0485 -0.7654
  320MOL0     H43138   2.910   3.649   6.453 -0.4254 -0.5347  0.2659
  320MOL0     H43139   2.937   3.575   6.676  0.1511 -0.0071  0.1421
  320MOL0     H43140   3.033   3.431   6.625  0.1927  0.2461 -0.3625
  320MOL0     H43141   2.742   3.502   6.565  1.6509  0.3670 -1.3212
  320MOL0     H43142   2.831   3.356   6.508  0.0729  1.4956 -1.7091
  320MOL0     H43143   2.854   3.330   6.779 -0.1086 -2.7085 -0.9359
  320MOL0     H43144   2.710   3.433   6.773  1.9530  2.5987 -0.5607
  320MOL0     H43145   2.604   3.294   6.614 -1.2476 -2.6426 -0.1438
  320MOL0     H43146   2.733   3.170   6.614 -1.1792 -1.0890  0.6278
  320MOL0     H43147   2.546   3.244   6.839 -0.9985  0.4211 -2.6065
  320MOL0     H43148   2.693   3.152   6.869  1.8093  1.1648 -0.0107
  320MOL0     H43149   2.499   3.066   6.658 -0.3106  3.9670  0.9523
  320MOL0     H43150   2.644   2.976   6.709  1.6969  1.2663  1.6101
  320MOL0     H43151   2.303   3.066   6.886 -2.2376 -2.0852 -2.2985
  320MOL0     H43152   2.189   2.971   7.082  1.2540  0.7537 -4.0072
  320MOL0     H43153   2.203   2.804   7.071 -1.8117  1.7941 -1.0200
  320MOL0     H43154   2.353   2.811   7.297  0.5467  1.4440  1.8830
  320MOL0     H43155   2.353   2.980   7.271 -1.6555  1.3012  1.1767
  320MOL0     H43156   2.118   2.831   7.382 -1.2991  0.5410 -0.8443
  320MOL0     H43157   2.097   2.990   7.338  0.7662 -0.5669 -1.0301
  320MOL0     H43158   2.330   3.017   7.488  1.1170 -1.4705 -1.5972
  320MOL0     H43159   2.262   2.864   7.542  0.7444 -1.0845 -2.2950
  320MOL0     H43160   2.160   3.024   7.834 -0.1853 -1.2671  0.4736
  320MOL0     H43161   2.018   2.912   7.985  1.2471  1.7206 -0.0682
  320MOL0     H43162   1.790   2.711   8.315  0.8484  1.9030  0.1835
  320MOL0     H43163   1.599   2.720   8.476  1.3237  0.3238  0.4894
  320MOL0     H43164   1.283   3.015   8.363 -0.2228 -0.7948  0.5257
  320MOL0     H43165   1.241   2.961   8.519 -0.4245 -2.4493 -0.3255
  320MOL0     H43166   1.506   3.061   8.423 -1.6452  1.6464 -0.1919
  320MOL0     H43167   1.392   3.154   8.529 -1.6016 -0.6118  0.9826
  320MOL0     H43168   1.404   2.992   8.705 -2.0755  0.7814 -2.2793
  320MOL0     H43169   1.539   2.914   8.624 -0.2718  0.0384 -0.6868
  320MOL0     H43170   1.523   3.202   8.726 -0.7156  0.4217  1.1550
  320MOL0     H43171   1.667   3.156   8.654 -0.5701  0.5929  0.0918
  320MOL0     H43172   1.564   3.037   8.907 -0.9148  1.1832  0.0043
  320MOL0     H43173   1.701   3.137   8.886  1.2725 -2.5059  1.6174
  320MOL0     H43174   1.778   2.931   8.938  1.2682  3.1028 -0.5407
  320MOL0     H43175   1.686   2.851   8.801 -0.3998 -0.0010  1.7001
  320MOL0     H43176   1.941   3.033   8.780  0.4401 -0.5199  0.3852
  320MOL0     H43177   1.840   2.959   8.638 -1.8732 -2.5037  0.8826
  320MOL0     H43178   1.981   2.809   8.859  1.6808 -0.0163  0.4480
  320MOL0     H43179   1.882   2.739   8.729 -2.2631  1.6573  0.9787
  320MOL0     H43180   1.352   2.917   8.183  0.8083 -0.1848 -2.1902
  320MOL0     H43181   1.541   2.902   8.013  0.6381  0.6259  1.3354
  320MOL0     H43182   1.782   2.747   7.661 -0.0767 -2.8418  4.7353
  320MOL0     H43183   1.935   2.876   7.505 -2.0092  1.5748  0.4940
  320MOL0     H43184   3.394   3.670   6.430  2.3433 -1.3744  0.9173
  320MOL0     H43185   3.597   3.701   6.538  0.9202 -1.0079  1.0790
  320MOL0     H43186   3.755   3.966   7.126 -0.9991  0.5775 -2.3180
  320MOL0     H43187   3.964   3.999   7.202 -2.1813  0.4121 -0.8256
  320MOL0     H43188   4.313   3.839   6.971  2.3805 -0.0557  1.0052
  320MOL0     H43189   4.389   3.959   7.079 -0.0492 -1.4140  0.3308
  320MOL0     H43190   4.208   4.031   6.843  1.0865  1.5802 -2.5028
  320MOL0     H43191   4.380   4.037   6.837  1.8476 -0.7895  1.4774
  320MOL0     H43192   4.275   4.256   6.868  1.4484  0.8518  0.0239
  320MOL0     H43193   4.403   4.232   6.981 -0.0022  0.0544  1.5507
  320MOL0     H43194   4.112   4.175   7.039  1.7236 -1.5676 -1.1850
  320MOL0     H43195   4.246   4.194   7.159  0.6689 -2.1942 -0.9392
  320MOL0     H43196   4.127   4.596   7.104  0.1909 -0.1527  1.0561
  320MOL0     H43197   4.127   3.757   6.900 -1.9880 -1.6202  1.4547
  320MOL0     H43198   3.854   3.774   6.685 -5.4859 -0.0326  4.2834
  320MOL0     H43199   4.011   3.696   6.725  0.2622  3.1970  0.3156
  320MOL0     H43200   3.854   3.626   6.773  1.3690 -0.3337  0.1272
  321MOL0     O43201  10.246   6.138   1.273  0.5323  0.0454 -0.4518
  321MOL0     C43202  10.193   6.105   1.383  0.3505 -1.5319  0.6672
  321MOL0     O43203  10.252   6.122   1.502 -0.1846 -0.5065  0.1483
  321MOL0     C43204  10.386   6.153   1.506 -0.1517 -0.5630  0.6203
  321MOL0     C43205  10.432   6.280   1.550  0.6634 -0.3575  0.7393
  321MOL0     C43206  10.568   6.310   1.555 -0.3104 -0.5514 -0.7084
  321MOL0     C43207  10.666   6.217   1.518 -0.5677 -0.6997  0.1359
  321MOL0     O43208  10.793   6.247   1.546  0.4248 -0.6063  0.0200
  321MOL0     C43209  10.901   6.163   1.501  0.0719 -0.9283 -0.4429
  321MOL0     C43210  11.022   6.232   1.548 -0.8768 -0.3538 -0.8728
  321MOL0     C43211  11.137   6.241   1.455 -0.7950 -0.1969  0.4002
  321MOL0     C43212  11.259   6.285   1.535 -0.0624 -0.6761  0.4372
  321MOL0     C43213  11.371   6.303   1.442 -0.1506 -0.6352  0.5266
  321MOL0     C43214  11.507   6.300   1.519  0.1596  0.2433  0.0085
  321MOL0     C43215  11.622   6.312   1.416 -0.5664 -0.3223  0.0464
  321MOL0     C43216  11.750   6.277   1.489 -0.1598  0.3812 -0.6925
  321MOL0     N43217  11.783   6.376   1.590 -0.6979  0.7274 -0.0278
  321MOL0     C43218  11.867   6.474   1.562  0.0831  0.0655  0.0816
  321MOL0     C43219  11.892   6.531   1.683  0.1702 -0.2414  0.0791
  321MOL0     C43220  11.994   6.647   1.682 -0.3623  0.2486 -0.3099
  321MOL0     C43221  11.944   6.779   1.732  0.3471  0.0047  0.3638
  321MOL0     C43222  12.038   6.895   1.703 -0.3019 -0.4587 -0.1323
  321MOL0     C43223  12.155   6.899   1.810 -0.5152  0.1553  0.4498
  321MOL0     O43224  12.254   7.005   1.784  0.2010  0.8011 -0.6889
  321MOL0     C43225  12.371   6.987   1.855  0.3722 -1.4598  0.0281
  321MOL0     C43226  12.491   7.027   1.793  0.1083 -0.4006  0.4139
  321MOL0     C43227  12.615   7.007   1.864  0.0830  0.3645  0.0876
  321MOL0     C43228  12.616   6.948   1.995 -0.5377  0.1237  0.1187
  321MOL0     C43229  12.753   6.922   2.046  0.4569  0.1258 -0.4022
  321MOL0     O43230  12.855   6.977   1.986 -0.6224 -0.3713 -0.5884
  321MOL0     C43231  12.979   6.968   2.037 -0.2166  0.1410  0.2431
  321MOL0     C43232  13.064   7.073   1.995 -0.3823 -0.1903 -0.3929
  321MOL0     C43233  13.194   7.080   2.035  0.6820 -0.5525  0.9591
  321MOL0     C43234  13.252   6.978   2.106  0.4404  0.1387 -0.3018
  321MOL0     O43235  13.388   6.990   2.128 -0.5900 -0.9184  0.2441
  321MOL0     C43236  13.449   6.895   2.209 -0.2047 -0.4712 -0.1581
  321MOL0     C43237  13.594   6.929   2.227 -0.3880 -0.0669  0.7626
  321MOL0     C43238  13.674   6.899   2.097  0.1670  0.5175 -0.0237
  321MOL0     C43239  13.823   6.932   2.107  0.2723 -0.6720 -0.0184
  321MOL0     C43240  13.894   6.869   1.987  0.1167  0.5028 -0.4057
  321MOL0     C43241  14.045   6.882   2.002 -0.0309 -0.0050 -0.1038
  321MOL0     C43242  14.100   6.821   1.873  0.4594 -1.4034  0.5655
  321MOL0     C43243  14.248   6.847   1.854 -0.2360 -0.0870  0.0992
  321MOL0    Cl43244  14.339   6.748   1.970 -0.3201  0.0080  0.2013
  321MOL0     C43245  13.171   6.872   2.150 -0.1872 -0.1433  0.0043
  321MOL0     C43246  13.038   6.859   2.113 -0.3397  0.0231  0.2487
  321MOL0     O43247  12.754   6.857   2.154  0.0436  0.6033 -0.2888
  321MOL0     C43248  12.498   6.925   2.060  0.5648  0.1964  0.1775
  321MOL0     C43249  12.375   6.936   1.991 -0.1438  0.0436 -0.0297
  321MOL0     N43250  11.835   6.457   1.787  0.1175 -0.2701  0.1067
  321MOL0     N43251  11.766   6.365   1.727 -0.4224  0.1733 -0.0799
  321MOL0     C43252  10.623   6.094   1.472  0.1940  0.5623 -0.1562
  321MOL0     C43253  10.486   6.064   1.468 -0.1778  1.0360 -0.0092
  321MOL0     C43254  10.049   6.081   1.386  0.9337 -0.5082 -0.0142
  321MOL0     C43255   9.975   6.110   1.503 -0.3099 -0.1178  0.1017
  321MOL0     C43256   9.833   6.099   1.515 -0.2086  0.1153 -0.6311
  321MOL0     C43257   9.754   6.076   1.403  0.4393 -0.0165  0.0603
  321MOL0     O43258   9.617   6.081   1.420 -0.1474 -0.0301  0.3059
  321MOL0     C43259   9.538   6.116   1.308 -0.0067 -0.1876 -0.4922
  321MOL0     C43260   9.479   6.001   1.236  0.3383  0.4731 -0.9053
  321MOL0     C43261   9.414   5.914   1.345  0.3386  0.0807 -0.1818
  321MOL0     C43262   9.347   5.799   1.288 -0.0666 -0.4734  0.1992
  321MOL0     C43263   9.430   5.705   1.210  0.2360 -0.6341  0.1133
  321MOL0     C43264   9.494   5.644   1.130 -0.0645 -0.3066  0.3053
  321MOL0     C43265   9.822   6.039   1.281  0.3259  0.7844 -0.0434
  321MOL0     C43266   9.965   6.033   1.273 -0.0239  0.5392 -0.1088
  321MOL0     C43267  10.019   5.960   1.160 -0.0473 -0.6676  0.5774
  321MOL0     H43268  10.363   6.360   1.572  0.2768 -0.4529 -0.0633
  321MOL0     H43269  10.600   6.410   1.581 -1.6365 -0.0182 -1.0425
  321MOL0     H43270  10.898   6.064   1.546 -1.0640 -1.3394 -1.3707
  321MOL0     H43271  10.905   6.145   1.393  1.9393  0.7788 -0.7237
  321MOL0     H43272  11.065   6.187   1.638 -0.6562 -2.6374 -2.0645
  321MOL0     H43273  10.990   6.333   1.576 -1.2325 -0.5550 -0.5359
  321MOL0     H43274  11.113   6.305   1.371  0.0401  1.1128  1.1304
  321MOL0     H43275  11.153   6.144   1.407  0.9915  0.9813 -1.5634
  321MOL0     H43276  11.241   6.385   1.576  1.0388  1.3163 -3.4386
  321MOL0     H43277  11.287   6.205   1.604  1.3682 -1.8977 -1.4727
  321MOL0     H43278  11.369   6.225   1.365 -1.9455 -1.0106  0.8847
  321MOL0     H43279  11.363   6.399   1.392 -1.6599  0.3205  2.4375
  321MOL0     H43280  11.508   6.383   1.589 -2.5430 -2.9431  4.3428
  321MOL0     H43281  11.519   6.205   1.572  1.0341  1.0790  1.3599
  321MOL0     H43282  11.637   6.417   1.389  0.7585 -0.1494  1.3337
  321MOL0     H43283  11.606   6.247   1.329  0.9038 -2.8739  1.5780
  321MOL0     H43284  11.733   6.179   1.533 -1.3416  0.6064 -0.6166
  321MOL0     H43285  11.837   6.274   1.423  1.3505  1.1453  1.1794
  321MOL0     H43286  11.912   6.503   1.467  1.3878 -2.6206 -0.2020
  321MOL0     H43287  12.076   6.627   1.752  1.0003  0.3885 -1.8011
  321MOL0     H43288  12.045   6.660   1.586 -0.8086  3.0200 -0.2660
  321MOL0     H43289  11.847   6.809   1.692  1.0792  1.2125 -0.5620
  321MOL0     H43290  11.926   6.767   1.840 -0.3292 -1.1814  0.1413
  321MOL0     H43291  11.981   6.988   1.708 -0.8012 -0.5076 -2.9294
  321MOL0     H43292  12.091   6.884   1.608  2.2865  0.3233  1.1214
  321MOL0     H43293  12.199   6.799   1.803  0.3990  0.5006  1.0863
  321MOL0     H43294  12.111   6.910   1.910  2.8473  1.3754  1.9518
  321MOL0     H43295  12.486   7.073   1.695  4.0651 -2.5152 -1.0161
  321MOL0     H43296  12.712   7.014   1.816 -0.3872  4.1884 -0.5882
  321MOL0     H43297  13.037   7.155   1.929  1.4661  0.5581 -0.2679
  321MOL0     H43298  13.266   7.157   2.009  0.4342 -0.8924 -0.8306
  321MOL0     H43299  13.420   6.899   2.314  0.4811  2.0842 -0.0083
  321MOL0     H43300  13.458   6.793   2.170 -1.0665 -0.1012 -1.3621
  321MOL0     H43301  13.594   7.036   2.250  2.5943  0.6124 -1.7015
  321MOL0     H43302  13.625   6.858   2.304 -1.1673 -3.3050 -1.7039
  321MOL0     H43303  13.656   6.794   2.073  0.7735  0.2195  0.7696
  321MOL0     H43304  13.626   6.956   2.018  0.2133  1.2794  0.4871
  321MOL0     H43305  13.867   6.883   2.194  1.7644 -1.3824 -1.1288
  321MOL0     H43306  13.833   7.039   2.126 -1.6090 -0.9759  3.4214
  321MOL0     H43307  13.854   6.905   1.892 -2.7968  0.2911  0.6416
  321MOL0     H43308  13.876   6.761   1.990  0.2738  0.4875  2.3573
  321MOL0     H43309  14.065   6.989   2.012 -0.9005  0.2855 -1.1804
  321MOL0     H43310  14.075   6.829   2.092  1.4882  1.3845  0.2500
  321MOL0     H43311  14.062   6.873   1.785  1.7644 -3.3870 -1.2723
  321MOL0     H43312  14.085   6.713   1.868  0.0676 -1.3407  0.3741
  321MOL0     H43313  14.278   6.822   1.752 -3.0699  0.8772 -1.0769
  321MOL0     H43314  14.268   6.954   1.856 -1.0622  0.0624  0.8998
  321MOL0     H43315  13.208   6.800   2.221 -3.1601  0.8918  2.8421
  321MOL0     H43316  12.971   6.783   2.152  0.0499 -0.3095  0.2732
  321MOL0     H43317  12.482   6.891   2.163  0.8155  0.3790  0.2761
  321MOL0     H43318  12.280   6.933   2.044 -1.0037  3.9386 -0.9757
  321MOL0     H43319  10.700   6.021   1.449  0.2580  0.4862  0.2851
  321MOL0     H43320  10.451   5.969   1.429 -0.7170  1.5031 -0.6815
  321MOL0     H43321  10.026   6.145   1.592  1.5505  0.3279 -1.0809
  321MOL0     H43322   9.797   6.131   1.613  4.9837  1.0421  1.3122
  321MOL0     H43323   9.591   6.178   1.236  2.0110 -1.2606 -0.0137
  321MOL0     H43324   9.458   6.174   1.354 -2.4476 -0.9148 -3.5321
  321MOL0     H43325   9.550   5.942   1.177 -1.3582 -0.8179 -1.7561
  321MOL0     H43326   9.409   6.037   1.161  1.7755  0.4713 -2.3196
  321MOL0     H43327   9.344   5.971   1.406 -0.0954  0.0673 -0.6608
  321MOL0     H43328   9.492   5.878   1.413  0.0764  0.0234  0.0865
  321MOL0     H43329   9.297   5.750   1.372 -2.5461  0.6653 -0.4914
  321MOL0     H43330   9.271   5.834   1.217 -0.0008 -2.0854 -0.7139
  321MOL0     H43331   9.541   5.570   1.067 -0.9224 -1.1937  0.6867
  321MOL0     H43332   9.767   6.006   1.194  1.8355 -1.0245 -0.3780
  321MOL0     H43333   9.940   5.887   1.139 -0.5934 -0.2358  1.0689
  321MOL0     H43334  10.022   6.023   1.071 -0.7996 -0.1532  0.9046
  321MOL0     H43335  10.115   5.909   1.177 -0.0685 -0.3416  1.7653
  322MOL0     O43336   6.193  10.068   3.179 -0.3283  0.1876 -0.5971
  322MOL0     C43337   6.253  10.173   3.160 -0.4292 -0.0069 -0.1828
  322MOL0     O43338   6.379  10.181   3.109 -0.2377  0.3091  0.4139
  322MOL0     C43339   6.455  10.070   3.074 -0.5677 -0.8778 -0.3903
  322MOL0     C43340   6.591  10.078   3.099  0.2412 -0.7966  0.0915
  322MOL0     C43341   6.683   9.980   3.053  0.1831 -0.5611  0.7100
  322MOL0     C43342   6.640   9.879   2.968  0.1625  0.0203 -0.6664
  322MOL0     O43343   6.731   9.780   2.942  0.5417 -0.6922  0.4067
  322MOL0     C43344   6.697   9.662   2.863 -0.8706  0.3547  0.2632
  322MOL0     C43345   6.799   9.551   2.881 -1.2937 -0.1376 -1.3314
  322MOL0     C43346   6.787   9.493   3.016  0.0075 -0.0432 -0.6329
  322MOL0     C43347   6.897   9.386   3.052 -0.1979 -0.2161  0.3880
  322MOL0     C43348   7.032   9.449   3.084 -0.3905  0.3907  0.2423
  322MOL0     C43349   7.135   9.340   3.125  1.0824  0.3297 -0.0755
  322MOL0     C43350   7.272   9.393   3.150  0.1677  0.3599  1.3368
  322MOL0     C43351   7.295   9.502   3.250  0.5529  0.7679 -0.4644
  322MOL0     N43352   7.238   9.475   3.384 -0.3408 -0.2585  0.6112
  322MOL0     C43353   7.131   9.540   3.451 -0.6861 -0.6341  0.0778
  322MOL0     C43354   7.160   9.519   3.583 -0.8126 -0.3499 -0.2764
  322MOL0     C43355   7.101   9.598   3.694 -0.5862  0.2240  0.5436
  322MOL0     C43356   6.984   9.506   3.745  0.4947 -0.5426 -0.4014
  322MOL0     C43357   6.902   9.606   3.828  0.5083  0.6506 -0.9447
  322MOL0     C43358   6.785   9.544   3.895 -0.3799 -0.1202 -0.2312
  322MOL0     O43359   6.822   9.472   4.017  0.1971  0.5084  0.1336
  322MOL0     C43360   6.729   9.383   4.072  0.7731  0.2251 -0.8685
  322MOL0     C43361   6.591   9.358   4.030 -1.2399 -1.1381 -0.0597
  322MOL0     C43362   6.520   9.258   4.093 -0.4357 -0.0689  0.1984
  322MOL0     C43363   6.561   9.198   4.207 -0.2353  0.3962 -0.3961
  322MOL0     C43364   6.470   9.088   4.257  0.1984  0.1236  0.9150
  322MOL0     O43365   6.500   9.016   4.372 -0.4134  0.2175 -0.2045
  322MOL0     C43366   6.412   8.926   4.420  0.5105 -0.5739 -0.5077
  322MOL0     C43367   6.292   8.973   4.478 -0.9421 -0.8835  0.2514
  322MOL0     C43368   6.185   8.902   4.507 -0.2493  0.2408 -0.6443
  322MOL0     C43369   6.197   8.763   4.499 -0.1276  0.7446 -0.7632
  322MOL0     O43370   6.110   8.675   4.561  0.1606 -0.3689  0.1271
  322MOL0     C43371   5.980   8.717   4.608 -0.0882  0.3521 -0.1967
  322MOL0     C43372   5.883   8.687   4.489 -0.6584  0.5925 -0.0878
  322MOL0     C43373   5.739   8.708   4.534 -0.0580 -0.1906  0.7807
  322MOL0     C43374   5.647   8.733   4.416  0.0916 -0.4614 -0.5737
  322MOL0     C43375   5.498   8.738   4.472 -1.0071 -0.3012 -0.2451
  322MOL0     C43376   5.393   8.787   4.374  0.1667  0.6084  0.3585
  322MOL0     C43377   5.263   8.804   4.450  0.6086  0.6874  0.5443
  322MOL0     C43378   5.151   8.899   4.395  0.7583  0.2722 -0.1375
  322MOL0    Cl43379   5.012   8.903   4.502  0.4180 -0.0173  0.2490
  322MOL0     C43380   6.318   8.701   4.456 -0.3386 -0.6827 -0.4621
  322MOL0     C43381   6.426   8.789   4.415 -0.1381  0.5709  0.3503
  322MOL0     O43382   6.369   9.061   4.191  0.2895 -0.0758  0.2790
  322MOL0     C43383   6.694   9.226   4.250 -0.3827 -0.3758 -0.5756
  322MOL0     C43384   6.780   9.311   4.180  0.2392  0.2073  0.3694
  322MOL0     N43385   7.273   9.434   3.595  0.1485 -0.6353 -0.5135
  322MOL0     N43386   7.319   9.419   3.477  0.0194 -0.6555  0.2100
  322MOL0     C43387   6.503   9.879   2.937  0.8777 -0.3797  1.0878
  322MOL0     C43388   6.415   9.985   2.977 -0.7337  0.3339  0.3243
  322MOL0     C43389   6.191  10.294   3.210 -0.3567  0.0486 -0.2149
  322MOL0     C43390   6.286  10.391   3.255 -0.2468  0.5000 -0.4003
  322MOL0     C43391   6.241  10.508   3.317  0.8445 -0.2566 -0.3743
  322MOL0     C43392   6.103  10.542   3.342  0.2011  0.1124 -1.2548
  322MOL0     O43393   6.057  10.659   3.398  0.2511  0.2213  0.3488
  322MOL0     C43394   5.925  10.705   3.364 -0.0073 -0.6213  0.0095
  322MOL0     C43395   5.914  10.857   3.393 -0.1568  0.7164 -0.3797
  322MOL0     C43396   6.029  10.910   3.488  0.8984  0.2054 -0.7058
  322MOL0     C43397   6.013  10.877   3.633  1.0067  0.2548 -0.3004
  322MOL0     C43398   5.922  10.972   3.704 -1.4390 -0.3537 -0.0542
  322MOL0     C43399   5.837  11.035   3.765  0.0120  0.1604 -0.6167
  322MOL0     C43400   6.011  10.453   3.283  0.0326  0.8449  0.1795
  322MOL0     C43401   6.053  10.328   3.218  0.2691 -0.2268  0.7299
  322MOL0     C43402   5.945  10.249   3.152 -0.4770 -0.2976  0.3205
  322MOL0     H43403   6.626  10.159   3.163 -3.7294  0.4733  0.9155
  322MOL0     H43404   6.788   9.989   3.081  1.1353  2.2938 -3.0017
  322MOL0     H43405   6.605   9.622   2.907 -0.0490 -0.6365  1.1222
  322MOL0     H43406   6.682   9.691   2.758  0.8939  1.2493  0.2152
  322MOL0     H43407   6.891   9.602   2.852 -0.6985 -0.0288  0.5918
  322MOL0     H43408   6.780   9.469   2.812 -1.7089 -0.1565 -1.1970
  322MOL0     H43409   6.688   9.449   3.028 -0.6998  1.7945  0.6270
  322MOL0     H43410   6.789   9.571   3.093 -0.2605 -0.3682 -0.2948
  322MOL0     H43411   6.867   9.327   3.139 -0.9743  0.7440  0.7966
  322MOL0     H43412   6.897   9.307   2.976  0.4986 -0.5478  0.7260
  322MOL0     H43413   7.069   9.513   3.003  3.6380  1.1147  2.4089
  322MOL0     H43414   7.020   9.518   3.168  1.3300  2.9588 -1.4447
  322MOL0     H43415   7.110   9.289   3.218  3.2390 -0.1015  0.3259
  322MOL0     H43416   7.140   9.269   3.041  2.1158  1.5909 -1.1260
  322MOL0     H43417   7.320   9.413   3.054 -0.3395 -1.2772  0.7090
  322MOL0     H43418   7.328   9.312   3.197  2.1680 -0.5817 -2.3139
  322MOL0     H43419   7.396   9.535   3.277 -0.3965  1.4659  2.7228
  322MOL0     H43420   7.251   9.594   3.212  2.2476  1.5508 -0.6365
  322MOL0     H43421   7.053   9.596   3.400 -0.9519 -0.7187  0.3916
  322MOL0     H43422   7.173   9.619   3.773  1.0470 -0.3987 -0.7029
  322MOL0     H43423   7.072   9.691   3.645  2.6678  1.2567  0.3360
  322MOL0     H43424   6.921   9.466   3.665  1.5420 -1.5424 -0.7507
  322MOL0     H43425   7.025   9.427   3.810 -3.1706 -1.1031  1.4972
  322MOL0     H43426   6.852   9.680   3.765 -2.2685 -0.1274  0.1920
  322MOL0     H43427   6.972   9.658   3.893 -0.2877  0.5226  0.0373
  322MOL0     H43428   6.743   9.469   3.827  2.8419 -1.9132 -0.4618
  322MOL0     H43429   6.712   9.620   3.922  1.5561  0.8343  2.8452
  322MOL0     H43430   6.546   9.402   3.942  0.8224  2.8634  0.6723
  322MOL0     H43431   6.425   9.236   4.046 -2.2782  1.2112  3.0417
  322MOL0     H43432   6.279   9.080   4.489  0.8818 -0.6471  0.4534
  322MOL0     H43433   6.101   8.953   4.553 -0.1517 -0.8320  0.7825
  322MOL0     H43434   5.950   8.658   4.695 -4.2172  0.4604 -1.3093
  322MOL0     H43435   5.980   8.821   4.640 -0.8820 -0.4384  2.6327
  322MOL0     H43436   5.896   8.758   4.406 -1.8361  1.0984  0.1361
  322MOL0     H43437   5.899   8.588   4.445  1.2778  1.3356 -1.1749
  322MOL0     H43438   5.699   8.614   4.573 -1.1464 -0.1682 -0.2486
  322MOL0     H43439   5.744   8.781   4.616 -0.9909 -0.6208  1.2365
  322MOL0     H43440   5.654   8.652   4.343 -1.5179 -0.6158 -0.6006
  322MOL0     H43441   5.673   8.828   4.368 -2.1214  0.4263 -0.1444
  322MOL0     H43442   5.499   8.796   4.565  2.2370 -1.2162  0.3980
  322MOL0     H43443   5.458   8.640   4.502 -0.8347 -0.2497  0.1634
  322MOL0     H43444   5.427   8.879   4.328 -1.0635  0.1214 -1.6155
  322MOL0     H43445   5.386   8.711   4.296 -0.7496  1.2925 -0.2342
  322MOL0     H43446   5.284   8.830   4.555  0.7106  3.1525 -0.0227
  322MOL0     H43447   5.209   8.709   4.458  2.5343 -0.5416 -0.2409
  322MOL0     H43448   5.194   8.997   4.371 -1.7333  1.2636 -0.8560
  322MOL0     H43449   5.120   8.850   4.302  1.9440 -1.1292  0.1623
  322MOL0     H43450   6.316   8.594   4.439 -3.0276 -0.4159 -2.4720
  322MOL0     H43451   6.518   8.751   4.370 -0.8408 -1.8063  0.7487
  322MOL0     H43452   6.730   9.177   4.339 -1.9569  1.4687  1.1758
  322MOL0     H43453   6.886   9.322   4.200  1.2345 -3.6655 -1.8582
  322MOL0     H43454   6.468   9.798   2.874  1.9415 -0.3336  0.4036
  322MOL0     H43455   6.310   9.971   2.953 -0.6717 -1.5470  1.0232
  322MOL0     H43456   6.394  10.378   3.259 -0.4023 -0.6334  0.8076
  322MOL0     H43457   6.330  10.560   3.349  2.2899 -1.3994 -2.3019
  322MOL0     H43458   5.844  10.651   3.414  1.2448 -2.2313  0.3917
  322MOL0     H43459   5.895  10.684   3.261 -0.5034 -0.4211  0.1104
  322MOL0     H43460   5.817  10.885   3.434  0.3180  0.5536  0.8753
  322MOL0     H43461   5.914  10.902   3.293 -1.0388 -1.0371 -1.2322
  322MOL0     H43462   6.029  11.019   3.482  0.8349  0.3182  0.9540
  322MOL0     H43463   6.128  10.870   3.466 -0.3281 -3.0487 -0.8499
  322MOL0     H43464   5.979  10.774   3.651 -0.5008  0.9609  1.0577
  322MOL0     H43465   6.108  10.884   3.686 -0.2043  0.1670  2.0001
  322MOL0     H43466   5.753  11.079   3.814 -2.2173 -1.5732 -2.6558
  322MOL0     H43467   5.906  10.480   3.276 -0.4745 -1.2636 -1.5646
  322MOL0     H43468   5.878  10.320   3.103 -1.2297 -0.2385  1.3836
  322MOL0     H43469   5.979  10.162   3.096  0.1478  0.4580 -0.4980
  322MOL0     H43470   5.893  10.211   3.241  1.4780 -0.5174  1.4150
  323MOL0     O43471  11.239   1.696   8.679 -0.2592  0.3435  0.0904
  323MOL0     C43472  11.196   1.815   8.666 -0.5188  0.4685  0.5281
  323MOL0     O43473  11.274   1.929   8.657 -0.1016 -0.1941 -0.2974
  323MOL0     C43474  11.406   1.903   8.652  0.0088 -0.0510  0.3892
  323MOL0     C43475  11.482   1.931   8.764  0.4381  0.7811  0.8324
  323MOL0     C43476  11.617   1.896   8.755 -0.3490  0.8930  1.0492
  323MOL0     C43477  11.676   1.830   8.644 -0.2710  0.1197 -0.1431
  323MOL0     O43478  11.798   1.776   8.643 -0.7134 -0.2055 -0.2855
  323MOL0     C43479  11.921   1.859   8.642  0.1297  0.0673  0.2596
  323MOL0     C43480  11.918   1.965   8.533 -0.2514  0.0352 -0.7017
  323MOL0     C43481  11.937   1.885   8.398  0.8948  0.4007 -0.4564
  323MOL0     C43482  11.928   1.978   8.272  0.0869 -0.1229 -0.0855
  323MOL0     C43483  12.009   1.917   8.158  0.1318 -0.2373  0.3442
  323MOL0     C43484  11.970   2.002   8.041  0.2103  0.1751  0.0897
  323MOL0     C43485  12.024   1.962   7.903  0.2799 -0.2342  0.2215
  323MOL0     C43486  12.177   1.992   7.897 -0.0182  0.2298 -0.1494
  323MOL0     N43487  12.188   2.137   7.864  0.9059 -0.8460  0.0476
  323MOL0     C43488  12.214   2.248   7.942  0.1253  0.1098 -0.2149
  323MOL0     C43489  12.218   2.355   7.855  0.8062 -0.0117  0.1739
  323MOL0     C43490  12.258   2.493   7.878  0.0545 -0.1748 -0.4377
  323MOL0     C43491  12.208   2.561   8.004 -0.4988  0.6161 -0.4103
  323MOL0     C43492  12.066   2.598   7.999  0.2630  0.1979  0.0028
  323MOL0     C43493  12.021   2.641   8.139 -0.3734 -0.0662 -0.3801
  323MOL0     O43494  11.893   2.703   8.117 -0.1067  0.4027  0.1625
  323MOL0     C43495  11.801   2.698   8.217 -0.7742  0.1467 -0.1298
  323MOL0     C43496  11.814   2.656   8.352  0.6027  0.0765  0.1381
  323MOL0     C43497  11.706   2.666   8.444 -1.8398 -0.2369  0.5266
  323MOL0     C43498  11.579   2.705   8.404 -0.4145 -0.2437  0.4430
  323MOL0     C43499  11.472   2.734   8.503  0.4950 -1.2440  0.0578
  323MOL0     O43500  11.514   2.769   8.627 -0.0615  0.2569 -0.5834
  323MOL0     C43501  11.421   2.803   8.725 -0.9121 -0.0585 -1.1608
  323MOL0     C43502  11.288   2.756   8.743 -0.6983  1.5998  0.3078
  323MOL0     C43503  11.203   2.800   8.847 -1.1401  0.2452  0.1337
  323MOL0     C43504  11.254   2.891   8.945  0.3244  0.0332  1.4605
  323MOL0     O43505  11.169   2.941   9.039  0.0455 -0.3143 -0.0241
  323MOL0     C43506  11.217   3.022   9.145 -0.2325 -0.0337  0.5481
  323MOL0     C43507  11.116   3.062   9.255 -0.4144 -0.5235  0.8831
  323MOL0     C43508  10.983   3.110   9.194  0.8235  0.1468 -0.1763
  323MOL0     C43509  10.873   3.125   9.300  0.1771  0.0407  0.4804
  323MOL0     C43510  10.741   3.200   9.239  0.9923  0.6873 -0.0638
  323MOL0     C43511  10.672   3.134   9.114  0.6787 -0.6870  0.5318
  323MOL0     C43512  10.546   3.216   9.074  0.5542 -0.0965  0.4055
  323MOL0     C43513  10.472   3.155   8.961  0.0396 -0.1533  0.0039
  323MOL0    Cl43514  10.558   3.183   8.799  0.0183 -0.4630  0.0174
  323MOL0     C43515  11.396   2.918   8.935  0.1746 -0.2160 -0.4107
  323MOL0     C43516  11.473   2.878   8.826  0.0350 -0.4898 -0.2589
  323MOL0     O43517  11.356   2.720   8.467  0.0844 -0.6601  0.6614
  323MOL0     C43518  11.562   2.738   8.270 -0.3253  0.7416  0.7427
  323MOL0     C43519  11.666   2.733   8.176 -0.5538  0.0648 -0.3397
  323MOL0     N43520  12.176   2.308   7.728 -0.0866 -0.0939  0.2895
  323MOL0     N43521  12.158   2.182   7.737 -0.2479  0.4382 -0.0566
  323MOL0     C43522  11.594   1.803   8.533 -0.2322 -0.6846 -0.6435
  323MOL0     C43523  11.455   1.843   8.539 -0.1565 -0.2852  0.5550
  323MOL0     C43524  11.053   1.837   8.669 -0.1706  0.7252 -0.7324
  323MOL0     C43525  11.001   1.955   8.722  0.1971 -0.3446  0.2186
  323MOL0     C43526  10.861   1.964   8.729 -0.6868  0.0389  0.6199
  323MOL0     C43527  10.775   1.869   8.667  0.0445  0.2436  0.9420
  323MOL0     O43528  10.640   1.885   8.659  0.9034  0.3408 -0.2252
  323MOL0     C43529  10.571   2.007   8.685 -0.5255  0.7925  0.5962
  323MOL0     C43530  10.425   1.979   8.659  0.0478  0.1547  0.3108
  323MOL0     C43531  10.328   2.097   8.702  0.3615 -0.3116  0.8486
  323MOL0     C43532  10.179   2.093   8.652 -0.2352  0.3540  0.0312
  323MOL0     C43533  10.112   1.980   8.716  0.1300  0.2836  0.0856
  323MOL0     C43534  10.067   1.885   8.773 -0.0610  0.4676 -0.0629
  323MOL0     C43535  10.828   1.755   8.612 -0.0903 -0.0595  0.9882
  323MOL0     C43536  10.967   1.729   8.616  1.1291 -0.1065  0.3737
  323MOL0     C43537  11.006   1.591   8.565 -0.9480  0.0486 -0.1720
  323MOL0     H43538  11.442   1.974   8.855  0.7091 -0.8323  1.7556
  323MOL0     H43539  11.695   1.912   8.830 -0.7947 -1.0711  2.0026
  323MOL0     H43540  11.920   1.918   8.734 -1.6887  2.7822 -1.3441
  323MOL0     H43541  12.004   1.788   8.641  0.5177  0.4959  1.1253
  323MOL0     H43542  12.004   2.026   8.562 -1.7866  0.4379  3.7789
  323MOL0     H43543  11.829   2.028   8.535  0.6890  1.4106 -0.8035
  323MOL0     H43544  11.856   1.814   8.378  2.9811 -1.8889 -1.3608
  323MOL0     H43545  12.030   1.829   8.385  1.0444  1.3104 -5.7946
  323MOL0     H43546  11.827   2.000   8.238  0.0463  0.7229  0.5630
  323MOL0     H43547  11.956   2.078   8.305 -2.0359  2.0558 -4.1703
  323MOL0     H43548  12.117   1.910   8.175  0.6101  0.7697 -1.8932
  323MOL0     H43549  11.982   1.812   8.140  1.2688 -0.4007 -0.5123
  323MOL0     H43550  11.862   1.993   8.027  0.2893  0.6222 -0.8660
  323MOL0     H43551  11.985   2.110   8.054 -1.5317  0.9055 -2.9310
  323MOL0     H43552  11.965   2.022   7.833 -1.7570  2.9910  4.2785
  323MOL0     H43553  11.998   1.856   7.900 -2.1013  0.2434  1.6050
  323MOL0     H43554  12.221   1.970   7.995  0.4728  0.4746 -0.3114
  323MOL0     H43555  12.226   1.923   7.828 -1.3867 -1.8889  0.8935
  323MOL0     H43556  12.241   2.247   8.047  2.5578  0.7721 -0.7814
  323MOL0     H43557  12.364   2.477   7.899  0.0208 -5.3042 -2.6889
  323MOL0     H43558  12.246   2.552   7.787  1.4313 -0.8647 -1.0872
  323MOL0     H43559  12.220   2.487   8.083  0.4655 -0.9339 -1.9346
  323MOL0     H43560  12.275   2.641   8.036 -1.4621  1.3066 -0.0542
  323MOL0     H43561  12.003   2.514   7.968  1.5905 -0.9924  0.4106
  323MOL0     H43562  12.049   2.685   7.935  0.1348  0.7753  0.8012
  323MOL0     H43563  12.099   2.701   8.186 -1.9954  2.3229 -0.5952
  323MOL0     H43564  12.014   2.553   8.204 -0.8783  0.1284 -0.1689
  323MOL0     H43565  11.911   2.639   8.398  0.6192  1.9860  0.8929
  323MOL0     H43566  11.717   2.643   8.549 -1.3626 -0.4081  0.4426
  323MOL0     H43567  11.257   2.677   8.675 -1.6942  1.5081  0.8386
  323MOL0     H43568  11.100   2.768   8.859 -0.8712 -0.4155  0.8373
  323MOL0     H43569  11.309   2.979   9.185  0.7889 -0.2945 -1.8927
  323MOL0     H43570  11.249   3.117   9.099  0.5985  0.4153  1.9907
  323MOL0     H43571  11.106   2.970   9.313 -2.2798  0.2476  1.8583
  323MOL0     H43572  11.167   3.136   9.317 -1.9851 -1.5902  3.6358
  323MOL0     H43573  10.991   3.203   9.138  1.1161 -0.8250 -1.8321
  323MOL0     H43574  10.938   3.040   9.122 -0.4036 -0.0204  0.7132
  323MOL0     H43575  10.910   3.183   9.385  1.4223  0.1097 -0.0943
  323MOL0     H43576  10.842   3.024   9.330  0.8851 -0.6679 -1.0963
  323MOL0     H43577  10.769   3.300   9.204 -1.0999  2.1553  2.0902
  323MOL0     H43578  10.655   3.214   9.305  0.1010 -3.2725 -0.1924
  323MOL0     H43579  10.728   3.113   9.023 -1.2656  0.9142 -1.1328
  323MOL0     H43580  10.635   3.034   9.142  1.1131 -1.7519 -2.3079
  323MOL0     H43581  10.572   3.317   9.040 -2.6990  1.8988  3.1774
  323MOL0     H43582  10.478   3.224   9.159 -0.2869  0.3069 -0.2949
  323MOL0     H43583  10.456   3.048   8.978  1.3596 -0.0378  2.4362
  323MOL0     H43584  10.369   3.193   8.952 -0.8418 -1.7934  2.1653
  323MOL0     H43585  11.451   2.987   8.998 -1.0158  1.1572 -0.7927
  323MOL0     H43586  11.580   2.899   8.822 -0.1265  0.4359  0.0455
  323MOL0     H43587  11.469   2.777   8.232 -0.3834 -0.5682 -0.5620
  323MOL0     H43588  11.636   2.763   8.077  0.6118  0.5933 -0.5512
  323MOL0     H43589  11.641   1.742   8.456  0.8605  1.0473 -1.4146
  323MOL0     H43590  11.387   1.833   8.455 -4.9819  1.4158  3.7990
  323MOL0     H43591  11.061   2.033   8.768  2.1929 -2.2348  1.0538
  323MOL0     H43592  10.813   2.044   8.786  0.4876  0.3924  1.1452
  323MOL0     H43593  10.606   2.094   8.629 -0.0903  0.6511  0.6492
  323MOL0     H43594  10.589   2.036   8.789  0.6768 -1.0509  0.9309
  323MOL0     H43595  10.405   1.878   8.695 -0.1046 -0.9431 -2.6475
  323MOL0     H43596  10.410   1.959   8.553 -1.9933 -3.8797  1.2043
  323MOL0     H43597  10.368   2.191   8.665  1.6961 -0.8502  0.8868
  323MOL0     H43598  10.314   2.099   8.811  2.5578 -2.2911  1.2560
  323MOL0     H43599  10.127   2.188   8.669  1.4866  1.0382  1.9468
  323MOL0     H43600  10.185   2.082   8.543  3.1724  1.2801 -0.0074
  323MOL0     H43601  10.038   1.798   8.828  2.8514 -1.0696 -0.7149
  323MOL0     H43602  10.757   1.689   8.565  0.1698 -0.1198  0.6781
  323MOL0     H43603  11.066   1.538   8.640  1.6021  0.8357 -1.5177
  323MOL0     H43604  10.919   1.532   8.535 -0.5227 -1.1602  0.8793
  323MOL0     H43605  11.077   1.597   8.482  0.4436 -3.7716  0.5738
  324MOL0     O43606   7.325   5.440   4.707  1.1518  0.1002  0.1077
  324MOL0     C43607   7.304   5.313   4.702  0.6943  0.0248 -0.0165
  324MOL0     O43608   7.396   5.222   4.649 -0.3793 -0.5729 -0.4551
  324MOL0     C43609   7.502   5.268   4.576  0.1244 -0.2950  0.3380
  324MOL0     C43610   7.631   5.220   4.609  0.5401 -0.5134 -0.6080
  324MOL0     C43611   7.732   5.243   4.521 -0.3642  0.4213  0.1096
  324MOL0     C43612   7.725   5.333   4.413  0.4573  0.0545 -0.4446
  324MOL0     O43613   7.833   5.328   4.326 -1.3338 -0.4043  0.6330
  324MOL0     C43614   7.828   5.428   4.219 -0.6443  0.3739  0.0241
  324MOL0     C43615   7.961   5.446   4.155  0.1770 -0.5085 -0.0647
  324MOL0     C43616   8.060   5.489   4.266 -0.6654  0.3349 -0.2655
  324MOL0     C43617   8.201   5.446   4.234 -0.3554 -0.2064 -0.8193
  324MOL0     C43618   8.248   5.504   4.103  0.4531  0.3530 -0.3581
  324MOL0     C43619   8.377   5.433   4.055  0.7124  0.0777  0.8622
  324MOL0     C43620   8.439   5.500   3.931 -0.7664 -0.2683 -0.6518
  324MOL0     C43621   8.556   5.415   3.884  0.3559  0.4234 -0.2127
  324MOL0     N43622   8.647   5.492   3.793  0.1509  0.6304  0.3771
  324MOL0     C43623   8.698   5.452   3.669 -0.0954  0.7657 -0.4428
  324MOL0     C43624   8.798   5.542   3.648  0.3612 -0.0530 -1.2420
  324MOL0     C43625   8.887   5.541   3.525  0.1868  0.7022  0.8628
  324MOL0     C43626   9.028   5.567   3.560 -0.1410 -1.6925 -0.0271
  324MOL0     C43627   9.117   5.580   3.432 -0.4504 -0.6247 -0.2357
  324MOL0     C43628   9.267   5.555   3.456  0.1719 -0.3215  0.1230
  324MOL0     O43629   9.299   5.419   3.506  0.6086  0.1069 -0.4274
  324MOL0     C43630   9.430   5.386   3.509 -0.3665 -0.8288 -0.5375
  324MOL0     C43631   9.456   5.255   3.543  0.8660  0.2322  0.1406
  324MOL0     C43632   9.585   5.213   3.542  0.4431  0.1460 -0.5082
  324MOL0     C43633   9.690   5.294   3.525 -0.2822 -0.7347 -0.7735
  324MOL0     C43634   9.824   5.238   3.527 -0.5838  0.1413  0.3599
  324MOL0     O43635   9.918   5.307   3.608  0.1145 -0.2158  0.3041
  324MOL0     C43636  10.049   5.272   3.605  0.9565  0.5952  0.4244
  324MOL0     C43637  10.110   5.188   3.696  0.1331 -0.1507 -0.1833
  324MOL0     C43638  10.235   5.131   3.671  0.6241 -0.5539  0.0501
  324MOL0     C43639  10.299   5.161   3.555 -0.0582 -0.0954 -0.9202
  324MOL0     O43640  10.416   5.102   3.533  0.2974 -0.2469  0.9849
  324MOL0     C43641  10.509   5.075   3.640  0.1301 -0.3173 -0.1506
  324MOL0     C43642  10.650   5.081   3.583  0.5798  0.2452  0.8108
  324MOL0     C43643  10.744   4.977   3.642  0.0585  1.0045 -1.0188
  324MOL0     C43644  10.892   5.021   3.636  0.0744  0.6031 -0.0028
  324MOL0     C43645  10.999   4.909   3.660  0.1096 -0.4286 -0.0658
  324MOL0     C43646  11.141   4.959   3.638 -0.3537 -0.3348 -0.9789
  324MOL0     C43647  11.251   4.851   3.692  0.5775 -0.4169 -0.1036
  324MOL0     C43648  11.375   4.927   3.738 -0.6917  0.4928  0.3598
  324MOL0    Cl43649  11.356   4.980   3.907  0.1470  0.2261 -0.0874
  324MOL0     C43650  10.251   5.246   3.463  0.2260 -0.5450  0.1875
  324MOL0     C43651  10.127   5.303   3.491  0.3476  0.1048  0.7354
  324MOL0     O43652   9.851   5.135   3.457  0.3487 -0.2136 -0.9999
  324MOL0     C43653   9.667   5.440   3.522 -0.8283 -0.8336 -0.4648
  324MOL0     C43654   9.531   5.481   3.515  0.3462  0.0975  0.1325
  324MOL0     N43655   8.810   5.623   3.763  0.1332  0.4555  0.0899
  324MOL0     N43656   8.712   5.594   3.846 -0.6784 -0.3090  0.2381
  324MOL0     C43657   7.596   5.386   4.387 -0.1190 -0.7481 -0.3790
  324MOL0     C43658   7.481   5.350   4.462  0.3411  1.4922  0.4420
  324MOL0     C43659   7.169   5.253   4.737  0.1537  0.2975 -0.5149
  324MOL0     C43660   7.142   5.135   4.672 -0.6524 -0.5940  0.8991
  324MOL0     C43661   7.013   5.081   4.678  0.4731 -0.9191 -0.6825
  324MOL0     C43662   6.918   5.141   4.763 -0.1547 -0.7171  0.3140
  324MOL0     O43663   6.787   5.099   4.760 -0.1138 -0.3801  0.5013
  324MOL0     C43664   6.748   4.987   4.676 -0.2687  0.3500  0.2354
  324MOL0     C43665   6.796   4.848   4.735  0.9111  0.7112 -0.3014
  324MOL0     C43666   6.720   4.824   4.867 -0.0376 -0.5405  0.1324
  324MOL0     C43667   6.760   4.688   4.915 -0.0784  0.5077  0.0710
  324MOL0     C43668   6.906   4.690   4.948  0.1962 -0.0193 -0.3307
  324MOL0     C43669   7.021   4.705   4.983 -0.0285  0.4712 -0.3377
  324MOL0     C43670   6.948   5.260   4.829 -0.1231 -0.0275  0.3824
  324MOL0     C43671   7.070   5.312   4.811 -0.6510  0.0120 -0.3486
  324MOL0     C43672   7.094   5.429   4.901 -0.4424  0.7505  0.4666
  324MOL0     H43673   7.632   5.159   4.699  1.4093  2.7609  1.8480
  324MOL0     H43674   7.829   5.199   4.539  0.0550 -0.5356 -3.6593
  324MOL0     H43675   7.760   5.400   4.138 -0.7442  0.9783 -0.1065
  324MOL0     H43676   7.778   5.523   4.239 -0.1612  0.4454  0.9517
  324MOL0     H43677   7.961   5.517   4.071 -0.0821 -1.6416 -1.0455
  324MOL0     H43678   7.988   5.348   4.115 -0.5975 -0.0319 -1.8657
  324MOL0     H43679   8.034   5.450   4.365 -1.6053 -1.1138 -1.0484
  324MOL0     H43680   8.069   5.598   4.271 -0.5315  0.4973 -2.9285
  324MOL0     H43681   8.274   5.468   4.312  0.3686 -0.0916 -1.5210
  324MOL0     H43682   8.201   5.337   4.224 -1.8346 -0.2958 -0.0698
  324MOL0     H43683   8.171   5.500   4.025  0.4869  1.4019 -0.4588
  324MOL0     H43684   8.266   5.611   4.112 -0.2656  0.5727 -1.2706
  324MOL0     H43685   8.446   5.426   4.139  0.6939 -2.9117  0.7425
  324MOL0     H43686   8.354   5.334   4.013  1.5102  0.5435 -0.7572
  324MOL0     H43687   8.477   5.590   3.980 -0.9532 -2.0411  3.1644
  324MOL0     H43688   8.361   5.524   3.858  0.7472  0.9494 -1.9276
  324MOL0     H43689   8.620   5.394   3.970 -0.2004  3.3299  1.0319
  324MOL0     H43690   8.511   5.326   3.839  1.0646 -0.3907  0.6483
  324MOL0     H43691   8.666   5.370   3.605  2.8586 -1.3172  0.4854
  324MOL0     H43692   8.886   5.441   3.481  2.1180  0.6230  0.8904
  324MOL0     H43693   8.862   5.616   3.449 -0.0365  0.4117  0.6449
  324MOL0     H43694   9.042   5.660   3.616  0.1146  0.3544 -3.2649
  324MOL0     H43695   9.079   5.493   3.622  1.8923 -0.1500  0.2398
  324MOL0     H43696   9.098   5.675   3.380  0.1102  1.1650  2.5873
  324MOL0     H43697   9.075   5.510   3.360 -2.1540  1.4192 -1.3623
  324MOL0     H43698   9.309   5.633   3.520  0.3406 -0.4178  0.1316
  324MOL0     H43699   9.323   5.558   3.361 -0.2280 -2.6625 -0.2557
  324MOL0     H43700   9.382   5.176   3.536  2.3490 -1.1654 -0.4697
  324MOL0     H43701   9.600   5.106   3.555  0.5777  0.2986  0.7740
  324MOL0     H43702  10.050   5.149   3.777 -0.0379 -0.8475 -0.6335
  324MOL0     H43703  10.274   5.063   3.746  0.6199 -1.5083 -0.7875
  324MOL0     H43704  10.505   5.138   3.729 -0.0750 -0.1499 -0.2778
  324MOL0     H43705  10.492   4.973   3.675  1.0847 -0.5196 -0.2433
  324MOL0     H43706  10.636   5.048   3.479  0.2120 -0.6755  1.1478
  324MOL0     H43707  10.681   5.186   3.589  0.5181  0.2557  0.9368
  324MOL0     H43708  10.731   4.952   3.748  1.3952 -0.2065 -1.1026
  324MOL0     H43709  10.709   4.888   3.589 -0.9812  0.3698  0.6573
  324MOL0     H43710  10.917   5.092   3.715  2.6541 -0.6376  0.4013
  324MOL0     H43711  10.912   5.066   3.538  0.8459  1.4599  0.5345
  324MOL0     H43712  10.984   4.812   3.612 -0.4203 -1.2541  1.6901
  324MOL0     H43713  10.988   4.874   3.763  2.0256  1.1074  0.7094
  324MOL0     H43714  11.168   4.982   3.535  3.3927 -1.6316 -0.4313
  324MOL0     H43715  11.161   5.054   3.689  1.6398 -0.3237 -1.6917
  324MOL0     H43716  11.276   4.778   3.614  0.0745  1.5690 -2.2580
  324MOL0     H43717  11.212   4.790   3.774 -1.1064  0.0245 -0.5394
  324MOL0     H43718  11.459   4.858   3.742 -1.1523 -0.2490 -1.6308
  324MOL0     H43719  11.396   4.998   3.657 -0.1157  1.0709  0.9983
  324MOL0     H43720  10.292   5.267   3.365 -1.3604 -1.8239 -0.7914
  324MOL0     H43721  10.085   5.373   3.420 -0.2036 -0.2586  0.6914
  324MOL0     H43722   9.760   5.496   3.528  0.5873 -2.8237 -2.3130
  324MOL0     H43723   9.516   5.588   3.506  1.9194  0.1498 -4.9004
  324MOL0     H43724   7.584   5.443   4.295  1.9108  0.0001 -0.2370
  324MOL0     H43725   7.380   5.371   4.430 -0.6911 -0.7840  1.8865
  324MOL0     H43726   7.211   5.090   4.602 -1.2419  1.0891 -0.8717
  324MOL0     H43727   6.989   5.001   4.609 -2.3089 -0.8942  0.1132
  324MOL0     H43728   6.777   5.007   4.572  1.1617 -1.9480  0.1242
  324MOL0     H43729   6.640   4.982   4.664  0.0039 -0.5990 -2.3289
  324MOL0     H43730   6.903   4.842   4.755  0.4037  1.4779  3.2102
  324MOL0     H43731   6.762   4.770   4.666  3.4038 -2.0229  1.3592
  324MOL0     H43732   6.614   4.817   4.842 -0.1180 -2.1507  0.7999
  324MOL0     H43733   6.746   4.902   4.939  1.0635 -0.0760 -0.7310
  324MOL0     H43734   6.718   4.673   5.015 -1.0932 -2.1170 -0.6651
  324MOL0     H43735   6.737   4.603   4.851 -2.5229  1.8652 -0.9729
  324MOL0     H43736   7.127   4.708   5.003 -0.3190  3.4553  1.3272
  324MOL0     H43737   6.872   5.313   4.886 -1.0977  1.0058 -1.7494
  324MOL0     H43738   7.152   5.390   4.984  0.6841  1.9877  0.3000
  324MOL0     H43739   7.140   5.515   4.851 -2.4260  0.9799 -1.1262
  324MOL0     H43740   6.998   5.472   4.931 -1.4098 -0.0791 -1.3240
  325MOL0     O43741  10.618   2.783   7.800 -0.0469  0.7521 -0.3943
  325MOL0     C43742  10.589   2.709   7.703 -1.0067  0.0256 -0.1541
  325MOL0     O43743  10.471   2.715   7.630 -0.4156 -0.0352 -0.0269
  325MOL0     C43744  10.371   2.798   7.673  1.2418 -0.6231 -0.3132
  325MOL0     C43745  10.245   2.764   7.623 -1.1119  0.8738  0.1562
  325MOL0     C43746  10.132   2.833   7.648 -0.4033 -0.5350  1.1473
  325MOL0     C43747  10.129   2.940   7.733 -0.2087 -0.1536 -0.0196
  325MOL0     O43748  10.023   3.007   7.770  0.2265  0.1534  0.1240
  325MOL0     C43749   9.884   2.963   7.772  0.0651  0.4497  0.3215
  325MOL0     C43750   9.813   3.036   7.875  0.7759  0.4567  0.3388
  325MOL0     C43751   9.787   3.180   7.836 -0.3002  0.7095 -0.1097
  325MOL0     C43752   9.761   3.272   7.959  0.3263  0.3284 -0.5458
  325MOL0     C43753   9.744   3.418   7.925  0.3693 -0.7071  1.1615
  325MOL0     C43754   9.752   3.516   8.046  0.0069  0.4669 -0.5241
  325MOL0     C43755   9.891   3.516   8.099 -1.0988 -0.8463  0.0123
  325MOL0     C43756   9.918   3.634   8.195 -0.9400 -0.8899 -0.5086
  325MOL0     N43757   9.953   3.755   8.121  0.0718  0.1770  1.0097
  325MOL0     C43758  10.072   3.787   8.072 -0.3041  0.3130  0.6122
  325MOL0     C43759  10.065   3.912   8.009  0.3556  0.3221 -0.5480
  325MOL0     C43760  10.166   3.970   7.918  0.1742  0.0892  0.8857
  325MOL0     C43761  10.300   3.981   7.986  1.0424  0.2339  0.4585
  325MOL0     C43762  10.302   4.068   8.110  0.5627  0.5514 -0.2154
  325MOL0     C43763  10.435   4.080   8.172  0.0634 -0.9097  0.2240
  325MOL0     O43764  10.462   3.964   8.251 -0.4094 -1.1951 -0.4969
  325MOL0     C43765  10.567   3.967   8.336 -0.4983 -0.3832 -0.3617
  325MOL0     C43766  10.653   3.855   8.350  0.0333 -0.3004 -0.1342
  325MOL0     C43767  10.747   3.841   8.450 -0.4328  0.4129 -0.0829
  325MOL0     C43768  10.784   3.959   8.525  0.4615 -0.1551  0.6264
  325MOL0     C43769  10.891   3.943   8.627 -0.7985  0.4630  0.4535
  325MOL0     O43770  10.963   3.829   8.636 -0.6192 -0.4907 -0.5737
  325MOL0     C43771  11.075   3.812   8.716  0.0861  0.0497 -0.2529
  325MOL0     C43772  11.076   3.872   8.845  0.2230  0.2694  0.4097
  325MOL0     C43773  11.169   3.842   8.939 -1.4229  0.4390  0.4666
  325MOL0     C43774  11.275   3.769   8.895 -0.6705  0.1182 -0.6819
  325MOL0     O43775  11.392   3.759   8.973 -0.2368  0.5537  0.2522
  325MOL0     C43776  11.429   3.850   9.078  0.3945  0.6011  0.1748
  325MOL0     C43777  11.564   3.808   9.126 -0.3367 -0.6155  0.0764
  325MOL0     C43778  11.555   3.663   9.175 -0.4535  0.3777  0.3357
  325MOL0     C43779  11.495   3.650   9.322  0.5853 -0.4191 -0.2901
  325MOL0     C43780  11.503   3.508   9.375 -0.1117 -0.0607  0.2364
  325MOL0     C43781  11.433   3.394   9.298  0.9097 -0.6997 -0.0648
  325MOL0     C43782  11.279   3.422   9.261 -0.4827 -0.6300 -0.6752
  325MOL0     C43783  11.185   3.419   9.387 -0.4031 -0.5832  0.1033
  325MOL0    Cl43784  11.015   3.432   9.321 -0.3486 -0.0314 -0.7229
  325MOL0     C43785  11.280   3.706   8.777 -0.2436 -0.3749 -0.8527
  325MOL0     C43786  11.175   3.727   8.681 -0.0619  0.3283  0.2996
  325MOL0     O43787  10.924   4.053   8.665 -0.1220 -0.0987  0.3702
  325MOL0     C43788  10.712   4.078   8.501  0.4589 -0.3448 -0.1883
  325MOL0     C43789  10.611   4.077   8.415 -0.3578  0.0376  0.4877
  325MOL0     N43790   9.934   3.954   8.033  0.4469  0.2301 -0.1545
  325MOL0     N43791   9.874   3.857   8.098  0.5402  0.1674  0.3216
  325MOL0     C43792  10.255   3.001   7.767  0.0813  0.0509  1.0428
  325MOL0     C43793  10.372   2.926   7.733 -0.0620 -0.8660 -0.0337
  325MOL0     C43794  10.702   2.630   7.659 -0.4250 -0.4712 -0.2266
  325MOL0     C43795  10.742   2.647   7.528  0.3452  0.1382  0.0748
  325MOL0     C43796  10.844   2.574   7.476  0.7408 -0.1512 -0.0185
  325MOL0     C43797  10.915   2.483   7.561  0.1924 -0.0222  1.1109
  325MOL0     O43798  11.014   2.400   7.519 -0.5018 -0.4408 -0.1521
  325MOL0     C43799  11.088   2.457   7.411  0.3913  0.0524  0.4686
  325MOL0     C43800  11.160   2.589   7.456  0.3349  0.3034 -0.4354
  325MOL0     C43801  11.235   2.577   7.587  0.2576 -0.2283 -0.8599
  325MOL0     C43802  11.316   2.709   7.619  1.2514 -0.0545  0.5360
  325MOL0     C43803  11.405   2.754   7.517 -0.0469  0.4675  0.1523
  325MOL0     C43804  11.462   2.778   7.409 -0.5144  0.5958  0.4985
  325MOL0     C43805  10.874   2.465   7.689  0.2536  0.4099 -0.0255
  325MOL0     C43806  10.766   2.540   7.743 -0.0059 -0.0666 -0.5935
  325MOL0     C43807  10.725   2.528   7.894  0.2120 -0.4396 -0.7693
  325MOL0     H43808  10.234   2.678   7.558 -0.3828  1.8652 -1.3402
  325MOL0     H43809  10.046   2.795   7.595  0.0446  1.9754 -1.5852
  325MOL0     H43810   9.839   2.974   7.673  0.3180  2.0139  0.3500
  325MOL0     H43811   9.889   2.861   7.811  6.8144  0.6002  1.0123
  325MOL0     H43812   9.876   3.028   7.965  0.2233  0.1287  0.7008
  325MOL0     H43813   9.719   2.990   7.908  1.7864 -1.1376  1.1334
  325MOL0     H43814   9.696   3.187   7.775 -1.2102 -1.1879  0.9392
  325MOL0     H43815   9.867   3.222   7.775  1.3174 -2.2911 -0.2258
  325MOL0     H43816   9.672   3.247   8.017  1.5466  1.8149  2.1653
  325MOL0     H43817   9.848   3.267   8.026 -1.5378  0.2685  2.0239
  325MOL0     H43818   9.823   3.436   7.851 -1.6988 -1.5505 -1.3826
  325MOL0     H43819   9.653   3.440   7.870  1.9582 -0.3825 -1.5280
  325MOL0     H43820   9.723   3.614   8.008  4.2384  1.9446 -0.4775
  325MOL0     H43821   9.678   3.488   8.121 -1.0849  0.1578 -1.6771
  325MOL0     H43822   9.971   3.511   8.025  0.3373 -1.1225  1.5223
  325MOL0     H43823   9.900   3.428   8.163 -1.1916 -1.4301 -0.7641
  325MOL0     H43824   9.837   3.650   8.267  0.2526  0.4312  0.5911
  325MOL0     H43825  10.002   3.623   8.265 -2.1745  2.1266  1.6429
  325MOL0     H43826  10.160   3.723   8.068 -0.3618  0.2582 -2.0658
  325MOL0     H43827  10.181   3.905   7.831 -2.6410 -2.4666  2.1435
  325MOL0     H43828  10.139   4.073   7.892  3.0902  0.6321 -0.4563
  325MOL0     H43829  10.343   3.885   8.015  1.8064 -0.0524 -1.4736
  325MOL0     H43830  10.362   4.030   7.911  0.5701 -0.5960 -0.4975
  325MOL0     H43831  10.233   4.023   8.182  3.1340 -0.4123  1.8292
  325MOL0     H43832  10.260   4.166   8.085 -1.6979 -0.7187 -1.8057
  325MOL0     H43833  10.436   4.176   8.223  0.9250  0.5060 -2.2630
  325MOL0     H43834  10.516   4.078   8.098  0.3738 -1.5203  0.5707
  325MOL0     H43835  10.627   3.769   8.289  0.0005  1.0723 -2.1961
  325MOL0     H43836  10.802   3.748   8.458  1.7191  1.3740 -2.3749
  325MOL0     H43837  11.007   3.946   8.883  2.0598  2.5365 -0.3945
  325MOL0     H43838  11.174   3.883   9.040  1.5065 -4.6393  2.7537
  325MOL0     H43839  11.429   3.951   9.035  2.5516 -0.1823 -1.8841
  325MOL0     H43840  11.345   3.853   9.149 -0.1607  1.6147 -0.4911
  325MOL0     H43841  11.633   3.823   9.042 -1.7677 -0.9074 -1.1966
  325MOL0     H43842  11.593   3.878   9.205  0.0964  2.8082 -2.8515
  325MOL0     H43843  11.512   3.593   9.102 -2.9694 -0.3705  2.3591
  325MOL0     H43844  11.659   3.631   9.182 -0.0009  1.2834 -1.7417
  325MOL0     H43845  11.391   3.684   9.327  0.3047 -1.4199  2.5766
  325MOL0     H43846  11.561   3.722   9.373  3.3829 -2.3522 -0.9273
  325MOL0     H43847  11.470   3.511   9.479 -0.4304 -3.0506  0.3120
  325MOL0     H43848  11.609   3.479   9.380 -0.1606 -0.0609  1.7946
  325MOL0     H43849  11.489   3.380   9.205  0.5882  0.0514 -0.3782
  325MOL0     H43850  11.415   3.303   9.357 -0.5788 -0.6043 -0.3254
  325MOL0     H43851  11.250   3.350   9.184 -0.9848 -0.6699 -0.4483
  325MOL0     H43852  11.263   3.524   9.224 -0.8415 -0.7999 -1.0006
  325MOL0     H43853  11.196   3.333   9.453 -0.2298 -0.4416  0.2615
  325MOL0     H43854  11.207   3.504   9.452 -2.4254 -0.7656  1.0988
  325MOL0     H43855  11.357   3.637   8.742 -0.2873 -0.3816 -0.9358
  325MOL0     H43856  11.188   3.692   8.579 -0.4514 -0.1848  0.4246
  325MOL0     H43857  10.740   4.168   8.554  0.5722  1.0889 -2.5337
  325MOL0     H43858  10.556   4.170   8.402  1.3059  1.1550  1.1727
  325MOL0     H43859  10.260   3.097   7.817  0.9044  0.5263  0.0826
  325MOL0     H43860  10.471   2.968   7.742  0.9075 -2.9567 -0.3279
  325MOL0     H43861  10.683   2.712   7.464 -0.1720  1.2446  1.6308
  325MOL0     H43862  10.870   2.583   7.371  0.0393 -0.1379 -0.1964
  325MOL0     H43863  11.030   2.470   7.319  1.2249  0.8921  0.0395
  325MOL0     H43864  11.161   2.384   7.376  0.4459  1.1995 -2.0266
  325MOL0     H43865  11.085   2.668   7.466 -0.4977 -0.1746 -2.3216
  325MOL0     H43866  11.226   2.628   7.378  2.4363 -1.5535  0.3153
  325MOL0     H43867  11.296   2.487   7.598 -3.3657 -2.6162  2.8745
  325MOL0     H43868  11.162   2.569   7.669  1.0638 -1.7281 -0.2501
  325MOL0     H43869  11.256   2.798   7.640  2.3455  0.0548  3.6853
  325MOL0     H43870  11.373   2.690   7.710  1.0090 -0.7922  0.5413
  325MOL0     H43871  11.511   2.789   7.315 -1.7720  1.4523 -0.0879
  325MOL0     H43872  10.934   2.394   7.744 -0.4555 -0.7520 -0.7012
  325MOL0     H43873  10.743   2.621   7.948 -1.2289 -0.6579  0.1390
  325MOL0     H43874  10.617   2.516   7.903  0.2934  0.1020  2.0859
  325MOL0     H43875  10.775   2.444   7.942 -0.2580 -0.7467 -0.8101
  326MOL0     O43876   8.797   0.262   9.135 -1.1730  0.2770  0.6412
  326MOL0     C43877   8.823   0.244   9.252 -0.2135  0.1236  1.0141
  326MOL0     O43878   8.913   0.148   9.302 -0.2000 -0.2993 -0.4328
  326MOL0     C43879   9.000   0.113   9.206  0.6468 -0.3006  0.8310
  326MOL0     C43880   9.121   0.171   9.208 -0.3690 -0.7018 -0.4130
  326MOL0     C43881   9.222   0.120   9.125  0.7394  0.2992  0.0479
  326MOL0     C43882   9.201   0.027   9.026  0.7204 -0.9047  0.3782
  326MOL0     O43883   9.308  -0.007   8.950  0.2659 -0.0561  0.5346
  326MOL0     C43884   9.344  -0.145   8.927  0.5351 -0.3399  1.3356
  326MOL0     C43885   9.376  -0.216   9.057  0.5402 -0.6054  0.2753
  326MOL0     C43886   9.503  -0.159   9.111 -0.0781 -0.0922  0.5533
  326MOL0     C43887   9.560  -0.216   9.237  0.2538 -0.1983  0.6455
  326MOL0     C43888   9.691  -0.153   9.279 -0.5831 -0.8139  0.8313
  326MOL0     C43889   9.743  -0.174   9.425  0.7001 -0.0423  0.8901
  326MOL0     C43890   9.776  -0.317   9.444 -0.2017  0.2156  0.4495
  326MOL0     C43891   9.802  -0.356   9.591 -0.6789  0.3831  0.2277
  326MOL0     N43892   9.908  -0.281   9.656 -0.2558  0.0841 -0.0176
  326MOL0     C43893   9.902  -0.167   9.719  0.3538  0.6294 -0.4775
  326MOL0     C43894  10.025  -0.154   9.774  0.8866 -1.0128 -0.0177
  326MOL0     C43895  10.063  -0.038   9.872  0.7116 -0.1767  0.0186
  326MOL0     C43896  10.202  -0.043   9.936 -0.2242  0.0334  0.4878
  326MOL0     C43897  10.322  -0.026   9.834 -0.2139  0.0939 -0.3325
  326MOL0     C43898  10.470  -0.017   9.900  0.5605  0.4071  0.0486
  326MOL0     O43899  10.574  -0.033   9.801 -0.2714 -0.0655  0.1347
  326MOL0     C43900  10.694   0.051   9.823 -0.1836  0.5174  0.2341
  326MOL0     C43901  10.782   0.087   9.715  0.4669 -0.0656 -0.3758
  326MOL0     C43902  10.906   0.151   9.726  0.0106  0.5634 -1.1112
  326MOL0     C43903  10.945   0.187   9.858 -0.7683  0.1101  0.8385
  326MOL0     C43904  11.078   0.265   9.876  0.1721  0.5800 -0.1833
  326MOL0     O43905  11.145   0.305   9.763 -0.2770 -0.1394  0.3688
  326MOL0     C43906  11.259   0.377   9.784  0.3655 -0.5221  0.1658
  326MOL0     C43907  11.361   0.342   9.870  0.2254  0.3328  0.5663
  326MOL0     C43908  11.480   0.403   9.868 -0.6357 -0.2244 -0.0901
  326MOL0     C43909  11.504   0.509   9.776 -0.6343  0.2504  1.5344
  326MOL0     O43910  11.631   0.560   9.775 -0.5928  0.5092 -0.7036
  326MOL0     C43911  11.660   0.645   9.661  0.5347 -0.5924  0.8937
  326MOL0     C43912  11.805   0.674   9.653 -1.0032 -0.8456  0.0225
  326MOL0     C43913  11.906   0.554   9.654 -0.5672 -0.0499 -0.3743
  326MOL0     C43914  12.050   0.596   9.685  0.1036  0.1211  1.1683
  326MOL0     C43915  12.157   0.484   9.651 -0.0813  0.5865 -0.0521
  326MOL0     C43916  12.306   0.518   9.681 -0.1717 -0.0533  0.9802
  326MOL0     C43917  12.386   0.580   9.556  0.3211  0.3214 -0.0790
  326MOL0     C43918  12.535   0.585   9.568 -0.1996 -0.0674 -0.3334
  326MOL0    Cl43919  12.568   0.674   9.726 -0.1105  0.0990 -0.3706
  326MOL0     C43920  11.405   0.533   9.685  0.1267 -0.3808 -0.4236
  326MOL0     C43921  11.285   0.469   9.687 -0.5128 -0.0100  0.8526
  326MOL0     O43922  11.112   0.288   9.992 -0.1595 -0.5865 -0.6395
  326MOL0     C43923  10.865   0.150   9.962 -0.1196 -0.1596  0.1154
  326MOL0     C43924  10.744   0.086   9.943 -0.0907 -0.2749  0.4677
  326MOL0     N43925  10.101  -0.260   9.732 -0.2037  0.0254  0.2381
  326MOL0     N43926  10.031  -0.340   9.665  0.1623 -0.2640  0.2004
  326MOL0     C43927   9.079  -0.032   9.030  0.2189  0.1829  0.4599
  326MOL0     C43928   8.983  -0.001   9.124 -0.6992 -0.2469 -1.3414
  326MOL0     C43929   8.762   0.333   9.347 -0.2221  0.8695 -0.3543
  326MOL0     C43930   8.810   0.327   9.478  0.2591 -0.4314 -0.3365
  326MOL0     C43931   8.762   0.400   9.588  0.0991  0.3293 -0.4332
  326MOL0     C43932   8.655   0.488   9.561 -0.4495 -0.6001  0.7280
  326MOL0     O43933   8.598   0.565   9.662 -0.0411 -0.2335 -0.6080
  326MOL0     C43934   8.517   0.678   9.634  0.1641  0.3250  0.3849
  326MOL0     C43935   8.549   0.795   9.720  0.4917  0.4418  0.3696
  326MOL0     C43936   8.435   0.896   9.720 -0.2437  0.5183  0.3356
  326MOL0     C43937   8.460   1.015   9.809  0.2065 -0.3552 -0.9070
  326MOL0     C43938   8.473   0.978   9.956  0.7293 -0.3359  0.3029
  326MOL0     C43939   8.485   0.943  10.070  0.1103 -0.5054  0.1133
  326MOL0     C43940   8.597   0.487   9.432  0.0676 -0.7681  0.1484
  326MOL0     C43941   8.646   0.417   9.325  0.3476  0.5255 -0.2940
  326MOL0     C43942   8.558   0.404   9.201 -0.1500  0.6304  0.4907
  326MOL0     H43943   9.131   0.251   9.280 -1.8863 -1.2905  0.5051
  326MOL0     H43944   9.323   0.159   9.121  0.4252  1.1584  0.3127
  326MOL0     H43945   9.262  -0.198   8.880  2.5330 -1.7227 -0.8159
  326MOL0     H43946   9.423  -0.148   8.851  0.3417  2.2996  0.9429
  326MOL0     H43947   9.388  -0.322   9.031 -1.6989 -0.8116 -0.0983
  326MOL0     H43948   9.306  -0.194   9.138  0.7894  4.6502 -0.5690
  326MOL0     H43949   9.494  -0.051   9.122  0.5584 -0.0920  1.1016
  326MOL0     H43950   9.566  -0.180   9.024 -1.3696  0.7052 -0.6148
  326MOL0     H43951   9.494  -0.194   9.321 -0.7636  3.0323 -0.8168
  326MOL0     H43952   9.559  -0.325   9.230  0.5781 -0.4576  3.5904
  326MOL0     H43953   9.767  -0.180   9.205 -0.8266 -1.3578  0.7701
  326MOL0     H43954   9.666  -0.048   9.268 -0.3529 -0.7840  0.5847
  326MOL0     H43955   9.828  -0.107   9.442  0.2498  0.6654  0.3872
  326MOL0     H43956   9.662  -0.138   9.489  1.5271  2.9604  0.4037
  326MOL0     H43957   9.865  -0.345   9.386 -0.7258  1.1206 -0.8218
  326MOL0     H43958   9.696  -0.380   9.405 -0.7335  0.2383  1.4788
  326MOL0     H43959   9.713  -0.346   9.653  0.8821 -0.6260  2.7976
  326MOL0     H43960   9.831  -0.461   9.581 -0.0269  0.3925  1.7925
  326MOL0     H43961   9.816  -0.103   9.739 -0.6548 -0.5723 -0.8883
  326MOL0     H43962  10.043   0.051   9.812 -0.4357 -1.5400 -1.7364
  326MOL0     H43963   9.989  -0.045   9.953  1.0490 -4.0983  0.2040
  326MOL0     H43964  10.216   0.036  10.010  1.5670  0.2720 -0.0566
  326MOL0     H43965  10.206  -0.138   9.989  0.2698  0.5151  1.3296
  326MOL0     H43966  10.304   0.061   9.771 -0.8436  0.2905  0.1100
  326MOL0     H43967  10.324  -0.105   9.758 -2.4321 -0.8448  0.5174
  326MOL0     H43968  10.467  -0.083   9.988 -1.1534  1.7458  1.0623
  326MOL0     H43969  10.479   0.087   9.931 -1.9923  1.2435 -1.6859
  326MOL0     H43970  10.746   0.078   9.613 -0.4892 -0.5021 -0.0133
  326MOL0     H43971  10.968   0.171   9.639  1.7123  0.4547  0.0319
  326MOL0     H43972  11.357   0.259   9.940 -0.3245  0.9202  1.2437
  326MOL0     H43973  11.566   0.374   9.928  0.2653  0.5858 -0.9496
  326MOL0     H43974  11.621   0.593   9.573 -0.3643  1.4465  0.0246
  326MOL0     H43975  11.607   0.739   9.677  3.9556  1.3300  1.8412
  326MOL0     H43976  11.828   0.738   9.567 -0.6229  1.7544  1.9588
  326MOL0     H43977  11.823   0.738   9.739 -2.8997  0.3082 -0.3914
  326MOL0     H43978  11.869   0.483   9.728 -1.1548  1.4604  0.8343
  326MOL0     H43979  11.908   0.505   9.556 -1.5005 -1.5633  0.3214
  326MOL0     H43980  12.047   0.625   9.791  0.4983  2.9176  0.4956
  326MOL0     H43981  12.076   0.688   9.631  3.3025 -1.9442 -1.1442
  326MOL0     H43982  12.154   0.456   9.545  1.8722  0.1875 -0.0448
  326MOL0     H43983  12.109   0.399   9.701 -1.4152  0.5609 -1.3115
  326MOL0     H43984  12.316   0.578   9.772 -1.8518 -2.0841  2.6075
  326MOL0     H43985  12.356   0.422   9.694  0.4486  0.1781  0.3536
  326MOL0     H43986  12.349   0.682   9.542  0.0581  0.4574  1.4416
  326MOL0     H43987  12.360   0.527   9.464  2.3322 -2.0501  0.6184
  326MOL0     H43988  12.580   0.486   9.568 -0.1407 -0.1894  3.4764
  326MOL0     H43989  12.582   0.637   9.484 -1.3019  0.1108 -0.8526
  326MOL0     H43990  11.406   0.610   9.608  2.6933 -0.5800 -0.6545
  326MOL0     H43991  11.215   0.511   9.614  1.7397  2.5178 -0.0101
  326MOL0     H43992  10.898   0.177  10.062  1.6510  1.1877 -0.7820
  326MOL0     H43993  10.694   0.050  10.033 -0.0205 -2.5396 -0.3235
  326MOL0     H43994   9.067  -0.121   8.969  1.7401  0.1192  0.2283
  326MOL0     H43995   8.896  -0.063   9.138  0.1595 -0.8203  2.8912
  326MOL0     H43996   8.896   0.264   9.498  1.6449  2.1430  2.6797
  326MOL0     H43997   8.802   0.400   9.688 -0.0873  5.8296 -0.0226
  326MOL0     H43998   8.421   0.634   9.663  1.2529 -1.1077  1.9613
  326MOL0     H43999   8.522   0.708   9.529  0.5185 -2.1133 -0.3471
  326MOL0     H44000   8.636   0.851   9.685  0.7681  0.6449  1.3343
  326MOL0     H44001   8.585   0.762   9.818  0.7272 -2.3299 -0.5618
  326MOL0     H44002   8.343   0.844   9.750 -0.1057 -0.5073 -0.9476
  326MOL0     H44003   8.437   0.927   9.616  2.2259 -0.5143  0.0108
  326MOL0     H44004   8.553   1.063   9.777  1.0728  0.3748  2.3394
  326MOL0     H44005   8.375   1.083   9.798  1.0699  1.0352  0.5338
  326MOL0     H44006   8.488   0.944  10.177  2.5800  2.5349  0.1543
  326MOL0     H44007   8.497   0.528   9.417  0.5158 -0.6934 -3.6432
  326MOL0     H44008   8.607   0.443   9.111 -0.0221 -2.3793 -0.8484
  326MOL0     H44009   8.537   0.298   9.183  2.6112  0.0073  0.4742
  326MOL0     H44010   8.465   0.460   9.213  0.3460  1.0429  3.0138
  327MOL0     O44011  10.215   7.117   1.443 -0.6034  0.7128 -0.2369
  327MOL0     C44012  10.290   7.194   1.385 -0.3022 -0.4864 -0.8382
  327MOL0     O44013  10.247   7.285   1.300 -0.0649 -0.1466 -0.4221
  327MOL0     C44014  10.111   7.302   1.274  0.1516 -0.1195 -0.6927
  327MOL0     C44015  10.063   7.326   1.137 -1.2264  0.0142 -0.2460
  327MOL0     C44016   9.933   7.353   1.120  0.0797 -0.2473  0.3376
  327MOL0     C44017   9.834   7.366   1.220 -0.1980  0.1958 -0.1021
  327MOL0     O44018   9.705   7.383   1.170 -0.6146 -0.1244 -0.6301
  327MOL0     C44019   9.601   7.348   1.259 -0.8235 -0.1777 -0.4757
  327MOL0     C44020   9.484   7.407   1.189  0.1731  0.6713 -0.0167
  327MOL0     C44021   9.351   7.380   1.276 -0.8542  0.3153 -0.8883
  327MOL0     C44022   9.239   7.436   1.205  0.0444  0.7179 -0.1307
  327MOL0     C44023   9.113   7.386   1.266  0.3559 -0.1818  0.2723
  327MOL0     C44024   8.987   7.396   1.184 -0.3806  0.8076  0.0235
  327MOL0     C44025   8.986   7.329   1.050  0.5536  0.6058  0.2808
  327MOL0     C44026   8.833   7.317   1.009 -0.1035  0.2053 -0.2245
  327MOL0     N44027   8.768   7.446   0.992  0.0634  0.0804 -0.0623
  327MOL0     C44028   8.805   7.547   0.906  0.3880  0.2599  0.1812
  327MOL0     C44029   8.709   7.640   0.919 -0.9128 -0.3474  0.8337
  327MOL0     C44030   8.694   7.770   0.849 -0.1822 -1.0351 -0.1025
  327MOL0     C44031   8.661   7.888   0.942  0.4268  0.3512  0.0395
  327MOL0     C44032   8.794   7.948   1.008 -0.0726  0.8161  0.1089
  327MOL0     C44033   8.877   8.020   0.904 -0.1268 -0.2698  0.2110
  327MOL0     O44034   8.891   8.152   0.945  0.1721 -0.3866 -0.1096
  327MOL0     C44035   8.952   8.243   0.865  0.4193  0.4524 -0.7084
  327MOL0     C44036   8.976   8.224   0.724 -0.3715  0.3447 -1.0563
  327MOL0     C44037   9.013   8.333   0.649 -0.8711 -0.7398 -0.3606
  327MOL0     C44038   9.043   8.451   0.708 -1.5356 -0.2143 -0.9354
  327MOL0     C44039   9.101   8.557   0.628 -0.3584 -0.2443  0.0123
  327MOL0     O44040   9.116   8.528   0.489  0.0550  0.1125 -1.3083
  327MOL0     C44041   9.165   8.616   0.398 -0.0962  0.3356 -0.2976
  327MOL0     C44042   9.133   8.580   0.263  1.0447 -0.0138 -0.3883
  327MOL0     C44043   9.172   8.658   0.152  0.3872  0.2091 -0.4440
  327MOL0     C44044   9.238   8.781   0.163  0.0196  1.5728  0.0350
  327MOL0     O44045   9.284   8.857   0.068  0.3704 -0.5717  0.9562
  327MOL0     C44046   9.187   8.882  -0.044 -0.6050  0.7688 -0.0937
  327MOL0     C44047   9.251   8.986  -0.128 -0.3449 -0.6887 -0.2266
  327MOL0     C44048   9.387   8.941  -0.176  0.4357 -0.1288  0.0001
  327MOL0     C44049   9.444   9.035  -0.287  0.2215 -0.7406 -0.1277
  327MOL0     C44050   9.414   9.176  -0.270  0.0609 -0.2222  0.1359
  327MOL0     C44051   9.452   9.252  -0.393 -0.0271  0.1310  0.5451
  327MOL0     C44052   9.379   9.391  -0.404 -0.5067  0.4962  0.0784
  327MOL0     C44053   9.448   9.486  -0.503  0.5888  0.1331  0.0879
  327MOL0    Cl44054   9.317   9.582  -0.587 -0.1154  0.0292  0.1382
  327MOL0     C44055   9.272   8.811   0.297 -0.3955  0.7277  0.9232
  327MOL0     C44056   9.241   8.731   0.411 -0.1944 -0.2409 -0.7500
  327MOL0     O44057   9.136   8.656   0.683 -0.0932 -0.8585 -0.6893
  327MOL0     C44058   9.031   8.472   0.849  0.1295  1.0841 -0.3199
  327MOL0     C44059   8.977   8.369   0.922  0.0613 -0.0027 -0.7224
  327MOL0     N44060   8.622   7.601   1.014 -0.1441 -0.1795 -0.0382
  327MOL0     N44061   8.655   7.482   1.051  0.4308 -0.3166 -0.1120
  327MOL0     C44062   9.883   7.342   1.350 -0.3953  0.5733  0.2165
  327MOL0     C44063  10.019   7.312   1.374  0.7339  0.4807  0.4730
  327MOL0     C44064  10.434   7.198   1.417 -0.4937  0.0316  0.6977
  327MOL0     C44065  10.524   7.291   1.349  1.3235  0.3237 -0.1041
  327MOL0     C44066  10.658   7.289   1.385 -0.0863 -0.6972  0.4507
  327MOL0     C44067  10.713   7.201   1.477  0.1111 -0.9342  0.8683
  327MOL0     O44068  10.842   7.212   1.506  0.0884  0.2630 -0.4117
  327MOL0     C44069  10.907   7.121   1.595 -0.1923  0.6600 -0.4051
  327MOL0     C44070  11.052   7.154   1.628  0.1282  0.7642  0.1279
  327MOL0     C44071  11.137   7.108   1.506  0.3137  0.1739 -0.8997
  327MOL0     C44072  11.273   7.189   1.513 -0.1150 -0.5812  0.2792
  327MOL0     C44073  11.369   7.150   1.409  0.1804 -0.1467 -0.6517
  327MOL0     C44074  11.447   7.118   1.323  0.2567 -0.0633 -0.3366
  327MOL0     C44075  10.630   7.103   1.528  0.4598 -0.1482 -0.8411
  327MOL0     C44076  10.492   7.086   1.491  0.2291  0.1520 -0.1086
  327MOL0     C44077  10.417   6.958   1.546  0.3707 -0.3011  0.5993
  327MOL0     H44078  10.131   7.303   1.055 -2.5231 -0.2862 -1.2746
  327MOL0     H44079   9.903   7.364   1.016 -0.0590 -1.0154  0.2937
  327MOL0     H44080   9.590   7.239   1.255 -0.1428 -0.2753  0.1126
  327MOL0     H44081   9.605   7.389   1.361 -0.9960 -0.9865 -0.1348
  327MOL0     H44082   9.461   7.358   1.094 -3.2779 -0.6434  1.3094
  327MOL0     H44083   9.490   7.514   1.168 -0.1525  0.5127 -0.9717
  327MOL0     H44084   9.362   7.425   1.375 -0.9684  1.2082 -1.2712
  327MOL0     H44085   9.345   7.271   1.273  3.4067 -0.0707 -2.5516
  327MOL0     H44086   9.258   7.544   1.205  1.0869  0.6022 -2.1046
  327MOL0     H44087   9.235   7.399   1.102 -0.9713  0.5677 -0.0446
  327MOL0     H44088   9.127   7.279   1.287  2.2114  0.2920  1.7208
  327MOL0     H44089   9.092   7.433   1.363 -0.4789  0.1651 -0.0648
  327MOL0     H44090   8.903   7.370   1.250  1.1442  0.1954  1.8199
  327MOL0     H44091   8.971   7.504   1.173 -0.6666  0.6616 -1.0758
  327MOL0     H44092   9.025   7.228   1.065 -0.0672  0.1275 -1.1878
  327MOL0     H44093   9.050   7.376   0.975 -1.7233 -0.5188 -2.5458
  327MOL0     H44094   8.815   7.257   0.919 -1.0758 -1.1181  0.8189
  327MOL0     H44095   8.789   7.274   1.099  0.4011 -0.8626 -0.4699
  327MOL0     H44096   8.890   7.544   0.839  1.3528 -0.8369  1.3913
  327MOL0     H44097   8.791   7.787   0.800  0.1737  1.4040  1.3233
  327MOL0     H44098   8.609   7.756   0.782 -1.3006 -1.3909  1.3452
  327MOL0     H44099   8.620   7.973   0.886  3.6767  1.0673 -1.5093
  327MOL0     H44100   8.593   7.855   1.021  1.9445 -2.2237  0.3858
  327MOL0     H44101   8.852   7.865   1.050 -1.1638  0.6517  1.3545
  327MOL0     H44102   8.766   8.011   1.092 -0.9691  0.9136 -0.2471
  327MOL0     H44103   8.827   7.998   0.809  4.4862 -0.9518 -2.3375
  327MOL0     H44104   8.983   7.997   0.915 -0.2419  0.4340  3.9592
  327MOL0     H44105   8.960   8.127   0.678  0.6909 -1.2599  1.7148
  327MOL0     H44106   9.030   8.317   0.543  0.9754  1.1875 -0.4163
  327MOL0     H44107   9.082   8.484   0.256  0.0308  0.5402 -0.8454
  327MOL0     H44108   9.137   8.620   0.056 -0.0773  0.5535 -0.4160
  327MOL0     H44109   9.162   8.800  -0.112  0.0677  1.0348 -0.6732
  327MOL0     H44110   9.091   8.914  -0.003 -1.2708 -2.9093  1.7088
  327MOL0     H44111   9.186   8.997  -0.215  0.6641 -1.6141 -1.1264
  327MOL0     H44112   9.264   9.078  -0.070  0.1297 -1.5595  1.0850
  327MOL0     H44113   9.451   8.947  -0.087 -1.7506  0.5223  1.6006
  327MOL0     H44114   9.385   8.840  -0.218 -1.4816  0.9846 -2.8223
  327MOL0     H44115   9.387   9.011  -0.377 -1.0393  0.5546  0.2902
  327MOL0     H44116   9.549   9.016  -0.309  0.4641  2.4235 -2.4181
  327MOL0     H44117   9.451   9.220  -0.177 -1.4482 -0.7916  1.0359
  327MOL0     H44118   9.306   9.195  -0.275  0.2564  0.6298 -1.2929
  327MOL0     H44119   9.561   9.263  -0.394 -0.0922  0.9988  1.1176
  327MOL0     H44120   9.424   9.201  -0.485 -0.8591  1.5474 -0.0202
  327MOL0     H44121   9.394   9.448  -0.312  3.3816  1.3953 -0.9149
  327MOL0     H44122   9.274   9.378  -0.430 -0.4553  1.9175 -0.9483
  327MOL0     H44123   9.506   9.556  -0.443  0.7000 -1.1341  1.5161
  327MOL0     H44124   9.512   9.437  -0.576  0.7042  1.5034 -0.7687
  327MOL0     H44125   9.332   8.901   0.309  3.9548 -1.6210 -0.9812
  327MOL0     H44126   9.274   8.754   0.512 -2.4557 -3.3978  0.9093
  327MOL0     H44127   9.063   8.567   0.890  0.0861  0.9657 -0.0068
  327MOL0     H44128   8.942   8.384   1.024 -1.5486 -1.1175 -1.0625
  327MOL0     H44129   9.825   7.330   1.441  0.4797  4.3338  1.4372
  327MOL0     H44130  10.040   7.317   1.480  1.2550  2.5697  0.3301
  327MOL0     H44131  10.483   7.358   1.273 -0.0368 -1.8562 -1.3894
  327MOL0     H44132  10.712   7.358   1.321  0.2249 -1.7228 -0.4108
  327MOL0     H44133  10.900   7.015   1.570  0.5604 -0.2418  2.7844
  327MOL0     H44134  10.854   7.125   1.690  1.6568 -2.0585  0.8748
  327MOL0     H44135  11.065   7.101   1.723  0.1139  0.6862  0.0866
  327MOL0     H44136  11.064   7.260   1.652 -1.6598  1.1314 -0.4669
  327MOL0     H44137  11.081   7.127   1.413  0.0729  2.4414 -0.3542
  327MOL0     H44138  11.160   7.003   1.523 -0.3673  0.4521  2.3788
  327MOL0     H44139  11.248   7.294   1.495 -0.0337 -1.0483 -3.1922
  327MOL0     H44140  11.319   7.178   1.611  2.3903 -0.4668 -0.8031
  327MOL0     H44141  11.516   7.081   1.249  2.1619 -0.7816  1.6844
  327MOL0     H44142  10.668   7.020   1.587  3.0181  0.6924 -1.2222
  327MOL0     H44143  10.372   6.904   1.462  0.6433  1.7188 -0.9254
  327MOL0     H44144  10.486   6.895   1.603  0.5139  0.9970  1.9126
  327MOL0     H44145  10.343   6.997   1.616 -0.4798 -1.3065  0.2889
  328MOL0     O44146   6.663  11.036   2.339 -0.2150 -0.0724 -0.1111
  328MOL0     C44147   6.556  11.007   2.373  0.1788  0.1521 -0.7291
  328MOL0     O44148   6.527  10.941   2.489  0.6529 -0.1882 -0.2893
  328MOL0     C44149   6.623  10.877   2.568  0.2111  0.0747 -0.8438
  328MOL0     C44150   6.718  10.958   2.648 -0.5073  0.7058 -0.3371
  328MOL0     C44151   6.809  10.892   2.732 -1.0283 -0.0019  0.5322
  328MOL0     C44152   6.804  10.756   2.751  0.0819  0.1490 -0.7854
  328MOL0     O44153   6.893  10.692   2.841 -0.4215  0.3310  0.2785
  328MOL0     C44154   6.977  10.596   2.784 -0.5086  0.5658 -0.5492
  328MOL0     C44155   7.089  10.557   2.872 -0.2551  0.2493  0.4754
  328MOL0     C44156   7.190  10.672   2.887  0.0884 -0.2031  0.4682
  328MOL0     C44157   7.261  10.721   2.748 -0.2408  1.2834 -0.4844
  328MOL0     C44158   7.364  10.832   2.791  0.1527 -0.5739  0.4437
  328MOL0     C44159   7.491  10.775   2.850  0.1431 -0.0496 -0.2484
  328MOL0     C44160   7.594  10.879   2.861  0.1447 -1.0930 -0.2420
  328MOL0     C44161   7.722  10.831   2.926 -0.6156 -0.0675 -0.2041
  328MOL0     N44162   7.832  10.923   2.913 -0.1572  0.2981  0.3849
  328MOL0     C44163   7.851  11.032   2.997  0.0007  0.0911 -0.3689
  328MOL0     C44164   7.955  11.096   2.944 -0.7318  0.0193 -0.2088
  328MOL0     C44165   8.008  11.232   2.993 -0.7833  0.2371  0.2078
  328MOL0     C44166   8.065  11.234   3.137 -0.7145  0.4036  0.5436
  328MOL0     C44167   8.129  11.366   3.170 -0.1699 -0.3475  0.6199
  328MOL0     C44168   8.148  11.391   3.319 -0.3041  0.0628 -0.3144
  328MOL0     O44169   8.270  11.331   3.356 -0.3018 -0.1932 -0.3905
  328MOL0     C44170   8.385  11.396   3.362 -0.1774 -0.7530 -0.2242
  328MOL0     C44171   8.397  11.538   3.333 -0.4042 -0.3100 -0.2577
  328MOL0     C44172   8.528  11.597   3.334 -0.8481  0.0511  0.3364
  328MOL0     C44173   8.646  11.522   3.355 -0.0718  1.0762  0.0955
  328MOL0     C44174   8.777  11.580   3.351  0.0230  0.7658 -0.4298
  328MOL0     O44175   8.883  11.499   3.392 -0.1927  0.0924  0.6453
  328MOL0     C44176   9.012  11.535   3.381  0.2421 -0.3537 -0.0284
  328MOL0     C44177   9.106  11.507   3.474 -0.3686  0.6995 -0.2202
  328MOL0     C44178   9.234  11.563   3.473  0.1468 -0.3585 -0.0033
  328MOL0     C44179   9.278  11.644   3.368  0.4194  0.5187 -0.0999
  328MOL0     O44180   9.411  11.691   3.361  0.4005 -0.4061 -0.6980
  328MOL0     C44181   9.477  11.746   3.480 -0.1244 -0.4718  0.6717
  328MOL0     C44182   9.632  11.744   3.465  0.1476 -0.4284 -0.3308
  328MOL0     C44183   9.711  11.801   3.586  0.4932  0.4531 -0.0692
  328MOL0     C44184   9.861  11.773   3.553 -0.1874  0.1759 -0.0276
  328MOL0     C44185   9.960  11.835   3.650  1.1315  0.1557 -0.0009
  328MOL0     C44186  10.104  11.811   3.605 -0.1880 -0.2208 -0.8163
  328MOL0     C44187  10.201  11.909   3.678  1.1390  0.2707  0.1092
  328MOL0     C44188  10.340  11.898   3.607 -0.0556  0.0076  0.4578
  328MOL0    Cl44189  10.421  11.738   3.649 -0.1336 -0.0004  0.3502
  328MOL0     C44190   9.190  11.665   3.263 -0.3933  0.3979 -0.0518
  328MOL0     C44191   9.059  11.611   3.274  0.1869  0.4437  0.1002
  328MOL0     O44192   8.784  11.699   3.316 -0.5735 -0.7198  0.3639
  328MOL0     C44193   8.624  11.386   3.390 -0.7270 -0.7301  0.2616
  328MOL0     C44194   8.501  11.322   3.392 -0.1443  0.1184  0.9828
  328MOL0     N44195   8.016  11.017   2.856  1.3389  0.2520  0.1925
  328MOL0     N44196   7.949  10.908   2.842  0.0378 -0.3330  0.0263
  328MOL0     C44197   6.714  10.676   2.676  0.0292  0.6874  0.7314
  328MOL0     C44198   6.624  10.736   2.589  0.6396 -0.0921  0.2031
  328MOL0     C44199   6.438  11.042   2.283 -0.1359 -0.3870 -0.6583
  328MOL0     C44200   6.308  11.024   2.343 -0.3511  0.4472  0.7685
  328MOL0     C44201   6.192  11.027   2.264  0.4267  0.4007  0.8318
  328MOL0     C44202   6.192  11.057   2.130  0.5056  0.8634 -0.2893
  328MOL0     O44203   6.071  11.059   2.072  0.2052  0.5991  0.0324
  328MOL0     C44204   6.047  11.142   1.954 -0.1111 -0.3016  0.0363
  328MOL0     C44205   5.901  11.175   1.926  0.6051  0.0876  0.9817
  328MOL0     C44206   5.839  11.041   1.896  1.6585 -0.7179  0.8967
  328MOL0     C44207   5.690  11.066   1.863  0.9679  0.1267 -0.5236
  328MOL0     C44208   5.615  10.940   1.829  0.4671 -0.6094 -0.0159
  328MOL0     C44209   5.555  10.836   1.811  0.1487  0.3791 -0.0527
  328MOL0     C44210   6.315  11.081   2.074 -0.3388 -0.0311 -0.6555
  328MOL0     C44211   6.443  11.074   2.144  0.3060  0.4174  0.6706
  328MOL0     C44212   6.566  11.101   2.069  0.3086 -0.0458 -0.0794
  328MOL0     H44213   6.716  11.064   2.622  0.7762  0.1433 -3.2461
  328MOL0     H44214   6.865  10.953   2.802  1.2246  0.9063 -1.8433
  328MOL0     H44215   6.920  10.504   2.764 -1.7964  1.8642 -3.2932
  328MOL0     H44216   7.018  10.630   2.689 -1.1376 -0.7349 -1.3190
  328MOL0     H44217   7.146  10.475   2.827  0.5499  0.6460  0.7637
  328MOL0     H44218   7.064  10.508   2.967  0.3557 -0.6613  0.1824
  328MOL0     H44219   7.265  10.643   2.961 -0.7406  0.9403  1.8212
  328MOL0     H44220   7.147  10.761   2.936  0.0024  0.0290 -0.0223
  328MOL0     H44221   7.302  10.633   2.697 -0.2189 -0.0476  1.7065
  328MOL0     H44222   7.193  10.775   2.681  0.2046  1.7011 -0.6037
  328MOL0     H44223   7.384  10.888   2.700 -0.2721  0.2944  0.8701
  328MOL0     H44224   7.327  10.905   2.864  0.6868  0.9845 -0.8067
  328MOL0     H44225   7.464  10.731   2.946 -2.0401  0.2441 -0.6919
  328MOL0     H44226   7.530  10.696   2.784  3.2729  2.6093 -1.9440
  328MOL0     H44227   7.561  10.971   2.911 -1.1929 -0.3135 -2.4240
  328MOL0     H44228   7.619  10.906   2.758 -1.3958  1.7593  0.0101
  328MOL0     H44229   7.709  10.821   3.034  1.9182  0.7199  0.2307
  328MOL0     H44230   7.735  10.735   2.876  0.2536 -1.0761  1.8639
  328MOL0     H44231   7.780  11.065   3.072  1.5242 -2.7757  2.5776
  328MOL0     H44232   8.083  11.274   2.926  0.6968  2.4431  3.0508
  328MOL0     H44233   7.923  11.301   2.991 -0.8198  0.1827 -1.4053
  328MOL0     H44234   7.983  11.215   3.208  1.3163  1.3785  3.3314
  328MOL0     H44235   8.138  11.159   3.167 -0.6180  0.6996  1.0730
  328MOL0     H44236   8.058  11.444   3.141 -0.8933 -1.1424  0.1726
  328MOL0     H44237   8.219  11.363   3.108 -0.4070 -0.2616  0.2655
  328MOL0     H44238   8.069  11.345   3.379 -1.2583  1.2408 -0.6346
  328MOL0     H44239   8.159  11.493   3.359  2.2378  0.1243 -1.0053
  328MOL0     H44240   8.312  11.597   3.304 -1.9075 -2.9482 -1.5802
  328MOL0     H44241   8.553  11.699   3.309  3.4712 -1.1541 -1.1666
  328MOL0     H44242   9.091  11.438   3.556  0.0487  0.7383 -0.1105
  328MOL0     H44243   9.305  11.538   3.552  0.7701 -0.3527 -0.5526
  328MOL0     H44244   9.441  11.849   3.492 -0.8224 -0.7669  1.2021
  328MOL0     H44245   9.443  11.691   3.568  0.8868  0.7961  1.8938
  328MOL0     H44246   9.655  11.637   3.452  0.4406 -0.3781 -0.2298
  328MOL0     H44247   9.656  11.796   3.372 -3.8162  0.1939 -1.1959
  328MOL0     H44248   9.707  11.911   3.588  2.1372  0.5844 -1.6466
  328MOL0     H44249   9.685  11.753   3.681  0.2494 -0.0147 -0.3687
  328MOL0     H44250   9.894  11.810   3.455 -1.0491 -2.4054 -1.3815
  328MOL0     H44251   9.877  11.665   3.550 -2.4000 -0.1938 -2.9275
  328MOL0     H44252   9.944  11.786   3.747  1.2876 -0.7340 -0.4097
  328MOL0     H44253   9.949  11.943   3.653  1.0329  0.1411  0.2522
  328MOL0     H44254  10.114  11.708   3.640 -1.9611  0.3361  1.5285
  328MOL0     H44255  10.124  11.825   3.498  1.4142 -4.1488 -1.1942
  328MOL0     H44256  10.204  11.876   3.782  0.7762 -2.9788 -0.8207
  328MOL0     H44257  10.159  12.009   3.664 -0.3368 -0.4250 -0.6915
  328MOL0     H44258  10.334  11.904   3.498 -0.8829  1.8464  0.5676
  328MOL0     H44259  10.410  11.972   3.648 -2.3757  2.9089 -0.4607
  328MOL0     H44260   9.222  11.707   3.169 -0.3645  3.2163  1.1179
  328MOL0     H44261   8.987  11.646   3.201 -0.9182 -0.2538  0.8256
  328MOL0     H44262   8.711  11.326   3.412 -0.1318  0.4414  1.2242
  328MOL0     H44263   8.498  11.214   3.406  1.0718 -0.1209 -0.3826
  328MOL0     H44264   6.724  10.568   2.671  0.7051  0.7718 -3.9332
  328MOL0     H44265   6.538  10.686   2.544  1.4855 -0.9738 -0.4758
  328MOL0     H44266   6.299  11.000   2.448 -1.8835  1.8609  0.9914
  328MOL0     H44267   6.096  11.004   2.310  0.8094  1.1980  2.0749
  328MOL0     H44268   6.086  11.088   1.868  1.9354 -0.3158  0.9169
  328MOL0     H44269   6.093  11.240   1.969  0.8529 -0.7166 -0.1393
  328MOL0     H44270   5.887  11.247   1.845  1.7168  0.1737  0.8477
  328MOL0     H44271   5.848  11.218   2.012  0.4781  1.9466  0.0174
  328MOL0     H44272   5.829  10.989   1.992 -0.4764 -1.6005  0.2624
  328MOL0     H44273   5.891  10.991   1.814  1.2483  1.1348 -0.5348
  328MOL0     H44274   5.650  11.100   1.959  2.3122 -1.9263  0.8430
  328MOL0     H44275   5.684  11.138   1.781 -1.4799  1.9127  1.0960
  328MOL0     H44276   5.507  10.740   1.806  1.5162 -0.4048  1.3214
  328MOL0     H44277   6.314  11.097   1.966  0.6937  1.4905 -0.4651
  328MOL0     H44278   6.549  11.103   1.961  1.3098 -0.0867 -0.2505
  328MOL0     H44279   6.607  11.199   2.094 -1.4422  1.0079 -1.1396
  328MOL0     H44280   6.639  11.021   2.083  1.6579  1.0864 -0.3538
  329MOL0     O44281   4.529   6.622   9.909 -0.5183 -0.1331  0.1727
  329MOL0     C44282   4.422   6.678   9.931  0.5705  0.5562 -0.3343
  329MOL0     O44283   4.388   6.798   9.886  0.1314 -0.1264  0.7401
  329MOL0     C44284   4.492   6.874   9.845 -1.1911 -0.3592  0.5683
  329MOL0     C44285   4.558   6.955   9.937 -0.2216 -0.1020 -0.5768
  329MOL0     C44286   4.656   7.050   9.881  0.1575  0.8796  0.0294
  329MOL0     C44287   4.706   7.053   9.750 -0.7251  0.3715 -0.4722
  329MOL0     O44288   4.818   7.130   9.727  0.6095 -0.2319  0.2981
  329MOL0     C44289   4.883   7.115   9.597 -0.1212 -0.5483  0.4052
  329MOL0     C44290   4.998   7.227   9.578  0.4538 -0.4013  0.6216
  329MOL0     C44291   5.068   7.211   9.452 -0.6539  0.0078  0.3078
  329MOL0     C44292   5.173   7.328   9.450 -0.2701 -0.2125 -0.2988
  329MOL0     C44293   5.239   7.344   9.314 -0.4629 -0.6151  0.1350
  329MOL0     C44294   5.311   7.224   9.247  0.2207 -0.5904 -0.9042
  329MOL0     C44295   5.405   7.150   9.349  0.0245  0.3032  0.0699
  329MOL0     C44296   5.449   7.017   9.285 -0.2983  0.1912 -0.1936
  329MOL0     N44297   5.545   6.933   9.378  0.1758 -0.1861  1.0017
  329MOL0     C44298   5.535   6.912   9.516 -0.4211  0.0257 -0.4305
  329MOL0     C44299   5.664   6.871   9.552  0.3782 -0.0888  0.2849
  329MOL0     C44300   5.720   6.838   9.692  0.5609 -0.3434  0.2269
  329MOL0     C44301   5.856   6.762   9.689 -0.8080  0.5077 -0.5964
  329MOL0     C44302   5.893   6.714   9.828  0.1944  0.6000  0.1979
  329MOL0     C44303   6.030   6.661   9.826  0.8562 -0.4650 -0.0677
  329MOL0     O44304   6.076   6.631   9.955  0.1656  0.8858  0.1541
  329MOL0     C44305   6.186   6.548   9.974  0.2727 -0.2847  0.0543
  329MOL0     C44306   6.166   6.420  10.039 -0.2213  0.0772  0.9006
  329MOL0     C44307   6.281   6.330  10.049  0.4185 -0.0665  1.5903
  329MOL0     C44308   6.406   6.374  10.010  0.1442  0.8276  0.3587
  329MOL0     C44309   6.523   6.292  10.041  0.2885 -0.6596  0.8682
  329MOL0     O44310   6.649   6.356  10.030  0.5164 -0.2272  0.1739
  329MOL0     C44311   6.764   6.282  10.024  0.4211  0.1689 -0.3769
  329MOL0     C44312   6.807   6.184  10.116  0.4959 -0.1413 -0.6988
  329MOL0     C44313   6.918   6.102  10.094  0.0597  0.8139  0.5763
  329MOL0     C44314   6.998   6.122   9.979 -0.2897  0.2252  0.1567
  329MOL0     O44315   7.109   6.045   9.974 -0.3556  0.3560 -0.0470
  329MOL0     C44316   7.214   6.076   9.881 -0.1647 -1.2019 -0.1544
  329MOL0     C44317   7.347   5.995   9.903  0.4655 -0.2666  0.0396
  329MOL0     C44318   7.333   5.840   9.885  0.3707 -0.5756 -0.7042
  329MOL0     C44319   7.469   5.768   9.898 -0.7210  0.5469  0.4297
  329MOL0     C44320   7.567   5.794   9.778 -0.2644 -0.0505 -1.0110
  329MOL0     C44321   7.699   5.715   9.806  0.1327  0.0713  0.1807
  329MOL0     C44322   7.689   5.567   9.760 -0.8771 -0.8705 -0.1729
  329MOL0     C44323   7.824   5.503   9.748  0.0489 -0.3203  0.2029
  329MOL0    Cl44324   7.914   5.594   9.615  0.5498 -0.0239 -0.5483
  329MOL0     C44325   6.954   6.220   9.886  0.7338  1.6256  0.1354
  329MOL0     C44326   6.831   6.287   9.903 -0.8124 -0.2150  0.1300
  329MOL0     O44327   6.507   6.177  10.073 -0.3370 -0.1756  0.4817
  329MOL0     C44328   6.418   6.504   9.955  0.2790  0.3959  0.2278
  329MOL0     C44329   6.315   6.592   9.938  0.0892 -0.1040  0.9164
  329MOL0     N44330   5.741   6.866   9.437 -0.5784 -0.0855 -0.1735
  329MOL0     N44331   5.667   6.903   9.340 -0.2208 -0.0906  0.6842
  329MOL0     C44332   4.630   6.972   9.659  0.2781  0.8184  0.3107
  329MOL0     C44333   4.534   6.881   9.711 -0.7130  0.0624  0.5026
  329MOL0     C44334   4.307   6.616   9.999  0.2747  0.1388 -0.1811
  329MOL0     C44335   4.224   6.692  10.085  0.2216  0.6506  0.0684
  329MOL0     C44336   4.106   6.659  10.145  0.0937 -0.1819 -0.4903
  329MOL0     C44337   4.066   6.528  10.122 -0.6746  0.9119 -0.5098
  329MOL0     O44338   3.948   6.472  10.179  0.2420 -0.6900  0.8069
  329MOL0     C44339   3.861   6.408  10.077  0.3435  0.2688 -0.2310
  329MOL0     C44340   3.719   6.395  10.138 -0.3422  0.7068  0.1121
  329MOL0     C44341   3.652   6.521  10.180 -0.2112 -0.6186 -0.7780
  329MOL0     C44342   3.605   6.615  10.062  0.3693  0.3883 -0.1638
  329MOL0     C44343   3.532   6.543   9.951 -0.4568 -1.0960 -1.3737
  329MOL0     C44344   3.463   6.491   9.869 -0.1543  0.2882 -0.4826
  329MOL0     C44345   4.141   6.434  10.049  0.5359 -0.4979 -0.1843
  329MOL0     C44346   4.266   6.478   9.988 -0.2281  0.2798  0.5206
  329MOL0     C44347   4.345   6.376   9.902 -0.1988  1.2967  0.5397
  329MOL0     H44348   4.530   6.963  10.041  0.4315  1.5672 -0.4952
  329MOL0     H44349   4.698   7.125   9.948 -0.4549 -0.5303  2.1011
  329MOL0     H44350   4.936   7.019   9.599 -0.1410 -0.5605  2.3507
  329MOL0     H44351   4.811   7.123   9.515 -0.1957  4.3252  0.6746
  329MOL0     H44352   5.073   7.214   9.657 -2.0065  3.0693  3.8824
  329MOL0     H44353   4.953   7.326   9.587  1.0352 -0.0848  0.1413
  329MOL0     H44354   4.998   7.212   9.368  1.2417  0.3471 -1.3249
  329MOL0     H44355   5.129   7.121   9.439  1.7494  1.4087  1.3566
  329MOL0     H44356   5.123   7.423   9.473 -0.5337 -0.3970 -0.0982
  329MOL0     H44357   5.254   7.315   9.523 -0.9483 -0.7642  0.3759
  329MOL0     H44358   5.173   7.383   9.236 -0.4687 -0.4139  0.2403
  329MOL0     H44359   5.311   7.425   9.321 -1.0330 -0.0590 -0.3012
  329MOL0     H44360   5.231   7.157   9.214 -0.9162  1.0456 -1.6237
  329MOL0     H44361   5.364   7.259   9.158 -1.4312 -0.7436 -1.9993
  329MOL0     H44362   5.358   7.132   9.446 -3.2457  1.1848 -1.2026
  329MOL0     H44363   5.497   7.207   9.361  1.3907 -2.0037  1.0365
  329MOL0     H44364   5.363   6.954   9.262 -1.8227  1.6814  1.1025
  329MOL0     H44365   5.501   7.040   9.192 -1.0333  0.1724 -0.6103
  329MOL0     H44366   5.459   6.934   9.591  0.5485  1.1106  0.2633
  329MOL0     H44367   5.734   6.933   9.744 -0.2394  0.1999 -0.5140
  329MOL0     H44368   5.637   6.787   9.741  0.2104  0.2765  0.2892
  329MOL0     H44369   5.840   6.666   9.637  1.2143 -0.7205  0.8899
  329MOL0     H44370   5.936   6.823   9.646 -0.6961  1.3507  0.7517
  329MOL0     H44371   5.822   6.640   9.866  0.1965  0.5373  0.0796
  329MOL0     H44372   5.885   6.801   9.894  0.6681  1.2879 -0.6227
  329MOL0     H44373   6.105   6.728   9.782  1.2058  0.2154  1.5163
  329MOL0     H44374   6.018   6.570   9.765 -0.8272  2.2305 -4.2177
  329MOL0     H44375   6.070   6.386  10.077  0.3451 -2.4310  0.2134
  329MOL0     H44376   6.271   6.240  10.109 -2.0041 -2.6187 -2.2225
  329MOL0     H44377   6.743   6.187  10.204  2.1864  0.1254  0.5833
  329MOL0     H44378   6.944   6.022  10.162  0.9022  0.2215 -0.4303
  329MOL0     H44379   7.182   6.045   9.781  0.6002  3.1784 -2.0172
  329MOL0     H44380   7.238   6.183   9.880 -1.4402 -0.8891  0.8290
  329MOL0     H44381   7.417   6.034   9.829  1.0977 -1.8743 -0.2431
  329MOL0     H44382   7.394   6.028   9.996  1.5265  2.0400 -1.2340
  329MOL0     H44383   7.260   5.798   9.955 -0.0286 -0.3755 -0.9975
  329MOL0     H44384   7.298   5.805   9.788  3.5623 -2.6859 -1.2621
  329MOL0     H44385   7.455   5.659   9.903 -3.0888  0.6506 -1.5923
  329MOL0     H44386   7.514   5.808   9.989  4.5823  1.5219 -2.2201
  329MOL0     H44387   7.588   5.901   9.778  0.2999 -0.1529 -1.8686
  329MOL0     H44388   7.509   5.755   9.694 -2.0349 -2.2413  1.0579
  329MOL0     H44389   7.784   5.756   9.751  0.8847  0.1207  1.3660
  329MOL0     H44390   7.740   5.730   9.906  2.8422 -2.4620 -0.4050
  329MOL0     H44391   7.650   5.565   9.658  2.0508 -0.3097 -1.4070
  329MOL0     H44392   7.640   5.497   9.830 -0.1142 -1.0510  0.1904
  329MOL0     H44393   7.876   5.513   9.844 -0.9356  0.7620  0.6513
  329MOL0     H44394   7.820   5.395   9.733 -0.4707 -0.0120 -2.3417
  329MOL0     H44395   7.020   6.251   9.806 -0.0881  0.8713 -0.8524
  329MOL0     H44396   6.806   6.358   9.824  1.8697 -0.1789 -0.8157
  329MOL0     H44397   6.515   6.546   9.928  0.6829  0.0039  1.0241
  329MOL0     H44398   6.330   6.696   9.912  2.3001 -0.5127  0.3747
  329MOL0     H44399   4.655   6.963   9.554 -1.5699  1.2689 -0.1984
  329MOL0     H44400   4.492   6.817   9.634 -2.6648  1.9528 -0.0806
  329MOL0     H44401   4.245   6.796  10.107  1.5424  0.1234  1.5073
  329MOL0     H44402   4.053   6.735  10.201 -1.6683 -2.9392  1.9436
  329MOL0     H44403   3.888   6.303  10.065 -2.0920 -0.5536  0.9349
  329MOL0     H44404   3.860   6.470   9.987  0.0266  1.9137  0.8623
  329MOL0     H44405   3.723   6.322  10.219 -1.6637  0.9762  0.4467
  329MOL0     H44406   3.650   6.359  10.061 -1.0004  3.4782 -0.7337
  329MOL0     H44407   3.724   6.584  10.233  0.3966 -1.8261 -0.1167
  329MOL0     H44408   3.566   6.499  10.243  1.0231 -1.1246  0.8213
  329MOL0     H44409   3.539   6.691  10.105  2.4818  1.9456  0.5306
  329MOL0     H44410   3.692   6.658  10.012  1.5462 -2.2536 -0.5476
  329MOL0     H44411   3.395   6.444   9.801 -0.0815 -0.6678  0.0932
  329MOL0     H44412   4.109   6.333  10.028  0.9039 -0.9629  1.3335
  329MOL0     H44413   4.380   6.420   9.808 -0.4532  0.5721  0.1006
  329MOL0     H44414   4.437   6.346   9.954 -1.4951  2.8377  4.0673
  329MOL0     H44415   4.279   6.290   9.891  0.9023  0.6466 -1.6640
  330MOL0     O44416   4.462   0.379   5.764  0.3628 -0.2582 -0.2215
  330MOL0     C44417   4.464   0.311   5.860 -0.3663 -0.2344 -0.3638
  330MOL0     O44418   4.571   0.290   5.941 -0.5409  0.0678  0.2875
  330MOL0     C44419   4.671   0.387   5.942  0.3610  0.7077  0.2475
  330MOL0     C44420   4.805   0.348   5.931 -0.0012 -0.5250 -0.4197
  330MOL0     C44421   4.914   0.443   5.952  0.0626  0.4343 -0.0441
  330MOL0     C44422   4.891   0.572   5.984  0.3382 -0.3233 -0.2566
  330MOL0     O44423   5.002   0.651   5.986 -0.5801 -0.3279  0.4182
  330MOL0     C44424   4.984   0.784   6.047 -0.1407  1.3798 -0.2467
  330MOL0     C44425   5.126   0.839   6.065 -0.1414 -0.5683  0.0414
  330MOL0     C44426   5.199   0.851   5.932  0.1708 -0.0999  0.9574
  330MOL0     C44427   5.274   0.982   5.901  0.0769  0.4990 -0.1314
  330MOL0     C44428   5.345   0.983   5.772  0.2588 -0.1717  0.3334
  330MOL0     C44429   5.417   1.119   5.752 -0.4777 -0.1995 -0.3406
  330MOL0     C44430   5.484   1.129   5.610  0.9013 -0.5411 -0.5984
  330MOL0     C44431   5.625   1.088   5.603 -0.4718 -0.2846 -0.0795
  330MOL0     N44432   5.729   1.178   5.660  0.0243  0.2857  0.1509
  330MOL0     C44433   5.777   1.165   5.787  0.2998 -0.1174 -0.0708
  330MOL0     C44434   5.890   1.240   5.797 -0.4904 -0.9545 -0.2613
  330MOL0     C44435   5.985   1.258   5.912 -0.3882 -0.0064 -0.1677
  330MOL0     C44436   6.015   1.125   5.966  0.4849  0.8258  0.3619
  330MOL0     C44437   6.123   1.123   6.069 -0.7877 -0.3221 -0.0675
  330MOL0     C44438   6.254   1.188   6.025 -0.4072 -0.3991 -0.0719
  330MOL0     O44439   6.368   1.139   6.102 -0.4117 -0.6402 -0.4459
  330MOL0     C44440   6.496   1.150   6.057  0.4315  0.4822  0.3431
  330MOL0     C44441   6.588   1.069   6.118 -0.3655 -0.0063  0.7003
  330MOL0     C44442   6.724   1.078   6.080  0.3229  0.6557 -0.1927
  330MOL0     C44443   6.758   1.177   5.982 -1.0442  1.1394  0.2464
  330MOL0     C44444   6.900   1.193   5.952  0.0669 -0.6931  0.5231
  330MOL0     O44445   6.989   1.141   6.036 -0.6442  0.1896 -0.0498
  330MOL0     C44446   7.127   1.146   6.007 -0.1164  0.6558 -0.1476
  330MOL0     C44447   7.201   1.258   5.986 -0.5373  0.0593 -0.6817
  330MOL0     C44448   7.342   1.248   5.970 -0.2935  0.2158 -0.6766
  330MOL0     C44449   7.407   1.126   5.980  0.3038 -0.0559  0.2337
  330MOL0     O44450   7.541   1.118   5.965 -0.2068  0.2028  0.0294
  330MOL0     C44451   7.620   1.003   5.926  0.1472 -0.4201 -0.1892
  330MOL0     C44452   7.767   1.049   5.883 -0.2976  0.9455 -0.4580
  330MOL0     C44453   7.860   1.073   5.994  0.1390 -0.6190  1.5028
  330MOL0     C44454   7.837   1.207   6.058 -0.6308  0.3546  0.1243
  330MOL0     C44455   7.935   1.242   6.163 -0.1599  0.5003 -1.1134
  330MOL0     C44456   8.073   1.260   6.114  0.0426  0.0301  1.2007
  330MOL0     C44457   8.083   1.376   6.011  0.9057  0.4076 -0.7710
  330MOL0     C44458   8.227   1.402   5.978 -0.4056 -0.2778  0.0206
  330MOL0    Cl44459   8.255   1.557   5.899 -0.0715 -0.2662  0.0128
  330MOL0     C44460   7.325   1.011   5.994  0.2172  0.7902 -0.2991
  330MOL0     C44461   7.189   1.024   6.009  0.0694 -0.1823 -0.9906
  330MOL0     O44462   6.931   1.272   5.861 -0.5938 -0.1383  0.0057
  330MOL0     C44463   6.658   1.242   5.911 -0.1367 -0.3284 -0.6445
  330MOL0     C44464   6.529   1.244   5.957 -0.0539  0.3200 -0.3527
  330MOL0     N44465   5.910   1.300   5.672  0.0803  0.2834 -0.4111
  330MOL0     N44466   5.820   1.262   5.594  0.3541 -0.0479  0.2262
  330MOL0     C44467   4.753   0.611   5.978  0.5117 -0.0897 -0.2875
  330MOL0     C44468   4.640   0.523   5.965  0.2306 -0.5549 -0.0093
  330MOL0     C44469   4.338   0.230   5.899 -0.8694  0.2005 -0.6940
  330MOL0     C44470   4.353   0.119   5.987 -0.0363 -0.1365 -0.3790
  330MOL0     C44471   4.242   0.049   6.029  0.1922  0.5511 -0.6239
  330MOL0     C44472   4.120   0.089   5.990  1.0171  0.3418  0.2026
  330MOL0     O44473   4.012   0.016   6.048 -0.3268 -0.0684  1.0098
  330MOL0     C44474   3.880   0.034   6.008 -0.8217  0.4849 -0.3248
  330MOL0     C44475   3.799  -0.029   6.123 -0.1167  0.1029 -0.9543
  330MOL0     C44476   3.652  -0.026   6.087 -0.0995 -0.4862  0.0332
  330MOL0     C44477   3.555  -0.089   6.198 -0.8237  0.2113  0.3702
  330MOL0     C44478   3.525  -0.235   6.188  0.5659  0.1939  0.4680
  330MOL0     C44479   3.483  -0.351   6.180  1.2286 -0.2696 -0.7726
  330MOL0     C44480   4.098   0.182   5.892  0.2882 -0.0566  0.3349
  330MOL0     C44481   4.210   0.255   5.841 -0.8900  0.5074 -0.2175
  330MOL0     C44482   4.176   0.360   5.748  0.1139 -0.5996 -0.4556
  330MOL0     H44483   4.834   0.243   5.928 -1.2747 -0.8973 -0.3256
  330MOL0     H44484   5.016   0.404   5.949  0.7738  2.2075 -0.7320
  330MOL0     H44485   4.918   0.837   5.977 -0.5660 -0.9496 -1.7339
  330MOL0     H44486   4.942   0.784   6.148  3.4770  0.6194  1.4192
  330MOL0     H44487   5.178   0.771   6.134 -2.5260 -1.2938  1.2570
  330MOL0     H44488   5.124   0.935   6.117  2.0704 -0.0887 -0.6236
  330MOL0     H44489   5.129   0.823   5.852  1.7311 -1.3890 -0.0347
  330MOL0     H44490   5.273   0.771   5.926 -1.0903 -1.2136 -1.8163
  330MOL0     H44491   5.208   1.068   5.913 -0.7388 -0.2203  0.6559
  330MOL0     H44492   5.351   0.992   5.978  1.7353 -3.0681 -1.1137
  330MOL0     H44493   5.429   0.913   5.778  1.0310  0.5175 -1.6836
  330MOL0     H44494   5.291   0.960   5.680 -0.5381 -0.5349  0.8863
  330MOL0     H44495   5.340   1.197   5.749 -1.5215 -1.2047 -1.0971
  330MOL0     H44496   5.492   1.126   5.831 -0.3476 -1.9740 -0.2567
  330MOL0     H44497   5.473   1.233   5.577 -1.0774  0.1541  1.9283
  330MOL0     H44498   5.428   1.065   5.541  1.4626 -0.5328 -1.0674
  330MOL0     H44499   5.615   0.995   5.660  1.9005  0.7523  2.2835
  330MOL0     H44500   5.658   1.065   5.502  1.0913 -1.6426  0.6824
  330MOL0     H44501   5.737   1.096   5.861 -2.5721 -0.1289 -1.5368
  330MOL0     H44502   6.077   1.305   5.876 -1.9560  0.5161 -3.9375
  330MOL0     H44503   5.945   1.317   5.995  0.0195 -1.3208  1.0010
  330MOL0     H44504   5.936   1.073   6.020  2.7648 -2.7296  0.6267
  330MOL0     H44505   6.050   1.067   5.880  0.2683  0.4927  0.4974
  330MOL0     H44506   6.149   1.020   6.095  1.6431  0.2865  0.1263
  330MOL0     H44507   6.089   1.169   6.162  0.9957  0.4733  0.2399
  330MOL0     H44508   6.252   1.297   6.017  1.7319 -0.4592 -3.0399
  330MOL0     H44509   6.278   1.146   5.926 -2.0257 -0.8157 -0.3177
  330MOL0     H44510   6.547   0.997   6.189  0.2961  1.1735  2.3396
  330MOL0     H44511   6.785   1.007   6.135 -1.4398 -1.5865 -0.9984
  330MOL0     H44512   7.135   1.345   5.986 -0.3028  0.2401 -1.0571
  330MOL0     H44513   7.397   1.338   5.946  0.6550 -0.7158 -2.0914
  330MOL0     H44514   7.618   0.936   6.012 -1.0761  0.4283  0.4741
  330MOL0     H44515   7.562   0.957   5.846 -0.5105  0.9036 -0.5025
  330MOL0     H44516   7.808   0.963   5.828 -1.5338 -0.2035  0.3439
  330MOL0     H44517   7.759   1.136   5.818  0.8293  2.1140  0.8986
  330MOL0     H44518   7.846   0.989   6.063  1.6428 -1.1714  1.1593
  330MOL0     H44519   7.958   1.064   5.947 -0.1298  0.1978  0.7483
  330MOL0     H44520   7.744   1.199   6.116 -1.5375  1.3098 -1.1432
  330MOL0     H44521   7.833   1.287   5.983  0.0778  0.5295  0.2649
  330MOL0     H44522   7.937   1.180   6.253 -0.0484  2.1247  0.0433
  330MOL0     H44523   7.906   1.339   6.204  0.0153 -0.2237  0.8435
  330MOL0     H44524   8.127   1.303   6.199  0.0506  1.0080  0.7093
  330MOL0     H44525   8.122   1.165   6.091  1.5630  0.6562  1.7242
  330MOL0     H44526   8.050   1.466   6.064 -0.7432 -1.5001  1.6712
  330MOL0     H44527   8.023   1.350   5.923 -1.7915  0.7251  0.8582
  330MOL0     H44528   8.289   1.410   6.067 -0.1727 -1.7541  0.0262
  330MOL0     H44529   8.262   1.318   5.917  0.3718  0.8214 -1.1046
  330MOL0     H44530   7.364   0.911   5.982 -2.4652 -0.1291 -2.5295
  330MOL0     H44531   7.137   0.934   6.042  0.3335 -1.0950 -2.9340
  330MOL0     H44532   6.683   1.303   5.825  1.0537  0.0498 -0.0643
  330MOL0     H44533   6.468   1.321   5.909  0.4583  0.0345 -1.5144
  330MOL0     H44534   4.722   0.711   6.006 -3.2877 -1.1372 -0.2509
  330MOL0     H44535   4.540   0.565   5.972  0.0129 -0.4588 -2.6257
  330MOL0     H44536   4.450   0.092   6.027  1.4078 -0.2502 -3.5862
  330MOL0     H44537   4.252  -0.029   6.104  3.8593  1.6434  0.2185
  330MOL0     H44538   3.860  -0.011   5.910  2.2091 -1.4500 -0.2027
  330MOL0     H44539   3.865   0.142   6.015 -0.5651  0.5880 -1.2271
  330MOL0     H44540   3.805   0.022   6.220 -1.1802 -2.4315  0.5366
  330MOL0     H44541   3.825  -0.131   6.151  1.3366  1.5666  3.9702
  330MOL0     H44542   3.649  -0.086   5.996  0.1081 -3.2923  1.7505
  330MOL0     H44543   3.606   0.070   6.063 -3.6672 -1.6754  1.4567
  330MOL0     H44544   3.594  -0.069   6.299 -1.6561 -1.1744  1.0096
  330MOL0     H44545   3.458  -0.040   6.200  0.0450  2.0067  1.1850
  330MOL0     H44546   3.448  -0.452   6.190  3.3179 -0.9812 -0.1421
  330MOL0     H44547   4.005   0.229   5.863  1.8702  4.3938  1.5009
  330MOL0     H44548   4.069   0.379   5.751  0.2855  0.8932 -1.9595
  330MOL0     H44549   4.211   0.453   5.796 -0.3155 -0.3191 -0.6782
  330MOL0     H44550   4.212   0.350   5.645  0.1394 -0.0420 -0.5069
  331MOL0     O44551   5.496   4.416   8.927 -0.6916  0.0699 -0.3983
  331MOL0     C44552   5.445   4.438   8.818  0.3612  0.2047  0.0060
  331MOL0     O44553   5.493   4.516   8.720  0.2087 -0.2696 -0.4160
  331MOL0     C44554   5.610   4.595   8.737  0.4544 -0.4982  0.4494
  331MOL0     C44555   5.636   4.667   8.858 -0.0471 -0.4077  0.5403
  331MOL0     C44556   5.759   4.731   8.858  0.9040  0.4378 -0.3066
  331MOL0     C44557   5.850   4.734   8.753  1.1951 -1.0473 -0.3819
  331MOL0     O44558   5.964   4.808   8.780  0.6743 -0.2153  0.0074
  331MOL0     C44559   6.060   4.837   8.671  0.0180 -0.2801 -0.3839
  331MOL0     C44560   6.171   4.940   8.711  0.3563  0.3436 -0.8756
  331MOL0     C44561   6.289   4.968   8.620 -0.0011  0.1753 -0.2712
  331MOL0     C44562   6.372   5.075   8.694 -0.2206  0.4273 -0.4859
  331MOL0     C44563   6.501   5.115   8.624 -0.1502 -0.6507  0.1191
  331MOL0     C44564   6.571   5.225   8.712 -0.4042  0.8710 -0.0986
  331MOL0     C44565   6.497   5.355   8.731 -0.0826 -0.2599 -0.5733
  331MOL0     C44566   6.471   5.443   8.605  0.4669 -0.0554  0.0972
  331MOL0     N44567   6.361   5.403   8.524  0.3053 -0.5940  0.1672
  331MOL0     C44568   6.361   5.369   8.390  0.6117 -0.1885  0.3598
  331MOL0     C44569   6.235   5.331   8.364  0.0723  0.5071 -0.1638
  331MOL0     C44570   6.185   5.331   8.229  0.3890  0.4084 -0.4631
  331MOL0     C44571   6.073   5.427   8.212 -0.0006 -0.1544 -0.9322
  331MOL0     C44572   6.004   5.412   8.067 -0.1815  0.0449  0.0604
  331MOL0     C44573   6.094   5.439   7.941 -0.3442  0.2225 -0.1337
  331MOL0     O44574   6.186   5.554   7.937 -0.2939  0.4864  0.8257
  331MOL0     C44575   6.295   5.553   7.854  0.1874 -0.6504 -0.3395
  331MOL0     C44576   6.313   5.475   7.737  0.2639 -0.2762  0.3655
  331MOL0     C44577   6.435   5.491   7.665  0.1943  0.5564  0.3768
  331MOL0     C44578   6.531   5.587   7.694 -0.5822  0.0402 -0.5044
  331MOL0     C44579   6.651   5.604   7.614 -0.2111 -0.1239  0.4978
  331MOL0     O44580   6.731   5.717   7.646  0.7252 -0.2303 -0.0703
  331MOL0     C44581   6.852   5.744   7.580  0.5493  0.5344  0.0407
  331MOL0     C44582   6.964   5.664   7.610  0.1672 -0.1639  0.8329
  331MOL0     C44583   7.083   5.704   7.538  0.1657  1.0897 -0.0606
  331MOL0     C44584   7.083   5.806   7.439 -0.5851  0.0973 -0.1571
  331MOL0     O44585   7.201   5.836   7.380 -0.6558 -0.1475 -0.2599
  331MOL0     C44586   7.268   5.730   7.315  0.1079 -0.4070  0.3354
  331MOL0     C44587   7.365   5.792   7.206  0.4225  0.6395  0.5109
  331MOL0     C44588   7.437   5.689   7.131  0.1873  0.1182 -0.2894
  331MOL0     C44589   7.550   5.743   7.048 -0.2859  0.1545  0.1129
  331MOL0     C44590   7.641   5.626   6.991  0.0707  0.4704 -0.8293
  331MOL0     C44591   7.787   5.632   7.001 -0.5922  0.5963 -0.3245
  331MOL0     C44592   7.831   5.579   7.135 -0.7741 -0.4727 -0.4051
  331MOL0     C44593   7.986   5.566   7.154  1.1833  0.2730 -0.1445
  331MOL0    Cl44594   8.075   5.714   7.099  0.6028 -0.7243 -0.3804
  331MOL0     C44595   6.958   5.869   7.404  0.7841  1.0852 -0.1808
  331MOL0     C44596   6.854   5.844   7.485  0.1949 -0.0934  0.0140
  331MOL0     O44597   6.680   5.523   7.523  0.1437  0.1190  0.2132
  331MOL0     C44598   6.505   5.668   7.804 -0.8320  0.0698 -0.1268
  331MOL0     C44599   6.387   5.653   7.879  0.4117 -0.2210 -0.2314
  331MOL0     N44600   6.168   5.324   8.484 -0.0019 -0.0187 -0.6323
  331MOL0     N44601   6.238   5.373   8.579  0.1337 -0.0567  0.1844
  331MOL0     C44602   5.813   4.678   8.631 -1.2869  0.5858  0.1639
  331MOL0     C44603   5.698   4.602   8.626 -0.5809 -0.6670 -0.4034
  331MOL0     C44604   5.328   4.360   8.780  0.4165  0.3348 -0.2597
  331MOL0     C44605   5.320   4.298   8.656  0.7314 -0.9513 -0.4112
  331MOL0     C44606   5.215   4.221   8.614 -0.1629 -0.1620 -0.7310
  331MOL0     C44607   5.104   4.210   8.695  0.2253  0.1711  0.5750
  331MOL0     O44608   4.997   4.136   8.644  0.2543  1.2303 -0.5397
  331MOL0     C44609   4.870   4.128   8.720 -0.1124  0.1411 -0.6649
  331MOL0     C44610   4.762   4.052   8.653  0.3665 -0.3299  0.4157
  331MOL0     C44611   4.620   4.050   8.716 -0.0911  0.1098 -0.6968
  331MOL0     C44612   4.616   3.991   8.864  0.1884 -0.6381 -0.9422
  331MOL0     C44613   4.624   3.844   8.861 -0.9264  0.3569  0.4235
  331MOL0     C44614   4.657   3.729   8.877 -0.2200  0.4637 -0.3331
  331MOL0     C44615   5.103   4.262   8.816  0.4267 -0.1483 -0.0458
  331MOL0     C44616   5.216   4.339   8.865  0.1933  0.2727  0.4795
  331MOL0     C44617   5.219   4.391   9.007  0.2495 -0.0280  0.2906
  331MOL0     H44618   5.572   4.662   8.945  0.5716 -0.0154  1.0236
  331MOL0     H44619   5.789   4.786   8.946  0.3630 -2.5305  1.8931
  331MOL0     H44620   6.108   4.746   8.635 -0.0541  0.1514 -1.6220
  331MOL0     H44621   6.003   4.879   8.587 -0.2905 -3.1084 -1.7075
  331MOL0     H44622   6.219   4.910   8.804  2.2484  2.1494 -1.1945
  331MOL0     H44623   6.125   5.037   8.732 -2.1084 -1.2305  1.6482
  331MOL0     H44624   6.267   5.001   8.518  1.0187  1.4246 -0.1250
  331MOL0     H44625   6.347   4.876   8.611  1.0183  0.6975  0.6051
  331MOL0     H44626   6.304   5.159   8.709 -1.8548 -0.4520 -2.4067
  331MOL0     H44627   6.392   5.039   8.795 -0.8391 -0.7747 -0.7699
  331MOL0     H44628   6.563   5.029   8.599  0.6049 -0.6604  1.8573
  331MOL0     H44629   6.470   5.160   8.529  1.0246 -0.8081 -0.3469
  331MOL0     H44630   6.609   5.175   8.802  2.4343  2.1428 -0.4861
  331MOL0     H44631   6.665   5.252   8.662  0.1919 -1.7431 -0.5746
  331MOL0     H44632   6.552   5.416   8.802 -1.6213  0.5028 -0.0028
  331MOL0     H44633   6.404   5.337   8.785 -0.0787  1.8978  0.2295
  331MOL0     H44634   6.451   5.547   8.634 -1.4141 -0.7810  1.6157
  331MOL0     H44635   6.560   5.440   8.541 -1.5998  3.5800 -3.4389
  331MOL0     H44636   6.435   5.401   8.316  1.8796  1.3721  2.2036
  331MOL0     H44637   6.272   5.346   8.165  2.1959 -1.6460  1.3429
  331MOL0     H44638   6.149   5.231   8.202  2.0018 -0.0241 -1.1239
  331MOL0     H44639   5.997   5.402   8.287 -1.1805  2.9054 -0.9828
  331MOL0     H44640   6.107   5.531   8.219  1.4406 -0.6743  0.1864
  331MOL0     H44641   5.916   5.477   8.060 -2.4459 -2.4301  2.7264
  331MOL0     H44642   5.970   5.308   8.060 -0.3757  0.1718 -1.2567
  331MOL0     H44643   6.021   5.451   7.860  1.3650 -0.7514 -1.8865
  331MOL0     H44644   6.154   5.351   7.918 -0.2301  0.8794 -2.6778
  331MOL0     H44645   6.243   5.402   7.697  0.5140  0.5334 -1.6414
  331MOL0     H44646   6.447   5.425   7.579 -2.2079  0.8298 -0.2504
  331MOL0     H44647   6.971   5.582   7.681  0.5007  0.5353  1.6189
  331MOL0     H44648   7.170   5.644   7.562 -1.7313 -0.7900  2.7071
  331MOL0     H44649   7.324   5.674   7.390  0.4960  2.3571  2.2388
  331MOL0     H44650   7.198   5.668   7.258  0.1470  0.6894 -0.9807
  331MOL0     H44651   7.305   5.857   7.142  0.2157 -0.0336  0.0106
  331MOL0     H44652   7.429   5.862   7.261  0.3621  3.4144 -2.6172
  331MOL0     H44653   7.465   5.604   7.193 -1.7642 -2.3926 -2.5903
  331MOL0     H44654   7.365   5.639   7.066 -0.0023 -2.0796  1.5010
  331MOL0     H44655   7.602   5.814   7.114 -1.2184  1.8228 -0.8900
  331MOL0     H44656   7.507   5.799   6.965  0.7630  1.5362  0.4656
  331MOL0     H44657   7.622   5.617   6.884  3.5345  0.2695 -1.5357
  331MOL0     H44658   7.607   5.535   7.041 -0.8148 -0.2026 -2.5659
  331MOL0     H44659   7.833   5.576   6.919 -0.1015  3.1366 -1.9026
  331MOL0     H44660   7.819   5.736   6.987 -1.1776  0.8488  0.1812
  331MOL0     H44661   7.771   5.492   7.163 -0.7696 -0.8604 -1.5513
  331MOL0     H44662   7.809   5.657   7.209  0.7060  1.5131 -1.9566
  331MOL0     H44663   7.999   5.543   7.260 -0.7017  3.2421  0.8539
  331MOL0     H44664   8.026   5.483   7.094 -0.6788 -0.5108 -0.3630
  331MOL0     H44665   6.965   5.947   7.328 -0.5714  0.8677 -0.5637
  331MOL0     H44666   6.764   5.904   7.479  0.7287  0.6085 -1.5905
  331MOL0     H44667   6.571   5.751   7.831 -0.0496 -0.2949 -0.8855
  331MOL0     H44668   6.370   5.722   7.961 -0.3162  1.0365 -1.3909
  331MOL0     H44669   5.897   4.676   8.561  1.5019 -2.6656  3.1927
  331MOL0     H44670   5.679   4.540   8.538  0.7286 -2.8740  0.7808
  331MOL0     H44671   5.404   4.310   8.590  2.7078  0.8646  2.1953
  331MOL0     H44672   5.210   4.180   8.514 -1.1990 -3.1127  0.4265
  331MOL0     H44673   4.833   4.230   8.734 -0.1893  0.1303 -0.7909
  331MOL0     H44674   4.890   4.076   8.814  0.3199 -1.5022 -1.6236
  331MOL0     H44675   4.792   3.948   8.640  0.0292 -0.3132 -0.6643
  331MOL0     H44676   4.749   4.090   8.551 -1.1038  1.5727  1.2372
  331MOL0     H44677   4.548   3.999   8.652  0.4549 -0.0160 -1.2179
  331MOL0     H44678   4.597   4.157   8.718  1.0592  0.3663  1.6630
  331MOL0     H44679   4.697   4.032   8.926  1.0159 -0.6072 -2.0112
  331MOL0     H44680   4.517   4.016   8.903  0.0018 -0.2563 -1.6492
  331MOL0     H44681   4.678   3.626   8.899 -0.8972  0.1978 -0.8832
  331MOL0     H44682   5.024   4.240   8.887 -2.0840  1.7450 -2.0592
  331MOL0     H44683   5.234   4.500   9.011  2.6198 -0.3044  0.8066
  331MOL0     H44684   5.123   4.362   9.050 -0.6646 -1.9797 -2.7250
  331MOL0     H44685   5.298   4.341   9.065 -0.4945  0.6399  1.9441
  332MOL0     O44686   8.624   7.950   6.309  0.0531  0.1961  0.3120
  332MOL0     C44687   8.584   7.940   6.426  0.9790  0.5097 -0.1457
  332MOL0     O44688   8.645   7.993   6.535 -0.1365 -0.4928 -0.4610
  332MOL0     C44689   8.772   8.039   6.526 -0.1996  0.5033  0.2870
  332MOL0     C44690   8.874   7.983   6.444  0.7171 -0.4220  0.1029
  332MOL0     C44691   9.004   8.035   6.445  0.1538  0.6936 -0.1385
  332MOL0     C44692   9.038   8.135   6.534  0.6012 -0.4982 -0.1933
  332MOL0     O44693   9.171   8.177   6.538  0.4286  0.3349 -0.3166
  332MOL0     C44694   9.226   8.202   6.667 -0.0754  0.8185 -0.6604
  332MOL0     C44695   9.374   8.234   6.639  0.1940  0.5293 -0.1876
  332MOL0     C44696   9.384   8.376   6.572 -0.3598 -0.3500  0.7860
  332MOL0     C44697   9.458   8.366   6.444  0.2888  0.0648 -0.5424
  332MOL0     C44698   9.492   8.499   6.387  0.0319 -0.2787  0.2885
  332MOL0     C44699   9.529   8.491   6.240  0.2464  0.4377 -0.1245
  332MOL0     C44700   9.671   8.420   6.209  0.1077 -0.4494 -0.1007
  332MOL0     C44701   9.790   8.491   6.277 -0.3300 -0.0060 -0.2127
  332MOL0     N44702   9.915   8.467   6.199 -0.1210 -0.4692 -0.6150
  332MOL0     C44703   9.934   8.528   6.078  0.4569 -0.1939 -0.0770
  332MOL0     C44704  10.060   8.504   6.051 -0.6205  0.5754  0.3657
  332MOL0     C44705  10.148   8.543   5.936  0.4726 -0.1632  0.1624
  332MOL0     C44706  10.092   8.481   5.805 -0.0393  0.1324  0.2316
  332MOL0     C44707  10.131   8.338   5.789 -0.0955  0.4511  1.1079
  332MOL0     C44708  10.093   8.302   5.647 -0.1894 -0.8940 -0.4120
  332MOL0     O44709  10.151   8.387   5.547 -0.1918 -0.3040 -0.2907
  332MOL0     C44710  10.279   8.368   5.504  0.4925  0.0376 -0.4981
  332MOL0     C44711  10.324   8.438   5.391 -0.6576  0.3715  0.4035
  332MOL0     C44712  10.460   8.442   5.349 -0.7959 -0.0642  0.0736
  332MOL0     C44713  10.555   8.361   5.413 -0.3987  0.9641  0.4674
  332MOL0     C44714  10.694   8.356   5.374 -0.3443 -0.0605  0.3880
  332MOL0     O44715  10.746   8.447   5.282 -0.6882 -0.0970 -0.5051
  332MOL0     C44716  10.885   8.460   5.267 -0.0102  0.4966  0.3931
  332MOL0     C44717  10.968   8.346   5.241 -0.2650 -0.7101 -0.3200
  332MOL0     C44718  11.107   8.361   5.223  0.2517  0.0176 -0.1468
  332MOL0     C44719  11.168   8.484   5.243 -0.1755 -0.5901  0.8389
  332MOL0     O44720  11.306   8.479   5.261  0.0890  0.3459 -1.1223
  332MOL0     C44721  11.374   8.526   5.382  0.2522  0.2829 -0.2244
  332MOL0     C44722  11.526   8.484   5.378 -0.4250 -0.4126 -0.2408
  332MOL0     C44723  11.606   8.524   5.256  0.5266 -0.0334 -1.2575
  332MOL0     C44724  11.748   8.482   5.273 -0.8537  0.1348 -0.3813
  332MOL0     C44725  11.834   8.544   5.169 -0.2696 -0.3170 -0.4222
  332MOL0     C44726  11.988   8.532   5.178  0.1650  0.0328 -0.3992
  332MOL0     C44727  12.037   8.402   5.128 -1.0636  0.7631 -0.6104
  332MOL0     C44728  12.182   8.415   5.091 -0.6363  0.7354  0.0661
  332MOL0    Cl44729  12.284   8.377   5.231  0.1533  0.2665 -0.0399
  332MOL0     C44730  11.089   8.597   5.262  0.2681 -0.7503 -0.1280
  332MOL0     C44731  10.951   8.583   5.279 -0.5770  0.5453 -0.1242
  332MOL0     O44732  10.764   8.278   5.436 -0.5219  0.1628  0.0808
  332MOL0     C44733  10.509   8.280   5.523 -0.9031  0.3842 -0.8995
  332MOL0     C44734  10.373   8.291   5.569 -0.1153 -0.0521 -0.4802
  332MOL0     N44735  10.121   8.451   6.169 -0.2225 -0.0308  0.0374
  332MOL0     N44736  10.026   8.431   6.260 -0.2400 -0.8042 -0.3001
  332MOL0     C44737   8.940   8.186   6.609  0.2774  0.1512 -0.0464
  332MOL0     C44738   8.804   8.148   6.609 -0.0786  0.1444 -0.0483
  332MOL0     C44739   8.452   7.891   6.454 -0.3862  0.3547  0.4569
  332MOL0     C44740   8.385   7.923   6.579 -0.3380  0.1706  0.4022
  332MOL0     C44741   8.262   7.877   6.628 -0.0732 -0.8092  0.8948
  332MOL0     C44742   8.192   7.789   6.545  0.8780  0.0113  0.2894
  332MOL0     O44743   8.057   7.765   6.585 -0.2728 -0.1599  0.1264
  332MOL0     C44744   7.984   7.699   6.480  0.1052  0.7401 -0.7482
  332MOL0     C44745   7.829   7.723   6.511 -0.1799  0.3655  0.6414
  332MOL0     C44746   7.780   7.617   6.617 -1.0699  0.3489  0.2629
  332MOL0     C44747   7.770   7.469   6.581 -0.9183  0.3925  0.0868
  332MOL0     C44748   7.695   7.440   6.458 -0.2667  0.0796 -0.6933
  332MOL0     C44749   7.621   7.395   6.378  0.0589 -0.0835 -0.5228
  332MOL0     C44750   8.253   7.753   6.414 -0.9924  0.4843  0.0455
  332MOL0     C44751   8.383   7.795   6.375  0.3006  0.3989  0.0099
  332MOL0     C44752   8.429   7.748   6.238 -0.4843  0.1018 -0.1160
  332MOL0     H44753   8.849   7.897   6.384 -2.9880  0.9048 -0.4989
  332MOL0     H44754   9.080   7.998   6.378 -1.1239 -0.0430 -1.2378
  332MOL0     H44755   9.187   8.287   6.724  2.6576 -0.6009  3.8190
  332MOL0     H44756   9.216   8.113   6.729 -4.0177  0.4670 -1.5554
  332MOL0     H44757   9.417   8.164   6.567 -2.9239 -1.0698 -0.6748
  332MOL0     H44758   9.441   8.226   6.725 -2.0394 -0.2948  1.5676
  332MOL0     H44759   9.435   8.444   6.641  1.0819  0.8574 -1.3340
  332MOL0     H44760   9.281   8.401   6.543 -0.3451 -2.6821 -1.6852
  332MOL0     H44761   9.549   8.307   6.459  0.9944  0.5271 -2.7170
  332MOL0     H44762   9.393   8.303   6.383 -0.1514  1.6567 -1.7942
  332MOL0     H44763   9.404   8.565   6.391 -0.2439 -0.5796 -0.6640
  332MOL0     H44764   9.577   8.557   6.424  0.2404  0.2166 -0.8933
  332MOL0     H44765   9.459   8.438   6.176  1.4258  1.9263 -2.8391
  332MOL0     H44766   9.521   8.594   6.204 -3.7761  0.9391  1.6874
  332MOL0     H44767   9.684   8.416   6.101  0.1117 -1.6428 -0.0717
  332MOL0     H44768   9.669   8.314   6.235 -0.3639 -0.7024 -1.1270
  332MOL0     H44769   9.766   8.597   6.266 -2.9229 -0.5908 -0.7049
  332MOL0     H44770   9.806   8.451   6.377  2.7960 -3.7974 -1.9612
  332MOL0     H44771   9.869   8.583   6.012  0.5905  3.6314  2.6345
  332MOL0     H44772  10.135   8.651   5.920  2.7898 -0.1629 -2.5622
  332MOL0     H44773  10.256   8.531   5.952  1.2164  3.3714 -1.2625
  332MOL0     H44774   9.983   8.479   5.810  0.0098  0.3291  1.6920
  332MOL0     H44775  10.120   8.539   5.716  1.7362  0.2393  0.8187
  332MOL0     H44776  10.068   8.279   5.857 -3.3031 -0.7493 -2.5781
  332MOL0     H44777  10.237   8.317   5.807 -0.7937 -3.5601  1.6013
  332MOL0     H44778   9.984   8.306   5.635 -0.2892 -1.3668  0.2927
  332MOL0     H44779  10.133   8.202   5.629  0.5146 -0.5788 -0.6648
  332MOL0     H44780  10.251   8.491   5.330  1.2976  0.3721 -2.1355
  332MOL0     H44781  10.491   8.512   5.273 -1.5998  1.6176  1.2339
  332MOL0     H44782  10.922   8.250   5.221 -3.7672  0.9894 -1.2408
  332MOL0     H44783  11.170   8.275   5.204 -0.3777  0.1947 -3.6044
  332MOL0     H44784  11.370   8.635   5.393  1.4630  0.2147  1.2873
  332MOL0     H44785  11.325   8.486   5.472 -2.2120  1.6854 -0.8251
  332MOL0     H44786  11.569   8.524   5.470  2.7507 -2.2615 -0.7603
  332MOL0     H44787  11.543   8.376   5.385  4.9253  0.1203 -0.3813
  332MOL0     H44788  11.572   8.470   5.167  2.0415 -1.0231 -1.2760
  332MOL0     H44789  11.598   8.633   5.241  0.5333  0.1387 -0.0620
  332MOL0     H44790  11.759   8.374   5.253  0.9207  0.8873 -4.5879
  332MOL0     H44791  11.802   8.519   5.360 -0.0413 -0.1809 -0.7397
  332MOL0     H44792  11.812   8.651   5.171 -3.1361 -0.8280 -0.3064
  332MOL0     H44793  11.800   8.509   5.071 -3.6542  0.3012  0.3921
  332MOL0     H44794  12.018   8.607   5.104 -2.7306  2.2224  0.4983
  332MOL0     H44795  12.017   8.566   5.278 -2.4876  2.2133 -0.2456
  332MOL0     H44796  11.988   8.392   5.031  1.5188  1.4292 -2.0579
  332MOL0     H44797  12.020   8.321   5.200  0.6111  1.6746  0.9033
  332MOL0     H44798  12.201   8.354   5.002 -2.0386  0.0086  0.2362
  332MOL0     H44799  12.214   8.512   5.053 -1.6673  0.9139 -0.3851
  332MOL0     H44800  11.128   8.695   5.289  0.8867 -0.9202 -0.4035
  332MOL0     H44801  10.887   8.668   5.300  0.2112  1.0688  0.2319
  332MOL0     H44802  10.571   8.219   5.587 -1.0911  2.2299  1.1330
  332MOL0     H44803  10.360   8.226   5.654  2.0964  2.1920  1.7542
  332MOL0     H44804   8.956   8.267   6.679  2.5493 -2.3329  2.5609
  332MOL0     H44805   8.732   8.208   6.664  2.9902  1.6946  2.6406
  332MOL0     H44806   8.443   7.992   6.639  1.4386 -0.6701 -0.2657
  332MOL0     H44807   8.232   7.911   6.726  1.0520 -1.1538  1.3782
  332MOL0     H44808   8.011   7.593   6.480  0.1341  0.7155  1.0932
  332MOL0     H44809   8.012   7.729   6.378  3.5813 -2.5156 -0.9931
  332MOL0     H44810   7.772   7.714   6.418 -1.6488  1.8531  1.3498
  332MOL0     H44811   7.804   7.826   6.539 -1.0866  0.2671  0.2207
  332MOL0     H44812   7.675   7.646   6.631 -1.5895 -2.1147  2.1253
  332MOL0     H44813   7.848   7.616   6.703 -0.1893 -0.1446 -0.4193
  332MOL0     H44814   7.872   7.429   6.572 -0.2968  2.0142 -0.4025
  332MOL0     H44815   7.728   7.425   6.673  1.5281  3.3495  2.8510
  332MOL0     H44816   7.547   7.348   6.316 -1.2572 -2.1010  2.3675
  332MOL0     H44817   8.205   7.688   6.342 -2.2168  2.4095 -0.9448
  332MOL0     H44818   8.353   7.676   6.205  0.0410  0.1121 -1.4140
  332MOL0     H44819   8.428   7.823   6.159  1.7768 -2.4649 -2.8088
  332MOL0     H44820   8.527   7.700   6.240 -0.6426 -0.7216 -4.2285
  333MOL0     O44821   3.053   3.512   1.644  0.0848 -0.4893 -0.8086
  333MOL0     C44822   2.980   3.503   1.542 -0.6470  0.2998 -0.2441
  333MOL0     O44823   3.033   3.509   1.417  0.5296 -0.7340 -0.0747
  333MOL0     C44824   3.162   3.489   1.380 -0.0465 -0.1238  1.3449
  333MOL0     C44825   3.192   3.525   1.249 -0.1468  0.5629 -0.6027
  333MOL0     C44826   3.319   3.507   1.192  0.1733 -0.1513  0.3965
  333MOL0     C44827   3.423   3.456   1.268  0.3598 -0.1078  0.2783
  333MOL0     O44828   3.560   3.432   1.220  0.5165  0.4149  0.2019
  333MOL0     C44829   3.577   3.410   1.076  0.5315 -0.3873  0.0917
  333MOL0     C44830   3.718   3.356   1.069  0.6242 -0.3038 -0.2237
  333MOL0     C44831   3.820   3.474   1.065 -0.0805  0.0747 -0.5723
  333MOL0     C44832   3.949   3.420   1.136 -0.9682  0.1539 -0.1682
  333MOL0     C44833   4.061   3.520   1.141 -0.7094 -0.1135 -0.7445
  333MOL0     C44834   4.180   3.472   1.220 -1.0580 -0.5438 -0.1942
  333MOL0     C44835   4.296   3.573   1.204  0.2645 -0.6186 -0.1484
  333MOL0     C44836   4.417   3.537   1.288 -0.0306 -0.1565  0.4826
  333MOL0     N44837   4.535   3.621   1.237 -0.5166 -0.0673 -0.4795
  333MOL0     C44838   4.559   3.757   1.246  0.0999  0.0310  0.4757
  333MOL0     C44839   4.679   3.769   1.176 -0.6841  0.6353 -0.0802
  333MOL0     C44840   4.746   3.899   1.155 -0.2057 -0.2393 -0.3814
  333MOL0     C44841   4.761   3.976   1.290 -0.5117  0.2636 -0.5231
  333MOL0     C44842   4.821   3.884   1.407 -0.6677 -0.4388 -0.3449
  333MOL0     C44843   4.964   3.838   1.380 -0.0420  0.0017 -0.3392
  333MOL0     O44844   5.034   3.952   1.348 -0.8292 -0.4887 -0.6362
  333MOL0     C44845   5.163   3.929   1.306 -0.3765  0.3408 -0.4749
  333MOL0     C44846   5.211   3.808   1.244 -0.3235 -0.1873  0.1906
  333MOL0     C44847   5.345   3.807   1.202  0.3536 -0.6850 -0.5895
  333MOL0     C44848   5.432   3.920   1.215  0.6055  0.2002 -0.3497
  333MOL0     C44849   5.572   3.907   1.163  0.4641 -0.4046  0.6267
  333MOL0     O44850   5.619   3.791   1.154 -0.7444 -0.0934 -0.0840
  333MOL0     C44851   5.737   3.787   1.091  0.6576  0.0358  0.0126
  333MOL0     C44852   5.743   3.773   0.950 -0.5100 -1.1408 -0.0862
  333MOL0     C44853   5.865   3.780   0.888  0.2501  0.6660 -0.1090
  333MOL0     C44854   5.984   3.786   0.957  0.8118  0.0571  1.1459
  333MOL0     O44855   6.106   3.798   0.891 -0.4985 -0.6042  0.5587
  333MOL0     C44856   6.118   3.897   0.783  0.7301 -0.1580  0.4639
  333MOL0     C44857   6.259   3.962   0.787  0.7490  0.7439 -0.6334
  333MOL0     C44858   6.357   3.869   0.719  0.8714 -0.2119 -0.1693
  333MOL0     C44859   6.490   3.940   0.678 -0.2142 -0.2445  0.1807
  333MOL0     C44860   6.566   3.847   0.590  0.1431  0.4387  0.4565
  333MOL0     C44861   6.704   3.898   0.569  0.1216 -0.3705  0.6540
  333MOL0     C44862   6.792   3.779   0.514 -0.3286 -0.1553 -0.0781
  333MOL0     C44863   6.937   3.834   0.520 -0.4641  1.1046  0.0155
  333MOL0    Cl44864   6.965   3.985   0.427  0.0221  0.3467  0.4694
  333MOL0     C44865   5.976   3.793   1.094 -0.4175  0.9845  0.0206
  333MOL0     C44866   5.851   3.802   1.161 -0.8457 -0.1909  0.2127
  333MOL0     O44867   5.626   4.015   1.145 -0.4002 -0.5629  0.5314
  333MOL0     C44868   5.377   4.036   1.284 -0.6417  0.1402  0.3147
  333MOL0     C44869   5.248   4.029   1.329 -0.3003 -0.8603  1.0174
  333MOL0     N44870   4.734   3.646   1.134  0.4533 -0.6372  0.5998
  333MOL0     N44871   4.647   3.558   1.177  0.0867 -0.7234 -0.3186
  333MOL0     C44872   3.395   3.408   1.398 -0.4497  0.1267 -0.6496
  333MOL0     C44873   3.264   3.433   1.450 -0.0876  0.5678 -0.0049
  333MOL0     C44874   2.837   3.496   1.557  0.1024  0.8456 -0.6978
  333MOL0     C44875   2.757   3.508   1.447 -0.2006 -0.2835 -0.2435
  333MOL0     C44876   2.615   3.492   1.447  0.0615 -1.3355  0.0436
  333MOL0     C44877   2.540   3.484   1.572  0.4554 -0.6265  0.1984
  333MOL0     O44878   2.407   3.461   1.598  0.3331 -0.3598  0.2426
  333MOL0     C44879   2.319   3.436   1.486 -0.0853  1.1688  0.1368
  333MOL0     C44880   2.185   3.369   1.527 -0.0028  0.1389 -0.1191
  333MOL0     C44881   2.206   3.236   1.598  0.1073 -0.2802 -0.3972
  333MOL0     C44882   2.170   3.106   1.519 -0.7722 -0.1969  0.2735
  333MOL0     C44883   2.027   3.107   1.493  0.0928 -0.3927  0.9030
  333MOL0     C44884   1.908   3.108   1.465 -0.0117  1.2784  0.0910
  333MOL0     C44885   2.617   3.469   1.686  0.8354  0.0616 -0.4976
  333MOL0     C44886   2.757   3.477   1.681  0.4110  0.4799 -0.0110
  333MOL0     C44887   2.816   3.468   1.809  0.5262 -0.7691 -0.1006
  333MOL0     H44888   3.120   3.573   1.183 -1.6858  0.8509  1.2197
  333MOL0     H44889   3.335   3.532   1.087  0.6044 -3.1348 -0.3425
  333MOL0     H44890   3.499   3.343   1.038  0.6763 -0.4547 -0.0864
  333MOL0     H44891   3.573   3.505   1.022 -1.3049 -0.8036 -0.5883
  333MOL0     H44892   3.719   3.305   0.972 -1.4679 -1.4356  0.3017
  333MOL0     H44893   3.736   3.285   1.151 -0.0198 -0.7983 -0.5075
  333MOL0     H44894   3.785   3.562   1.120  1.0220  0.0094  0.2781
  333MOL0     H44895   3.835   3.505   0.961  1.7644 -1.8292 -0.9481
  333MOL0     H44896   3.935   3.389   1.240  3.1021 -1.5699  0.0689
  333MOL0     H44897   3.984   3.334   1.078  2.7091  1.0702  0.4429
  333MOL0     H44898   4.085   3.535   1.036  0.7527 -1.5146 -0.6372
  333MOL0     H44899   4.020   3.609   1.190 -3.4053 -1.0256 -1.1816
  333MOL0     H44900   4.145   3.457   1.323  2.3394  0.0406  1.1807
  333MOL0     H44901   4.214   3.376   1.181  1.8986  1.0138 -1.7877
  333MOL0     H44902   4.255   3.672   1.226 -0.0249 -0.7507 -0.0821
  333MOL0     H44903   4.319   3.576   1.097  0.7632  4.3411 -0.1297
  333MOL0     H44904   4.387   3.558   1.391 -1.4407 -0.7163  0.2163
  333MOL0     H44905   4.436   3.430   1.273 -2.2035 -0.3451 -1.7857
  333MOL0     H44906   4.502   3.840   1.287  0.7143  1.0247 -0.6269
  333MOL0     H44907   4.850   3.885   1.123 -0.1737  0.8182 -0.7522
  333MOL0     H44908   4.694   3.958   1.080 -0.5492  1.3760  1.0603
  333MOL0     H44909   4.814   4.072   1.287  0.9416 -0.4777  0.2270
  333MOL0     H44910   4.660   4.013   1.310 -0.3436 -0.6500  2.6112
  333MOL0     H44911   4.759   3.794   1.416 -1.1703 -0.2511 -1.6069
  333MOL0     H44912   4.829   3.946   1.497 -0.3022  2.8718 -2.4813
  333MOL0     H44913   4.960   3.764   1.300 -1.3217  0.9350 -1.1836
  333MOL0     H44914   5.013   3.788   1.464  2.8848 -0.2102 -2.0462
  333MOL0     H44915   5.149   3.720   1.231  1.7990 -1.5895 -1.0565
  333MOL0     H44916   5.389   3.719   1.158 -0.6015 -2.3668  1.6097
  333MOL0     H44917   5.649   3.763   0.895 -1.3138  0.3391  0.9466
  333MOL0     H44918   5.876   3.782   0.781  0.6200  2.5696 -0.0663
  333MOL0     H44919   6.092   3.856   0.685 -0.6708 -2.2747  1.6384
  333MOL0     H44920   6.043   3.977   0.793 -1.9655 -2.0187 -2.7464
  333MOL0     H44921   6.256   4.055   0.729 -2.0983 -0.6815 -3.0321
  333MOL0     H44922   6.283   3.973   0.893 -0.4862  1.1392 -0.3871
  333MOL0     H44923   6.374   3.802   0.804 -2.9208  0.2109  1.0988
  333MOL0     H44924   6.310   3.821   0.632 -1.6473  2.4344 -0.3866
  333MOL0     H44925   6.546   3.956   0.770  1.7304  2.1138 -1.2925
  333MOL0     H44926   6.486   4.036   0.626 -1.5876 -0.7986 -0.8251
  333MOL0     H44927   6.515   3.851   0.493  0.1169  1.3722  0.4978
  333MOL0     H44928   6.566   3.746   0.631 -0.1035  0.4900  0.5825
  333MOL0     H44929   6.692   3.987   0.507  0.2810  0.0916  1.2786
  333MOL0     H44930   6.740   3.922   0.669  1.4967 -2.3335  0.7028
  333MOL0     H44931   6.768   3.757   0.410  1.6322 -1.5457 -0.2896
  333MOL0     H44932   6.772   3.684   0.565 -5.0994  0.9277  0.5374
  333MOL0     H44933   6.956   3.859   0.625  0.7450 -4.7816  1.5429
  333MOL0     H44934   7.005   3.751   0.501 -0.0201  0.5344  3.4438
  333MOL0     H44935   6.070   3.800   1.147 -0.8208 -0.2574  0.9702
  333MOL0     H44936   5.859   3.803   1.269 -1.3086  0.0291  0.2467
  333MOL0     H44937   5.437   4.125   1.299  1.2478 -0.9678 -0.2414
  333MOL0     H44938   5.227   4.123   1.378  2.3820  0.6102 -0.4156
  333MOL0     H44939   3.480   3.361   1.445 -0.9497 -3.2102 -2.7443
  333MOL0     H44940   3.263   3.387   1.548  1.5115 -0.2714 -0.3364
  333MOL0     H44941   2.811   3.531   1.355 -0.3121 -0.4093 -0.3414
  333MOL0     H44942   2.550   3.504   1.361 -2.8157 -1.4647  2.0456
  333MOL0     H44943   2.365   3.366   1.415 -1.3192  1.2356 -0.7491
  333MOL0     H44944   2.283   3.522   1.428 -3.3802 -1.2369 -1.6626
  333MOL0     H44945   2.124   3.356   1.437 -1.0749  2.1694  0.2421
  333MOL0     H44946   2.135   3.441   1.593  1.8769  0.6679  0.7984
  333MOL0     H44947   2.155   3.239   1.695  1.3119  1.9094  0.2388
  333MOL0     H44948   2.312   3.246   1.623 -0.4699  3.7414  1.2247
  333MOL0     H44949   2.215   3.101   1.419  3.2142  0.7323  1.8625
  333MOL0     H44950   2.183   3.012   1.574 -0.4429 -2.0836 -2.7644
  333MOL0     H44951   1.802   3.094   1.454 -0.3317 -0.1891  3.5465
  333MOL0     H44952   2.569   3.455   1.783 -1.1802 -2.7035 -1.7552
  333MOL0     H44953   2.846   3.572   1.825  1.7041 -1.0250 -0.5460
  333MOL0     H44954   2.749   3.452   1.894  0.0006 -0.3205 -0.4238
  333MOL0     H44955   2.904   3.404   1.818  0.4087 -0.6485  2.9453
  334MOL0     O44956   3.056   3.621   8.949  1.0475  0.0151  0.5400
  334MOL0     C44957   3.162   3.650   9.011  0.4963  0.0432 -0.1416
  334MOL0     O44958   3.198   3.603   9.133  1.2989  0.3608  0.8091
  334MOL0     C44959   3.109   3.545   9.219 -0.0085  0.0119  0.5784
  334MOL0     C44960   2.969   3.564   9.219  0.8410  0.0108 -0.2641
  334MOL0     C44961   2.886   3.502   9.324  0.0326 -0.5676  0.1104
  334MOL0     C44962   2.952   3.438   9.433  0.0960 -0.3697  0.2186
  334MOL0     O44963   2.867   3.388   9.530 -0.1570 -0.5775 -0.3467
  334MOL0     C44964   2.915   3.277   9.608 -0.1413 -0.3158 -0.6289
  334MOL0     C44965   2.811   3.236   9.719  0.5504 -0.3750  0.1747
  334MOL0     C44966   2.804   3.357   9.811 -1.1838  0.1652 -0.5026
  334MOL0     C44967   2.704   3.332   9.925 -0.0966  0.8669 -0.4775
  334MOL0     C44968   2.708   3.456  10.016 -0.3319  0.3630 -0.8659
  334MOL0     C44969   2.621   3.432  10.139  0.1251 -0.2178 -0.9711
  334MOL0     C44970   2.716   3.394  10.254  0.3536  0.3448 -0.0179
  334MOL0     C44971   2.827   3.294  10.225  0.0288 -0.5105  0.2308
  334MOL0     N44972   2.890   3.250  10.349 -0.6182  0.0496 -0.8388
  334MOL0     C44973   2.891   3.293  10.485  0.0101  0.0042 -0.3460
  334MOL0     C44974   2.975   3.207  10.555 -0.6680 -0.0625 -0.1042
  334MOL0     C44975   2.995   3.203  10.702 -0.4082  0.4823  0.0984
  334MOL0     C44976   3.136   3.231  10.755  0.1175  0.4414  0.4590
  334MOL0     C44977   3.245   3.133  10.711 -0.4869 -0.2029  0.0796
  334MOL0     C44978   3.377   3.150  10.780  0.3708  0.1038 -0.3323
  334MOL0     O44979   3.453   3.036  10.753  0.4098  0.0260  0.5632
  334MOL0     C44980   3.539   3.037  10.644 -0.5921  0.0846  0.1600
  334MOL0     C44981   3.543   3.128  10.541  0.1604  0.5308 -0.3178
  334MOL0     C44982   3.648   3.136  10.452 -0.4515 -0.7285 -0.5662
  334MOL0     C44983   3.749   3.040  10.445 -0.6974 -0.0074 -0.1450
  334MOL0     C44984   3.850   3.037  10.333 -0.2924  0.9850 -0.4520
  334MOL0     O44985   3.897   3.157  10.286 -0.3518 -0.0244  0.0425
  334MOL0     C44986   3.986   3.163  10.183  0.9368  0.3031 -0.1697
  334MOL0     C44987   3.994   3.275  10.098  0.2770 -0.3211 -0.0356
  334MOL0     C44988   4.108   3.294  10.016  0.9309  0.3627 -0.4636
  334MOL0     C44989   4.191   3.185   9.998 -1.8217  0.4500  0.7415
  334MOL0     O44990   4.302   3.185   9.912 -0.6456  0.2929 -0.3166
  334MOL0     C44991   4.271   3.256   9.787 -0.5486  0.8288 -0.2370
  334MOL0     C44992   4.344   3.214   9.659 -0.5106 -1.0398  0.3459
  334MOL0     C44993   4.294   3.295   9.535 -0.0197 -0.2059  0.8108
  334MOL0     C44994   4.380   3.294   9.406 -0.9028 -0.1067 -0.4111
  334MOL0     C44995   4.307   3.361   9.290 -0.1678 -0.6594  0.4079
  334MOL0     C44996   4.291   3.519   9.301 -0.7125  0.3569  0.7905
  334MOL0     C44997   4.429   3.594   9.325  0.1230  0.5993  0.2985
  334MOL0     C44998   4.519   3.598   9.207 -0.6873 -0.2754  0.2705
  334MOL0    Cl44999   4.608   3.448   9.173  0.3712 -0.1092  0.0858
  334MOL0     C45000   4.184   3.071  10.080  0.1150  0.2132  0.6726
  334MOL0     C45001   4.097   3.072  10.180  0.0202 -0.9546 -0.1151
  334MOL0     O45002   3.885   2.921  10.293  0.0424 -0.1325  0.5863
  334MOL0     C45003   3.743   2.938  10.544 -0.2537 -0.1505 -0.8910
  334MOL0     C45004   3.641   2.940  10.641  0.2250  1.1057  0.5534
  334MOL0     N45005   3.031   3.127  10.458  0.3752  0.2193 -0.8798
  334MOL0     N45006   2.980   3.147  10.345  0.0930  0.1842  0.2701
  334MOL0     C45007   3.092   3.431   9.436 -0.5525 -0.1802 -0.1913
  334MOL0     C45008   3.169   3.476   9.329 -0.2651 -0.8289 -0.6239
  334MOL0     C45009   3.255   3.746   8.948 -0.1364  0.4371  0.2423
  334MOL0     C45010   3.277   3.729   8.812 -0.0089 -0.4492  0.0744
  334MOL0     C45011   3.362   3.809   8.734 -0.5285 -0.1910 -0.9134
  334MOL0     C45012   3.440   3.907   8.798 -0.6238  0.7857 -0.8488
  334MOL0     O45013   3.503   4.004   8.725  0.0775 -0.0849 -0.1299
  334MOL0     C45014   3.402   4.088   8.663  0.7548 -0.4011  0.0365
  334MOL0     C45015   3.393   4.062   8.508  0.3697  0.8783  0.6128
  334MOL0     C45016   3.274   4.148   8.447 -0.1624  0.0588  0.2335
  334MOL0     C45017   3.262   4.143   8.297  0.0434 -0.7986  0.2165
  334MOL0     C45018   3.149   4.218   8.244  0.4576  0.6998 -0.5108
  334MOL0     C45019   3.052   4.277   8.206  0.8902  0.2385 -0.5088
  334MOL0     C45020   3.426   3.915   8.939  0.1349  0.5619 -0.1783
  334MOL0     C45021   3.336   3.847   9.011  0.3942 -0.4912  0.4680
  334MOL0     C45022   3.328   3.888   9.159 -0.0845  0.0645 -0.2427
  334MOL0     H45023   2.923   3.616   9.136  0.3764 -1.9187 -1.2885
  334MOL0     H45024   2.777   3.506   9.326  0.0239  3.0550  3.0772
  334MOL0     H45025   2.943   3.194   9.542 -0.4286 -0.7488 -0.2152
  334MOL0     H45026   3.004   3.301   9.666  0.1032 -0.2963 -1.0074
  334MOL0     H45027   2.840   3.139   9.761  2.3805  0.0406 -0.0568
  334MOL0     H45028   2.711   3.225   9.676  0.6696  0.3568 -0.3148
  334MOL0     H45029   2.762   3.441   9.755  1.1653  2.6488  1.1902
  334MOL0     H45030   2.906   3.379   9.843 -0.7401 -3.5255  1.1694
  334MOL0     H45031   2.602   3.316   9.890 -0.9689 -0.4161  2.3563
  334MOL0     H45032   2.734   3.242   9.981 -0.5175  0.8147 -0.3356
  334MOL0     H45033   2.810   3.476  10.050  0.2642 -0.8405 -1.8889
  334MOL0     H45034   2.658   3.544   9.973 -0.9154  0.0049 -0.9357
  334MOL0     H45035   2.567   3.522  10.170 -0.2037 -0.6342 -0.3042
  334MOL0     H45036   2.546   3.355  10.118 -2.5240  2.0165 -0.4377
  334MOL0     H45037   2.660   3.350  10.337  0.1452  0.0332 -0.3194
  334MOL0     H45038   2.753   3.487  10.296 -1.1412  0.1689  1.8194
  334MOL0     H45039   2.779   3.207  10.180 -2.3904  0.1156  1.4312
  334MOL0     H45040   2.909   3.332  10.163  0.4639 -0.3263  0.8998
  334MOL0     H45041   2.831   3.375  10.523  1.4517 -0.0264  2.2114
  334MOL0     H45042   2.926   3.279  10.739 -0.4730  1.2369 -1.4791
  334MOL0     H45043   2.960   3.110  10.749 -2.2357  0.7764 -0.6056
  334MOL0     H45044   3.157   3.330  10.713  1.4097  0.0186  0.0550
  334MOL0     H45045   3.118   3.223  10.863 -1.1657  1.6827  0.3647
  334MOL0     H45046   3.255   3.146  10.603 -1.5468  3.2158  0.2746
  334MOL0     H45047   3.220   3.028  10.727  2.6891 -0.9054  1.2003
  334MOL0     H45048   3.359   3.149  10.888 -1.0719 -3.3870 -0.4593
  334MOL0     H45049   3.425   3.244  10.753  1.2044 -1.1446 -3.5785
  334MOL0     H45050   3.460   3.197  10.529  0.2857  0.6498 -0.5122
  334MOL0     H45051   3.666   3.226  10.394  0.5568 -1.0269 -0.7380
  334MOL0     H45052   3.912   3.345  10.087 -1.0092 -1.8186 -0.3306
  334MOL0     H45053   4.120   3.390   9.967 -1.6196  3.7792  4.6074
  334MOL0     H45054   4.164   3.244   9.767  0.1081 -0.0998 -3.9594
  334MOL0     H45055   4.276   3.365   9.790 -2.4253  0.9465  0.0040
  334MOL0     H45056   4.450   3.242   9.661 -0.8959  0.5409  0.4123
  334MOL0     H45057   4.346   3.106   9.640  1.2480 -0.4497 -4.3107
  334MOL0     H45058   4.202   3.243   9.505  0.4799  0.4825 -2.2020
  334MOL0     H45059   4.262   3.395   9.566  1.5061  0.3412  0.7160
  334MOL0     H45060   4.400   3.188   9.388 -0.1601 -0.3299  1.5234
  334MOL0     H45061   4.482   3.325   9.432  1.6575 -5.3990 -2.5584
  334MOL0     H45062   4.210   3.311   9.280 -0.4505  0.1453 -1.2581
  334MOL0     H45063   4.361   3.347   9.196  1.3165 -2.9465  1.4969
  334MOL0     H45064   4.247   3.565   9.213  0.3464 -0.9021 -0.4576
  334MOL0     H45065   4.227   3.540   9.387 -2.1225  1.2940 -0.4373
  334MOL0     H45066   4.485   3.547   9.406  0.2915 -0.4187 -0.3867
  334MOL0     H45067   4.407   3.697   9.355 -0.3502  0.3163  0.9334
  334MOL0     H45068   4.461   3.633   9.121  0.8044 -1.1638 -1.1644
  334MOL0     H45069   4.596   3.672   9.230 -2.0065  0.7795  1.4336
  334MOL0     H45070   4.253   2.987  10.073  2.2336  2.0060 -1.6281
  334MOL0     H45071   4.103   2.989  10.249  2.4672 -0.4261  0.3840
  334MOL0     H45072   3.811   2.854  10.550 -0.5969 -0.3798 -0.0180
  334MOL0     H45073   3.658   2.881  10.731  0.1314  1.7605  1.0109
  334MOL0     H45074   3.150   3.380   9.513  1.5217 -0.5616 -1.8947
  334MOL0     H45075   3.277   3.468   9.319  0.0872  2.2848 -0.0544
  334MOL0     H45076   3.225   3.646   8.766  2.1619 -1.5151 -0.6056
  334MOL0     H45077   3.361   3.802   8.626  1.1456  3.7789 -1.3571
  334MOL0     H45078   3.428   4.194   8.675  1.7819 -0.6702  0.2859
  334MOL0     H45079   3.305   4.083   8.712  0.1124 -0.7802 -1.2437
  334MOL0     H45080   3.368   3.958   8.487  0.8518  0.3664  2.4404
  334MOL0     H45081   3.488   4.089   8.460 -0.2140  2.1826  0.1174
  334MOL0     H45082   3.288   4.253   8.473  1.5835 -0.3960  1.3430
  334MOL0     H45083   3.179   4.117   8.490 -1.2104 -0.0562 -2.0218
  334MOL0     H45084   3.342   4.189   8.238  1.7420  0.0009  2.9916
  334MOL0     H45085   3.245   4.039   8.265  0.3823 -0.6515 -0.4679
  334MOL0     H45086   2.966   4.329   8.168  0.8480  0.6030  0.0794
  334MOL0     H45087   3.484   3.990   8.991  1.8120 -0.6995 -0.1531
  334MOL0     H45088   3.223   3.876   9.188  0.5210  0.2692  2.2534
  334MOL0     H45089   3.386   3.821   9.222 -3.2803 -0.6300  2.2574
  334MOL0     H45090   3.366   3.990   9.173  0.5628  0.4167 -3.7339
  335MOL0     O45091   0.477   5.161   4.630 -0.0322  0.4160  0.4350
  335MOL0     C45092   0.436   5.207   4.526  0.9532 -0.9389 -0.0445
  335MOL0     O45093   0.524   5.256   4.431 -0.2481 -0.2790  0.4940
  335MOL0     C45094   0.659   5.223   4.454  0.8468 -0.1373 -0.6652
  335MOL0     C45095   0.752   5.303   4.522  0.5455 -1.3045 -0.3835
  335MOL0     C45096   0.885   5.273   4.545  0.4919 -0.0524  0.8934
  335MOL0     C45097   0.942   5.163   4.487  0.1927 -0.0821  0.1348
  335MOL0     O45098   1.072   5.134   4.495 -0.0349 -0.2861 -0.5845
  335MOL0     C45099   1.153   5.256   4.490 -0.4638 -0.6714  0.0734
  335MOL0     C45100   1.288   5.223   4.432 -0.0534  1.0787 -0.5147
  335MOL0     C45101   1.399   5.202   4.540  0.5031 -0.5509 -0.0436
  335MOL0     C45102   1.522   5.150   4.473  0.3427 -0.0573  0.0079
  335MOL0     C45103   1.619   5.096   4.573 -0.5059 -0.3601 -0.4753
  335MOL0     C45104   1.745   5.073   4.503 -0.5503  0.1169 -0.2681
  335MOL0     C45105   1.852   5.000   4.598  0.7760  1.0357  0.7191
  335MOL0     C45106   1.980   4.983   4.519  0.5952  0.1016 -0.0449
  335MOL0     N45107   2.069   4.911   4.606 -0.5017 -0.2632  0.4418
  335MOL0     C45108   2.147   4.968   4.703  0.6890  0.2026  0.1132
  335MOL0     C45109   2.254   4.890   4.731 -0.7813  0.2289  0.0289
  335MOL0     C45110   2.369   4.927   4.826  0.2278 -0.0062  0.2627
  335MOL0     C45111   2.353   4.859   4.967 -0.9726  0.0902  0.6834
  335MOL0     C45112   2.309   4.717   4.973 -0.6928  0.2619 -0.1348
  335MOL0     C45113   2.418   4.618   4.934  0.5401  0.6517 -0.2769
  335MOL0     O45114   2.517   4.635   5.035  0.3163  0.2863  0.0973
  335MOL0     C45115   2.644   4.589   5.014 -0.0807  0.4288 -0.4360
  335MOL0     C45116   2.754   4.640   5.087 -0.5912 -0.0211  0.3376
  335MOL0     C45117   2.885   4.594   5.069  0.3716 -0.6702 -0.3855
  335MOL0     C45118   2.914   4.481   4.983  0.1996 -0.0021  0.2611
  335MOL0     C45119   3.054   4.440   4.953 -0.4863  0.3351 -0.3048
  335MOL0     O45120   3.160   4.507   5.013  0.2375 -0.0168 -0.1357
  335MOL0     C45121   3.294   4.474   5.004 -0.2005  0.3656 -0.1105
  335MOL0     C45122   3.336   4.338   5.012  0.4423  0.3274 -0.1621
  335MOL0     C45123   3.478   4.314   5.009 -0.9193  0.4466  0.0862
  335MOL0     C45124   3.575   4.420   5.016  0.1721  0.7288 -0.0969
  335MOL0     O45125   3.711   4.397   5.024  0.2573  0.4992 -0.3828
  335MOL0     C45126   3.802   4.494   5.071 -0.0302  0.3728 -0.3436
  335MOL0     C45127   3.945   4.449   5.070 -0.5079  0.4473 -0.8291
  335MOL0     C45128   4.048   4.558   5.097  0.5255 -0.3069 -0.7581
  335MOL0     C45129   4.054   4.598   5.238  0.5166 -0.0165 -0.5423
  335MOL0     C45130   4.127   4.728   5.280 -0.3339  0.9725  0.0443
  335MOL0     C45131   4.265   4.738   5.212 -0.7406 -0.4453 -0.0987
  335MOL0     C45132   4.362   4.815   5.309  0.3502  0.5261 -0.6973
  335MOL0     C45133   4.503   4.808   5.254  0.6335  0.2355 -0.6681
  335MOL0    Cl45134   4.584   4.923   5.366 -0.3866  0.0394  0.5278
  335MOL0     C45135   3.526   4.553   5.026  0.5477  0.0458  0.4949
  335MOL0     C45136   3.387   4.578   5.021  0.5997  0.5375 -0.4153
  335MOL0     O45137   3.067   4.339   4.881 -0.3148 -0.0618  0.0315
  335MOL0     C45138   2.805   4.427   4.907 -0.5835 -0.6454 -0.0287
  335MOL0     C45139   2.684   4.483   4.924  0.1403  0.2698 -0.6759
  335MOL0     N45140   2.247   4.786   4.644 -0.8127  0.5460 -0.4123
  335MOL0     N45141   2.134   4.796   4.578  0.5371 -0.0469  0.7492
  335MOL0     C45142   0.854   5.082   4.417 -0.0146  0.1862 -0.4529
  335MOL0     C45143   0.718   5.096   4.411  0.8699 -0.6648 -0.4370
  335MOL0     C45144   0.292   5.204   4.486  0.0075 -0.3668 -0.2849
  335MOL0     C45145   0.259   5.253   4.354 -0.6965  0.1912  0.0750
  335MOL0     C45146   0.131   5.264   4.310  0.6373  0.1366 -0.6236
  335MOL0     C45147   0.030   5.216   4.396  0.4494 -0.1158  0.3957
  335MOL0     O45148  -0.091   5.240   4.349 -0.5288 -0.2990 -0.3619
  335MOL0     C45149  -0.188   5.132   4.345  0.5287 -0.0731 -0.2833
  335MOL0     C45150  -0.194   5.081   4.203  0.2116  0.3003  0.8968
  335MOL0     C45151  -0.300   4.976   4.194  0.1178  0.7058 -0.0837
  335MOL0     C45152  -0.296   4.904   4.073 -0.8082  0.2742  0.4548
  335MOL0     C45153  -0.388   4.791   4.072  0.4122  0.5928  0.4546
  335MOL0     C45154  -0.468   4.698   4.054 -0.2267  0.5733 -0.6973
  335MOL0     C45155   0.056   5.171   4.527 -0.4093 -0.4050  0.9028
  335MOL0     C45156   0.189   5.164   4.572  0.2824  0.4559  0.0218
  335MOL0     C45157   0.192   5.098   4.711 -0.0795  0.2251  0.4199
  335MOL0     H45158   0.722   5.387   4.585 -2.0695 -0.4244 -2.6168
  335MOL0     H45159   0.938   5.334   4.618  1.2034 -0.6970  0.9217
  335MOL0     H45160   1.116   5.337   4.426 -3.5565 -1.5024  0.6340
  335MOL0     H45161   1.165   5.291   4.593 -1.9467 -0.3445  0.1616
  335MOL0     H45162   1.308   5.305   4.362 -0.1574  1.5909  0.0484
  335MOL0     H45163   1.271   5.129   4.378  0.6802 -1.4841  3.3704
  335MOL0     H45164   1.357   5.136   4.616  0.1345  1.0606  1.2080
  335MOL0     H45165   1.425   5.300   4.582  2.7121 -1.1562  0.0964
  335MOL0     H45166   1.496   5.070   4.403 -1.3652  0.4691 -0.0126
  335MOL0     H45167   1.561   5.229   4.408 -1.9804  1.7712  0.6973
  335MOL0     H45168   1.642   5.167   4.654 -1.9055  0.8130 -1.0707
  335MOL0     H45169   1.577   5.009   4.623 -0.2792 -0.7417 -0.9432
  335MOL0     H45170   1.733   5.014   4.412  3.4701  0.0146 -0.9299
  335MOL0     H45171   1.794   5.169   4.482  2.8168 -0.9611  1.7490
  335MOL0     H45172   1.817   4.902   4.631 -0.2249  1.1179 -0.0420
  335MOL0     H45173   1.869   5.060   4.688 -0.4917  0.5947  1.2708
  335MOL0     H45174   1.957   4.911   4.440  1.8630 -0.1336 -0.2241
  335MOL0     H45175   2.018   5.074   4.473 -0.3198 -0.9800 -3.1733
  335MOL0     H45176   2.125   5.070   4.731  0.8489 -0.3257  2.3539
  335MOL0     H45177   2.460   4.898   4.772  0.9349 -3.3463  2.8783
  335MOL0     H45178   2.377   5.035   4.843 -0.9559 -0.0482  1.2203
  335MOL0     H45179   2.448   4.865   5.022 -0.3968 -3.8114  0.3710
  335MOL0     H45180   2.278   4.917   5.020 -1.4011  1.4845 -1.3139
  335MOL0     H45181   2.220   4.696   4.914 -1.1250 -2.3475  1.2826
  335MOL0     H45182   2.276   4.694   5.075 -1.8672 -1.4651 -0.8409
  335MOL0     H45183   2.455   4.645   4.834  1.8705  1.3142  0.3718
  335MOL0     H45184   2.380   4.515   4.932  2.7194 -0.2392 -3.1847
  335MOL0     H45185   2.724   4.725   5.148 -1.9924  0.4408 -0.9335
  335MOL0     H45186   2.958   4.657   5.118  1.1972 -0.9078 -1.2728
  335MOL0     H45187   3.270   4.251   5.023  0.4466  0.4499  0.9783
  335MOL0     H45188   3.513   4.212   5.021 -0.6552  0.3705 -1.2537
  335MOL0     H45189   3.794   4.592   5.023 -1.6458  1.1160  1.3330
  335MOL0     H45190   3.783   4.507   5.178  1.4149  0.7735 -0.1137
  335MOL0     H45191   3.960   4.366   5.140 -0.8108 -0.7381 -2.1232
  335MOL0     H45192   3.959   4.407   4.970  1.0883 -2.4370  0.4813
  335MOL0     H45193   4.149   4.521   5.074  1.9250  0.9558  2.7108
  335MOL0     H45194   4.027   4.644   5.032 -1.2750 -0.5235 -0.5203
  335MOL0     H45195   4.098   4.516   5.296 -0.0282 -0.3143 -0.5486
  335MOL0     H45196   3.955   4.607   5.282  0.9236 -0.9119  0.6035
  335MOL0     H45197   4.141   4.724   5.389 -5.4513  0.1649  0.9147
  335MOL0     H45198   4.074   4.816   5.241 -1.5277  0.1611 -0.2058
  335MOL0     H45199   4.298   4.634   5.196  0.4425 -0.3304  1.2979
  335MOL0     H45200   4.254   4.780   5.112 -2.1672 -1.3584 -0.3491
  335MOL0     H45201   4.354   4.761   5.403  3.9277  1.7047  0.4483
  335MOL0     H45202   4.337   4.920   5.328 -0.9204  0.0025  0.5794
  335MOL0     H45203   4.553   4.711   5.265  0.0994  0.1418  1.5991
  335MOL0     H45204   4.512   4.852   5.154  1.7181  0.2301 -0.5893
  335MOL0     H45205   3.591   4.640   5.028  0.5437  0.0361  2.1966
  335MOL0     H45206   3.345   4.678   5.014 -0.6147  0.0434 -0.4182
  335MOL0     H45207   2.813   4.359   4.823 -0.1415 -0.9366  0.2498
  335MOL0     H45208   2.598   4.439   4.874  1.0749 -1.9719 -0.4465
  335MOL0     H45209   0.878   4.985   4.374 -0.4684  0.9565 -2.5790
  335MOL0     H45210   0.651   5.014   4.385  1.8305 -1.4033 -0.6164
  335MOL0     H45211   0.347   5.282   4.297  0.0871 -0.4110  0.9462
  335MOL0     H45212   0.088   5.296   4.216  0.3949  2.2696  0.1611
  335MOL0     H45213  -0.287   5.175   4.361  0.6044  0.5591 -1.3625
  335MOL0     H45214  -0.152   5.050   4.407  0.4664 -0.6128 -0.9571
  335MOL0     H45215  -0.094   5.052   4.168  0.4923  0.1432  1.8128
  335MOL0     H45216  -0.218   5.165   4.138 -2.4377 -1.1385 -0.1653
  335MOL0     H45217  -0.399   5.021   4.196 -0.6879 -0.8965 -1.4955
  335MOL0     H45218  -0.286   4.907   4.278 -2.4262 -0.6379 -0.6582
  335MOL0     H45219  -0.331   4.965   3.989 -1.9488 -1.3168 -0.2914
  335MOL0     H45220  -0.196   4.861   4.058 -1.1306  0.1286 -1.5935
  335MOL0     H45221  -0.532   4.612   4.054 -1.1293  1.1661  1.2243
  335MOL0     H45222  -0.020   5.144   4.599  0.6049  0.6620  2.4323
  335MOL0     H45223   0.193   5.180   4.783  1.9836 -0.8992  1.7847
  335MOL0     H45224   0.105   5.035   4.730  0.7336 -0.2338  3.0644
  335MOL0     H45225   0.276   5.028   4.722  0.1772  0.1069 -1.8544
  336MOL0     O45226   7.057   2.078   1.483 -0.9307 -0.1581  0.4419
  336MOL0     C45227   7.104   2.163   1.553 -0.9488 -0.8731 -0.5517
  336MOL0     O45228   7.041   2.232   1.652  0.1461  0.4044 -0.3365
  336MOL0     C45229   6.909   2.200   1.683  0.3986  0.2334 -0.0370
  336MOL0     C45230   6.799   2.275   1.638 -0.5831  0.4134 -0.5291
  336MOL0     C45231   6.671   2.247   1.682  0.8578 -0.5012 -0.4740
  336MOL0     C45232   6.650   2.137   1.767  0.3218  0.2609  0.4630
  336MOL0     O45233   6.528   2.111   1.814  0.4157  0.1621 -0.1365
  336MOL0     C45234   6.412   2.106   1.726 -0.3048  0.9567 -0.3936
  336MOL0     C45235   6.283   2.118   1.816 -0.3962  0.3044 -0.2418
  336MOL0     C45236   6.161   2.129   1.739 -0.4203  0.2744 -0.3525
  336MOL0     C45237   6.044   2.172   1.825  1.7059 -0.0174 -0.1062
  336MOL0     C45238   5.921   2.188   1.732  0.0181 -0.2073 -0.2345
  336MOL0     C45239   5.804   2.249   1.814 -0.0071 -0.3045  0.1154
  336MOL0     C45240   5.667   2.244   1.744  0.2690  0.2751 -0.6768
  336MOL0     C45241   5.557   2.279   1.841  0.8357 -0.4667 -0.5513
  336MOL0     N45242   5.554   2.418   1.886 -0.5106  0.0805 -0.0767
  336MOL0     C45243   5.514   2.532   1.815 -1.0511  0.3614  0.0333
  336MOL0     C45244   5.541   2.639   1.895  0.1619 -0.2944  0.3819
  336MOL0     C45245   5.514   2.784   1.863  0.2866 -0.2232  0.3356
  336MOL0     C45246   5.644   2.867   1.845 -0.0831 -0.7408 -0.7538
  336MOL0     C45247   5.728   2.832   1.722  0.2872  0.4907  0.2862
  336MOL0     C45248   5.862   2.912   1.716 -0.6585 -0.8205 -0.2673
  336MOL0     O45249   5.934   2.854   1.611 -0.1206  0.8288 -0.2330
  336MOL0     C45250   6.059   2.906   1.582 -0.5805  0.4656 -0.3360
  336MOL0     C45251   6.123   3.026   1.620  1.2044 -0.1013  0.0945
  336MOL0     C45252   6.247   3.064   1.569  0.5862 -0.6446 -0.1461
  336MOL0     C45253   6.320   2.982   1.480 -0.4533  0.2444 -0.0683
  336MOL0     C45254   6.450   3.029   1.430 -0.5695 -0.6391  0.2105
  336MOL0     O45255   6.465   3.162   1.437 -0.2742 -0.6369  0.1671
  336MOL0     C45256   6.580   3.209   1.385  0.4281  0.4074 -0.6585
  336MOL0     C45257   6.599   3.231   1.250  0.5131  0.7697 -0.1588
  336MOL0     C45258   6.726   3.272   1.202  0.7313 -0.4552 -0.0566
  336MOL0     C45259   6.826   3.307   1.296  0.5390  0.2378 -0.0251
  336MOL0     O45260   6.955   3.354   1.262 -0.2879 -0.4154 -0.8440
  336MOL0     C45261   6.988   3.358   1.120 -0.4054  0.1359 -0.3170
  336MOL0     C45262   7.105   3.449   1.098  0.0923  0.7407  0.6280
  336MOL0     C45263   7.197   3.397   0.995  0.7147 -0.0632  0.2382
  336MOL0     C45264   7.322   3.478   0.980  0.1333  0.5198 -0.2465
  336MOL0     C45265   7.441   3.386   0.937  0.8575  0.2611 -0.1636
  336MOL0     C45266   7.567   3.465   0.898  0.0050 -0.0686 -0.2134
  336MOL0     C45267   7.670   3.374   0.847 -1.1176  0.1040 -0.3046
  336MOL0     C45268   7.739   3.288   0.956  0.0102 -0.5805  0.9043
  336MOL0    Cl45269   7.816   3.144   0.880 -0.1854 -0.0073  0.3443
  336MOL0     C45270   6.799   3.293   1.434  0.3628  0.2545  0.0157
  336MOL0     C45271   6.681   3.242   1.478 -0.5735 -0.4061  0.3501
  336MOL0     O45272   6.526   2.947   1.378  0.2555 -0.5265  0.7652
  336MOL0     C45273   6.271   2.854   1.462  0.4070  0.7254  0.4063
  336MOL0     C45274   6.148   2.819   1.521  0.2396  0.1176  0.1828
  336MOL0     N45275   5.588   2.588   2.020 -0.5838  0.2441  0.6341
  336MOL0     N45276   5.601   2.456   2.006 -0.4117 -0.0911  0.2000
  336MOL0     C45277   6.757   2.065   1.822  0.1053  0.0719 -0.0301
  336MOL0     C45278   6.885   2.107   1.783  0.0238 -0.2800  0.3725
  336MOL0     C45279   7.242   2.196   1.530  0.1622 -0.0840 -0.1354
  336MOL0     C45280   7.301   2.169   1.399 -0.1072  0.1375 -0.0725
  336MOL0     C45281   7.424   2.215   1.363 -0.8167  0.8241 -0.4084
  336MOL0     C45282   7.511   2.266   1.459 -0.3229 -0.0996 -0.7806
  336MOL0     O45283   7.644   2.309   1.437  0.4961 -0.6164  0.8141
  336MOL0     C45284   7.673   2.346   1.301 -0.0743  0.1723 -0.1405
  336MOL0     C45285   7.815   2.420   1.298 -0.0077 -0.4533  0.3275
  336MOL0     C45286   7.851   2.484   1.162  0.5701 -0.7560 -0.1802
  336MOL0     C45287   7.996   2.538   1.153  0.0452 -0.4521 -0.3465
  336MOL0     C45288   8.087   2.424   1.151  0.7860  0.3372 -0.2898
  336MOL0     C45289   8.162   2.326   1.155  0.3390 -0.4313  0.2284
  336MOL0     C45290   7.464   2.281   1.585  0.0839 -0.0952  0.4551
  336MOL0     C45291   7.333   2.246   1.623  0.3395 -1.4706 -0.5025
  336MOL0     C45292   7.305   2.286   1.764 -0.1332  0.5115 -0.1770
  336MOL0     H45293   6.829   2.356   1.574 -0.9586  2.0669  1.2757
  336MOL0     H45294   6.591   2.314   1.652  1.9223  0.6778 -0.7847
  336MOL0     H45295   6.412   2.184   1.650 -0.2872  1.7091  0.3695
  336MOL0     H45296   6.404   2.013   1.669 -2.1660  1.7519 -1.5234
  336MOL0     H45297   6.296   2.211   1.872 -0.4107 -0.5903  1.3051
  336MOL0     H45298   6.271   2.050   1.901  0.8275  1.3160  0.7768
  336MOL0     H45299   6.141   2.035   1.687 -3.8630  1.0649 -0.6839
  336MOL0     H45300   6.180   2.203   1.661  1.2892  0.5927  0.3135
  336MOL0     H45301   6.022   2.092   1.896  0.3550  1.3922  1.1430
  336MOL0     H45302   6.051   2.265   1.883  0.0677 -1.3410  2.3724
  336MOL0     H45303   5.946   2.251   1.647  0.6785 -1.4900 -1.0286
  336MOL0     H45304   5.899   2.088   1.692 -1.1057  0.0856 -0.3797
  336MOL0     H45305   5.795   2.209   1.915 -2.3553  1.6175  0.7752
  336MOL0     H45306   5.839   2.352   1.819  1.8346 -0.5451 -3.9644
  336MOL0     H45307   5.652   2.146   1.698 -1.0866  0.0550  0.1813
  336MOL0     H45308   5.677   2.309   1.656  2.2995  0.4720 -0.3530
  336MOL0     H45309   5.459   2.276   1.794 -0.0777  0.5939  1.1748
  336MOL0     H45310   5.541   2.213   1.927  0.3127 -1.4797 -1.4100
  336MOL0     H45311   5.481   2.522   1.712  2.7531 -0.8415 -1.2587
  336MOL0     H45312   5.450   2.782   1.774 -0.5571 -2.5600  0.9249
  336MOL0     H45313   5.454   2.829   1.942 -0.9217 -2.2858  0.6864
  336MOL0     H45314   5.611   2.971   1.834 -1.7289 -1.3397 -1.8610
  336MOL0     H45315   5.700   2.864   1.939 -0.4866 -1.8834 -0.5308
  336MOL0     H45316   5.666   2.836   1.631  0.4879  1.0598  0.1705
  336MOL0     H45317   5.762   2.728   1.717 -1.6531 -0.1616 -3.4474
  336MOL0     H45318   5.918   2.902   1.809 -1.7778  3.1453  1.0091
  336MOL0     H45319   5.832   3.015   1.696  0.3170 -0.3128  0.7828
  336MOL0     H45320   6.072   3.102   1.678  0.1557 -0.2523 -0.5987
  336MOL0     H45321   6.278   3.166   1.592  0.1754 -0.6260  0.3444
  336MOL0     H45322   6.522   3.201   1.180 -0.7079 -0.8473  1.7827
  336MOL0     H45323   6.744   3.301   1.099 -0.7805  0.6071 -0.0424
  336MOL0     H45324   7.006   3.253   1.092 -2.9296 -1.2720  2.7702
  336MOL0     H45325   6.906   3.399   1.060  0.3811  2.1419 -0.0769
  336MOL0     H45326   7.061   3.545   1.069 -0.4079  0.3466  0.0671
  336MOL0     H45327   7.156   3.457   1.195 -1.5503 -0.7685  1.6875
  336MOL0     H45328   7.229   3.297   1.027  2.3044  0.0561 -0.8228
  336MOL0     H45329   7.147   3.389   0.898  1.4197  0.2957 -0.1604
  336MOL0     H45330   7.343   3.534   1.072 -1.1209 -0.4158  0.6368
  336MOL0     H45331   7.316   3.548   0.896 -3.3018 -0.6617 -1.1344
  336MOL0     H45332   7.415   3.325   0.850 -1.3613  1.8888 -0.7370
  336MOL0     H45333   7.461   3.322   1.023 -2.2927 -0.5569  0.0984
  336MOL0     H45334   7.544   3.548   0.830 -3.6511 -0.5383  0.2221
  336MOL0     H45335   7.602   3.505   0.994  3.1466 -3.6384  0.3217
  336MOL0     H45336   7.744   3.425   0.784 -1.1375 -0.9997 -1.2464
  336MOL0     H45337   7.626   3.302   0.777 -0.4053 -1.6546  0.9986
  336MOL0     H45338   7.815   3.343   1.012 -0.6357 -0.9287  2.1676
  336MOL0     H45339   7.669   3.260   1.036 -2.2665 -0.3600 -0.8973
  336MOL0     H45340   6.877   3.326   1.503  0.8200 -0.6306 -0.0660
  336MOL0     H45341   6.664   3.237   1.585 -0.3711 -0.0950  0.3995
  336MOL0     H45342   6.325   2.776   1.409 -1.0540  1.0371 -1.6861
  336MOL0     H45343   6.109   2.720   1.498 -0.1130  0.8333 -2.6572
  336MOL0     H45344   6.736   1.992   1.900 -0.2191 -3.5339 -3.1802
  336MOL0     H45345   6.973   2.089   1.844  0.1604  3.6600  1.5887
  336MOL0     H45346   7.240   2.122   1.322 -1.1598  2.2984 -0.6401
  336MOL0     H45347   7.454   2.202   1.259  1.0884 -0.1886  0.2126
  336MOL0     H45348   7.595   2.417   1.271 -0.3220  0.9471  2.1553
  336MOL0     H45349   7.676   2.258   1.236  0.3632  0.7341 -0.9029
  336MOL0     H45350   7.888   2.341   1.317 -1.0219 -1.5960 -0.3586
  336MOL0     H45351   7.822   2.497   1.376  2.0109  1.9008 -1.9879
  336MOL0     H45352   7.785   2.571   1.152  1.3298  0.0051  1.0625
  336MOL0     H45353   7.826   2.428   1.071 -1.2960 -2.3259  1.2333
  336MOL0     H45354   8.004   2.596   1.061  0.6545 -2.0868 -1.3719
  336MOL0     H45355   8.018   2.607   1.235 -0.3705  0.4166 -0.9444
  336MOL0     H45356   8.220   2.236   1.158 -0.7010 -1.2023 -1.4215
  336MOL0     H45357   7.537   2.330   1.648  0.1816 -0.3225  0.5216
  336MOL0     H45358   7.269   2.201   1.822  0.5904  1.1129  1.1937
  336MOL0     H45359   7.397   2.325   1.809 -0.4291  0.7427  0.2291
  336MOL0     H45360   7.236   2.369   1.777 -0.0052  0.0871  4.9603
  337MOL0     O45361   5.709  10.317   5.218 -0.6291  0.2097  0.3817
  337MOL0     C45362   5.626  10.408   5.242  0.8183  1.2027 -1.1149
  337MOL0     O45363   5.657  10.543   5.262 -0.3573  0.1618 -0.1211
  337MOL0     C45364   5.785  10.581   5.272  0.3751  0.4716 -0.3400
  337MOL0     C45365   5.854  10.642   5.161  0.4057 -0.0488  0.2483
  337MOL0     C45366   5.976  10.698   5.182  0.5185  0.7489  0.3053
  337MOL0     C45367   6.033  10.702   5.310  0.5227 -0.1715 -0.0273
  337MOL0     O45368   6.148  10.768   5.337 -0.8458  0.0801 -0.5096
  337MOL0     C45369   6.252  10.759   5.233 -0.7722  0.2457  1.1361
  337MOL0     C45370   6.387  10.813   5.268  0.3773  0.1517  0.8013
  337MOL0     C45371   6.379  10.961   5.323 -0.4605  0.7662 -0.3503
  337MOL0     C45372   6.372  11.062   5.211 -0.2925  0.8786  0.0822
  337MOL0     C45373   6.352  11.200   5.267  0.0985  0.1450 -0.4290
  337MOL0     C45374   6.334  11.309   5.155 -0.4655 -0.3340 -0.4285
  337MOL0     C45375   6.305  11.447   5.212 -0.1591 -0.7211 -0.3606
  337MOL0     C45376   6.409  11.529   5.291 -0.5118 -0.6845 -0.8435
  337MOL0     N45377   6.384  11.674   5.290  0.3431 -0.0831  0.5734
  337MOL0     C45378   6.313  11.736   5.389  1.0741 -0.0786 -0.1439
  337MOL0     C45379   6.334  11.867   5.363  0.2581  0.0692  0.5823
  337MOL0     C45380   6.277  11.982   5.435 -0.7578 -0.4769 -0.1906
  337MOL0     C45381   6.367  12.045   5.543  0.3376  0.4002 -0.6880
  337MOL0     C45382   6.371  12.192   5.546  0.4224  0.1161  1.2898
  337MOL0     C45383   6.441  12.253   5.668 -0.4254  0.0480  0.1071
  337MOL0     O45384   6.515  12.370   5.636  0.1832 -0.4313 -0.2838
  337MOL0     C45385   6.648  12.359   5.591  0.0481  1.0309  0.6577
  337MOL0     C45386   6.700  12.480   5.553 -0.3866  0.0061 -0.6757
  337MOL0     C45387   6.830  12.496   5.508 -0.0344 -0.6183 -0.2066
  337MOL0     C45388   6.917  12.385   5.500  0.2711 -0.1768  0.5458
  337MOL0     C45389   7.059  12.404   5.465 -0.2693 -0.9445 -0.1335
  337MOL0     O45390   7.124  12.528   5.471  0.1801  0.3173  0.4711
  337MOL0     C45391   7.260  12.531   5.460  0.4564 -0.4151 -0.5103
  337MOL0     C45392   7.339  12.560   5.571  0.1246  0.4283 -0.3563
  337MOL0     C45393   7.482  12.535   5.560 -0.9862  0.2662  0.1582
  337MOL0     C45394   7.546  12.502   5.439 -0.1418  0.0376 -0.4416
  337MOL0     O45395   7.683  12.489   5.414  1.0129 -0.6591 -0.6385
  337MOL0     C45396   7.768  12.450   5.529  0.0825  0.1963  0.9930
  337MOL0     C45397   7.898  12.398   5.469 -0.0521 -0.2286 -0.4356
  337MOL0     C45398   7.990  12.513   5.402 -0.2238 -0.0590 -0.6336
  337MOL0     C45399   8.069  12.593   5.510  0.5678 -0.3792  0.4687
  337MOL0     C45400   8.134  12.724   5.459  0.5284 -0.6354  0.6686
  337MOL0     C45401   8.231  12.781   5.564  0.3654 -1.2891  0.2637
  337MOL0     C45402   8.295  12.905   5.513  0.4923 -0.0302  0.3052
  337MOL0     C45403   8.332  13.016   5.611 -0.7289  0.0239  0.8003
  337MOL0    Cl45404   8.430  13.155   5.550 -0.2344  0.0776 -0.1401
  337MOL0     C45405   7.461  12.482   5.331  0.3068  0.8109  0.7206
  337MOL0     C45406   7.321  12.489   5.339 -0.4369  0.2966  0.4674
  337MOL0     O45407   7.124  12.296   5.451 -0.6938  0.0905  0.3929
  337MOL0     C45408   6.863  12.257   5.540  0.4107 -0.3396  0.7384
  337MOL0     C45409   6.732  12.241   5.574  0.2326  0.2833  0.4531
  337MOL0     N45410   6.412  11.877   5.245  0.7526 -0.1229 -0.2783
  337MOL0     N45411   6.439  11.756   5.206 -0.7540  0.0534  0.6428
  337MOL0     C45412   5.960  10.651   5.419  0.3092  0.1675 -0.0874
  337MOL0     C45413   5.843  10.587   5.401  0.0005 -0.9224  0.3751
  337MOL0     C45414   5.487  10.367   5.266  0.2083 -0.9291 -0.0862
  337MOL0     C45415   5.448  10.241   5.216  0.7351 -0.6864  0.2541
  337MOL0     C45416   5.316  10.199   5.231 -0.4877  0.1993  0.7376
  337MOL0     C45417   5.228  10.261   5.308 -0.0701 -0.2815 -0.5937
  337MOL0     O45418   5.110  10.201   5.326 -0.2251 -0.3095  0.8274
  337MOL0     C45419   5.014  10.279   5.403 -0.2444  0.1276  0.2223
  337MOL0     C45420   4.869  10.216   5.391 -0.3805  0.0474  0.0019
  337MOL0     C45421   4.834  10.167   5.252 -0.2647  0.4939  0.2788
  337MOL0     C45422   4.717  10.061   5.258 -0.3693 -0.5038  0.3211
  337MOL0     C45423   4.594  10.118   5.323 -0.8815  0.9075  0.0899
  337MOL0     C45424   4.490  10.153   5.372 -0.3339 -0.4392 -0.3818
  337MOL0     C45425   5.268  10.375   5.377 -0.8794  0.4986  0.2632
  337MOL0     C45426   5.400  10.430   5.360 -0.2125 -1.0108  0.2134
  337MOL0     C45427   5.435  10.554   5.444  0.4352  0.0017 -0.5279
  337MOL0     H45428   5.796  10.635   5.069 -0.5874 -1.2642  0.9366
  337MOL0     H45429   6.024  10.727   5.089 -0.9420  1.5757 -0.2318
  337MOL0     H45430   6.258  10.653   5.205 -1.2662  0.2655  0.9392
  337MOL0     H45431   6.219  10.819   5.147 -0.8017  0.0022  0.9752
  337MOL0     H45432   6.445  10.811   5.175 -0.4384  1.0098  0.2466
  337MOL0     H45433   6.440  10.750   5.340  0.4575  1.5807  2.0545
  337MOL0     H45434   6.462  10.988   5.388 -1.4020  1.2661  0.6799
  337MOL0     H45435   6.293  10.959   5.390  1.3457 -3.5627  2.2126
  337MOL0     H45436   6.460  11.061   5.147  1.0641 -0.9406  1.8543
  337MOL0     H45437   6.287  11.043   5.144  0.5467  0.1160 -0.7885
  337MOL0     H45438   6.266  11.206   5.335  1.5613  2.6660  1.3494
  337MOL0     H45439   6.447  11.225   5.315  1.3023  1.1617 -3.1450
  337MOL0     H45440   6.410  11.312   5.076  0.2622  3.7537  0.2108
  337MOL0     H45441   6.242  11.277   5.103  0.7529  0.7694 -3.5134
  337MOL0     H45442   6.208  11.453   5.264 -0.5449  0.5717 -1.1829
  337MOL0     H45443   6.285  11.512   5.127  0.4413  1.0498  0.8017
  337MOL0     H45444   6.403  11.495   5.394 -0.7733  2.5990  0.3606
  337MOL0     H45445   6.510  11.515   5.252  0.2093 -2.8383  1.5504
  337MOL0     H45446   6.256  11.699   5.473 -0.2459  0.2010 -0.8899
  337MOL0     H45447   6.259  12.058   5.359 -0.5525 -0.5613 -0.3233
  337MOL0     H45448   6.180  11.955   5.478 -0.3255 -1.6361  0.0993
  337MOL0     H45449   6.338  12.009   5.642 -1.7067  0.8917 -1.0718
  337MOL0     H45450   6.467  12.001   5.534  0.2470  0.3888 -1.7560
  337MOL0     H45451   6.273  12.241   5.536 -0.5087 -2.1176 -2.3303
  337MOL0     H45452   6.425  12.228   5.458  0.2347  0.4887  1.3252
  337MOL0     H45453   6.507  12.175   5.708 -0.5488 -1.7536 -2.9233
  337MOL0     H45454   6.361  12.280   5.737 -0.5073  2.7953 -0.9411
  337MOL0     H45455   6.631  12.563   5.561  0.3871  0.6146 -0.2912
  337MOL0     H45456   6.855  12.595   5.471 -2.6410  0.1217 -0.2016
  337MOL0     H45457   7.306  12.592   5.669  1.5651  0.5877  0.0901
  337MOL0     H45458   7.549  12.558   5.642 -1.8177  2.1956  0.3561
  337MOL0     H45459   7.783  12.542   5.585 -1.3042  0.8241  0.3653
  337MOL0     H45460   7.720  12.373   5.589 -0.5863  1.4617  2.1282
  337MOL0     H45461   7.944  12.343   5.552 -1.8280 -0.5428  0.3880
  337MOL0     H45462   7.882  12.328   5.388  0.7833  0.0312 -0.8410
  337MOL0     H45463   8.061  12.462   5.337 -1.7256 -2.0265 -0.8191
  337MOL0     H45464   7.932  12.574   5.332 -0.4204  0.1613 -0.2791
  337MOL0     H45465   8.154  12.540   5.554  0.5156 -1.2474 -0.4587
  337MOL0     H45466   7.996  12.614   5.589 -1.2464 -0.8457 -1.0162
  337MOL0     H45467   8.053  12.792   5.430 -1.7045 -2.9499  1.1506
  337MOL0     H45468   8.184  12.699   5.365  1.6352  0.0157  1.0725
  337MOL0     H45469   8.176  12.805   5.656 -1.1508  0.8027 -1.0871
  337MOL0     H45470   8.313  12.714   5.592  0.4768 -1.2769 -0.0269
  337MOL0     H45471   8.237  12.944   5.430  1.8138 -1.6686 -1.5068
  337MOL0     H45472   8.387  12.873   5.462  0.7492  0.0492  0.7099
  337MOL0     H45473   8.246  13.058   5.664 -1.5569  1.9230 -1.8011
  337MOL0     H45474   8.407  12.965   5.672 -0.4107 -1.5306 -0.7873
  337MOL0     H45475   7.509  12.473   5.234 -4.8247  1.2273 -2.2034
  337MOL0     H45476   7.266  12.470   5.247  2.1219  0.2320 -1.1459
  337MOL0     H45477   6.926  12.168   5.535 -0.5187 -0.9357 -1.6529
  337MOL0     H45478   6.695  12.145   5.609 -0.1683  0.2879  0.0520
  337MOL0     H45479   6.006  10.649   5.518  1.1198  0.2607 -0.4497
  337MOL0     H45480   5.798  10.528   5.480  1.5052 -0.1167  1.9159
  337MOL0     H45481   5.515  10.191   5.146  0.9605 -0.6735  0.4585
  337MOL0     H45482   5.293  10.111   5.172  0.8034  0.3617 -0.0524
  337MOL0     H45483   5.008  10.382   5.367  1.3957  0.6076  1.2203
  337MOL0     H45484   5.043  10.279   5.509 -3.5943  1.5253  1.2840
  337MOL0     H45485   4.790  10.274   5.439 -0.0910  0.7705 -0.3765
  337MOL0     H45486   4.869  10.128   5.457  0.1882  2.9104  4.1866
  337MOL0     H45487   4.923  10.116   5.215  0.2708  1.0790  0.7483
  337MOL0     H45488   4.816  10.250   5.183  1.7502  1.4458  0.8327
  337MOL0     H45489   4.685  10.041   5.155  2.0057  1.9681 -1.0308
  337MOL0     H45490   4.745   9.964   5.299  1.0780 -0.0163  0.5635
  337MOL0     H45491   4.395  10.170   5.418 -0.4912 -1.8284 -0.1309
  337MOL0     H45492   5.206  10.437   5.441  0.8082 -0.2237  2.7569
  337MOL0     H45493   5.530  10.556   5.498 -0.0999 -0.5041  0.4596
  337MOL0     H45494   5.433  10.632   5.367 -1.4144 -0.7279 -1.2717
  337MOL0     H45495   5.355  10.569   5.517 -0.6660 -0.8884 -1.5199
  338MOL0     O45496   8.406   4.704   3.823  0.0237  0.1342 -0.8193
  338MOL0     C45497   8.398   4.633   3.931 -0.1397 -1.2670 -0.1072
  338MOL0     O45498   8.506   4.606   4.012  0.5554 -0.1105 -0.1301
  338MOL0     C45499   8.625   4.648   3.974 -0.1404 -0.1179  0.5197
  338MOL0     C45500   8.677   4.764   4.036  0.1702 -0.4898  0.3150
  338MOL0     C45501   8.799   4.813   3.993  0.5999 -0.9935  0.6133
  338MOL0     C45502   8.885   4.736   3.919  0.2463 -0.2130 -0.1278
  338MOL0     O45503   9.016   4.791   3.915 -0.8215  0.7890 -0.0054
  338MOL0     C45504   9.100   4.753   3.800 -0.2584  0.3378 -0.5367
  338MOL0     C45505   9.233   4.819   3.806  0.1765  0.2384  0.6833
  338MOL0     C45506   9.317   4.785   3.690  1.1769  0.2402  0.2143
  338MOL0     C45507   9.465   4.817   3.719 -0.4826 -0.0859  0.1410
  338MOL0     C45508   9.535   4.816   3.581  0.2423  0.3088  0.1323
  338MOL0     C45509   9.688   4.794   3.585 -0.0272 -0.4877 -0.2703
  338MOL0     C45510   9.750   4.810   3.451 -0.3891  0.2509 -0.3376
  338MOL0     C45511   9.899   4.824   3.476  0.5861 -0.2335  1.0460
  338MOL0     N45512   9.987   4.825   3.358  0.2344 -0.2657  0.3186
  338MOL0     C45513  10.085   4.923   3.330  0.1766  0.7377  0.1740
  338MOL0     C45514  10.138   4.889   3.206  0.5185 -0.8641 -0.3098
  338MOL0     C45515  10.245   4.974   3.150  0.1225  0.2630  0.4339
  338MOL0     C45516  10.371   4.890   3.115  0.9600 -0.9704 -0.2751
  338MOL0     C45517  10.437   4.851   3.252  0.5982 -0.2083  0.0481
  338MOL0     C45518  10.561   4.759   3.225 -0.2733  0.1160 -0.1193
  338MOL0     O45519  10.680   4.842   3.208  0.4406 -0.6351  0.7267
  338MOL0     C45520  10.807   4.816   3.251 -0.4119  0.0139  1.1065
  338MOL0     C45521  10.856   4.706   3.327  0.2743 -0.2036 -0.1735
  338MOL0     C45522  10.990   4.687   3.344 -0.6511 -0.1829 -0.5365
  338MOL0     C45523  11.084   4.784   3.306 -0.5046 -0.0770  0.0978
  338MOL0     C45524  11.234   4.772   3.339  0.2827  0.2567 -0.5207
  338MOL0     O45525  11.313   4.881   3.314 -0.7437 -0.0220 -0.3569
  338MOL0     C45526  11.439   4.896   3.370 -0.2188  0.5474 -0.0123
  338MOL0     C45527  11.492   5.020   3.416  0.1590 -0.5564 -0.2986
  338MOL0     C45528  11.624   5.035   3.461  0.2652 -0.0213 -0.1329
  338MOL0     C45529  11.714   4.925   3.456  0.6416 -0.1285 -1.0262
  338MOL0     O45530  11.839   4.936   3.510 -1.1148 -0.5469  0.0054
  338MOL0     C45531  11.936   4.833   3.490 -0.2682  0.5402 -0.6551
  338MOL0     C45532  12.070   4.892   3.524  0.3823 -0.4261 -0.1018
  338MOL0     C45533  12.185   4.794   3.496  0.6626  0.0793 -0.5887
  338MOL0     C45534  12.321   4.855   3.506  0.8483  0.2259  0.0019
  338MOL0     C45535  12.413   4.733   3.463 -0.1885 -0.4190 -1.2103
  338MOL0     C45536  12.542   4.801   3.418 -0.9717 -0.4287 -0.8337
  338MOL0     C45537  12.632   4.698   3.347 -0.2631  0.0837 -0.8350
  338MOL0     C45538  12.734   4.757   3.254  0.1466 -0.2956 -0.5807
  338MOL0    Cl45539  12.845   4.635   3.194 -0.1501 -0.1896  0.4583
  338MOL0     C45540  11.667   4.803   3.410 -1.0420  0.9673  0.2163
  338MOL0     C45541  11.535   4.792   3.367  0.2540  0.0991  0.0007
  338MOL0     O45542  11.277   4.666   3.382 -0.1412  0.0894 -0.1574
  338MOL0     C45543  11.040   4.897   3.241 -1.0879  0.2854  0.3556
  338MOL0     C45544  10.899   4.912   3.205  0.2663  0.0183 -0.2355
  338MOL0     N45545  10.079   4.774   3.163  0.1690  0.3023  0.1288
  338MOL0     N45546   9.987   4.739   3.250  0.0551  0.0228 -0.6851
  338MOL0     C45547   8.835   4.631   3.852 -0.0450  0.6706 -0.1244
  338MOL0     C45548   8.700   4.576   3.874 -0.4995 -1.1864 -0.2093
  338MOL0     C45549   8.262   4.593   3.977  0.2266  0.1587 -1.1953
  338MOL0     C45550   8.231   4.622   4.112 -0.3171 -0.9306  0.7456
  338MOL0     C45551   8.099   4.607   4.159 -0.4945  0.5775  0.1222
  338MOL0     C45552   7.998   4.555   4.076 -0.9651 -0.6292  0.6163
  338MOL0     O45553   7.873   4.521   4.113  0.0713  0.2506 -0.7697
  338MOL0     C45554   7.859   4.466   4.242 -0.2912 -0.0544 -0.0167
  338MOL0     C45555   7.712   4.422   4.276 -0.0792  0.2950 -0.0575
  338MOL0     C45556   7.625   4.545   4.243  0.5341  0.5052 -0.3464
  338MOL0     C45557   7.475   4.507   4.258 -0.5066  0.8824  0.1285
  338MOL0     C45558   7.425   4.416   4.150 -0.0444  0.5783 -0.0602
  338MOL0     C45559   7.390   4.359   4.046 -0.8216  0.1640  0.0725
  338MOL0     C45560   8.034   4.513   3.950  0.0416 -0.0882 -0.2806
  338MOL0     C45561   8.157   4.535   3.905 -0.4019  0.3624 -0.4771
  338MOL0     C45562   8.170   4.515   3.759 -0.4104 -0.3033  0.6760
  338MOL0     H45563   8.605   4.812   4.101 -0.3876  0.2993 -0.8556
  338MOL0     H45564   8.828   4.903   4.046 -1.3766  0.4703 -0.6419
  338MOL0     H45565   9.117   4.645   3.810 -1.9088  0.0751 -0.1172
  338MOL0     H45566   9.049   4.784   3.708  1.1564  3.4799 -0.3709
  338MOL0     H45567   9.294   4.791   3.892 -1.7852 -1.4991  1.6072
  338MOL0     H45568   9.218   4.927   3.804 -0.9513  0.0916 -0.5236
  338MOL0     H45569   9.273   4.830   3.600  1.0850  0.6539  0.4642
  338MOL0     H45570   9.318   4.677   3.671  3.6898  0.5241 -1.8514
  338MOL0     H45571   9.473   4.918   3.759 -1.1316  0.3092 -0.7075
  338MOL0     H45572   9.503   4.748   3.795 -0.2037  1.5525  1.5557
  338MOL0     H45573   9.489   4.735   3.524 -0.6655  0.3403  0.7968
  338MOL0     H45574   9.512   4.912   3.532 -1.5282  1.0298  2.2100
  338MOL0     H45575   9.733   4.870   3.650  2.5346  0.0832 -2.4870
  338MOL0     H45576   9.711   4.699   3.635 -0.0924 -0.4038 -0.0821
  338MOL0     H45577   9.711   4.898   3.399  0.2501  1.4212  1.0808
  338MOL0     H45578   9.727   4.722   3.390  0.2844 -0.9828  1.1256
  338MOL0     H45579   9.916   4.916   3.532 -0.8026  0.9256 -0.3398
  338MOL0     H45580   9.926   4.744   3.546 -2.3960 -1.5049  0.9043
  338MOL0     H45581  10.113   5.003   3.399  0.8901 -0.7796  1.7164
  338MOL0     H45582  10.209   5.009   3.053 -1.2746  0.5558  1.0343
  338MOL0     H45583  10.265   5.052   3.223  2.9524  0.1649 -0.1043
  338MOL0     H45584  10.326   4.810   3.055 -1.8257  0.0751  0.2664
  338MOL0     H45585  10.440   4.950   3.055 -0.1173 -0.6692 -1.2421
  338MOL0     H45586  10.374   4.793   3.319  2.4109 -1.8347  0.4573
  338MOL0     H45587  10.473   4.946   3.292 -2.0339  1.3397 -1.0077
  338MOL0     H45588  10.540   4.707   3.131  1.3238  1.4799 -1.2806
  338MOL0     H45589  10.579   4.692   3.310 -2.1229  0.0406  0.2513
  338MOL0     H45590  10.782   4.631   3.352 -0.9514  1.0126 -0.0038
  338MOL0     H45591  11.018   4.600   3.403  3.1566  0.9823 -0.3440
  338MOL0     H45592  11.426   5.106   3.423 -0.3760 -1.1130  3.5717
  338MOL0     H45593  11.672   5.129   3.489 -0.1738  0.7958 -1.9990
  338MOL0     H45594  11.931   4.744   3.553  0.5728 -0.3714 -1.8336
  338MOL0     H45595  11.935   4.796   3.388  0.5384  0.2311 -0.5582
  338MOL0     H45596  12.076   4.990   3.477 -2.9713 -0.5565 -1.0471
  338MOL0     H45597  12.087   4.908   3.631  1.1969 -0.3810 -0.2319
  338MOL0     H45598  12.168   4.709   3.563  1.2214  1.2269  1.0759
  338MOL0     H45599  12.170   4.747   3.398 -0.9927 -1.1487  0.2076
  338MOL0     H45600  12.342   4.871   3.612 -0.4391  0.7965  0.1806
  338MOL0     H45601  12.338   4.947   3.449  0.7186  0.6524  0.6467
  338MOL0     H45602  12.370   4.670   3.385  1.1516 -0.5910 -1.8413
  338MOL0     H45603  12.436   4.661   3.542 -2.6348  1.5807  1.5995
  338MOL0     H45604  12.526   4.889   3.355 -1.7505  1.0319  1.2993
  338MOL0     H45605  12.602   4.835   3.503 -1.7828 -2.2720  0.5540
  338MOL0     H45606  12.564   4.637   3.286 -0.5433  1.5632 -2.0615
  338MOL0     H45607  12.676   4.623   3.414 -1.6551 -0.0903 -0.0848
  338MOL0     H45608  12.674   4.805   3.177 -0.3084  1.4757  0.7918
  338MOL0     H45609  12.793   4.833   3.307 -0.1355 -0.9864  0.7806
  338MOL0     H45610  11.720   4.709   3.394 -1.8633  0.9577 -3.1453
  338MOL0     H45611  11.502   4.695   3.330 -0.2927  0.5756 -0.7677
  338MOL0     H45612  11.110   4.977   3.219 -0.9864  0.4582  1.2976
  338MOL0     H45613  10.887   5.003   3.146  0.2012  1.0630  1.3408
  338MOL0     H45614   8.883   4.584   3.767 -3.5003 -0.3186 -1.7143
  338MOL0     H45615   8.655   4.491   3.823 -2.4759  1.4129 -3.2101
  338MOL0     H45616   8.305   4.681   4.165 -0.0588  0.1888 -0.7882
  338MOL0     H45617   8.084   4.644   4.260 -0.7615 -0.7652  0.5967
  338MOL0     H45618   7.890   4.539   4.317 -1.6126 -1.1231  1.6379
  338MOL0     H45619   7.929   4.382   4.239  1.2026  1.1177  0.8863
  338MOL0     H45620   7.698   4.374   4.374  0.8768 -0.2676 -0.1772
  338MOL0     H45621   7.685   4.342   4.207  0.2466  1.3079 -1.3961
  338MOL0     H45622   7.640   4.580   4.141  1.8933 -1.5702 -0.9137
  338MOL0     H45623   7.659   4.623   4.311  1.7510 -2.0935  2.2587
  338MOL0     H45624   7.453   4.454   4.351  0.1947  0.8845  0.3026
  338MOL0     H45625   7.436   4.608   4.246  1.1958  1.3444 -2.6261
  338MOL0     H45626   7.350   4.301   3.966 -0.1184  2.2408 -1.9132
  338MOL0     H45627   7.951   4.479   3.889  0.6983  1.0008 -1.8526
  338MOL0     H45628   8.272   4.521   3.719 -0.9967 -1.4588 -1.1258
  338MOL0     H45629   8.128   4.423   3.718  0.3673  0.5461 -2.2607
  338MOL0     H45630   8.120   4.596   3.705  0.3705  0.1269  0.5824
  339MOL0     O45631   1.610   6.424   2.882 -0.0269  0.1494 -0.0795
  339MOL0     C45632   1.555   6.536   2.856  1.0640  0.0374 -1.1569
  339MOL0     O45633   1.616   6.650   2.839  0.2600 -0.2202  0.7059
  339MOL0     C45634   1.746   6.657   2.876 -0.2701  0.6641  0.5721
  339MOL0     C45635   1.789   6.758   2.963  0.1217 -0.9771  0.2014
  339MOL0     C45636   1.922   6.775   3.002 -0.3342  0.2923  0.3260
  339MOL0     C45637   2.012   6.681   2.941  0.4745 -0.1620  1.2221
  339MOL0     O45638   2.149   6.680   2.962 -0.2716  0.9508  0.4119
  339MOL0     C45639   2.219   6.796   2.991  1.1032 -0.0321 -0.0066
  339MOL0     C45640   2.272   6.778   3.133 -0.0492 -0.4748 -0.1883
  339MOL0     C45641   2.398   6.859   3.142 -0.0115 -0.6388 -0.4059
  339MOL0     C45642   2.458   6.834   3.275 -0.1816  0.4884  0.4670
  339MOL0     C45643   2.573   6.940   3.313  0.5816  0.3887  0.2703
  339MOL0     C45644   2.502   7.068   3.359  0.4517 -0.4803 -0.2120
  339MOL0     C45645   2.604   7.158   3.420 -0.4821 -0.1096 -0.6653
  339MOL0     C45646   2.532   7.288   3.459 -1.1895  0.1548  0.2524
  339MOL0     N45647   2.612   7.390   3.522 -0.3390  0.3106  0.0328
  339MOL0     C45648   2.729   7.363   3.585 -0.3913 -0.1570 -0.6434
  339MOL0     C45649   2.757   7.477   3.656 -0.0207 -0.2986  0.6069
  339MOL0     C45650   2.869   7.490   3.760  0.3264  0.7245  0.1662
  339MOL0     C45651   3.003   7.505   3.693 -0.4880  0.2265  0.2049
  339MOL0     C45652   3.113   7.486   3.799  0.8981  0.0084  0.7327
  339MOL0     C45653   3.246   7.479   3.745  0.7567 -0.0423  1.4099
  339MOL0     O45654   3.280   7.604   3.685 -0.2979 -0.2962  0.2997
  339MOL0     C45655   3.419   7.606   3.657 -0.1311 -0.9298 -0.3503
  339MOL0     C45656   3.478   7.610   3.528  0.2338 -0.2288  0.1180
  339MOL0     C45657   3.614   7.613   3.509  0.6194  0.1417  0.2682
  339MOL0     C45658   3.705   7.628   3.623 -0.7542 -0.0690 -0.0869
  339MOL0     C45659   3.848   7.640   3.609  0.4496 -0.1221  0.2238
  339MOL0     O45660   3.916   7.703   3.711 -0.1161  0.0689 -0.3724
  339MOL0     C45661   4.041   7.757   3.707  0.4580 -0.4644  1.2678
  339MOL0     C45662   4.139   7.704   3.627  0.3629 -0.8916  0.0620
  339MOL0     C45663   4.269   7.759   3.636  0.7206  0.3090  0.1024
  339MOL0     C45664   4.302   7.857   3.733 -0.2245 -0.2767 -1.1199
  339MOL0     O45665   4.442   7.887   3.745  0.4767  0.1157 -0.3234
  339MOL0     C45666   4.471   7.986   3.847  0.3046 -0.6430  0.0001
  339MOL0     C45667   4.621   7.982   3.850 -0.2136  0.0001  0.1794
  339MOL0     C45668   4.661   8.099   3.939  0.5541 -0.1824  0.8724
  339MOL0     C45669   4.809   8.143   3.916  0.1747 -0.5468  0.1749
  339MOL0     C45670   4.894   8.075   4.021  0.1811  0.3762  0.6166
  339MOL0     C45671   5.042   8.125   4.024  0.7836  0.1432 -0.2809
  339MOL0     C45672   5.109   8.080   3.892 -0.0845 -0.8086  0.1518
  339MOL0     C45673   5.256   8.100   3.899  0.4962 -1.1117 -0.2018
  339MOL0    Cl45674   5.313   8.105   3.730  0.6396  0.3301  0.2195
  339MOL0     C45675   4.194   7.909   3.806  0.1559  0.2515  0.8678
  339MOL0     C45676   4.067   7.863   3.792  0.4183 -0.2284 -0.0683
  339MOL0     O45677   3.898   7.602   3.502 -0.1328 -0.5845  0.1126
  339MOL0     C45678   3.647   7.634   3.746  0.1170  0.1377 -0.1264
  339MOL0     C45679   3.509   7.625   3.765 -0.2368 -0.2257 -0.6084
  339MOL0     N45680   2.662   7.569   3.614  0.0740 -0.4870 -0.3495
  339MOL0     N45681   2.569   7.510   3.551 -0.1784  0.1948  0.6981
  339MOL0     C45682   1.970   6.588   2.847 -0.3725  0.5698  0.5622
  339MOL0     C45683   1.843   6.570   2.817  0.5348 -0.4962 -0.0855
  339MOL0     C45684   1.412   6.544   2.853  0.7676  0.2536  0.1210
  339MOL0     C45685   1.355   6.661   2.804 -0.1088  0.1962  0.4003
  339MOL0     C45686   1.221   6.672   2.786  0.0457  0.3205 -0.2469
  339MOL0     C45687   1.132   6.572   2.807  0.3564  0.4360  0.0556
  339MOL0     O45688   1.004   6.600   2.776 -0.1597 -0.2405  0.3151
  339MOL0     C45689   0.903   6.501   2.812 -0.5035 -0.3357 -0.4047
  339MOL0     C45690   0.876   6.505   2.964  0.0526 -0.3206  0.4936
  339MOL0     C45691   0.756   6.408   2.994 -0.4199  0.6084  0.5458
  339MOL0     C45692   0.799   6.266   2.959  0.3219  0.0307 -0.7075
  339MOL0     C45693   0.922   6.215   3.017 -0.8248 -0.3053  0.8954
  339MOL0     C45694   1.020   6.157   3.073 -0.7569  0.1016  0.6926
  339MOL0     C45695   1.183   6.450   2.852  0.0046 -0.5317  0.4054
  339MOL0     C45696   1.322   6.432   2.876  0.6239 -0.9668  0.7189
  339MOL0     C45697   1.363   6.301   2.924 -0.2451  0.4042 -0.5007
  339MOL0     H45698   1.711   6.820   3.006  0.2150 -1.1603  0.6438
  339MOL0     H45699   1.952   6.848   3.076  1.5448  0.6286 -0.7048
  339MOL0     H45700   2.301   6.796   2.919  1.4390 -1.2145  0.3329
  339MOL0     H45701   2.160   6.886   2.977 -2.9169 -2.4617 -0.0985
  339MOL0     H45702   2.296   6.671   3.146  1.2243 -0.3156 -1.0512
  339MOL0     H45703   2.198   6.808   3.208  1.9514  0.6768  1.4514
  339MOL0     H45704   2.367   6.964   3.131  0.0058 -0.7751 -1.8824
  339MOL0     H45705   2.477   6.836   3.070  1.2194  0.8094  0.4250
  339MOL0     H45706   2.387   6.818   3.356 -2.1653  0.4320 -1.2005
  339MOL0     H45707   2.511   6.738   3.276  0.0353  0.5681 -0.8079
  339MOL0     H45708   2.637   6.914   3.398  2.5848  0.1186 -1.2520
  339MOL0     H45709   2.631   6.955   3.222 -0.8550  0.7115 -0.6172
  339MOL0     H45710   2.460   7.112   3.268 -1.8878 -0.0236  1.0224
  339MOL0     H45711   2.415   7.048   3.422 -2.7649 -1.7258 -4.6133
  339MOL0     H45712   2.689   7.186   3.356 -1.5692  2.3862 -1.1307
  339MOL0     H45713   2.643   7.116   3.513 -0.7215  2.2044  0.5626
  339MOL0     H45714   2.498   7.338   3.368  2.7774  0.4604 -1.2277
  339MOL0     H45715   2.442   7.254   3.511  0.6195 -1.2787  2.6595
  339MOL0     H45716   2.778   7.269   3.608 -1.3616  0.2808  4.3688
  339MOL0     H45717   2.857   7.574   3.829 -0.3583  0.9371 -0.2034
  339MOL0     H45718   2.863   7.397   3.818 -0.6790  1.8107  1.8993
  339MOL0     H45719   3.024   7.426   3.621  1.2257 -0.2516  1.1602
  339MOL0     H45720   3.003   7.606   3.650  0.1118 -0.4368 -1.4090
  339MOL0     H45721   3.094   7.411   3.876  1.5081 -0.8660  0.0489
  339MOL0     H45722   3.121   7.577   3.860 -1.5879  1.5843 -1.0949
  339MOL0     H45723   3.255   7.396   3.673 -1.4163  2.8736 -2.6267
  339MOL0     H45724   3.319   7.456   3.823  0.9507  0.1344  1.2822
  339MOL0     H45725   3.415   7.607   3.439 -0.0824 -0.3553  0.3452
  339MOL0     H45726   3.647   7.633   3.407 -1.1622 -0.5242 -0.4834
  339MOL0     H45727   4.130   7.625   3.553  1.3207  0.3793 -1.4842
  339MOL0     H45728   4.341   7.719   3.565  1.3923 -1.9045  1.9132
  339MOL0     H45729   4.429   8.082   3.816 -1.0840 -1.5443 -1.0072
  339MOL0     H45730   4.435   7.965   3.948  0.9092 -0.7443  0.2008
  339MOL0     H45731   4.672   7.897   3.895  0.7909 -1.0739 -2.7211
  339MOL0     H45732   4.664   8.001   3.751 -1.0574 -0.2400 -0.2428
  339MOL0     H45733   4.596   8.182   3.908  0.9664 -0.0382  0.3695
  339MOL0     H45734   4.637   8.078   4.043  0.8338 -2.1598  0.5675
  339MOL0     H45735   4.820   8.251   3.926  1.1684 -0.4459 -1.5818
  339MOL0     H45736   4.845   8.126   3.814  4.6032 -0.5366  1.5042
  339MOL0     H45737   4.884   7.968   4.003  0.2909  0.7871 -2.5260
  339MOL0     H45738   4.847   8.084   4.119 -0.6338 -0.4733  0.3266
  339MOL0     H45739   5.058   8.233   4.031 -0.1470  0.3907 -1.5639
  339MOL0     H45740   5.090   8.073   4.108  0.8460 -0.5120 -0.7140
  339MOL0     H45741   5.078   8.158   3.822 -1.2934 -2.1471 -0.8703
  339MOL0     H45742   5.081   7.982   3.852  1.4423 -0.9185 -0.7157
  339MOL0     H45743   5.295   8.186   3.954 -1.2922  1.0554 -2.1441
  339MOL0     H45744   5.294   8.011   3.951 -0.3226  0.1763  2.8435
  339MOL0     H45745   4.200   7.991   3.877 -0.4288  1.6712 -0.6693
  339MOL0     H45746   3.992   7.911   3.855  1.2543 -0.1119  0.8591
  339MOL0     H45747   3.705   7.652   3.836 -1.0108  2.2415  0.2633
  339MOL0     H45748   3.487   7.625   3.871  2.0274 -0.9881 -0.0602
  339MOL0     H45749   2.052   6.532   2.803  0.1463  3.0365 -1.9402
  339MOL0     H45750   1.828   6.489   2.746  0.6142 -0.2273 -0.4149
  339MOL0     H45751   1.417   6.744   2.771 -1.6309  0.7370 -1.2783
  339MOL0     H45752   1.166   6.757   2.746  0.1257  0.3025 -0.3953
  339MOL0     H45753   0.926   6.407   2.763  2.1075  1.2471 -2.4522
  339MOL0     H45754   0.808   6.527   2.764  0.6246 -1.9162 -3.7507
  339MOL0     H45755   0.848   6.607   2.992  1.0858  0.1572 -0.1656
  339MOL0     H45756   0.967   6.471   3.014 -0.2834 -1.3102  0.4579
  339MOL0     H45757   0.670   6.431   2.930 -0.3504  0.6886  0.4806
  339MOL0     H45758   0.726   6.419   3.099 -0.4573 -0.8820  0.7116
  339MOL0     H45759   0.724   6.194   2.991  1.5938 -1.7018 -1.4933
  339MOL0     H45760   0.805   6.249   2.851  0.5179  0.4115 -0.7613
  339MOL0     H45761   1.103   6.121   3.131 -2.0809  1.2104  3.4546
  339MOL0     H45762   1.108   6.377   2.880  1.1131 -2.0789 -0.4647
  339MOL0     H45763   1.274   6.240   2.943 -0.7600  1.2660 -0.0959
  339MOL0     H45764   1.424   6.251   2.849  0.4116  0.2411  0.1219
  339MOL0     H45765   1.415   6.306   3.021 -0.3048  0.1024 -0.4514
  340MOL0     O45766   9.885   3.809   2.588 -0.4160 -0.9489  0.3694
  340MOL0     C45767   9.928   3.801   2.468 -0.3994  0.4731  0.4370
  340MOL0     O45768  10.056   3.765   2.426 -0.2086  0.3590 -0.1078
  340MOL0     C45769  10.137   3.716   2.522  1.4422 -0.4725 -0.7062
  340MOL0     C45770  10.162   3.788   2.642 -0.2361  0.0608  0.4262
  340MOL0     C45771  10.236   3.735   2.747 -0.5341  0.6702  0.5849
  340MOL0     C45772  10.276   3.602   2.741 -0.2500 -0.7552 -0.5433
  340MOL0     O45773  10.340   3.540   2.847 -0.4406  0.4861  0.4130
  340MOL0     C45774  10.475   3.493   2.831  0.3029  0.0084 -0.0359
  340MOL0     C45775  10.486   3.364   2.902 -0.3913  0.2372 -0.2779
  340MOL0     C45776  10.639   3.320   2.915  0.2585  0.2210  0.1163
  340MOL0     C45777  10.662   3.211   3.026 -0.0850  0.6295 -0.1883
  340MOL0     C45778  10.808   3.182   3.040 -0.2534 -0.0443  0.0249
  340MOL0     C45779  10.840   3.069   3.135  0.4554  0.5631 -0.2960
  340MOL0     C45780  10.990   3.051   3.157 -0.5324  0.5927  0.4674
  340MOL0     C45781  11.029   2.968   3.282 -0.6693 -0.3110  0.3969
  340MOL0     N45782  11.165   2.925   3.264  0.1154 -0.0822  0.3670
  340MOL0     C45783  11.281   2.998   3.293  0.9869 -0.4170 -0.0730
  340MOL0     C45784  11.381   2.925   3.246 -0.2968 -0.3318  0.3036
  340MOL0     C45785  11.523   2.970   3.227 -0.7312 -1.0807  0.6099
  340MOL0     C45786  11.588   3.038   3.345  0.0638  0.2140 -1.1222
  340MOL0     C45787  11.732   3.000   3.356 -0.4610  0.1169 -0.1225
  340MOL0     C45788  11.789   3.035   3.488 -0.5955  0.0750 -0.3760
  340MOL0     O45789  11.923   2.987   3.475  0.0466 -0.8721  0.2500
  340MOL0     C45790  12.011   2.989   3.575 -0.6827 -0.6352 -0.0108
  340MOL0     C45791  12.140   2.934   3.551  0.7351 -0.9394 -0.5502
  340MOL0     C45792  12.242   2.946   3.650  0.4841  0.0935 -0.4737
  340MOL0     C45793  12.206   2.990   3.777  0.5977 -0.6726 -0.1772
  340MOL0     C45794  12.315   3.011   3.879 -0.3816 -0.1705  0.3955
  340MOL0     O45795  12.283   3.102   3.978  0.7038  0.6479  0.4783
  340MOL0     C45796  12.389   3.120   4.070 -0.8315 -0.1069 -0.4160
  340MOL0     C45797  12.450   3.247   4.076 -0.0498  0.1042 -0.0426
  340MOL0     C45798  12.545   3.283   4.172  0.0221  0.0961 -0.5492
  340MOL0     C45799  12.578   3.187   4.271 -0.1809 -0.7300 -0.6228
  340MOL0     O45800  12.678   3.233   4.356  0.2451 -0.1045  0.8340
  340MOL0     C45801  12.734   3.139   4.445  0.1946  0.1310 -0.1118
  340MOL0     C45802  12.844   3.214   4.515  0.4989  0.6300 -0.0466
  340MOL0     C45803  12.892   3.152   4.644  0.1695  0.4946  0.1642
  340MOL0     C45804  12.963   3.252   4.735  0.1156  0.3391 -0.1729
  340MOL0     C45805  12.998   3.183   4.866 -0.0369  0.5371 -0.0894
  340MOL0     C45806  13.068   3.268   4.974 -0.1193 -0.1764 -1.1728
  340MOL0     C45807  13.212   3.310   4.919  0.0327 -0.5336 -0.3381
  340MOL0     C45808  13.278   3.403   5.021 -0.1146  0.2616 -0.1271
  340MOL0    Cl45809  13.459   3.428   4.976  0.0368  0.0562 -0.3562
  340MOL0     C45810  12.528   3.057   4.261  0.3517 -0.3083 -0.5730
  340MOL0     C45811  12.436   3.025   4.160 -0.1632  0.0141  0.3975
  340MOL0     O45812  12.424   2.957   3.862  0.1906  0.0730  0.7295
  340MOL0     C45813  12.079   3.044   3.810 -0.0922 -0.1191  0.2132
  340MOL0     C45814  11.983   3.051   3.700 -0.0709  0.3764 -0.4418
  340MOL0     N45815  11.327   2.798   3.214  0.0946 -0.0599 -0.8681
  340MOL0     N45816  11.208   2.809   3.215  0.8731 -0.3566 -0.2116
  340MOL0     C45817  10.254   3.530   2.623  0.5346 -0.0978  0.4189
  340MOL0     C45818  10.188   3.583   2.509 -0.3258 -1.0426 -0.2299
  340MOL0     C45819   9.830   3.850   2.358 -0.8830  0.9084 -0.3743
  340MOL0     C45820   9.887   3.913   2.248 -0.1136  1.2053 -0.5220
  340MOL0     C45821   9.809   3.940   2.129 -0.7003 -0.3300 -0.7536
  340MOL0     C45822   9.671   3.925   2.138  0.3008 -0.2325  0.7764
  340MOL0     O45823   9.600   3.959   2.030 -0.1460  0.7039 -0.2239
  340MOL0     C45824   9.513   4.073   2.058  0.1080 -0.0614 -0.8617
  340MOL0     C45825   9.409   4.087   1.946 -0.7514  0.0864  0.5263
  340MOL0     C45826   9.318   3.968   1.951  0.1840  0.2029 -0.2063
  340MOL0     C45827   9.180   3.997   1.912 -0.3208  0.1088 -0.0167
  340MOL0     C45828   9.114   4.089   2.015  0.5317  0.6597  0.3769
  340MOL0     C45829   9.057   4.162   2.088  0.7033  0.9724 -0.0774
  340MOL0     C45830   9.618   3.859   2.243  0.9132  1.0931  1.5560
  340MOL0     C45831   9.697   3.823   2.353  0.3323 -0.0901  0.2182
  340MOL0     C45832   9.643   3.727   2.459  0.0796 -0.2380 -0.5509
  340MOL0     H45833  10.113   3.884   2.651 -0.0224  0.6272 -3.0024
  340MOL0     H45834  10.267   3.802   2.827  0.0576  1.6985 -0.4887
  340MOL0     H45835  10.504   3.489   2.726  1.6677  2.2260  0.1751
  340MOL0     H45836  10.533   3.561   2.894 -1.5238  1.7641 -0.1354
  340MOL0     H45837  10.431   3.286   2.847 -1.9879  1.3357 -0.3168
  340MOL0     H45838  10.437   3.377   2.999 -1.6848  0.8146 -0.9707
  340MOL0     H45839  10.694   3.409   2.945  0.4486  0.2421 -0.2822
  340MOL0     H45840  10.670   3.263   2.826 -0.1741 -0.5819  0.4730
  340MOL0     H45841  10.630   3.256   3.121  0.6796  1.4134 -0.2802
  340MOL0     H45842  10.597   3.126   3.004  1.5880  0.1773 -4.1561
  340MOL0     H45843  10.836   3.152   2.938 -2.0659 -0.4441 -0.3867
  340MOL0     H45844  10.861   3.272   3.072 -1.0326  0.1110  0.9252
  340MOL0     H45845  10.791   3.093   3.229  0.0189  2.5088 -0.9763
  340MOL0     H45846  10.790   2.978   3.099  1.4973  0.8275 -2.5919
  340MOL0     H45847  11.027   3.154   3.161 -1.4747  0.9960 -0.5053
  340MOL0     H45848  11.031   2.998   3.070  2.2409  0.2122  1.9285
  340MOL0     H45849  11.031   3.035   3.369  2.2040  0.6626 -0.2924
  340MOL0     H45850  10.960   2.885   3.299  0.4979 -1.0522  1.7763
  340MOL0     H45851  11.301   3.101   3.323  0.1163 -0.1648 -0.3139
  340MOL0     H45852  11.578   2.885   3.185 -0.7033 -1.4172  1.3068
  340MOL0     H45853  11.516   3.042   3.145 -2.0965 -2.6778 -0.7389
  340MOL0     H45854  11.580   3.147   3.339 -0.8878  0.4735  2.5930
  340MOL0     H45855  11.538   3.007   3.437  1.0191  1.4732 -0.1585
  340MOL0     H45856  11.783   3.059   3.280  0.2199  0.2898  0.4498
  340MOL0     H45857  11.750   2.894   3.334 -5.1899 -0.9909  0.3771
  340MOL0     H45858  11.743   2.976   3.568 -2.3407 -1.3827 -2.3528
  340MOL0     H45859  11.774   3.142   3.505 -0.8879  0.2587 -1.6778
  340MOL0     H45860  12.172   2.884   3.461  0.4790  0.1616 -1.2697
  340MOL0     H45861  12.346   2.922   3.633  0.4307  0.1904 -0.9503
  340MOL0     H45862  12.429   3.331   4.011  0.1532  0.2260  0.0501
  340MOL0     H45863  12.589   3.381   4.161 -2.2303  1.1619 -0.5406
  340MOL0     H45864  12.658   3.104   4.516 -1.1986  4.2549  0.7089
  340MOL0     H45865  12.774   3.060   4.381 -0.0314 -0.9472  1.0375
  340MOL0     H45866  12.922   3.224   4.438 -0.0775 -0.3891 -0.7876
  340MOL0     H45867  12.800   3.313   4.533  0.2507  0.1833  2.0357
  340MOL0     H45868  12.809   3.105   4.697  0.4299  0.0347  0.1724
  340MOL0     H45869  12.969   3.082   4.610  2.4870  3.4627 -1.1887
  340MOL0     H45870  12.896   3.335   4.760 -2.5440 -2.3850  2.6303
  340MOL0     H45871  13.055   3.285   4.685 -0.7368 -0.0714 -2.0761
  340MOL0     H45872  13.052   3.090   4.845 -1.9560 -0.1972 -2.2415
  340MOL0     H45873  12.904   3.152   4.913 -0.3024  1.4501 -0.0084
  340MOL0     H45874  13.003   3.354   4.992  0.5025  0.0838 -0.1104
  340MOL0     H45875  13.083   3.201   5.059 -0.6317 -1.9180 -2.3992
  340MOL0     H45876  13.211   3.372   4.829 -0.6721  0.6403  0.4668
  340MOL0     H45877  13.277   3.224   4.899  0.1320  0.1599 -3.5381
  340MOL0     H45878  13.229   3.500   5.025 -0.1236  0.2429  0.2469
  340MOL0     H45879  13.265   3.356   5.119 -1.5445 -0.8704 -0.8223
  340MOL0     H45880  12.556   2.986   4.338 -2.3436  1.9087  2.8074
  340MOL0     H45881  12.400   2.926   4.132 -0.7649  0.6919 -1.3262
  340MOL0     H45882  12.056   3.094   3.903 -1.2202  2.2497 -1.2386
  340MOL0     H45883  11.885   3.092   3.723 -0.7132  1.0696 -3.9645
  340MOL0     H45884  10.280   3.425   2.610  0.2923  0.1161 -2.2271
  340MOL0     H45885  10.151   3.528   2.424 -1.2657  0.2017 -0.6545
  340MOL0     H45886   9.992   3.939   2.247 -0.1742  1.6975  1.5168
  340MOL0     H45887   9.842   3.965   2.029  2.8424  3.2827  1.0481
  340MOL0     H45888   9.575   4.163   2.064  1.2257 -0.7130 -2.0880
  340MOL0     H45889   9.465   4.050   2.154  1.4475  1.0561  0.1354
  340MOL0     H45890   9.464   4.091   1.852  0.5111 -0.9528  1.2033
  340MOL0     H45891   9.347   4.177   1.956  0.8629  1.6259 -2.1313
  340MOL0     H45892   9.323   3.923   2.050  1.9688 -2.0005 -1.1862
  340MOL0     H45893   9.353   3.896   1.876  1.2223 -0.3326  0.7648
  340MOL0     H45894   9.175   4.045   1.814  2.2262  1.2634  0.3571
  340MOL0     H45895   9.134   3.898   1.918 -0.5052  0.2369  1.0054
  340MOL0     H45896   9.015   4.235   2.154 -3.6609 -1.9241  0.7515
  340MOL0     H45897   9.517   3.819   2.242  1.0976  0.3877 -2.0786
  340MOL0     H45898   9.716   3.648   2.481 -0.8649 -0.4029  2.4627
  340MOL0     H45899   9.622   3.781   2.552  0.0802 -1.1892  0.0150
  340MOL0     H45900   9.552   3.674   2.428  1.4909 -1.2571 -3.2694
  341MOL0     O45901   4.571   8.314  10.619 -0.0449  0.2057  0.0924
  341MOL0     C45902   4.464   8.280  10.576 -0.4051 -0.0189  0.2835
  341MOL0     O45903   4.445   8.239  10.448  0.2438 -0.4129 -0.2653
  341MOL0     C45904   4.537   8.212  10.347  0.4710 -0.5598  0.0328
  341MOL0     C45905   4.503   8.116  10.256 -0.9577  0.1807 -0.8045
  341MOL0     C45906   4.596   8.077  10.154 -0.5650  0.2301 -0.4021
  341MOL0     C45907   4.728   8.138  10.150 -0.4171  0.2058 -0.0562
  341MOL0     O45908   4.826   8.126  10.052 -0.1039  0.3095  0.0404
  341MOL0     C45909   4.818   8.015   9.955  0.2625 -0.1553  0.3902
  341MOL0     C45910   4.940   8.015   9.865 -0.4168  0.5167  0.2442
  341MOL0     C45911   5.075   8.044   9.934 -0.0802 -0.2802  0.2640
  341MOL0     C45912   5.199   8.025   9.855 -0.4224  0.3803  0.5140
  341MOL0     C45913   5.318   8.025   9.950  0.2749 -0.3658 -0.8367
  341MOL0     C45914   5.339   8.152  10.041  0.6388 -0.1329  0.0027
  341MOL0     C45915   5.436   8.159  10.155  0.6020  0.2003 -0.6018
  341MOL0     C45916   5.576   8.104  10.129  0.1708  0.4600  0.8136
  341MOL0     N45917   5.643   8.166  10.012 -0.6177  0.4388  0.3164
  341MOL0     C45918   5.667   8.306   9.983  0.3846  0.8523  0.3734
  341MOL0     C45919   5.745   8.309   9.873 -0.5040  0.0837 -0.0863
  341MOL0     C45920   5.786   8.434   9.818  0.3308 -1.3765 -0.5586
  341MOL0     C45921   5.930   8.436   9.743 -0.7308  0.3493  0.3193
  341MOL0     C45922   6.033   8.390   9.846 -0.1408 -0.2200  0.5412
  341MOL0     C45923   6.160   8.365   9.769 -0.7636  0.0920 -0.0136
  341MOL0     O45924   6.259   8.340   9.865  0.3192  0.4632 -0.1618
  341MOL0     C45925   6.374   8.263   9.832  0.3489  0.0944  0.4793
  341MOL0     C45926   6.427   8.265   9.704  0.6286  0.2829  0.3269
  341MOL0     C45927   6.544   8.203   9.681 -0.2687  0.4927  0.9427
  341MOL0     C45928   6.626   8.145   9.775 -0.5987 -0.5936 -0.0089
  341MOL0     C45929   6.749   8.067   9.745 -1.0222  0.3832  0.4542
  341MOL0     O45930   6.785   8.059   9.614 -0.1688  0.1671 -0.1255
  341MOL0     C45931   6.900   7.996   9.574 -0.5270 -0.5596  0.4637
  341MOL0     C45932   6.891   7.945   9.447  0.7807  0.4208 -0.2155
  341MOL0     C45933   6.997   7.874   9.392  0.1915 -0.3065  0.1959
  341MOL0     C45934   7.117   7.856   9.465 -0.7188 -0.3289 -0.3756
  341MOL0     O45935   7.206   7.761   9.421  0.9258  0.4403  0.1618
  341MOL0     C45936   7.334   7.759   9.477  0.4071  0.0729  0.0486
  341MOL0     C45937   7.436   7.664   9.408  0.4551  0.2233  0.8174
  341MOL0     C45938   7.454   7.697   9.256 -0.5042  0.5682 -0.7795
  341MOL0     C45939   7.532   7.589   9.182 -0.9182  0.2282 -0.8595
  341MOL0     C45940   7.685   7.611   9.168  0.7778 -0.0140 -0.5782
  341MOL0     C45941   7.761   7.499   9.089  0.3531  0.1112 -0.0751
  341MOL0     C45942   7.885   7.558   9.012  0.0104 -1.2183 -0.1389
  341MOL0     C45943   8.012   7.548   9.094 -0.3247  0.2380 -0.3979
  341MOL0    Cl45944   8.013   7.628   9.259 -0.7073 -0.0626  0.1334
  341MOL0     C45945   7.124   7.913   9.597  0.5664 -0.4689  0.4778
  341MOL0     C45946   7.013   7.982   9.652  0.0723  0.1377  0.2133
  341MOL0     O45947   6.795   7.994   9.835  0.5360 -0.7380 -0.3020
  341MOL0     C45948   6.573   8.148   9.910  0.0223  0.5343  0.1052
  341MOL0     C45949   6.449   8.208   9.938  0.2980 -0.1349  0.0821
  341MOL0     N45950   5.768   8.172   9.836  0.2640 -0.1091 -0.6958
  341MOL0     N45951   5.704   8.091   9.919  0.2152  1.0135 -0.8172
  341MOL0     C45952   4.748   8.241  10.247 -0.8704 -0.2340  0.4401
  341MOL0     C45953   4.658   8.279  10.346  0.2641 -0.2143 -0.3237
  341MOL0     C45954   4.349   8.275  10.672 -0.7629  1.1966  0.3195
  341MOL0     C45955   4.225   8.255  10.616 -0.3136  0.2692  0.4272
  341MOL0     C45956   4.107   8.269  10.681  0.7217  0.2637 -0.0222
  341MOL0     C45957   4.108   8.306  10.811 -0.3145  0.1973 -0.8446
  341MOL0     O45958   4.005   8.318  10.902  0.2949 -0.2182  0.1974
  341MOL0     C45959   3.867   8.319  10.845  0.3284  0.5974 -0.8223
  341MOL0     C45960   3.808   8.180  10.854  0.4793 -0.8050 -0.0883
  341MOL0     C45961   3.781   8.137  11.004  0.9227  0.0931 -0.9034
  341MOL0     C45962   3.671   8.208  11.068 -0.5085  0.4011  0.5209
  341MOL0     C45963   3.536   8.183  11.012  0.4448 -0.2548  0.0122
  341MOL0     C45964   3.432   8.172  10.958 -0.6778 -1.5236  0.1019
  341MOL0     C45965   4.233   8.319  10.875  0.2820 -0.8425 -0.6979
  341MOL0     C45966   4.359   8.303  10.812 -0.6807 -0.3024  0.2668
  341MOL0     C45967   4.494   8.329  10.893  0.1685 -1.1421 -0.4977
  341MOL0     H45968   4.405   8.069  10.253 -0.4135 -1.0211 -0.3222
  341MOL0     H45969   4.573   8.005  10.077  2.6211 -0.5023 -0.7911
  341MOL0     H45970   4.825   7.925  10.018  0.8217 -0.0779  0.4502
  341MOL0     H45971   4.720   8.021   9.908  0.4102  1.3245  0.2269
  341MOL0     H45972   4.933   8.076   9.774  1.1985 -0.4414 -0.5633
  341MOL0     H45973   4.947   7.909   9.841 -2.5772  0.4672 -0.3899
  341MOL0     H45974   5.092   7.984  10.024  3.3657 -0.4021 -0.3368
  341MOL0     H45975   5.072   8.147   9.971  1.2140 -0.2890  0.4230
  341MOL0     H45976   5.193   7.928   9.806 -0.5283  1.4555 -1.7077
  341MOL0     H45977   5.209   8.093   9.770  0.6917 -1.9141 -1.3134
  341MOL0     H45978   5.307   7.945  10.024  1.7685 -1.2216 -1.5033
  341MOL0     H45979   5.414   8.008   9.900 -0.3790  4.6664 -4.6092
  341MOL0     H45980   5.365   8.233   9.973 -1.9614  0.0432 -0.8863
  341MOL0     H45981   5.242   8.179  10.081  0.6749  0.6676 -0.4378
  341MOL0     H45982   5.394   8.116  10.247  0.7668 -0.8291 -0.9907
  341MOL0     H45983   5.454   8.265  10.174  2.0028 -0.3144  1.2034
  341MOL0     H45984   5.635   8.117  10.220  0.6274 -3.1750  1.1948
  341MOL0     H45985   5.572   7.997  10.107  0.6422  0.9793 -2.3465
  341MOL0     H45986   5.630   8.391  10.039  0.5080  1.3320 -0.2702
  341MOL0     H45987   5.715   8.458   9.739  0.0227 -6.2794 -2.1043
  341MOL0     H45988   5.792   8.510   9.897  1.0996 -1.1400 -0.8367
  341MOL0     H45989   5.921   8.367   9.658  2.7915  1.0194 -0.7673
  341MOL0     H45990   5.963   8.532   9.703  0.2300 -1.8500 -4.9655
  341MOL0     H45991   6.008   8.297   9.898 -0.2099  0.1745  1.2249
  341MOL0     H45992   6.045   8.473   9.916 -0.2981 -0.3917  0.7759
  341MOL0     H45993   6.196   8.444   9.703  0.3826 -0.4645 -0.0808
  341MOL0     H45994   6.156   8.273   9.710  1.1259  0.4415 -0.7365
  341MOL0     H45995   6.376   8.325   9.629 -0.1936 -0.4010  0.3268
  341MOL0     H45996   6.584   8.217   9.580  2.7364  1.5384  2.1604
  341MOL0     H45997   6.803   7.959   9.385  0.3583 -0.8184  0.0656
  341MOL0     H45998   6.998   7.836   9.291  0.8743  1.8638 -0.6606
  341MOL0     H45999   7.370   7.863   9.473 -1.6049  0.8840  1.1827
  341MOL0     H46000   7.335   7.723   9.580  2.8027  0.4132  0.2047
  341MOL0     H46001   7.532   7.660   9.461 -0.0416 -2.0688  1.6783
  341MOL0     H46002   7.395   7.563   9.418 -1.5319  1.0589  1.5108
  341MOL0     H46003   7.361   7.688   9.199 -1.4950  1.5201  0.6217
  341MOL0     H46004   7.499   7.797   9.247  1.6520 -0.2053  0.6384
  341MOL0     H46005   7.505   7.590   9.076  1.7109  1.1907 -1.6098
  341MOL0     H46006   7.508   7.485   9.204 -3.2351  0.3395 -2.5210
  341MOL0     H46007   7.723   7.607   9.271  0.4515 -0.5236 -0.4709
  341MOL0     H46008   7.699   7.709   9.123  0.3875 -0.3167 -1.3665
  341MOL0     H46009   7.795   7.429   9.165 -2.0873  0.8174  1.8022
  341MOL0     H46010   7.680   7.452   9.032 -0.2353 -0.8340  1.4882
  341MOL0     H46011   7.859   7.656   8.970  0.8663 -1.5401 -1.4714
  341MOL0     H46012   7.908   7.495   8.927 -1.0716 -1.2319 -0.4408
  341MOL0     H46013   8.051   7.447   9.104  1.1452  0.8491  0.2827
  341MOL0     H46014   8.089   7.600   9.036  1.2578 -1.4099  0.1370
  341MOL0     H46015   7.214   7.915   9.657 -0.3106  0.7539  1.8200
  341MOL0     H46016   7.019   8.018   9.754 -0.3114 -2.2946  1.1615
  341MOL0     H46017   6.617   8.086   9.988  0.1440 -0.7372 -0.9525
  341MOL0     H46018   6.414   8.208  10.041  0.9816  0.9497  0.3308
  341MOL0     H46019   4.847   8.285  10.239 -0.9242  0.0196  1.1756
  341MOL0     H46020   4.703   8.352  10.413 -0.2323  0.7745 -1.0411
  341MOL0     H46021   4.221   8.232  10.510 -2.9069 -1.1480  0.7548
  341MOL0     H46022   4.018   8.258  10.621  1.8712 -2.3193 -1.4085
  341MOL0     H46023   3.861   8.357  10.742 -3.3024 -2.0418 -1.7859
  341MOL0     H46024   3.812   8.401  10.892  0.4553  2.1512 -3.2017
  341MOL0     H46025   3.881   8.114  10.807  2.5435  1.5668 -0.4065
  341MOL0     H46026   3.711   8.181  10.803 -0.9910 -0.9278  2.5165
  341MOL0     H46027   3.871   8.156  11.064  0.4326 -0.9626  0.1817
  341MOL0     H46028   3.769   8.029  11.013  1.2884  0.2293  3.1310
  341MOL0     H46029   3.667   8.177  11.173  1.1457 -3.6538 -0.3969
  341MOL0     H46030   3.694   8.314  11.061  2.1039 -0.1548 -0.5735
  341MOL0     H46031   3.337   8.153  10.912 -0.2830  0.0197 -1.4546
  341MOL0     H46032   4.231   8.339  10.982 -3.8431 -0.7716 -0.6045
  341MOL0     H46033   4.567   8.249  10.881  1.3741 -0.2212  0.4497
  341MOL0     H46034   4.542   8.420  10.855  0.8828 -0.6639  1.4124
  341MOL0     H46035   4.462   8.333  10.997 -1.6288 -2.0841 -0.9684
  342MOL0     O46036   4.642   3.341   7.105 -0.0549  0.1461  0.1621
  342MOL0     C46037   4.564   3.303   7.022 -0.1218  0.2485 -0.5250
  342MOL0     O46038   4.593   3.232   6.907 -0.7028  0.4537 -0.6067
  342MOL0     C46039   4.718   3.195   6.875 -0.0321  1.0745 -0.0037
  342MOL0     C46040   4.837   3.266   6.898 -0.2148  0.3987  0.1861
  342MOL0     C46041   4.968   3.226   6.852  0.0768  0.1517  0.7623
  342MOL0     C46042   4.975   3.102   6.772 -0.2121 -0.0772  0.1398
  342MOL0     O46043   5.109   3.071   6.744  0.4065 -0.5516 -0.1190
  342MOL0     C46044   5.118   3.015   6.611  0.8089 -0.3953  0.1431
  342MOL0     C46045   5.257   3.023   6.559 -0.7506 -1.0919  0.0296
  342MOL0     C46046   5.314   2.889   6.519 -0.1684 -0.3579  0.4850
  342MOL0     C46047   5.444   2.894   6.428  0.4379  0.5862 -0.1392
  342MOL0     C46048   5.569   2.932   6.502  0.3491  0.0762 -0.1064
  342MOL0     C46049   5.685   2.965   6.414  0.7290 -0.5726 -0.2097
  342MOL0     C46050   5.774   2.837   6.425 -0.2819  0.3983 -0.9224
  342MOL0     C46051   5.885   2.830   6.316  0.2978  0.1641 -0.1230
  342MOL0     N46052   5.990   2.925   6.317 -0.3371 -0.1374  0.3792
  342MOL0     C46053   6.122   2.896   6.329 -0.5762 -0.0547  0.1613
  342MOL0     C46054   6.180   3.015   6.349  0.0026 -0.4650 -0.0088
  342MOL0     C46055   6.328   3.034   6.390  0.2849 -0.0537 -0.6059
  342MOL0     C46056   6.419   2.921   6.333  0.3907 -0.5096 -0.5087
  342MOL0     C46057   6.570   2.956   6.358 -0.3586  0.1766  0.1442
  342MOL0     C46058   6.632   3.059   6.253  0.8302 -0.4841 -0.2248
  342MOL0     O46059   6.644   3.007   6.124 -0.0942  0.4855  0.2188
  342MOL0     C46060   6.749   3.046   6.051  0.3355  0.0013  0.4810
  342MOL0     C46061   6.784   2.957   5.939  0.3245 -0.3603 -0.2669
  342MOL0     C46062   6.889   2.986   5.856 -0.5202  1.0208 -0.2118
  342MOL0     C46063   6.973   3.094   5.881  0.0339 -0.7505 -0.5550
  342MOL0     C46064   7.103   3.103   5.797  0.3582  0.0009 -0.5619
  342MOL0     O46065   7.124   3.010   5.694  0.2787  0.4824 -0.2780
  342MOL0     C46066   7.240   2.977   5.626 -0.4749  0.1644 -0.0542
  342MOL0     C46067   7.232   2.906   5.510  0.7586 -0.4980  0.3606
  342MOL0     C46068   7.340   2.875   5.431  0.0764  0.3101  0.6027
  342MOL0     C46069   7.463   2.921   5.452  0.3471  0.2330 -0.2961
  342MOL0     O46070   7.551   2.909   5.354 -0.0440  0.1225 -0.3445
  342MOL0     C46071   7.680   2.966   5.370 -0.1794 -0.3897 -0.4839
  342MOL0     C46072   7.773   2.934   5.258  0.5777 -0.0222  1.2897
  342MOL0     C46073   7.904   3.006   5.291 -0.5740 -0.6387  0.2705
  342MOL0     C46074   8.015   2.975   5.194  0.1306  0.1223  0.2328
  342MOL0     C46075   8.151   3.033   5.241  0.0590  0.2472  0.0456
  342MOL0     C46076   8.265   2.990   5.145 -0.6645 -1.0314 -0.6476
  342MOL0     C46077   8.391   3.083   5.154  0.1093  0.4519  0.0145
  342MOL0     C46078   8.504   3.037   5.063 -0.5545  0.0203 -0.9184
  342MOL0    Cl46079   8.646   3.136   5.085 -0.2665  0.2500  0.0799
  342MOL0     C46080   7.483   2.986   5.580  0.1509  0.9384 -0.7964
  342MOL0     C46081   7.371   3.016   5.661 -0.5361 -0.3056 -0.6530
  342MOL0     O46082   7.178   3.200   5.814 -0.0250 -0.3175  0.3307
  342MOL0     C46083   6.936   3.182   5.986 -0.2723  0.1149 -0.2615
  342MOL0     C46084   6.824   3.160   6.067  0.4457 -0.3123 -0.3953
  342MOL0     N46085   6.095   3.114   6.339  0.5309  0.5522  0.0649
  342MOL0     N46086   5.977   3.060   6.308 -0.2613 -0.0125 -0.7482
  342MOL0     C46087   4.860   3.029   6.751  0.0179 -0.1989 -0.0316
  342MOL0     C46088   4.730   3.079   6.796  0.2943  0.0501 -1.0246
  342MOL0     C46089   4.422   3.334   7.041 -0.2966 -0.8610 -0.9348
  342MOL0     C46090   4.394   3.449   7.123  0.0426  0.6542 -0.9909
  342MOL0     C46091   4.267   3.503   7.148 -0.7275  0.4646 -0.4450
  342MOL0     C46092   4.166   3.449   7.070  0.6456  0.0376  0.1460
  342MOL0     O46093   4.044   3.502   7.086  0.5175 -0.2212  0.1181
  342MOL0     C46094   3.928   3.435   7.045  0.2907  0.2553  1.1170
  342MOL0     C46095   3.803   3.497   7.123 -0.7883 -0.5065  1.1161
  342MOL0     C46096   3.681   3.442   7.067 -0.2513 -0.0819  0.4927
  342MOL0     C46097   3.565   3.422   7.169 -0.4911  0.2211  0.4908
  342MOL0     C46098   3.611   3.322   7.271  0.3591 -0.3491 -0.2786
  342MOL0     C46099   3.658   3.236   7.345 -0.3261  0.3704  0.7071
  342MOL0     C46100   4.189   3.339   6.985 -0.1033 -1.4100 -0.5114
  342MOL0     C46101   4.316   3.280   6.964  0.8281 -0.7357 -0.8530
  342MOL0     C46102   4.316   3.161   6.879  0.9690  0.1225 -0.2328
  342MOL0     H46103   4.828   3.354   6.962 -1.0867  1.4472 -1.3067
  342MOL0     H46104   5.059   3.276   6.880  1.0167  0.6601 -2.7292
  342MOL0     H46105   5.087   2.910   6.620 -3.6896  0.8717  1.8669
  342MOL0     H46106   5.053   3.062   6.536  1.8912  0.0933 -0.5116
  342MOL0     H46107   5.313   3.064   6.644 -0.6928 -3.3145  1.1328
  342MOL0     H46108   5.265   3.085   6.469  0.4469 -4.1335 -2.1272
  342MOL0     H46109   5.240   2.845   6.451  1.2253 -0.9603 -0.6932
  342MOL0     H46110   5.322   2.823   6.606  2.6763 -1.9594 -0.8420
  342MOL0     H46111   5.454   2.797   6.379 -1.3619 -0.7619  1.9803
  342MOL0     H46112   5.417   2.971   6.356  1.1935 -0.4605 -1.6056
  342MOL0     H46113   5.559   3.026   6.557  2.7298  0.7949 -0.8136
  342MOL0     H46114   5.590   2.851   6.573 -2.6868  0.0996  1.0048
  342MOL0     H46115   5.656   2.987   6.311  0.5077  0.1623  0.0020
  342MOL0     H46116   5.742   3.050   6.451  2.3356 -2.0117  0.8073
  342MOL0     H46117   5.715   2.745   6.418  0.5438 -0.0330 -2.4733
  342MOL0     H46118   5.823   2.840   6.523 -0.1750 -0.3834 -0.9443
  342MOL0     H46119   5.922   2.727   6.314  3.3928  1.1865 -1.1211
  342MOL0     H46120   5.830   2.835   6.222 -0.0076 -3.2804 -0.2634
  342MOL0     H46121   6.169   2.802   6.354  2.3331  0.3521 -3.0709
  342MOL0     H46122   6.364   3.128   6.348 -0.0422 -0.0157 -0.8095
  342MOL0     H46123   6.333   3.031   6.499 -0.0817  1.2516 -0.5301
  342MOL0     H46124   6.402   2.820   6.372  2.0808 -1.0552 -1.1002
  342MOL0     H46125   6.413   2.918   6.224  1.3246  1.0534 -0.6344
  342MOL0     H46126   6.626   2.863   6.346  0.4659  0.3346  2.2299
  342MOL0     H46127   6.581   2.989   6.461 -2.7887 -0.2776  0.6080
  342MOL0     H46128   6.724   3.097   6.298  1.6654 -1.0799 -1.3572
  342MOL0     H46129   6.569   3.149   6.250  1.7858  0.2953  1.5802
  342MOL0     H46130   6.731   2.865   5.916 -0.0846 -0.1959  0.0014
  342MOL0     H46131   6.898   2.921   5.770 -3.7136  1.2661 -0.8773
  342MOL0     H46132   7.137   2.864   5.477  1.0645 -0.5746 -0.4611
  342MOL0     H46133   7.332   2.819   5.338 -1.2700  0.4463  0.6131
  342MOL0     H46134   7.670   3.074   5.389 -3.0838 -1.1667  4.0002
  342MOL0     H46135   7.736   2.921   5.453 -1.1494  1.1107  1.0737
  342MOL0     H46136   7.789   2.826   5.267 -0.3550 -0.2688  0.2066
  342MOL0     H46137   7.732   2.951   5.158 -2.1408 -1.7116  1.9885
  342MOL0     H46138   7.890   3.115   5.286 -0.2859 -0.5888  0.5739
  342MOL0     H46139   7.943   2.983   5.390  1.4763  0.2915 -0.2540
  342MOL0     H46140   7.984   3.013   5.096  0.9551  0.5735  0.1405
  342MOL0     H46141   8.039   2.868   5.198 -0.1183  0.1008  3.0239
  342MOL0     H46142   8.167   3.009   5.346 -0.6291  1.9468  0.5791
  342MOL0     H46143   8.141   3.142   5.245  1.8313  0.4042  1.5085
  342MOL0     H46144   8.295   2.891   5.180  2.2897  0.2268  0.7211
  342MOL0     H46145   8.239   2.974   5.039 -0.1786 -2.9489 -0.5184
  342MOL0     H46146   8.430   3.069   5.255 -2.5558 -0.9352  0.9372
  342MOL0     H46147   8.364   3.183   5.118 -3.1426 -0.4826 -0.4518
  342MOL0     H46148   8.524   2.933   5.091 -1.0140  1.0776  4.5932
  342MOL0     H46149   8.482   3.021   4.957 -0.4148  0.2827 -0.9881
  342MOL0     H46150   7.583   3.011   5.612  0.0610 -1.0033  1.2488
  342MOL0     H46151   7.386   3.082   5.747 -0.2287  0.0081 -0.9421
  342MOL0     H46152   6.994   3.267   6.020 -4.0695  2.6308  0.5419
  342MOL0     H46153   6.810   3.246   6.132 -1.3061 -0.0562 -1.0773
  342MOL0     H46154   4.866   2.931   6.705  1.5036 -1.3170  2.3411
  342MOL0     H46155   4.636   3.029   6.777 -0.9889  1.4850  1.1873
  342MOL0     H46156   4.474   3.501   7.175 -0.4772  0.3575  0.1375
  342MOL0     H46157   4.259   3.586   7.219 -1.1239 -0.8290  1.0852
  342MOL0     H46158   3.928   3.328   7.064 -0.8677  0.4370  2.3431
  342MOL0     H46159   3.922   3.455   6.937  1.7507 -0.9047  0.8003
  342MOL0     H46160   3.793   3.604   7.104 -2.5579 -0.9356 -0.7543
  342MOL0     H46161   3.818   3.466   7.227 -3.9653 -1.0675  1.5307
  342MOL0     H46162   3.699   3.345   7.021 -1.2281 -0.0463 -0.0122
  342MOL0     H46163   3.645   3.508   6.987 -1.3109 -1.4004 -0.1484
  342MOL0     H46164   3.525   3.517   7.205 -1.8307 -0.2296  0.2503
  342MOL0     H46165   3.483   3.375   7.114  0.6346  0.8124 -1.7953
  342MOL0     H46166   3.678   3.160   7.418  0.6156 -0.7217 -0.6349
  342MOL0     H46167   4.101   3.290   6.945 -0.9161 -2.7360  2.5554
  342MOL0     H46168   4.389   3.086   6.913  1.1986  0.5043  0.1388
  342MOL0     H46169   4.217   3.117   6.867  0.0710  1.1193  2.6820
  342MOL0     H46170   4.353   3.197   6.783  3.8183  0.2141  0.8034
  343MOL0     O46171   0.720   1.475   3.143  0.7651  0.1885  0.3734
  343MOL0     C46172   0.707   1.593   3.135  0.1585  0.2728 -0.0161
  343MOL0     O46173   0.816   1.672   3.112 -0.0448 -0.3765 -0.0456
  343MOL0     C46174   0.944   1.623   3.106 -0.6789 -0.2727 -0.0405
  343MOL0     C46175   1.035   1.679   3.016 -0.1019  0.2735  0.7285
  343MOL0     C46176   1.171   1.635   2.999 -0.4788 -1.4628  0.3147
  343MOL0     C46177   1.224   1.553   3.095 -1.1806  0.0087 -0.0500
  343MOL0     O46178   1.359   1.527   3.087  0.1488  0.4790  0.1996
  343MOL0     C46179   1.421   1.464   3.204  0.0141  0.0499 -0.4652
  343MOL0     C46180   1.564   1.491   3.185  0.4830 -1.4849  0.2304
  343MOL0     C46181   1.609   1.444   3.046  0.8181  0.6608  0.2540
  343MOL0     C46182   1.746   1.378   3.051  0.1183 -0.6278 -0.4904
  343MOL0     C46183   1.800   1.306   3.174  0.8316  0.7011 -0.1681
  343MOL0     C46184   1.895   1.192   3.146 -0.4845  0.1416 -0.0070
  343MOL0     C46185   2.023   1.228   3.065 -0.6680 -0.1568 -0.3465
  343MOL0     C46186   2.126   1.277   3.165 -0.2292 -0.2914 -0.0046
  343MOL0     N46187   2.243   1.321   3.107 -0.3731 -0.1254  0.4039
  343MOL0     C46188   2.368   1.282   3.134 -0.5433  0.8906 -0.1102
  343MOL0     C46189   2.448   1.373   3.067  0.3003 -0.5695 -0.1924
  343MOL0     C46190   2.591   1.357   3.053  0.9912  0.0643 -0.5427
  343MOL0     C46191   2.648   1.452   3.153 -1.4404  0.1046  0.5659
  343MOL0     C46192   2.663   1.600   3.125 -0.4748 -0.0797  0.0432
  343MOL0     C46193   2.730   1.641   2.988  0.3400 -0.0607 -0.2876
  343MOL0     O46194   2.873   1.624   2.998  0.3903  0.4589  0.4090
  343MOL0     C46195   2.961   1.725   3.041 -0.0315  0.4578  0.1398
  343MOL0     C46196   3.103   1.711   3.014  0.3063  0.3854 -0.9837
  343MOL0     C46197   3.186   1.813   3.057  0.6264  0.4025  0.3914
  343MOL0     C46198   3.142   1.934   3.113  0.5096 -0.0088  0.5197
  343MOL0     C46199   3.238   2.047   3.124  0.4409 -0.6753  0.8050
  343MOL0     O46200   3.200   2.140   3.212  0.6580 -0.0378 -0.7581
  343MOL0     C46201   3.292   2.243   3.245  0.4516  0.3853 -0.2688
  343MOL0     C46202   3.261   2.378   3.221 -0.3575  1.2052 -1.3801
  343MOL0     C46203   3.348   2.473   3.278  0.1529  0.4310  0.5058
  343MOL0     C46204   3.469   2.436   3.338 -0.8740 -0.1037 -0.5940
  343MOL0     O46205   3.553   2.534   3.379  0.3653 -0.6474  0.1212
  343MOL0     C46206   3.696   2.519   3.363  0.3965  0.7643 -0.1141
  343MOL0     C46207   3.757   2.649   3.376 -0.9712 -0.6652  0.4640
  343MOL0     C46208   3.900   2.635   3.317 -0.9797 -0.5249 -0.2490
  343MOL0     C46209   3.986   2.771   3.300  0.9572  1.2757  0.8856
  343MOL0     C46210   3.934   2.863   3.193 -0.5404  0.5377 -0.0105
  343MOL0     C46211   4.052   2.951   3.140 -0.5003  0.0158  0.3065
  343MOL0     C46212   4.114   3.028   3.252 -0.5913 -0.2603  0.4066
  343MOL0     C46213   4.203   3.138   3.183  0.0460  1.0037 -0.6081
  343MOL0    Cl46214   4.319   3.057   3.074  0.1504  0.2823  0.0070
  343MOL0     C46215   3.496   2.302   3.367 -0.7793  0.2009  0.3235
  343MOL0     C46216   3.405   2.210   3.320  0.4231 -0.7215 -0.1997
  343MOL0     O46217   3.356   2.034   3.081 -0.5520  0.6896 -0.3302
  343MOL0     C46218   3.003   1.953   3.124 -0.2210  0.3658  0.2438
  343MOL0     C46219   2.912   1.847   3.104  0.6491 -0.2051 -0.6706
  343MOL0     N46220   2.363   1.454   2.994 -0.1998  0.5882  0.3316
  343MOL0     N46221   2.247   1.426   3.027  0.1468  0.1989  0.3070
  343MOL0     C46222   1.133   1.492   3.178  0.1010  0.8204  0.2767
  343MOL0     C46223   0.993   1.521   3.188 -0.1341 -1.0527  0.1422
  343MOL0     C46224   0.573   1.654   3.153  0.0611 -0.4436  0.1231
  343MOL0     C46225   0.551   1.779   3.091 -0.7658  0.3260  0.4390
  343MOL0     C46226   0.418   1.838   3.082 -0.1012  0.5736 -0.2467
  343MOL0     C46227   0.315   1.783   3.155  0.6912  0.8155 -0.0551
  343MOL0     O46228   0.199   1.859   3.155 -0.2319  0.6266 -0.8463
  343MOL0     C46229   0.076   1.790   3.151 -0.1567  0.2820 -0.1525
  343MOL0     C46230  -0.038   1.891   3.145  0.0415 -0.0972 -0.1193
  343MOL0     C46231  -0.031   1.974   3.011  0.5344 -0.1101  0.1015
  343MOL0     C46232  -0.135   2.080   3.002 -0.2145 -0.1713  1.4308
  343MOL0     C46233  -0.272   2.028   3.004 -0.2235  0.1429  0.5381
  343MOL0     C46234  -0.377   1.978   2.992  0.9720 -0.6160  0.2558
  343MOL0     C46235   0.331   1.663   3.221  0.3214 -0.0067  0.4015
  343MOL0     C46236   0.452   1.595   3.212  0.4197 -0.4825 -0.0519
  343MOL0     C46237   0.449   1.446   3.260 -0.0420 -0.6625 -0.6519
  343MOL0     H46238   1.006   1.754   2.943  0.9164  0.3931  0.4299
  343MOL0     H46239   1.246   1.671   2.930 -0.5008 -1.8148  0.1070
  343MOL0     H46240   1.386   1.512   3.295  0.7980  0.2120 -0.2370
  343MOL0     H46241   1.404   1.356   3.214  0.1848  0.0132 -0.5606
  343MOL0     H46242   1.610   1.448   3.274  2.0529  3.1103  1.9361
  343MOL0     H46243   1.582   1.599   3.188  0.9826 -1.5696  0.4129
  343MOL0     H46244   1.610   1.533   2.981  0.9103  2.5846  2.7511
  343MOL0     H46245   1.536   1.374   3.004 -0.5741  1.9024  0.5023
  343MOL0     H46246   1.764   1.315   2.963  3.4508 -0.2793 -0.2052
  343MOL0     H46247   1.816   1.460   3.037  1.3784 -1.4471  0.6735
  343MOL0     H46248   1.848   1.386   3.231 -2.0123  2.8873 -0.5820
  343MOL0     H46249   1.724   1.267   3.242  1.3035  2.0027  1.1729
  343MOL0     H46250   1.923   1.145   3.241  3.1674  3.3538  0.7281
  343MOL0     H46251   1.845   1.112   3.090 -0.6629 -0.4861  1.0229
  343MOL0     H46252   1.999   1.298   2.985  4.2434  1.2225 -0.9252
  343MOL0     H46253   2.058   1.138   3.014 -1.6740 -0.0479 -1.2749
  343MOL0     H46254   2.083   1.362   3.219  0.7497  1.0873 -1.2916
  343MOL0     H46255   2.141   1.196   3.237  0.0965 -1.8393 -1.7233
  343MOL0     H46256   2.381   1.188   3.186 -1.9202  0.0106 -1.2877
  343MOL0     H46257   2.618   1.254   3.080  2.7931  0.8179  0.6328
  343MOL0     H46258   2.613   1.384   2.949 -0.3205 -0.8001 -1.0823
  343MOL0     H46259   2.606   1.432   3.252 -0.3666  0.5716  1.1247
  343MOL0     H46260   2.752   1.418   3.156 -2.5531 -3.9689  0.1217
  343MOL0     H46261   2.716   1.653   3.204  1.1774 -1.6103  0.0427
  343MOL0     H46262   2.560   1.637   3.129 -1.0790 -1.7522  2.7739
  343MOL0     H46263   2.703   1.745   2.964 -1.6612 -0.5584 -0.3621
  343MOL0     H46264   2.681   1.575   2.916  0.7505  0.0168 -0.6448
  343MOL0     H46265   3.147   1.625   2.963 -1.3537  0.3686 -2.4917
  343MOL0     H46266   3.292   1.800   3.041  0.1427 -1.9666 -1.5317
  343MOL0     H46267   3.171   2.409   3.170 -2.5253  0.1864  1.6014
  343MOL0     H46268   3.325   2.578   3.260  1.2298  0.6115  0.0468
  343MOL0     H46269   3.731   2.457   3.447 -1.6360  0.8959  0.8814
  343MOL0     H46270   3.726   2.460   3.276  0.8784  1.5156 -0.4665
  343MOL0     H46271   3.697   2.727   3.329  1.8849  1.9181  0.7563
  343MOL0     H46272   3.769   2.701   3.472  1.2924  1.2336 -0.7331
  343MOL0     H46273   3.959   2.568   3.379 -0.2904  0.5011  0.2409
  343MOL0     H46274   3.885   2.582   3.222  0.0922  0.0807 -0.7792
  343MOL0     H46275   4.088   2.742   3.273  0.8933  1.6103  0.2788
  343MOL0     H46276   3.990   2.840   3.385 -0.6043  2.3877  0.0900
  343MOL0     H46277   3.858   2.932   3.232  1.7503  2.2615  1.6532
  343MOL0     H46278   3.900   2.802   3.109  0.7205 -0.1261 -0.0575
  343MOL0     H46279   4.117   2.889   3.078 -1.0510  1.6743 -2.0455
  343MOL0     H46280   4.012   3.026   3.072 -0.9859  1.8975  2.5310
  343MOL0     H46281   4.188   2.969   3.306  1.7329  2.3798  0.3556
  343MOL0     H46282   4.047   3.086   3.317  0.8691  0.7931  1.0378
  343MOL0     H46283   4.143   3.214   3.131 -1.5827 -2.0162 -3.5020
  343MOL0     H46284   4.254   3.190   3.265  0.9810 -1.2694  0.3278
  343MOL0     H46285   3.579   2.267   3.426 -1.5903 -1.2839  0.6399
  343MOL0     H46286   3.440   2.108   3.333  1.8490 -0.2159  0.2277
  343MOL0     H46287   2.958   2.030   3.187 -1.2023 -0.4317  0.5508
  343MOL0     H46288   2.806   1.845   3.126  1.0782  0.4052  1.6565
  343MOL0     H46289   1.166   1.408   3.239 -0.4390  0.9146  0.7131
  343MOL0     H46290   0.933   1.465   3.259  2.3560 -2.3369  1.3947
  343MOL0     H46291   0.626   1.824   3.026 -0.6877 -2.1117 -1.2982
  343MOL0     H46292   0.418   1.929   3.024  0.4627 -0.4917 -2.0038
  343MOL0     H46293   0.069   1.732   3.243 -1.5479 -0.6878 -0.8234
  343MOL0     H46294   0.073   1.729   3.060  0.9035  0.0786 -0.0624
  343MOL0     H46295  -0.037   1.948   3.238 -0.5429 -1.8380  1.0005
  343MOL0     H46296  -0.132   1.835   3.147 -0.2097  0.3346  0.3587
  343MOL0     H46297  -0.043   1.912   2.922 -0.8858  2.4757 -1.6582
  343MOL0     H46298   0.065   2.027   3.012  0.2928  0.3395  1.1413
  343MOL0     H46299  -0.108   2.146   3.085  3.3525  0.4516 -0.0318
  343MOL0     H46300  -0.120   2.141   2.912 -0.1268 -0.9688  0.8908
  343MOL0     H46301  -0.474   1.933   2.999  0.5767  0.3040  0.8592
  343MOL0     H46302   0.254   1.613   3.279 -0.2584 -0.3055 -0.5967
  343MOL0     H46303   0.446   1.378   3.175  2.8832  0.0605 -1.4690
  343MOL0     H46304   0.536   1.416   3.320 -1.4549  0.3438  2.0743
  343MOL0     H46305   0.358   1.424   3.316 -1.5377 -0.0982 -2.7495
  344MOL0     O46306   6.588   5.216   6.023 -0.3775  0.1196 -0.6943
  344MOL0     C46307   6.494   5.239   5.950 -0.4872 -0.1331  0.3665
  344MOL0     O46308   6.492   5.239   5.815 -0.3559 -0.6010 -0.1190
  344MOL0     C46309   6.615   5.255   5.757  1.0801  0.4725 -0.3929
  344MOL0     C46310   6.677   5.142   5.695  0.6030  0.4753  0.1727
  344MOL0     C46311   6.804   5.166   5.635  0.1865  0.3008 -1.2909
  344MOL0     C46312   6.870   5.295   5.645  0.5046  0.1411  0.5523
  344MOL0     O46313   6.991   5.309   5.590 -0.3531 -0.2634 -0.2830
  344MOL0     C46314   7.025   5.446   5.561 -0.4627 -0.2776 -0.4206
  344MOL0     C46315   7.158   5.436   5.483  0.5863 -0.3720  0.2028
  344MOL0     C46316   7.230   5.567   5.449  0.2177  0.3719  0.5389
  344MOL0     C46317   7.344   5.523   5.351  0.5863 -0.3000 -0.2116
  344MOL0     C46318   7.467   5.619   5.368 -0.6119 -0.1728 -0.0660
  344MOL0     C46319   7.599   5.567   5.318  0.3087 -0.3612  0.1300
  344MOL0     C46320   7.719   5.654   5.351  0.2097 -0.5754  0.4840
  344MOL0     C46321   7.850   5.590   5.296  0.1202  0.8312 -0.1526
  344MOL0     N46322   7.968   5.677   5.287  0.1530  0.0821  0.1588
  344MOL0     C46323   7.963   5.817   5.271  0.3779  0.5990  0.2826
  344MOL0     C46324   8.095   5.845   5.244  0.4510 -0.2184 -0.9528
  344MOL0     C46325   8.155   5.984   5.227 -0.0272 -0.4170 -0.4263
  344MOL0     C46326   8.179   6.030   5.081 -0.0620  0.4983  0.1679
  344MOL0     C46327   8.248   5.924   4.997 -0.7728  0.0360  0.6340
  344MOL0     C46328   8.386   5.881   5.047 -0.1180 -0.0218  0.0922
  344MOL0     O46329   8.476   5.988   5.077  0.4461 -0.5171  0.0921
  344MOL0     C46330   8.604   5.953   5.062  0.1811 -0.5426  0.5839
  344MOL0     C46331   8.693   6.054   5.011 -0.0041  0.5780 -0.6576
  344MOL0     C46332   8.833   6.009   5.010 -0.2181 -0.1714 -0.7209
  344MOL0     C46333   8.883   5.885   5.063 -0.6907  0.6563  0.9703
  344MOL0     C46334   9.021   5.832   5.059  0.2436  0.1923 -0.0466
  344MOL0     O46335   9.107   5.934   5.087 -0.3080  0.5760 -0.5520
  344MOL0     C46336   9.241   5.903   5.089 -0.7938 -0.1083 -0.4896
  344MOL0     C46337   9.308   5.850   4.978  0.6147 -0.5192 -0.1556
  344MOL0     C46338   9.442   5.818   4.991  0.6577 -0.1727 -0.8530
  344MOL0     C46339   9.516   5.850   5.102  0.3808  0.3416  0.6077
  344MOL0     O46340   9.654   5.835   5.107 -0.2985 -0.1289 -0.7204
  344MOL0     C46341   9.724   5.780   4.995 -0.4721 -0.1562  0.5804
  344MOL0     C46342   9.862   5.725   5.030 -0.2898 -0.4478  0.6209
  344MOL0     C46343   9.977   5.816   5.078  0.4993  0.6794 -0.4977
  344MOL0     C46344  10.110   5.744   5.086  0.0886  0.0125 -0.1705
  344MOL0     C46345  10.216   5.828   5.148  0.5073 -0.2199  0.1658
  344MOL0     C46346  10.344   5.748   5.127  1.0061 -0.4350 -0.6588
  344MOL0     C46347  10.466   5.822   5.178  0.8956 -0.0876  0.6416
  344MOL0     C46348  10.498   5.960   5.108  0.6515  0.3534 -0.1629
  344MOL0    Cl46349  10.412   6.108   5.181 -0.3984  0.1032  0.0153
  344MOL0     C46350   9.452   5.895   5.213 -0.2488  0.3660 -0.4193
  344MOL0     C46351   9.316   5.928   5.201 -0.0675  0.1670 -0.5172
  344MOL0     O46352   9.044   5.709   5.043 -1.2758  0.6663 -0.2109
  344MOL0     C46353   8.785   5.800   5.113  0.4554 -0.5472  0.6679
  344MOL0     C46354   8.644   5.830   5.109 -0.5968 -0.3825  1.1674
  344MOL0     N46355   8.182   5.738   5.265  0.8264 -0.1338 -0.0108
  344MOL0     N46356   8.099   5.637   5.291  0.0239  0.4405 -0.1534
  344MOL0     C46357   6.802   5.401   5.706  0.4038  1.1183 -0.2345
  344MOL0     C46358   6.677   5.373   5.765  0.2867 -0.2155 -0.1520
  344MOL0     C46359   6.355   5.251   6.003  0.6174 -0.5083 -0.5247
  344MOL0     C46360   6.237   5.244   5.930 -0.4291  1.0260 -0.6520
  344MOL0     C46361   6.107   5.249   5.985 -0.1736 -0.0964 -0.2925
  344MOL0     C46362   6.101   5.270   6.124 -0.3121 -0.0507  0.2051
  344MOL0     O46363   5.982   5.258   6.177  0.7414 -0.2540  0.6200
  344MOL0     C46364   5.927   5.375   6.243 -0.2084  0.6589 -0.3127
  344MOL0     C46365   5.777   5.390   6.228  0.4657 -0.2658 -0.5843
  344MOL0     C46366   5.721   5.492   6.324 -0.5115  0.9294 -0.2173
  344MOL0     C46367   5.571   5.503   6.330  0.0559  0.3800  0.0380
  344MOL0     C46368   5.515   5.535   6.193  0.7707 -1.1510 -0.4253
  344MOL0     C46369   5.456   5.567   6.091 -0.8289  0.2435  0.3930
  344MOL0     C46370   6.219   5.296   6.198  0.7667 -0.7445 -0.4078
  344MOL0     C46371   6.340   5.297   6.140 -1.1756  0.3512  0.0056
  344MOL0     C46372   6.448   5.352   6.222  0.2249  0.1213 -0.3199
  344MOL0     H46373   6.620   5.050   5.685  1.6538 -0.0801 -0.9139
  344MOL0     H46374   6.848   5.075   5.595 -2.4141 -1.3818 -0.5541
  344MOL0     H46375   6.946   5.502   5.509 -0.1533 -0.8501 -1.5316
  344MOL0     H46376   7.039   5.497   5.656 -1.0479  0.1397 -0.5506
  344MOL0     H46377   7.140   5.378   5.392 -2.5097  0.6562  0.0436
  344MOL0     H46378   7.224   5.379   5.549 -0.8858  0.0511  2.1167
  344MOL0     H46379   7.263   5.623   5.536 -2.1773  2.2521  0.3455
  344MOL0     H46380   7.166   5.641   5.400 -0.3123 -1.1353 -1.1712
  344MOL0     H46381   7.367   5.418   5.375  2.4230  0.6779  2.9829
  344MOL0     H46382   7.307   5.531   5.249  0.7054 -0.5982 -0.2782
  344MOL0     H46383   7.457   5.718   5.321  2.8546  2.5708  4.2012
  344MOL0     H46384   7.484   5.634   5.475 -0.7337 -1.8043  0.2112
  344MOL0     H46385   7.620   5.475   5.374  0.0775 -0.8733 -0.6028
  344MOL0     H46386   7.604   5.551   5.210 -2.6227  1.9850 -0.4843
  344MOL0     H46387   7.716   5.655   5.461 -3.4132 -2.5731  0.5927
  344MOL0     H46388   7.704   5.755   5.313 -0.1367 -1.3743 -1.6221
  344MOL0     H46389   7.865   5.495   5.347 -1.2319  0.8773  0.3522
  344MOL0     H46390   7.844   5.574   5.188  2.6485  2.3567 -0.6161
  344MOL0     H46391   7.872   5.873   5.294  0.0871  0.2569 -0.0241
  344MOL0     H46392   8.092   6.058   5.278  1.3021  0.5130 -0.0810
  344MOL0     H46393   8.255   5.992   5.270  0.3913 -2.7386 -0.8621
  344MOL0     H46394   8.090   6.060   5.025  1.7124  2.2395 -1.8750
  344MOL0     H46395   8.227   6.128   5.079 -1.0910  1.0142 -0.0615
  344MOL0     H46396   8.261   5.970   4.899  2.2114 -1.2916  0.3058
  344MOL0     H46397   8.191   5.836   4.964  0.2377  0.2023 -1.7042
  344MOL0     H46398   8.421   5.808   4.973 -1.1755  1.5992 -2.1474
  344MOL0     H46399   8.378   5.822   5.138 -1.5771 -2.2647 -1.3732
  344MOL0     H46400   8.649   6.151   4.992 -2.2141 -0.0537  0.7516
  344MOL0     H46401   8.905   6.080   4.970 -0.0628 -0.6165 -1.2439
  344MOL0     H46402   9.254   5.834   4.885 -1.8133 -3.1135  1.5265
  344MOL0     H46403   9.487   5.765   4.907  0.3166 -1.5129 -0.2146
  344MOL0     H46404   9.667   5.697   4.952  2.4976 -1.0751 -1.9501
  344MOL0     H46405   9.735   5.862   4.924  3.2984 -0.8287  0.1857
  344MOL0     H46406   9.847   5.646   5.104  0.9134  0.9975  2.4999
  344MOL0     H46407   9.900   5.695   4.932  0.3523  3.9388 -0.6738
  344MOL0     H46408   9.994   5.896   5.004  2.6073 -1.1205 -2.0888
  344MOL0     H46409   9.942   5.868   5.168  0.4621 -0.9354  0.4505
  344MOL0     H46410  10.142   5.715   4.986 -2.2045  0.3846 -1.0733
  344MOL0     H46411  10.085   5.647   5.130 -4.3516  1.0863  0.2107
  344MOL0     H46412  10.202   5.839   5.256  1.0356  1.2653  0.1084
  344MOL0     H46413  10.219   5.931   5.111  0.8328 -0.7170 -1.2506
  344MOL0     H46414  10.331   5.653   5.179 -0.9386  0.9107  1.5007
  344MOL0     H46415  10.368   5.723   5.023  1.6736 -0.3703 -0.5250
  344MOL0     H46416  10.543   5.745   5.168  1.1277  0.2895 -0.7027
  344MOL0     H46417  10.450   5.839   5.285  3.9361  0.7105  1.0596
  344MOL0     H46418  10.604   5.974   5.129  0.1435 -0.8806  4.3522
  344MOL0     H46419  10.480   5.943   5.002 -0.4537 -1.1554  0.2208
  344MOL0     H46420   9.508   5.914   5.304 -1.1730  0.3055  0.1709
  344MOL0     H46421   9.264   5.985   5.278  0.2425  1.1165 -0.9910
  344MOL0     H46422   8.815   5.702   5.151  0.1381 -0.6163  0.7385
  344MOL0     H46423   8.578   5.758   5.154 -0.6720  0.0258  1.7165
  344MOL0     H46424   6.846   5.499   5.720 -1.8081  2.2524 -0.7929
  344MOL0     H46425   6.630   5.453   5.820 -0.8487 -0.5762 -0.5577
  344MOL0     H46426   6.238   5.242   5.822 -0.5624  1.8933 -0.6765
  344MOL0     H46427   6.017   5.244   5.926  1.2638 -3.9338 -2.4897
  344MOL0     H46428   5.978   5.466   6.208  2.0042  0.1862  1.4664
  344MOL0     H46429   5.951   5.360   6.348 -1.6311  0.7654  0.0505
  344MOL0     H46430   5.738   5.295   6.265  3.1346 -1.7522 -1.3828
  344MOL0     H46431   5.749   5.406   6.123 -1.5750  0.3208 -0.0071
  344MOL0     H46432   5.770   5.588   6.306  1.1298 -0.2052 -2.2224
  344MOL0     H46433   5.744   5.452   6.423  0.9233  1.1670 -0.4329
  344MOL0     H46434   5.532   5.404   6.357  3.3717 -0.4160  2.4863
  344MOL0     H46435   5.552   5.584   6.401  2.8316 -0.7179  2.2123
  344MOL0     H46436   5.416   5.607   6.000  2.1026 -1.3698 -1.7908
  344MOL0     H46437   6.205   5.316   6.304  0.3709 -0.8060 -0.4463
  344MOL0     H46438   6.525   5.403   6.163  1.2386 -2.2690 -1.1958
  344MOL0     H46439   6.420   5.426   6.297 -0.3219  0.4583 -0.8424
  344MOL0     H46440   6.487   5.266   6.278  0.5670  2.0026  2.5023
  345MOL0     O46441   8.971   3.548   9.566 -0.2031  0.0298 -0.1586
  345MOL0     C46442   9.048   3.464   9.609  0.1370 -0.3389 -0.2470
  345MOL0     O46443   9.187   3.484   9.611  0.5275  0.0847 -0.0455
  345MOL0     C46444   9.234   3.605   9.568 -0.3116  0.1787  0.3077
  345MOL0     C46445   9.195   3.728   9.629  1.3115  0.1834  0.3400
  345MOL0     C46446   9.260   3.842   9.596  0.1318 -0.1846  0.1043
  345MOL0     C46447   9.361   3.840   9.501  0.1049  0.1249  0.6966
  345MOL0     O46448   9.415   3.963   9.463 -0.5478  0.2860 -0.2268
  345MOL0     C46449   9.545   3.979   9.516 -0.3421 -0.1249  0.0256
  345MOL0     C46450   9.608   4.112   9.450 -0.1460 -0.1967 -0.5844
  345MOL0     C46451   9.629   4.091   9.299  0.7306  0.6155  0.1420
  345MOL0     C46452   9.717   4.209   9.251 -0.2785  0.2676  0.4372
  345MOL0     C46453   9.758   4.189   9.107  0.5746 -0.3647  0.3855
  345MOL0     C46454   9.864   4.081   9.086  0.5372  0.2903 -0.1826
  345MOL0     C46455   9.883   4.046   8.938  0.5816  0.2297 -0.0716
  345MOL0     C46456   9.985   3.931   8.917 -0.3053  0.2486  0.4661
  345MOL0     N46457  10.114   3.959   8.974  0.5310  0.5127 -0.2795
  345MOL0     C46458  10.190   4.067   8.950  0.5026 -0.4060 -0.6783
  345MOL0     C46459  10.293   4.052   9.038  0.2924  0.2499  0.2546
  345MOL0     C46460  10.424   4.125   9.047 -1.1532 -0.6802 -0.4071
  345MOL0     C46461  10.525   4.092   8.933  0.0129  0.1767 -0.6859
  345MOL0     C46462  10.618   3.977   8.988  0.1098 -0.6859  0.0687
  345MOL0     C46463  10.738   4.024   9.071 -0.2397 -0.3824  0.3024
  345MOL0     O46464  10.799   3.913   9.136  0.4700  0.0906 -0.4283
  345MOL0     C46465  10.908   3.943   9.203  0.0005  0.1434  0.0308
  345MOL0     C46466  10.961   3.834   9.276 -0.2983  0.0587  0.0970
  345MOL0     C46467  11.070   3.857   9.363 -0.7065 -0.0839  0.2119
  345MOL0     C46468  11.124   3.986   9.384 -0.3648  0.2289 -0.5771
  345MOL0     C46469  11.248   4.005   9.465  0.8040 -0.0127 -0.4915
  345MOL0     O46470  11.328   4.114   9.434  0.4850 -0.4579  0.0161
  345MOL0     C46471  11.445   4.134   9.516  0.0679  0.3359  0.3395
  345MOL0     C46472  11.568   4.182   9.464 -0.2217 -0.0175 -0.3983
  345MOL0     C46473  11.677   4.191   9.553  0.1566  0.5913 -0.2535
  345MOL0     C46474  11.668   4.161   9.688 -0.5640 -0.0051  0.2927
  345MOL0     O46475  11.778   4.182   9.768  0.0119  0.5824 -0.1992
  345MOL0     C46476  11.826   4.053   9.817 -1.1672 -0.2364 -0.6951
  345MOL0     C46477  11.961   4.073   9.891 -0.5793 -0.3586  0.2117
  345MOL0     C46478  12.071   4.121   9.793 -0.4658 -0.3840 -0.6044
  345MOL0     C46479  12.204   4.106   9.863  0.3142  0.0950 -0.0053
  345MOL0     C46480  12.311   4.196   9.787 -0.0330 -0.8190  0.2651
  345MOL0     C46481  12.442   4.193   9.870 -0.2009 -0.0044 -0.4442
  345MOL0     C46482  12.552   4.276   9.803  0.6557  0.0036  0.2735
  345MOL0     C46483  12.674   4.287   9.898  0.3708 -0.0871  0.0047
  345MOL0    Cl46484  12.623   4.362  10.055 -0.2930  0.0617  0.3724
  345MOL0     C46485  11.542   4.139   9.741  0.7369 -0.8585  0.4272
  345MOL0     C46486  11.435   4.122   9.655  0.9767 -0.6961  0.2330
  345MOL0     O46487  11.279   3.909   9.536  0.8748  0.1707  0.0896
  345MOL0     C46488  11.073   4.091   9.304  0.2598  0.5106 -0.0815
  345MOL0     C46489  10.965   4.073   9.216 -0.4689  0.8089  0.3171
  345MOL0     N46490  10.280   3.930   9.095 -0.3850 -1.0502 -0.2285
  345MOL0     N46491  10.171   3.873   9.059 -0.4253 -0.6576 -0.6537
  345MOL0     C46492   9.398   3.725   9.435  0.0933 -0.4891  0.1637
  345MOL0     C46493   9.325   3.610   9.467  0.8276  0.7682  0.0278
  345MOL0     C46494   8.984   3.346   9.651 -1.2365  0.1859  0.5789
  345MOL0     C46495   8.852   3.338   9.698  1.1086 -0.0567  0.6035
  345MOL0     C46496   8.787   3.220   9.751 -0.6692 -1.1619  0.3413
  345MOL0     C46497   8.857   3.102   9.753 -0.6967  0.1521  0.1041
  345MOL0     O46498   8.808   2.981   9.789 -0.8060  0.3661  0.1882
  345MOL0     C46499   8.680   2.982   9.841 -0.2856  0.1253 -0.3353
  345MOL0     C46500   8.654   2.829   9.857  0.4460  0.1189 -0.5519
  345MOL0     C46501   8.736   2.774   9.975 -0.4037  0.3835 -1.2705
  345MOL0     C46502   8.682   2.812  10.119 -0.4712  0.3716  0.5311
  345MOL0     C46503   8.564   2.722  10.140  0.2623 -0.4211 -0.3158
  345MOL0     C46504   8.466   2.647  10.143  0.4537 -0.4595 -0.2717
  345MOL0     C46505   8.992   3.110   9.710 -0.2884  0.7994 -0.6842
  345MOL0     C46506   9.054   3.225   9.666 -0.4921 -0.0658  0.0668
  345MOL0     C46507   9.206   3.218   9.630  0.2894  0.0528 -0.1084
  345MOL0     H46508   9.120   3.718   9.707  1.0590 -3.8029 -0.2210
  345MOL0     H46509   9.230   3.934   9.646 -1.4329 -0.3123 -0.5385
  345MOL0     H46510   9.541   3.998   9.624  1.7427 -2.5311  0.6302
  345MOL0     H46511   9.608   3.890   9.503 -2.9701 -2.0274 -0.5719
  345MOL0     H46512   9.700   4.136   9.504  0.4447 -1.4460 -1.0049
  345MOL0     H46513   9.534   4.192   9.454 -0.0284 -0.0793 -0.7548
  345MOL0     H46514   9.533   4.089   9.246  0.5965 -2.5510  0.3250
  345MOL0     H46515   9.684   3.999   9.280  1.3656  1.2780 -1.4108
  345MOL0     H46516   9.655   4.298   9.259 -1.3183 -0.5362  1.7079
  345MOL0     H46517   9.797   4.224   9.324 -0.8764 -3.6368  2.1793
  345MOL0     H46518   9.668   4.167   9.048 -1.1178  2.1243  1.8460
  345MOL0     H46519   9.794   4.279   9.056  1.3999 -0.6572  0.4360
  345MOL0     H46520   9.961   4.115   9.123  1.6487 -0.1765 -2.4682
  345MOL0     H46521   9.841   3.990   9.143  2.1247 -0.5782 -0.8665
  345MOL0     H46522   9.919   4.129   8.876 -0.4050  0.3784 -0.4684
  345MOL0     H46523   9.789   4.005   8.899  0.9192 -0.5095 -0.1125
  345MOL0     H46524   9.936   3.850   8.971 -0.0753  0.8896  1.6589
  345MOL0     H46525   9.990   3.916   8.809 -2.3044  0.7453  0.2612
  345MOL0     H46526  10.166   4.151   8.886  0.4509  1.4465  1.6371
  345MOL0     H46527  10.409   4.233   9.040 -0.5731 -0.7116 -3.0229
  345MOL0     H46528  10.459   4.109   9.149  0.2512  1.1770 -0.5467
  345MOL0     H46529  10.472   4.059   8.843 -0.7617 -3.4269  0.8972
  345MOL0     H46530  10.591   4.177   8.911  0.7381 -0.5097 -1.2173
  345MOL0     H46531  10.654   3.914   8.906  0.3715  1.3001 -1.4257
  345MOL0     H46532  10.552   3.912   9.046  0.3246 -1.2786 -0.3377
  345MOL0     H46533  10.709   4.097   9.147 -0.1435  1.6189 -1.4963
  345MOL0     H46534  10.807   4.075   9.004 -2.4386  7.1597  2.8322
  345MOL0     H46535  10.917   3.735   9.270  0.6657 -0.3369 -0.8254
  345MOL0     H46536  11.105   3.767   9.412 -0.8927 -0.8123 -0.9399
  345MOL0     H46537  11.572   4.209   9.359  0.8192 -1.0843 -0.6640
  345MOL0     H46538  11.776   4.226   9.530  0.5788  1.4752  2.4919
  345MOL0     H46539  11.746   4.018   9.884  1.8944  0.5613  3.7805
  345MOL0     H46540  11.845   3.980   9.737 -1.4982 -0.8026 -0.2698
  345MOL0     H46541  11.953   4.152   9.967 -1.8070  3.9744 -3.9133
  345MOL0     H46542  11.990   3.973   9.926 -0.5748 -0.5237 -0.2608
  345MOL0     H46543  12.081   4.069   9.698  1.7672 -1.7291  0.2796
  345MOL0     H46544  12.058   4.229   9.785  0.8977  0.0391  1.8365
  345MOL0     H46545  12.239   4.003   9.880  0.8963  0.5343  1.6531
  345MOL0     H46546  12.189   4.153   9.961  0.8589 -1.4523  0.8591
  345MOL0     H46547  12.269   4.297   9.779  2.2079  0.5990  3.8107
  345MOL0     H46548  12.325   4.150   9.689  0.2405 -0.6798  0.2371
  345MOL0     H46549  12.417   4.225   9.971  2.1449  0.1129  0.1705
  345MOL0     H46550  12.481   4.091   9.867  2.5473  0.9564 -0.1842
  345MOL0     H46551  12.506   4.374   9.787 -0.4616 -0.3541  1.1353
  345MOL0     H46552  12.587   4.248   9.703 -0.7666  0.5034 -0.3840
  345MOL0     H46553  12.709   4.185   9.915 -2.2504 -0.8333  1.5157
  345MOL0     H46554  12.757   4.349   9.863 -1.3938  1.4731 -1.6492
  345MOL0     H46555  11.522   4.126   9.847 -1.2863 -0.0579  0.1974
  345MOL0     H46556  11.337   4.099   9.694  0.5376  2.8179  1.5164
  345MOL0     H46557  11.104   4.194   9.318 -0.3690  0.9464 -1.7035
  345MOL0     H46558  10.929   4.154   9.153  0.3163 -0.2825 -1.6414
  345MOL0     H46559   9.482   3.720   9.366  1.9779  5.3800  1.4144
  345MOL0     H46560   9.349   3.517   9.416 -1.0216  0.7219 -0.8528
  345MOL0     H46561   8.797   3.428   9.672  2.4572  0.2248 -1.5854
  345MOL0     H46562   8.685   3.237   9.786  0.3008  2.2634  1.9894
  345MOL0     H46563   8.620   3.031   9.764 -0.8254  1.0042  0.6135
  345MOL0     H46564   8.670   3.037   9.936  0.2147  0.4271 -0.4565
  345MOL0     H46565   8.679   2.774   9.766  1.8350 -2.2146  1.1155
  345MOL0     H46566   8.550   2.797   9.870  0.3013  0.7392 -0.1655
  345MOL0     H46567   8.838   2.812   9.962 -0.4468  0.3289 -1.8063
  345MOL0     H46568   8.718   2.667   9.964 -4.6224  0.2975  3.0693
  345MOL0     H46569   8.749   2.789  10.202 -1.8512  1.5698  2.0575
  345MOL0     H46570   8.663   2.920  10.122  1.1719  0.7647 -1.1863
  345MOL0     H46571   8.381   2.582  10.152 -0.6762  1.0958  0.8103
  345MOL0     H46572   9.049   3.019   9.724 -0.9271  0.7601  2.5899
  345MOL0     H46573   9.238   3.114   9.631 -1.8300 -0.8377 -4.3339
  345MOL0     H46574   9.221   3.268   9.534  1.5935  3.2595  1.6024
  345MOL0     H46575   9.269   3.276   9.699 -0.5509  0.3210  0.4565
  346MOL0     O46576   5.974   0.028   0.632  0.7707  0.0163 -0.2242
  346MOL0     C46577   5.981   0.145   0.585 -0.1348 -0.6685  0.6188
  346MOL0     O46578   6.086   0.198   0.521 -0.8342  0.6989 -0.1701
  346MOL0     C46579   6.207   0.127   0.501 -0.1404 -0.2280 -0.6823
  346MOL0     C46580   6.315   0.157   0.591 -0.1060  0.1086  0.5039
  346MOL0     C46581   6.423   0.062   0.602  0.6061  0.1748 -0.1894
  346MOL0     C46582   6.432  -0.055   0.531  0.3668  1.0768  0.1434
  346MOL0     O46583   6.537  -0.140   0.542  0.2738  0.5050 -0.3324
  346MOL0     C46584   6.529  -0.276   0.503 -0.0970 -0.0232  0.3521
  346MOL0     C46585   6.645  -0.366   0.551  0.2284  0.0262  0.6415
  346MOL0     C46586   6.770  -0.325   0.472 -0.5855 -0.0271  0.8692
  346MOL0     C46587   6.896  -0.386   0.531  0.7801  0.2542  0.6092
  346MOL0     C46588   7.027  -0.341   0.472  0.3577 -0.5508  0.3619
  346MOL0     C46589   7.052  -0.188   0.495  0.2844  0.6712 -0.1847
  346MOL0     C46590   7.198  -0.152   0.494 -0.3353  0.1238 -0.3840
  346MOL0     C46591   7.239  -0.110   0.352 -0.1118  0.7213  0.2975
  346MOL0     N46592   7.239  -0.218   0.250 -0.3326  0.4750  0.4173
  346MOL0     C46593   7.327  -0.326   0.231 -0.4255 -0.4654 -0.0438
  346MOL0     C46594   7.272  -0.398   0.132  0.1500  0.4341  0.0543
  346MOL0     C46595   7.327  -0.523   0.072 -0.2632 -0.8445 -0.6120
  346MOL0     C46596   7.420  -0.478  -0.042  0.2313 -0.2963 -0.0490
  346MOL0     C46597   7.500  -0.595  -0.088 -0.3850  0.7776  0.3636
  346MOL0     C46598   7.622  -0.555  -0.164 -0.2552  0.3114  0.7091
  346MOL0     O46599   7.707  -0.467  -0.094 -0.1040  0.0303 -0.3815
  346MOL0     C46600   7.831  -0.446  -0.134  0.5164 -0.2504  0.3843
  346MOL0     C46601   7.882  -0.488  -0.257  0.2077 -0.4928  0.3046
  346MOL0     C46602   8.020  -0.459  -0.295 -0.3895 -0.0611 -0.3072
  346MOL0     C46603   8.098  -0.382  -0.204  0.4307  0.3556 -0.2807
  346MOL0     C46604   8.237  -0.333  -0.233 -0.4874  0.2872  0.0547
  346MOL0     O46605   8.271  -0.348  -0.360 -0.2880  0.1628  0.2871
  346MOL0     C46606   8.406  -0.329  -0.388 -0.0631  0.0486 -0.3727
  346MOL0     C46607   8.485  -0.429  -0.457  0.2464  0.1241  0.4410
  346MOL0     C46608   8.613  -0.399  -0.486 -0.2118  0.1718  0.1219
  346MOL0     C46609   8.664  -0.268  -0.451  0.0322  0.3395 -0.2327
  346MOL0     O46610   8.799  -0.255  -0.472  0.3032 -0.0135 -0.5768
  346MOL0     C46611   8.865  -0.142  -0.422  0.2677 -0.3313 -0.2133
  346MOL0     C46612   9.017  -0.185  -0.445  1.0345  0.2563 -0.4613
  346MOL0     C46613   9.108  -0.087  -0.369 -0.9736 -0.3526  0.2179
  346MOL0     C46614   9.253  -0.123  -0.408  0.5900 -0.6444  0.1969
  346MOL0     C46615   9.362  -0.048  -0.339  1.4368  0.1348  0.8871
  346MOL0     C46616   9.497  -0.107  -0.374 -0.7152 -0.3961  0.7128
  346MOL0     C46617   9.549  -0.083  -0.515  0.5953 -0.7371 -0.6354
  346MOL0     C46618   9.702  -0.106  -0.525 -0.5170 -0.1371 -0.3164
  346MOL0    Cl46619   9.726  -0.136  -0.698  0.2166  0.1326 -0.1279
  346MOL0     C46620   8.579  -0.168  -0.398  0.1625  0.0957  0.2773
  346MOL0     C46621   8.451  -0.200  -0.360  0.5831  0.1160 -0.4316
  346MOL0     O46622   8.316  -0.317  -0.138 -0.2212  0.7486  0.7087
  346MOL0     C46623   8.042  -0.346  -0.085  0.2116 -0.4216  0.3473
  346MOL0     C46624   7.913  -0.374  -0.051  1.3121  0.2458  0.4846
  346MOL0     N46625   7.155  -0.342   0.086 -0.2418 -0.1650  0.4019
  346MOL0     N46626   7.140  -0.228   0.156 -0.1081  0.1899 -0.8091
  346MOL0     C46627   6.318  -0.082   0.451 -0.4462 -1.0128  0.0882
  346MOL0     C46628   6.215   0.007   0.436 -0.2329 -1.0333 -0.2446
  346MOL0     C46629   5.861   0.236   0.619 -1.1839  0.4295  0.2619
  346MOL0     C46630   5.738   0.168   0.645  0.1526  0.7624 -0.0611
  346MOL0     C46631   5.619   0.242   0.661  0.5083  0.0064 -1.0730
  346MOL0     C46632   5.622   0.384   0.657 -0.1949  0.9638  0.2275
  346MOL0     O46633   5.514   0.462   0.692  0.0656  0.0681  0.4127
  346MOL0     C46634   5.398   0.405   0.755  0.6169 -0.7307 -0.1142
  346MOL0     C46635   5.323   0.533   0.801 -0.8010 -0.3011  0.0333
  346MOL0     C46636   5.175   0.529   0.757 -0.3661  0.1880 -0.1274
  346MOL0     C46637   5.090   0.636   0.826 -0.5899 -0.2505  0.5727
  346MOL0     C46638   5.130   0.771   0.771 -0.4890  0.0105  0.4320
  346MOL0     C46639   5.168   0.878   0.744 -1.5699  0.1307  1.0079
  346MOL0     C46640   5.745   0.439   0.628 -0.5683 -0.5327  0.3074
  346MOL0     C46641   5.859   0.373   0.623  0.3863  0.0776  0.5352
  346MOL0     C46642   5.989   0.457   0.596 -0.6495 -0.1483 -0.4389
  346MOL0     H46643   6.310   0.253   0.642  1.6873  0.7159 -0.3848
  346MOL0     H46644   6.512   0.091   0.658  0.4549  1.4677 -0.6051
  346MOL0     H46645   6.437  -0.309   0.552 -0.7153  1.9142  0.5649
  346MOL0     H46646   6.515  -0.288   0.395  2.2959 -0.0101 -0.0066
  346MOL0     H46647   6.628  -0.473   0.540 -0.9438  0.0226  2.0984
  346MOL0     H46648   6.654  -0.351   0.659 -0.0656 -2.5962  1.0792
  346MOL0     H46649   6.781  -0.216   0.468  0.3279 -0.0927  1.2894
  346MOL0     H46650   6.763  -0.359   0.368  2.9349  1.9126 -0.1886
  346MOL0     H46651   6.892  -0.372   0.640 -0.6697  3.5935  0.2419
  346MOL0     H46652   6.893  -0.494   0.517 -1.1360  0.0712  1.9627
  346MOL0     H46653   7.107  -0.401   0.516  0.1898 -0.1961  1.1664
  346MOL0     H46654   7.028  -0.360   0.364 -0.1035  0.9283  0.0685
  346MOL0     H46655   6.993  -0.123   0.429  0.9484  1.3982 -0.0811
  346MOL0     H46656   7.020  -0.172   0.599  0.1827  1.3725 -0.3159
  346MOL0     H46657   7.261  -0.235   0.529 -0.9000 -2.6229 -5.0347
  346MOL0     H46658   7.209  -0.063   0.556  0.1577 -0.6472  0.6690
  346MOL0     H46659   7.180  -0.023   0.322  0.1938  0.1436 -2.1956
  346MOL0     H46660   7.345  -0.088   0.364  0.2504 -0.4308 -0.5962
  346MOL0     H46661   7.407  -0.356   0.298 -2.4178 -1.1949  2.1081
  346MOL0     H46662   7.380  -0.577   0.151  1.4887 -1.2201 -1.9829
  346MOL0     H46663   7.250  -0.589   0.030  0.0084 -1.9321  0.5379
  346MOL0     H46664   7.365  -0.439  -0.128  0.4817 -2.5357 -1.3109
  346MOL0     H46665   7.492  -0.402  -0.009  1.3091 -1.9001  1.4753
  346MOL0     H46666   7.435  -0.665  -0.142 -0.6136  1.1753  0.1217
  346MOL0     H46667   7.540  -0.648  -0.000  1.3185  1.1155 -0.1678
  346MOL0     H46668   7.579  -0.506  -0.252  1.3427  0.1532 -0.2176
  346MOL0     H46669   7.681  -0.643  -0.193 -2.9263 -0.6155 -2.4950
  346MOL0     H46670   7.832  -0.555  -0.326  1.4833 -0.9290 -0.2191
  346MOL0     H46671   8.058  -0.500  -0.389 -0.8611 -1.1330 -0.0498
  346MOL0     H46672   8.432  -0.515  -0.497  3.0745 -0.8349 -1.5762
  346MOL0     H46673   8.673  -0.480  -0.527 -0.9868  0.4642 -1.6724
  346MOL0     H46674   8.835  -0.051  -0.474 -3.4751 -0.2592  1.6508
  346MOL0     H46675   8.857  -0.132  -0.313  1.2866 -3.0729  0.2106
  346MOL0     H46676   9.021  -0.286  -0.403 -0.8308  0.1932 -0.3792
  346MOL0     H46677   9.028  -0.195  -0.553  0.8110 -2.9713 -0.2977
  346MOL0     H46678   9.108   0.018  -0.402  3.0700 -1.3059 -3.9348
  346MOL0     H46679   9.087  -0.101  -0.263  1.3462 -0.1399  0.7593
  346MOL0     H46680   9.266  -0.101  -0.514  2.5974 -0.3978  0.4442
  346MOL0     H46681   9.271  -0.228  -0.384  1.9669 -0.9158 -1.7847
  346MOL0     H46682   9.354  -0.045  -0.230  4.0092 -3.4002  1.3171
  346MOL0     H46683   9.352   0.055  -0.375  0.5106 -0.5926 -1.0738
  346MOL0     H46684   9.568  -0.050  -0.314 -1.6651 -0.8108  2.2778
  346MOL0     H46685   9.503  -0.216  -0.364 -2.9823 -0.9160 -2.1772
  346MOL0     H46686   9.527   0.021  -0.543  1.2383 -0.7323 -1.1556
  346MOL0     H46687   9.497  -0.153  -0.581 -1.3543  2.1104 -2.3165
  346MOL0     H46688   9.759  -0.020  -0.488 -1.2684  0.0011  0.5883
  346MOL0     H46689   9.750  -0.182  -0.463  0.4157 -0.8108 -1.8159
  346MOL0     H46690   8.616  -0.067  -0.382 -0.1524  0.2432  0.0653
  346MOL0     H46691   8.386  -0.129  -0.310  4.2525  3.0044  0.7281
  346MOL0     H46692   8.104  -0.303  -0.006 -0.1508 -0.0034  0.4100
  346MOL0     H46693   7.874  -0.337   0.043 -1.1725  0.2438 -0.4707
  346MOL0     H46694   6.320  -0.177   0.397  1.8537 -0.4851 -0.9116
  346MOL0     H46695   6.130  -0.027   0.377 -0.2367  0.7256 -1.3082
  346MOL0     H46696   5.734   0.059   0.644 -0.0760  0.7707 -1.2107
  346MOL0     H46697   5.520   0.200   0.678 -0.9832  3.7248  0.6302
  346MOL0     H46698   5.422   0.338   0.838 -0.4867 -1.9565 -0.7395
  346MOL0     H46699   5.327   0.341   0.700 -1.4130 -0.4279  1.9831
  346MOL0     H46700   5.368   0.626   0.764 -1.6760  0.9883  2.0156
  346MOL0     H46701   5.339   0.546   0.909  3.0556 -1.9815 -0.1712
  346MOL0     H46702   5.138   0.427   0.770 -0.3205 -0.0641 -1.7013
  346MOL0     H46703   5.166   0.542   0.649  0.1909  1.1640 -0.0615
  346MOL0     H46704   4.988   0.606   0.799 -0.9474  2.4384 -1.4546
  346MOL0     H46705   5.109   0.611   0.931 -2.0656 -1.3673  0.6047
  346MOL0     H46706   5.207   0.977   0.726  0.5748 -1.0380 -1.2971
  346MOL0     H46707   5.745   0.547   0.635 -0.1583 -0.4254 -1.1298
  346MOL0     H46708   6.063   0.425   0.670 -0.7459  1.2322  0.2999
  346MOL0     H46709   6.044   0.442   0.503  1.1923 -3.8153  1.0424
  346MOL0     H46710   5.969   0.563   0.614 -5.0771 -1.1267  1.7636
  347MOL0     O46711   1.746   3.085   6.017 -0.3515 -0.4229 -0.4195
  347MOL0     C46712   1.683   3.181   5.972  0.1967  1.0785  0.3219
  347MOL0     O46713   1.607   3.269   6.047  0.4306  0.1551  0.1789
  347MOL0     C46714   1.575   3.248   6.182  0.4100  0.6809  0.0165
  347MOL0     C46715   1.435   3.223   6.213 -0.9069 -0.3244 -0.1042
  347MOL0     C46716   1.406   3.196   6.346  0.0488  0.6809 -0.8365
  347MOL0     C46717   1.511   3.187   6.442  0.1323  0.1916  0.0186
  347MOL0     O46718   1.492   3.135   6.571  0.5803 -0.2522 -0.0568
  347MOL0     C46719   1.361   3.094   6.605 -0.3238 -1.1625  0.0819
  347MOL0     C46720   1.371   3.040   6.750  0.9039 -0.4939  0.3219
  347MOL0     C46721   1.423   3.142   6.851 -0.2250  1.2301 -0.0446
  347MOL0     C46722   1.398   3.110   7.005 -0.7976 -0.3802  0.0511
  347MOL0     C46723   1.441   3.223   7.095  0.2449  0.6471  0.0081
  347MOL0     C46724   1.375   3.353   7.061 -0.3751  0.3709 -0.3111
  347MOL0     C46725   1.411   3.459   7.161  0.6453  0.1651 -0.6272
  347MOL0     C46726   1.333   3.581   7.156 -0.6725 -0.0885  0.1802
  347MOL0     N46727   1.393   3.683   7.240  0.0683 -0.3334  0.1451
  347MOL0     C46728   1.374   3.694   7.381 -0.2101  0.2203  0.2565
  347MOL0     C46729   1.479   3.780   7.415 -0.3918  0.1363 -1.2068
  347MOL0     C46730   1.515   3.827   7.552  0.9404  0.4885 -0.7805
  347MOL0     C46731   1.660   3.800   7.587 -0.1217  1.0535 -0.2352
  347MOL0     C46732   1.698   3.843   7.732 -0.0248  0.5126 -0.1952
  347MOL0     C46733   1.835   3.802   7.776 -0.1380  0.3300 -0.2063
  347MOL0     O46734   1.835   3.653   7.767 -0.4962 -0.8346 -0.7198
  347MOL0     C46735   1.956   3.590   7.761  0.2753 -0.6499  0.5593
  347MOL0     C46736   1.957   3.456   7.759  0.2370  0.3478 -0.6333
  347MOL0     C46737   2.066   3.377   7.780  0.0692  0.0993 -0.3641
  347MOL0     C46738   2.192   3.438   7.800 -0.1494 -0.6647 -0.3442
  347MOL0     C46739   2.313   3.355   7.828  0.1946 -0.1756 -0.4184
  347MOL0     O46740   2.435   3.422   7.826  0.8411  0.4855  0.0513
  347MOL0     C46741   2.545   3.342   7.818 -0.4740  1.0780  0.2306
  347MOL0     C46742   2.619   3.345   7.702  0.2454  0.6647 -0.6059
  347MOL0     C46743   2.728   3.264   7.690 -1.0242  0.4812 -0.1145
  347MOL0     C46744   2.772   3.177   7.794 -0.5886 -0.8586  0.1435
  347MOL0     O46745   2.884   3.087   7.793 -0.6249  0.5121 -0.1237
  347MOL0     C46746   3.003   3.103   7.710  0.4261 -0.3017  0.1983
  347MOL0     C46747   3.083   2.978   7.734  0.1052 -0.5204  0.0083
  347MOL0     C46748   3.015   2.863   7.673 -0.8121  0.1267  0.3653
  347MOL0     C46749   3.105   2.739   7.682  0.9925  0.4897  0.1110
  347MOL0     C46750   3.024   2.608   7.701 -0.3268 -0.4464  1.3804
  347MOL0     C46751   2.958   2.601   7.835 -0.2722 -0.4089 -0.4473
  347MOL0     C46752   2.871   2.477   7.839 -0.8137 -0.2034 -0.8525
  347MOL0     C46753   2.825   2.461   7.986 -0.0846  0.5209 -0.3513
  347MOL0    Cl46754   2.727   2.302   8.015  0.1728  0.0380  0.0123
  347MOL0     C46755   2.691   3.166   7.911  0.7424  0.4700  0.9533
  347MOL0     C46756   2.584   3.255   7.921 -0.1661 -0.6779 -0.8778
  347MOL0     O46757   2.296   3.238   7.850 -0.8202  0.0493 -0.8739
  347MOL0     C46758   2.189   3.580   7.797  0.0617 -0.2907 -0.3925
  347MOL0     C46759   2.073   3.654   7.768 -0.3079 -0.8152 -0.1901
  347MOL0     N46760   1.538   3.827   7.297 -0.3673 -0.1448  0.6258
  347MOL0     N46761   1.499   3.759   7.202 -0.7297 -0.0758  0.2058
  347MOL0     C46762   1.643   3.215   6.405 -0.6999 -0.4731  0.1223
  347MOL0     C46763   1.676   3.256   6.273  0.6912 -0.3855  0.0736
  347MOL0     C46764   1.698   3.225   5.831  0.0987  0.6042 -0.2294
  347MOL0     C46765   1.580   3.215   5.758  0.3513 -0.5391 -0.2337
  347MOL0     C46766   1.581   3.218   5.614  0.6170  0.3291  0.3827
  347MOL0     C46767   1.695   3.255   5.545  0.4566  0.2745 -0.5576
  347MOL0     O46768   1.684   3.275   5.410 -0.0011  0.3886  0.2884
  347MOL0     C46769   1.660   3.406   5.364 -0.1963 -0.5837  0.4400
  347MOL0     C46770   1.512   3.429   5.323 -0.3756  1.0450 -1.3539
  347MOL0     C46771   1.470   3.328   5.220 -0.1832 -0.0009 -0.1387
  347MOL0     C46772   1.323   3.338   5.196 -0.6415 -0.1892 -0.2967
  347MOL0     C46773   1.248   3.275   5.303  0.3442 -0.2728  0.2711
  347MOL0     C46774   1.194   3.222   5.396 -0.5365  0.0827  0.5734
  347MOL0     C46775   1.816   3.268   5.626 -0.2670  0.0724  0.9958
  347MOL0     C46776   1.820   3.246   5.761  0.8082 -1.1483 -0.1214
  347MOL0     C46777   1.961   3.254   5.830  0.5802  0.3607  0.4161
  347MOL0     H46778   1.365   3.205   6.132 -0.2503 -0.3001 -0.6859
  347MOL0     H46779   1.302   3.179   6.371  0.7216 -2.4576  0.3147
  347MOL0     H46780   1.300   3.185   6.613 -0.6685 -1.4726  1.1516
  347MOL0     H46781   1.314   3.023   6.536 -2.9201  0.5131 -0.0109
  347MOL0     H46782   1.452   2.968   6.734  0.2427 -1.0909 -0.4114
  347MOL0     H46783   1.278   2.991   6.778 -0.6813  3.1280  2.1658
  347MOL0     H46784   1.356   3.227   6.833 -1.1024  0.5880  0.1267
  347MOL0     H46785   1.528   3.167   6.833  0.2157  1.9445  2.9484
  347MOL0     H46786   1.290   3.095   7.012 -0.8763 -1.3075 -2.1627
  347MOL0     H46787   1.434   3.008   7.019  1.1044  0.1816 -0.3494
  347MOL0     H46788   1.404   3.200   7.196 -0.9453 -1.9619 -0.9285
  347MOL0     H46789   1.548   3.244   7.101  0.3854 -0.2865  1.1573
  347MOL0     H46790   1.401   3.392   6.962  1.6819  0.1284  0.0759
  347MOL0     H46791   1.267   3.344   7.054 -0.6100  2.9890 -1.1385
  347MOL0     H46792   1.519   3.472   7.153  1.4363 -4.2761  0.5456
  347MOL0     H46793   1.407   3.420   7.264 -0.2544 -3.1985 -1.8229
  347MOL0     H46794   1.337   3.604   7.049 -2.0303  2.4710  0.6010
  347MOL0     H46795   1.228   3.551   7.168  0.3646 -3.7874  1.1242
  347MOL0     H46796   1.302   3.648   7.447  1.3311  0.4483  2.2315
  347MOL0     H46797   1.505   3.935   7.564 -0.3232  0.4555 -1.3466
  347MOL0     H46798   1.451   3.780   7.627  2.4893  3.3013  2.5414
  347MOL0     H46799   1.685   3.694   7.592 -0.7001  0.9620  1.1203
  347MOL0     H46800   1.718   3.851   7.510 -0.4599  1.9854  0.1145
  347MOL0     H46801   1.629   3.800   7.805 -1.6559  0.9469 -1.4286
  347MOL0     H46802   1.701   3.952   7.737 -0.2714  0.4837  0.8980
  347MOL0     H46803   1.865   3.835   7.876  0.7025 -1.0941  0.0465
  347MOL0     H46804   1.902   3.852   7.705  0.2649  2.6020  1.6137
  347MOL0     H46805   1.857   3.412   7.756 -0.1986  1.0267  1.8287
  347MOL0     H46806   2.043   3.272   7.769  1.4735 -0.0455 -2.4820
  347MOL0     H46807   2.592   3.393   7.608  0.7916 -1.8316 -2.1470
  347MOL0     H46808   2.779   3.261   7.594 -0.7628  0.1399  0.0368
  347MOL0     H46809   2.976   3.111   7.605  1.7086 -2.6208 -0.3712
  347MOL0     H46810   3.052   3.195   7.744 -1.6521  0.1620  2.2629
  347MOL0     H46811   3.177   3.009   7.686 -0.1682  1.8179  0.8425
  347MOL0     H46812   3.110   2.972   7.840  1.0194  1.4674 -0.0650
  347MOL0     H46813   2.922   2.836   7.723  0.1044  0.1155  2.1455
  347MOL0     H46814   3.002   2.881   7.566  2.7378 -1.7499 -0.5232
  347MOL0     H46815   3.185   2.751   7.755  2.0733  0.2145 -0.9981
  347MOL0     H46816   3.164   2.737   7.590  0.1272 -0.4326 -0.4456
  347MOL0     H46817   3.094   2.526   7.684  0.1526 -0.1030  1.6638
  347MOL0     H46818   2.955   2.603   7.617 -0.3396  1.6404  1.2212
  347MOL0     H46819   3.036   2.595   7.911 -1.8530  1.3444  1.4662
  347MOL0     H46820   2.901   2.692   7.860  0.7854  0.4924 -1.2164
  347MOL0     H46821   2.943   2.398   7.814  0.9580  1.5292 -1.4740
  347MOL0     H46822   2.788   2.492   7.770 -0.1917 -0.1837 -1.6216
  347MOL0     H46823   2.918   2.460   8.042  1.5287 -0.7403 -2.8479
  347MOL0     H46824   2.755   2.539   8.018 -2.0901 -1.3471  0.0669
  347MOL0     H46825   2.725   3.096   7.987 -0.0507  0.7408  1.5772
  347MOL0     H46826   2.532   3.258   8.016  1.9572  0.9084  0.3235
  347MOL0     H46827   2.286   3.628   7.794 -0.1280  0.2344  0.8665
  347MOL0     H46828   2.083   3.762   7.772  0.6564 -0.9336  1.8866
  347MOL0     H46829   1.725   3.210   6.476  0.8561 -0.3100 -1.5900
  347MOL0     H46830   1.780   3.271   6.247  1.1427 -3.8273 -0.6018
  347MOL0     H46831   1.490   3.200   5.816  0.1548  2.5403  0.4450
  347MOL0     H46832   1.491   3.202   5.555  0.8860  0.1423  0.0238
  347MOL0     H46833   1.730   3.413   5.280 -1.6542 -0.3017 -0.7850
  347MOL0     H46834   1.687   3.484   5.436 -1.2651 -1.1781  1.5124
  347MOL0     H46835   1.499   3.526   5.275 -0.9005  1.0888 -1.1314
  347MOL0     H46836   1.454   3.411   5.414  0.8121  0.9682 -0.5872
  347MOL0     H46837   1.502   3.231   5.259 -1.1064 -0.6651 -1.0061
  347MOL0     H46838   1.514   3.360   5.126 -1.7250  1.2859 -0.4563
  347MOL0     H46839   1.285   3.440   5.186  0.1089  0.3893  2.0797
  347MOL0     H46840   1.306   3.285   5.102 -0.5318 -2.7737  1.0592
  347MOL0     H46841   1.155   3.176   5.485 -1.1863 -0.2303  0.1344
  347MOL0     H46842   1.905   3.293   5.569 -0.8056 -0.0705  0.0623
  347MOL0     H46843   1.984   3.153   5.866 -0.2141  0.9121  2.6159
  347MOL0     H46844   2.039   3.282   5.759  1.0873 -3.1285 -0.5676
  347MOL0     H46845   1.966   3.335   5.903  0.5882  0.6320  0.1185
  348MOL0     O46846  10.600   3.865   4.022  0.5642  0.4592 -0.4858
  348MOL0     C46847  10.559   3.931   3.926  0.2584 -0.5885  0.0040
  348MOL0     O46848  10.629   3.974   3.828 -0.3292  0.1964  0.0784
  348MOL0     C46849  10.763   3.985   3.834 -0.1538  0.7811 -1.0866
  348MOL0     C46850  10.843   3.871   3.865 -0.3115  0.2836  0.3679
  348MOL0     C46851  10.981   3.883   3.876 -0.1976 -0.7106 -0.3100
  348MOL0     C46852  11.041   4.008   3.856  0.0486  0.3141  0.2474
  348MOL0     O46853  11.179   3.998   3.862 -0.2828 -0.0579  0.3447
  348MOL0     C46854  11.259   4.112   3.885  1.0050  0.4193 -0.5217
  348MOL0     C46855  11.406   4.064   3.930  0.3188  0.7296 -0.4822
  348MOL0     C46856  11.501   4.167   3.914  0.0679 -0.2669  0.6384
  348MOL0     C46857  11.633   4.123   3.867 -1.1453  0.4660 -0.7621
  348MOL0     C46858  11.744   4.092   3.972 -0.4579 -0.7427  0.5109
  348MOL0     C46859  11.755   4.204   4.075 -0.8100  0.4917 -0.6191
  348MOL0     C46860  11.788   4.334   4.016 -0.4474 -0.0173 -0.3214
  348MOL0     C46861  11.890   4.417   4.101 -0.1857  0.0617  0.6683
  348MOL0     N46862  12.031   4.369   4.123 -0.2672  0.0913 -0.2394
  348MOL0     C46863  12.108   4.321   4.020  1.0270 -0.8979 -0.0643
  348MOL0     C46864  12.234   4.309   4.072  0.1767  0.5577  0.1125
  348MOL0     C46865  12.358   4.268   3.995  0.2865 -0.1242 -0.9071
  348MOL0     C46866  12.491   4.356   4.021  0.3931 -0.4039 -0.4880
  348MOL0     C46867  12.537   4.459   3.916 -0.3463 -1.0211 -0.3223
  348MOL0     C46868  12.635   4.561   3.989 -0.0313 -0.4751  0.0452
  348MOL0     O46869  12.662   4.674   3.905  0.2251  0.1746  0.3143
  348MOL0     C46870  12.749   4.658   3.799  0.5437 -0.2242  0.7451
  348MOL0     C46871  12.818   4.539   3.764  0.6948  0.9892 -0.5018
  348MOL0     C46872  12.916   4.535   3.668  0.7036  1.5534  0.5291
  348MOL0     C46873  12.959   4.654   3.596  0.7965 -0.1066 -0.3991
  348MOL0     C46874  13.072   4.665   3.498 -0.8848  0.0704  0.0074
  348MOL0     O46875  13.128   4.546   3.470 -0.6607  0.1156  0.4683
  348MOL0     C46876  13.228   4.548   3.370 -0.2767 -0.7848 -1.0282
  348MOL0     C46877  13.187   4.468   3.265  0.1667  0.4753 -1.0022
  348MOL0     C46878  13.270   4.457   3.161  0.1867 -0.1772  0.6980
  348MOL0     C46879  13.397   4.522   3.155  0.3880 -0.1692  0.3011
  348MOL0     O46880  13.490   4.518   3.048  0.4166  0.6367 -0.7581
  348MOL0     C46881  13.422   4.550   2.929 -0.1527  0.8931 -0.2216
  348MOL0     C46882  13.514   4.592   2.817 -0.1624 -0.1151  0.3591
  348MOL0     C46883  13.440   4.576   2.685 -0.0727  0.2449  0.1879
  348MOL0     C46884  13.299   4.630   2.680 -0.2160 -0.0372 -0.8135
  348MOL0     C46885  13.282   4.777   2.705  0.4403 -0.1124  0.3276
  348MOL0     C46886  13.128   4.805   2.732  0.7932  0.3131 -0.7598
  348MOL0     C46887  13.029   4.766   2.619  0.2314  0.4957  0.7192
  348MOL0     C46888  12.884   4.783   2.665  0.0303 -0.2652 -0.9010
  348MOL0    Cl46889  12.857   4.697   2.820 -0.2760 -0.2824  0.4455
  348MOL0     C46890  13.434   4.602   3.257  0.0401  0.2364 -0.6728
  348MOL0     C46891  13.351   4.626   3.367  0.8565  0.0085  0.2193
  348MOL0     O46892  13.123   4.770   3.464  0.3021  0.3916  0.1423
  348MOL0     C46893  12.882   4.768   3.617 -0.4763  0.3630  0.0217
  348MOL0     C46894  12.778   4.762   3.714 -0.2060 -0.7624 -0.7295
  348MOL0     N46895  12.226   4.352   4.203  0.2299  0.4571  0.1023
  348MOL0     N46896  12.106   4.394   4.233  0.5218  0.8309 -0.2243
  348MOL0     C46897  10.962   4.118   3.827 -0.7281 -0.0039  0.0919
  348MOL0     C46898  10.825   4.106   3.816  0.0734  0.3169  0.1452
  348MOL0     C46899  10.407   3.947   3.923  0.4207 -0.3973 -0.4703
  348MOL0     C46900  10.326   3.851   3.993 -0.0823  0.6632 -0.0553
  348MOL0     C46901  10.183   3.858   3.990 -0.9558  0.0904 -0.0606
  348MOL0     C46902  10.123   3.963   3.916 -0.0035  0.0941  0.2366
  348MOL0     O46903   9.987   3.964   3.923  1.0412 -0.1608 -0.0635
  348MOL0     C46904   9.907   4.041   3.833  0.1645  0.1457 -0.4732
  348MOL0     C46905   9.873   3.951   3.703 -0.3858 -0.6818  0.0711
  348MOL0     C46906   9.835   3.809   3.745  0.5724  0.3242  0.2254
  348MOL0     C46907   9.769   3.732   3.639 -0.2139 -0.2768  0.2020
  348MOL0     C46908   9.625   3.763   3.623  0.5062 -0.1532 -0.0910
  348MOL0     C46909   9.507   3.787   3.632  0.6549 -0.4432 -0.7062
  348MOL0     C46910  10.203   4.046   3.837 -0.9537 -1.1783 -0.5834
  348MOL0     C46911  10.346   4.045   3.846  0.5231  0.4796 -0.9710
  348MOL0     C46912  10.414   4.158   3.772 -0.3723  0.5036  0.3889
  348MOL0     H46913  10.793   3.776   3.877  0.9252 -0.3254  0.8385
  348MOL0     H46914  11.037   3.794   3.901 -1.1187 -0.6810  2.1146
  348MOL0     H46915  11.269   4.163   3.789 -0.6367  1.0353 -0.3979
  348MOL0     H46916  11.209   4.177   3.958 -1.6306  0.0933 -1.8943
  348MOL0     H46917  11.422   3.972   3.872 -0.1793  0.7444 -0.6556
  348MOL0     H46918  11.411   4.037   4.036  1.2105 -0.6240 -0.8388
  348MOL0     H46919  11.516   4.217   4.010 -0.4233 -3.3520  2.4958
  348MOL0     H46920  11.459   4.248   3.854  0.8256 -1.5154 -1.7004
  348MOL0     H46921  11.620   4.037   3.800 -1.0930 -2.3082  2.5357
  348MOL0     H46922  11.677   4.206   3.812 -1.8568  3.3829  2.7399
  348MOL0     H46923  11.721   3.998   4.024 -3.0220 -0.3639  0.1800
  348MOL0     H46924  11.839   4.066   3.924 -0.5645 -0.9375  0.4019
  348MOL0     H46925  11.671   4.202   4.145  0.5782  3.1589  1.3104
  348MOL0     H46926  11.838   4.175   4.140 -1.2756  0.4301 -0.0377
  348MOL0     H46927  11.696   4.392   4.001  0.0874  0.4064 -2.2314
  348MOL0     H46928  11.832   4.319   3.917  1.9487  1.3250  0.4689
  348MOL0     H46929  11.890   4.520   4.065 -0.2793  0.2553  1.2118
  348MOL0     H46930  11.840   4.435   4.196 -1.7869  0.1088 -0.1572
  348MOL0     H46931  12.086   4.305   3.915 -1.0309  1.0863 -0.0174
  348MOL0     H46932  12.370   4.162   4.020 -0.1560  0.6552  3.2023
  348MOL0     H46933  12.341   4.287   3.888  0.3507 -1.7684 -1.2334
  348MOL0     H46934  12.486   4.399   4.121  0.3152  1.2372 -1.1597
  348MOL0     H46935  12.573   4.284   4.030  1.8891  1.4490  1.6764
  348MOL0     H46936  12.455   4.518   3.875  0.6877 -0.1214 -1.1581
  348MOL0     H46937  12.596   4.399   3.847  1.4783 -1.0647  1.1602
  348MOL0     H46938  12.724   4.507   4.023  0.3122  0.1788  0.2121
  348MOL0     H46939  12.585   4.603   4.077  1.9324  1.7832  0.2125
  348MOL0     H46940  12.784   4.450   3.816  1.0094  1.0470 -0.1943
  348MOL0     H46941  12.967   4.441   3.649  0.2783  1.2274  0.9524
  348MOL0     H46942  13.087   4.427   3.275  0.0675  1.2954  3.2745
  348MOL0     H46943  13.237   4.391   3.082 -0.6841 -1.2721  1.9200
  348MOL0     H46944  13.375   4.457   2.895 -1.0452  0.2423  2.6002
  348MOL0     H46945  13.346   4.626   2.950 -0.4431  0.2859  0.9739
  348MOL0     H46946  13.542   4.696   2.835 -2.8310  1.3821 -3.0520
  348MOL0     H46947  13.602   4.527   2.819 -0.8153 -1.0823 -0.7400
  348MOL0     H46948  13.496   4.633   2.610 -1.1157 -2.4196 -2.8359
  348MOL0     H46949  13.448   4.473   2.650 -1.4066 -0.1616  1.0045
  348MOL0     H46950  13.233   4.580   2.751 -0.6614 -1.9552 -2.4877
  348MOL0     H46951  13.254   4.596   2.586  2.1385 -2.6670 -1.1361
  348MOL0     H46952  13.329   4.835   2.625  1.9194 -1.4645  0.1884
  348MOL0     H46953  13.344   4.809   2.789 -1.6266  1.8531  1.2104
  348MOL0     H46954  13.092   4.766   2.828 -1.9534  3.3575 -0.4082
  348MOL0     H46955  13.117   4.913   2.739 -0.5047  0.1354  0.5572
  348MOL0     H46956  13.043   4.659   2.602 -0.2044  0.3630  1.1501
  348MOL0     H46957  13.050   4.815   2.524  2.9148 -1.0691  0.4166
  348MOL0     H46958  12.878   4.890   2.686  1.8892 -0.6909  2.5031
  348MOL0     H46959  12.820   4.734   2.591 -0.1763 -1.1371 -0.1510
  348MOL0     H46960  13.525   4.660   3.246  0.1556  0.5130  1.3667
  348MOL0     H46961  13.377   4.710   3.431  1.5649  0.2514 -0.3665
  348MOL0     H46962  12.891   4.867   3.573 -0.8274 -0.8098 -2.8811
  348MOL0     H46963  12.726   4.854   3.740 -0.4925 -1.3261  0.7878
  348MOL0     H46964  11.011   4.211   3.802  0.3422 -0.8533 -1.1145
  348MOL0     H46965  10.787   4.202   3.784  1.5683  0.7732 -0.3381
  348MOL0     H46966  10.367   3.766   4.047  2.4679 -0.2121 -3.0624
  348MOL0     H46967  10.119   3.787   4.040  1.7222 -1.4352  1.4368
  348MOL0     H46968   9.958   4.134   3.808 -0.4975  1.3142  2.2117
  348MOL0     H46969   9.822   4.073   3.893 -0.9367 -0.8083 -1.4774
  348MOL0     H46970   9.955   3.939   3.632  0.5412 -1.4046  1.2317
  348MOL0     H46971   9.791   4.008   3.658  0.2392  1.0884  1.1192
  348MOL0     H46972   9.760   3.827   3.822  0.0181  0.9012 -0.4348
  348MOL0     H46973   9.921   3.750   3.779 -0.2299 -0.8720  0.2364
  348MOL0     H46974   9.832   3.742   3.550  0.8362 -0.2944  0.9290
  348MOL0     H46975   9.777   3.628   3.673 -0.3652  0.4025  2.4385
  348MOL0     H46976   9.402   3.809   3.637  0.4203 -1.5338 -0.4581
  348MOL0     H46977  10.170   4.135   3.784  0.2705 -0.1787  0.3004
  348MOL0     H46978  10.427   4.124   3.669 -1.4861  1.3157 -0.0356
  348MOL0     H46979  10.349   4.245   3.782 -0.2230  0.4714  1.8432
  348MOL0     H46980  10.515   4.185   3.804  0.3886 -1.1818 -0.4700
  349MOL0     O46981   8.416   3.235   9.769 -0.3331  0.2364  0.0384
  349MOL0     C46982   8.307   3.290   9.775  0.4676 -0.2792  1.0172
  349MOL0     O46983   8.288   3.421   9.800  0.0254 -0.0465 -0.0517
  349MOL0     C46984   8.403   3.508   9.818  0.2332 -0.0150  0.3253
  349MOL0     C46985   8.407   3.604   9.925 -0.7652 -0.7415  0.1868
  349MOL0     C46986   8.516   3.696   9.937  0.1641 -0.3173  0.4677
  349MOL0     C46987   8.614   3.707   9.838  0.1443  0.1550  0.2636
  349MOL0     O46988   8.703   3.807   9.854 -0.1530 -0.4461  0.4142
  349MOL0     C46989   8.819   3.819   9.773 -0.0124  0.2551  0.4288
  349MOL0     C46990   8.912   3.917   9.835 -0.7194 -0.4184 -0.2602
  349MOL0     C46991   8.870   4.058   9.812  1.1423 -0.9089 -0.3351
  349MOL0     C46992   8.866   4.110   9.666  0.3339 -0.0843  0.5035
  349MOL0     C46993   9.006   4.098   9.600 -0.7012  0.0081  0.2772
  349MOL0     C46994   9.025   4.194   9.483  0.3389 -0.3212 -0.1069
  349MOL0     C46995   9.136   4.146   9.394  0.1252  0.4082 -0.1151
  349MOL0     C46996   9.152   4.216   9.253 -0.2345 -0.1544 -0.5064
  349MOL0     N46997   9.184   4.361   9.284  0.2668  0.3426  0.2450
  349MOL0     C46998   9.292   4.413   9.355 -0.4453 -0.4852  0.8102
  349MOL0     C46999   9.270   4.549   9.355 -0.1500 -0.5954  0.0892
  349MOL0     C47000   9.349   4.654   9.421  0.3785  0.0038 -0.0315
  349MOL0     C47001   9.463   4.606   9.509 -0.4616 -1.1512 -0.9602
  349MOL0     C47002   9.409   4.550   9.652 -0.2069  0.7715 -0.2719
  349MOL0     C47003   9.533   4.512   9.732  0.6311  0.4500 -0.2107
  349MOL0     O47004   9.630   4.437   9.661  0.0484  0.3503 -0.5200
  349MOL0     C47005   9.754   4.452   9.720  0.6881  0.5278  0.0862
  349MOL0     C47006   9.858   4.512   9.657 -0.3411  0.3216 -0.8262
  349MOL0     C47007   9.986   4.509   9.707 -0.9400  0.8909 -0.4711
  349MOL0     C47008  10.012   4.469   9.845 -0.8675 -0.3114  0.3485
  349MOL0     C47009  10.150   4.473   9.903 -0.3143  0.3471 -0.2650
  349MOL0     O47010  10.237   4.559   9.858  0.1934 -0.1431  0.4407
  349MOL0     C47011  10.368   4.550   9.897 -0.5601  0.0376 -0.2621
  349MOL0     C47012  10.423   4.649   9.971 -0.1598  0.4601  0.4490
  349MOL0     C47013  10.553   4.653  10.027 -0.2425 -0.3058  1.0007
  349MOL0     C47014  10.637   4.542  10.012 -0.0968  0.3217 -0.6896
  349MOL0     O47015  10.758   4.552  10.086 -0.1018 -0.0567  0.5894
  349MOL0     C47016  10.858   4.454  10.047  1.2734 -0.6652 -0.0567
  349MOL0     C47017  10.987   4.486  10.116 -0.7366  0.6323 -0.5861
  349MOL0     C47018  11.108   4.401  10.075 -0.1322  0.0663  0.3720
  349MOL0     C47019  11.243   4.455  10.133  0.1045 -0.1888  0.2291
  349MOL0     C47020  11.360   4.414  10.049  0.3778  0.3040  1.3226
  349MOL0     C47021  11.504   4.460  10.092 -0.5758  0.8306  0.4115
  349MOL0     C47022  11.533   4.456  10.248 -0.1089 -0.4328  0.5136
  349MOL0     C47023  11.682   4.494  10.268 -1.1078  0.6373  0.6715
  349MOL0    Cl47024  11.803   4.358  10.265 -0.0327 -0.3536 -0.1705
  349MOL0     C47025  10.581   4.426   9.942 -0.5202  0.1638  0.4395
  349MOL0     C47026  10.453   4.437   9.883 -0.3784 -1.0596 -0.1637
  349MOL0     O47027  10.174   4.385   9.986  0.5024 -0.1307 -0.3832
  349MOL0     C47028   9.904   4.412   9.912 -0.7491  0.3982 -0.1300
  349MOL0     C47029   9.775   4.403   9.853 -0.2522 -0.4575  1.2124
  349MOL0     N47030   9.163   4.575   9.273  0.1821 -0.0617  0.4465
  349MOL0     N47031   9.110   4.461   9.236 -0.2934  0.2493 -0.0353
  349MOL0     C47032   8.603   3.618   9.725  0.3045 -0.1211  0.2500
  349MOL0     C47033   8.499   3.523   9.714 -0.6802 -0.6626  1.1024
  349MOL0     C47034   8.190   3.199   9.755 -0.1454  0.2371  0.5788
  349MOL0     C47035   8.063   3.261   9.766  0.1803  0.1590  0.0079
  349MOL0     C47036   7.945   3.191   9.768 -0.1235  0.0420 -0.3481
  349MOL0     C47037   7.950   3.053   9.756  0.2658  0.7226  0.6980
  349MOL0     O47038   7.839   2.969   9.745  0.1972 -0.6511 -0.0262
  349MOL0     C47039   7.704   3.015   9.754  0.2408  0.1840 -0.0410
  349MOL0     C47040   7.602   2.898   9.779 -0.4066 -0.1177  0.2630
  349MOL0     C47041   7.602   2.799   9.657  0.4706  0.0182  0.6920
  349MOL0     C47042   7.520   2.670   9.670 -0.9493 -1.3334 -0.8353
  349MOL0     C47043   7.371   2.682   9.690 -0.0751 -0.2040 -0.7120
  349MOL0     C47044   7.255   2.701   9.700 -0.2215  0.1533  0.3400
  349MOL0     C47045   8.076   2.988   9.737  0.6256 -0.4495 -0.0560
  349MOL0     C47046   8.192   3.060   9.720 -1.1051 -0.0338  0.2247
  349MOL0     C47047   8.317   2.979   9.681 -0.0825  0.7383  0.1924
  349MOL0     H47048   8.323   3.600   9.994 -2.7804 -1.1144 -2.1590
  349MOL0     H47049   8.515   3.775  10.012  2.4364  0.3578 -0.1277
  349MOL0     H47050   8.860   3.718   9.758  0.8059  0.8043 -1.3574
  349MOL0     H47051   8.781   3.846   9.674 -2.6835 -0.0833  1.2791
  349MOL0     H47052   9.006   3.896   9.784 -1.1695 -2.4607 -0.3319
  349MOL0     H47053   8.926   3.899   9.942 -2.6725 -1.0350 -0.0682
  349MOL0     H47054   8.939   4.126   9.863  0.9633 -0.5823 -0.5253
  349MOL0     H47055   8.771   4.071   9.858  0.7722 -0.0149 -1.3634
  349MOL0     H47056   8.791   4.061   9.603 -0.9389  0.0332  1.8685
  349MOL0     H47057   8.857   4.219   9.671  2.6305  0.1468  0.7167
  349MOL0     H47058   9.088   4.132   9.664  0.1165 -2.6004  0.7055
  349MOL0     H47059   9.027   3.998   9.562  0.5304  0.5149 -0.4398
  349MOL0     H47060   8.933   4.198   9.425  2.2580 -0.1473 -3.3872
  349MOL0     H47061   9.034   4.295   9.524 -0.8836 -0.1065 -0.3436
  349MOL0     H47062   9.123   4.040   9.368  0.7609  0.1041  0.7407
  349MOL0     H47063   9.233   4.154   9.445  0.1241  2.9447 -0.3896
  349MOL0     H47064   9.227   4.169   9.189 -0.2079  3.0354 -3.0985
  349MOL0     H47065   9.056   4.210   9.202  0.0722  0.2608 -1.1485
  349MOL0     H47066   9.370   4.356   9.405 -0.2611 -3.1190 -2.1700
  349MOL0     H47067   9.393   4.721   9.347 -0.2988  0.4875 -0.0094
  349MOL0     H47068   9.268   4.705   9.475 -0.8308 -1.2809 -0.5590
  349MOL0     H47069   9.528   4.537   9.454 -0.1625 -2.1438  0.5717
  349MOL0     H47070   9.520   4.697   9.527  0.3473 -2.1477  2.2478
  349MOL0     H47071   9.335   4.470   9.638 -0.2495  0.6963  0.3542
  349MOL0     H47072   9.357   4.631   9.703  0.6043  0.7885  0.5413
  349MOL0     H47073   9.501   4.451   9.816  2.8713 -0.1999  0.2403
  349MOL0     H47074   9.579   4.606   9.765 -1.0066  1.5608 -0.9351
  349MOL0     H47075   9.833   4.554   9.560  1.1061  3.2481 -0.0498
  349MOL0     H47076  10.064   4.555   9.647 -1.2092  1.6041 -0.2788
  349MOL0     H47077  10.351   4.730   9.983 -0.9097  0.1837 -1.7452
  349MOL0     H47078  10.585   4.752  10.060 -1.4664  0.9284 -1.2846
  349MOL0     H47079  10.820   4.355  10.076 -0.0334 -0.8110 -2.0300
  349MOL0     H47080  10.870   4.452   9.938  0.1144 -2.7264 -0.1966
  349MOL0     H47081  11.006   4.594  10.120  0.1639  0.4484  1.3421
  349MOL0     H47082  10.981   4.456  10.221 -2.0068  1.4830 -0.3885
  349MOL0     H47083  11.096   4.302  10.120 -0.3778  0.0256  0.2191
  349MOL0     H47084  11.115   4.404   9.966  2.3594  2.0236  0.5030
  349MOL0     H47085  11.248   4.434  10.240 -3.1343  0.8577  0.7038
  349MOL0     H47086  11.234   4.563  10.128  0.2332 -0.2185 -1.3203
  349MOL0     H47087  11.339   4.444   9.946  0.4559 -2.0259  0.5572
  349MOL0     H47088  11.362   4.304  10.050 -0.9883  0.1818 -1.4543
  349MOL0     H47089  11.588   4.413  10.039 -1.7250  0.9334 -1.6285
  349MOL0     H47090  11.506   4.563  10.052 -4.2781  1.5455  1.6837
  349MOL0     H47091  11.503   4.365  10.301  2.0908 -0.0155  2.6999
  349MOL0     H47092  11.467   4.528  10.297 -3.4047 -0.7476 -2.9956
  349MOL0     H47093  11.720   4.568  10.197 -0.5514  0.0020  0.2948
  349MOL0     H47094  11.687   4.545  10.364 -0.8437  1.9657 -0.0273
  349MOL0     H47095  10.636   4.333   9.940  0.1776  0.5743 -0.1972
  349MOL0     H47096  10.406   4.356   9.829  0.5890 -0.2620 -2.3456
  349MOL0     H47097   9.916   4.382  10.015 -1.6259  1.0719  0.1741
  349MOL0     H47098   9.690   4.352   9.898  0.3719 -2.4285  0.2321
  349MOL0     H47099   8.666   3.627   9.638 -0.5063  2.1699 -0.1652
  349MOL0     H47100   8.493   3.477   9.616  0.4477 -0.5725  0.9798
  349MOL0     H47101   8.039   3.365   9.785 -0.2963  0.0318  0.1104
  349MOL0     H47102   7.852   3.243   9.790  0.6359  0.4326  2.3087
  349MOL0     H47103   7.676   3.056   9.656 -1.1053 -0.7146 -0.0644
  349MOL0     H47104   7.702   3.098   9.825  2.3382  0.8041 -0.6255
  349MOL0     H47105   7.498   2.934   9.785 -0.8437 -1.5102  1.6193
  349MOL0     H47106   7.613   2.842   9.872 -0.1451 -0.2203  0.1698
  349MOL0     H47107   7.706   2.766   9.647  0.6121  0.5869  0.2201
  349MOL0     H47108   7.568   2.848   9.565 -0.8087  0.5998  1.4547
  349MOL0     H47109   7.534   2.612   9.578 -0.0776 -0.0901 -1.5288
  349MOL0     H47110   7.558   2.609   9.752 -1.7109  0.0099  0.5579
  349MOL0     H47111   7.148   2.709   9.695 -0.1296  0.6220 -1.5751
  349MOL0     H47112   8.075   2.881   9.719 -0.0083 -0.4510 -0.0501
  349MOL0     H47113   8.392   3.038   9.627 -1.2723 -0.2566 -2.7958
  349MOL0     H47114   8.365   2.924   9.762  0.1868 -2.5704 -2.0111
  349MOL0     H47115   8.276   2.907   9.609 -0.7538  1.7530 -0.4670
  350MOL0     O47116   0.949   7.075   0.003 -0.3557  0.0803 -0.3768
  350MOL0     C47117   0.854   7.011  -0.032  0.1357  0.9792 -0.2097
  350MOL0     O47118   0.859   6.911  -0.120 -0.2452 -0.1793 -0.4652
  350MOL0     C47119   0.977   6.857  -0.165 -1.1740 -0.5303 -0.5577
  350MOL0     C47120   1.033   6.889  -0.297  0.0948  0.1015  0.1573
  350MOL0     C47121   1.153   6.832  -0.338  0.4721 -0.0643  0.2092
  350MOL0     C47122   1.224   6.741  -0.252  0.3298  0.6260 -1.0511
  350MOL0     O47123   1.343   6.683  -0.283  0.1163  0.1149  0.2308
  350MOL0     C47124   1.421   6.747  -0.381 -0.1504  0.3862 -0.6539
  350MOL0     C47125   1.538   6.656  -0.403  0.1312  0.6910  0.4681
  350MOL0     C47126   1.650   6.678  -0.301  0.0116 -0.5594  0.0480
  350MOL0     C47127   1.787   6.622  -0.354 -0.2319  0.1483 -0.3707
  350MOL0     C47128   1.902   6.632  -0.247  0.8139  0.2490  0.5335
  350MOL0     C47129   2.029   6.576  -0.306  0.9209 -1.0210  0.4799
  350MOL0     C47130   2.148   6.572  -0.210 -0.3985  0.5063 -0.2047
  350MOL0     C47131   2.242   6.696  -0.214 -0.4495  0.2832 -0.2372
  350MOL0     N47132   2.378   6.668  -0.149  0.6700  0.1259  0.3316
  350MOL0     C47133   2.405   6.596  -0.029  0.1401 -0.3068  0.4583
  350MOL0     C47134   2.539   6.590  -0.032 -0.2491  0.1290 -0.3194
  350MOL0     C47135   2.622   6.502   0.059  0.6128  0.3549 -0.3963
  350MOL0     C47136   2.673   6.574   0.180  0.9044 -0.8477 -0.6298
  350MOL0     C47137   2.807   6.644   0.146  0.0018  0.6868  0.3338
  350MOL0     C47138   2.925   6.550   0.159  0.1070 -0.3543 -0.0736
  350MOL0     O47139   3.043   6.634   0.165  0.7686 -0.7034  0.6054
  350MOL0     C47140   3.167   6.576   0.171 -0.0479 -0.3648 -1.1606
  350MOL0     C47141   3.279   6.665   0.178  0.8691  0.0859 -0.5060
  350MOL0     C47142   3.408   6.625   0.214  1.0002  0.3027 -0.4833
  350MOL0     C47143   3.430   6.488   0.231 -0.0607  0.2084 -0.5704
  350MOL0     C47144   3.566   6.440   0.267 -0.5674 -0.3375 -1.2813
  350MOL0     O47145   3.585   6.298   0.245 -0.4795 -0.1093  0.3221
  350MOL0     C47146   3.706   6.251   0.287  0.0670  0.1222  0.3496
  350MOL0     C47147   3.790   6.182   0.197  0.6073  0.8866  0.8578
  350MOL0     C47148   3.909   6.128   0.234 -0.2683  0.8923 -0.7442
  350MOL0     C47149   3.953   6.146   0.370  0.4804  0.1950  0.9288
  350MOL0     O47150   4.065   6.088   0.416 -0.3481 -0.5192  0.0700
  350MOL0     C47151   4.174   6.049   0.336 -0.4814 -0.4926 -0.4575
  350MOL0     C47152   4.283   6.014   0.439  0.5606  0.9147 -0.0669
  350MOL0     C47153   4.418   6.029   0.361 -0.0387  0.5276 -0.1719
  350MOL0     C47154   4.532   5.961   0.441  0.1208  0.5456 -0.3650
  350MOL0     C47155   4.662   5.969   0.366 -0.6598 -0.1115  0.0669
  350MOL0     C47156   4.784   5.933   0.445 -0.3619  0.5682  0.2291
  350MOL0     C47157   4.915   5.988   0.375  0.1684  0.3200 -0.7853
  350MOL0     C47158   5.045   5.954   0.449 -1.0750  0.6477  0.0360
  350MOL0    Cl47159   5.067   5.775   0.493 -0.3337  0.0571  0.1868
  350MOL0     C47160   3.869   6.208   0.460 -0.8708 -0.1172  0.1413
  350MOL0     C47161   3.742   6.253   0.427  1.0951  0.1999  0.1163
  350MOL0     O47162   3.654   6.512   0.313  0.3617  0.1115  0.0433
  350MOL0     C47163   3.324   6.390   0.220 -0.3375 -0.5318 -0.1867
  350MOL0     C47164   3.196   6.435   0.196 -0.0073  0.0226 -1.1814
  350MOL0     N47165   2.585   6.679  -0.132 -0.9557 -0.0368 -0.5564
  350MOL0     N47166   2.488   6.727  -0.201 -0.6362  0.0154 -0.1277
  350MOL0     C47167   1.162   6.711  -0.128 -0.8398 -1.1583  0.1750
  350MOL0     C47168   1.051   6.776  -0.084  0.3835  0.4683 -0.8183
  350MOL0     C47169   0.722   7.049   0.023  0.4579  0.0801  1.2595
  350MOL0     C47170   0.608   7.025  -0.057 -0.0704 -0.5267  0.3500
  350MOL0     C47171   0.481   7.062  -0.009 -0.2258  0.3379 -0.1970
  350MOL0     C47172   0.458   7.115   0.125  0.3687  0.6597  0.3970
  350MOL0     O47173   0.324   7.142   0.161  0.1847  0.2731  0.1924
  350MOL0     C47174   0.203   7.107   0.086 -0.2146  0.4470  0.1658
  350MOL0     C47175   0.069   7.140   0.146 -0.5746  0.9474  0.0596
  350MOL0     C47176  -0.037   7.043   0.107 -0.0096  0.0868  0.5016
  350MOL0     C47177  -0.189   7.083   0.126 -0.5353 -0.8477 -0.6356
  350MOL0     C47178  -0.233   7.176   0.025 -0.2567 -0.4749  0.4484
  350MOL0     C47179  -0.263   7.261  -0.060 -0.0287  0.1890 -0.6903
  350MOL0     C47180   0.569   7.135   0.197 -0.6735  0.5595  0.2681
  350MOL0     C47181   0.700   7.105   0.155 -0.2313 -0.0630  0.3791
  350MOL0     C47182   0.808   7.141   0.259 -0.7443  0.6957  0.5015
  350MOL0     H47183   0.979   6.970  -0.345 -0.8630  0.3190  1.5434
  350MOL0     H47184   1.179   6.860  -0.440  1.6631 -1.1651  0.1839
  350MOL0     H47185   1.368   6.773  -0.473 -0.7825 -1.1931 -0.7490
  350MOL0     H47186   1.447   6.841  -0.331  0.4742  0.8272 -1.7677
  350MOL0     H47187   1.573   6.676  -0.505  0.7716  0.0707  0.5591
  350MOL0     H47188   1.506   6.551  -0.396  0.1791  0.3729 -2.6566
  350MOL0     H47189   1.632   6.618  -0.211  0.5987  1.3348  1.4982
  350MOL0     H47190   1.660   6.784  -0.274  1.7167 -0.6125 -0.2287
  350MOL0     H47191   1.769   6.517  -0.376 -2.6821  0.6355 -1.0737
  350MOL0     H47192   1.799   6.676  -0.449 -1.5910 -0.5315 -0.9731
  350MOL0     H47193   1.916   6.738  -0.225 -0.7378  1.0836 -2.0338
  350MOL0     H47194   1.871   6.577  -0.158  0.3787 -0.2199  0.1061
  350MOL0     H47195   1.998   6.475  -0.333  1.6287 -1.0635 -0.1808
  350MOL0     H47196   2.058   6.631  -0.396 -1.8339 -0.4503 -0.1549
  350MOL0     H47197   2.206   6.487  -0.247  1.4317  1.5646  0.1279
  350MOL0     H47198   2.120   6.555  -0.105  2.6413  1.1844  0.8023
  350MOL0     H47199   2.251   6.733  -0.317 -2.4113  2.5913  0.3396
  350MOL0     H47200   2.200   6.778  -0.156 -0.0822 -1.1624  2.2179
  350MOL0     H47201   2.337   6.546   0.039 -1.6363  1.0815 -0.2020
  350MOL0     H47202   2.564   6.410   0.074  1.9138 -0.4743 -0.3162
  350MOL0     H47203   2.713   6.474   0.006  1.1402  1.2094  0.0377
  350MOL0     H47204   2.601   6.646   0.219 -1.0835 -2.0083 -1.9761
  350MOL0     H47205   2.694   6.497   0.254  0.0459 -0.1149  0.4109
  350MOL0     H47206   2.818   6.724   0.220 -1.2658  1.1560  0.0344
  350MOL0     H47207   2.802   6.690   0.047 -0.0061  2.2120  1.0272
  350MOL0     H47208   2.919   6.494   0.065 -4.2106 -1.2263  0.5046
  350MOL0     H47209   2.916   6.482   0.244  0.6287 -0.4290 -0.0766
  350MOL0     H47210   3.262   6.772   0.175 -1.4745 -0.2630 -2.6056
  350MOL0     H47211   3.486   6.697   0.235 -0.7230  1.4290  2.6621
  350MOL0     H47212   3.757   6.164   0.095 -1.0618 -0.7194  1.6311
  350MOL0     H47213   3.975   6.074   0.167  1.6718 -0.0641  1.8073
  350MOL0     H47214   4.156   5.952   0.287 -3.2979 -0.6300  0.6688
  350MOL0     H47215   4.212   6.115   0.258 -3.2525  1.0371 -0.6480
  350MOL0     H47216   4.289   6.090   0.518  0.4030 -0.2025  1.0608
  350MOL0     H47217   4.261   5.916   0.483  2.0275  0.9107  0.7277
  350MOL0     H47218   4.405   5.969   0.271 -2.1185  0.5533  0.0549
  350MOL0     H47219   4.448   6.133   0.344 -0.5367  1.8407  5.1113
  350MOL0     H47220   4.507   5.856   0.458 -0.7418  0.7241 -0.4798
  350MOL0     H47221   4.544   6.007   0.539  1.4560 -0.1151 -0.1854
  350MOL0     H47222   4.674   6.065   0.314 -0.4593 -0.0610  0.2065
  350MOL0     H47223   4.656   5.896   0.285 -1.7011 -1.9157  1.6864
  350MOL0     H47224   4.763   5.981   0.541 -3.4023 -1.1069  0.5267
  350MOL0     H47225   4.787   5.823   0.445 -1.5046  0.4562 -2.7641
  350MOL0     H47226   4.906   6.096   0.361 -0.9778  0.3208 -0.1510
  350MOL0     H47227   4.934   5.950   0.274  0.2068  3.6870 -2.1533
  350MOL0     H47228   5.126   5.982   0.381 -1.2696  0.2762 -0.3555
  350MOL0     H47229   5.066   6.023   0.531 -1.8772  0.2530  0.5779
  350MOL0     H47230   3.896   6.205   0.565  0.6686 -3.5445 -0.2189
  350MOL0     H47231   3.671   6.300   0.494  1.3974  0.3692  0.3248
  350MOL0     H47232   3.347   6.284   0.223  1.9001 -0.1909 -1.8120
  350MOL0     H47233   3.119   6.358   0.189  0.2395 -0.0634 -4.0804
  350MOL0     H47234   1.210   6.641  -0.060  1.1115  0.6729  0.7972
  350MOL0     H47235   1.017   6.744   0.014 -2.3836  0.8067 -1.5832
  350MOL0     H47236   0.610   6.985  -0.157  1.3143  0.1277  0.0885
  350MOL0     H47237   0.397   7.050  -0.076 -1.2379 -1.4546  1.2698
  350MOL0     H47238   0.203   6.998   0.084  3.1218  0.2843  1.9322
  350MOL0     H47239   0.208   7.152  -0.014 -3.0747 -0.4098 -0.4463
  350MOL0     H47240   0.028   7.237   0.114  2.0146  2.6012  1.4171
  350MOL0     H47241   0.092   7.135   0.253  0.4024 -2.8129 -0.1955
  350MOL0     H47242  -0.019   6.961   0.177  0.7807 -0.4327 -0.3063
  350MOL0     H47243  -0.016   7.014   0.004  1.5354 -0.7060  1.0191
  350MOL0     H47244  -0.253   6.994   0.122  1.2602 -2.2982  0.8940
  350MOL0     H47245  -0.188   7.140   0.220 -1.6680  1.6484 -2.0366
  350MOL0     H47246  -0.277   7.332  -0.139  6.8867  0.2902 -2.4749
  350MOL0     H47247   0.560   7.189   0.291  2.2876  0.6342  0.5843
  350MOL0     H47248   0.763   7.211   0.330 -0.5051  0.8604  0.4941
  350MOL0     H47249   0.849   7.058   0.317 -1.4932  1.9142  2.9125
  350MOL0     H47250   0.901   7.193   0.232 -0.3371  1.6477  3.3393
  351MOL0     O47251   1.564  10.656   4.920 -0.1690 -0.0990  0.2963
  351MOL0     C47252   1.494  10.629   5.017  0.9046 -0.9303  0.2470
  351MOL0     O47253   1.545  10.571   5.132  0.1033  0.1241  0.1020
  351MOL0     C47254   1.671  10.598   5.173 -0.2572 -0.3695  0.7227
  351MOL0     C47255   1.696  10.696   5.267 -0.1777 -0.6752  0.0590
  351MOL0     C47256   1.829  10.700   5.323  1.8585  0.1186 -0.2551
  351MOL0     C47257   1.929  10.607   5.282 -1.2440 -0.4798 -0.1927
  351MOL0     O47258   2.057  10.605   5.340  0.0628  0.5642  1.4300
  351MOL0     C47259   2.066  10.577   5.476 -0.2591 -0.4589 -0.0387
  351MOL0     C47260   2.147  10.682   5.553  0.0448 -0.2592  0.1507
  351MOL0     C47261   2.284  10.707   5.485 -0.5005 -0.9195  0.1842
  351MOL0     C47262   2.368  10.805   5.562  0.0240 -0.4206 -0.4557
  351MOL0     C47263   2.512  10.819   5.503 -0.2157 -0.0907 -0.4322
  351MOL0     C47264   2.571  10.953   5.557  0.6740 -1.4537 -0.3535
  351MOL0     C47265   2.700  10.995   5.471 -0.0308  1.2229  0.0478
  351MOL0     C47266   2.679  11.060   5.334  1.0157  0.4868  0.1273
  351MOL0     N47267   2.797  11.072   5.248 -0.3098 -0.1344  0.3118
  351MOL0     C47268   2.873  10.994   5.159 -0.6415  0.1281 -0.2355
  351MOL0     C47269   2.981  11.065   5.115 -0.2483 -0.4011  0.1483
  351MOL0     C47270   3.093  11.028   5.024 -0.1426 -0.8902  0.4113
  351MOL0     C47271   3.231  11.091   5.062  1.2000  0.2779  0.2201
  351MOL0     C47272   3.226  11.238   5.031 -0.1059 -0.0974  0.3695
  351MOL0     C47273   3.371  11.282   5.047  0.4708 -0.6031  1.1836
  351MOL0     O47274   3.383  11.421   5.020 -0.1316  0.5839 -0.4435
  351MOL0     C47275   3.512  11.468   4.991 -0.4183  0.3416 -1.2482
  351MOL0     C47276   3.523  11.611   4.994  0.1533 -0.1403  0.0218
  351MOL0     C47277   3.645  11.674   4.977  0.0120  0.1674  0.2103
  351MOL0     C47278   3.763  11.602   4.956  0.1447 -0.7750 -0.2998
  351MOL0     C47279   3.891  11.664   4.933  0.1208  0.0248 -0.6216
  351MOL0     O47280   3.996  11.582   4.901  0.2534 -0.2493  0.7407
  351MOL0     C47281   4.118  11.627   4.872 -0.0168 -0.3753  0.3915
  351MOL0     C47282   4.190  11.733   4.936 -0.1764  0.9357 -0.0927
  351MOL0     C47283   4.321  11.771   4.893 -0.6538 -0.7568  0.1530
  351MOL0     C47284   4.380  11.713   4.784  0.3330 -0.2995 -0.2788
  351MOL0     O47285   4.504  11.756   4.732  0.6773 -0.0607  0.3566
  351MOL0     C47286   4.587  11.836   4.812  0.4269 -0.0184 -0.3456
  351MOL0     C47287   4.725  11.834   4.748 -0.2804 -0.8866  0.2517
  351MOL0     C47288   4.715  11.902   4.608  0.0760  0.1759 -0.2137
  351MOL0     C47289   4.834  11.874   4.511 -0.6741  0.6483  0.2909
  351MOL0     C47290   4.802  11.905   4.362  0.4970 -0.2835  0.7719
  351MOL0     C47291   4.914  11.889   4.260 -0.2347  1.0515  0.3401
  351MOL0     C47292   4.875  11.908   4.113 -0.6371  0.7495  0.4121
  351MOL0     C47293   4.981  11.866   4.010 -0.6510  0.4790  0.0974
  351MOL0    Cl47294   4.989  11.689   4.008 -0.1833 -0.4656 -0.2376
  351MOL0     C47295   4.310  11.618   4.722  0.4691  0.2993  0.4947
  351MOL0     C47296   4.188  11.569   4.765 -0.3924 -0.5420 -0.0966
  351MOL0     O47297   3.896  11.789   4.928 -0.4297 -0.2835  0.6262
  351MOL0     C47298   3.757  11.458   4.962  0.9994 -0.0669  0.0323
  351MOL0     C47299   3.634  11.395   4.975 -0.0045 -0.2368  0.2596
  351MOL0     N47300   2.963  11.188   5.174 -0.0360  0.0926 -0.1575
  351MOL0     N47301   2.856  11.198   5.247  0.5993 -0.7723  0.6783
  351MOL0     C47302   1.901  10.525   5.173  0.3611 -1.1188  0.0741
  351MOL0     C47303   1.772  10.516   5.124 -0.5910  0.6281  0.1840
  351MOL0     C47304   1.339  10.626   4.998  0.5544  0.4617  0.3125
  351MOL0     C47305   1.268  10.567   5.099 -0.1731 -0.1137  0.3670
  351MOL0     C47306   1.129  10.579   5.096 -0.2663  0.5208 -1.0565
  351MOL0     C47307   1.066  10.653   4.996  0.9569 -0.3545  0.2437
  351MOL0     O47308   0.933  10.675   5.005  0.6432  0.0574 -0.4606
  351MOL0     C47309   0.844  10.655   4.895  0.1489 -0.5213 -0.4492
  351MOL0     C47310   0.704  10.701   4.936 -0.9954  0.2107 -0.0003
  351MOL0     C47311   0.647  10.651   5.064  0.0103 -0.0668  0.9281
  351MOL0     C47312   0.518  10.729   5.104  0.6924  0.7036  0.0418
  351MOL0     C47313   0.454  10.676   5.234  0.6258 -0.8903 -0.2432
  351MOL0     C47314   0.405  10.628   5.333 -1.0493  1.1235  0.3580
  351MOL0     C47315   1.133  10.685   4.877  0.7407  0.2892 -0.4042
  351MOL0     C47316   1.275  10.670   4.877  0.7486 -0.0558  0.2604
  351MOL0     C47317   1.351  10.716   4.762  0.8609 -0.2594  0.9008
  351MOL0     H47318   1.612  10.758   5.298  0.1968  0.8342 -1.7130
  351MOL0     H47319   1.850  10.777   5.396 -1.0912 -2.0427  3.1976
  351MOL0     H47320   1.967  10.566   5.522 -0.8417  0.0812 -1.1221
  351MOL0     H47321   2.115  10.480   5.486 -1.1736 -1.2598 -2.5086
  351MOL0     H47322   2.164  10.665   5.660  0.6047  0.7043  0.2289
  351MOL0     H47323   2.085  10.772   5.553  2.3275  1.4289  1.6938
  351MOL0     H47324   2.270  10.746   5.383 -2.7392  0.7613  1.0540
  351MOL0     H47325   2.330  10.609   5.466 -0.1842 -0.4194 -1.9657
  351MOL0     H47326   2.333  10.908   5.568  0.5365 -0.3163  1.2051
  351MOL0     H47327   2.374  10.772   5.666 -0.4405 -1.5736 -0.7707
  351MOL0     H47328   2.572  10.731   5.526 -1.2435 -0.7816 -0.3197
  351MOL0     H47329   2.498  10.828   5.395 -1.0030 -0.5466 -0.3819
  351MOL0     H47330   2.495  11.029   5.541  0.5660 -2.0223 -2.9968
  351MOL0     H47331   2.584  10.935   5.664 -0.9390  1.1565  0.3450
  351MOL0     H47332   2.771  10.914   5.455  1.6292  2.7687 -0.6679
  351MOL0     H47333   2.754  11.075   5.523 -2.2365  1.0927  2.7661
  351MOL0     H47334   2.614  10.996   5.274  1.0277  1.3122 -0.8049
  351MOL0     H47335   2.636  11.160   5.342 -0.9641 -0.1045 -1.9901
  351MOL0     H47336   2.866  10.888   5.136  0.3184 -0.2099  0.8911
  351MOL0     H47337   3.100  10.919   5.023 -0.6790 -0.9281 -0.6117
  351MOL0     H47338   3.066  11.061   4.924 -1.6615 -0.7868  0.8352
  351MOL0     H47339   3.240  11.081   5.171 -1.1491  0.4327  0.4906
  351MOL0     H47340   3.310  11.034   5.013  2.0414  1.0596  0.6507
  351MOL0     H47341   3.166  11.306   5.092 -0.3667  3.3465 -3.2876
  351MOL0     H47342   3.190  11.260   4.929  1.1950  3.7192  0.5941
  351MOL0     H47343   3.423  11.219   4.975 -0.1775 -0.1494  0.2901
  351MOL0     H47344   3.411  11.256   5.145  4.8826  0.2954 -0.1676
  351MOL0     H47345   3.438  11.675   5.013  1.3396  1.5180 -0.0890
  351MOL0     H47346   3.642  11.783   4.985 -1.8815  0.3674 -1.9182
  351MOL0     H47347   4.142  11.781   5.021 -0.3481  0.5615  0.0274
  351MOL0     H47348   4.375  11.849   4.945  0.0628 -2.0441  1.3997
  351MOL0     H47349   4.544  11.936   4.821 -2.3101 -1.2311  1.4262
  351MOL0     H47350   4.589  11.788   4.911  1.7541  0.2498 -0.2249
  351MOL0     H47351   4.802  11.882   4.808  0.6109  2.7522 -3.3500
  351MOL0     H47352   4.753  11.729   4.731  0.3916 -0.4759 -1.3797
  351MOL0     H47353   4.626  11.867   4.553 -0.0345 -3.2994  1.8638
  351MOL0     H47354   4.701  12.010   4.614 -3.8155 -0.1221 -1.1352
  351MOL0     H47355   4.856  11.767   4.523 -0.1284  0.8583  1.2281
  351MOL0     H47356   4.922  11.929   4.543 -1.2268  2.2210 -0.8046
  351MOL0     H47357   4.771  12.010   4.356 -0.2988 -0.5002  0.9829
  351MOL0     H47358   4.711  11.850   4.339 -0.5953  1.1912  1.3957
  351MOL0     H47359   4.992  11.963   4.280 -0.2212  0.6736  1.7849
  351MOL0     H47360   4.952  11.787   4.275 -3.0973  0.0049  0.9820
  351MOL0     H47361   4.851  12.014   4.103  0.1003  0.7748 -1.4704
  351MOL0     H47362   4.779  11.856   4.101 -0.8112  1.5304 -1.8767
  351MOL0     H47363   4.963  11.898   3.907  0.5761 -1.7357 -0.8594
  351MOL0     H47364   5.076  11.897   4.054 -0.2081 -0.9232  0.1683
  351MOL0     H47365   4.350  11.591   4.625  2.9449  2.6595  0.7609
  351MOL0     H47366   4.141  11.493   4.704  1.0642 -3.1774  1.8600
  351MOL0     H47367   3.850  11.402   4.967  1.4859  0.8443  2.1180
  351MOL0     H47368   3.619  11.287   4.981 -0.2379 -0.1651  1.2300
  351MOL0     H47369   1.978  10.456   5.140 -0.2968 -2.5917  1.5449
  351MOL0     H47370   1.746  10.443   5.048 -1.0130  1.2232 -0.2485
  351MOL0     H47371   1.319  10.518   5.182  2.5783  0.9290 -0.6136
  351MOL0     H47372   1.068  10.538   5.176  1.6010  1.0370  0.7121
  351MOL0     H47373   0.840  10.551   4.860 -0.8489 -0.5595 -0.2639
  351MOL0     H47374   0.872  10.711   4.805 -2.0473 -0.4797 -1.1657
  351MOL0     H47375   0.634  10.666   4.860 -0.3560  0.5027 -0.7351
  351MOL0     H47376   0.706  10.810   4.941  1.0751  0.2030  0.0812
  351MOL0     H47377   0.723  10.655   5.143  0.8974 -0.9300  0.1332
  351MOL0     H47378   0.621  10.546   5.052  0.1381  0.0615 -0.5963
  351MOL0     H47379   0.537  10.836   5.116  0.3657  0.7651  0.0165
  351MOL0     H47380   0.451  10.715   5.019 -1.9787 -1.0852  2.2652
  351MOL0     H47381   0.360  10.577   5.416 -3.6279  0.4857 -1.3127
  351MOL0     H47382   1.079  10.732   4.796 -1.6666  2.1994  2.1330
  351MOL0     H47383   1.407  10.633   4.718  1.6906  0.7798 -0.0793
  351MOL0     H47384   1.274  10.736   4.686 -1.2561  1.4567  3.3303
  351MOL0     H47385   1.414  10.805   4.773 -1.0775  1.2365  0.4808
  352MOL0     O47386   1.814   1.325   0.146  0.4082  0.2581 -0.1758
  352MOL0     C47387   1.797   1.292   0.027  0.1152  0.2047 -0.1040
  352MOL0     O47388   1.899   1.269  -0.061 -0.0639  0.6003 -0.1853
  352MOL0     C47389   2.038   1.257  -0.028  0.9992 -0.6897  0.5643
  352MOL0     C47390   2.090   1.231   0.099 -1.3459  0.0665  0.8207
  352MOL0     C47391   2.234   1.215   0.106  0.2275  0.1343  0.5757
  352MOL0     C47392   2.313   1.225  -0.011 -0.0572  0.2628  0.6519
  352MOL0     O47393   2.446   1.192  -0.010 -0.6049  0.5770  0.4748
  352MOL0     C47394   2.519   1.223   0.113 -1.0590 -0.4089 -0.1619
  352MOL0     C47395   2.674   1.219   0.104  0.1688 -0.7553 -0.3031
  352MOL0     C47396   2.717   1.078   0.055 -0.7191  0.4711  0.4619
  352MOL0     C47397   2.862   1.083   0.012  0.2149  0.4241  1.1411
  352MOL0     C47398   2.873   0.957  -0.082 -0.4459 -0.5192 -0.6564
  352MOL0     C47399   3.021   0.937  -0.130  0.5562 -0.8976  0.2778
  352MOL0     C47400   3.102   0.850  -0.041 -0.0851  0.5201  0.3427
  352MOL0     C47401   3.243   0.831  -0.089 -0.0023 -0.5184  0.9631
  352MOL0     N47402   3.252   0.750  -0.208  0.1144  0.5010  0.4972
  352MOL0     C47403   3.358   0.755  -0.289 -0.1580 -0.3767 -0.3717
  352MOL0     C47404   3.339   0.641  -0.366  0.4220 -0.4324 -0.1051
  352MOL0     C47405   3.447   0.581  -0.457 -0.1673 -1.0135  0.6408
  352MOL0     C47406   3.488   0.675  -0.571 -0.3717  0.0773  0.1924
  352MOL0     C47407   3.557   0.595  -0.684 -0.2521  0.4984  0.1878
  352MOL0     C47408   3.682   0.526  -0.641 -0.0601  0.9662  0.3383
  352MOL0     O47409   3.720   0.435  -0.745 -1.0661 -0.1607  0.3260
  352MOL0     C47410   3.852   0.402  -0.763 -0.0894  0.0444  0.1944
  352MOL0     C47411   3.955   0.450  -0.683  0.0084 -0.5074 -0.4740
  352MOL0     C47412   4.086   0.398  -0.699 -0.4965  0.5761 -0.4081
  352MOL0     C47413   4.111   0.311  -0.810 -0.7486  0.3391  1.2865
  352MOL0     C47414   4.251   0.288  -0.853 -0.5186 -0.4676 -0.0309
  352MOL0     O47415   4.350   0.334  -0.781 -0.0929  0.1198  0.7978
  352MOL0     C47416   4.472   0.323  -0.842  1.1445  0.1098  0.3105
  352MOL0     C47417   4.558   0.253  -0.756  0.1262 -0.1464  0.5701
  352MOL0     C47418   4.697   0.265  -0.784  0.3117  0.4720 -0.1055
  352MOL0     C47419   4.753   0.342  -0.883  1.1571  0.2074 -0.1108
  352MOL0     O47420   4.885   0.343  -0.916 -0.6535 -0.6434 -0.7860
  352MOL0     C47421   4.941   0.443  -1.001 -0.4998  0.1983  0.9968
  352MOL0     C47422   5.092   0.452  -0.989 -0.1654 -0.2695 -0.0781
  352MOL0     C47423   5.154   0.331  -1.045 -0.7847  0.3187  0.3332
  352MOL0     C47424   5.308   0.329  -1.025 -0.1051  0.0752 -0.6369
  352MOL0     C47425   5.400   0.217  -1.097  0.5526 -0.6189 -0.2442
  352MOL0     C47426   5.556   0.217  -1.074 -0.1706 -0.2223 -0.1748
  352MOL0     C47427   5.628   0.282  -1.182  0.1237  0.7657 -0.7512
  352MOL0     C47428   5.771   0.323  -1.140 -0.7637  0.4892  0.5219
  352MOL0    Cl47429   5.849   0.410  -1.277  0.3998 -0.3372 -0.2492
  352MOL0     C47430   4.655   0.396  -0.967  0.1296 -0.0004 -0.1505
  352MOL0     C47431   4.513   0.394  -0.951 -0.1201  0.6912 -0.4290
  352MOL0     O47432   4.254   0.239  -0.967 -0.5947 -0.0596  0.2575
  352MOL0     C47433   4.006   0.262  -0.880 -0.1637 -0.6234 -0.8824
  352MOL0     C47434   3.882   0.310  -0.857  0.0223  0.4059  0.2258
  352MOL0     N47435   3.206   0.595  -0.345 -0.7513  0.1795  0.3718
  352MOL0     N47436   3.162   0.652  -0.246 -0.0671  0.1414 -1.0393
  352MOL0     C47437   2.257   1.265  -0.134  0.5617 -0.0412  0.0298
  352MOL0     C47438   2.117   1.281  -0.145  0.3150  0.7782 -0.7763
  352MOL0     C47439   1.662   1.282  -0.029 -0.1434 -0.3409  0.9908
  352MOL0     C47440   1.647   1.282  -0.171 -0.6256 -0.1031  0.4634
  352MOL0     C47441   1.522   1.249  -0.228 -0.4460  0.0510 -0.7939
  352MOL0     C47442   1.413   1.212  -0.147 -0.4912 -0.3551  0.4378
  352MOL0     O47443   1.299   1.160  -0.203 -0.0515  0.1712  0.3606
  352MOL0     C47444   1.276   1.159  -0.341  0.4448  0.4000  0.1191
  352MOL0     C47445   1.141   1.095  -0.352  1.0284  0.3611 -0.0150
  352MOL0     C47446   1.129   0.947  -0.292 -0.5581 -0.4152 -0.1438
  352MOL0     C47447   1.092   0.840  -0.404 -0.4512 -0.2165  0.4710
  352MOL0     C47448   0.952   0.868  -0.434 -0.0767 -0.2746  0.4991
  352MOL0     C47449   0.837   0.864  -0.458  0.0437  0.4278  0.3734
  352MOL0     C47450   1.422   1.218  -0.010 -0.4667 -0.1349  0.4959
  352MOL0     C47451   1.546   1.254   0.050  0.5927 -0.3184 -0.4761
  352MOL0     C47452   1.544   1.253   0.201  0.2943 -0.0477  1.4130
  352MOL0     H47453   2.024   1.214   0.183 -3.0472  0.9200 -0.2813
  352MOL0     H47454   2.278   1.195   0.203  1.2080 -0.0670  0.0934
  352MOL0     H47455   2.511   1.327   0.145 -0.9156 -0.5579  0.3705
  352MOL0     H47456   2.498   1.154   0.196  0.1302 -0.0486  0.4670
  352MOL0     H47457   2.713   1.234   0.205 -0.2509  0.3838 -0.2917
  352MOL0     H47458   2.721   1.303   0.050  0.3802  0.6537  1.9534
  352MOL0     H47459   2.660   1.049  -0.033  1.7561 -0.8417 -0.8015
  352MOL0     H47460   2.703   1.007   0.138 -0.1822  1.0748  1.0874
  352MOL0     H47461   2.886   1.175  -0.043 -0.6113  2.6335  4.2023
  352MOL0     H47462   2.932   1.076   0.096  2.4309  1.9375 -0.4456
  352MOL0     H47463   2.843   0.862  -0.037  3.7950 -1.1157  1.3938
  352MOL0     H47464   2.813   0.984  -0.170 -0.1488  0.0342 -0.6914
  352MOL0     H47465   3.008   0.890  -0.228 -0.0076  3.6516 -2.1159
  352MOL0     H47466   3.062   1.038  -0.137  1.9403 -1.5751 -2.7559
  352MOL0     H47467   3.041   0.759  -0.037 -1.5723  1.1204 -4.0277
  352MOL0     H47468   3.117   0.900   0.055  4.3477 -0.0121  0.1597
  352MOL0     H47469   3.290   0.927  -0.110 -0.8660 -0.0332  1.1998
  352MOL0     H47470   3.303   0.790  -0.006  1.4977  3.3577  2.0167
  352MOL0     H47471   3.456   0.802  -0.295 -0.2733  0.1418  1.2864
  352MOL0     H47472   3.530   0.558  -0.389  0.2048  0.0501  0.5578
  352MOL0     H47473   3.415   0.487  -0.504 -1.4780 -0.8038  1.0696
  352MOL0     H47474   3.397   0.719  -0.613 -0.7761 -1.3606 -0.5019
  352MOL0     H47475   3.566   0.745  -0.541 -1.1349  2.4487 -2.8956
  352MOL0     H47476   3.581   0.662  -0.767  0.5090 -0.0053 -0.0026
  352MOL0     H47477   3.490   0.522  -0.731  0.4405  1.1603 -1.9880
  352MOL0     H47478   3.673   0.462  -0.552 -0.5838 -1.1309 -1.1428
  352MOL0     H47479   3.746   0.611  -0.616 -1.2137  1.2486  2.6961
  352MOL0     H47480   3.931   0.529  -0.612 -0.9830 -0.1950 -1.1223
  352MOL0     H47481   4.177   0.436  -0.653 -0.4272  2.1806 -1.7513
  352MOL0     H47482   4.515   0.217  -0.663 -0.2758 -0.3152  0.3229
  352MOL0     H47483   4.753   0.206  -0.712 -1.6464 -0.8364  0.4179
  352MOL0     H47484   4.907   0.421  -1.103  0.9453  1.9736  0.0719
  352MOL0     H47485   4.904   0.543  -0.976  3.5303  2.2181 -0.2723
  352MOL0     H47486   5.127   0.547  -1.030 -1.3608  1.5078  2.7244
  352MOL0     H47487   5.105   0.461  -0.881 -1.6277  1.7446  0.0014
  352MOL0     H47488   5.110   0.245  -0.994 -1.7566  0.3651 -0.3968
  352MOL0     H47489   5.137   0.326  -1.153  1.1542  1.3654 -0.0581
  352MOL0     H47490   5.320   0.308  -0.919  0.9736 -0.6514 -0.8781
  352MOL0     H47491   5.342   0.428  -1.057  1.5830 -1.0736 -2.6843
  352MOL0     H47492   5.389   0.220  -1.206  1.3425 -1.8478 -0.3688
  352MOL0     H47493   5.358   0.121  -1.067  0.2170 -0.2527  0.4900
  352MOL0     H47494   5.573   0.276  -0.983 -0.0982 -1.1359  0.4117
  352MOL0     H47495   5.592   0.116  -1.057 -0.4488 -0.3274 -0.2024
  352MOL0     H47496   5.583   0.380  -1.201 -1.5069 -0.1150 -1.7730
  352MOL0     H47497   5.613   0.214  -1.267 -3.3823  2.7690 -1.9471
  352MOL0     H47498   5.775   0.389  -1.053  2.0911  2.2333 -0.7641
  352MOL0     H47499   5.834   0.236  -1.120 -1.0216 -0.3640 -1.9351
  352MOL0     H47500   4.683   0.458  -1.052 -2.2919  0.4316 -0.6939
  352MOL0     H47501   4.442   0.455  -1.006 -4.2778 -0.5100  3.0968
  352MOL0     H47502   4.016   0.202  -0.970 -0.1890 -3.9467  1.1623
  352MOL0     H47503   3.799   0.263  -0.908 -0.3160 -0.3234  1.4221
  352MOL0     H47504   2.321   1.260  -0.222 -0.7679  0.2202 -0.9900
  352MOL0     H47505   2.063   1.297  -0.237 -1.8762  0.4379  0.3932
  352MOL0     H47506   1.730   1.302  -0.238 -1.1036  0.5649  0.0567
  352MOL0     H47507   1.512   1.251  -0.336 -4.1128  0.8776 -0.5760
  352MOL0     H47508   1.337   1.091  -0.401 -0.4611 -0.7483  0.4486
  352MOL0     H47509   1.274   1.264  -0.373  0.1024  0.2877 -0.2361
  352MOL0     H47510   1.102   1.099  -0.454  2.2889  0.6073 -0.4982
  352MOL0     H47511   1.082   1.164  -0.291  1.4862 -0.7797  1.7938
  352MOL0     H47512   1.073   0.934  -0.200  1.1373  2.4526  1.4478
  352MOL0     H47513   1.228   0.916  -0.256 -1.1792 -1.5647  0.6307
  352MOL0     H47514   1.154   0.839  -0.494 -3.4668  0.6072 -1.7928
  352MOL0     H47515   1.097   0.737  -0.369 -0.2806  0.2213  1.7726
  352MOL0     H47516   0.733   0.839  -0.457 -0.3287  1.8511 -0.5138
  352MOL0     H47517   1.327   1.184   0.030 -2.4702  1.1483 -2.7478
  352MOL0     H47518   1.444   1.245   0.245 -1.2793  2.0598 -1.4229
  352MOL0     H47519   1.606   1.173   0.243  3.0718  1.2812  0.0935
  352MOL0     H47520   1.587   1.347   0.236 -1.3970  0.9028  1.0469
  353MOL0     O47521   4.819   6.179   2.177  0.1877  0.4246  0.2500
  353MOL0     C47522   4.822   6.073   2.244 -0.1059  0.5470  0.6042
  353MOL0     O47523   4.728   6.030   2.333  0.2915 -0.0886 -0.6800
  353MOL0     C47524   4.601   6.092   2.328 -0.4101  0.4450 -1.3889
  353MOL0     C47525   4.543   6.125   2.446  0.7043  0.1989  0.2657
  353MOL0     C47526   4.411   6.167   2.448  0.5767 -0.8645 -0.9273
  353MOL0     C47527   4.334   6.179   2.333  0.8040  0.8053 -0.0562
  353MOL0     O47528   4.202   6.225   2.358 -0.0239 -0.2439  0.0341
  353MOL0     C47529   4.128   6.287   2.249 -0.3595  0.7671  0.7110
  353MOL0     C47530   3.998   6.341   2.289 -0.1882  0.0090 -0.0027
  353MOL0     C47531   4.015   6.487   2.323  0.2937  0.0514 -0.0975
  353MOL0     C47532   4.118   6.515   2.433 -0.1051 -0.4767 -0.1699
  353MOL0     C47533   4.111   6.664   2.477 -0.6588  0.1570 -1.1041
  353MOL0     C47534   4.233   6.708   2.555 -0.2577 -0.5577  0.3958
  353MOL0     C47535   4.218   6.827   2.644  0.2398 -0.9476  1.0170
  353MOL0     C47536   4.348   6.862   2.711  0.1511 -1.0004 -0.9875
  353MOL0     N47537   4.467   6.890   2.627 -0.1255 -0.2075 -0.1030
  353MOL0     C47538   4.483   7.013   2.565  0.4751 -0.3084 -0.3231
  353MOL0     C47539   4.598   7.014   2.502 -0.1853  0.2496  0.0698
  353MOL0     C47540   4.643   7.132   2.410  0.0252  0.2035  0.5858
  353MOL0     C47541   4.774   7.200   2.427  0.5563  0.6642  0.4774
  353MOL0     C47542   4.902   7.111   2.399 -0.0534 -0.5164 -0.0892
  353MOL0     C47543   5.030   7.187   2.359 -0.0302 -0.9102 -0.3898
  353MOL0     O47544   5.013   7.263   2.239 -0.2615 -0.6932  0.0643
  353MOL0     C47545   5.130   7.335   2.204  0.6266  0.1546  0.5405
  353MOL0     C47546   5.245   7.355   2.282  1.4390 -1.4337  0.0373
  353MOL0     C47547   5.352   7.441   2.236  0.0087  0.1395  0.5184
  353MOL0     C47548   5.346   7.506   2.116 -0.1226 -0.0892  0.3757
  353MOL0     C47549   5.460   7.589   2.065  1.1666 -0.4411  0.0782
  353MOL0     O47550   5.582   7.594   2.130  0.1680 -0.2853 -0.1174
  353MOL0     C47551   5.690   7.625   2.062 -1.2764  0.4027  0.0798
  353MOL0     C47552   5.794   7.663   2.145 -0.4722 -0.4184  0.2982
  353MOL0     C47553   5.915   7.689   2.088  0.0973 -0.3822  0.1278
  353MOL0     C47554   5.939   7.680   1.947  0.4965 -0.0993 -0.6358
  353MOL0     O47555   6.052   7.716   1.877 -0.4567  0.1945  0.2344
  353MOL0     C47556   6.157   7.783   1.951 -0.3114 -0.2378  0.5007
  353MOL0     C47557   6.290   7.792   1.867  0.4022 -0.4366  0.6657
  353MOL0     C47558   6.391   7.893   1.922  0.4587  0.3482  0.1103
  353MOL0     C47559   6.494   7.940   1.819  0.0237 -0.0034  0.6160
  353MOL0     C47560   6.582   8.053   1.867  0.4300  0.5019  0.6924
  353MOL0     C47561   6.674   8.109   1.755 -0.6434 -0.4064 -0.1211
  353MOL0     C47562   6.810   8.048   1.759 -0.9187 -0.5057 -0.3955
  353MOL0     C47563   6.927   8.128   1.684 -0.2004 -0.1171  0.0506
  353MOL0    Cl47564   7.088   8.045   1.693  0.0244  0.6553  0.1760
  353MOL0     C47565   5.840   7.622   1.871 -0.0538  0.4174  0.4286
  353MOL0     C47566   5.714   7.593   1.928 -0.0432  0.8490 -0.4742
  353MOL0     O47567   5.437   7.660   1.967 -0.0426  0.3809  0.0693
  353MOL0     C47568   5.234   7.491   2.039  0.2069  0.2543 -0.1434
  353MOL0     C47569   5.126   7.410   2.081  0.3251  0.1772  0.5704
  353MOL0     N47570   4.656   6.889   2.527 -0.0433  0.1362 -0.3521
  353MOL0     N47571   4.579   6.816   2.601  1.0725  0.1658 -0.0456
  353MOL0     C47572   4.391   6.137   2.211 -0.1195 -0.3974 -0.8688
  353MOL0     C47573   4.527   6.094   2.210 -1.2048 -0.6206  0.0276
  353MOL0     C47574   4.937   5.983   2.216 -1.1842 -0.4670  0.2290
  353MOL0     C47575   4.919   5.848   2.265 -0.5715  0.5675  0.5773
  353MOL0     C47576   5.021   5.754   2.241  0.7268  0.0053  0.4073
  353MOL0     C47577   5.141   5.786   2.186 -1.3381  0.0621 -1.0241
  353MOL0     O47578   5.223   5.674   2.181 -0.8929 -0.1482  0.3099
  353MOL0     C47579   5.344   5.702   2.106 -0.0883  0.3576  0.5755
  353MOL0     C47580   5.429   5.576   2.103 -0.5341 -0.3188  0.4281
  353MOL0     C47581   5.559   5.597   2.034 -0.4338  0.6064 -0.1723
  353MOL0     C47582   5.647   5.712   2.086  0.2309 -0.4735  0.9251
  353MOL0     C47583   5.755   5.738   1.990 -0.1864  0.2344  0.9173
  353MOL0     C47584   5.848   5.751   1.915 -0.0899 -0.3576  0.3060
  353MOL0     C47585   5.158   5.915   2.148 -1.1842  0.3110  0.4077
  353MOL0     C47586   5.062   6.018   2.153 -0.5536 -0.5064  0.5116
  353MOL0     C47587   5.093   6.158   2.107  0.1420 -0.2832  0.7763
  353MOL0     H47588   4.593   6.136   2.542 -1.7635 -1.0147  1.7938
  353MOL0     H47589   4.360   6.189   2.542  0.2477 -0.1870 -1.2517
  353MOL0     H47590   4.187   6.367   2.203  1.3653 -0.6893  0.2559
  353MOL0     H47591   4.121   6.209   2.173  1.2055 -0.0301  1.3326
  353MOL0     H47592   3.946   6.283   2.365  1.2119 -1.4652 -0.1367
  353MOL0     H47593   3.943   6.329   2.195  1.8300 -1.1882 -1.0865
  353MOL0     H47594   3.921   6.527   2.361 -0.5248 -2.6304  0.8802
  353MOL0     H47595   4.041   6.548   2.236  0.7354 -0.3539 -0.2545
  353MOL0     H47596   4.091   6.450   2.517  4.5924 -1.3615  0.9434
  353MOL0     H47597   4.221   6.498   2.403  0.1814  0.9579 -0.1042
  353MOL0     H47598   4.092   6.723   2.387 -4.8112 -0.7464 -1.0358
  353MOL0     H47599   4.023   6.676   2.542  0.2015  0.0721  0.1019
  353MOL0     H47600   4.272   6.620   2.607  0.3113 -0.7865 -0.4001
  353MOL0     H47601   4.310   6.723   2.478 -0.8128 -2.4586 -0.5800
  353MOL0     H47602   4.144   6.793   2.718  0.1105  0.2711  1.4593
  353MOL0     H47603   4.158   6.907   2.599 -2.0755 -2.3283  1.4303
  353MOL0     H47604   4.331   6.954   2.769 -0.1372 -1.3479 -0.5142
  353MOL0     H47605   4.369   6.783   2.783 -3.5319 -1.0262  0.2909
  353MOL0     H47606   4.403   7.084   2.545  0.2680 -0.9508 -1.9935
  353MOL0     H47607   4.639   7.103   2.304 -0.9928 -2.0744  1.1785
  353MOL0     H47608   4.562   7.204   2.423  0.4051  0.3249  2.6230
  353MOL0     H47609   4.772   7.273   2.346 -0.5778 -0.2747 -0.3673
  353MOL0     H47610   4.781   7.254   2.523 -1.6505 -1.2077  1.7934
  353MOL0     H47611   4.877   7.045   2.315 -0.6845 -0.5738  0.1384
  353MOL0     H47612   4.919   7.045   2.485 -3.8837 -0.3627  0.9745
  353MOL0     H47613   5.117   7.122   2.350  1.3502  0.6699  0.9486
  353MOL0     H47614   5.048   7.258   2.440 -1.1980 -0.8654 -0.1568
  353MOL0     H47615   5.242   7.313   2.382 -0.6543  0.4915  0.8816
  353MOL0     H47616   5.440   7.450   2.298  0.4740  0.5839 -0.1897
  353MOL0     H47617   5.784   7.687   2.251  0.1718  1.8478 -0.0915
  353MOL0     H47618   6.003   7.708   2.149 -0.1830 -1.4096  0.8677
  353MOL0     H47619   6.114   7.884   1.951  2.6701  1.2086 -1.4338
  353MOL0     H47620   6.178   7.731   2.045  1.9689 -0.8804 -0.2741
  353MOL0     H47621   6.340   7.696   1.852  4.2515  1.3282  0.9511
  353MOL0     H47622   6.259   7.830   1.769 -0.2397  0.0351  1.0438
  353MOL0     H47623   6.333   7.980   1.954 -0.9049 -0.0852 -1.0913
  353MOL0     H47624   6.439   7.853   2.012 -1.0414  1.1035  1.2994
  353MOL0     H47625   6.436   7.969   1.731 -1.8437 -0.0426  1.7864
  353MOL0     H47626   6.548   7.853   1.782  2.5904  2.2001 -1.3120
  353MOL0     H47627   6.634   8.009   1.953  0.4827 -1.8622 -0.4625
  353MOL0     H47628   6.522   8.138   1.901 -2.2737 -0.5687 -1.0830
  353MOL0     H47629   6.635   8.085   1.656 -1.1680 -1.1962  0.2673
  353MOL0     H47630   6.686   8.218   1.761  0.8318 -0.6053  1.4818
  353MOL0     H47631   6.809   7.949   1.713  1.4096 -1.7592  1.9526
  353MOL0     H47632   6.842   8.033   1.862 -0.6816 -0.2919 -0.4369
  353MOL0     H47633   6.904   8.145   1.579 -0.2266 -0.9626 -0.0932
  353MOL0     H47634   6.932   8.230   1.723 -0.8522  0.3233 -0.9779
  353MOL0     H47635   5.833   7.611   1.763  0.8090  1.1864  0.2725
  353MOL0     H47636   5.637   7.568   1.856  0.4675  0.4085 -0.8662
  353MOL0     H47637   5.220   7.552   1.950 -0.5666  2.0187  1.1110
  353MOL0     H47638   5.041   7.409   2.013  0.5170 -0.0507  0.3294
  353MOL0     H47639   4.327   6.130   2.123 -1.3466  3.6562 -0.4855
  353MOL0     H47640   4.568   6.048   2.121 -0.0219 -4.4676  2.3120
  353MOL0     H47641   4.836   5.829   2.332 -0.0004 -0.6195  0.9912
  353MOL0     H47642   4.998   5.652   2.269  2.1658  0.0015  1.6714
  353MOL0     H47643   5.398   5.773   2.169  2.2520  0.5739 -1.5495
  353MOL0     H47644   5.336   5.743   2.005  2.5467 -0.9225 -0.2448
  353MOL0     H47645   5.367   5.509   2.043 -1.8513  2.7748 -1.9685
  353MOL0     H47646   5.438   5.523   2.198 -0.7095 -3.2792 -1.0850
  353MOL0     H47647   5.537   5.616   1.928  1.1089  2.2796 -0.2377
  353MOL0     H47648   5.611   5.502   2.045 -1.5825  0.0636  0.7939
  353MOL0     H47649   5.588   5.803   2.100 -1.0990 -0.8569 -1.7324
  353MOL0     H47650   5.681   5.685   2.187  0.4512  3.3369  2.0542
  353MOL0     H47651   5.926   5.762   1.842 -0.0392 -0.2820  0.3713
  353MOL0     H47652   5.255   5.943   2.107 -1.1673 -0.4038 -0.0617
  353MOL0     H47653   5.198   6.168   2.076  0.2764 -3.9857 -0.5713
  353MOL0     H47654   5.029   6.169   2.019 -1.7425 -1.2742  1.9564
  353MOL0     H47655   5.073   6.226   2.190  2.1087  0.5174  0.6525
  354MOL0     O47656   2.884   7.589   0.369 -0.0434 -0.6482 -0.7112
  354MOL0     C47657   2.880   7.530   0.260  0.4339  0.0602 -0.1567
  354MOL0     O47658   2.985   7.493   0.177 -1.1061  0.4865 -0.3925
  354MOL0     C47659   3.113   7.485   0.238  0.2587 -0.0185 -0.3685
  354MOL0     C47660   3.210   7.570   0.190  0.6466 -1.2646  0.4732
  354MOL0     C47661   3.342   7.561   0.240 -0.1783 -0.0352  0.6763
  354MOL0     C47662   3.385   7.447   0.311  0.7273  0.2516  0.5178
  354MOL0     O47663   3.516   7.439   0.345  0.2597  0.5375  0.6333
  354MOL0     C47664   3.543   7.379   0.470 -0.3977  0.8359  0.6548
  354MOL0     C47665   3.679   7.419   0.517 -0.0317  0.0233  0.3806
  354MOL0     C47666   3.801   7.369   0.435  0.4888  0.8085 -0.3104
  354MOL0     C47667   3.930   7.424   0.487 -0.6505  0.0450  0.5817
  354MOL0     C47668   4.054   7.353   0.445  0.0734  0.0709  0.1252
  354MOL0     C47669   4.062   7.208   0.494 -0.4099  0.3368  1.2849
  354MOL0     C47670   4.209   7.146   0.478  0.3342 -0.8892  0.2558
  354MOL0     C47671   4.202   6.997   0.488 -0.3553  0.6368  0.1633
  354MOL0     N47672   4.333   6.949   0.508 -0.5475  0.1190 -0.0728
  354MOL0     C47673   4.400   6.915   0.621 -0.1523 -0.0790 -0.2591
  354MOL0     C47674   4.523   6.868   0.576 -0.1437 -0.3162 -0.0142
  354MOL0     C47675   4.637   6.819   0.667 -0.7319  0.4198  0.5739
  354MOL0     C47676   4.769   6.806   0.586  0.1683 -0.2287  0.2745
  354MOL0     C47677   4.886   6.807   0.678 -0.0843 -0.1533 -0.0488
  354MOL0     C47678   5.022   6.759   0.618 -0.6097  0.5318  1.3711
  354MOL0     O47679   5.111   6.737   0.728 -0.0440 -0.1341  0.4006
  354MOL0     C47680   5.243   6.711   0.704 -0.2217  0.4179 -0.5195
  354MOL0     C47681   5.302   6.696   0.578 -0.2579 -0.0801  0.6251
  354MOL0     C47682   5.435   6.663   0.564 -0.9911 -0.1087 -0.7591
  354MOL0     C47683   5.515   6.643   0.684  0.8907 -0.1686  0.3980
  354MOL0     C47684   5.652   6.616   0.651 -1.4115  1.0830 -0.5229
  354MOL0     O47685   5.691   6.598   0.520 -0.7744 -0.1846 -0.0497
  354MOL0     C47686   5.818   6.567   0.481 -0.3779 -0.4800 -0.0511
  354MOL0     C47687   5.847   6.451   0.402  0.2791 -0.4923 -0.5374
  354MOL0     C47688   5.979   6.432   0.358 -0.1948  1.0037  0.4305
  354MOL0     C47689   6.080   6.526   0.373 -0.3066 -0.9394  0.3756
  354MOL0     O47690   6.202   6.485   0.339 -0.0863  0.3232 -0.2430
  354MOL0     C47691   6.311   6.585   0.318  0.4285  1.5982  1.2264
  354MOL0     C47692   6.440   6.509   0.276  0.6352 -0.9127  0.4989
  354MOL0     C47693   6.561   6.571   0.350 -0.1124 -0.3250  0.1751
  354MOL0     C47694   6.693   6.515   0.293  0.0479 -0.8127 -0.0057
  354MOL0     C47695   6.816   6.593   0.343 -0.6101  1.0354 -1.1262
  354MOL0     C47696   6.842   6.555   0.493 -0.9089  0.0809 -0.0601
  354MOL0     C47697   6.939   6.647   0.559 -0.0671 -0.0293  0.5674
  354MOL0     C47698   7.054   6.568   0.621  0.0825 -0.4380  0.8079
  354MOL0    Cl47699   7.189   6.664   0.690  0.3402  0.5444 -0.3147
  354MOL0     C47700   6.040   6.646   0.418 -0.5808  0.4898 -0.9311
  354MOL0     C47701   5.918   6.667   0.483  0.1265  0.0387  0.1431
  354MOL0     O47702   5.719   6.585   0.746 -0.5614  0.1725 -0.6335
  354MOL0     C47703   5.454   6.647   0.811 -0.0458 -0.2204  0.1011
  354MOL0     C47704   5.319   6.677   0.823 -0.5135  0.4292 -0.0762
  354MOL0     N47705   4.523   6.885   0.446  0.0122 -0.6781  0.6249
  354MOL0     N47706   4.412   6.917   0.403  0.5103 -1.2346  0.3278
  354MOL0     C47707   3.286   7.356   0.357 -0.2337 -0.4335 -0.0161
  354MOL0     C47708   3.144   7.372   0.317  0.2177 -0.9150 -0.1069
  354MOL0     C47709   2.746   7.483   0.213 -0.9951 -0.3840 -0.2611
  354MOL0     C47710   2.726   7.339   0.199 -0.2077  0.3393 -1.0433
  354MOL0     C47711   2.588   7.303   0.197  0.1543 -0.2614 -0.0656
  354MOL0     C47712   2.482   7.397   0.187  0.4100  0.1321 -0.4330
  354MOL0     O47713   2.344   7.366   0.177 -0.6427 -0.2648 -0.4622
  354MOL0     C47714   2.318   7.255   0.259 -0.6201  0.2834 -0.2229
  354MOL0     C47715   2.170   7.269   0.313 -0.1933 -0.1827  0.1293
  354MOL0     C47716   2.127   7.139   0.390 -0.5331 -0.0844  0.5575
  354MOL0     C47717   1.981   7.125   0.424 -0.1340  0.2679  0.5859
  354MOL0     C47718   1.902   7.133   0.300  0.2572  0.7499  0.3707
  354MOL0     C47719   1.862   7.134   0.185  0.7523  0.2688  0.2608
  354MOL0     C47720   2.508   7.530   0.191  0.7929 -0.6035  0.4078
  354MOL0     C47721   2.640   7.578   0.206  0.1191  0.0628  0.4753
  354MOL0     C47722   2.667   7.727   0.215  0.1031  0.2997 -0.0790
  354MOL0     H47723   3.188   7.637   0.108  2.2119 -1.0609  0.1912
  354MOL0     H47724   3.411   7.636   0.203 -0.7793 -0.1613 -0.7321
  354MOL0     H47725   3.470   7.422   0.540 -2.1969 -2.8857  1.2810
  354MOL0     H47726   3.523   7.272   0.473 -0.7650  0.8814  0.0463
  354MOL0     H47727   3.703   7.389   0.619  0.3263 -0.3441  0.1957
  354MOL0     H47728   3.680   7.528   0.515 -1.3217  0.1724  3.3278
  354MOL0     H47729   3.789   7.411   0.334 -0.9544 -3.2652 -2.0397
  354MOL0     H47730   3.799   7.260   0.428 -3.1524  0.6657  0.9013
  354MOL0     H47731   3.925   7.531   0.465 -2.5827 -0.2089 -0.4317
  354MOL0     H47732   3.929   7.400   0.594 -0.4634 -2.5834  0.0563
  354MOL0     H47733   4.064   7.344   0.337 -0.0903 -0.3664  0.1439
  354MOL0     H47734   4.139   7.411   0.483  0.7768  0.2373 -1.5924
  354MOL0     H47735   4.024   7.209   0.597  0.7824  2.6942  1.7684
  354MOL0     H47736   3.995   7.152   0.429  0.9248  1.0683 -0.8321
  354MOL0     H47737   4.268   7.184   0.563  2.3989  1.0184 -1.8788
  354MOL0     H47738   4.256   7.174   0.384 -0.9932 -1.7042 -0.6801
  354MOL0     H47739   4.149   6.975   0.581  0.8982 -1.3141  0.4635
  354MOL0     H47740   4.163   6.949   0.398 -0.7433  1.4213 -0.0960
  354MOL0     H47741   4.359   6.916   0.722  0.4103  0.2074 -0.0275
  354MOL0     H47742   4.653   6.899   0.739  1.0720 -0.2161  0.9075
  354MOL0     H47743   4.622   6.725   0.721 -1.2269 -0.0928 -0.4131
  354MOL0     H47744   4.762   6.708   0.536  0.5222  0.5428 -1.3563
  354MOL0     H47745   4.777   6.886   0.513  1.8364 -1.8401 -1.4354
  354MOL0     H47746   4.866   6.726   0.748 -0.2430  0.1518  0.2595
  354MOL0     H47747   4.904   6.901   0.729 -1.3966  0.0750  0.0224
  354MOL0     H47748   5.065   6.829   0.546  0.3327 -0.9500  0.4344
  354MOL0     H47749   5.023   6.661   0.568  0.8734  0.5230  1.3632
  354MOL0     H47750   5.250   6.714   0.485 -1.1827 -1.0648  0.9310
  354MOL0     H47751   5.480   6.650   0.467  1.9145  2.8493  0.0150
  354MOL0     H47752   5.769   6.377   0.384 -0.4835  0.5245 -1.4937
  354MOL0     H47753   6.010   6.339   0.311 -1.0328 -1.2935  4.0499
  354MOL0     H47754   6.286   6.645   0.231 -1.9697  1.0093  1.4439
  354MOL0     H47755   6.319   6.656   0.401 -1.7259  0.4014  2.5483
  354MOL0     H47756   6.423   6.408   0.315 -1.1940 -0.0711  2.0280
  354MOL0     H47757   6.454   6.510   0.168  0.7968  4.8988  0.2603
  354MOL0     H47758   6.566   6.680   0.345  1.6896 -0.4376 -1.8711
  354MOL0     H47759   6.545   6.548   0.456 -2.2095  2.7079  0.6457
  354MOL0     H47760   6.705   6.542   0.188  1.1756 -1.7290 -0.1343
  354MOL0     H47761   6.704   6.407   0.303  0.6289 -0.6101  2.2758
  354MOL0     H47762   6.799   6.699   0.322  0.3451  1.1525 -1.3655
  354MOL0     H47763   6.902   6.565   0.281 -0.4471 -1.9808  0.2744
  354MOL0     H47764   6.745   6.558   0.544 -1.7328  0.7360 -1.6159
  354MOL0     H47765   6.871   6.450   0.501 -1.7657 -0.6729 -4.5299
  354MOL0     H47766   6.881   6.695   0.639 -1.5455 -0.6010 -0.1244
  354MOL0     H47767   6.969   6.720   0.484 -3.4552  1.3940  0.4077
  354MOL0     H47768   7.015   6.503   0.701  0.6951  0.0439  1.5085
  354MOL0     H47769   7.097   6.506   0.542 -1.0644 -2.6225  1.8106
  354MOL0     H47770   6.111   6.727   0.425  0.9455 -0.8621  0.1047
  354MOL0     H47771   5.892   6.765   0.521 -1.7278 -1.3709  2.9045
  354MOL0     H47772   5.511   6.642   0.903 -1.3978  2.0565  1.1581
  354MOL0     H47773   5.263   6.689   0.915 -2.9228 -2.4051 -0.9986
  354MOL0     H47774   3.324   7.284   0.428  5.2642  2.1246  0.1831
  354MOL0     H47775   3.069   7.298   0.344 -1.3740  1.0338  0.9922
  354MOL0     H47776   2.812   7.274   0.210  0.0451  0.8716  0.3309
  354MOL0     H47777   2.556   7.200   0.202 -3.4615  0.7229  0.5339
  354MOL0     H47778   2.385   7.244   0.345 -4.9831 -1.2708  3.3658
  354MOL0     H47779   2.325   7.161   0.204 -2.1565 -0.2112  0.3956
  354MOL0     H47780   2.108   7.281   0.224  0.9099 -3.1875 -1.1793
  354MOL0     H47781   2.169   7.356   0.379  1.0036  0.0084 -0.0827
  354MOL0     H47782   2.196   7.122   0.473  1.3166  0.8261 -0.7098
  354MOL0     H47783   2.160   7.057   0.326  0.2070  1.0951 -0.6301
  354MOL0     H47784   1.966   7.024   0.463  0.9749  0.3694  1.3173
  354MOL0     H47785   1.952   7.198   0.499 -0.0301  0.0910  0.7987
  354MOL0     H47786   1.815   7.142   0.089  1.0659 -2.7093 -0.2235
  354MOL0     H47787   2.423   7.597   0.191  1.9110  0.8569 -0.4015
  354MOL0     H47788   2.578   7.785   0.188 -0.4119 -0.6970 -0.5801
  354MOL0     H47789   2.689   7.761   0.317 -1.4154  0.8606  0.0792
  354MOL0     H47790   2.733   7.767   0.138 -1.0457  1.2562 -0.5989
  355MOL0     O47791   4.811   5.798   7.189  0.4927  0.4102 -0.3175
  355MOL0     C47792   4.748   5.776   7.085  0.4535 -0.0713  0.6241
  355MOL0     O47793   4.804   5.734   6.969 -0.1200 -0.0440 -0.4279
  355MOL0     C47794   4.930   5.763   6.927 -0.5702  0.4625 -0.6187
  355MOL0     C47795   4.975   5.703   6.808 -0.1203  0.0651  0.2192
  355MOL0     C47796   5.107   5.723   6.756 -0.7987 -0.2174 -1.0143
  355MOL0     C47797   5.203   5.794   6.834  0.0957  1.0087 -0.3132
  355MOL0     O47798   5.337   5.809   6.808 -0.8078  0.1502 -0.2498
  355MOL0     C47799   5.364   5.832   6.670  0.2328 -0.0033 -0.3286
  355MOL0     C47800   5.505   5.876   6.653 -0.1144  0.0112  1.0620
  355MOL0     C47801   5.605   5.767   6.681 -0.0195 -0.0068  0.8995
  355MOL0     C47802   5.744   5.796   6.616  0.2346 -0.0916  0.6313
  355MOL0     C47803   5.845   5.687   6.636  0.1987 -0.5801 -0.5867
  355MOL0     C47804   5.976   5.712   6.563 -0.4392 -0.3383  0.3600
  355MOL0     C47805   6.078   5.611   6.618  0.2823 -0.6381  1.0689
  355MOL0     C47806   6.203   5.602   6.530 -0.3869 -0.3084 -0.2068
  355MOL0     N47807   6.321   5.535   6.579 -0.5802  0.3631 -0.2663
  355MOL0     C47808   6.407   5.572   6.679 -0.0085 -0.0259 -0.2962
  355MOL0     C47809   6.503   5.476   6.679 -0.3568 -0.1189 -0.4775
  355MOL0     C47810   6.625   5.463   6.765 -0.5120 -0.1598 -0.2173
  355MOL0     C47811   6.757   5.512   6.714  0.8997  0.0521 -0.2225
  355MOL0     C47812   6.752   5.662   6.707  0.1705  1.0031 -0.2407
  355MOL0     C47813   6.893   5.711   6.638  1.2652 -0.2259 -0.1764
  355MOL0     O47814   6.997   5.677   6.719 -0.6847 -0.4520  0.0794
  355MOL0     C47815   7.124   5.696   6.671  1.0495  0.2385 -0.0171
  355MOL0     C47816   7.160   5.764   6.555 -1.0354  0.4838 -0.0997
  355MOL0     C47817   7.289   5.762   6.507 -0.6618 -0.4730  0.1946
  355MOL0     C47818   7.390   5.702   6.580 -0.0270  0.7990 -0.6570
  355MOL0     C47819   7.524   5.699   6.519 -0.6230  0.0513 -0.0163
  355MOL0     O47820   7.602   5.599   6.578  0.4640  0.6267 -0.5955
  355MOL0     C47821   7.736   5.584   6.540 -0.6834 -0.0818 -0.2297
  355MOL0     C47822   7.828   5.684   6.577  1.0487  0.9151  0.7314
  355MOL0     C47823   7.959   5.667   6.546 -0.3019  0.0389  0.2892
  355MOL0     C47824   8.016   5.552   6.489  0.0290 -0.2213  0.8599
  355MOL0     O47825   8.156   5.533   6.473 -0.1792 -0.1774 -0.6885
  355MOL0     C47826   8.262   5.597   6.541 -0.0335 -0.5636  0.1695
  355MOL0     C47827   8.396   5.547   6.481 -0.7894 -0.1411  0.1717
  355MOL0     C47828   8.402   5.397   6.499 -0.4275  1.3369  0.0542
  355MOL0     C47829   8.541   5.362   6.551 -0.1353 -0.4298 -0.5761
  355MOL0     C47830   8.552   5.209   6.577  0.7726 -1.1735  0.6012
  355MOL0     C47831   8.675   5.172   6.656  0.3279 -0.3410 -0.1270
  355MOL0     C47832   8.669   5.202   6.807 -0.2516  0.2072  0.4825
  355MOL0     C47833   8.806   5.197   6.871 -0.4106  0.3281 -0.0727
  355MOL0    Cl47834   8.810   5.242   7.040 -0.1259 -0.2485  0.2173
  355MOL0     C47835   7.919   5.456   6.447  0.3666 -0.3798 -1.0236
  355MOL0     C47836   7.782   5.475   6.471 -0.0108  0.8852  0.3799
  355MOL0     O47837   7.557   5.783   6.438 -0.7201  0.0396  0.1184
  355MOL0     C47838   7.356   5.656   6.714  0.7362 -0.3244 -0.3315
  355MOL0     C47839   7.223   5.651   6.750  0.8314  0.4039 -0.2455
  355MOL0     N47840   6.473   5.384   6.587 -0.9935 -0.1582 -0.7241
  355MOL0     N47841   6.364   5.419   6.530 -0.1114 -0.6916  0.6379
  355MOL0     C47842   5.155   5.854   6.946 -0.0826 -0.9109  0.3834
  355MOL0     C47843   5.022   5.848   6.990 -0.6433 -0.1466 -0.4922
  355MOL0     C47844   4.600   5.778   7.094  0.0995  0.5660  0.3627
  355MOL0     C47845   4.546   5.811   7.216  0.1583 -0.4890 -0.0014
  355MOL0     C47846   4.408   5.803   7.249 -0.0683 -0.2184 -0.1177
  355MOL0     C47847   4.317   5.746   7.155 -0.0058 -0.4056 -0.7630
  355MOL0     O47848   4.183   5.720   7.196 -0.6937  0.1883  0.0266
  355MOL0     C47849   4.096   5.643   7.114  1.4810 -0.2775  0.2833
  355MOL0     C47850   3.954   5.630   7.173  0.1670  0.0625  0.2326
  355MOL0     C47851   3.909   5.762   7.229 -1.2073  0.0535  0.2754
  355MOL0     C47852   3.789   5.750   7.327 -0.4769  0.6114  0.2461
  355MOL0     C47853   3.668   5.686   7.267  0.6095  0.3134 -0.2075
  355MOL0     C47854   3.570   5.625   7.234  0.6214  0.0292 -0.1954
  355MOL0     C47855   4.378   5.702   7.034  0.6693  0.5847 -0.9865
  355MOL0     C47856   4.512   5.718   7.000 -0.8955 -0.8134 -0.0586
  355MOL0     C47857   4.564   5.663   6.867  0.0677 -0.1645  0.8429
  355MOL0     H47858   4.905   5.643   6.752 -1.5919 -0.9285  2.9339
  355MOL0     H47859   5.138   5.661   6.673  4.1959  0.3967  0.0702
  355MOL0     H47860   5.348   5.740   6.613 -2.6085 -1.9536  3.2003
  355MOL0     H47861   5.301   5.919   6.645  0.2411  0.3804  0.9205
  355MOL0     H47862   5.507   5.962   6.721 -1.6937  0.6618  0.3450
  355MOL0     H47863   5.502   5.911   6.550  1.2933  0.8248  1.2751
  355MOL0     H47864   5.574   5.670   6.639 -0.3944  0.6976 -0.5111
  355MOL0     H47865   5.617   5.766   6.789 -4.5015 -0.1334  1.5807
  355MOL0     H47866   5.729   5.790   6.508  2.4717 -0.8035  0.3189
  355MOL0     H47867   5.778   5.896   6.644 -0.3910  0.2499  0.1969
  355MOL0     H47868   5.854   5.672   6.744 -1.2326 -0.6432 -0.4624
  355MOL0     H47869   5.794   5.600   6.595 -3.7726  0.3853  1.7478
  355MOL0     H47870   5.957   5.684   6.459  1.2059  1.7791 -0.5949
  355MOL0     H47871   6.005   5.817   6.571 -1.3935  0.3886 -3.6205
  355MOL0     H47872   6.023   5.516   6.614 -0.6495 -0.1253 -3.2822
  355MOL0     H47873   6.100   5.649   6.718 -0.5386 -1.2522  1.4934
  355MOL0     H47874   6.164   5.556   6.439  0.7207  0.4897 -1.1067
  355MOL0     H47875   6.235   5.701   6.498 -0.3569 -0.5928 -1.0883
  355MOL0     H47876   6.405   5.665   6.736 -1.0848  0.2761 -0.7940
  355MOL0     H47877   6.596   5.501   6.863  1.9153 -1.5664  1.1188
  355MOL0     H47878   6.634   5.357   6.787  0.6307 -0.2277 -0.9375
  355MOL0     H47879   6.832   5.468   6.782  0.1916 -2.4913 -0.9599
  355MOL0     H47880   6.774   5.487   6.609 -0.8999 -0.3915 -0.4366
  355MOL0     H47881   6.743   5.707   6.807  0.6530  0.0202  0.2642
  355MOL0     H47882   6.671   5.689   6.639  0.6933  1.3317 -0.7423
  355MOL0     H47883   6.879   5.819   6.631  1.1604 -0.3450 -2.8650
  355MOL0     H47884   6.908   5.672   6.537  0.4591 -3.6912  0.8852
  355MOL0     H47885   7.093   5.812   6.484 -2.4635  0.2223  1.0130
  355MOL0     H47886   7.305   5.807   6.410 -1.7886  0.2105  0.3148
  355MOL0     H47887   7.793   5.772   6.630  0.5638  0.9144  0.4159
  355MOL0     H47888   8.029   5.746   6.572 -1.5304  0.7670  1.4992
  355MOL0     H47889   8.272   5.704   6.521  1.8004 -0.4610  1.4507
  355MOL0     H47890   8.239   5.584   6.647 -0.1669 -1.3462  0.0472
  355MOL0     H47891   8.402   5.569   6.374  1.5245  0.3140  0.3401
  355MOL0     H47892   8.477   5.593   6.540 -1.5691  0.4471  0.8120
  355MOL0     H47893   8.321   5.364   6.565 -1.0588  1.3029 -0.7165
  355MOL0     H47894   8.383   5.345   6.404  0.4686 -0.9982  1.0651
  355MOL0     H47895   8.547   5.412   6.648  0.0599  1.9264 -1.7217
  355MOL0     H47896   8.625   5.388   6.486  2.6453  0.6329  3.0918
  355MOL0     H47897   8.547   5.151   6.485 -0.5195 -0.7001  0.3519
  355MOL0     H47898   8.465   5.183   6.638 -1.4936 -0.6037 -2.1888
  355MOL0     H47899   8.687   5.063   6.656  5.2386 -0.1400  3.6926
  355MOL0     H47900   8.766   5.210   6.611  0.0133  1.2308  0.5025
  355MOL0     H47901   8.612   5.122   6.855 -0.0400  0.3096  0.9109
  355MOL0     H47902   8.621   5.299   6.823  1.2581  1.0560  0.0240
  355MOL0     H47903   8.837   5.092   6.864  1.4892  0.9668 -3.4416
  355MOL0     H47904   8.878   5.265   6.824 -1.8488  1.5569 -0.5822
  355MOL0     H47905   7.944   5.359   6.405 -1.8599 -1.3073 -0.3912
  355MOL0     H47906   7.710   5.396   6.449 -0.2408  0.8250  1.2981
  355MOL0     H47907   7.438   5.618   6.774  1.4823  2.9568  0.9174
  355MOL0     H47908   7.188   5.615   6.846  3.0050 -3.2188 -0.6371
  355MOL0     H47909   5.220   5.918   7.004 -2.9738  1.8010  0.9233
  355MOL0     H47910   4.990   5.892   7.084 -3.4844 -0.4430 -1.2465
  355MOL0     H47911   4.616   5.843   7.292  0.3520  1.9375 -1.1006
  355MOL0     H47912   4.362   5.824   7.345 -2.1106 -2.0146 -0.6271
  355MOL0     H47913   4.134   5.543   7.091  1.7003  0.5016 -3.2457
  355MOL0     H47914   4.091   5.711   7.029 -0.9218 -1.1159 -0.3109
  355MOL0     H47915   3.958   5.556   7.254  1.9630 -0.1527 -0.0264
  355MOL0     H47916   3.900   5.602   7.082  1.5879  1.2826 -1.0275
  355MOL0     H47917   3.881   5.821   7.141  1.2784 -1.8332 -1.8940
  355MOL0     H47918   3.974   5.813   7.300 -2.5618 -0.2934  1.8501
  355MOL0     H47919   3.817   5.681   7.407  0.8055 -0.7032 -1.2714
  355MOL0     H47920   3.765   5.847   7.371  0.7948  1.1292 -0.1575
  355MOL0     H47921   3.492   5.553   7.226 -0.0897  0.4732  1.9185
  355MOL0     H47922   4.316   5.641   6.970 -1.2054  0.0892  1.1770
  355MOL0     H47923   4.630   5.578   6.889 -1.0175 -1.2996 -0.1119
  355MOL0     H47924   4.484   5.622   6.805  1.2036  1.7737 -2.1278
  355MOL0     H47925   4.627   5.729   6.807  0.5594 -2.3552 -1.2271
  356MOL0     O47926   5.328   5.854   4.786 -0.2318 -0.5208 -0.0936
  356MOL0     C47927   5.229   5.844   4.856 -0.4012 -0.5139 -0.7422
  356MOL0     O47928   5.107   5.891   4.834 -0.3853  0.2284  0.5129
  356MOL0     C47929   5.098   5.976   4.729 -0.3985 -0.9888  0.1935
  356MOL0     C47930   5.016   5.936   4.618 -1.1242  0.0525  0.1358
  356MOL0     C47931   5.026   6.016   4.507 -1.2205 -0.7354 -0.2002
  356MOL0     C47932   5.086   6.147   4.506  0.2109 -0.0197  1.0418
  356MOL0     O47933   5.089   6.240   4.400 -0.6716  0.1065  1.1037
  356MOL0     C47934   4.999   6.221   4.295 -0.5199 -0.6721 -1.0725
  356MOL0     C47935   5.061   6.321   4.188  0.3428 -0.1142 -0.0551
  356MOL0     C47936   5.019   6.467   4.218  0.3964 -0.3589 -0.4168
  356MOL0     C47937   5.075   6.547   4.104  0.2027 -0.0876  0.5582
  356MOL0     C47938   5.131   6.687   4.142 -0.1328  0.1485  0.4303
  356MOL0     C47939   5.008   6.768   4.184 -0.6794 -0.2870  0.1747
  356MOL0     C47940   5.051   6.910   4.223  1.0552  0.8985  0.2128
  356MOL0     C47941   4.942   7.000   4.290  0.4724  0.0312 -0.0519
  356MOL0     N47942   4.991   7.135   4.301  0.1289  0.1068 -0.1406
  356MOL0     C47943   5.115   7.179   4.335 -0.7095  0.7273  0.7083
  356MOL0     C47944   5.125   7.305   4.300 -0.1303  0.5507 -0.1178
  356MOL0     C47945   5.250   7.389   4.311 -0.4534  0.1851 -0.0119
  356MOL0     C47946   5.292   7.419   4.456 -0.1169  0.6140 -1.1320
  356MOL0     C47947   5.192   7.521   4.513  0.7959 -0.5367  0.5537
  356MOL0     C47948   5.218   7.551   4.657 -0.3275  0.8659 -1.2271
  356MOL0     O47949   5.338   7.629   4.679 -0.7981  0.3400 -0.3036
  356MOL0     C47950   5.435   7.585   4.771 -0.6938  0.1371  0.5171
  356MOL0     C47951   5.397   7.541   4.899  0.0381 -0.3795 -0.5752
  356MOL0     C47952   5.499   7.521   4.986 -0.3825 -0.3879 -0.2275
  356MOL0     C47953   5.636   7.534   4.955  0.0284 -0.9358  0.9241
  356MOL0     C47954   5.754   7.519   5.051  0.6121  0.0818 -0.1589
  356MOL0     O47955   5.879   7.570   5.017  0.8737  0.4291 -0.0332
  356MOL0     C47956   5.978   7.561   5.109 -0.3982 -0.0908  0.7920
  356MOL0     C47957   5.975   7.589   5.241  0.6267  0.1301  0.4944
  356MOL0     C47958   6.096   7.585   5.318 -0.0717 -0.1153 -0.6031
  356MOL0     C47959   6.211   7.536   5.262 -0.5054 -0.1825 -0.3640
  356MOL0     O47960   6.325   7.513   5.337  0.6046  0.8688 -0.0435
  356MOL0     C47961   6.391   7.630   5.399  0.6018 -1.0500  0.1938
  356MOL0     C47962   6.520   7.592   5.467 -0.4704  0.3702  0.2479
  356MOL0     C47963   6.614   7.511   5.376  0.2807 -0.2664 -0.0759
  356MOL0     C47964   6.754   7.490   5.461 -0.3019  0.0774 -0.7379
  356MOL0     C47965   6.853   7.409   5.392  0.3583  0.0667 -0.7081
  356MOL0     C47966   6.941   7.497   5.301  0.4010 -0.1263 -0.5536
  356MOL0     C47967   7.058   7.415   5.239  1.1635  0.1678 -0.3436
  356MOL0     C47968   7.109   7.483   5.105 -0.6037  0.1589  0.2239
  356MOL0    Cl47969   6.985   7.486   4.974 -0.0709  0.2969 -0.0952
  356MOL0     C47970   6.208   7.496   5.128  0.5155 -0.5495  0.4991
  356MOL0     C47971   6.098   7.512   5.048 -0.2666 -0.3005  0.0423
  356MOL0     O47972   5.729   7.454   5.160 -0.1159  0.2682  0.2588
  356MOL0     C47973   5.670   7.583   4.819  0.2025 -0.0218 -0.0028
  356MOL0     C47974   5.567   7.612   4.727  0.7786 -0.0890 -0.0590
  356MOL0     N47975   5.000   7.347   4.262 -0.5555 -0.4048  0.1757
  356MOL0     N47976   4.920   7.245   4.248 -0.2774  0.0547 -0.0297
  356MOL0     C47977   5.154   6.189   4.625 -0.0393 -0.5146  0.0764
  356MOL0     C47978   5.163   6.098   4.734 -0.1696 -0.2432 -0.0087
  356MOL0     C47979   5.250   5.777   4.991  0.9608  0.2027  0.6203
  356MOL0     C47980   5.129   5.753   5.065  0.8573 -0.5334  0.7691
  356MOL0     C47981   5.137   5.684   5.191  0.0013  0.1198  0.0313
  356MOL0     C47982   5.256   5.648   5.257  0.0388 -0.7353  0.0641
  356MOL0     O47983   5.249   5.577   5.375 -0.1259  0.6463 -0.9958
  356MOL0     C47984   5.369   5.512   5.419  0.0961  0.4947 -0.6616
  356MOL0     C47985   5.332   5.420   5.535 -0.4210  0.6882  0.4488
  356MOL0     C47986   5.456   5.363   5.603  0.5769 -0.5536  0.5373
  356MOL0     C47987   5.541   5.462   5.685  0.3227 -0.1518 -0.3173
  356MOL0     C47988   5.625   5.388   5.784  0.0886  0.0145  0.2777
  356MOL0     C47989   5.707   5.330   5.853 -0.1793 -1.0947 -0.3964
  356MOL0     C47990   5.373   5.691   5.188 -0.1175  1.1448 -0.0969
  356MOL0     C47991   5.369   5.736   5.060 -0.0931  0.3422 -0.0014
  356MOL0     C47992   5.499   5.762   4.987 -0.3234 -0.6652 -0.4375
  356MOL0     H47993   4.972   5.839   4.602  2.8114 -1.6014 -2.0320
  356MOL0     H47994   4.986   5.979   4.413 -1.5895 -1.4515  0.2327
  356MOL0     H47995   5.007   6.117   4.260 -2.4122 -0.8561 -1.0486
  356MOL0     H47996   4.897   6.248   4.321  0.3705  0.6893  1.2471
  356MOL0     H47997   5.019   6.281   4.095  1.4781  0.9432 -1.0426
  356MOL0     H47998   5.170   6.313   4.189  1.1809  6.3175  1.2740
  356MOL0     H47999   5.064   6.509   4.308  0.2125  0.0795 -0.5255
  356MOL0     H48000   4.910   6.469   4.218  0.2044 -3.2288  2.2151
  356MOL0     H48001   5.158   6.491   4.058 -1.2034 -1.4082 -0.4613
  356MOL0     H48002   4.998   6.557   4.028  2.6016 -0.8723 -2.1573
  356MOL0     H48003   5.191   6.674   4.233  0.6454  0.3023 -0.0485
  356MOL0     H48004   5.188   6.733   4.061  1.1213 -0.3986  0.9649
  356MOL0     H48005   4.931   6.766   4.107  1.5398  1.3223 -2.2473
  356MOL0     H48006   4.968   6.722   4.275  2.3769 -1.2097  1.1920
  356MOL0     H48007   5.098   6.960   4.138  1.6741  0.4745  0.2962
  356MOL0     H48008   5.139   6.903   4.288  2.4853  1.1409 -1.6201
  356MOL0     H48009   4.861   6.994   4.216 -2.3759 -1.3601  2.9331
  356MOL0     H48010   4.897   6.967   4.384  0.8903 -0.8380 -0.1438
  356MOL0     H48011   5.193   7.119   4.381 -0.9856  1.2039  1.8527
  356MOL0     H48012   5.339   7.346   4.264 -1.3656 -4.9229  2.3168
  356MOL0     H48013   5.224   7.481   4.258  1.0275  0.5290 -0.1798
  356MOL0     H48014   5.284   7.321   4.505  0.4794  1.2092  0.1901
  356MOL0     H48015   5.398   7.444   4.464  0.7685 -3.1602  1.5937
  356MOL0     H48016   5.088   7.487   4.507  0.5630 -0.4885  3.1149
  356MOL0     H48017   5.199   7.614   4.455  0.1104  1.2523  3.1420
  356MOL0     H48018   5.216   7.454   4.708 -0.7264  1.9327  0.9371
  356MOL0     H48019   5.132   7.606   4.696  0.7348  1.1954  0.7939
  356MOL0     H48020   5.298   7.523   4.939  0.6648 -4.6138 -0.4156
  356MOL0     H48021   5.488   7.487   5.088  3.4079  0.8294  0.7355
  356MOL0     H48022   5.879   7.616   5.284 -0.7325 -0.5654 -1.9367
  356MOL0     H48023   6.112   7.608   5.423 -0.1803 -1.8408 -0.1800
  356MOL0     H48024   6.422   7.719   5.344  0.2818 -0.8907  0.2675
  356MOL0     H48025   6.322   7.658   5.479 -0.8703 -3.9256  0.0666
  356MOL0     H48026   6.576   7.677   5.506 -1.0526  1.1572 -0.6045
  356MOL0     H48027   6.491   7.526   5.549 -0.0266 -0.6601 -0.3964
  356MOL0     H48028   6.567   7.417   5.344 -3.4393  1.3752 -0.0180
  356MOL0     H48029   6.615   7.566   5.281  0.2888  0.2314  0.2089
  356MOL0     H48030   6.716   7.440   5.551 -0.3789 -0.9110 -1.3071
  356MOL0     H48031   6.785   7.592   5.486 -3.0241  0.3024  2.4610
  356MOL0     H48032   6.810   7.324   5.339  1.3369 -1.7120  1.2134
  356MOL0     H48033   6.915   7.374   5.475  0.0972  0.3494 -0.3944
  356MOL0     H48034   6.884   7.545   5.221  0.4362  2.9698  1.1459
  356MOL0     H48035   6.975   7.576   5.368 -1.1787  0.1035  0.0000
  356MOL0     H48036   7.022   7.316   5.212  2.5511 -1.3327  2.8080
  356MOL0     H48037   7.132   7.408   5.319 -0.3286 -2.4100  0.9540
  356MOL0     H48038   7.132   7.587   5.130  1.4848 -0.5385  1.3887
  356MOL0     H48039   7.204   7.439   5.075  0.1371  2.4705 -1.0302
  356MOL0     H48040   6.298   7.460   5.079  0.5722  0.8408 -0.4552
  356MOL0     H48041   6.108   7.497   4.941  0.5741  0.2424  0.0282
  356MOL0     H48042   5.773   7.595   4.788  0.6924  0.2457  1.6766
  356MOL0     H48043   5.584   7.659   4.631  0.4413  0.2035  0.0225
  356MOL0     H48044   5.214   6.279   4.635 -0.3313 -0.4422  1.3846
  356MOL0     H48045   5.210   6.132   4.826  1.2867  1.3353 -1.2733
  356MOL0     H48046   5.033   5.783   5.025  2.0129  3.8682  0.7742
  356MOL0     H48047   5.046   5.673   5.248 -1.1365  2.2588 -1.2419
  356MOL0     H48048   5.444   5.582   5.459 -1.3987  1.0884  1.2550
  356MOL0     H48049   5.407   5.452   5.336 -2.5657 -2.7442  0.2793
  356MOL0     H48050   5.266   5.341   5.498 -1.0473  0.9838  0.9301
  356MOL0     H48051   5.271   5.486   5.598 -1.3357  2.1597 -1.8451
  356MOL0     H48052   5.515   5.319   5.522 -0.2283 -0.2306 -0.2311
  356MOL0     H48053   5.430   5.279   5.669  0.2995  1.0386  2.5316
  356MOL0     H48054   5.605   5.527   5.625  2.0120 -1.1848  0.2887
  356MOL0     H48055   5.459   5.514   5.735 -0.7995 -1.0419 -1.1833
  356MOL0     H48056   5.785   5.297   5.919  0.0222  1.3563  0.6812
  356MOL0     H48057   5.464   5.665   5.240 -1.3847 -2.4585  0.5777
  356MOL0     H48058   5.514   5.860   4.941  3.4378 -1.6203 -1.5766
  356MOL0     H48059   5.579   5.754   5.061 -0.2415  2.8711  0.0422
  356MOL0     H48060   5.511   5.688   4.908  3.4391 -0.3062 -0.3803
  357MOL0     O48061   4.511  10.138   0.123 -0.6064  0.0026  0.6815
  357MOL0     C48062   4.430  10.047   0.099  0.5683 -0.9897 -0.7743
  357MOL0     O48063   4.450   9.935   0.031  0.6034 -0.9366  0.1329
  357MOL0     C48064   4.577   9.918  -0.018 -0.9536 -0.0395 -0.4989
  357MOL0     C48065   4.648   9.823   0.051 -0.9423 -0.5534  0.4723
  357MOL0     C48066   4.783   9.791   0.007  0.5812  0.0610 -0.1072
  357MOL0     C48067   4.836   9.857  -0.102  0.2796  0.3020 -0.0867
  357MOL0     O48068   4.963   9.816  -0.135 -0.1074 -0.7877 -0.6355
  357MOL0     C48069   5.044   9.896  -0.225  0.7485  0.4834  0.3033
  357MOL0     C48070   5.199   9.888  -0.207  0.3687  0.5211 -0.0226
  357MOL0     C48071   5.261   9.925  -0.338  0.0655 -0.3579 -0.3102
  357MOL0     C48072   5.414   9.931  -0.326  0.6930  0.1860  0.5664
  357MOL0     C48073   5.481   9.964  -0.456  0.0589 -0.1413 -0.8179
  357MOL0     C48074   5.634   9.919  -0.435  0.2444  0.2282 -0.7102
  357MOL0     C48075   5.731   9.939  -0.557  0.8710 -0.8816  0.4162
  357MOL0     C48076   5.760  10.084  -0.585 -0.0859  0.2820  0.0932
  357MOL0     N48077   5.861  10.095  -0.683 -0.2423 -0.1881 -0.2234
  357MOL0     C48078   5.862  10.082  -0.821  1.3048 -1.2512 -0.5589
  357MOL0     C48079   5.984  10.094  -0.862 -0.0490 -0.3913  0.0123
  357MOL0     C48080   6.044  10.085  -1.005 -0.6328  0.0107 -0.1307
  357MOL0     C48081   6.118   9.958  -1.023 -0.4223 -0.1083 -0.6033
  357MOL0     C48082   6.185   9.945  -1.160  0.8468  0.7280  0.8413
  357MOL0     C48083   6.274   9.814  -1.186  0.4088  0.1419 -0.1196
  357MOL0     O48084   6.366   9.844  -1.291 -0.0192 -0.6760  0.1641
  357MOL0     C48085   6.491   9.790  -1.296  0.3209 -0.1086  0.4291
  357MOL0     C48086   6.520   9.667  -1.239  0.0082  0.4874 -0.3216
  357MOL0     C48087   6.648   9.609  -1.244 -0.7085  0.9904  0.0378
  357MOL0     C48088   6.753   9.691  -1.294 -0.1106  0.1788  0.0452
  357MOL0     C48089   6.894   9.642  -1.312  0.2319  0.1909  0.1258
  357MOL0     O48090   6.992   9.738  -1.315  0.3831  0.6971  0.0355
  357MOL0     C48091   7.126   9.719  -1.301 -0.9271  0.6788  0.7778
  357MOL0     C48092   7.189   9.591  -1.280 -0.1335 -0.5055 -0.0096
  357MOL0     C48093   7.318   9.585  -1.237  0.3544  0.1111 -1.0655
  357MOL0     C48094   7.396   9.701  -1.220 -0.7310  0.0814 -0.0640
  357MOL0     O48095   7.526   9.690  -1.174  0.5430 -0.3921 -0.4388
  357MOL0     C48096   7.631   9.724  -1.270  0.3003 -0.6398  0.1519
  357MOL0     C48097   7.661   9.591  -1.353  0.1852  0.2679 -0.9920
  357MOL0     C48098   7.756   9.599  -1.472  0.4171 -0.1228 -0.8197
  357MOL0     C48099   7.789   9.454  -1.522 -0.4023 -0.4373  0.5070
  357MOL0     C48100   7.907   9.448  -1.620 -0.6659  0.0640  0.1706
  357MOL0     C48101   8.047   9.438  -1.550  0.4408 -0.4086  0.1860
  357MOL0     C48102   8.151   9.444  -1.662  0.2400  0.2164 -0.0680
  357MOL0     C48103   8.293   9.450  -1.606  0.9410 -0.6484 -0.1872
  357MOL0    Cl48104   8.407   9.436  -1.731 -0.0235  0.1882 -0.1652
  357MOL0     C48105   7.337   9.829  -1.249  0.7396 -0.2023 -0.1648
  357MOL0     C48106   7.209   9.830  -1.285  0.0100 -0.1342  0.5263
  357MOL0     O48107   6.909   9.520  -1.305 -0.2389  0.1035 -0.6074
  357MOL0     C48108   6.719   9.810  -1.356  0.0917 -1.0894  0.0349
  357MOL0     C48109   6.594   9.867  -1.360  0.4839  0.2198 -0.5066
  357MOL0     N48110   6.061  10.128  -0.755 -0.6708 -0.3092  0.2512
  357MOL0     N48111   5.985  10.129  -0.651  0.1557 -0.1233  1.0133
  357MOL0     C48112   4.768   9.954  -0.172  0.2455  0.7925 -0.1794
  357MOL0     C48113   4.641   9.987  -0.120 -0.0703 -0.7297  0.0949
  357MOL0     C48114   4.290  10.057   0.145  0.0934 -0.1106 -0.4577
  357MOL0     C48115   4.228   9.949   0.218  0.2495 -0.4236  1.5423
  357MOL0     C48116   4.094   9.960   0.263 -0.2507 -1.2876  0.3111
  357MOL0     C48117   4.028  10.084   0.248  0.5096  0.9919 -0.2463
  357MOL0     O48118   3.896  10.089   0.278 -0.0269 -0.0574  0.2129
  357MOL0     C48119   3.857  10.056   0.415 -0.7906  0.5584  0.9557
  357MOL0     C48120   3.723  10.118   0.439 -0.4806  0.6707 -0.6992
  357MOL0     C48121   3.633  10.047   0.336  0.5153  0.5772 -0.4223
  357MOL0     C48122   3.492  10.100   0.342 -0.9161 -0.5663  0.5635
  357MOL0     C48123   3.419  10.034   0.447 -0.2184  0.4255  0.3228
  357MOL0     C48124   3.352   9.978   0.527 -0.2801  0.0388 -0.0106
  357MOL0     C48125   4.087  10.188   0.183  0.3285 -0.0035  0.3497
  357MOL0     C48126   4.223  10.172   0.139  1.1101 -0.1778  0.0501
  357MOL0     C48127   4.277  10.300   0.066  0.1050  0.7211 -0.0855
  357MOL0     H48128   4.603   9.771   0.134 -1.9570 -1.6950 -0.7490
  357MOL0     H48129   4.846   9.710   0.044  1.0470  1.2914  1.9388
  357MOL0     H48130   5.025   9.870  -0.330  1.4919  0.6724  0.1154
  357MOL0     H48131   5.017  10.003  -0.223  0.3621  0.3792  1.0741
  357MOL0     H48132   5.231   9.784  -0.195 -1.1432 -0.0838 -1.0569
  357MOL0     H48133   5.228   9.953  -0.124  1.8513  1.3141 -1.1012
  357MOL0     H48134   5.217  10.020  -0.370 -0.0458  0.5103  2.1979
  357MOL0     H48135   5.234   9.841  -0.403 -0.5994  0.8538 -1.6695
  357MOL0     H48136   5.440   9.995  -0.241 -1.8161 -0.5783  2.0267
  357MOL0     H48137   5.446   9.830  -0.299  1.4695 -0.1186 -1.3461
  357MOL0     H48138   5.433   9.912  -0.540  1.7543  0.7715 -2.4297
  357MOL0     H48139   5.471  10.070  -0.481 -0.8691 -0.5030 -2.0814
  357MOL0     H48140   5.672   9.973  -0.348 -1.6613 -2.0816  1.7475
  357MOL0     H48141   5.640   9.812  -0.410  0.3339  0.7623  1.7509
  357MOL0     H48142   5.681   9.908  -0.650 -0.4818  0.7360  0.5496
  357MOL0     H48143   5.816   9.871  -0.551  0.6502 -1.2849 -0.7217
  357MOL0     H48144   5.669  10.131  -0.624 -0.3989 -1.3079 -1.1834
  357MOL0     H48145   5.790  10.140  -0.496  0.0260  1.6240 -0.7619
  357MOL0     H48146   5.768  10.063  -0.873 -0.3399 -0.7449  2.0343
  357MOL0     H48147   5.963  10.095  -1.077 -1.1374  3.5257  0.7576
  357MOL0     H48148   6.116  10.164  -1.030  1.2002 -1.9798 -1.5812
  357MOL0     H48149   6.200   9.946  -0.951 -1.3342 -2.8375  0.1214
  357MOL0     H48150   6.049   9.877  -0.999 -2.5671  1.9945  0.6740
  357MOL0     H48151   6.250  10.031  -1.179 -0.4547  1.6603  0.4760
  357MOL0     H48152   6.106   9.943  -1.236  1.3846 -1.0226  0.2900
  357MOL0     H48153   6.212   9.726  -1.205  0.7813 -0.5598  1.7117
  357MOL0     H48154   6.326   9.794  -1.092 -1.3299 -0.1111  0.8174
  357MOL0     H48155   6.438   9.616  -1.188  0.9754 -0.6574  0.1413
  357MOL0     H48156   6.669   9.519  -1.186 -0.3719  1.8223  1.2470
  357MOL0     H48157   7.131   9.500  -1.285 -0.1436 -0.4463 -1.3135
  357MOL0     H48158   7.363   9.487  -1.223  2.1542  0.7093 -2.3442
  357MOL0     H48159   7.591   9.800  -1.337 -2.1148 -2.0159 -0.0889
  357MOL0     H48160   7.715   9.759  -1.210  1.7612 -0.6824 -1.7728
  357MOL0     H48161   7.699   9.521  -1.278 -2.8073 -0.6640 -0.2044
  357MOL0     H48162   7.568   9.541  -1.383 -0.1573 -0.4825  1.1365
  357MOL0     H48163   7.699   9.646  -1.552  1.0820  1.1334 -0.5838
  357MOL0     H48164   7.850   9.649  -1.444  0.5394 -0.1710 -1.1391
  357MOL0     H48165   7.701   9.425  -1.580 -0.5836  3.5506 -1.5439
  357MOL0     H48166   7.807   9.388  -1.437  3.2828 -1.4263 -0.8777
  357MOL0     H48167   7.904   9.544  -1.673 -1.3221  1.1387  2.0255
  357MOL0     H48168   7.889   9.372  -1.696  0.8492 -0.0858 -0.0603
  357MOL0     H48169   8.070   9.522  -1.484  1.3955  1.2926 -2.1967
  357MOL0     H48170   8.066   9.347  -1.492  2.3734  0.1714  0.5199
  357MOL0     H48171   8.137   9.528  -1.730 -1.2548 -1.0087 -1.3567
  357MOL0     H48172   8.138   9.348  -1.713 -2.5689 -0.0755  1.0160
  357MOL0     H48173   8.304   9.542  -1.548  1.6751 -0.3670 -0.7438
  357MOL0     H48174   8.297   9.367  -1.535 -1.5432  0.0391  0.8591
  357MOL0     H48175   7.393   9.922  -1.239 -0.5285  0.8497 -2.1439
  357MOL0     H48176   7.159   9.926  -1.292  0.7097  0.2007 -0.0390
  357MOL0     H48177   6.805   9.861  -1.399  0.3008 -0.4334  1.1874
  357MOL0     H48178   6.570   9.962  -1.408 -0.0311  0.0477 -0.5930
  357MOL0     H48179   4.805  10.007  -0.259 -1.4045 -1.5794 -2.4879
  357MOL0     H48180   4.584  10.062  -0.173 -1.1987 -1.8954 -0.3975
  357MOL0     H48181   4.276   9.853   0.232 -1.3239 -1.5481 -0.2242
  357MOL0     H48182   4.028   9.887   0.311 -0.5134  1.2514  4.2367
  357MOL0     H48183   3.928  10.088   0.492  0.9177 -0.8092  0.0234
  357MOL0     H48184   3.838   9.948   0.418 -0.9450  0.4462 -1.9097
  357MOL0     H48185   3.724  10.225   0.420  0.1731  0.5989 -1.0849
  357MOL0     H48186   3.699  10.093   0.543 -0.6034  1.0434 -0.6395
  357MOL0     H48187   3.640   9.939   0.348  1.9649  0.6535 -0.4789
  357MOL0     H48188   3.672  10.064   0.235 -1.8939 -0.5929 -1.6455
  357MOL0     H48189   3.491  10.209   0.350 -0.8762 -0.4033 -1.2945
  357MOL0     H48190   3.439  10.081   0.249  2.2586 -2.1765 -1.0449
  357MOL0     H48191   3.306   9.921   0.605  0.9845 -0.2854  0.5218
  357MOL0     H48192   4.035  10.278   0.154  0.3765  0.0528  0.4378
  357MOL0     H48193   4.345  10.282  -0.018  0.1036  1.4287 -0.2469
  357MOL0     H48194   4.196  10.355   0.017  1.3504  1.5749 -1.2544
  357MOL0     H48195   4.333  10.351   0.144  1.2276  0.3141 -0.6064
  358MOL0     O48196   6.873   1.171   1.856 -0.9814  0.0465  0.2992
  358MOL0     C48197   6.796   1.098   1.914  0.4468 -0.9383  0.1329
  358MOL0     O48198   6.825   0.978   1.969  0.0408  0.1266  1.1232
  358MOL0     C48199   6.958   0.949   1.951  0.4178 -0.1165 -0.0495
  358MOL0     C48200   7.002   0.901   1.822 -0.2918 -0.4340 -0.7602
  358MOL0     C48201   7.143   0.875   1.807 -0.1093  0.0442 -0.0263
  358MOL0     C48202   7.230   0.908   1.917 -0.2342 -0.1173  0.6308
  358MOL0     O48203   7.366   0.889   1.906 -0.0596 -0.4685  0.9288
  358MOL0     C48204   7.422   0.874   1.775 -0.2386  0.1090 -0.1557
  358MOL0     C48205   7.578   0.874   1.795  0.1021  0.1907  0.1072
  358MOL0     C48206   7.642   0.818   1.669  0.4838 -0.1273  0.4927
  358MOL0     C48207   7.787   0.829   1.664  0.0879  0.3665  0.1905
  358MOL0     C48208   7.830   0.974   1.634 -0.2832  0.2447 -0.1786
  358MOL0     C48209   7.982   0.972   1.615  0.1755 -0.4051  0.1922
  358MOL0     C48210   8.033   0.917   1.478  1.0091 -0.3605 -0.4036
  358MOL0     C48211   8.185   0.895   1.493 -0.2251 -0.4548 -0.2212
  358MOL0     N48212   8.249   0.896   1.367 -0.2699  0.2672 -0.1102
  358MOL0     C48213   8.243   0.793   1.269  0.3128  0.0158 -0.3785
  358MOL0     C48214   8.254   0.854   1.151  0.3804  0.1652 -0.5762
  358MOL0     C48215   8.246   0.788   1.017  1.0215  0.6971 -0.0312
  358MOL0     C48216   8.384   0.742   0.972 -0.8762 -0.3720  0.2136
  358MOL0     C48217   8.424   0.602   1.031  0.0121 -0.0262 -0.4543
  358MOL0     C48218   8.578   0.591   1.012  0.3696  0.6710  0.3603
  358MOL0     O48219   8.635   0.688   1.101 -0.1355 -0.0003 -0.5422
  358MOL0     C48220   8.768   0.672   1.124  0.3132 -0.4065  0.3801
  358MOL0     C48221   8.856   0.615   1.031 -0.2333  0.7030  0.6782
  358MOL0     C48222   8.993   0.618   1.054  0.3734 -0.1066 -0.3001
  358MOL0     C48223   9.055   0.685   1.164  0.0544  0.4201 -0.1900
  358MOL0     C48224   9.208   0.693   1.174  1.3034 -0.7148 -0.1538
  358MOL0     O48225   9.283   0.609   1.106 -0.6188  0.4069 -0.4435
  358MOL0     C48226   9.423   0.605   1.128  0.3668 -0.0472  0.1222
  358MOL0     C48227   9.508   0.711   1.089  0.4973  0.4320 -0.8450
  358MOL0     C48228   9.642   0.708   1.131 -0.1342 -0.4609 -0.3874
  358MOL0     C48229   9.694   0.601   1.194 -0.5954 -0.2451 -0.0768
  358MOL0     O48230   9.834   0.601   1.227 -0.3581 -0.2637 -1.0359
  358MOL0     C48231   9.880   0.726   1.284 -0.0528  0.2610  0.2022
  358MOL0     C48232   9.999   0.718   1.371  0.1131  0.6484 -0.4268
  358MOL0     C48233  10.118   0.655   1.285  0.5259 -0.1877 -0.6648
  358MOL0     C48234  10.232   0.632   1.383  0.3889  0.2061  0.7110
  358MOL0     C48235  10.344   0.578   1.295  0.2561  0.0617 -0.0541
  358MOL0     C48236  10.464   0.545   1.387 -0.4364  0.7054 -0.2189
  358MOL0     C48237  10.598   0.542   1.321 -0.1482 -0.0337 -0.0197
  358MOL0     C48238  10.695   0.471   1.427 -0.1173  0.2203  0.1606
  358MOL0    Cl48239  10.866   0.488   1.396  0.3597 -0.3959 -0.0013
  358MOL0     C48240   9.613   0.498   1.229 -0.6966  0.2979  0.8181
  358MOL0     C48241   9.478   0.501   1.199 -0.6870 -0.0647 -0.3199
  358MOL0     O48242   9.248   0.775   1.259 -0.5811  0.2664  0.7027
  358MOL0     C48243   8.966   0.751   1.250  0.5204  0.2394  0.8624
  358MOL0     C48244   8.826   0.741   1.229  0.5371  0.4348  0.3341
  358MOL0     N48245   8.257   0.990   1.182  0.6839  0.8575 -0.0058
  358MOL0     N48246   8.253   1.012   1.304  0.8494  0.0279 -0.3608
  358MOL0     C48247   7.185   0.945   2.050 -0.2196 -0.2968  0.3751
  358MOL0     C48248   7.049   0.971   2.060  0.6198  0.3167 -0.3152
  358MOL0     C48249   6.657   1.150   1.918  0.2415  0.9131 -0.2282
  358MOL0     C48250   6.551   1.063   1.961  0.0766  0.1562 -0.3945
  358MOL0     C48251   6.420   1.092   1.959 -0.1230  0.0512 -0.1594
  358MOL0     C48252   6.370   1.213   1.912  0.3382 -0.8472 -1.0436
  358MOL0     O48253   6.233   1.243   1.905  0.2971 -0.1145  0.0148
  358MOL0     C48254   6.137   1.155   1.967 -0.5509 -0.9117 -0.1185
  358MOL0     C48255   5.998   1.207   1.935 -0.6457 -0.9958  0.1538
  358MOL0     C48256   5.976   1.198   1.783 -0.2266 -0.1518  0.3590
  358MOL0     C48257   5.837   1.238   1.743  0.2326  0.1134 -1.4134
  358MOL0     C48258   5.731   1.131   1.770  0.1391  0.4981 -0.1627
  358MOL0     C48259   5.632   1.060   1.799 -0.4549  0.6737  0.5468
  358MOL0     C48260   6.473   1.303   1.873  0.1872 -0.4981  0.8608
  358MOL0     C48261   6.615   1.280   1.878  0.7530  0.4348  0.8743
  358MOL0     C48262   6.705   1.395   1.841  0.0407  1.1409 -0.9697
  358MOL0     H48263   6.925   0.885   1.747 -3.1802  3.5022  1.0411
  358MOL0     H48264   7.177   0.828   1.715  0.8445 -1.5860  1.0952
  358MOL0     H48265   7.392   0.782   1.725 -0.6201  1.1593 -1.9255
  358MOL0     H48266   7.393   0.959   1.712  2.6076  0.6904 -0.7989
  358MOL0     H48267   7.611   0.825   1.887 -1.4862  1.2284  1.2827
  358MOL0     H48268   7.616   0.974   1.817  0.8540 -0.1818  0.5566
  358MOL0     H48269   7.602   0.869   1.580  0.5329  1.2490  1.2305
  358MOL0     H48270   7.620   0.712   1.657  4.4136 -0.9944 -0.3512
  358MOL0     H48271   7.835   0.801   1.758  0.5022 -1.1115 -0.4266
  358MOL0     H48272   7.827   0.759   1.589 -1.9267 -2.5459  1.6704
  358MOL0     H48273   7.776   1.016   1.548 -2.4733 -1.1363  0.4535
  358MOL0     H48274   7.804   1.040   1.717  0.2672 -1.0374  1.0574
  358MOL0     H48275   8.024   1.073   1.619 -2.0318  0.5969 -0.2226
  358MOL0     H48276   8.030   0.922   1.700 -0.4369  4.0497  3.5789
  358MOL0     H48277   8.012   0.989   1.398  0.8605 -0.8521 -0.8141
  358MOL0     H48278   7.989   0.819   1.458  0.1370 -0.5718  2.1003
  358MOL0     H48279   8.233   0.969   1.559  0.0359 -1.9611  1.3448
  358MOL0     H48280   8.206   0.795   1.532 -1.3486 -0.2844  0.9071
  358MOL0     H48281   8.227   0.687   1.285 -1.8581  0.4956  1.0544
  358MOL0     H48282   8.177   0.705   1.033 -0.6517  2.3302  1.7420
  358MOL0     H48283   8.196   0.856   0.948  1.8471 -0.2296 -1.6017
  358MOL0     H48284   8.380   0.727   0.864 -3.8725  3.9563 -0.5241
  358MOL0     H48285   8.461   0.818   0.980 -0.2577 -0.8571 -0.8643
  358MOL0     H48286   8.376   0.511   0.994  2.9129 -1.4308 -1.1033
  358MOL0     H48287   8.415   0.610   1.139  2.4299  0.6433 -0.2255
  358MOL0     H48288   8.604   0.621   0.910  1.0978 -2.0360 -0.3245
  358MOL0     H48289   8.610   0.489   1.036  3.4136  1.6030  0.6176
  358MOL0     H48290   8.819   0.555   0.949  0.4898  0.3122  0.6306
  358MOL0     H48291   9.060   0.567   0.986  1.4385 -0.4800  1.0014
  358MOL0     H48292   9.471   0.780   1.014 -0.1725 -2.6984 -3.6696
  358MOL0     H48293   9.716   0.784   1.106  0.1416  0.0745  1.8457
  358MOL0     H48294   9.920   0.791   1.206 -0.8206 -0.1271 -0.5357
  358MOL0     H48295   9.802   0.778   1.339 -0.1912 -0.8480  1.1010
  358MOL0     H48296  10.022   0.820   1.401 -0.2380  0.1329  1.7604
  358MOL0     H48297   9.962   0.655   1.453  1.7736 -0.3268 -0.3881
  358MOL0     H48298  10.080   0.558   1.249  0.0053 -1.3918  2.7297
  358MOL0     H48299  10.135   0.714   1.194  0.9580 -2.7038 -2.3343
  358MOL0     H48300  10.205   0.561   1.461 -1.0543  0.4253  0.4418
  358MOL0     H48301  10.262   0.727   1.428  0.0766  0.2919  0.7401
  358MOL0     H48302  10.366   0.654   1.218 -1.7882  1.4010  0.6063
  358MOL0     H48303  10.300   0.493   1.243 -1.4580  0.1586  1.1748
  358MOL0     H48304  10.454   0.613   1.473 -1.3680 -1.0554  1.1276
  358MOL0     H48305  10.445   0.443   1.421  1.6208  0.1242 -0.6540
  358MOL0     H48306  10.628   0.645   1.297  1.9522 -0.6534 -0.2999
  358MOL0     H48307  10.597   0.484   1.229  2.4419  0.6924 -0.6049
  358MOL0     H48308  10.686   0.522   1.523 -2.0352  0.8688 -0.3236
  358MOL0     H48309  10.666   0.366   1.441  1.3917  0.1885  4.9146
  358MOL0     H48310   9.655   0.406   1.269 -0.2244 -0.0915 -0.5305
  358MOL0     H48311   9.432   0.410   1.236  1.7298 -0.6534  1.4235
  358MOL0     H48312   9.009   0.800   1.336 -0.2710  1.2612  0.6976
  358MOL0     H48313   8.754   0.791   1.293 -0.4770  1.5261 -1.5614
  358MOL0     H48314   7.263   0.978   2.117 -0.3079 -1.8396  1.2873
  358MOL0     H48315   7.004   1.009   2.151 -3.0117 -2.0214 -0.9226
  358MOL0     H48316   6.566   0.966   2.007 -0.2077  0.1596 -0.2941
  358MOL0     H48317   6.355   1.010   1.989 -1.0635  0.2188 -1.6453
  358MOL0     H48318   6.155   1.169   2.074 -2.8184  0.3107  0.1740
  358MOL0     H48319   6.150   1.048   1.953 -1.5802 -1.2982  1.5770
  358MOL0     H48320   5.993   1.313   1.962  0.0964 -1.3126  1.6386
  358MOL0     H48321   5.929   1.149   1.996 -0.7801  0.5242  1.5051
  358MOL0     H48322   6.006   1.100   1.744 -0.0850 -0.3085  0.8590
  358MOL0     H48323   6.045   1.268   1.737  0.8321 -0.9511  0.6843
  358MOL0     H48324   5.812   1.329   1.798  4.0460  0.6170 -0.2661
  358MOL0     H48325   5.842   1.258   1.636  0.4308  2.8102 -0.9693
  358MOL0     H48326   5.564   0.981   1.826  0.4059 -0.3044 -0.0469
  358MOL0     H48327   6.426   1.396   1.844 -0.8334 -0.8833  1.2558
  358MOL0     H48328   6.785   1.408   1.914 -2.3208 -1.3990  2.3927
  358MOL0     H48329   6.746   1.363   1.744 -1.6324 -3.1744 -0.4986
  358MOL0     H48330   6.648   1.488   1.834 -4.2145 -1.2369 -1.4710
  359MOL0     O48331   4.419  10.450   7.521 -0.0348  0.6409  0.2807
  359MOL0     C48332   4.373  10.531   7.443 -0.4505  0.3063 -0.2828
  359MOL0     O48333   4.432  10.560   7.329 -1.6525 -0.0741 -0.5895
  359MOL0     C48334   4.575  10.554   7.322  0.0569  0.0890 -0.6430
  359MOL0     C48335   4.642  10.636   7.417  0.8409 -0.5294  0.4316
  359MOL0     C48336   4.775  10.643   7.421 -1.2036  0.3861 -0.3675
  359MOL0     C48337   4.848  10.560   7.336 -0.0150 -0.0254 -0.6707
  359MOL0     O48338   4.989  10.564   7.348  0.8070  0.5542 -0.2940
  359MOL0     C48339   5.051  10.579   7.222  0.4861  0.3906 -0.4556
  359MOL0     C48340   5.200  10.604   7.240  0.0080  0.3651  0.1714
  359MOL0     C48341   5.280  10.647   7.119 -0.8516 -0.5709 -0.0661
  359MOL0     C48342   5.419  10.671   7.168 -0.4287 -0.5178 -0.5249
  359MOL0     C48343   5.525  10.722   7.067  0.1123  0.4953 -0.1554
  359MOL0     C48344   5.657  10.741   7.138 -0.5811 -1.0097  0.5692
  359MOL0     C48345   5.763  10.814   7.045 -0.4013 -0.2143 -0.2986
  359MOL0     C48346   5.836  10.701   6.956  0.1452 -0.2447 -0.7014
  359MOL0     N48347   5.959  10.762   6.906 -0.1595  0.2906  0.1031
  359MOL0     C48348   5.994  10.792   6.779  0.3576  0.5808  0.7323
  359MOL0     C48349   6.118  10.843   6.785 -0.9971  0.6025  0.3129
  359MOL0     C48350   6.189  10.887   6.659 -0.0321 -0.7499 -0.0763
  359MOL0     C48351   6.197  11.045   6.646  0.4659  0.3621 -0.0878
  359MOL0     C48352   6.330  11.088   6.574  0.2293  0.7957  0.0862
  359MOL0     C48353   6.318  11.245   6.560  0.3606 -0.2268  0.1363
  359MOL0     O48354   6.406  11.294   6.454  0.1463  0.1454  0.4080
  359MOL0     C48355   6.536  11.321   6.479 -0.1874 -0.3392 -0.7717
  359MOL0     C48356   6.607  11.293   6.598  0.8121  0.0894  0.0206
  359MOL0     C48357   6.734  11.336   6.619  1.4548  0.3012  0.3621
  359MOL0     C48358   6.798  11.412   6.519  0.5484 -0.1350 -0.7967
  359MOL0     C48359   6.943  11.463   6.532  0.5766  0.0598 -0.1084
  359MOL0     O48360   6.996  11.520   6.430 -0.0254  0.0838  0.6095
  359MOL0     C48361   7.115  11.575   6.447  0.2319 -0.9036  0.0366
  359MOL0     C48362   7.225  11.513   6.400  0.2082 -0.0655  0.0895
  359MOL0     C48363   7.351  11.563   6.404 -0.5479  0.1754  1.4072
  359MOL0     C48364   7.370  11.697   6.442  0.3104 -0.2192  0.3913
  359MOL0     O48365   7.495  11.763   6.444 -0.2525  0.4195  0.2443
  359MOL0     C48366   7.612  11.676   6.448 -0.0902  0.3558  0.2684
  359MOL0     C48367   7.744  11.755   6.468 -0.5220  0.3695 -0.0773
  359MOL0     C48368   7.755  11.863   6.366 -1.1306 -0.3457  0.0487
  359MOL0     C48369   7.880  11.944   6.403  0.5895  0.5574 -0.4718
  359MOL0     C48370   7.902  12.059   6.302  0.4766 -0.8506 -0.0400
  359MOL0     C48371   7.997  12.030   6.187 -0.8202 -0.6206 -0.3391
  359MOL0     C48372   7.939  11.934   6.085  0.0241 -0.3397  0.8931
  359MOL0     C48373   8.032  11.921   5.964 -0.8394  1.7240  0.1489
  359MOL0    Cl48374   8.190  11.840   6.006 -0.0408 -0.3218  0.1445
  359MOL0     C48375   7.254  11.761   6.488  0.9095  0.2067  0.2035
  359MOL0     C48376   7.130  11.712   6.489 -0.3130  0.4682  0.2985
  359MOL0     O48377   6.993  11.458   6.646 -0.1826 -0.4412  0.3225
  359MOL0     C48378   6.734  11.444   6.398  0.8789 -0.3817 -0.6688
  359MOL0     C48379   6.603  11.389   6.382 -0.2202 -0.1257  0.6029
  359MOL0     N48380   6.162  10.844   6.912  0.2291 -0.3923  0.1536
  359MOL0     N48381   6.057  10.797   6.989 -0.3605 -0.2994  0.3241
  359MOL0     C48382   4.783  10.475   7.246 -0.0791 -1.1703  0.6438
  359MOL0     C48383   4.648  10.486   7.227  1.0019  0.4480  0.6008
  359MOL0     C48384   4.226  10.569   7.465 -0.8249  0.2157 -0.2654
  359MOL0     C48385   4.166  10.605   7.344  0.3510  0.1335  0.2605
  359MOL0     C48386   4.023  10.624   7.339 -0.2797 -0.1513  0.8960
  359MOL0     C48387   3.950  10.634   7.456  0.2589  0.6695  0.4054
  359MOL0     O48388   3.817  10.668   7.448  0.3546 -0.1500 -0.3844
  359MOL0     C48389   3.726  10.640   7.549 -0.3566  0.2369  0.8019
  359MOL0     C48390   3.598  10.723   7.540  0.0162 -0.5317 -0.5121
  359MOL0     C48391   3.624  10.874   7.569 -0.0729  0.2336  0.2957
  359MOL0     C48392   3.518  10.963   7.517 -0.4560 -0.7164 -0.8711
  359MOL0     C48393   3.380  10.921   7.551  0.2179 -0.2036  0.7432
  359MOL0     C48394   3.267  10.902   7.590 -0.5962 -0.0751  0.4206
  359MOL0     C48395   4.011  10.599   7.579  0.1453 -0.7389 -0.2877
  359MOL0     C48396   4.149  10.571   7.582 -0.4722 -0.9537  0.1541
  359MOL0     C48397   4.211  10.527   7.713 -0.4885  0.1445  0.2357
  359MOL0     H48398   4.578  10.685   7.490 -0.5915 -1.2326 -0.3112
  359MOL0     H48399   4.819  10.719   7.484 -1.1970  0.7848 -0.8450
  359MOL0     H48400   5.034  10.494   7.155  0.6772  0.5949 -0.7673
  359MOL0     H48401   5.003  10.670   7.187  1.2151  0.5259 -1.1384
  359MOL0     H48402   5.234  10.504   7.266 -2.1260 -0.4383  0.0471
  359MOL0     H48403   5.215  10.682   7.315  1.6839  1.8848 -1.6300
  359MOL0     H48404   5.241  10.737   7.071  0.4974 -0.0264 -0.2096
  359MOL0     H48405   5.297  10.563   7.052  0.2084 -1.1735  0.9087
  359MOL0     H48406   5.413  10.747   7.246 -0.3294 -0.5097 -0.5248
  359MOL0     H48407   5.442  10.576   7.215  0.4558  0.7495  1.7375
  359MOL0     H48408   5.537  10.643   6.992 -2.0141  1.3202 -1.4408
  359MOL0     H48409   5.483  10.805   7.010 -1.7246  0.4644  1.0642
  359MOL0     H48410   5.644  10.815   7.218 -0.6889  0.6698 -0.9258
  359MOL0     H48411   5.688  10.647   7.183  0.6007 -1.5273 -1.2408
  359MOL0     H48412   5.834  10.868   7.109 -1.9389 -0.0170  1.2998
  359MOL0     H48413   5.713  10.884   6.978 -0.3308  0.1767  0.0562
  359MOL0     H48414   5.876  10.614   7.008  1.2643 -0.0025 -1.1279
  359MOL0     H48415   5.765  10.667   6.880  0.1950  0.9109 -1.2879
  359MOL0     H48416   5.935  10.768   6.691  2.8877  0.7435 -1.1532
  359MOL0     H48417   6.290  10.846   6.667  0.4171  0.4623  0.7313
  359MOL0     H48418   6.146  10.855   6.563  2.5395  2.0424 -2.3421
  359MOL0     H48419   6.107  11.076   6.592  0.4579  0.3493 -0.0818
  359MOL0     H48420   6.199  11.087   6.747 -0.4102  1.4313 -0.4901
  359MOL0     H48421   6.326  11.048   6.472  0.6807  1.9234 -0.3958
  359MOL0     H48422   6.416  11.044   6.625 -0.0039  3.3993  2.9842
  359MOL0     H48423   6.343  11.304   6.649  3.7161 -1.0317 -0.1156
  359MOL0     H48424   6.214  11.263   6.532  0.3800 -0.2697  0.0360
  359MOL0     H48425   6.560  11.236   6.678 -2.1178  1.7948 -0.3501
  359MOL0     H48426   6.792  11.314   6.708  0.2224 -2.3190  0.6032
  359MOL0     H48427   7.208  11.411   6.368  2.4628 -0.5049  0.1383
  359MOL0     H48428   7.436  11.505   6.369  0.2962  0.5385  2.7558
  359MOL0     H48429   7.598  11.606   6.531 -1.2761  2.5640  2.0225
  359MOL0     H48430   7.627  11.622   6.354  3.0202  1.8034 -0.2036
  359MOL0     H48431   7.743  11.797   6.569 -1.9716  0.8547 -0.2715
  359MOL0     H48432   7.826  11.684   6.457 -0.4247  0.3939  0.4718
  359MOL0     H48433   7.765  11.819   6.266 -0.8793 -1.6383  0.6150
  359MOL0     H48434   7.673  11.935   6.366 -0.0320  0.9607 -1.1727
  359MOL0     H48435   7.970  11.884   6.387  0.5629  0.5872 -0.7388
  359MOL0     H48436   7.875  11.979   6.507  2.2721  0.0030 -0.1825
  359MOL0     H48437   7.951  12.141   6.355 -2.2276 -0.0130  1.3634
  359MOL0     H48438   7.809  12.104   6.264  1.1430  0.8980  0.3246
  359MOL0     H48439   8.029  12.121   6.135  2.4567 -1.7864 -0.5609
  359MOL0     H48440   8.088  11.980   6.221 -0.4279 -0.9118 -1.7410
  359MOL0     H48441   7.843  11.980   6.058 -0.1136 -0.3443  1.3690
  359MOL0     H48442   7.923  11.834   6.124 -0.7764 -0.4141  0.4148
  359MOL0     H48443   7.989  11.862   5.882 -0.6873  1.6861  0.0963
  359MOL0     H48444   8.049  12.022   5.925 -0.1490  0.8480 -1.9370
  359MOL0     H48445   7.271  11.857   6.535  3.2885 -0.9470  1.8477
  359MOL0     H48446   7.042  11.774   6.502 -1.9522 -0.7635 -3.4467
  359MOL0     H48447   6.786  11.492   6.316  4.9867 -1.9655  0.6984
  359MOL0     H48448   6.548  11.400   6.289 -1.0840  1.0538  1.2325
  359MOL0     H48449   4.835  10.401   7.187 -0.5106  0.6361 -2.1864
  359MOL0     H48450   4.594  10.409   7.172 -1.8987  1.5874  1.6644
  359MOL0     H48451   4.225  10.629   7.257  0.7512  2.1616  1.0432
  359MOL0     H48452   3.980  10.638   7.240  1.6895  0.0117  0.0019
  359MOL0     H48453   3.774  10.645   7.647 -1.8150 -1.5383  1.6824
  359MOL0     H48454   3.692  10.537   7.537 -0.6405  0.0532  2.7627
  359MOL0     H48455   3.525  10.679   7.608  2.3697 -0.7315  2.0568
  359MOL0     H48456   3.552  10.718   7.440 -2.2808 -2.1940  0.5390
  359MOL0     H48457   3.724  10.903   7.535  0.5860  0.3854  2.2459
  359MOL0     H48458   3.628  10.868   7.678 -0.6842  1.4510  0.4028
  359MOL0     H48459   3.529  11.068   7.546 -1.3357 -0.1821 -2.3914
  359MOL0     H48460   3.533  10.968   7.409  0.3236  2.8287 -0.7248
  359MOL0     H48461   3.173  10.886   7.639 -0.8166  0.5107  0.1947
  359MOL0     H48462   3.967  10.598   7.679 -0.2723 -0.7189 -0.4689
  359MOL0     H48463   4.306  10.581   7.716 -2.3126  4.1643 -2.9809
  359MOL0     H48464   4.148  10.555   7.798 -0.5865 -1.1506  0.6074
  359MOL0     H48465   4.234  10.421   7.723 -1.8498 -0.0662  1.4549
  360MOL0     O48466   3.466   3.067   3.834 -0.6335  0.1475  0.0998
  360MOL0     C48467   3.429   3.061   3.950  0.1359  0.8269 -0.5640
  360MOL0     O48468   3.508   3.078   4.055 -0.6218  0.4085 -0.4080
  360MOL0     C48469   3.633   3.124   4.031  0.0909  0.1480 -0.6168
  360MOL0     C48470   3.657   3.258   3.975  0.2282 -0.8279  0.0576
  360MOL0     C48471   3.783   3.308   3.958 -0.3884 -0.2195  0.2333
  360MOL0     C48472   3.889   3.229   4.007  0.0084 -0.4750 -0.0198
  360MOL0     O48473   4.016   3.278   3.986 -0.0605  0.2577  0.3488
  360MOL0     C48474   4.129   3.199   4.027  0.3458  0.0490  0.1731
  360MOL0     C48475   4.255   3.286   3.998 -0.4030  0.6488  0.2384
  360MOL0     C48476   4.387   3.205   4.024  0.4293 -0.1545 -0.0561
  360MOL0     C48477   4.521   3.277   4.003  0.0644 -0.2897 -0.9918
  360MOL0     C48478   4.630   3.185   4.027  0.5616  0.9575 -0.3108
  360MOL0     C48479   4.768   3.241   4.012 -0.0817 -0.1540  0.0670
  360MOL0     C48480   4.879   3.136   4.045  1.1174  0.2479  0.3347
  360MOL0     C48481   5.016   3.196   4.026  0.0150 -0.1750  0.2036
  360MOL0     N48482   5.064   3.281   4.137 -0.7210 -0.5835 -0.3874
  360MOL0     C48483   5.108   3.230   4.256 -0.2431  0.2640 -0.4218
  360MOL0     C48484   5.175   3.328   4.322  1.4925  0.1862  0.9451
  360MOL0     C48485   5.231   3.319   4.459 -0.0784 -0.3999 -0.5406
  360MOL0     C48486   5.384   3.316   4.465 -0.0817 -0.7427 -0.7827
  360MOL0     C48487   5.450   3.453   4.469 -0.6688 -0.6601  0.1839
  360MOL0     C48488   5.595   3.428   4.481  0.7508 -0.8870 -0.2066
  360MOL0     O48489   5.647   3.366   4.373 -0.5378  0.3683  0.2811
  360MOL0     C48490   5.781   3.347   4.350 -0.9266  0.2082  1.3236
  360MOL0     C48491   5.811   3.306   4.212  0.0662 -0.4046 -0.0325
  360MOL0     C48492   5.942   3.306   4.162  0.6066 -0.6260  0.6270
  360MOL0     C48493   6.041   3.349   4.247  0.8054 -0.0297 -0.6526
  360MOL0     C48494   6.181   3.349   4.202  0.0358  0.3620  0.8884
  360MOL0     O48495   6.204   3.302   4.069  0.3562  0.0642 -0.0769
  360MOL0     C48496   6.325   3.305   4.014 -0.2040  0.2241  0.6987
  360MOL0     C48497   6.443   3.272   4.078 -0.1381 -0.2607  0.4344
  360MOL0     C48498   6.563   3.264   4.008 -0.7478 -0.0588  0.0168
  360MOL0     C48499   6.573   3.294   3.869 -0.3797 -0.3058  0.2981
  360MOL0     O48500   6.681   3.293   3.787 -0.0454  0.1974  0.6126
  360MOL0     C48501   6.809   3.308   3.858  0.5469  0.2373 -0.3925
  360MOL0     C48502   6.923   3.304   3.761  0.0737 -0.0301  1.0274
  360MOL0     C48503   7.048   3.331   3.829  0.0802 -1.0866 -0.2410
  360MOL0     C48504   7.161   3.346   3.721 -0.3060 -0.0126 -0.0188
  360MOL0     C48505   7.292   3.396   3.767  0.5243 -0.4324 -0.1233
  360MOL0     C48506   7.391   3.418   3.654  0.1008  0.2170 -0.9390
  360MOL0     C48507   7.365   3.561   3.594 -0.7833  1.1393  0.1936
  360MOL0     C48508   7.472   3.595   3.486  0.2625  0.2986  0.2639
  360MOL0    Cl48509   7.644   3.570   3.549 -0.2588 -0.1634  0.4688
  360MOL0     C48510   6.452   3.328   3.811  0.4305  0.6964  0.3094
  360MOL0     C48511   6.328   3.331   3.879  0.1127 -0.4218  0.3939
  360MOL0     O48512   6.262   3.409   4.268 -0.5129 -0.3926  0.1104
  360MOL0     C48513   6.010   3.382   4.382  0.1735  0.1188 -0.4320
  360MOL0     C48514   5.883   3.374   4.441 -0.3279 -0.4565  1.5911
  360MOL0     N48515   5.177   3.432   4.238  0.1654 -0.8216 -0.0198
  360MOL0     N48516   5.105   3.411   4.134  0.0837 -0.4885  0.2498
  360MOL0     C48517   3.873   3.100   4.079  1.1311 -0.6722  0.0506
  360MOL0     C48518   3.740   3.049   4.083  0.6186  0.2092 -1.1039
  360MOL0     C48519   3.289   3.046   3.991  0.5107 -0.7045  0.5639
  360MOL0     C48520   3.248   3.099   4.114  0.8162 -1.3675 -0.1221
  360MOL0     C48521   3.118   3.076   4.159  0.7986 -0.9818 -0.1968
  360MOL0     C48522   3.026   3.001   4.087  0.1045  0.7144  0.2185
  360MOL0     O48523   2.894   2.979   4.136 -0.1224 -0.4975 -0.0463
  360MOL0     C48524   2.795   2.927   4.048  0.0616 -0.4115  0.9149
  360MOL0     C48525   2.655   2.931   4.114  0.1226  0.1334 -0.4802
  360MOL0     C48526   2.539   2.882   4.022 -0.6444 -0.7137 -1.1555
  360MOL0     C48527   2.510   2.731   4.032 -0.3987 -0.1827 -0.0715
  360MOL0     C48528   2.616   2.653   3.963  0.3929  0.1186 -0.3685
  360MOL0     C48529   2.698   2.596   3.897 -0.6450  0.1976  0.2159
  360MOL0     C48530   3.071   2.951   3.958 -0.6092  0.3985  0.5749
  360MOL0     C48531   3.194   2.981   3.905 -0.1145 -1.1558  0.3442
  360MOL0     C48532   3.210   2.911   3.769 -0.4122  0.9142 -0.6758
  360MOL0     H48533   3.565   3.314   3.964  1.7932  2.2606  1.5403
  360MOL0     H48534   3.798   3.404   3.910  0.3280 -0.4059  0.0631
  360MOL0     H48535   4.140   3.188   4.135  3.4577  0.0770 -0.0520
  360MOL0     H48536   4.138   3.105   3.972  4.7683 -0.6411  1.6559
  360MOL0     H48537   4.258   3.363   4.076 -0.5599 -0.9156  1.8577
  360MOL0     H48538   4.258   3.323   3.895  0.2416  1.6808  0.6156
  360MOL0     H48539   4.377   3.122   3.953  1.9583 -1.3519  1.0603
  360MOL0     H48540   4.387   3.157   4.122 -1.2466  0.5649  0.3357
  360MOL0     H48541   4.530   3.312   3.899 -4.3954 -0.8057 -1.7839
  360MOL0     H48542   4.519   3.361   4.073 -1.2832 -0.7793 -0.4063
  360MOL0     H48543   4.620   3.149   4.130  0.5262  0.1465 -0.5910
  360MOL0     H48544   4.625   3.096   3.964 -1.3174  1.3509 -0.7695
  360MOL0     H48545   4.778   3.282   3.911 -0.3804 -0.8993 -0.2689
  360MOL0     H48546   4.775   3.318   4.089 -0.3188  1.2355 -1.2450
  360MOL0     H48547   4.860   3.063   3.966 -1.5511  1.6810 -0.4772
  360MOL0     H48548   4.857   3.093   4.143 -0.9289  0.4984  0.0172
  360MOL0     H48549   5.082   3.108   4.021  0.2871 -0.2446  3.0471
  360MOL0     H48550   5.015   3.252   3.933  0.0532 -1.1854 -0.4250
  360MOL0     H48551   5.089   3.126   4.282  2.5240  0.0550  1.2397
  360MOL0     H48552   5.197   3.407   4.513  0.1154  1.2491 -2.9541
  360MOL0     H48553   5.181   3.233   4.505  0.0667 -0.1403  0.1048
  360MOL0     H48554   5.416   3.250   4.546  0.3411 -1.1653 -1.2866
  360MOL0     H48555   5.417   3.273   4.370 -0.1414  1.8666 -2.0888
  360MOL0     H48556   5.422   3.509   4.558 -1.1194 -3.2681  1.7761
  360MOL0     H48557   5.427   3.506   4.376 -0.5149  0.4310  0.7498
  360MOL0     H48558   5.613   3.360   4.564  1.6044 -4.2258 -2.9227
  360MOL0     H48559   5.648   3.523   4.490 -2.8765  1.2013  1.7643
  360MOL0     H48560   5.735   3.303   4.134  0.6254  0.8079 -0.6565
  360MOL0     H48561   5.959   3.286   4.057 -1.5397  2.2844 -0.4049
  360MOL0     H48562   6.439   3.256   4.185  1.5936  0.9543  0.7283
  360MOL0     H48563   6.651   3.244   4.067  0.9685 -0.8614 -2.6148
  360MOL0     H48564   6.807   3.402   3.913  1.0169  1.2071 -1.9607
  360MOL0     H48565   6.819   3.220   3.923  1.1935  0.5727 -0.0303
  360MOL0     H48566   6.928   3.208   3.708 -1.7103  0.5921 -0.3467
  360MOL0     H48567   6.907   3.384   3.688  1.3373 -1.5777 -1.0711
  360MOL0     H48568   7.052   3.426   3.882 -1.6313 -1.9448  1.5491
  360MOL0     H48569   7.077   3.247   3.892 -1.0369 -1.9145 -0.7895
  360MOL0     H48570   7.129   3.410   3.639  0.4446 -0.7194 -0.8876
  360MOL0     H48571   7.181   3.244   3.684 -1.4458 -1.0998  2.1681
  360MOL0     H48572   7.330   3.326   3.842 -1.6307 -1.1054  0.4163
  360MOL0     H48573   7.267   3.494   3.808 -0.2781  0.6786 -3.0856
  360MOL0     H48574   7.489   3.400   3.699 -1.1340 -2.4936  0.9408
  360MOL0     H48575   7.385   3.340   3.577 -1.6406 -1.8345  1.1374
  360MOL0     H48576   7.372   3.636   3.673 -0.0707  0.0960  1.1476
  360MOL0     H48577   7.261   3.556   3.559 -1.9789 -1.5013  3.6490
  360MOL0     H48578   7.467   3.541   3.391  1.8377  1.2360 -0.3974
  360MOL0     H48579   7.449   3.698   3.458 -2.4918 -0.4756 -0.6247
  360MOL0     H48580   6.462   3.335   3.703  0.6370 -0.9716  0.1924
  360MOL0     H48581   6.231   3.353   3.834 -0.7476 -2.7525  0.9458
  360MOL0     H48582   6.098   3.419   4.434  0.3378  1.1793 -1.4107
  360MOL0     H48583   5.849   3.392   4.543 -3.6026 -1.5283  0.8459
  360MOL0     H48584   3.959   3.044   4.113  2.9472  1.8552 -0.0998
  360MOL0     H48585   3.717   2.959   4.140 -1.5689  2.1169  1.2731
  360MOL0     H48586   3.321   3.145   4.181 -1.9771 -1.4887  3.3124
  360MOL0     H48587   3.082   3.115   4.254  0.6308 -2.6552  0.4489
  360MOL0     H48588   2.822   2.827   4.013 -3.8952 -0.6153 -2.2556
  360MOL0     H48589   2.779   2.991   3.961 -2.5788 -0.1201  1.5332
  360MOL0     H48590   2.649   3.038   4.135  1.9333  0.7256 -2.5841
  360MOL0     H48591   2.659   2.880   4.211  2.6795  0.0943 -0.5315
  360MOL0     H48592   2.559   2.920   3.922  0.0105  1.3507 -0.2965
  360MOL0     H48593   2.445   2.933   4.046 -0.9802 -0.9044 -2.0280
  360MOL0     H48594   2.499   2.708   4.139 -1.5546  1.5885  0.2237
  360MOL0     H48595   2.417   2.701   3.985  0.1605 -0.5396 -0.9714
  360MOL0     H48596   2.768   2.534   3.844  0.2208  2.8621 -2.0143
  360MOL0     H48597   2.994   2.889   3.912  0.1009  1.0423 -1.5598
  360MOL0     H48598   3.314   2.893   3.740 -0.8633  0.3624 -2.0157
  360MOL0     H48599   3.155   2.816   3.769  1.3024 -0.1279 -2.1868
  360MOL0     H48600   3.170   2.984   3.698  0.2871  3.4373  1.3552
  361MOL0     O48601   3.612  10.652   5.717  0.2925 -0.1287  0.3046
  361MOL0     C48602   3.569  10.685   5.830 -0.0941  0.1408 -0.4929
  361MOL0     O48603   3.617  10.797   5.893  0.2193  0.9147 -0.2146
  361MOL0     C48604   3.710  10.878   5.837 -0.5266  0.8918  0.2500
  361MOL0     C48605   3.794  10.959   5.917  0.1552  0.5868 -0.0670
  361MOL0     C48606   3.884  11.046   5.862  0.3062  0.7962 -0.3680
  361MOL0     C48607   3.900  11.065   5.733 -0.4508 -0.5757  0.2126
  361MOL0     O48608   3.995  11.163   5.698 -0.5443  0.4651 -0.5996
  361MOL0     C48609   4.020  11.177   5.559 -0.0548 -0.4775  0.5080
  361MOL0     C48610   4.133  11.283   5.525 -0.3502 -0.5597 -0.7989
  361MOL0     C48611   4.262  11.242   5.587 -0.3666  0.6472 -0.9425
  361MOL0     C48612   4.361  11.352   5.551 -0.1497  0.4147 -0.0233
  361MOL0     C48613   4.501  11.310   5.598  0.7177 -0.2311 -0.1947
  361MOL0     C48614   4.603  11.424   5.565  0.3923 -0.3710 -0.9327
  361MOL0     C48615   4.751  11.398   5.625  0.1610 -0.4357  0.1588
  361MOL0     C48616   4.805  11.268   5.566 -0.4368 -0.2509  0.2234
  361MOL0     N48617   4.944  11.277   5.619  0.1116 -0.0207 -0.1307
  361MOL0     C48618   4.973  11.285   5.755  0.4937 -0.1517  0.5912
  361MOL0     C48619   5.103  11.301   5.756 -0.7018  0.1215  0.0181
  361MOL0     C48620   5.190  11.312   5.877  0.5304 -0.2101  0.3398
  361MOL0     C48621   5.236  11.454   5.907 -0.4044  0.4623  0.3903
  361MOL0     C48622   5.308  11.468   6.038  0.5035  0.2203 -0.2073
  361MOL0     C48623   5.416  11.565   6.009  0.0864 -0.2356 -0.1741
  361MOL0     O48624   5.355  11.688   5.960 -0.0450  0.4533 -0.1029
  361MOL0     C48625   5.429  11.772   5.882  0.3184  0.4691  0.3162
  361MOL0     C48626   5.561  11.756   5.842 -0.1047 -0.2967  0.7690
  361MOL0     C48627   5.606  11.842   5.739  1.4398 -1.0931  0.0043
  361MOL0     C48628   5.521  11.933   5.671 -0.4263 -0.6284 -0.2374
  361MOL0     C48629   5.563  12.028   5.555  0.6254 -0.3310 -0.1059
  361MOL0     O48630   5.678  11.995   5.501 -0.5844 -0.0157  0.5118
  361MOL0     C48631   5.757  12.095   5.456  0.3878  0.1283  0.1405
  361MOL0     C48632   5.802  12.098   5.320 -0.1807  0.1547  0.1221
  361MOL0     C48633   5.910  12.183   5.282 -0.1731  0.2340 -0.1685
  361MOL0     C48634   5.973  12.258   5.380 -0.4609 -0.4682  0.9879
  361MOL0     O48635   6.087  12.332   5.357 -0.5678 -0.4010 -0.9993
  361MOL0     C48636   6.094  12.426   5.243  0.6117  0.3399 -0.1446
  361MOL0     C48637   6.224  12.491   5.225 -0.9030 -0.8272  0.1515
  361MOL0     C48638   6.335  12.395   5.180 -0.6290  0.4417  0.9318
  361MOL0     C48639   6.459  12.478   5.149  0.3604  0.6008 -0.1838
  361MOL0     C48640   6.582  12.391   5.141 -0.3527 -0.1530  0.7628
  361MOL0     C48641   6.703  12.472   5.126  0.6821  0.4856  0.3283
  361MOL0     C48642   6.825  12.382   5.110 -0.1080  0.4114  0.9812
  361MOL0     C48643   6.953  12.474   5.080  1.1028 -0.2496 -0.2479
  361MOL0    Cl48644   7.085  12.394   5.002 -0.2424  0.2002  0.4880
  361MOL0     C48645   5.932  12.255   5.511 -0.1756 -0.3336 -0.3364
  361MOL0     C48646   5.826  12.170   5.554  0.3555 -0.1197 -0.3509
  361MOL0     O48647   5.492  12.121   5.520  1.2167 -0.3082 -0.4680
  361MOL0     C48648   5.382  11.946   5.714 -0.9692 -0.4504 -0.4323
  361MOL0     C48649   5.343  11.868   5.824 -0.8371  0.0733 -0.3273
  361MOL0     N48650   5.156  11.270   5.629  0.5750  0.3444 -0.5843
  361MOL0     N48651   5.054  11.264   5.545  0.0654  0.0527 -0.6344
  361MOL0     C48652   3.811  10.994   5.650  0.0398  0.8791  0.8491
  361MOL0     C48653   3.713  10.904   5.698  0.7152 -0.4019 -0.1360
  361MOL0     C48654   3.484  10.590   5.906  0.0451  0.0809  0.5197
  361MOL0     C48655   3.494  10.586   6.041 -0.5250  0.5716 -0.2127
  361MOL0     C48656   3.417  10.496   6.121 -0.7962  0.6408 -0.7347
  361MOL0     C48657   3.329  10.410   6.055 -0.3550 -0.3094  0.0913
  361MOL0     O48658   3.266  10.318   6.134 -0.0229 -0.3162 -1.0130
  361MOL0     C48659   3.132  10.288   6.109 -0.0421  0.4055  0.3134
  361MOL0     C48660   3.048  10.336   6.226  0.5310 -0.5693 -0.4463
  361MOL0     C48661   2.892  10.318   6.215 -0.6561 -0.0894  0.6215
  361MOL0     C48662   2.825  10.419   6.311 -0.1162  0.1778  0.0666
  361MOL0     C48663   2.823  10.556   6.246  0.4963 -0.1697 -0.2549
  361MOL0     C48664   2.812  10.672   6.214 -0.2919 -0.1151 -0.1123
  361MOL0     C48665   3.307  10.424   5.917 -0.0919  0.0244  0.1292
  361MOL0     C48666   3.386  10.507   5.838  0.1750 -0.6090 -0.0157
  361MOL0     C48667   3.356  10.514   5.689  0.0630 -1.2513  0.0264
  361MOL0     H48668   3.789  10.951   6.025  0.3047  0.0487 -0.0988
  361MOL0     H48669   3.946  11.112   5.921 -0.6513  3.9134 -2.6182
  361MOL0     H48670   4.045  11.082   5.511 -0.4408  0.0351 -0.7497
  361MOL0     H48671   3.928  11.223   5.523  0.8475  0.3132 -0.8576
  361MOL0     H48672   4.090  11.377   5.561 -1.7239 -0.7831 -1.7728
  361MOL0     H48673   4.144  11.293   5.417 -0.2956  3.2291 -0.5830
  361MOL0     H48674   4.285  11.144   5.543  2.7507  0.2459  1.2399
  361MOL0     H48675   4.239  11.227   5.692  0.6685  0.0719 -0.7828
  361MOL0     H48676   4.365  11.365   5.443  0.6649  2.3695  0.2072
  361MOL0     H48677   4.339  11.450   5.595  1.2668  0.6687  0.1719
  361MOL0     H48678   4.491  11.291   5.705 -0.1532  2.5822  0.3008
  361MOL0     H48679   4.533  11.219   5.548  3.2909  0.9162 -0.8000
  361MOL0     H48680   4.601  11.406   5.458  1.9239 -1.2871 -0.8308
  361MOL0     H48681   4.572  11.525   5.594 -1.4680 -0.8547 -1.0988
  361MOL0     H48682   4.730  11.386   5.731  1.6748 -0.0816  0.5239
  361MOL0     H48683   4.823  11.478   5.606  0.1039 -0.8788 -2.2429
  361MOL0     H48684   4.769  11.175   5.613  2.6560 -0.4147  2.5780
  361MOL0     H48685   4.800  11.279   5.458 -2.0254  0.0974  0.2971
  361MOL0     H48686   4.912  11.291   5.844  2.6821 -0.4679  2.1946
  361MOL0     H48687   5.126  11.274   5.958  1.2297 -0.6921  0.6813
  361MOL0     H48688   5.280  11.250   5.871  0.4627 -0.7340  3.0536
  361MOL0     H48689   5.301  11.485   5.825  0.8689 -0.1962  1.1329
  361MOL0     H48690   5.149  11.521   5.907  0.2075  1.3022  1.8760
  361MOL0     H48691   5.353  11.377   6.080  0.1913  2.0769  4.8159
  361MOL0     H48692   5.231  11.502   6.107  1.5429 -0.2315  1.2185
  361MOL0     H48693   5.482  11.525   5.931  1.4833 -0.6284  1.1553
  361MOL0     H48694   5.473  11.584   6.100 -1.5445  0.4631  0.7464
  361MOL0     H48695   5.622  11.674   5.879 -0.0139 -0.1466  0.9504
  361MOL0     H48696   5.704  11.823   5.697  0.8885  0.9894 -2.4310
  361MOL0     H48697   5.749  12.043   5.243 -0.1940  0.4820 -0.1022
  361MOL0     H48698   5.940  12.176   5.178 -1.7877 -2.4511 -0.5443
  361MOL0     H48699   6.080  12.362   5.156  1.7548 -0.2900  0.1138
  361MOL0     H48700   6.020  12.506   5.253  0.0653 -0.3870  2.3216
  361MOL0     H48701   6.210  12.566   5.146  1.4349 -0.4036  0.0720
  361MOL0     H48702   6.246  12.540   5.321  0.1270 -0.8308 -0.0690
  361MOL0     H48703   6.355  12.332   5.268 -0.2754 -1.0450 -0.1769
  361MOL0     H48704   6.315  12.328   5.096 -1.7223  1.1288  0.6266
  361MOL0     H48705   6.468  12.558   5.224  0.1381  0.7210 -0.2863
  361MOL0     H48706   6.442  12.525   5.052  0.1277 -0.3177 -0.5939
  361MOL0     H48707   6.570  12.329   5.051  0.8325  1.8161 -0.8320
  361MOL0     H48708   6.579  12.333   5.234 -2.9026 -3.3901 -1.1045
  361MOL0     H48709   6.686  12.536   5.039  1.8588 -0.5694 -0.7157
  361MOL0     H48710   6.717  12.533   5.216 -0.3886 -0.3259  1.0865
  361MOL0     H48711   6.810  12.326   5.017 -0.7310  3.2801 -0.7757
  361MOL0     H48712   6.849  12.320   5.196  0.2822  1.0448  1.3337
  361MOL0     H48713   6.928  12.561   5.018 -1.6215  0.1216  1.2023
  361MOL0     H48714   6.982  12.518   5.176  1.5551 -0.4501 -0.2889
  361MOL0     H48715   5.987  12.322   5.576  1.2062 -1.4968 -0.2487
  361MOL0     H48716   5.820  12.165   5.662 -0.0169  1.8930 -0.2313
  361MOL0     H48717   5.318  12.018   5.666  1.1951  1.9813  0.1197
  361MOL0     H48718   5.238  11.856   5.848 -0.5348  2.1285  2.4312
  361MOL0     H48719   3.800  11.021   5.545 -2.3777  1.5612  1.2091
  361MOL0     H48720   3.647  10.867   5.620  0.5094  2.6435 -1.5500
  361MOL0     H48721   3.565  10.658   6.081  0.0426  0.2532 -0.6370
  361MOL0     H48722   3.433  10.498   6.229  0.6400  0.8856 -0.9352
  361MOL0     H48723   3.123  10.179   6.103 -2.7506  0.6158 -1.0269
  361MOL0     H48724   3.090  10.340   6.023 -0.1650 -0.3180 -0.0714
  361MOL0     H48725   3.066  10.444   6.235 -0.2272 -0.4649 -0.0639
  361MOL0     H48726   3.083  10.292   6.320 -0.0468  0.7742  0.4397
  361MOL0     H48727   2.872  10.212   6.230 -1.9181 -0.2890 -1.9589
  361MOL0     H48728   2.848  10.334   6.116 -2.7437  0.6801  1.6113
  361MOL0     H48729   2.721  10.384   6.318  0.6073 -2.1058  0.4819
  361MOL0     H48730   2.881  10.415   6.405  0.8024 -1.3590 -0.5048
  361MOL0     H48731   2.803  10.775   6.186 -0.9426 -0.4123 -1.0743
  361MOL0     H48732   3.233  10.358   5.874  1.1912 -1.6139  0.3479
  361MOL0     H48733   3.434  10.451   5.645  2.1175  0.4998  0.9698
  361MOL0     H48734   3.258  10.475   5.661  0.2811  0.3182 -3.4024
  361MOL0     H48735   3.365  10.617   5.655  0.7665 -1.6563 -1.0842
  362MOL0     O48736   6.827   1.307   8.521  0.5679 -0.5110  0.2135
  362MOL0     C48737   6.773   1.206   8.562 -0.0408  0.5280  0.4082
  362MOL0     O48738   6.830   1.086   8.573  0.5580  0.3319  0.2666
  362MOL0     C48739   6.968   1.069   8.591  0.3837 -0.6030  0.0216
  362MOL0     C48740   7.062   1.045   8.497  1.0486 -0.7805  0.4041
  362MOL0     C48741   7.195   1.051   8.535 -0.6971  0.2122 -0.7178
  362MOL0     C48742   7.238   1.063   8.671 -0.3059 -0.7436  0.1227
  362MOL0     O48743   7.377   1.060   8.691 -0.1258 -0.0534  1.4420
  362MOL0     C48744   7.437   1.040   8.818  0.2009  0.2060 -0.0715
  362MOL0     C48745   7.584   1.062   8.804  0.0796 -0.7600  1.2559
  362MOL0     C48746   7.649   1.053   8.936 -0.6111  0.1278 -0.0765
  362MOL0     C48747   7.802   1.084   8.910 -0.2796  0.0110  0.1111
  362MOL0     C48748   7.901   1.082   9.033  0.0260  1.6969  0.1201
  362MOL0     C48749   8.027   1.156   8.992  0.2988 -0.7725  0.3766
  362MOL0     C48750   8.143   1.145   9.092  0.0411  0.0215 -0.4847
  362MOL0     C48751   8.092   1.211   9.228 -0.2592 -0.4720 -0.5992
  362MOL0     N48752   8.197   1.191   9.322 -0.0524 -0.6297 -0.3058
  362MOL0     C48753   8.324   1.250   9.322  0.4188  0.1551 -0.9543
  362MOL0     C48754   8.379   1.209   9.445 -0.5975 -0.4527 -0.9532
  362MOL0     C48755   8.512   1.254   9.499 -0.4260 -0.0407 -0.6951
  362MOL0     C48756   8.630   1.165   9.464  0.1450  0.0335  0.5009
  362MOL0     C48757   8.695   1.212   9.331  1.2425  0.0918  0.1910
  362MOL0     C48758   8.824   1.130   9.298  0.2100 -0.3554 -0.1452
  362MOL0     O48759   8.790   0.998   9.273  0.1102 -0.0430  0.3702
  362MOL0     C48760   8.881   0.899   9.249  0.0686  0.6391  0.2614
  362MOL0     C48761   8.987   0.919   9.160 -0.3852 -0.0038 -0.3707
  362MOL0     C48762   9.086   0.822   9.146  0.1007  0.7463  0.0283
  362MOL0     C48763   9.075   0.695   9.209  0.8076 -1.3956  0.7871
  362MOL0     C48764   9.183   0.594   9.190  0.1130  0.7334 -0.1652
  362MOL0     O48765   9.303   0.624   9.122  0.5401 -1.0523 -0.8465
  362MOL0     C48766   9.396   0.528   9.099  0.1681 -0.5356  1.0464
  362MOL0     C48767   9.404   0.472   8.970  0.4183 -0.0060  0.4798
  362MOL0     C48768   9.501   0.372   8.949 -0.5017 -0.2292 -0.7201
  362MOL0     C48769   9.585   0.322   9.055 -1.0195  0.4790  0.2618
  362MOL0     O48770   9.683   0.219   9.041  0.5868  0.2391  0.9143
  362MOL0     C48771   9.689   0.157   8.910 -0.7309 -0.0001 -1.1974
  362MOL0     C48772   9.774   0.025   8.918  0.3193 -0.5972  0.0579
  362MOL0     C48773   9.916   0.078   8.935  0.3556  0.2836 -0.2556
  362MOL0     C48774  10.020  -0.032   8.952 -0.3696 -0.0896 -0.1944
  362MOL0     C48775  10.158   0.014   8.949 -0.4751 -0.1693 -0.1279
  362MOL0     C48776  10.266  -0.097   8.977 -0.1501 -0.6916  0.1477
  362MOL0     C48777  10.408  -0.029   8.952 -0.9974  0.4790 -0.1311
  362MOL0     C48778  10.527  -0.120   8.947  0.3590  0.5029  0.0424
  362MOL0    Cl48779  10.538  -0.203   9.103  0.5076 -0.0489  0.1311
  362MOL0     C48780   9.560   0.372   9.183  0.0231 -0.5775 -0.1160
  362MOL0     C48781   9.468   0.475   9.203 -0.0598  1.2501 -0.2341
  362MOL0     O48782   9.173   0.484   9.247  0.5758  0.0715 -0.6044
  362MOL0     C48783   8.960   0.668   9.290 -0.3375 -0.6717 -0.0939
  362MOL0     C48784   8.863   0.769   9.306  0.3245 -0.1279  1.0651
  362MOL0     N48785   8.292   1.120   9.505 -0.6130  0.1876 -0.3215
  362MOL0     N48786   8.188   1.106   9.430  0.2127  0.3222  0.1609
  362MOL0     C48787   7.139   1.058   8.769 -0.0016  0.5719  0.1319
  362MOL0     C48788   7.005   1.066   8.723  0.2734 -0.2148 -0.0724
  362MOL0     C48789   6.632   1.231   8.608 -0.0519 -0.8809 -0.4413
  362MOL0     C48790   6.560   1.111   8.612 -0.2099 -0.7359  0.6001
  362MOL0     C48791   6.421   1.108   8.634 -0.1531 -0.6198 -0.6856
  362MOL0     C48792   6.351   1.228   8.655 -0.8651 -0.5919  0.6783
  362MOL0     O48793   6.215   1.211   8.679 -0.5944  0.0154 -0.4107
  362MOL0     C48794   6.146   1.340   8.691 -0.2538 -0.3067 -0.1030
  362MOL0     C48795   5.995   1.334   8.670 -0.6753 -0.4950  0.2021
  362MOL0     C48796   5.927   1.206   8.745 -0.2137 -0.2645  0.6661
  362MOL0     C48797   5.944   1.066   8.684  0.3310  0.2024 -0.0699
  362MOL0     C48798   5.879   0.959   8.751 -0.2319 -0.1157 -0.7039
  362MOL0     C48799   5.820   0.867   8.806 -0.0165  0.1016  0.7336
  362MOL0     C48800   6.427   1.349   8.656  0.2911  0.3667 -0.1391
  362MOL0     C48801   6.559   1.352   8.635 -0.0360 -0.4093  0.0823
  362MOL0     C48802   6.622   1.489   8.618  0.8111  0.5114  0.0605
  362MOL0     H48803   7.029   1.043   8.394  2.0445 -0.0018  0.0582
  362MOL0     H48804   7.271   1.030   8.461 -0.2511  1.8293 -0.7568
  362MOL0     H48805   7.400   1.121   8.881  1.7054  2.4492 -1.8962
  362MOL0     H48806   7.418   0.940   8.858 -1.4680  1.4619  2.5916
  362MOL0     H48807   7.594   1.164   8.764  0.3827 -0.4827  2.0203
  362MOL0     H48808   7.636   0.996   8.734  1.3654 -1.2053  2.5928
  362MOL0     H48809   7.645   0.960   8.994 -1.1081  0.8102  1.0054
  362MOL0     H48810   7.599   1.131   8.994 -0.6012  0.7021 -0.8196
  362MOL0     H48811   7.845   1.008   8.844  0.9172 -0.8156  1.7654
  362MOL0     H48812   7.814   1.176   8.852  0.8323  0.3991  0.9323
  362MOL0     H48813   7.852   1.131   9.118 -0.6607 -0.5703  1.0966
  362MOL0     H48814   7.918   0.980   9.068 -2.0288  1.0874 -0.4774
  362MOL0     H48815   8.063   1.124   8.895 -0.8943  1.1829 -0.7953
  362MOL0     H48816   8.005   1.259   8.961  1.4615 -0.2713  1.1409
  362MOL0     H48817   8.231   1.201   9.059 -0.4683  0.9910 -0.2057
  362MOL0     H48818   8.174   1.040   9.094  0.8044  0.1530 -2.8138
  362MOL0     H48819   8.059   1.315   9.218 -0.0768 -0.4432 -0.9484
  362MOL0     H48820   8.009   1.149   9.263  0.7443 -0.0232  2.9121
  362MOL0     H48821   8.376   1.314   9.251 -0.0908 -2.7373 -4.1813
  362MOL0     H48822   8.529   1.353   9.456  2.2137  0.0526  0.4051
  362MOL0     H48823   8.504   1.254   9.608 -1.4480  0.4905 -0.7542
  362MOL0     H48824   8.694   1.179   9.552  0.1438 -1.1492  0.7103
  362MOL0     H48825   8.598   1.060   9.465 -1.9539  0.6431  0.8891
  362MOL0     H48826   8.719   1.318   9.333 -0.1100  0.4249  0.0316
  362MOL0     H48827   8.624   1.196   9.248  0.2499  0.6037  0.9200
  362MOL0     H48828   8.902   1.145   9.373 -0.7368  2.9590  0.3334
  362MOL0     H48829   8.876   1.167   9.210  0.6824  1.2185  0.7531
  362MOL0     H48830   8.986   1.015   9.108 -1.2246  1.4062  2.0797
  362MOL0     H48831   9.163   0.845   9.072  3.7070 -3.3430  2.0874
  362MOL0     H48832   9.334   0.503   8.893  1.7724  2.0627  0.0256
  362MOL0     H48833   9.508   0.343   8.845 -5.2218 -1.3888 -0.9375
  362MOL0     H48834   9.587   0.126   8.884 -0.4941 -2.0204  0.0842
  362MOL0     H48835   9.726   0.227   8.835  1.7997  0.2731  0.1795
  362MOL0     H48836   9.741  -0.037   9.002 -1.9332  1.8209  1.1176
  362MOL0     H48837   9.763  -0.028   8.823 -1.3453 -1.5932  0.7736
  362MOL0     H48838   9.937   0.132   8.842 -0.3796 -0.5309 -0.9074
  362MOL0     H48839   9.923   0.144   9.022  2.3458 -0.8516  0.5057
  362MOL0     H48840  10.007  -0.101   8.868  1.3740  1.3412 -1.7265
  362MOL0     H48841  10.004  -0.094   9.040 -0.6374 -1.5237 -1.2134
  362MOL0     H48842  10.160   0.087   9.031  0.2514  0.4845 -0.7162
  362MOL0     H48843  10.173   0.065   8.854 -1.4864 -0.0297 -0.2174
  362MOL0     H48844  10.264  -0.147   9.074  2.1232 -1.0085  0.0640
  362MOL0     H48845  10.259  -0.177   8.904 -1.3172  0.0032 -0.5419
  362MOL0     H48846  10.427   0.038   9.037  1.8552  1.4571 -1.4205
  362MOL0     H48847  10.403   0.029   8.860  0.6782  1.2230  0.2039
  362MOL0     H48848  10.514  -0.196   8.869  0.9113  0.9860 -0.5327
  362MOL0     H48849  10.622  -0.069   8.927 -0.1985  0.6876 -2.4044
  362MOL0     H48850   9.615   0.339   9.270 -0.6385 -0.0507  0.5134
  362MOL0     H48851   9.454   0.501   9.307  1.8982 -2.0106  1.0190
  362MOL0     H48852   8.948   0.567   9.327  0.3458 -1.2508 -1.3694
  362MOL0     H48853   8.772   0.757   9.364  0.4631  1.0286  1.5415
  362MOL0     H48854   7.160   1.053   8.876  1.5162 -0.9597 -0.1963
  362MOL0     H48855   6.923   1.071   8.794  0.4865  2.4908  0.0805
  362MOL0     H48856   6.613   1.018   8.596 -0.0243 -0.4756 -0.4350
  362MOL0     H48857   6.369   1.014   8.624  0.9513 -1.5480  1.5500
  362MOL0     H48858   6.188   1.414   8.622  3.1980 -0.1098  1.9974
  362MOL0     H48859   6.167   1.375   8.792 -4.6329  0.7006  0.6451
  362MOL0     H48860   5.968   1.333   8.565  2.4799  0.3403 -0.7372
  362MOL0     H48861   5.952   1.429   8.704 -1.8983 -0.7961 -0.4557
  362MOL0     H48862   5.818   1.216   8.739 -0.1366  0.4304  0.2019
  362MOL0     H48863   5.947   1.202   8.852 -0.2901 -3.5620  0.6500
  362MOL0     H48864   5.930   1.066   8.575 -1.2373 -0.3570  0.1131
  362MOL0     H48865   6.050   1.039   8.689  0.9808  2.7419  1.4716
  362MOL0     H48866   5.774   0.783   8.854  0.9677 -0.0406  1.4492
  362MOL0     H48867   6.374   1.437   8.690  1.2530  0.8109  0.2246
  362MOL0     H48868   6.730   1.500   8.622  0.8687  0.6250 -1.2598
  362MOL0     H48869   6.594   1.509   8.514 -2.3289  1.1192  0.8973
  362MOL0     H48870   6.572   1.553   8.691 -0.3120  3.4311 -2.9814
  363MOL0     O48871   5.752   3.649   1.486 -0.1462  0.6394  0.0956
  363MOL0     C48872   5.648   3.716   1.489 -0.9316 -0.8440 -0.0723
  363MOL0     O48873   5.653   3.854   1.511  0.7666  0.1372 -0.2375
  363MOL0     C48874   5.775   3.902   1.544 -0.4684  0.0931 -0.0482
  363MOL0     C48875   5.825   3.990   1.453 -0.3629 -0.5813  0.4975
  363MOL0     C48876   5.953   4.047   1.471  0.3348  0.1384 -0.4870
  363MOL0     C48877   6.022   4.023   1.592 -0.2854  0.0171  0.7451
  363MOL0     O48878   6.134   4.092   1.602  0.1179 -0.9701 -0.5074
  363MOL0     C48879   6.169   4.174   1.710  0.0964  0.4920 -0.7047
  363MOL0     C48880   6.269   4.089   1.787  0.3756  0.4578  0.8746
  363MOL0     C48881   6.400   4.058   1.713 -0.8414 -0.2231 -0.3789
  363MOL0     C48882   6.514   4.031   1.819  1.1767 -0.3341  0.1981
  363MOL0     C48883   6.646   4.094   1.768 -0.6105  0.6705  0.1896
  363MOL0     C48884   6.657   4.235   1.826  0.4376 -0.4363  0.2238
  363MOL0     C48885   6.783   4.292   1.770 -0.6367 -0.2496  0.4495
  363MOL0     C48886   6.802   4.443   1.799 -0.2174  0.2719 -0.6984
  363MOL0     N48887   6.696   4.534   1.760 -0.6996  0.4616  0.3659
  363MOL0     C48888   6.671   4.544   1.628 -0.0207 -0.8973  1.2437
  363MOL0     C48889   6.550   4.599   1.616 -0.1131  0.0633  0.9662
  363MOL0     C48890   6.483   4.641   1.489  0.1382 -0.2753 -0.4494
  363MOL0     C48891   6.334   4.597   1.497 -0.0530 -0.3782  0.6432
  363MOL0     C48892   6.322   4.456   1.456  0.3516  0.4909  0.7287
  363MOL0     C48893   6.351   4.434   1.307  0.3118  1.3525  0.4215
  363MOL0     O48894   6.486   4.425   1.272  1.1733 -0.1100 -0.6202
  363MOL0     C48895   6.572   4.332   1.317 -0.3634 -0.2217  0.0011
  363MOL0     C48896   6.705   4.376   1.316 -0.3283 -0.2364 -0.3573
  363MOL0     C48897   6.799   4.285   1.366  0.4555 -0.3273  0.5903
  363MOL0     C48898   6.774   4.150   1.390 -0.2626  0.2382 -0.4890
  363MOL0     C48899   6.887   4.066   1.439  0.1127  0.0793 -1.3252
  363MOL0     O48900   6.994   4.126   1.489 -0.0770 -0.4614 -0.2386
  363MOL0     C48901   7.093   4.044   1.540  1.5045  0.2812  0.1011
  363MOL0     C48902   7.213   4.019   1.476 -0.5704  0.5151 -0.0906
  363MOL0     C48903   7.316   3.930   1.521  0.7513  0.1085 -0.0668
  363MOL0     C48904   7.304   3.874   1.653 -0.5456 -0.1106  0.1884
  363MOL0     O48905   7.413   3.805   1.704 -0.0117 -0.0751 -0.2308
  363MOL0     C48906   7.441   3.806   1.845  0.3465  0.2083 -1.1237
  363MOL0     C48907   7.597   3.827   1.849  1.0432 -0.0672 -0.3011
  363MOL0     C48908   7.644   3.969   1.798  0.6306 -0.1143  0.0364
  363MOL0     C48909   7.794   3.998   1.832  0.3064 -0.4696 -0.7456
  363MOL0     C48910   7.870   4.082   1.729  0.0168  0.0199  0.5219
  363MOL0     C48911   8.013   4.141   1.782  0.2965  0.3135 -0.2178
  363MOL0     C48912   8.110   4.036   1.834 -0.6388  0.6017 -0.0901
  363MOL0     C48913   8.182   3.944   1.722  0.3695  0.2229 -0.3333
  363MOL0    Cl48914   8.317   4.052   1.646 -0.0769 -0.0438 -0.2806
  363MOL0     C48915   7.185   3.891   1.717 -0.1466  0.3994  0.3042
  363MOL0     C48916   7.077   3.972   1.659  0.7223 -0.1361 -0.5374
  363MOL0     O48917   6.869   3.945   1.437 -0.4432  0.4177  0.0872
  363MOL0     C48918   6.647   4.104   1.364 -0.1702  0.6130  0.5185
  363MOL0     C48919   6.543   4.197   1.337 -0.4176 -0.0535  0.3791
  363MOL0     N48920   6.493   4.614   1.741  0.4799 -0.7926  0.6298
  363MOL0     N48921   6.580   4.569   1.825  0.2045 -0.5833 -0.3864
  363MOL0     C48922   5.978   3.929   1.679  0.8706  0.1762  0.2182
  363MOL0     C48923   5.852   3.869   1.664  0.2895 -0.3501  0.2005
  363MOL0     C48924   5.520   3.655   1.477  1.1768  0.2093 -0.7066
  363MOL0     C48925   5.414   3.718   1.550 -0.0603  0.3268  0.4310
  363MOL0     C48926   5.288   3.664   1.547 -0.6082  0.4466 -0.4335
  363MOL0     C48927   5.258   3.552   1.467 -0.8154 -0.9651 -0.0033
  363MOL0     O48928   5.127   3.526   1.452 -0.0596 -0.0889  0.6177
  363MOL0     C48929   5.082   3.431   1.356  0.1008  0.5861 -0.7933
  363MOL0     C48930   4.942   3.381   1.395 -0.6022 -0.5640 -0.0058
  363MOL0     C48931   4.896   3.287   1.281  0.0902 -0.4586 -0.3637
  363MOL0     C48932   4.769   3.213   1.318 -0.5855 -0.3702  0.1934
  363MOL0     C48933   4.784   3.147   1.449  0.3560  0.2481  0.4581
  363MOL0     C48934   4.798   3.071   1.541  0.7017 -0.6236 -0.0759
  363MOL0     C48935   5.354   3.499   1.386 -0.7309  0.2731  0.5822
  363MOL0     C48936   5.483   3.543   1.397  0.8491  0.0090  0.4914
  363MOL0     C48937   5.576   3.479   1.301 -0.5179 -0.1084 -0.4935
  363MOL0     H48938   5.780   4.019   1.359 -0.2393  0.3660  0.7145
  363MOL0     H48939   5.997   4.115   1.399 -1.1168  3.7769  1.7558
  363MOL0     H48940   6.210   4.269   1.674 -0.4809  1.2142  0.4781
  363MOL0     H48941   6.075   4.202   1.759 -1.0567 -1.1562 -1.8819
  363MOL0     H48942   6.224   3.990   1.798  0.5840  0.3126  0.4369
  363MOL0     H48943   6.291   4.138   1.882  0.8645 -1.0069  1.5507
  363MOL0     H48944   6.426   4.147   1.655 -1.8764  1.2248  1.2856
  363MOL0     H48945   6.390   3.970   1.649 -1.3917 -0.4371 -0.0102
  363MOL0     H48946   6.489   4.049   1.923 -1.4658 -1.7464 -0.1164
  363MOL0     H48947   6.525   3.922   1.818  3.0016 -0.1976  1.1288
  363MOL0     H48948   6.737   4.035   1.787  1.1900  3.1629 -0.1407
  363MOL0     H48949   6.649   4.090   1.659  0.3238 -2.9344  0.2090
  363MOL0     H48950   6.570   4.289   1.787 -0.4723 -2.6656 -1.0731
  363MOL0     H48951   6.664   4.227   1.935  2.3435 -3.3072  0.0222
  363MOL0     H48952   6.776   4.287   1.660  3.6699  2.6313 -0.1973
  363MOL0     H48953   6.872   4.232   1.789  0.3567 -0.0045 -2.7660
  363MOL0     H48954   6.810   4.448   1.908 -3.7554  0.2036 -0.3280
  363MOL0     H48955   6.896   4.470   1.751 -1.2687  3.3215 -1.2752
  363MOL0     H48956   6.733   4.522   1.541 -0.0329  0.2644  0.9201
  363MOL0     H48957   6.488   4.748   1.469  0.4848 -0.4685 -1.4132
  363MOL0     H48958   6.543   4.599   1.408 -0.1563 -0.8358 -0.3882
  363MOL0     H48959   6.285   4.611   1.594 -0.7214 -1.5278  0.4932
  363MOL0     H48960   6.269   4.666   1.442 -0.7537 -0.0066  1.9057
  363MOL0     H48961   6.215   4.438   1.469 -0.0947  1.7751 -0.8030
  363MOL0     H48962   6.374   4.387   1.523  1.0053 -2.7842 -2.8097
  363MOL0     H48963   6.298   4.502   1.240  0.4299  1.5241  0.5015
  363MOL0     H48964   6.318   4.330   1.293  1.2808  0.8965  1.3914
  363MOL0     H48965   6.736   4.473   1.278 -0.2043  1.0383  2.7043
  363MOL0     H48966   6.896   4.332   1.380  0.3348  0.3230 -0.6806
  363MOL0     H48967   7.217   4.074   1.383  1.7934 -1.4278 -1.2549
  363MOL0     H48968   7.408   3.931   1.464  1.4163  0.6049  0.9924
  363MOL0     H48969   7.387   3.885   1.899  1.3967  1.3166 -1.6468
  363MOL0     H48970   7.429   3.708   1.890  2.3793  0.0232 -0.9076
  363MOL0     H48971   7.639   3.807   1.948  2.8027  0.6346 -0.8607
  363MOL0     H48972   7.642   3.749   1.787 -0.0603 -0.7005 -0.3257
  363MOL0     H48973   7.641   3.952   1.690  2.4601 -0.8880  0.0678
  363MOL0     H48974   7.595   4.058   1.837 -1.2699 -1.4803  0.9361
  363MOL0     H48975   7.848   3.902   1.830 -1.5767 -1.7300  2.0564
  363MOL0     H48976   7.807   4.035   1.934 -0.8694 -2.4876  0.2010
  363MOL0     H48977   7.816   4.171   1.697 -3.2642 -3.0802 -3.6698
  363MOL0     H48978   7.885   4.023   1.638 -0.8440  0.7183 -0.0824
  363MOL0     H48979   8.061   4.198   1.702 -0.6037  1.3514 -0.0468
  363MOL0     H48980   7.984   4.218   1.854  1.9833  1.4182 -0.6762
  363MOL0     H48981   8.059   3.966   1.901 -0.7292  0.9376  0.1886
  363MOL0     H48982   8.182   4.094   1.893 -0.9243  2.3520 -1.3852
  363MOL0     H48983   8.224   3.856   1.773  2.1824  0.8149 -0.7302
  363MOL0     H48984   8.109   3.925   1.643 -0.1785  1.0186 -0.0282
  363MOL0     H48985   7.179   3.850   1.817  1.1781 -3.5224 -1.0466
  363MOL0     H48986   6.987   3.990   1.716  1.8295  0.1477  1.1935
  363MOL0     H48987   6.612   4.001   1.369 -1.7570  1.1662  1.4788
  363MOL0     H48988   6.441   4.163   1.319 -0.7348  1.3956 -0.7765
  363MOL0     H48989   6.038   3.895   1.763  1.2165 -3.3801 -1.2748
  363MOL0     H48990   5.805   3.802   1.735 -0.5805 -1.7672 -1.6347
  363MOL0     H48991   5.435   3.806   1.609  0.5225  1.1199 -0.9380
  363MOL0     H48992   5.207   3.707   1.606  0.7746  0.5329  1.5041
  363MOL0     H48993   5.130   3.333   1.344 -0.1843  0.6855 -3.3095
  363MOL0     H48994   5.084   3.481   1.259 -1.2654 -0.4016 -1.3635
  363MOL0     H48995   4.868   3.460   1.406  1.9759  2.2247 -1.0580
  363MOL0     H48996   4.959   3.324   1.487 -0.3019 -0.9147 -0.2757
  363MOL0     H48997   4.971   3.210   1.257 -1.9258 -2.7724  0.2964
  363MOL0     H48998   4.880   3.337   1.185  2.6055 -0.5578 -0.9067
  363MOL0     H48999   4.686   3.285   1.311 -1.0561 -1.0587 -2.5950
  363MOL0     H49000   4.744   3.142   1.239  2.1724  1.7431 -2.8651
  363MOL0     H49001   4.800   2.994   1.615 -1.2180 -0.7801 -0.1383
  363MOL0     H49002   5.321   3.428   1.311  0.3970 -0.1394  0.4528
  363MOL0     H49003   5.537   3.398   1.240  2.7765 -1.9795 -0.3629
  363MOL0     H49004   5.637   3.546   1.240  1.6787 -1.7956 -0.2868
  363MOL0     H49005   5.639   3.431   1.376  0.4576  3.1742  0.9915
  364MOL0     O49006   9.542   5.978   9.972 -0.2423  0.0502 -0.8021
  364MOL0     C49007   9.462   6.069   9.979  0.7330  0.2430 -0.7799
  364MOL0     O49008   9.489   6.198  10.006 -0.5496 -0.0590  0.1183
  364MOL0     C49009   9.617   6.233  10.045  0.0753  0.1353  0.3680
  364MOL0     C49010   9.661   6.214  10.175 -0.2677 -0.0482 -1.0184
  364MOL0     C49011   9.793   6.253  10.209  0.2796 -0.5735 -0.1634
  364MOL0     C49012   9.867   6.329  10.116  0.2286  0.7207 -0.8574
  364MOL0     O49013   9.996   6.368  10.154  0.2364 -0.6529  0.1381
  364MOL0     C49014  10.021   6.508  10.118 -0.3202 -0.4957 -0.1831
  364MOL0     C49015  10.135   6.551  10.217  0.3326  0.8327  0.5119
  364MOL0     C49016  10.065   6.572  10.353  0.2695  0.5038 -0.0041
  364MOL0     C49017  10.157   6.652  10.442 -0.8897 -0.1447  0.1573
  364MOL0     C49018  10.118   6.625  10.590 -0.8070 -0.0731 -1.2519
  364MOL0     C49019  10.239   6.556  10.656  0.0151  0.2023 -0.6786
  364MOL0     C49020  10.210   6.562  10.803 -0.9361 -0.3784  0.2164
  364MOL0     C49021  10.303   6.465  10.881 -0.1515  0.3350  0.1876
  364MOL0     N49022  10.446   6.504  10.854 -0.2094 -0.8292 -0.4000
  364MOL0     C49023  10.522   6.453  10.759  0.2992  0.2358 -0.1036
  364MOL0     C49024  10.634   6.520  10.767  0.7566  0.3753  0.4977
  364MOL0     C49025  10.752   6.493  10.679 -0.0892  0.2867  0.1102
  364MOL0     C49026  10.870   6.448  10.766 -0.2218 -0.0882  0.1110
  364MOL0     C49027  11.012   6.448  10.695 -0.3432  0.2525  0.7321
  364MOL0     C49028  11.117   6.369  10.774  0.1566 -0.3405  0.3640
  364MOL0     O49029  11.243   6.387  10.701  0.6556 -1.1799  0.0030
  364MOL0     C49030  11.356   6.402  10.779 -0.9858 -0.1037 -0.2124
  364MOL0     C49031  11.471   6.361  10.710  0.3875  0.9672 -0.3121
  364MOL0     C49032  11.592   6.378  10.772 -0.4761  0.0864 -0.6408
  364MOL0     C49033  11.602   6.436  10.906 -0.1000  0.5414  0.4569
  364MOL0     C49034  11.739   6.449  10.979 -0.6947  0.7239  0.0069
  364MOL0     O49035  11.854   6.434  10.907 -0.2414  0.1032 -0.1437
  364MOL0     C49036  11.984   6.415  10.957  0.6125 -0.8462  0.6518
  364MOL0     C49037  12.030   6.495  11.061 -0.4091 -0.6593  0.1959
  364MOL0     C49038  12.168   6.484  11.102 -0.3375  0.5283 -0.6926
  364MOL0     C49039  12.251   6.391  11.041  0.2337  0.3349  0.6730
  364MOL0     O49040  12.390   6.391  11.061  0.5814 -0.6490 -0.1480
  364MOL0     C49041  12.435   6.369  11.198  0.7492 -0.3166  0.6775
  364MOL0     C49042  12.583   6.379  11.189 -0.0036 -0.0704 -1.4624
  364MOL0     C49043  12.658   6.252  11.142  0.4666  0.1136 -0.5432
  364MOL0     C49044  12.802   6.276  11.097  0.3268 -0.3850 -0.3920
  364MOL0     C49045  12.884   6.149  11.101 -0.3103  0.3209  0.4073
  364MOL0     C49046  13.017   6.166  11.020  0.0284 -0.2982  1.0364
  364MOL0     C49047  13.116   6.050  11.014  0.1678  0.1909  0.3515
  364MOL0     C49048  13.222   6.064  10.897 -0.3568 -0.3228  0.3854
  364MOL0    Cl49049  13.338   5.933  10.916 -0.0472  0.1088  0.2043
  364MOL0     C49050  12.196   6.304  10.944  1.3409 -1.2433  0.3736
  364MOL0     C49051  12.066   6.320  10.897 -0.0546 -0.3680 -0.5170
  364MOL0     O49052  11.737   6.462  11.102 -0.9097  0.3623 -0.0947
  364MOL0     C49053  11.484   6.470  10.970  1.0915  0.3428 -0.0274
  364MOL0     C49054  11.363   6.459  10.908  0.1045  0.3602  0.2770
  364MOL0     N49055  10.619   6.628  10.852  0.5257 -0.1388  0.4466
  364MOL0     N49056  10.505   6.620  10.912 -0.2759  1.0236  0.0503
  364MOL0     C49057   9.824   6.353   9.982  0.5949  0.7248 -0.5070
  364MOL0     C49058   9.701   6.297   9.949 -0.1054  1.0990 -0.0524
  364MOL0     C49059   9.321   6.038   9.934  0.2579  0.2603  0.4657
  364MOL0     C49060   9.229   6.142   9.920 -0.1109 -0.4403 -0.1999
  364MOL0     C49061   9.094   6.131   9.880 -0.3405  0.3461 -0.8752
  364MOL0     C49062   9.038   6.005   9.868  0.1599 -0.1327  0.0647
  364MOL0     O49063   8.906   5.973   9.848  0.5264  0.9370  0.0926
  364MOL0     C49064   8.813   6.079   9.883 -0.3688  1.1390 -0.4867
  364MOL0     C49065   8.676   6.011   9.905  0.2685 -0.9625 -0.6965
  364MOL0     C49066   8.583   6.094  10.015  0.0886 -0.4116  0.0471
  364MOL0     C49067   8.435   6.100   9.968 -0.2532  0.1510 -0.7838
  364MOL0     C49068   8.399   5.959   9.969  0.3113  0.1632 -0.0406
  364MOL0     C49069   8.371   5.840   9.950  0.1409 -0.9464  0.5076
  364MOL0     C49070   9.126   5.894   9.870  0.4247 -0.7252 -0.2233
  364MOL0     C49071   9.260   5.906   9.905  0.1688  0.2356  0.6241
  364MOL0     C49072   9.344   5.779   9.904 -0.0042 -0.5045 -1.0072
  364MOL0     H49073   9.604   6.159  10.249 -2.6145  2.3441 -0.8960
  364MOL0     H49074   9.839   6.229  10.305  3.3324  1.5799 -0.9216
  364MOL0     H49075  10.055   6.523  10.016  0.1994  1.3215  0.2236
  364MOL0     H49076   9.927   6.561  10.137 -0.5308 -0.9341  0.0358
  364MOL0     H49077  10.187   6.638  10.177  3.2418 -0.3575  1.4594
  364MOL0     H49078  10.215   6.477  10.225 -2.2057 -1.9228  3.4708
  364MOL0     H49079  10.042   6.474  10.394  0.7148  1.6500  3.2604
  364MOL0     H49080   9.974   6.632  10.343  0.3512  0.4889 -0.9315
  364MOL0     H49081  10.259   6.622  10.419  1.1377  4.4697  1.8284
  364MOL0     H49082  10.153   6.759  10.420  2.3247 -0.4371 -2.6977
  364MOL0     H49083  10.094   6.722  10.636  2.9418  0.2712  0.3598
  364MOL0     H49084  10.021   6.574  10.596  0.0753 -1.6632  0.3447
  364MOL0     H49085  10.221   6.452  10.627 -0.9888 -0.1071  0.9448
  364MOL0     H49086  10.333   6.599  10.620  0.5043 -0.0392  0.2705
  364MOL0     H49087  10.104   6.537  10.811 -0.7025 -3.7299 -3.6766
  364MOL0     H49088  10.228   6.661  10.845  0.4255 -1.2227  1.7534
  364MOL0     H49089  10.284   6.481  10.987 -4.1078  1.6049 -0.5316
  364MOL0     H49090  10.291   6.359  10.854  1.2778  0.5095 -1.3198
  364MOL0     H49091  10.499   6.380  10.682  1.8315 -0.8157  0.3777
  364MOL0     H49092  10.732   6.409  10.613  1.0514 -0.9169  1.2459
  364MOL0     H49093  10.795   6.579  10.627 -0.2198 -0.4190 -1.2090
  364MOL0     H49094  10.892   6.504  10.857  0.8312 -1.0578  0.4891
  364MOL0     H49095  10.855   6.347  10.805  0.2583  0.7236  2.5698
  364MOL0     H49096  11.041   6.554  10.686  0.1219  0.0031 -1.2545
  364MOL0     H49097  10.993   6.416  10.592 -1.0386 -0.0220  0.9397
  364MOL0     H49098  11.090   6.264  10.787 -0.4195 -0.2399  0.0027
  364MOL0     H49099  11.121   6.418  10.872 -0.2596 -0.9782  0.7047
  364MOL0     H49100  11.466   6.325  10.608 -1.0948 -1.4809  0.5559
  364MOL0     H49101  11.682   6.342  10.723 -0.8579 -0.8067 -0.6896
  364MOL0     H49102  11.974   6.561  11.126  2.3102 -0.5513  2.6114
  364MOL0     H49103  12.201   6.560  11.171 -1.3581 -1.2331  1.8742
  364MOL0     H49104  12.402   6.451  11.263 -1.2273 -0.9159  0.4787
  364MOL0     H49105  12.393   6.283  11.252 -0.9783  1.4760  2.3845
  364MOL0     H49106  12.602   6.456  11.114 -0.7091 -0.2095 -1.7920
  364MOL0     H49107  12.618   6.413  11.286 -0.5984 -2.2872 -0.3903
  364MOL0     H49108  12.660   6.181  11.226 -0.6154  0.7074  0.0006
  364MOL0     H49109  12.610   6.201  11.058 -0.9006  0.1978  0.1634
  364MOL0     H49110  12.848   6.353  11.160 -1.5187 -0.0505  0.6274
  364MOL0     H49111  12.791   6.317  10.997  0.3051  0.9278  0.1260
  364MOL0     H49112  12.826   6.060  11.075 -0.0144  0.1461  0.3477
  364MOL0     H49113  12.920   6.132  11.202  3.9954 -0.8579 -1.0813
  364MOL0     H49114  13.008   6.201  10.917  1.5359 -1.1266  0.5976
  364MOL0     H49115  13.074   6.240  11.077  0.9213  0.8412 -1.2189
  364MOL0     H49116  13.058   5.958  11.003 -0.0703  0.6152 -2.6815
  364MOL0     H49117  13.162   6.045  11.113 -0.9359  0.1589  0.8688
  364MOL0     H49118  13.168   6.059  10.802 -1.4989  1.2622  0.9027
  364MOL0     H49119  13.259   6.166  10.912 -1.8907  0.2784  0.2513
  364MOL0     H49120  12.271   6.239  10.898  3.5177  1.5316 -0.2787
  364MOL0     H49121  12.033   6.246  10.824  0.9262 -1.8007  0.4293
  364MOL0     H49122  11.483   6.507  11.072 -0.3296  0.1339  0.0625
  364MOL0     H49123  11.277   6.515  10.944  1.0932  2.2436 -0.1654
  364MOL0     H49124   9.888   6.405   9.911  0.3599 -1.2249 -2.2390
  364MOL0     H49125   9.682   6.307   9.843  3.4789 -0.0549 -0.9272
  364MOL0     H49126   9.267   6.236   9.960 -1.2811 -0.2995  0.6144
  364MOL0     H49127   9.036   6.222   9.890 -1.7480 -0.5955 -0.2373
  364MOL0     H49128   8.803   6.157   9.807 -0.3089  0.6255 -1.0261
  364MOL0     H49129   8.845   6.144   9.965  3.0244 -1.0738  0.1646
  364MOL0     H49130   8.694   5.907   9.934 -1.4532 -0.8866  0.8738
  364MOL0     H49131   8.633   6.013   9.805  0.3761  0.2945 -0.7368
  364MOL0     H49132   8.625   6.195  10.022  0.8073 -0.8307  4.2210
  364MOL0     H49133   8.590   6.049  10.114 -1.5163 -3.0979 -0.9659
  364MOL0     H49134   8.371   6.151  10.041  2.4471 -0.7827  2.5365
  364MOL0     H49135   8.414   6.152   9.874 -3.0378  0.4573 -0.0670
  364MOL0     H49136   8.350   5.737   9.933  0.3362 -0.7720 -1.0204
  364MOL0     H49137   9.091   5.796   9.839 -1.0056 -0.7693  1.3820
  364MOL0     H49138   9.339   5.733  10.004 -1.5098  0.8488 -0.4131
  364MOL0     H49139   9.302   5.701   9.840 -0.8880 -0.9459  0.0551
  364MOL0     H49140   9.442   5.796   9.861 -0.3397  0.3902 -1.4357
  365MOL0     O49141   8.395   9.380   7.587  0.2691 -0.4243  0.4515
  365MOL0     C49142   8.372   9.273   7.637  0.9728 -0.3429  0.1686
  365MOL0     O49143   8.461   9.176   7.663 -0.3640  0.4972 -0.0056
  365MOL0     C49144   8.600   9.200   7.673 -0.3663  1.5976 -0.0090
  365MOL0     C49145   8.669   9.144   7.776 -0.0487 -0.9014 -0.3627
  365MOL0     C49146   8.810   9.148   7.773 -0.5511 -0.6542  0.6980
  365MOL0     C49147   8.878   9.212   7.665  0.8722 -0.0722  0.0099
  365MOL0     O49148   9.016   9.226   7.654 -0.2861 -0.3170  0.6778
  365MOL0     C49149   9.093   9.143   7.742  0.5899 -0.1135  0.1422
  365MOL0     C49150   9.232   9.204   7.752 -0.7136 -0.8456  0.4755
  365MOL0     C49151   9.351   9.110   7.791  0.7651 -0.7029 -0.7012
  365MOL0     C49152   9.482   9.191   7.789 -0.2801  0.7680  0.5327
  365MOL0     C49153   9.602   9.105   7.828 -0.3290  0.1575  0.1901
  365MOL0     C49154   9.735   9.178   7.821  0.2265  0.3158 -0.6272
  365MOL0     C49155   9.854   9.088   7.866  0.4249 -0.0437  0.3290
  365MOL0     C49156   9.900   8.984   7.769  0.4575  0.2177  0.4623
  365MOL0     N49157  10.034   8.932   7.815 -0.0858  0.3392 -0.5311
  365MOL0     C49158  10.049   8.791   7.841 -0.5147 -0.0248  0.6491
  365MOL0     C49159  10.187   8.775   7.860 -0.3329  1.2529  0.0272
  365MOL0     C49160  10.244   8.641   7.881 -0.1309 -0.0874  0.1227
  365MOL0     C49161  10.387   8.638   7.882  0.1606 -0.5489  0.1894
  365MOL0     C49162  10.452   8.504   7.839  0.2941  0.1119  0.0741
  365MOL0     C49163  10.598   8.504   7.870  0.1744 -0.1334 -0.1949
  365MOL0     O49164  10.660   8.377   7.880 -0.1789  0.4454 -0.0577
  365MOL0     C49165  10.794   8.362   7.887  0.1288  0.1726 -0.3568
  365MOL0     C49166  10.881   8.474   7.872 -0.5422  0.0607  0.1607
  365MOL0     C49167  11.021   8.454   7.862  0.4190 -0.5901  0.1462
  365MOL0     C49168  11.080   8.327   7.882 -0.2736  0.0412  0.0607
  365MOL0     C49169  11.222   8.305   7.862 -0.4926 -0.0443  0.2816
  365MOL0     O49170  11.274   8.181   7.821  0.7878  1.0776 -0.1551
  365MOL0     C49171  11.407   8.175   7.795 -0.1733  0.0517 -0.6378
  365MOL0     C49172  11.488   8.137   7.906 -0.6651 -0.2144  0.1279
  365MOL0     C49173  11.633   8.133   7.880 -0.0605  0.4551 -0.2715
  365MOL0     C49174  11.683   8.160   7.744  0.8662  0.0441  0.3637
  365MOL0     O49175  11.809   8.155   7.712 -0.1459 -0.9965 -0.3055
  365MOL0     C49176  11.916   8.130   7.811  0.2930 -0.3473 -0.5349
  365MOL0     C49177  11.954   7.983   7.817  0.7806 -0.9368 -0.2439
  365MOL0     C49178  12.077   7.958   7.898 -1.2585 -0.4593  0.0998
  365MOL0     C49179  12.097   7.811   7.917  0.3578 -0.3963  0.8676
  365MOL0     C49180  12.199   7.789   8.026 -0.0660  0.0329  0.1493
  365MOL0     C49181  12.272   7.653   8.016 -0.9247 -0.1382  0.6497
  365MOL0     C49182  12.180   7.537   8.039 -1.0843 -0.1618 -0.7346
  365MOL0     C49183  12.186   7.493   8.181 -0.7475 -0.0975  0.0423
  365MOL0    Cl49184  12.364   7.455   8.225  0.4169  0.0795  0.2388
  365MOL0     C49185  11.595   8.173   7.637 -0.1660 -0.3603  0.3650
  365MOL0     C49186  11.451   8.186   7.665 -0.1971  0.5908  0.8888
  365MOL0     O49187  11.290   8.399   7.866 -0.2165 -0.5205 -0.3765
  365MOL0     C49188  10.993   8.210   7.877  0.0941 -1.1306  0.2722
  365MOL0     C49189  10.850   8.233   7.880 -0.2871 -0.3006 -0.2652
  365MOL0     N49190  10.245   8.901   7.840 -0.3212 -0.2043 -0.4289
  365MOL0     N49191  10.156   8.988   7.817 -0.4245  0.0807  0.3352
  365MOL0     C49192   8.808   9.276   7.562 -0.4115 -0.0559  0.3553
  365MOL0     C49193   8.673   9.255   7.560  0.4838  0.0096  0.4930
  365MOL0     C49194   8.228   9.229   7.668  0.2834  0.3156 -0.1747
  365MOL0     C49195   8.201   9.094   7.696 -0.3727 -0.4902  0.5256
  365MOL0     C49196   8.067   9.047   7.710 -0.1482  0.3510 -0.5634
  365MOL0     C49197   7.952   9.123   7.706  0.4159  0.2766 -0.2119
  365MOL0     O49198   7.821   9.073   7.709  0.1086 -0.2826 -0.3832
  365MOL0     C49199   7.796   8.945   7.754  0.2579 -0.2290 -1.0485
  365MOL0     C49200   7.657   8.913   7.800  0.7065 -0.2512 -0.3904
  365MOL0     C49201   7.594   8.991   7.912 -0.3236  0.0389  0.5961
  365MOL0     C49202   7.457   8.955   7.957  0.1597 -0.8813 -0.2960
  365MOL0     C49203   7.352   8.967   7.847  0.0986 -0.2679  0.5791
  365MOL0     C49204   7.278   8.966   7.753  0.5200 -0.3613  0.6234
  365MOL0     C49205   7.978   9.254   7.676  0.2561  0.2734  1.3075
  365MOL0     C49206   8.113   9.314   7.671 -0.1416  1.3253 -0.0930
  365MOL0     C49207   8.132   9.459   7.655 -0.2043 -0.7680 -0.2030
  365MOL0     H49208   8.605   9.098   7.851 -0.3200 -3.9622 -2.3043
  365MOL0     H49209   8.859   9.096   7.855  0.6955  1.7487  1.5736
  365MOL0     H49210   9.054   9.145   7.844 -2.9832  1.1126 -1.1108
  365MOL0     H49211   9.100   9.039   7.710  0.8108 -0.8255  2.3325
  365MOL0     H49212   9.222   9.283   7.828 -3.5274 -1.4290  0.8084
  365MOL0     H49213   9.245   9.248   7.653 -1.1092 -1.9888 -0.0964
  365MOL0     H49214   9.348   9.025   7.723  2.6793 -1.0505 -0.4200
  365MOL0     H49215   9.332   9.068   7.890  1.9326  1.1266  0.3694
  365MOL0     H49216   9.516   9.228   7.691  2.3144 -0.1643  0.9791
  365MOL0     H49217   9.463   9.280   7.850  1.4515  1.3357  0.3256
  365MOL0     H49218   9.592   9.068   7.931  3.4022 -2.1248 -0.0578
  365MOL0     H49219   9.608   9.013   7.769  1.7726  1.1229 -1.2376
  365MOL0     H49220   9.747   9.221   7.721  4.1557 -3.4431 -2.0727
  365MOL0     H49221   9.730   9.263   7.889 -3.4327 -1.2155  1.2952
  365MOL0     H49222   9.821   9.020   7.945 -1.2121 -0.0034 -0.2844
  365MOL0     H49223   9.939   9.147   7.900  1.8427 -0.0434 -2.8269
  365MOL0     H49224   9.831   8.899   7.763 -1.9227  2.1352 -0.6265
  365MOL0     H49225   9.919   9.018   7.666  2.1200 -0.2492  0.5768
  365MOL0     H49226   9.975   8.712   7.849  0.6660 -1.4413 -1.4579
  365MOL0     H49227  10.203   8.604   7.976 -1.9183  0.8244 -0.2410
  365MOL0     H49228  10.211   8.575   7.800 -2.7764 -0.1373  1.1259
  365MOL0     H49229  10.421   8.718   7.816 -0.2171 -0.7268 -0.2308
  365MOL0     H49230  10.417   8.670   7.982 -0.4779  1.5285 -0.2407
  365MOL0     H49231  10.439   8.487   7.731 -0.4351  0.2665  0.1321
  365MOL0     H49232  10.399   8.421   7.887 -2.5229  1.6786 -0.1397
  365MOL0     H49233  10.618   8.571   7.955  0.7268  0.6889 -0.9428
  365MOL0     H49234  10.647   8.554   7.785  1.4597  0.2424  0.7229
  365MOL0     H49235  10.845   8.577   7.872 -0.3451  0.2124 -3.0747
  365MOL0     H49236  11.087   8.534   7.830  2.6656 -2.1713  0.5606
  365MOL0     H49237  11.434   8.114   7.997 -1.0923 -1.5348 -0.4280
  365MOL0     H49238  11.697   8.113   7.965 -0.2682  3.0703  0.5816
  365MOL0     H49239  12.002   8.192   7.784  0.1091 -0.3073 -1.0517
  365MOL0     H49240  11.897   8.171   7.910  2.6642 -1.7674  0.6079
  365MOL0     H49241  11.871   7.927   7.862 -0.0154  0.6551  0.3426
  365MOL0     H49242  11.976   7.943   7.717  0.4719  1.0040 -1.1362
  365MOL0     H49243  12.172   7.994   7.856 -1.1989  0.4969  1.0357
  365MOL0     H49244  12.073   7.999   7.999  2.4919  0.1981  0.1358
  365MOL0     H49245  12.130   7.768   7.822  0.2461  0.2855  0.5138
  365MOL0     H49246  12.006   7.758   7.946 -0.1646  0.9491  1.7521
  365MOL0     H49247  12.145   7.793   8.121  1.8549  1.0666  1.2688
  365MOL0     H49248  12.274   7.868   8.017  0.4656 -0.3787  0.8388
  365MOL0     H49249  12.317   7.644   7.917  0.9464 -2.1930  1.5980
  365MOL0     H49250  12.357   7.655   8.086 -1.9187 -2.3744  2.0364
  365MOL0     H49251  12.214   7.450   7.982 -0.3703 -1.0002  0.9162
  365MOL0     H49252  12.075   7.558   8.016 -1.1175 -1.6063 -2.0637
  365MOL0     H49253  12.138   7.566   8.246 -0.0105  2.6278 -2.2568
  365MOL0     H49254  12.125   7.403   8.194 -1.4804  0.5910  1.6636
  365MOL0     H49255  11.630   8.177   7.535 -0.2282  1.4468  0.3832
  365MOL0     H49256  11.393   8.202   7.575  2.2162 -0.3042 -0.9183
  365MOL0     H49257  11.037   8.111   7.867 -1.2329 -1.9977  2.3275
  365MOL0     H49258  10.781   8.149   7.885  0.6530 -1.2600 -2.0094
  365MOL0     H49259   8.856   9.329   7.481  1.4355  0.4307  1.6900
  365MOL0     H49260   8.616   9.283   7.472 -1.6919  3.3543  2.7312
  365MOL0     H49261   8.281   9.023   7.682  1.8536  2.0575 -0.4686
  365MOL0     H49262   8.060   8.939   7.700 -2.8109  0.5553 -1.5586
  365MOL0     H49263   7.868   8.916   7.830 -1.3028 -1.2070  0.1346
  365MOL0     H49264   7.819   8.883   7.666  3.8271 -2.4760  1.2098
  365MOL0     H49265   7.653   8.810   7.836  4.9318 -0.3879  0.2409
  365MOL0     H49266   7.586   8.921   7.718 -4.4598  0.3478  3.5824
  365MOL0     H49267   7.603   9.097   7.886  0.7295 -0.5616 -1.7422
  365MOL0     H49268   7.654   8.981   8.004 -0.8502 -1.4193  0.7990
  365MOL0     H49269   7.455   8.851   7.990  0.5519 -0.7190  0.2690
  365MOL0     H49270   7.438   9.021   8.042 -0.0786 -0.1717 -0.8855
  365MOL0     H49271   7.204   8.967   7.675 -1.6376  1.0732  2.5964
  365MOL0     H49272   7.890   9.313   7.652 -1.1793 -1.2671  2.5921
  365MOL0     H49273   8.034   9.506   7.667 -2.2450 -4.1502 -1.9541
  365MOL0     H49274   8.195   9.500   7.735 -1.9161  0.3399  0.6262
  365MOL0     H49275   8.182   9.486   7.562  2.3283  0.2986  1.3664
  366MOL0     O49276   9.721   2.588   9.480  0.4896 -0.7822  0.2382
  366MOL0     C49277   9.743   2.475   9.481  0.2126 -0.0150  0.4250
  366MOL0     O49278   9.865   2.418   9.494  0.2808  0.5665 -0.1331
  366MOL0     C49279   9.983   2.479   9.518  0.7793  1.0090  0.5691
  366MOL0     C49280   9.984   2.583   9.618  0.7246  0.5215  0.9236
  366MOL0     C49281  10.097   2.648   9.654 -0.3978 -0.2348 -0.2814
  366MOL0     C49282  10.219   2.623   9.589  0.6836 -0.1648  0.3905
  366MOL0     O49283  10.339   2.682   9.618 -0.4569 -0.1395 -0.8415
  366MOL0     C49284  10.391   2.658   9.751 -0.5287 -0.5533  0.2956
  366MOL0     C49285  10.491   2.542   9.748  0.1383 -0.4066 -0.1110
  366MOL0     C49286  10.633   2.592   9.703  0.5775  0.4055  0.2557
  366MOL0     C49287  10.710   2.655   9.816 -0.2881  0.4893 -0.9782
  366MOL0     C49288  10.845   2.682   9.761 -0.1057 -0.0074  0.2250
  366MOL0     C49289  10.932   2.748   9.876  0.7227 -1.0762  0.0937
  366MOL0     C49290  11.075   2.750   9.833 -0.7635 -0.6754 -0.2656
  366MOL0     C49291  11.150   2.801   9.956  0.0225  0.9778 -0.1472
  366MOL0     N49292  11.294   2.823   9.923 -0.7626  0.0171 -0.7059
  366MOL0     C49293  11.379   2.731   9.865 -0.1346 -0.6933 -1.0979
  366MOL0     C49294  11.493   2.797   9.849 -1.1123  0.9825  1.1635
  366MOL0     C49295  11.612   2.741   9.777  0.2926  0.3577  1.0602
  366MOL0     C49296  11.757   2.787   9.823 -0.6489  0.6280  0.9157
  366MOL0     C49297  11.852   2.796   9.708  0.1717  0.3162  0.3993
  366MOL0     C49298  11.865   2.665   9.621  0.0744 -0.0946 -0.3440
  366MOL0     O49299  11.981   2.686   9.541 -0.2485 -0.5238 -0.3341
  366MOL0     C49300  11.978   2.745   9.421  0.4249  0.0927 -0.1365
  366MOL0     C49301  12.097   2.742   9.338  0.5890 -0.2165  0.4262
  366MOL0     C49302  12.099   2.793   9.211 -0.0566  0.1488  0.0321
  366MOL0     C49303  11.982   2.844   9.165  0.7677  0.7255  0.5737
  366MOL0     C49304  11.973   2.892   9.021 -0.2523  1.0939 -0.2438
  366MOL0     O49305  11.869   2.965   8.977  0.0783 -0.2907 -0.1558
  366MOL0     C49306  11.846   2.991   8.847 -0.6635  0.5192  1.1150
  366MOL0     C49307  11.873   2.919   8.735 -0.4528 -0.0677  0.7948
  366MOL0     C49308  11.842   2.962   8.603 -0.2277 -0.0259  0.5940
  366MOL0     C49309  11.781   3.084   8.580 -0.1677 -0.2752 -0.5524
  366MOL0     O49310  11.778   3.133   8.447 -0.4471 -0.1820  1.0028
  366MOL0     C49311  11.668   3.222   8.422  0.4546 -0.0901  0.5946
  366MOL0     C49312  11.661   3.252   8.278  0.1640  0.8264  0.0455
  366MOL0     C49313  11.588   3.152   8.191 -0.2974 -0.0362 -0.1807
  366MOL0     C49314  11.637   3.160   8.048  0.0913  0.6058 -0.1600
  366MOL0     C49315  11.572   3.051   7.958 -0.1725  0.2247 -0.5617
  366MOL0     C49316  11.628   3.041   7.810 -0.0719  0.3232 -0.0333
  366MOL0     C49317  11.568   3.152   7.726  0.0887  0.4537  0.4301
  366MOL0     C49318  11.605   3.120   7.585  0.0848  0.2082 -0.2127
  366MOL0    Cl49319  11.547   3.254   7.486  0.1618  0.1021  0.1865
  366MOL0     C49320  11.747   3.158   8.696 -0.1946  0.3788 -0.3248
  366MOL0     C49321  11.774   3.113   8.822 -0.4712 -0.5002 -0.7413
  366MOL0     O49322  12.066   2.853   8.950  0.4004 -0.1250  0.0911
  366MOL0     C49323  11.865   2.848   9.240  0.4430  0.8586 -0.1466
  366MOL0     C49324  11.861   2.792   9.366 -0.2640 -0.3569 -0.0712
  366MOL0     N49325  11.488   2.921   9.908  0.0832 -0.0095 -0.4110
  366MOL0     N49326  11.374   2.931   9.949  0.6004  0.3919  0.2318
  366MOL0     C49327  10.215   2.527   9.488  0.1611  0.4865 -0.4876
  366MOL0     C49328  10.104   2.448   9.452  0.9922  0.3753  0.3234
  366MOL0     C49329   9.654   2.374   9.442  0.0289 -0.3969  0.7251
  366MOL0     C49330   9.700   2.267   9.358 -0.3605 -0.4465 -0.1266
  366MOL0     C49331   9.618   2.168   9.302 -0.5351  0.2565 -0.5553
  366MOL0     C49332   9.485   2.167   9.339 -0.0164  0.7828  0.2254
  366MOL0     O49333   9.399   2.073   9.289  0.0399  0.5678  0.0129
  366MOL0     C49334   9.412   2.006   9.165 -0.2683  0.6157  0.5630
  366MOL0     C49335   9.492   1.865   9.183  0.3977 -0.1659  0.7405
  366MOL0     C49336   9.441   1.758   9.273  0.4655 -0.7046 -0.0799
  366MOL0     C49337   9.461   1.801   9.423  0.5694 -0.5212 -0.2022
  366MOL0     C49338   9.601   1.819   9.461 -0.0016 -0.7605  0.0493
  366MOL0     C49339   9.718   1.832   9.501  0.2319  0.0166  1.3186
  366MOL0     C49340   9.439   2.260   9.422  0.5488 -0.3274  0.1197
  366MOL0     C49341   9.516   2.369   9.479 -0.4917 -0.2938  0.2188
  366MOL0     C49342   9.441   2.470   9.566 -0.0979 -0.5998 -0.9609
  366MOL0     H49343   9.899   2.613   9.678  0.6897 -0.1819  1.2406
  366MOL0     H49344  10.089   2.722   9.732 -2.1460 -1.8737  1.1614
  366MOL0     H49345  10.421   2.754   9.794 -0.1344 -0.0233 -1.1083
  366MOL0     H49346  10.307   2.629   9.815 -0.1342 -0.3643  0.9006
  366MOL0     H49347  10.449   2.458   9.691 -1.0832 -0.0593  0.2515
  366MOL0     H49348  10.502   2.503   9.850 -2.7156 -0.3448  0.2907
  366MOL0     H49349  10.615   2.660   9.619  0.1981  0.1159  0.0976
  366MOL0     H49350  10.687   2.502   9.672  0.8217 -0.0669  1.9855
  366MOL0     H49351  10.666   2.747   9.855  1.0733  0.1882  1.4882
  366MOL0     H49352  10.723   2.582   9.898 -4.5708  1.0232  0.4239
  366MOL0     H49353  10.896   2.592   9.727 -1.6025 -1.4594  1.5949
  366MOL0     H49354  10.849   2.758   9.682 -1.8769 -1.1958 -1.0993
  366MOL0     H49355  10.904   2.852   9.895  2.0743 -0.6506 -0.0884
  366MOL0     H49356  10.915   2.697   9.972  2.0530 -1.0926  0.3487
  366MOL0     H49357  11.097   2.816   9.748 -0.9078 -1.7052 -1.1230
  366MOL0     H49358  11.107   2.646   9.821  0.4018 -0.7074  2.5121
  366MOL0     H49359  11.107   2.894   9.996 -3.8510 -0.3581 -0.7232
  366MOL0     H49360  11.142   2.724  10.033  2.0830 -1.1091 -1.9030
  366MOL0     H49361  11.368   2.626   9.839 -0.2237 -0.7323 -0.8980
  366MOL0     H49362  11.603   2.632   9.769 -0.0159  0.4328  0.2990
  366MOL0     H49363  11.608   2.768   9.671 -2.2902  2.0943  1.4996
  366MOL0     H49364  11.752   2.884   9.874  0.1409  0.6202  1.0172
  366MOL0     H49365  11.800   2.710   9.887  2.2023  1.0356 -0.3571
  366MOL0     H49366  11.953   2.808   9.747 -0.6007 -0.2631  2.7740
  366MOL0     H49367  11.837   2.887   9.649 -1.7496 -0.0204  0.3066
  366MOL0     H49368  11.777   2.637   9.563  0.9189 -0.1276 -1.6523
  366MOL0     H49369  11.874   2.584   9.693 -2.1441 -0.2380 -0.1686
  366MOL0     H49370  12.190   2.702   9.377  0.3031  0.9227  2.4321
  366MOL0     H49371  12.193   2.787   9.156 -1.2513  2.2545 -2.4767
  366MOL0     H49372  11.911   2.818   8.743 -1.2944 -0.4921 -0.4421
  366MOL0     H49373  11.874   2.907   8.515 -1.1080  1.7836 -0.9284
  366MOL0     H49374  11.578   3.166   8.451  0.1144  0.0195 -0.2162
  366MOL0     H49375  11.675   3.319   8.472 -0.1407  0.3426 -0.1375
  366MOL0     H49376  11.609   3.346   8.256 -0.5930 -0.0339 -2.1361
  366MOL0     H49377  11.762   3.269   8.241 -0.2263  0.2957 -1.3371
  366MOL0     H49378  11.601   3.057   8.245 -2.3236  0.5770  1.5766
  366MOL0     H49379  11.481   3.174   8.191 -0.1904  0.5560  0.8391
  366MOL0     H49380  11.745   3.149   8.045  0.1385  1.2164 -1.4335
  366MOL0     H49381  11.607   3.253   7.998  0.3294  0.6905 -0.1446
  366MOL0     H49382  11.466   3.077   7.968  0.2190  1.3966  0.9191
  366MOL0     H49383  11.586   2.959   8.016 -1.4740 -0.3685 -1.1484
  366MOL0     H49384  11.737   3.048   7.798  0.5284 -1.2057  3.3344
  366MOL0     H49385  11.601   2.942   7.772  4.3372 -0.8971 -0.5493
  366MOL0     H49386  11.607   3.252   7.746 -1.5750  1.6582 -1.8509
  366MOL0     H49387  11.459   3.154   7.737 -0.0269  3.9707 -0.3007
  366MOL0     H49388  11.713   3.103   7.575  0.3509  1.4325  0.4116
  366MOL0     H49389  11.574   3.021   7.550  2.7157 -0.4940 -0.8243
  366MOL0     H49390  11.694   3.252   8.689  1.0663  1.1023 -0.3442
  366MOL0     H49391  11.751   3.182   8.902  2.4420 -0.0959 -0.1208
  366MOL0     H49392  11.777   2.894   9.197  1.9290  1.3086 -2.9580
  366MOL0     H49393  11.766   2.782   9.418 -0.3652  1.5567  0.1958
  366MOL0     H49394  10.312   2.511   9.443  1.9320  1.1414  2.7514
  366MOL0     H49395  10.106   2.369   9.377  1.4408  0.7598 -0.0754
  366MOL0     H49396   9.805   2.254   9.330 -0.8290  0.1203 -2.3673
  366MOL0     H49397   9.660   2.094   9.234 -1.8319 -2.5012  1.4672
  366MOL0     H49398   9.472   2.059   9.091 -0.3549  1.8345  1.3429
  366MOL0     H49399   9.312   1.978   9.130 -0.4434 -0.4962  1.8717
  366MOL0     H49400   9.599   1.879   9.199  1.4214 -2.4542 -2.9275
  366MOL0     H49401   9.490   1.820   9.084  3.3407  0.6446  0.2185
  366MOL0     H49402   9.503   1.673   9.243  1.8137  0.4851 -0.7630
  366MOL0     H49403   9.337   1.739   9.244 -1.3046  3.4396  2.7582
  366MOL0     H49404   9.404   1.894   9.433  1.2768 -0.0011 -0.7998
  366MOL0     H49405   9.425   1.721   9.487 -1.1067 -0.3734 -0.9313
  366MOL0     H49406   9.825   1.839   9.504  0.2883 -0.8401  1.4590
  366MOL0     H49407   9.339   2.249   9.461  0.0946  2.0581 -0.2308
  366MOL0     H49408   9.474   2.574   9.559 -1.2868 -0.1258  0.0151
  366MOL0     H49409   9.333   2.468   9.546 -0.6009 -2.0945  1.5556
  366MOL0     H49410   9.454   2.453   9.673 -0.6397 -0.8429 -0.9302
  367MOL0     O49411   2.835   8.598   4.661 -0.3540  0.4153  0.4196
  367MOL0     C49412   2.892   8.551   4.564 -0.5214  0.4252 -0.6225
  367MOL0     O49413   2.934   8.626   4.456  0.0813  0.1102 -0.3705
  367MOL0     C49414   2.989   8.747   4.488  0.9640 -0.3337 -0.2843
  367MOL0     C49415   3.010   8.842   4.384 -0.2288 -0.5632  0.1203
  367MOL0     C49416   3.070   8.969   4.412  0.5688 -0.3483  1.1110
  367MOL0     C49417   3.116   9.008   4.539  0.0650  0.6481 -0.3212
  367MOL0     O49418   3.179   9.125   4.562 -0.6670  0.0600  0.1899
  367MOL0     C49419   3.083   9.240   4.536 -0.0582  0.7197  0.0680
  367MOL0     C49420   3.121   9.317   4.406  0.3501  0.7949  0.3289
  367MOL0     C49421   3.274   9.307   4.385  0.3322  0.3674  0.1252
  367MOL0     C49422   3.314   9.381   4.247  0.1181  0.1764 -0.0372
  367MOL0     C49423   3.451   9.346   4.200  0.5558 -0.4656 -0.1923
  367MOL0     C49424   3.562   9.406   4.284  0.2777  0.1171 -0.0195
  367MOL0     C49425   3.694   9.392   4.217 -0.1350 -0.8580 -0.8332
  367MOL0     C49426   3.809   9.439   4.313 -0.2974 -0.7662  0.2691
  367MOL0     N49427   3.945   9.421   4.252  0.0785 -0.5631  0.6166
  367MOL0     C49428   3.992   9.307   4.195  0.5250  0.5209  1.0354
  367MOL0     C49429   4.096   9.350   4.120 -0.1191  0.4456  0.3638
  367MOL0     C49430   4.179   9.269   4.029 -0.2628  0.3369 -0.4570
  367MOL0     C49431   4.325   9.314   4.006  0.0730  0.3554  0.6804
  367MOL0     C49432   4.394   9.214   3.907  0.4222  0.2307  0.2863
  367MOL0     C49433   4.536   9.248   3.886  0.4690 -0.0912  0.2372
  367MOL0     O49434   4.612   9.136   3.831 -0.1654  0.4461  0.3061
  367MOL0     C49435   4.739   9.148   3.776 -0.3469  0.6754  0.4675
  367MOL0     C49436   4.805   9.266   3.771 -0.3173 -0.2387 -0.9720
  367MOL0     C49437   4.932   9.271   3.713 -0.2782 -0.1216  0.3815
  367MOL0     C49438   5.000   9.154   3.668  0.0600  0.1838  0.2081
  367MOL0     C49439   5.131   9.166   3.611  0.1010  0.7805 -0.1204
  367MOL0     O49440   5.206   9.287   3.603  0.7878 -0.2603  0.5134
  367MOL0     C49441   5.330   9.285   3.541  0.8440  1.0281 -0.2376
  367MOL0     C49442   5.350   9.264   3.404 -0.7106 -0.0458 -0.1636
  367MOL0     C49443   5.477   9.269   3.349 -0.5592 -0.2808 -0.4413
  367MOL0     C49444   5.594   9.306   3.420  0.0705  0.7291 -0.3594
  367MOL0     O49445   5.718   9.302   3.358  0.2424  0.6775  0.1815
  367MOL0     C49446   5.834   9.317   3.438 -0.2370  0.5435 -0.2288
  367MOL0     C49447   5.881   9.173   3.486  0.0131 -0.0864  0.0309
  367MOL0     C49448   5.891   9.077   3.368  0.7034 -0.3092 -0.3149
  367MOL0     C49449   5.944   8.946   3.417  0.7034 -0.1998  0.4877
  367MOL0     C49450   5.942   8.847   3.302 -0.3579  0.6141 -0.7252
  367MOL0     C49451   5.804   8.775   3.276  0.5413 -0.4395 -0.6630
  367MOL0     C49452   5.804   8.644   3.198  0.2855 -0.4139  0.6570
  367MOL0     C49453   5.812   8.532   3.298  0.3361  0.1185  0.1267
  367MOL0    Cl49454   5.783   8.388   3.198  0.0899 -0.0640  0.1303
  367MOL0     C49455   5.565   9.320   3.561 -1.1324  0.5139  0.7147
  367MOL0     C49456   5.440   9.301   3.617  0.7771  0.6477  0.1416
  367MOL0     O49457   5.176   9.057   3.566  0.1464  0.0425 -0.3685
  367MOL0     C49458   4.925   9.038   3.669  0.2249  0.3718  0.3377
  367MOL0     C49459   4.797   9.034   3.723  0.1177 -0.8647 -1.4089
  367MOL0     N49460   4.115   9.485   4.149 -0.5347  0.4486 -0.2029
  367MOL0     N49461   4.017   9.528   4.225  0.0171  0.3405  0.4742
  367MOL0     C49462   3.099   8.912   4.631  0.8200  0.3004  0.2502
  367MOL0     C49463   3.041   8.782   4.616 -0.5642  0.3078 -0.5146
  367MOL0     C49464   2.870   8.401   4.546 -0.8041  0.3601 -0.3174
  367MOL0     C49465   2.743   8.341   4.560 -0.8349 -0.1795  0.1975
  367MOL0     C49466   2.726   8.201   4.542 -0.1258 -0.3178  0.5754
  367MOL0     C49467   2.831   8.129   4.495  0.3813 -0.9746 -0.3346
  367MOL0     O49468   2.803   7.999   4.475 -0.1904 -0.2408 -0.6014
  367MOL0     C49469   2.837   7.929   4.593 -0.1568 -0.5859  0.1335
  367MOL0     C49470   2.789   7.783   4.581 -0.0180  0.4339  0.3813
  367MOL0     C49471   2.631   7.774   4.601 -0.1730  0.0837  0.6999
  367MOL0     C49472   2.583   7.630   4.603 -0.1237  0.2048  1.0883
  367MOL0     C49473   2.442   7.613   4.582  0.3115 -0.2688 -0.7240
  367MOL0     C49474   2.322   7.621   4.564 -0.2669 -0.5511 -0.0012
  367MOL0     C49475   2.959   8.186   4.470  0.4911 -0.2013  0.4353
  367MOL0     C49476   2.977   8.327   4.491  1.0623  1.0548 -0.5263
  367MOL0     C49477   3.099   8.390   4.451  0.1472 -0.0577  0.4156
  367MOL0     H49478   3.004   8.829   4.276  3.1818  1.6210 -0.5051
  367MOL0     H49479   3.085   9.045   4.336 -3.4279 -1.7388 -1.3864
  367MOL0     H49480   2.981   9.201   4.534 -0.9853  2.9753 -2.6453
  367MOL0     H49481   3.094   9.323   4.607 -0.5781  1.1676 -0.3680
  367MOL0     H49482   3.090   9.421   4.405 -1.7846  0.2019  0.0684
  367MOL0     H49483   3.074   9.264   4.322  2.0293 -2.3159  1.1619
  367MOL0     H49484   3.296   9.200   4.376 -1.8711 -0.4115  2.7518
  367MOL0     H49485   3.336   9.342   4.468 -1.8940  3.3147  0.6956
  367MOL0     H49486   3.241   9.360   4.168  0.4905  1.6420 -0.8102
  367MOL0     H49487   3.293   9.485   4.274 -3.7030 -0.1516 -1.0526
  367MOL0     H49488   3.471   9.238   4.204 -1.1111 -0.7754  1.6187
  367MOL0     H49489   3.467   9.388   4.101 -0.8430 -1.3833 -0.8411
  367MOL0     H49490   3.534   9.510   4.306  2.7260  0.3135  2.8455
  367MOL0     H49491   3.569   9.358   4.381  0.9958 -0.3028 -0.2721
  367MOL0     H49492   3.705   9.451   4.125  1.0231  1.6717  0.8023
  367MOL0     H49493   3.712   9.286   4.198 -1.1540 -1.9521  3.3184
  367MOL0     H49494   3.796   9.543   4.344 -3.1898 -0.1064 -2.5495
  367MOL0     H49495   3.812   9.382   4.406 -3.0228 -0.5312  0.5944
  367MOL0     H49496   3.946   9.208   4.192  0.2013  0.6687 -1.1848
  367MOL0     H49497   4.178   9.176   4.086  2.5216  1.3849  1.5258
  367MOL0     H49498   4.120   9.254   3.938 -0.9589  0.4345 -0.0299
  367MOL0     H49499   4.317   9.415   3.965  0.2886  1.3531  2.9075
  367MOL0     H49500   4.386   9.335   4.095 -0.4708 -0.5534  1.2880
  367MOL0     H49501   4.338   9.230   3.814 -0.4475  2.2039  1.1079
  367MOL0     H49502   4.373   9.111   3.937 -1.1996 -0.7285 -3.4961
  367MOL0     H49503   4.574   9.277   3.984 -2.3099  0.4393  1.2429
  367MOL0     H49504   4.540   9.339   3.826  0.6306 -0.0187  0.3564
  367MOL0     H49505   4.766   9.362   3.805 -1.8529 -1.7854  2.0628
  367MOL0     H49506   4.984   9.366   3.702  0.8776 -1.0202 -2.9570
  367MOL0     H49507   5.270   9.237   3.335  0.8547 -4.4032 -0.6286
  367MOL0     H49508   5.480   9.260   3.241 -0.3308  1.6711 -0.6398
  367MOL0     H49509   5.912   9.362   3.376 -1.7454  1.5951 -1.4568
  367MOL0     H49510   5.812   9.389   3.518  0.9122 -0.8123  1.3759
  367MOL0     H49511   5.974   9.187   3.541  0.7520 -1.4798 -0.8148
  367MOL0     H49512   5.814   9.135   3.564 -0.8308  0.1928 -0.5386
  367MOL0     H49513   5.789   9.067   3.331  0.2814  2.2248 -0.0439
  367MOL0     H49514   5.940   9.122   3.281 -0.1312 -0.8538 -1.0915
  367MOL0     H49515   5.881   8.921   3.503 -0.9666 -0.6481 -0.7959
  367MOL0     H49516   6.048   8.968   3.445  1.0712 -2.5275  1.1078
  367MOL0     H49517   6.013   8.767   3.325 -0.5066 -0.0810 -2.5415
  367MOL0     H49518   5.984   8.900   3.216  2.2541 -1.9029 -1.1487
  367MOL0     H49519   5.770   8.751   3.377  2.4302  0.1913  0.1706
  367MOL0     H49520   5.739   8.847   3.226  0.2073  1.5097  2.3304
  367MOL0     H49521   5.882   8.643   3.121  0.8562 -1.6599  1.2201
  367MOL0     H49522   5.710   8.630   3.145  1.8391 -4.5976 -1.4706
  367MOL0     H49523   5.909   8.529   3.348 -1.2362 -1.6351  3.3833
  367MOL0     H49524   5.728   8.543   3.368 -0.4964  2.4538 -1.1328
  367MOL0     H49525   5.648   9.340   3.628  0.5155 -0.9539 -0.7875
  367MOL0     H49526   5.431   9.309   3.725  0.3453 -3.7109  0.5988
  367MOL0     H49527   4.963   8.954   3.612  0.2224 -0.1679  1.1251
  367MOL0     H49528   4.739   8.943   3.733  0.8535 -1.2209 -0.1615
  367MOL0     H49529   3.133   8.936   4.731  2.0469 -0.7708  0.1111
  367MOL0     H49530   3.033   8.716   4.702  0.8502 -0.5384 -0.9911
  367MOL0     H49531   2.661   8.405   4.589  0.6588  1.1629  1.6558
  367MOL0     H49532   2.628   8.159   4.558 -1.1067  0.9967 -1.5394
  367MOL0     H49533   2.787   7.960   4.685  1.9399 -3.3069  2.4000
  367MOL0     H49534   2.942   7.945   4.622  0.2656  0.0967 -1.6330
  367MOL0     H49535   2.839   7.728   4.662 -2.5644  0.6353  2.2208
  367MOL0     H49536   2.819   7.738   4.486 -2.0605 -0.5715  0.1538
  367MOL0     H49537   2.579   7.825   4.520 -1.7531 -0.3945  1.3864
  367MOL0     H49538   2.594   7.813   4.696 -1.6008  1.6505 -0.4391
  367MOL0     H49539   2.629   7.582   4.517  0.5514  4.3100 -1.1030
  367MOL0     H49540   2.608   7.574   4.693 -0.9791  0.2290  1.3563
  367MOL0     H49541   2.216   7.635   4.556 -0.3720 -1.5249 -0.4060
  367MOL0     H49542   3.039   8.124   4.432  0.2568  1.0931 -2.4355
  367MOL0     H49543   3.142   8.459   4.524  1.3002 -2.6559  2.3854
  367MOL0     H49544   3.174   8.315   4.421 -0.5865 -0.6943  0.1189
  367MOL0     H49545   3.087   8.450   4.360  0.8574 -2.4616 -1.3735
  368MOL0     O49546   1.079   9.882   5.266  0.3036 -0.4579 -0.3014
  368MOL0     C49547   1.059  10.002   5.267 -0.5846  0.7073 -0.9848
  368MOL0     O49548   1.151  10.097   5.244 -0.3690  0.0789  0.1281
  368MOL0     C49549   1.288  10.066   5.238 -1.1380 -1.0672 -0.4039
  368MOL0     C49550   1.373  10.185   5.230  0.1444 -0.2896 -0.6255
  368MOL0     C49551   1.516  10.178   5.222 -0.6285 -0.3821  0.3073
  368MOL0     C49552   1.581  10.049   5.238  0.4438 -0.7597  0.5972
  368MOL0     O49553   1.716  10.024   5.232  0.4572 -0.5139  0.0376
  368MOL0     C49554   1.788  10.128   5.287  0.3454 -0.6910 -0.2261
  368MOL0     C49555   1.932  10.086   5.304  0.3058 -0.0130  0.2531
  368MOL0     C49556   2.025  10.204   5.336  0.0681  0.4923 -0.1608
  368MOL0     C49557   2.167  10.145   5.339  0.4757 -0.5948 -0.5023
  368MOL0     C49558   2.273  10.240   5.384 -0.5416 -0.3046 -0.4773
  368MOL0     C49559   2.404  10.163   5.406 -0.2172  0.2367 -0.7192
  368MOL0     C49560   2.518  10.260   5.430 -0.3534  0.4310 -0.4509
  368MOL0     C49561   2.571  10.320   5.300  0.5402 -0.1778 -0.2350
  368MOL0     N49562   2.652  10.439   5.328 -0.0508  0.3623  0.0018
  368MOL0     C49563   2.721  10.463   5.442  0.1817  0.0099  0.4963
  368MOL0     C49564   2.779  10.580   5.427 -1.4860  0.0020  0.7090
  368MOL0     C49565   2.902  10.637   5.493 -0.1965 -0.5699 -0.2966
  368MOL0     C49566   3.000  10.703   5.399 -0.2708 -0.2071  0.1865
  368MOL0     C49567   3.098  10.590   5.351  0.5211  0.0601  0.3352
  368MOL0     C49568   3.212  10.635   5.271  0.4539 -0.7969  0.2896
  368MOL0     O49569   3.284  10.732   5.352 -0.3118  0.2383  0.2149
  368MOL0     C49570   3.376  10.815   5.288 -0.8547 -0.5792 -0.8600
  368MOL0     C49571   3.436  10.798   5.165  0.7196  0.3455 -1.0872
  368MOL0     C49572   3.531  10.890   5.125 -0.0116  0.5929  0.2021
  368MOL0     C49573   3.579  10.997   5.209  0.3454 -0.0241  0.7537
  368MOL0     C49574   3.704  11.077   5.173 -0.0364  0.7624  0.4775
  368MOL0     O49575   3.776  11.024   5.069 -0.3648  0.0406 -0.6137
  368MOL0     C49576   3.910  11.063   5.056  0.5463  0.5126  0.2531
  368MOL0     C49577   4.002  11.060   5.160  1.2458 -0.3840 -0.2899
  368MOL0     C49578   4.139  11.104   5.137 -0.3319  0.0504 -0.2131
  368MOL0     C49579   4.181  11.130   5.005  0.3274  0.4595 -0.8360
  368MOL0     O49580   4.304  11.167   4.952  0.5064  0.5627 -0.0513
  368MOL0     C49581   4.394  11.218   5.048  1.1376 -0.3336  0.4296
  368MOL0     C49582   4.527  11.236   4.971  0.2266 -0.0080  0.0037
  368MOL0     C49583   4.510  11.308   4.839  0.3176 -0.1704  0.5076
  368MOL0     C49584   4.643  11.375   4.800 -0.1855 -0.1790  0.6014
  368MOL0     C49585   4.754  11.264   4.772 -0.7616 -0.1365 -0.3599
  368MOL0     C49586   4.877  11.319   4.696 -0.5374 -0.1329 -0.3409
  368MOL0     C49587   4.959  11.197   4.658 -0.1791 -0.2343 -0.4166
  368MOL0     C49588   5.102  11.224   4.609 -2.0290  0.8288  1.1196
  368MOL0    Cl49589   5.215  11.248   4.747 -0.2168 -0.1564 -0.1321
  368MOL0     C49590   4.090  11.129   4.902  0.2799 -0.1919 -1.1291
  368MOL0     C49591   3.957  11.092   4.929 -0.2355 -0.0978 -0.3453
  368MOL0     O49592   3.730  11.175   5.240  0.4722  0.3746 -0.0630
  368MOL0     C49593   3.521  11.007   5.328  0.3729 -0.1900 -0.3526
  368MOL0     C49594   3.418  10.919   5.370 -0.0102 -0.4352 -0.3168
  368MOL0     N49595   2.754  10.624   5.297  0.6006 -0.5705  0.3479
  368MOL0     N49596   2.674  10.541   5.241  0.0524  0.6140 -0.9964
  368MOL0     C49597   1.498   9.938   5.234  0.1939  0.6774  0.2443
  368MOL0     C49598   1.358   9.940   5.242  0.0644  0.0639  0.1588
  368MOL0     C49599   0.914  10.050   5.295  0.3970 -0.6103  0.1709
  368MOL0     C49600   0.889  10.173   5.231 -0.0324 -0.5279  0.1319
  368MOL0     C49601   0.767  10.246   5.249  0.3276  0.5563 -0.4706
  368MOL0     C49602   0.666  10.174   5.324  0.1237 -0.2751  0.0423
  368MOL0     O49603   0.552  10.246   5.358 -0.3344  0.1696 -0.1911
  368MOL0     C49604   0.430  10.175   5.392 -0.4046  0.2857 -0.2553
  368MOL0     C49605   0.321  10.278   5.424 -0.3393  0.2631  0.2225
  368MOL0     C49606   0.194  10.202   5.463  0.0937  0.6496 -0.3173
  368MOL0     C49607   0.075  10.303   5.486 -0.5403 -0.1020 -0.1665
  368MOL0     C49608   0.028  10.380   5.366 -0.2880  0.0383  0.9955
  368MOL0     C49609  -0.010  10.448   5.268 -0.1679  0.1220  0.6434
  368MOL0     C49610   0.695  10.054   5.392  0.3105 -1.1449  0.0458
  368MOL0     C49611   0.817   9.989   5.372  0.1933 -0.6694  0.1484
  368MOL0     C49612   0.839   9.864   5.450  0.0903  1.0468  0.6368
  368MOL0     H49613   1.338  10.287   5.218  1.1592 -0.1230 -2.5999
  368MOL0     H49614   1.569  10.271   5.208 -4.3984  1.7388 -1.3988
  368MOL0     H49615   1.769  10.218   5.228 -2.9287 -1.9051 -1.2315
  368MOL0     H49616   1.746  10.152   5.385 -3.8034  0.1071 -1.9869
  368MOL0     H49617   1.961  10.024   5.219 -0.0407  0.6493 -0.3591
  368MOL0     H49618   1.937  10.018   5.390  0.5417  0.1101  0.3376
  368MOL0     H49619   1.999  10.230   5.439 -0.2974  0.4741 -0.2486
  368MOL0     H49620   2.023  10.296   5.275  0.6732 -0.0999 -1.0955
  368MOL0     H49621   2.166  10.066   5.415 -1.4268  1.2260  1.5086
  368MOL0     H49622   2.188  10.081   5.253  2.1024 -2.4864  1.1963
  368MOL0     H49623   2.289  10.308   5.300  1.2503 -2.6206 -2.1751
  368MOL0     H49624   2.248  10.298   5.473 -2.1388  0.0475 -1.1192
  368MOL0     H49625   2.399  10.107   5.499  1.5684  0.5032 -0.4306
  368MOL0     H49626   2.426  10.090   5.328 -0.3209 -0.7110  0.1269
  368MOL0     H49627   2.601  10.211   5.482 -2.6051 -0.2636  2.7611
  368MOL0     H49628   2.478  10.339   5.495  1.1682  1.2458 -0.4340
  368MOL0     H49629   2.628  10.243   5.247  0.6222  0.7069 -1.4919
  368MOL0     H49630   2.494  10.359   5.232  0.6161  0.9250  0.2905
  368MOL0     H49631   2.727  10.397   5.527 -0.4392 -1.7447 -0.7742
  368MOL0     H49632   2.869  10.714   5.563  2.6598 -0.5583  1.2066
  368MOL0     H49633   2.958  10.565   5.553 -0.2210 -1.1665 -0.9866
  368MOL0     H49634   2.954  10.751   5.312  0.6596 -3.4333 -2.3114
  368MOL0     H49635   3.050  10.788   5.448  2.0114 -0.0941 -2.0962
  368MOL0     H49636   3.043  10.527   5.281  1.8609  0.3110 -0.9960
  368MOL0     H49637   3.138  10.543   5.442  1.8613 -0.1005 -0.3139
  368MOL0     H49638   3.177  10.684   5.180  0.3728 -0.9987  0.2112
  368MOL0     H49639   3.279  10.551   5.249  1.3364 -1.0054  3.2182
  368MOL0     H49640   3.411  10.717   5.097 -1.2753  1.2405 -1.4892
  368MOL0     H49641   3.570  10.877   5.025 -1.6229  0.9126 -0.5018
  368MOL0     H49642   3.969  11.031   5.259 -3.6588  0.6240 -1.3729
  368MOL0     H49643   4.212  11.114   5.216  0.1188  1.4772 -0.7912
  368MOL0     H49644   4.362  11.315   5.089  0.5742  0.1260 -1.0383
  368MOL0     H49645   4.414  11.146   5.128 -0.4793 -1.9047 -0.5280
  368MOL0     H49646   4.588  11.298   5.038 -0.7233  1.8551 -0.8003
  368MOL0     H49647   4.579  11.139   4.969 -2.0550 -1.3418  1.3851
  368MOL0     H49648   4.471  11.241   4.762 -1.1571  1.5026 -0.2674
  368MOL0     H49649   4.436  11.388   4.847 -1.6836 -1.8498 -0.2761
  368MOL0     H49650   4.670  11.450   4.875 -2.5115  0.0165  1.3354
  368MOL0     H49651   4.628  11.432   4.708  0.7172 -0.0710  0.5110
  368MOL0     H49652   4.710  11.182   4.716  0.2153 -0.9704  0.0514
  368MOL0     H49653   4.800  11.222   4.862  3.8376 -0.1993 -2.4573
  368MOL0     H49654   4.845  11.380   4.611 -0.3352 -3.7323 -3.2569
  368MOL0     H49655   4.937  11.385   4.759 -2.2668  1.7098 -0.4980
  368MOL0     H49656   4.907  11.145   4.577 -1.8981 -1.9626  1.6696
  368MOL0     H49657   4.975  11.135   4.747  2.8520 -0.2793 -0.8572
  368MOL0     H49658   5.130  11.129   4.564 -0.4022  2.0870 -0.7155
  368MOL0     H49659   5.106  11.305   4.535  2.0178 -0.2956 -0.1844
  368MOL0     H49660   4.114  11.156   4.800 -1.8202 -1.9048 -2.1557
  368MOL0     H49661   3.908  11.084   4.833  0.3591  5.0223 -1.3542
  368MOL0     H49662   3.555  11.069   5.411 -2.0706  0.1174  0.4906
  368MOL0     H49663   3.386  10.919   5.474  1.0937  1.0547  0.0654
  368MOL0     H49664   1.539   9.840   5.215  0.8928  1.4517 -2.7250
  368MOL0     H49665   1.301   9.848   5.255 -2.1269  1.3415  0.2348
  368MOL0     H49666   0.973  10.224   5.185  2.8563 -2.5038  2.7953
  368MOL0     H49667   0.747  10.336   5.192 -0.2728  0.1991 -0.8400
  368MOL0     H49668   0.447  10.104   5.474  0.8629 -0.5722 -1.2322
  368MOL0     H49669   0.410  10.106   5.310  1.9802 -0.5648 -0.2142
  368MOL0     H49670   0.303  10.336   5.333  3.3842  2.6745  0.7990
  368MOL0     H49671   0.358  10.344   5.504 -0.7690 -1.7453  2.1637
  368MOL0     H49672   0.213  10.146   5.555 -0.7802  2.6706  1.1634
  368MOL0     H49673   0.169  10.131   5.383 -1.1448  1.2252 -0.4719
  368MOL0     H49674  -0.002  10.235   5.522  2.9341 -3.2459  2.0710
  368MOL0     H49675   0.098  10.381   5.559 -3.9648  1.2629 -0.3444
  368MOL0     H49676  -0.050  10.523   5.203 -0.6383 -0.9177 -0.2800
  368MOL0     H49677   0.625   9.997   5.453  1.3607 -1.2559  1.1863
  368MOL0     H49678   0.772   9.859   5.537 -1.1111  1.1847 -0.2466
  368MOL0     H49679   0.813   9.780   5.385  0.8238  0.7276  0.7513
  368MOL0     H49680   0.944   9.857   5.480 -0.2782  0.5552  1.8698
  369MOL0     O49681   4.588   9.106  10.053  0.3199  0.1838 -0.3345
  369MOL0     C49682   4.553   9.058   9.944 -1.2797 -0.6076  0.3767
  369MOL0     O49683   4.435   8.986   9.920  0.1093  0.2445 -0.1245
  369MOL0     C49684   4.319   8.994  10.008  0.5713  0.0470 -0.2821
  369MOL0     C49685   4.301   9.076  10.121  0.8478 -0.1658  0.4507
  369MOL0     C49686   4.187   9.073  10.194 -0.6389 -0.4372 -0.5384
  369MOL0     C49687   4.089   8.985  10.168 -0.5304  0.1291 -0.5290
  369MOL0     O49688   3.970   8.991  10.238  0.0666 -0.5279 -0.1733
  369MOL0     C49689   3.861   8.897  10.225 -0.7647  0.2562 -0.4382
  369MOL0     C49690   3.744   8.937  10.306  0.3039 -0.3584 -0.6170
  369MOL0     C49691   3.636   8.829  10.297 -0.1375  0.1303  0.3593
  369MOL0     C49692   3.549   8.837  10.171 -0.4317 -0.9155 -0.6450
  369MOL0     C49693   3.475   8.706  10.157 -0.4610 -0.3788  0.1772
  369MOL0     C49694   3.362   8.732  10.055  0.4252 -0.2373 -0.8265
  369MOL0     C49695   3.289   8.609  10.013  0.0229  0.1069  0.2576
  369MOL0     C49696   3.267   8.496  10.112 -0.1427 -0.1073 -0.3084
  369MOL0     N49697   3.246   8.365  10.061 -0.2799 -0.0354 -0.3852
  369MOL0     C49698   3.334   8.298   9.985 -0.1269 -0.4981 -0.6253
  369MOL0     C49699   3.269   8.181   9.956 -0.3813 -0.0737 -0.8729
  369MOL0     C49700   3.302   8.096   9.846 -0.1627  0.2165 -0.4017
  369MOL0     C49701   3.455   8.100   9.806  0.7444  0.7906 -0.6562
  369MOL0     C49702   3.552   8.059   9.915  0.2979 -1.0469  0.7400
  369MOL0     C49703   3.696   8.045   9.861  0.0195  0.1223 -0.0670
  369MOL0     O49704   3.750   8.151   9.795  0.3046 -0.1416 -0.5343
  369MOL0     C49705   3.875   8.137   9.740 -0.8073  0.1598 -0.1427
  369MOL0     C49706   3.957   8.021   9.748  0.3012  0.5301 -0.3946
  369MOL0     C49707   4.088   8.020   9.697  0.1825  0.2653 -0.7739
  369MOL0     C49708   4.140   8.131   9.634  0.5890  0.0570 -0.4350
  369MOL0     C49709   4.275   8.127   9.568  0.6108  0.8103 -0.0602
  369MOL0     O49710   4.337   8.242   9.552  0.4504 -0.1478  0.6839
  369MOL0     C49711   4.474   8.226   9.524 -0.0608 -0.5945  0.0469
  369MOL0     C49712   4.571   8.205   9.622  0.2135  0.4093  0.2395
  369MOL0     C49713   4.702   8.186   9.574  0.3995  0.8568 -0.2838
  369MOL0     C49714   4.739   8.185   9.441 -0.2852 -1.1693  0.5215
  369MOL0     O49715   4.863   8.159   9.392  0.3540 -0.7966 -0.0218
  369MOL0     C49716   4.960   8.082   9.470  0.6024 -0.1997  0.8084
  369MOL0     C49717   5.085   8.096   9.389  0.1600  0.0228 -0.5093
  369MOL0     C49718   5.179   7.979   9.388  0.4977  0.4276  0.1334
  369MOL0     C49719   5.225   7.931   9.513  0.1286 -0.1406 -0.1972
  369MOL0     C49720   5.340   7.831   9.498  0.0745  0.7305  0.1770
  369MOL0     C49721   5.396   7.790   9.624 -0.8574 -0.7372 -1.1594
  369MOL0     C49722   5.489   7.677   9.599  0.1577  0.9240 -0.2635
  369MOL0     C49723   5.633   7.735   9.609  0.8003  0.2747  0.4812
  369MOL0    Cl49724   5.742   7.609   9.541  0.0422 -0.3270 -0.7510
  369MOL0     C49725   4.643   8.209   9.346  0.2275  0.0112  0.4241
  369MOL0     C49726   4.513   8.227   9.384  0.2676 -0.3720 -0.6254
  369MOL0     O49727   4.322   8.015   9.548  0.8043  0.2724  0.1095
  369MOL0     C49728   4.062   8.249   9.635 -0.3401 -0.0332  0.0329
  369MOL0     C49729   3.936   8.253   9.691  0.0373  0.0967 -0.0742
  369MOL0     N49730   3.145   8.193  10.026  0.2197 -0.1167  0.3334
  369MOL0     N49731   3.135   8.301  10.082  1.2096 -0.1570 -0.2335
  369MOL0     C49732   4.104   8.894  10.059  0.1328  0.8079  0.1386
  369MOL0     C49733   4.218   8.902   9.985  0.0124 -0.1683 -0.1167
  369MOL0     C49734   4.638   9.082   9.822 -0.2624 -0.3219 -0.3725
  369MOL0     C49735   4.582   9.037   9.703 -0.4975 -0.5611 -0.0943
  369MOL0     C49736   4.647   9.040   9.586 -0.4084  0.1773  0.0265
  369MOL0     C49737   4.775   9.088   9.570 -0.3982  0.0206 -0.0620
  369MOL0     O49738   4.841   9.089   9.446  1.0671  0.1559  0.1363
  369MOL0     C49739   4.769   9.046   9.322 -0.3494 -0.8908 -0.2065
  369MOL0     C49740   4.852   9.068   9.190 -0.1776  0.4548  0.3581
  369MOL0     C49741   4.973   8.968   9.173  0.0487 -0.3207 -0.4002
  369MOL0     C49742   5.106   9.029   9.223  0.9652 -0.2189  0.1949
  369MOL0     C49743   5.145   9.138   9.129  0.1680  0.3862  0.4766
  369MOL0     C49744   5.190   9.223   9.056  0.0541  0.2389  0.3395
  369MOL0     C49745   4.837   9.132   9.690 -0.0204  0.6149 -0.1139
  369MOL0     C49746   4.778   9.121   9.824 -0.1063  0.2677  0.3115
  369MOL0     C49747   4.864   9.148   9.946 -0.4837  1.4308  0.1854
  369MOL0     H49748   4.367   9.155  10.155  1.5681  0.3224 -1.9052
  369MOL0     H49749   4.171   9.145  10.273 -1.9411  1.2337 -2.2155
  369MOL0     H49750   3.821   8.868  10.127 -2.8564 -0.7336  0.6364
  369MOL0     H49751   3.897   8.804  10.268 -2.2013 -0.5659 -0.9320
  369MOL0     H49752   3.709   9.027  10.255 -0.9883 -0.2812  0.3549
  369MOL0     H49753   3.766   8.944  10.413  1.9625 -2.5756 -0.7424
  369MOL0     H49754   3.565   8.839  10.379  0.2891 -2.6052  1.1697
  369MOL0     H49755   3.673   8.728  10.315 -1.8121 -0.1344  2.8095
  369MOL0     H49756   3.485   8.925  10.185  0.2127 -0.7015  1.2390
  369MOL0     H49757   3.610   8.867  10.085 -0.5374 -1.2839 -0.8482
  369MOL0     H49758   3.543   8.626  10.125 -1.2429 -0.5138 -1.2604
  369MOL0     H49759   3.431   8.686  10.255  2.0057  0.8847  1.6165
  369MOL0     H49760   3.286   8.801  10.092  0.4943  0.7621 -2.4379
  369MOL0     H49761   3.410   8.780   9.969  2.4789 -0.4062  0.1522
  369MOL0     H49762   3.329   8.572   9.919 -2.2519 -0.6338 -0.5014
  369MOL0     H49763   3.190   8.646   9.983  0.7952  0.4148 -2.0704
  369MOL0     H49764   3.353   8.495  10.180 -0.5078  2.2665  0.2716
  369MOL0     H49765   3.182   8.533  10.169  1.8340 -0.6534  3.3485
  369MOL0     H49766   3.430   8.331   9.948 -0.5252  1.7205  0.1536
  369MOL0     H49767   3.273   8.000   9.889  4.4510 -0.0533  2.8478
  369MOL0     H49768   3.244   8.125   9.758 -1.6558  0.5107  0.6450
  369MOL0     H49769   3.474   8.027   9.726  4.3573 -0.4407  1.0712
  369MOL0     H49770   3.476   8.202   9.774 -1.0536  0.2977 -3.8172
  369MOL0     H49771   3.523   7.972   9.973  1.3117 -0.5287  2.0675
  369MOL0     H49772   3.548   8.146   9.981 -0.2622 -0.2001 -0.3785
  369MOL0     H49773   3.705   7.951   9.805  0.7584 -1.8502  3.0676
  369MOL0     H49774   3.754   8.025   9.951  0.9952 -2.1372 -1.0954
  369MOL0     H49775   3.908   7.932   9.787 -1.5739  2.3243  1.6339
  369MOL0     H49776   4.146   7.928   9.706 -3.7042 -2.3232  0.6154
  369MOL0     H49777   4.562   8.206   9.730 -1.1790 -1.8934  0.2061
  369MOL0     H49778   4.783   8.162   9.643 -0.2361 -1.3462 -0.2027
  369MOL0     H49779   4.980   8.110   9.574  0.2415 -2.0646  1.4123
  369MOL0     H49780   4.922   7.980   9.468 -0.9267  0.3507 -0.9945
  369MOL0     H49781   5.068   8.122   9.284 -0.2399 -3.5613 -1.4413
  369MOL0     H49782   5.146   8.181   9.422 -0.5321  0.8982 -1.3957
  369MOL0     H49783   5.136   7.901   9.324  0.4969  2.0636 -2.0034
  369MOL0     H49784   5.274   8.005   9.340  1.3555  1.0385  2.0758
  369MOL0     H49785   5.143   7.883   9.568 -0.1874  1.7952  1.1041
  369MOL0     H49786   5.254   8.016   9.575 -1.3695  0.8314 -0.7551
  369MOL0     H49787   5.418   7.878   9.438  2.3189 -2.1320  0.6635
  369MOL0     H49788   5.297   7.750   9.438  1.6268  0.2256 -0.2905
  369MOL0     H49789   5.438   7.871   9.684 -3.1893  1.2754 -2.1055
  369MOL0     H49790   5.310   7.755   9.681 -0.7021  1.3736  0.4939
  369MOL0     H49791   5.473   7.629   9.502  0.5524 -1.0744  0.6103
  369MOL0     H49792   5.477   7.600   9.676 -0.4466  2.1481  0.9023
  369MOL0     H49793   5.642   7.832   9.559 -0.2430  1.9214  3.2904
  369MOL0     H49794   5.658   7.756   9.713  2.3839 -0.8126  0.3538
  369MOL0     H49795   4.666   8.203   9.240 -1.1713 -2.5092  0.1946
  369MOL0     H49796   4.443   8.242   9.303 -0.0441  0.7137 -0.1716
  369MOL0     H49797   4.101   8.340   9.590 -0.7416  1.6902  2.9299
  369MOL0     H49798   3.890   8.351   9.688 -0.2501 -0.0553 -1.0303
  369MOL0     H49799   4.027   8.823  10.033  2.3985 -1.3318 -1.2304
  369MOL0     H49800   4.239   8.826   9.911 -0.0457  0.0395 -0.3481
  369MOL0     H49801   4.481   8.997   9.697 -1.2554  1.4779 -2.5419
  369MOL0     H49802   4.594   9.006   9.498  0.6947 -0.1847 -0.5085
  369MOL0     H49803   4.672   9.097   9.317 -0.1804 -0.6896 -1.9170
  369MOL0     H49804   4.733   8.943   9.328 -3.8952  0.2153 -0.1327
  369MOL0     H49805   4.873   9.175   9.203 -2.7202  0.6785  4.0545
  369MOL0     H49806   4.795   9.058   9.097 -0.0005 -1.6077  0.4320
  369MOL0     H49807   4.968   8.936   9.069 -1.2265  0.0520 -0.4658
  369MOL0     H49808   4.958   8.872   9.224  2.6563 -1.0990 -0.9095
  369MOL0     H49809   5.087   9.058   9.326 -0.4481  0.0146 -0.1151
  369MOL0     H49810   5.175   8.944   9.211 -1.7366 -2.3923 -1.0195
  369MOL0     H49811   5.229   9.299   8.991  1.3853 -0.0442  0.7679
  369MOL0     H49812   4.942   9.159   9.687  0.9387 -2.4251  1.5524
  369MOL0     H49813   4.868   9.071  10.024 -0.2184  1.5480  0.2869
  369MOL0     H49814   4.965   9.152   9.906 -1.0853 -0.8296 -1.8046
  369MOL0     H49815   4.836   9.242   9.994  1.3065  0.9585  2.2961
  370MOL0     O49816   8.993   7.955   5.541 -0.2070  0.4195 -0.1079
  370MOL0     C49817   8.924   7.946   5.441 -0.3285  0.7926  0.7652
  370MOL0     O49818   8.934   7.848   5.345  0.0990  0.0074  0.4509
  370MOL0     C49819   9.039   7.770   5.360 -0.1764  0.6334  0.3422
  370MOL0     C49820   9.155   7.806   5.290 -0.2148 -0.1130 -0.8710
  370MOL0     C49821   9.264   7.722   5.293 -0.8862  0.1280  0.0951
  370MOL0     C49822   9.262   7.603   5.370 -0.8217 -0.3193 -0.0110
  370MOL0     O49823   9.384   7.546   5.393 -0.0733 -0.2056  0.6640
  370MOL0     C49824   9.428   7.537   5.527 -0.6169  0.7039  0.7806
  370MOL0     C49825   9.585   7.531   5.530 -0.1199  0.8454 -0.9322
  370MOL0     C49826   9.660   7.539   5.665  0.3522  0.0670 -0.7752
  370MOL0     C49827   9.635   7.665   5.739  1.2801 -0.6260 -0.4903
  370MOL0     C49828   9.714   7.677   5.868  0.1296 -0.5329  0.8273
  370MOL0     C49829   9.709   7.818   5.928  0.8943 -0.2476  0.1082
  370MOL0     C49830   9.560   7.866   5.949 -0.0046 -0.0692  0.8965
  370MOL0     C49831   9.572   7.996   6.024  0.3308 -0.1139 -0.6558
  370MOL0     N49832   9.638   8.104   5.950 -0.1433 -0.8203  0.8390
  370MOL0     C49833   9.567   8.198   5.884  0.5407  0.8295  0.4143
  370MOL0     C49834   9.650   8.292   5.848 -0.2300 -0.3795  0.1729
  370MOL0     C49835   9.612   8.425   5.780  0.9855  0.0805 -0.2220
  370MOL0     C49836   9.640   8.431   5.632 -1.5797 -0.0085 -0.1223
  370MOL0     C49837   9.663   8.569   5.574 -0.0974  0.5948 -0.2186
  370MOL0     C49838   9.813   8.603   5.543  0.0602  1.2369 -0.3435
  370MOL0     O49839   9.809   8.726   5.466  0.2672 -0.5110 -0.4238
  370MOL0     C49840   9.925   8.786   5.438 -0.3394 -0.0472 -0.0560
  370MOL0     C49841   9.920   8.890   5.345 -0.2307 -0.1265 -0.4973
  370MOL0     C49842  10.036   8.966   5.314  0.1711  0.1953 -0.4674
  370MOL0     C49843  10.159   8.915   5.366 -1.2990  0.6482 -0.3017
  370MOL0     C49844  10.283   8.982   5.318  0.3364  0.5351 -0.0177
  370MOL0     O49845  10.397   8.922   5.365 -0.0555  0.7667 -0.0097
  370MOL0     C49846  10.515   8.935   5.302 -0.3689 -0.7082  0.0325
  370MOL0     C49847  10.622   8.919   5.385  0.0920  0.3705 -0.1445
  370MOL0     C49848  10.754   8.922   5.333 -1.1666  1.1878 -0.2374
  370MOL0     C49849  10.776   8.943   5.197 -0.2375 -0.6868  0.2854
  370MOL0     O49850  10.908   8.945   5.161  0.3518 -0.3373  0.1111
  370MOL0     C49851  10.954   9.066   5.093 -0.6693  1.6979 -0.1551
  370MOL0     C49852  11.037   9.144   5.196  0.6237 -0.1634 -0.0479
  370MOL0     C49853  11.180   9.099   5.233  0.3831 -0.2396  0.5127
  370MOL0     C49854  11.272   9.132   5.109  0.7416 -0.1160 -0.3742
  370MOL0     C49855  11.409   9.085   5.145  0.4789  0.3314  1.0584
  370MOL0     C49856  11.513   9.106   5.029  0.0274  0.1757  0.1763
  370MOL0     C49857  11.649   9.060   5.091 -0.1584  0.0764 -0.5595
  370MOL0     C49858  11.754   9.015   4.992  0.0112  0.5008 -0.3752
  370MOL0    Cl49859  11.709   8.846   4.920 -0.0944 -0.1250 -0.5826
  370MOL0     C49860  10.670   8.962   5.111  0.2723  0.5623 -0.4896
  370MOL0     C49861  10.534   8.949   5.157 -0.0291  0.7519 -0.3233
  370MOL0     O49862  10.285   9.089   5.255 -0.2360 -0.3733 -0.0735
  370MOL0     C49863  10.162   8.808   5.457  0.0101  0.5969 -0.1170
  370MOL0     C49864  10.047   8.750   5.488  0.3220  0.1201  0.1559
  370MOL0     N49865   9.774   8.258   5.899 -0.4593  1.1501  0.3440
  370MOL0     N49866   9.764   8.145   5.964  0.6229 -0.6969  0.1729
  370MOL0     C49867   9.151   7.580   5.449  0.4561 -1.0495 -0.0467
  370MOL0     C49868   9.040   7.659   5.439  0.2320 -0.2780  0.3427
  370MOL0     C49869   8.821   8.047   5.414  0.7805 -0.2705 -1.7549
  370MOL0     C49870   8.740   8.024   5.294 -0.3143 -0.3190  0.6416
  370MOL0     C49871   8.664   8.124   5.235 -0.5655  0.0450 -0.2781
  370MOL0     C49872   8.668   8.252   5.287 -0.1620  0.0906 -0.0804
  370MOL0     O49873   8.594   8.362   5.227 -0.3270  0.6200  0.7119
  370MOL0     C49874   8.520   8.347   5.109  0.3432 -0.6757  0.2548
  370MOL0     C49875   8.389   8.266   5.123  0.0011  0.0893  0.0400
  370MOL0     C49876   8.353   8.207   4.981 -0.5362 -0.4675 -0.8947
  370MOL0     C49877   8.202   8.167   4.980 -0.2558  0.5973  0.4546
  370MOL0     C49878   8.153   8.117   4.858 -0.3191  0.5215 -0.7830
  370MOL0     C49879   8.130   8.098   4.741 -0.6091 -0.5579  0.3211
  370MOL0     C49880   8.738   8.281   5.399 -0.4462 -0.7537  0.2760
  370MOL0     C49881   8.812   8.173   5.466  0.5124  0.1603 -0.3647
  370MOL0     C49882   8.868   8.211   5.600  0.7791  0.1582 -0.2478
  370MOL0     H49883   9.153   7.898   5.232 -0.0726  0.6027  0.2354
  370MOL0     H49884   9.362   7.745   5.253 -1.6464  1.2046 -1.2041
  370MOL0     H49885   9.393   7.622   5.587 -3.5035 -1.1906  1.9729
  370MOL0     H49886   9.393   7.442   5.568 -1.6606  0.7590  0.0466
  370MOL0     H49887   9.611   7.613   5.462 -0.2119 -1.1157 -3.4678
  370MOL0     H49888   9.611   7.440   5.476 -0.0386 -0.1313  0.7102
  370MOL0     H49889   9.766   7.523   5.646  0.1370 -0.0547 -1.9172
  370MOL0     H49890   9.629   7.448   5.719 -1.4261  0.3675 -1.2136
  370MOL0     H49891   9.656   7.736   5.659 -0.6019 -1.6530 -1.9819
  370MOL0     H49892   9.530   7.677   5.769  1.0302 -3.7107  0.1782
  370MOL0     H49893   9.673   7.601   5.935 -1.4785 -2.1398 -1.7561
  370MOL0     H49894   9.820   7.654   5.851 -0.2115 -1.6334  0.0368
  370MOL0     H49895   9.757   7.814   6.026 -1.2717 -0.4732  1.2163
  370MOL0     H49896   9.768   7.892   5.873 -1.2497  2.7042  1.5125
  370MOL0     H49897   9.504   7.786   5.998 -1.8775 -0.1187 -1.1890
  370MOL0     H49898   9.505   7.888   5.857  0.0865  3.3704  1.5473
  370MOL0     H49899   9.468   8.027   6.038 -0.0856 -1.9584  0.6415
  370MOL0     H49900   9.619   7.981   6.121  0.1738 -0.8595 -0.6906
  370MOL0     H49901   9.463   8.183   5.855  0.5740 -2.9040  1.7109
  370MOL0     H49902   9.506   8.448   5.792  0.1823 -3.0078 -0.5221
  370MOL0     H49903   9.663   8.507   5.833  0.3168  1.6021 -1.8383
  370MOL0     H49904   9.732   8.373   5.625 -1.2181  0.7175 -1.8335
  370MOL0     H49905   9.550   8.379   5.597 -2.3139 -0.2957  2.0499
  370MOL0     H49906   9.616   8.643   5.640 -0.8103 -0.1743  0.1515
  370MOL0     H49907   9.608   8.580   5.480 -0.1799  1.4407 -0.0821
  370MOL0     H49908   9.848   8.517   5.485 -0.3758  0.6055  0.3203
  370MOL0     H49909   9.875   8.609   5.633  0.3426 -2.8940 -0.0892
  370MOL0     H49910   9.823   8.907   5.300  0.2247  0.5374 -1.2454
  370MOL0     H49911  10.029   9.040   5.235 -2.8829 -0.1373 -0.6390
  370MOL0     H49912  10.606   8.914   5.493 -0.1481 -0.2471 -0.2080
  370MOL0     H49913  10.830   8.916   5.411 -1.6377 -0.0268  0.1510
  370MOL0     H49914  11.028   9.050   5.014  2.4725  3.3911  2.2245
  370MOL0     H49915  10.874   9.135   5.063 -2.0116  0.1507 -0.2228
  370MOL0     H49916  11.037   9.251   5.169 -2.2009  0.2587  1.2297
  370MOL0     H49917  10.974   9.154   5.285  0.1858 -0.6663 -0.2924
  370MOL0     H49918  11.226   9.149   5.319 -0.1220  4.2356 -1.5222
  370MOL0     H49919  11.167   8.992   5.252  2.2472 -0.3763  1.3055
  370MOL0     H49920  11.276   9.240   5.091  1.5248 -0.0192  0.3314
  370MOL0     H49921  11.240   9.088   5.014  0.6068  1.0065 -0.8680
  370MOL0     H49922  11.409   8.983   5.185 -0.4945  1.0837  3.0998
  370MOL0     H49923  11.434   9.140   5.236 -2.9254 -0.9357  2.9331
  370MOL0     H49924  11.485   9.048   4.941  0.7810  1.9774 -1.3266
  370MOL0     H49925  11.511   9.210   4.996  2.7217  0.5281  0.8787
  370MOL0     H49926  11.638   8.972   5.155 -1.4666 -1.7524 -3.0901
  370MOL0     H49927  11.689   9.145   5.147  1.0016 -0.4792 -0.5228
  370MOL0     H49928  11.751   9.086   4.909 -0.4374  0.6347 -0.2463
  370MOL0     H49929  11.852   9.019   5.042 -0.4584  2.0558  0.4622
  370MOL0     H49930  10.706   8.975   5.009  2.5439  1.5172  0.3554
  370MOL0     H49931  10.448   8.965   5.092 -0.8509  1.7670  0.9620
  370MOL0     H49932  10.251   8.785   5.515 -0.0805  1.4324  0.3678
  370MOL0     H49933  10.042   8.663   5.553 -0.1709  1.9086  2.6570
  370MOL0     H49934   9.144   7.491   5.512 -0.6641 -2.3888 -1.9653
  370MOL0     H49935   8.947   7.630   5.486  1.6006 -2.1844  2.0431
  370MOL0     H49936   8.741   7.928   5.245  0.3711 -0.5710  1.1402
  370MOL0     H49937   8.601   8.103   5.150 -3.4839  3.8429  0.6672
  370MOL0     H49938   8.579   8.302   5.029  0.3342 -2.0128  0.9536
  370MOL0     H49939   8.495   8.450   5.085  1.7926 -0.3512  0.0369
  370MOL0     H49940   8.304   8.311   5.175 -0.3728  0.6871 -1.0559
  370MOL0     H49941   8.416   8.174   5.177  3.2920  0.2435 -1.1190
  370MOL0     H49942   8.412   8.116   4.972  1.9722  1.0899 -1.0460
  370MOL0     H49943   8.376   8.281   4.904 -1.9385  0.0542 -0.8403
  370MOL0     H49944   8.181   8.093   5.057  5.0991 -0.9885  0.8345
  370MOL0     H49945   8.136   8.252   4.998 -0.7269  0.4380 -0.4715
  370MOL0     H49946   8.126   8.082   4.635 -2.9537 -0.3112  0.3304
  370MOL0     H49947   8.735   8.385   5.430  1.0319 -0.4348 -0.5470
  370MOL0     H49948   8.976   8.228   5.600  0.5377  2.0654 -1.9362
  370MOL0     H49949   8.824   8.303   5.643 -2.6050 -2.2518  2.0070
  370MOL0     H49950   8.843   8.145   5.683  0.1801  1.9671  1.0894
  371MOL0     O49951  10.757  10.703   7.931 -0.1944  0.6026 -0.1903
  371MOL0     C49952  10.780  10.799   7.999  0.0749 -0.5887  1.1491
  371MOL0     O49953  10.911  10.849   8.019  0.2584  0.7553  0.2930
  371MOL0     C49954  11.016  10.767   7.969  0.5826 -0.0638 -0.3827
  371MOL0     C49955  11.077  10.670   8.054 -0.8712  1.2500 -0.7054
  371MOL0     C49956  11.182  10.582   8.009  0.2872 -0.3653 -0.2275
  371MOL0     C49957  11.242  10.606   7.882  1.1983  0.9689  0.2560
  371MOL0     O49958  11.348  10.538   7.824 -0.2870  0.2501  0.1800
  371MOL0     C49959  11.393  10.413   7.877 -0.7055 -0.1532 -0.3800
  371MOL0     C49960  11.496  10.433   7.988  0.5051 -0.1292  0.4831
  371MOL0     C49961  11.615  10.520   7.932 -0.6079 -1.1359  0.3257
  371MOL0     C49962  11.724  10.537   8.034 -0.3289 -0.6162  1.0238
  371MOL0     C49963  11.835  10.639   8.004  0.2351 -0.2870 -0.2214
  371MOL0     C49964  11.935  10.623   8.104 -0.1304  1.0000 -0.3362
  371MOL0     C49965  12.061  10.704   8.060 -0.5312  0.2859  0.0311
  371MOL0     C49966  12.171  10.615   7.997  0.6463  0.0084 -0.3228
  371MOL0     N49967  12.300  10.686   7.989  0.0309  0.2120  0.2918
  371MOL0     C49968  12.328  10.791   7.905  0.2570 -0.2391  0.1303
  371MOL0     C49969  12.450  10.822   7.932  0.4739  0.3316 -0.5591
  371MOL0     C49970  12.517  10.926   7.856  0.0955 -0.1916  0.2250
  371MOL0     C49971  12.446  11.062   7.888  0.2991 -0.6675  0.7292
  371MOL0     C49972  12.500  11.183   7.804 -0.8843 -0.3311 -0.1238
  371MOL0     C49973  12.657  11.201   7.803  0.0660 -0.7501 -0.3596
  371MOL0     O49974  12.740  11.113   7.726  0.9209  0.7112  0.3248
  371MOL0     C49975  12.874  11.136   7.691  0.5902  0.4349 -0.1010
  371MOL0     C49976  12.943  11.242   7.737 -0.2717  0.3083 -0.7556
  371MOL0     C49977  13.067  11.279   7.682  0.8343  0.3313 -0.2523
  371MOL0     C49978  13.121  11.198   7.587  0.3260  0.0474 -0.6303
  371MOL0     C49979  13.265  11.221   7.548  0.2981 -0.0889 -0.0147
  371MOL0     O49980  13.319  11.148   7.444  0.6570  0.5678  0.2542
  371MOL0     C49981  13.444  11.169   7.404  0.3927  0.3122 -0.1154
  371MOL0     C49982  13.553  11.125   7.479  0.0688 -0.2435  0.5970
  371MOL0     C49983  13.684  11.146   7.433 -0.1091 -0.7111 -0.9418
  371MOL0     C49984  13.713  11.202   7.308  0.4396  0.9369  0.3587
  371MOL0     O49985  13.830  11.253   7.258  0.1132 -0.6620 -0.5722
  371MOL0     C49986  13.941  11.244   7.354  0.5633 -0.2449  0.1104
  371MOL0     C49987  14.068  11.307   7.292  0.4776 -0.3215 -0.0609
  371MOL0     C49988  14.199  11.268   7.362  0.7748  0.4321  0.2346
  371MOL0     C49989  14.316  11.328   7.297 -0.1366 -0.4342 -0.5295
  371MOL0     C49990  14.439  11.284   7.372  0.7582 -0.5658 -0.4463
  371MOL0     C49991  14.564  11.310   7.292  0.0335  0.1190 -0.2427
  371MOL0     C49992  14.686  11.260   7.361  0.5576 -0.1760 -0.1474
  371MOL0     C49993  14.799  11.220   7.259  0.9981 -0.3011 -0.1017
  371MOL0    Cl49994  14.873  11.370   7.189  0.3005  0.1704  0.4496
  371MOL0     C49995  13.601  11.241   7.232  0.1740  0.3269  0.2681
  371MOL0     C49996  13.469  11.211   7.271 -1.0057 -0.7513 -0.9422
  371MOL0     O49997  13.333  11.297   7.622 -0.6159  0.0461  0.5332
  371MOL0     C49998  13.053  11.087   7.542  1.0280  0.1902 -0.3415
  371MOL0     C49999  12.928  11.058   7.592 -0.5994  1.3202 -0.1203
  371MOL0     N50000  12.505  10.743   8.033  0.4834 -0.1222 -0.4688
  371MOL0     N50001  12.410  10.655   8.062 -0.0571  0.1552 -0.7303
  371MOL0     C50002  11.179  10.701   7.801  0.0606  0.5121  0.4945
  371MOL0     C50003  11.069  10.775   7.839  0.4009  0.4701  0.5098
  371MOL0     C50004  10.665  10.856   8.064  0.5208 -0.0033  0.3535
  371MOL0     C50005  10.550  10.873   7.983 -0.4832 -0.6260 -0.4666
  371MOL0     C50006  10.436  10.932   8.030 -0.4966 -0.0513  0.3886
  371MOL0     C50007  10.434  10.976   8.165  0.9902 -0.5084  0.5595
  371MOL0     O50008  10.323  11.020   8.240 -0.4008 -0.4672  0.0924
  371MOL0     C50009  10.193  11.008   8.177  0.3768 -0.2325  0.4408
  371MOL0     C50010  10.094  11.052   8.278 -0.6123 -0.0067 -0.1396
  371MOL0     C50011   9.947  11.057   8.227 -0.7067 -0.0533 -0.2338
  371MOL0     C50012   9.911  11.179   8.141 -0.5712  0.9213  0.0448
  371MOL0     C50013   9.762  11.186   8.130  0.4658 -1.3896 -0.0124
  371MOL0     C50014   9.643  11.204   8.135  0.7110  0.8595 -0.2753
  371MOL0     C50015  10.547  10.971   8.242 -0.8591  0.5365 -0.3033
  371MOL0     C50016  10.668  10.905   8.196  0.4866 -0.2487  0.7924
  371MOL0     C50017  10.784  10.918   8.282 -0.4705  0.6969 -0.0163
  371MOL0     H50018  11.041  10.670   8.157  2.2567  2.9287  0.5546
  371MOL0     H50019  11.216  10.503   8.075  1.1619 -1.6169 -2.0824
  371MOL0     H50020  11.312  10.354   7.919 -1.2855  0.0580 -1.1757
  371MOL0     H50021  11.450  10.365   7.797  0.9965  0.6305  0.3110
  371MOL0     H50022  11.533  10.338   8.028  0.3114 -0.8286 -0.9559
  371MOL0     H50023  11.441  10.488   8.065 -1.5757  0.1547 -1.1257
  371MOL0     H50024  11.576  10.621   7.914 -1.4555 -0.9008  3.1154
  371MOL0     H50025  11.665  10.478   7.844  2.7540  0.8649  1.1293
  371MOL0     H50026  11.683  10.566   8.131 -2.3635  1.3054 -0.2942
  371MOL0     H50027  11.770  10.438   8.042  2.2521  0.3063 -0.9523
  371MOL0     H50028  11.889  10.620   7.911  1.0956  0.9476 -0.0016
  371MOL0     H50029  11.786  10.737   7.998  0.2642 -0.2700 -0.1838
  371MOL0     H50030  11.896  10.657   8.200 -0.2136 -0.0555  0.0179
  371MOL0     H50031  11.962  10.519   8.122  2.4983  1.3549 -1.7361
  371MOL0     H50032  12.107  10.744   8.151 -1.4583 -0.3856  0.8200
  371MOL0     H50033  12.037  10.779   7.984 -2.6777 -2.4842 -2.2287
  371MOL0     H50034  12.187  10.523   8.055 -0.0067  0.1066  0.0311
  371MOL0     H50035  12.135  10.586   7.898  1.4840 -1.8598 -0.1294
  371MOL0     H50036  12.256  10.814   7.827 -1.4186 -2.4926  0.8862
  371MOL0     H50037  12.621  10.931   7.889 -0.0137  0.5055  0.4821
  371MOL0     H50038  12.511  10.901   7.750 -1.4413 -1.9604  0.6631
  371MOL0     H50039  12.339  11.055   7.867  0.6045 -2.8019 -0.3967
  371MOL0     H50040  12.456  11.086   7.994  3.0004  0.7070  0.2444
  371MOL0     H50041  12.452  11.275   7.837 -1.8190 -0.8250 -0.0790
  371MOL0     H50042  12.477  11.163   7.699 -0.5453 -1.7381  0.0493
  371MOL0     H50043  12.694  11.198   7.906  2.9564  1.0705 -1.2013
  371MOL0     H50044  12.676  11.304   7.770  0.5402 -0.4790  0.7168
  371MOL0     H50045  12.897  11.299   7.817 -0.3851 -1.4554  0.4947
  371MOL0     H50046  13.111  11.368   7.725  1.7578  0.0530 -0.5943
  371MOL0     H50047  13.542  11.087   7.580  0.2511  2.6820  1.8192
  371MOL0     H50048  13.763  11.122   7.504 -0.4289 -0.4734 -0.5029
  371MOL0     H50049  13.911  11.283   7.452 -3.1611 -2.1145 -0.1152
  371MOL0     H50050  13.964  11.138   7.367 -0.3731 -0.6404 -1.2628
  371MOL0     H50051  14.071  11.275   7.187 -0.2608  3.1280 -1.2771
  371MOL0     H50052  14.052  11.414   7.306 -0.6367 -0.7816  2.7669
  371MOL0     H50053  14.204  11.290   7.469 -4.1554  0.5147  0.6556
  371MOL0     H50054  14.205  11.160   7.349  0.1244  0.5565 -1.2832
  371MOL0     H50055  14.303  11.437   7.289 -2.6680 -0.5786  0.6892
  371MOL0     H50056  14.316  11.292   7.194  0.3275 -0.5536 -0.4882
  371MOL0     H50057  14.437  11.185   7.418  0.3708  0.6529  2.4255
  371MOL0     H50058  14.449  11.353   7.457 -1.7722 -2.9044  1.9476
  371MOL0     H50059  14.565  11.252   7.199  3.4638  1.0241 -0.9250
  371MOL0     H50060  14.576  11.416   7.266  2.0468  0.1091  0.5157
  371MOL0     H50061  14.661  11.175   7.425 -0.4079 -0.0423 -0.3387
  371MOL0     H50062  14.714  11.329   7.441  0.2141 -0.5999  0.3489
  371MOL0     H50063  14.876  11.155   7.303  2.3519 -0.6696 -2.7914
  371MOL0     H50064  14.758  11.158   7.179  2.0105 -4.2257  2.1435
  371MOL0     H50065  13.621  11.276   7.132 -0.8266  1.9189  0.5998
  371MOL0     H50066  13.386  11.237   7.206 -0.6133  2.6447 -0.2655
  371MOL0     H50067  13.096  11.023   7.465  0.9065 -1.5981  1.0098
  371MOL0     H50068  12.864  10.982   7.547  1.0870 -0.6273  0.6141
  371MOL0     H50069  11.218  10.723   7.702  0.2714  2.2831  0.9384
  371MOL0     H50070  11.039  10.860   7.778  1.8318 -0.1510 -1.1659
  371MOL0     H50071  10.553  10.820   7.889 -0.2760 -1.5074  0.0278
  371MOL0     H50072  10.346  10.950   7.973  0.0665  1.4228 -0.0902
  371MOL0     H50073  10.171  10.905   8.145 -1.3926  0.6111 -1.3461
  371MOL0     H50074  10.197  11.065   8.083  0.8130 -1.1882 -0.1409
  371MOL0     H50075  10.128  11.150   8.313 -1.1271  0.3305 -0.5650
  371MOL0     H50076  10.107  10.978   8.358  2.4731 -0.6726 -1.1215
  371MOL0     H50077   9.888  11.068   8.319  0.8379 -1.3698  0.9868
  371MOL0     H50078   9.912  10.961   8.187  0.9630 -0.9122  0.2552
  371MOL0     H50079   9.944  11.273   8.187 -1.4413  1.4554 -0.3898
  371MOL0     H50080   9.958  11.170   8.042  0.6039 -1.5989  0.7590
  371MOL0     H50081   9.544  11.231   8.166  0.3647  0.4276 -0.9949
  371MOL0     H50082  10.546  11.015   8.341  0.1963 -2.0166  0.9384
  371MOL0     H50083  10.827  10.818   8.274 -1.6795  0.2329 -1.3177
  371MOL0     H50084  10.850  10.994   8.240  1.7871  0.1683  2.3494
  371MOL0     H50085  10.764  10.939   8.387  1.4859  4.2444 -0.2052
  372MOL0     O50086   5.970   5.937   0.585 -1.3116  0.6719 -1.0646
  372MOL0     C50087   5.993   6.054   0.606 -0.3495 -0.7138  0.0055
  372MOL0     O50088   6.103   6.127   0.565  0.2958  0.1538  0.8707
  372MOL0     C50089   6.213   6.093   0.493  0.0651 -0.2771  0.6435
  372MOL0     C50090   6.247   5.965   0.430 -0.3302  0.6332 -0.0882
  372MOL0     C50091   6.379   5.939   0.384  0.2103 -0.5734  0.8216
  372MOL0     C50092   6.478   6.035   0.386  0.0115  0.2101  0.0322
  372MOL0     O50093   6.601   5.997   0.332  0.2115  0.5776 -0.2252
  372MOL0     C50094   6.676   6.093   0.266 -1.2246  0.0939  0.0925
  372MOL0     C50095   6.813   6.014   0.233  0.5194 -0.0446 -1.2139
  372MOL0     C50096   6.931   6.113   0.217  0.5110  0.8422 -0.3660
  372MOL0     C50097   6.901   6.231   0.118 -0.2406  0.2233  1.1879
  372MOL0     C50098   7.013   6.335   0.117 -0.5804 -0.1222 -0.1041
  372MOL0     C50099   6.981   6.436  -0.002 -0.5005  0.0326  0.2292
  372MOL0     C50100   7.074   6.558   0.008  0.3757 -0.3842  0.5138
  372MOL0     C50101   7.212   6.531  -0.046  0.1975  0.0088  0.0809
  372MOL0     N50102   7.316   6.575   0.047  0.5013  0.0508  0.4409
  372MOL0     C50103   7.414   6.674   0.036  0.0493  0.7010  0.0694
  372MOL0     C50104   7.495   6.667   0.144 -1.0670  0.5024  0.4813
  372MOL0     C50105   7.617   6.745   0.194  0.2675 -0.1139  0.0828
  372MOL0     C50106   7.754   6.681   0.168  0.7075 -0.2678  0.5228
  372MOL0     C50107   7.791   6.581   0.264  0.5540 -0.0849 -0.3137
  372MOL0     C50108   7.929   6.525   0.223  1.0436  0.1480  0.0059
  372MOL0     O50109   8.029   6.620   0.260  0.6540 -0.1171  0.4096
  372MOL0     C50110   8.156   6.569   0.243 -0.1035  0.0159 -0.2753
  372MOL0     C50111   8.187   6.434   0.205 -0.1652 -0.6402 -0.0851
  372MOL0     C50112   8.324   6.392   0.202  1.3080  0.6601  0.4838
  372MOL0     C50113   8.425   6.479   0.239 -0.1798 -0.6902  0.1027
  372MOL0     C50114   8.571   6.439   0.240  0.2578 -0.0643 -0.2842
  372MOL0     O50115   8.593   6.320   0.178 -0.4632  0.4299 -0.6464
  372MOL0     C50116   8.705   6.255   0.218  0.2652 -0.1338  0.2197
  372MOL0     C50117   8.819   6.249   0.134  0.8902  0.5107  0.2671
  372MOL0     C50118   8.936   6.196   0.187 -0.6699  0.4651  0.5599
  372MOL0     C50119   8.940   6.137   0.312  0.5134  0.1729  0.3986
  372MOL0     O50120   9.053   6.088   0.368 -0.1330 -0.0439  0.4150
  372MOL0     C50121   9.092   5.967   0.310  0.1347 -0.9033 -0.3307
  372MOL0     C50122   9.241   5.946   0.317  0.5820  0.1114  0.3212
  372MOL0     C50123   9.263   5.795   0.311 -0.1460  0.7774  0.4526
  372MOL0     C50124   9.405   5.758   0.352  0.6663 -0.0339  0.1777
  372MOL0     C50125   9.427   5.608   0.354  0.5599 -0.2342 -0.5743
  372MOL0     C50126   9.560   5.575   0.427 -0.0608 -0.0443  0.5602
  372MOL0     C50127   9.596   5.429   0.418 -1.6150 -0.6920  0.6510
  372MOL0     C50128   9.730   5.407   0.494 -0.3691 -0.3344  0.0751
  372MOL0    Cl50129   9.762   5.232   0.475 -0.3241 -0.1345 -0.0239
  372MOL0     C50130   8.824   6.131   0.391  0.1810 -0.0130  0.1705
  372MOL0     C50131   8.721   6.213   0.347 -0.1099  0.0871 -1.1037
  372MOL0     O50132   8.655   6.503   0.300 -0.4462  0.1155  0.4139
  372MOL0     C50133   8.392   6.609   0.283  0.6726  0.2197  0.8042
  372MOL0     C50134   8.258   6.650   0.284 -1.0924  0.1080  0.4967
  372MOL0     N50135   7.454   6.553   0.212  0.2384 -0.2265  0.0732
  372MOL0     N50136   7.347   6.496   0.165 -1.1042  0.0963  0.1440
  372MOL0     C50137   6.445   6.168   0.433 -0.1330  0.3761 -0.2841
  372MOL0     C50138   6.317   6.188   0.490 -0.1377 -0.4798  0.3000
  372MOL0     C50139   5.884   6.113   0.682  0.0981 -0.1213 -0.3934
  372MOL0     C50140   5.757   6.056   0.689  0.0949 -0.2696 -0.0509
  372MOL0     C50141   5.653   6.113   0.767  1.0351  0.3115  0.3637
  372MOL0     C50142   5.682   6.224   0.848  0.3445 -0.2952  0.8225
  372MOL0     O50143   5.580   6.250   0.939 -0.2333 -0.8673 -0.2530
  372MOL0     C50144   5.616   6.319   1.058  0.3279  0.1123  0.0343
  372MOL0     C50145   5.498   6.310   1.157  0.1149 -0.3282  0.8921
  372MOL0     C50146   5.358   6.355   1.113  0.7317  0.3801  0.4577
  372MOL0     C50147   5.251   6.311   1.230 -0.8056  0.1243 -0.1750
  372MOL0     C50148   5.123   6.329   1.171  1.5649  0.4717 -0.6298
  372MOL0     C50149   5.003   6.357   1.153 -0.1985  0.8256 -0.1168
  372MOL0     C50150   5.802   6.292   0.836 -0.2986 -0.8246 -0.0544
  372MOL0     C50151   5.897   6.241   0.742  0.5952 -0.7310  0.0695
  372MOL0     C50152   6.022   6.327   0.741 -0.4910  0.1821  0.1858
  372MOL0     H50153   6.166   5.892   0.433 -1.5933  2.0047  0.8112
  372MOL0     H50154   6.411   5.842   0.345  1.2598  0.2664 -0.5242
  372MOL0     H50155   6.623   6.118   0.174 -0.5977 -0.6066 -0.4651
  372MOL0     H50156   6.691   6.180   0.332  2.8626 -1.3188  1.3681
  372MOL0     H50157   6.800   5.942   0.152  0.6778  0.1267 -1.3952
  372MOL0     H50158   6.829   5.958   0.325 -0.2632  2.9591  0.9392
  372MOL0     H50159   7.021   6.055   0.193  0.0810 -1.0339  2.1044
  372MOL0     H50160   6.943   6.149   0.320 -2.1114 -0.3227  0.4216
  372MOL0     H50161   6.899   6.193   0.015 -2.7136  0.1498  1.1956
  372MOL0     H50162   6.805   6.283   0.132 -0.4173  0.0321  0.7103
  372MOL0     H50163   7.016   6.389   0.213  2.8007  1.2494 -0.8417
  372MOL0     H50164   7.105   6.279   0.099 -0.1320  0.8043 -0.7673
  372MOL0     H50165   6.979   6.381  -0.097 -2.9764  3.3736 -1.8849
  372MOL0     H50166   6.878   6.470   0.007 -0.7440 -0.4134 -0.6971
  372MOL0     H50167   7.077   6.604   0.107 -0.1134 -0.3921  0.5378
  372MOL0     H50168   7.027   6.634  -0.055 -0.5044  0.3278  1.9567
  372MOL0     H50169   7.220   6.422  -0.060  0.1246 -0.3995  2.7253
  372MOL0     H50170   7.229   6.593  -0.135 -1.9731  2.1400  1.0545
  372MOL0     H50171   7.420   6.750  -0.042  0.1587  4.7545  3.6171
  372MOL0     H50172   7.628   6.842   0.144  3.9994 -1.3635 -1.8813
  372MOL0     H50173   7.598   6.754   0.302 -0.5625 -2.9007  0.2385
  372MOL0     H50174   7.756   6.640   0.066 -0.5608 -1.2617  0.8727
  372MOL0     H50175   7.826   6.762   0.161  0.4394 -0.1031 -0.4919
  372MOL0     H50176   7.714   6.504   0.269  2.4181 -2.0097  0.0838
  372MOL0     H50177   7.801   6.623   0.365  1.9025  0.3537 -0.6038
  372MOL0     H50178   7.922   6.512   0.115 -2.6882 -4.4728  0.4837
  372MOL0     H50179   7.945   6.428   0.271 -0.8515 -0.3058 -0.1963
  372MOL0     H50180   8.113   6.358   0.181  0.0190 -0.1670 -2.4169
  372MOL0     H50181   8.347   6.289   0.177 -1.1574  0.5156 -1.6524
  372MOL0     H50182   8.810   6.300   0.039 -1.2925 -1.7719 -0.8827
  372MOL0     H50183   9.030   6.199   0.134 -1.2481  2.7198 -0.4734
  372MOL0     H50184   9.043   5.889   0.370 -0.6196  0.1547  0.4652
  372MOL0     H50185   9.056   5.950   0.208  0.2614 -0.0161 -0.5254
  372MOL0     H50186   9.289   5.982   0.225 -1.5405 -0.9480 -1.2722
  372MOL0     H50187   9.287   5.986   0.408  1.3961  0.3288 -0.1721
  372MOL0     H50188   9.189   5.748   0.376  0.2768 -0.7032 -0.1106
  372MOL0     H50189   9.244   5.773   0.206  1.7539  0.6717  0.0889
  372MOL0     H50190   9.433   5.806   0.446  2.1971 -1.3567  0.4343
  372MOL0     H50191   9.481   5.799   0.284  0.9068 -0.7384  0.0131
  372MOL0     H50192   9.435   5.579   0.249 -0.4888  1.2554 -1.0945
  372MOL0     H50193   9.349   5.552   0.407  2.1898 -1.8431  0.2659
  372MOL0     H50194   9.639   5.636   0.382 -1.8241  2.2282  0.3417
  372MOL0     H50195   9.537   5.603   0.530 -2.3438 -1.1259  0.4199
  372MOL0     H50196   9.606   5.394   0.315  1.1206 -2.4647  1.4180
  372MOL0     H50197   9.521   5.376   0.478 -1.0082 -2.1883  0.1401
  372MOL0     H50198   9.802   5.464   0.435  1.1597  1.7118  3.6589
  372MOL0     H50199   9.721   5.441   0.597 -1.5731 -0.9430  0.2018
  372MOL0     H50200   8.830   6.073   0.482 -0.0674 -2.9815 -1.5633
  372MOL0     H50201   8.635   6.223   0.411  0.1370  0.9004 -0.8776
  372MOL0     H50202   8.467   6.681   0.316  2.5407 -0.2426 -2.0782
  372MOL0     H50203   8.247   6.747   0.331 -1.1632  0.7853 -0.8756
  372MOL0     H50204   6.516   6.250   0.438 -2.4546  2.4253  1.3114
  372MOL0     H50205   6.299   6.274   0.554  0.3617 -0.4296  0.3778
  372MOL0     H50206   5.735   5.964   0.637  0.0402 -1.6675  2.2979
  372MOL0     H50207   5.562   6.056   0.779 -1.7689  3.2957 -3.9581
  372MOL0     H50208   5.634   6.424   1.035 -2.8973  0.3043 -2.3246
  372MOL0     H50209   5.692   6.267   1.117 -2.9881 -1.5311  3.2535
  372MOL0     H50210   5.515   6.337   1.262  0.3800  0.2844  0.6966
  372MOL0     H50211   5.499   6.201   1.163  2.6310 -0.3094  2.3440
  372MOL0     H50212   5.319   6.322   1.016  2.8047 -0.6035 -0.0916
  372MOL0     H50213   5.359   6.464   1.117 -1.3952  0.4742 -0.0699
  372MOL0     H50214   5.274   6.210   1.265 -0.7908  0.3507  0.4652
  372MOL0     H50215   5.260   6.379   1.315  0.5869  1.0936 -1.0344
  372MOL0     H50216   4.896   6.370   1.153 -0.3242 -0.1482  0.8766
  372MOL0     H50217   5.828   6.380   0.893 -0.9353 -1.2740  0.9503
  372MOL0     H50218   6.114   6.269   0.752 -0.0315  0.3458 -2.2812
  372MOL0     H50219   6.025   6.376   0.644 -0.9582  0.2321  0.1941
  372MOL0     H50220   6.019   6.400   0.823 -0.3843 -0.9440  1.2261
  373MOL0     O50221   3.995   5.894   1.644 -0.3250 -0.4416 -0.1502
  373MOL0     C50222   3.917   5.806   1.623  0.6225  0.1390  0.2507
  373MOL0     O50223   3.938   5.676   1.638  0.3629  0.2702  0.0021
  373MOL0     C50224   4.068   5.646   1.658  0.0041  0.3164  0.7896
  373MOL0     C50225   4.153   5.636   1.555  0.3575  0.4162 -0.3204
  373MOL0     C50226   4.285   5.579   1.584  0.9546 -0.0729  1.2820
  373MOL0     C50227   4.314   5.526   1.709  0.2179 -0.1185 -0.9605
  373MOL0     O50228   4.443   5.481   1.741  0.0631  0.0194 -0.0740
  373MOL0     C50229   4.545   5.488   1.644 -0.0819 -0.4710  0.0563
  373MOL0     C50230   4.679   5.440   1.706 -0.2471  0.1674  0.6814
  373MOL0     C50231   4.689   5.287   1.705  0.6755 -0.3983 -0.7019
  373MOL0     C50232   4.724   5.238   1.843  0.2868  0.2829 -0.3754
  373MOL0     C50233   4.603   5.160   1.918 -0.8508  0.2080 -0.6832
  373MOL0     C50234   4.646   5.115   2.055  0.5545  0.6392  0.3503
  373MOL0     C50235   4.730   4.976   2.050  0.1637  0.1217  0.4753
  373MOL0     C50236   4.801   4.927   2.177 -0.1544  0.4249  0.2408
  373MOL0     N50237   4.907   5.010   2.229 -0.1614 -0.5758 -0.0796
  373MOL0     C50238   5.029   4.971   2.259  0.3088 -0.1873  0.7257
  373MOL0     C50239   5.088   5.063   2.337  0.4666  0.3348  0.1613
  373MOL0     C50240   5.220   5.051   2.391 -1.0000 -0.2225 -0.2546
  373MOL0     C50241   5.215   4.970   2.524 -0.3912 -0.4020  0.6123
  373MOL0     C50242   5.344   4.899   2.548 -0.0947  1.1007 -0.0292
  373MOL0     C50243   5.452   4.983   2.616 -0.0239 -0.3334  0.3742
  373MOL0     O50244   5.570   4.901   2.624 -1.0267 -0.4682  0.0141
  373MOL0     C50245   5.678   4.965   2.683  0.4051 -0.1153 -0.8744
  373MOL0     C50246   5.689   5.098   2.723  0.6480 -0.1099 -0.5884
  373MOL0     C50247   5.813   5.157   2.748 -0.5637 -0.0868 -0.6460
  373MOL0     C50248   5.931   5.093   2.740 -0.0574  0.7622  0.1909
  373MOL0     C50249   6.060   5.168   2.742 -0.8301 -0.0728 -0.0580
  373MOL0     O50250   6.184   5.104   2.712 -0.2275  0.0837 -0.3531
  373MOL0     C50251   6.297   5.175   2.725 -0.2252 -0.4344 -1.8090
  373MOL0     C50252   6.337   5.233   2.844  0.3889 -0.7660 -0.1207
  373MOL0     C50253   6.458   5.309   2.858  0.5352  0.6812  0.1774
  373MOL0     C50254   6.531   5.344   2.744 -0.3281  0.5488 -1.2952
  373MOL0     O50255   6.644   5.422   2.744  0.2055 -0.0286  0.2816
  373MOL0     C50256   6.748   5.398   2.836 -0.1216  0.1536 -0.6335
  373MOL0     C50257   6.862   5.492   2.798  0.1358  0.5106 -0.4962
  373MOL0     C50258   6.995   5.428   2.845 -0.2013 -0.2253  0.0712
  373MOL0     C50259   7.114   5.514   2.819 -0.1986 -1.0240 -0.7955
  373MOL0     C50260   7.236   5.480   2.904 -0.2798  0.1294  0.7023
  373MOL0     C50261   7.321   5.604   2.924  0.0339 -0.0345 -0.3931
  373MOL0     C50262   7.433   5.564   3.026 -0.2802  0.7845 -0.4969
  373MOL0     C50263   7.490   5.673   3.110  0.2228  0.0115  1.3867
  373MOL0    Cl50264   7.553   5.791   2.981 -0.0578 -0.3217  0.0331
  373MOL0     C50265   6.486   5.302   2.625  0.0077 -0.4823  0.5192
  373MOL0     C50266   6.374   5.226   2.617  0.2873  0.3011 -0.1719
  373MOL0     O50267   6.051   5.284   2.790 -0.1863  0.0277  1.0317
  373MOL0     C50268   5.925   4.954   2.712  0.3451 -0.5948 -0.7651
  373MOL0     C50269   5.799   4.893   2.689  0.1700 -1.1810 -0.0568
  373MOL0     N50270   4.997   5.161   2.348  0.1010 -0.1243  0.3718
  373MOL0     N50271   4.897   5.139   2.269  0.4945  0.1025 -0.3013
  373MOL0     C50272   4.222   5.537   1.809  0.1036  0.0643 -1.0007
  373MOL0     C50273   4.101   5.593   1.784 -0.2937  0.0213 -0.0283
  373MOL0     C50274   3.774   5.840   1.593 -0.0176  0.6326 -0.9238
  373MOL0     C50275   3.708   5.755   1.496  0.9318  0.6597  0.0263
  373MOL0     C50276   3.584   5.790   1.441  0.6610  0.3348 -0.4903
  373MOL0     C50277   3.529   5.910   1.484 -0.4316  0.5392 -0.3268
  373MOL0     O50278   3.398   5.953   1.450 -0.0888 -0.5435  0.4283
  373MOL0     C50279   3.306   5.855   1.412 -1.3639  0.1828  0.0803
  373MOL0     C50280   3.162   5.904   1.446  0.0827 -0.2768 -0.7082
  373MOL0     C50281   3.120   6.012   1.343 -0.4841 -0.3816 -0.4826
  373MOL0     C50282   3.028   6.108   1.421 -0.3331 -0.5236  0.0070
  373MOL0     C50283   2.923   6.050   1.499  0.3648 -0.3168 -0.4344
  373MOL0     C50284   2.826   6.011   1.563  0.1378 -0.4809 -0.4774
  373MOL0     C50285   3.594   5.993   1.573 -0.0635  0.6097 -0.5498
  373MOL0     C50286   3.716   5.957   1.632 -0.0942 -0.1555 -0.1483
  373MOL0     C50287   3.778   6.051   1.726  0.1199  0.1237 -0.9413
  373MOL0     H50288   4.142   5.675   1.454 -0.9829  1.9520  0.3871
  373MOL0     H50289   4.364   5.578   1.509  1.1769  0.2037  1.5068
  373MOL0     H50290   4.521   5.431   1.554  0.1002 -0.3405 -0.0786
  373MOL0     H50291   4.551   5.590   1.604  2.0024 -0.5975 -0.0658
  373MOL0     H50292   4.688   5.489   1.804 -0.3761  0.7714  0.3939
  373MOL0     H50293   4.763   5.474   1.644  0.2518 -1.8466  0.1952
  373MOL0     H50294   4.765   5.259   1.632  0.2684 -3.1361 -0.1623
  373MOL0     H50295   4.595   5.244   1.671 -1.3204  2.5716  0.5777
  373MOL0     H50296   4.797   5.160   1.821  0.0003 -0.3609  0.8643
  373MOL0     H50297   4.772   5.314   1.906 -0.0593  0.3027 -0.1286
  373MOL0     H50298   4.510   5.219   1.916 -0.1594  1.7111  3.0872
  373MOL0     H50299   4.578   5.068   1.865 -0.7217 -1.9365  2.7075
  373MOL0     H50300   4.688   5.202   2.106 -1.0069  1.0092  1.0842
  373MOL0     H50301   4.556   5.106   2.117  0.4051 -1.7540 -0.1144
  373MOL0     H50302   4.806   4.987   1.972 -0.1330  0.1561  0.1914
  373MOL0     H50303   4.659   4.899   2.019 -0.1146  1.3578 -2.1762
  373MOL0     H50304   4.719   4.917   2.249 -0.1789  2.2773  0.4963
  373MOL0     H50305   4.840   4.825   2.169 -1.5870 -0.0308 -2.1747
  373MOL0     H50306   5.071   4.873   2.237 -3.7039 -2.0970  0.6282
  373MOL0     H50307   5.296   5.007   2.326  0.3936  0.7544  0.6695
  373MOL0     H50308   5.259   5.152   2.407 -0.5940 -0.1253 -1.7241
  373MOL0     H50309   5.190   5.029   2.613 -1.2075  1.2619 -0.6576
  373MOL0     H50310   5.134   4.898   2.511  0.9022 -2.1727  1.8934
  373MOL0     H50311   5.387   4.857   2.456 -0.3716 -1.3995  0.9253
  373MOL0     H50312   5.323   4.814   2.612  3.2193 -0.6689 -1.0364
  373MOL0     H50313   5.419   5.015   2.715 -0.1777 -1.0213  0.5524
  373MOL0     H50314   5.469   5.077   2.563  0.5020  0.2892  1.6128
  373MOL0     H50315   5.609   5.170   2.711 -1.5939 -2.3272  0.1120
  373MOL0     H50316   5.810   5.264   2.771  0.8633  0.0508 -1.0167
  373MOL0     H50317   6.290   5.213   2.940  4.3408 -0.6581  2.0608
  373MOL0     H50318   6.483   5.346   2.958  1.3489  1.6499 -0.3627
  373MOL0     H50319   6.718   5.418   2.939  2.7263  0.0917  0.2962
  373MOL0     H50320   6.782   5.295   2.826  0.2096  0.0566  1.1939
  373MOL0     H50321   6.871   5.516   2.691  0.4023  0.0771 -0.5746
  373MOL0     H50322   6.843   5.586   2.851 -2.8902  0.6301 -1.6042
  373MOL0     H50323   6.992   5.413   2.953 -0.9891  0.8318  0.2098
  373MOL0     H50324   7.019   5.330   2.801  2.6303 -0.3780  1.7106
  373MOL0     H50325   7.089   5.615   2.854  2.0733 -0.1206 -1.5706
  373MOL0     H50326   7.129   5.525   2.711 -0.5713 -1.3541 -0.8828
  373MOL0     H50327   7.297   5.405   2.853  0.4285  0.0625  1.6075
  373MOL0     H50328   7.191   5.440   2.996  0.2064 -0.0897  0.8488
  373MOL0     H50329   7.368   5.630   2.828  1.5387  0.3435  0.4245
  373MOL0     H50330   7.275   5.695   2.963  1.5105 -0.6510  3.1223
  373MOL0     H50331   7.518   5.521   2.973 -0.0442 -2.9964  2.5368
  373MOL0     H50332   7.399   5.486   3.094 -1.0415  0.5832 -1.1020
  373MOL0     H50333   7.418   5.711   3.183  1.0069  0.3743  1.9873
  373MOL0     H50334   7.578   5.637   3.164 -1.0562 -1.8991  2.2887
  373MOL0     H50335   6.539   5.329   2.534  0.4713  1.9404  1.4305
  373MOL0     H50336   6.358   5.191   2.515 -0.6230 -2.0645  0.7347
  373MOL0     H50337   6.014   4.891   2.718  0.4845 -0.3261  0.1154
  373MOL0     H50338   5.794   4.786   2.669  0.4449 -1.7778  2.6501
  373MOL0     H50339   4.237   5.509   1.913 -1.0435  2.8978  0.0252
  373MOL0     H50340   4.032   5.620   1.863  0.0398 -1.6124  0.8694
  373MOL0     H50341   3.753   5.669   1.449  1.8159  1.2727 -0.2800
  373MOL0     H50342   3.539   5.725   1.367  1.0979  1.1568 -1.5048
  373MOL0     H50343   3.314   5.773   1.483  0.6294 -1.1948 -1.5944
  373MOL0     H50344   3.319   5.820   1.309 -3.5750  0.1864 -0.2373
  373MOL0     H50345   3.152   5.936   1.550  0.2607  1.9901 -1.3296
  373MOL0     H50346   3.090   5.823   1.435 -0.3847 -1.3071  5.9860
  373MOL0     H50347   3.064   5.972   1.257  0.2512  0.6635 -1.4764
  373MOL0     H50348   3.208   6.069   1.310  0.1805  0.5486  2.5993
  373MOL0     H50349   3.090   6.180   1.476 -0.6954  0.2956 -0.6379
  373MOL0     H50350   2.980   6.183   1.358 -0.1360  0.9345  1.5161
  373MOL0     H50351   2.740   5.998   1.625  0.2025  0.7404 -0.0900
  373MOL0     H50352   3.541   6.083   1.600 -0.5051  0.2904 -0.3418
  373MOL0     H50353   3.857   6.101   1.669  1.3819 -0.8407 -0.0732
  373MOL0     H50354   3.705   6.130   1.748 -1.2192 -1.0567 -1.0303
  373MOL0     H50355   3.827   6.007   1.813  1.1050  1.2021 -0.9192
  374MOL0     O50356   9.032   3.643   7.682  0.4276 -0.0768 -0.0530
  374MOL0     C50357   8.930   3.633   7.613  0.2975 -0.9678 -0.1296
  374MOL0     O50358   8.920   3.582   7.484  0.1086 -0.6001  0.2138
  374MOL0     C50359   9.038   3.539   7.431  0.7370 -0.1352  1.0233
  374MOL0     C50360   9.138   3.627   7.410 -0.6023 -0.5349  0.3088
  374MOL0     C50361   9.251   3.589   7.338  0.7013 -0.5785  1.5906
  374MOL0     C50362   9.258   3.458   7.283  0.1937  0.4686  0.4378
  374MOL0     O50363   9.362   3.410   7.213  0.2688  0.6184 -0.5383
  374MOL0     C50364   9.462   3.511   7.174 -0.5126  0.1069  0.0431
  374MOL0     C50365   9.564   3.429   7.097 -0.7628  0.6087  0.1251
  374MOL0     C50366   9.709   3.495   7.098  0.9725  0.1993 -0.0470
  374MOL0     C50367   9.810   3.409   7.008  1.4434 -0.6430 -0.7880
  374MOL0     C50368   9.798   3.408   6.855  0.0517  0.3751  0.9996
  374MOL0     C50369   9.929   3.375   6.783  0.4466 -1.0262  0.2802
  374MOL0     C50370   9.973   3.227   6.811 -0.4337 -0.1405 -0.0915
  374MOL0     C50371  10.114   3.197   6.766 -0.5345 -0.8148 -0.3804
  374MOL0     N50372  10.172   3.079   6.830  0.0018  0.1704 -0.1382
  374MOL0     C50373  10.113   2.957   6.806  0.4389 -0.3740  0.3515
  374MOL0     C50374  10.158   2.874   6.908  0.9317 -0.2377  0.5374
  374MOL0     C50375  10.123   2.727   6.915 -0.6122 -0.4604 -0.0299
  374MOL0     C50376  10.206   2.647   6.818 -0.3912  0.0650  0.1255
  374MOL0     C50377  10.226   2.500   6.856  0.0326 -0.5602 -0.0339
  374MOL0     C50378  10.259   2.410   6.737 -1.7199 -0.9569 -0.1156
  374MOL0     O50379  10.376   2.471   6.671  0.0110 -0.0274  0.1854
  374MOL0     C50380  10.501   2.465   6.718 -0.9890 -0.0380  0.2017
  374MOL0     C50381  10.591   2.564   6.671  1.0688  0.2510 -0.1528
  374MOL0     C50382  10.718   2.556   6.706 -0.4737 -0.1567 -0.7819
  374MOL0     C50383  10.775   2.453   6.789  0.0892 -0.5238 -0.3424
  374MOL0     C50384  10.921   2.455   6.823  0.0180 -0.0139 -0.1476
  374MOL0     O50385  10.965   2.356   6.905 -0.5802  0.3037 -0.1366
  374MOL0     C50386  11.076   2.360   6.985  0.2004 -0.0421 -0.1852
  374MOL0     C50387  11.143   2.480   7.028 -0.7112 -0.4131 -0.3077
  374MOL0     C50388  11.257   2.473   7.115 -1.0118  0.6650 -0.0846
  374MOL0     C50389  11.294   2.353   7.179 -0.2663 -0.0461  0.2136
  374MOL0     O50390  11.388   2.322   7.280  0.0992 -0.1184  0.2340
  374MOL0     C50391  11.482   2.433   7.320  0.3382  1.1087  0.1569
  374MOL0     C50392  11.631   2.389   7.288  0.1224 -0.3037 -0.0570
  374MOL0     C50393  11.644   2.243   7.321 -0.2300 -0.2248 -0.2036
  374MOL0     C50394  11.782   2.186   7.312 -0.0905 -0.3987  0.3857
  374MOL0     C50395  11.860   2.230   7.433 -0.7272  0.2583  1.2979
  374MOL0     C50396  11.985   2.150   7.434 -0.3955 -0.3094 -0.4004
  374MOL0     C50397  11.960   2.012   7.490 -0.5507  0.4476 -0.4366
  374MOL0     C50398  12.088   1.927   7.511 -0.0849  0.1101  0.6303
  374MOL0    Cl50399  12.048   1.790   7.628  0.1657 -0.5403 -0.3429
  374MOL0     C50400  11.218   2.238   7.141  0.5996 -0.3035 -0.1645
  374MOL0     C50401  11.120   2.242   7.045  0.8225  0.4919 -0.6008
  374MOL0     O50402  10.985   2.546   6.771 -0.1867  0.5065  0.1911
  374MOL0     C50403  10.679   2.369   6.855 -0.6461 -1.0739  0.2676
  374MOL0     C50404  10.548   2.367   6.819  1.0648 -1.0117 -0.2326
  374MOL0     N50405  10.233   2.947   6.993 -0.2407 -1.1973 -0.2228
  374MOL0     N50406  10.241   3.074   6.948  0.3718  0.8728  0.4899
  374MOL0     C50407   9.151   3.374   7.295 -0.1257 -0.1039 -0.0561
  374MOL0     C50408   9.049   3.413   7.378  1.0090 -0.0353 -0.0397
  374MOL0     C50409   8.802   3.698   7.672 -0.1591 -0.5595 -0.5788
  374MOL0     C50410   8.682   3.661   7.607  0.2525  0.0704 -0.3805
  374MOL0     C50411   8.555   3.698   7.654  0.6430  0.0652 -0.5797
  374MOL0     C50412   8.556   3.795   7.753  0.4688  0.9359  0.3182
  374MOL0     O50413   8.438   3.860   7.794 -0.7037  0.0388 -0.1473
  374MOL0     C50414   8.313   3.867   7.723 -0.4129  1.4715  0.5697
  374MOL0     C50415   8.216   3.921   7.831 -0.2028  0.3948  0.6444
  374MOL0     C50416   8.262   4.055   7.884  0.6024  0.3629  0.0753
  374MOL0     C50417   8.170   4.121   7.988  0.5496  0.3784 -0.1661
  374MOL0     C50418   8.033   4.137   7.936 -0.4284  0.4306 -0.4339
  374MOL0     C50419   7.921   4.149   7.903  0.3590  0.2711  0.2415
  374MOL0     C50420   8.671   3.849   7.801 -0.3112 -0.2336 -0.6506
  374MOL0     C50421   8.794   3.801   7.773  0.6798  0.4150  0.2156
  374MOL0     C50422   8.918   3.856   7.839  1.0923  0.1226  0.1719
  374MOL0     H50423   9.120   3.727   7.450 -1.1671 -0.2103 -0.7069
  374MOL0     H50424   9.323   3.670   7.338  0.3823 -0.2323 -0.7030
  374MOL0     H50425   9.423   3.587   7.104 -1.6323  0.1525  0.6844
  374MOL0     H50426   9.509   3.562   7.259  2.1887 -4.2660  1.4827
  374MOL0     H50427   9.532   3.404   6.996 -1.7448  0.0019  0.5687
  374MOL0     H50428   9.570   3.335   7.152 -2.7000  0.3343 -0.0618
  374MOL0     H50429   9.744   3.520   7.198  0.2910  2.7244 -0.3616
  374MOL0     H50430   9.698   3.595   7.054  1.0932  0.4525  0.4869
  374MOL0     H50431   9.912   3.440   7.033  1.1417  1.5245 -2.0156
  374MOL0     H50432   9.806   3.309   7.052 -1.1530  0.2437  1.2458
  374MOL0     H50433   9.724   3.343   6.808 -0.9432  2.7229 -0.9579
  374MOL0     H50434   9.771   3.508   6.818 -1.3597 -0.2036  0.3824
  374MOL0     H50435   9.919   3.388   6.675  3.6364  1.2342  0.0850
  374MOL0     H50436  10.007   3.450   6.802  1.4433 -1.8207 -0.5287
  374MOL0     H50437   9.898   3.159   6.770 -0.2325 -2.1882  2.7172
  374MOL0     H50438   9.977   3.209   6.918 -2.3441 -1.5079 -0.1979
  374MOL0     H50439  10.119   3.173   6.659 -1.5230 -0.0246 -0.6145
  374MOL0     H50440  10.175   3.286   6.783  1.1072 -2.0423  0.4176
  374MOL0     H50441  10.046   2.929   6.726 -2.0066  3.2428  0.8831
  374MOL0     H50442  10.153   2.693   7.015  1.5881  0.2514 -0.3896
  374MOL0     H50443  10.018   2.710   6.889 -0.6813 -0.2118  0.0830
  374MOL0     H50444  10.162   2.649   6.718  0.6159 -0.1903 -0.3321
  374MOL0     H50445  10.304   2.692   6.802 -0.2108 -0.3641  0.0099
  374MOL0     H50446  10.132   2.466   6.900 -0.2823 -0.2066 -0.4409
  374MOL0     H50447  10.306   2.469   6.924  0.2734  1.8301  0.8669
  374MOL0     H50448  10.174   2.429   6.670 -1.8578 -0.3875  0.2149
  374MOL0     H50449  10.265   2.304   6.764  3.0780 -0.5039  1.6253
  374MOL0     H50450  10.547   2.641   6.608  1.0360  0.4190  0.0760
  374MOL0     H50451  10.783   2.641   6.688 -0.4440 -0.4061 -1.9463
  374MOL0     H50452  11.121   2.577   6.986 -0.1295  0.9194  2.2883
  374MOL0     H50453  11.304   2.568   7.140 -0.1250  0.5367 -1.2151
  374MOL0     H50454  11.457   2.527   7.269 -0.8863  0.4436 -0.5136
  374MOL0     H50455  11.462   2.440   7.427 -1.0519 -0.1569  0.0233
  374MOL0     H50456  11.651   2.405   7.182  0.1200 -1.0724 -0.1802
  374MOL0     H50457  11.699   2.448   7.349 -0.2233 -0.8060  0.8465
  374MOL0     H50458  11.601   2.233   7.422 -0.2487 -3.2978 -0.4368
  374MOL0     H50459  11.577   2.178   7.264 -2.2722  2.7330 -1.4738
  374MOL0     H50460  11.836   2.229   7.227  0.5091 -0.5643  0.6782
  374MOL0     H50461  11.789   2.078   7.296  2.0181  0.0799 -2.9379
  374MOL0     H50462  11.796   2.214   7.520  0.8505  1.0636  2.6770
  374MOL0     H50463  11.894   2.333   7.424  1.0011  0.0677  4.2550
  374MOL0     H50464  12.033   2.147   7.336 -1.2077 -0.9969 -0.7884
  374MOL0     H50465  12.051   2.196   7.508  1.3411  0.0888 -2.1163
  374MOL0     H50466  11.894   1.951   7.428 -1.8007  0.6659  0.6327
  374MOL0     H50467  11.915   2.031   7.587  0.3881 -2.1689  0.6156
  374MOL0     H50468  12.123   1.877   7.420  2.5372 -0.0799  1.6508
  374MOL0     H50469  12.171   1.986   7.551  0.5944 -0.0791 -0.4709
  374MOL0     H50470  11.242   2.153   7.204  1.2638  0.0029  0.0109
  374MOL0     H50471  11.065   2.153   7.017  1.4247 -0.4106  0.9929
  374MOL0     H50472  10.713   2.304   6.935  0.6854  0.8926  1.3810
  374MOL0     H50473  10.473   2.302   6.863  1.3799 -0.4339  1.2068
  374MOL0     H50474   9.147   3.271   7.263 -0.2244 -0.1923  0.2418
  374MOL0     H50475   8.958   3.354   7.385 -0.6381  2.5728  2.2270
  374MOL0     H50476   8.697   3.586   7.530 -1.4001  0.1868 -0.8560
  374MOL0     H50477   8.466   3.656   7.608  0.9547 -2.1497  0.7245
  374MOL0     H50478   8.271   3.774   7.683  1.2473  1.5621 -1.5893
  374MOL0     H50479   8.312   3.942   7.644  0.9345 -0.0836 -0.9998
  374MOL0     H50480   8.215   3.851   7.916  1.5773  1.6881  1.8012
  374MOL0     H50481   8.114   3.912   7.794  0.2120 -1.5155 -0.1590
  374MOL0     H50482   8.279   4.139   7.815  1.6950  1.8963  2.1102
  374MOL0     H50483   8.358   4.031   7.931  1.3004  0.5408 -1.1772
  374MOL0     H50484   8.161   4.056   8.076 -0.3372  1.3595  0.5005
  374MOL0     H50485   8.220   4.215   8.011  0.9514  0.7550 -2.4007
  374MOL0     H50486   7.826   4.169   7.858 -0.4230  1.5878  2.2702
  374MOL0     H50487   8.670   3.930   7.873  3.2757 -0.6872  0.0791
  374MOL0     H50488   8.975   3.770   7.875 -2.0927 -2.0843  0.4136
  374MOL0     H50489   8.973   3.897   7.754  1.4892  0.3167  0.5167
  374MOL0     H50490   8.904   3.925   7.923  0.7321  2.7186 -1.8961
  375MOL0     O50491   4.821   5.736   9.713  0.3903 -0.4510 -0.1729
  375MOL0     C50492   4.747   5.771   9.804  0.1341  0.3085 -0.3221
  375MOL0     O50493   4.790   5.791   9.936 -0.7572  0.6246  0.3209
  375MOL0     C50494   4.924   5.770   9.964 -0.0331  0.2425  0.1822
  375MOL0     C50495   4.994   5.872  10.039 -0.5951 -0.9587 -0.4424
  375MOL0     C50496   5.130   5.865  10.066 -0.0469  0.6157 -0.3055
  375MOL0     C50497   5.190   5.745  10.038 -0.2534 -0.0601  0.0367
  375MOL0     O50498   5.314   5.711  10.061 -0.6515  0.3874  0.6366
  375MOL0     C50499   5.349   5.711  10.204  0.4662 -0.1292  0.4981
  375MOL0     C50500   5.366   5.566  10.258  0.8370  0.2025 -0.5416
  375MOL0     C50501   5.473   5.496  10.167 -0.0033 -0.1108 -0.7146
  375MOL0     C50502   5.609   5.553  10.207  0.5294  0.2312  0.9184
  375MOL0     C50503   5.711   5.520  10.090 -0.9050  0.1289 -0.0205
  375MOL0     C50504   5.855   5.578  10.125  0.2731  0.1992 -0.1109
  375MOL0     C50505   5.958   5.498  10.047 -0.1150 -0.1349  0.4745
  375MOL0     C50506   6.095   5.559  10.075  0.3687  0.3550  0.0933
  375MOL0     N50507   6.200   5.481  10.004 -0.4162  0.3281 -0.1846
  375MOL0     C50508   6.246   5.360  10.042 -0.7131  0.5205 -0.0148
  375MOL0     C50509   6.333   5.325   9.941 -0.0423  0.9932 -0.1706
  375MOL0     C50510   6.398   5.198   9.918  0.1537 -0.6413 -0.3811
  375MOL0     C50511   6.527   5.200   9.827  0.1128 -0.0529 -0.5617
  375MOL0     C50512   6.602   5.069   9.840 -0.4564  0.1587 -0.4299
  375MOL0     C50513   6.727   5.062   9.758 -0.0846 -0.3319  0.3077
  375MOL0     O50514   6.751   4.927   9.727  0.1549 -0.9919  1.0178
  375MOL0     C50515   6.883   4.891   9.693  0.6984  0.2745  0.0357
  375MOL0     C50516   6.985   4.987   9.684 -0.4158  0.1095  0.0623
  375MOL0     C50517   7.110   4.950   9.636  0.3481 -1.3162  0.2535
  375MOL0     C50518   7.137   4.812   9.612  0.4317  0.3534 -0.5922
  375MOL0     C50519   7.270   4.764   9.591 -0.8499  0.7981  0.2208
  375MOL0     O50520   7.373   4.856   9.589  0.4137  0.0933 -0.1742
  375MOL0     C50521   7.499   4.821   9.602  0.5812  0.8119 -0.6505
  375MOL0     C50522   7.553   4.731   9.703 -0.5131  0.3960 -0.7747
  375MOL0     C50523   7.693   4.700   9.698 -0.0621  0.3688  0.2048
  375MOL0     C50524   7.780   4.753   9.606  1.1093  0.2008  0.3595
  375MOL0     O50525   7.912   4.730   9.590 -0.3613  0.5331  0.8333
  375MOL0     C50526   7.987   4.696   9.706  0.1339 -0.2467  0.0608
  375MOL0     C50527   8.136   4.740   9.688 -0.3944  0.2246 -0.2096
  375MOL0     C50528   8.227   4.674   9.789  0.0054  0.1566  1.0308
  375MOL0     C50529   8.347   4.759   9.795  0.2104  0.4106 -0.8109
  375MOL0     C50530   8.457   4.708   9.884  0.4246  0.8501 -0.1034
  375MOL0     C50531   8.569   4.826   9.905 -0.7642 -0.3366 -0.8145
  375MOL0     C50532   8.533   4.934  10.016 -0.3985 -0.0389 -0.8705
  375MOL0     C50533   8.644   4.932  10.128  0.7560 -0.7060  0.0689
  375MOL0    Cl50534   8.789   4.994  10.049 -0.0719  0.2897 -0.0547
  375MOL0     C50535   7.726   4.837   9.503  0.4454 -0.9341  0.0576
  375MOL0     C50536   7.590   4.880   9.511 -0.2763  0.4694 -0.0600
  375MOL0     O50537   7.287   4.645   9.590  0.0446  0.8679  0.6189
  375MOL0     C50538   7.029   4.723   9.628 -0.6090  0.4110  0.1681
  375MOL0     C50539   6.905   4.754   9.671  0.5843  0.1000 -0.5659
  375MOL0     N50540   6.334   5.428   9.852 -0.8081 -0.8671  0.8243
  375MOL0     N50541   6.253   5.518   9.888  0.1602 -0.2902  0.4149
  375MOL0     C50542   5.125   5.636   9.976 -0.1726  0.7428  0.3386
  375MOL0     C50543   4.994   5.654   9.946  0.8181 -1.0549  0.4279
  375MOL0     C50544   4.608   5.803   9.770  0.9472 -0.1580 -0.4631
  375MOL0     C50545   4.552   5.731   9.662 -0.8420  0.6401 -0.1252
  375MOL0     C50546   4.424   5.753   9.622  0.0188  0.2304  0.7392
  375MOL0     C50547   4.350   5.856   9.688  0.7722 -0.0371  0.5045
  375MOL0     O50548   4.216   5.880   9.678 -0.4404  0.1768 -0.2875
  375MOL0     C50549   4.139   5.794   9.598 -0.4453  0.1896  0.3685
  375MOL0     C50550   4.002   5.854   9.582  0.2973  0.2027  0.0104
  375MOL0     C50551   4.023   5.983   9.502  0.4111 -0.2777  0.1730
  375MOL0     C50552   3.906   6.011   9.405  1.0865  0.1079 -0.0658
  375MOL0     C50553   3.779   6.004   9.475  0.6961 -0.6310 -0.3849
  375MOL0     C50554   3.675   5.995   9.535  0.2097  0.1938 -0.3812
  375MOL0     C50555   4.397   5.917   9.798 -0.3325  0.2261 -0.0632
  375MOL0     C50556   4.521   5.888   9.842 -0.6373 -0.1571  0.2512
  375MOL0     C50557   4.567   5.988   9.946 -0.5035  0.1874  0.3034
  375MOL0     H50558   4.946   5.965  10.067 -0.7915 -1.0792 -0.3784
  375MOL0     H50559   5.189   5.940  10.118 -1.0780 -0.1885  2.1310
  375MOL0     H50560   5.439   5.771  10.215  0.9497  0.0611 -3.1781
  375MOL0     H50561   5.267   5.753  10.263  1.0053  2.6953 -0.6298
  375MOL0     H50562   5.279   5.502  10.243  2.3112 -1.9031 -0.5814
  375MOL0     H50563   5.395   5.577  10.363 -1.0198  0.5503 -0.0278
  375MOL0     H50564   5.448   5.515  10.062  1.0910  0.6945 -0.8449
  375MOL0     H50565   5.462   5.390  10.191 -1.9868  0.6424  2.4447
  375MOL0     H50566   5.622   5.661  10.220 -1.2167  0.5015  0.6778
  375MOL0     H50567   5.630   5.507  10.304  0.6242 -1.0083  0.3253
  375MOL0     H50568   5.715   5.411  10.074  0.1291  0.5051 -2.9557
  375MOL0     H50569   5.674   5.562   9.996 -0.6597 -0.5784 -0.4452
  375MOL0     H50570   5.859   5.686  10.110 -2.2633  0.6419  1.7972
  375MOL0     H50571   5.875   5.557  10.230  0.6730 -0.2171 -0.2647
  375MOL0     H50572   5.924   5.521   9.946  1.3718 -0.2563 -0.0738
  375MOL0     H50573   5.956   5.390  10.063  0.4717 -0.2439 -0.1532
  375MOL0     H50574   6.095   5.661  10.037  0.3031  0.7562  1.1383
  375MOL0     H50575   6.120   5.576  10.180 -1.6771  1.0557  0.5159
  375MOL0     H50576   6.215   5.296  10.124 -3.4653  2.1753  0.3301
  375MOL0     H50577   6.418   5.164  10.021 -1.4023  4.6738  2.0090
  375MOL0     H50578   6.322   5.133   9.874 -2.3803  1.2589  0.9917
  375MOL0     H50579   6.497   5.221   9.724  1.2797  0.6836 -0.7657
  375MOL0     H50580   6.600   5.277   9.852  1.7087 -1.0843 -1.8527
  375MOL0     H50581   6.533   4.987   9.816 -1.9749  2.1269 -3.3065
  375MOL0     H50582   6.627   5.042   9.943 -0.4231 -0.6110 -0.6315
  375MOL0     H50583   6.811   5.099   9.817 -0.6195 -0.2652  1.0448
  375MOL0     H50584   6.715   5.125   9.669 -2.1077 -0.1843  0.6182
  375MOL0     H50585   6.985   5.092   9.711 -2.1350 -0.3380  2.0661
  375MOL0     H50586   7.192   5.021   9.633  0.5008 -1.4942  0.2148
  375MOL0     H50587   7.496   4.664   9.767  1.0650  0.9505  1.3428
  375MOL0     H50588   7.739   4.642   9.777  1.6384 -0.5876 -1.4041
  375MOL0     H50589   7.939   4.731   9.798 -2.4588 -2.1495 -0.4417
  375MOL0     H50590   7.985   4.586   9.714 -1.8338 -0.2858 -0.6765
  375MOL0     H50591   8.157   4.721   9.582 -1.3454  0.1728 -0.3892
  375MOL0     H50592   8.141   4.848   9.706 -2.8550  0.1562  1.3655
  375MOL0     H50593   8.182   4.650   9.886 -0.9426 -1.5748  0.2133
  375MOL0     H50594   8.253   4.577   9.747 -2.9740  0.7436 -2.7888
  375MOL0     H50595   8.329   4.860   9.833  0.7143  0.3178 -0.3173
  375MOL0     H50596   8.383   4.770   9.692  1.6486  0.1684 -0.3544
  375MOL0     H50597   8.506   4.624   9.835  4.5952  0.7231  3.6623
  375MOL0     H50598   8.421   4.677   9.982 -0.7147 -1.0783 -1.0710
  375MOL0     H50599   8.667   4.778   9.917 -0.8768 -0.6789 -1.2517
  375MOL0     H50600   8.574   4.875   9.808 -2.2648  0.6320 -0.4367
  375MOL0     H50601   8.440   4.899  10.062  0.1624 -0.0269  0.3364
  375MOL0     H50602   8.521   5.033   9.971 -1.3259  1.5646  2.5608
  375MOL0     H50603   8.622   5.002  10.210 -1.6470 -1.0538 -0.2174
  375MOL0     H50604   8.666   4.833  10.169  0.7090 -0.5058  0.5981
  375MOL0     H50605   7.790   4.888   9.432 -0.7403  1.7312  0.7930
  375MOL0     H50606   7.543   4.948   9.440 -2.0896 -0.0169  0.6138
  375MOL0     H50607   7.046   4.618   9.604  0.3380 -0.0043  2.4374
  375MOL0     H50608   6.827   4.679   9.675  1.8338 -1.4120 -2.5120
  375MOL0     H50609   5.174   5.544   9.945 -0.0770  0.8173  0.2674
  375MOL0     H50610   4.950   5.570   9.893  1.3753 -2.3322  1.8998
  375MOL0     H50611   4.594   5.646   9.608 -0.7363 -0.4995  1.6647
  375MOL0     H50612   4.380   5.693   9.542  2.4066 -2.6444  1.4128
  375MOL0     H50613   4.116   5.693   9.634 -3.4115  1.1077  1.2698
  375MOL0     H50614   4.198   5.784   9.506  1.5603  3.0870  1.2070
  375MOL0     H50615   3.958   5.869   9.681  2.9468  0.9316  1.1436
  375MOL0     H50616   3.940   5.782   9.526  2.3621 -2.3469  0.8248
  375MOL0     H50617   4.116   5.979   9.444  0.4607  0.7034  0.1667
  375MOL0     H50618   4.030   6.070   9.568  0.8320  1.1959 -1.7347
  375MOL0     H50619   3.915   6.111   9.361  0.4602 -0.5022 -1.6827
  375MOL0     H50620   3.903   5.935   9.326 -0.0905 -1.7252  1.6357
  375MOL0     H50621   3.577   5.991   9.577 -0.4748 -1.6331 -2.0375
  375MOL0     H50622   4.338   5.991   9.851 -1.0088 -0.4001  0.0739
  375MOL0     H50623   4.654   6.043   9.909  0.9243 -2.6874 -0.9564
  375MOL0     H50624   4.489   6.063   9.963 -1.0702 -0.7032  1.8163
  375MOL0     H50625   4.603   5.946  10.040 -0.1675  1.3807  0.7234
  376MOL0     O50626  10.092   1.396  10.780 -0.0887  0.4979  0.1101
  376MOL0     C50627  10.057   1.419  10.894  0.9869 -1.1254 -0.5823
  376MOL0     O50628   9.926   1.430  10.930 -0.8239 -0.4391 -0.4550
  376MOL0     C50629   9.838   1.376  10.842  0.1923  0.1186  0.3004
  376MOL0     C50630   9.845   1.243  10.794 -0.1402  0.3786 -0.3129
  376MOL0     C50631   9.745   1.199  10.717  1.6935  0.2325  0.9281
  376MOL0     C50632   9.623   1.271  10.684  0.4154 -0.3880  0.0956
  376MOL0     O50633   9.515   1.220  10.607  0.1153  0.1877 -0.2458
  376MOL0     C50634   9.555   1.133  10.500  0.7652  0.7415  0.1058
  376MOL0     C50635   9.470   1.154  10.378 -0.8790  0.3398  0.2571
  376MOL0     C50636   9.373   1.036  10.368 -0.3496 -0.3244  0.1563
  376MOL0     C50637   9.284   1.064  10.240 -0.3321  0.6719 -0.2757
  376MOL0     C50638   9.195   0.941  10.227 -0.0355 -0.0410 -0.3434
  376MOL0     C50639   9.061   0.963  10.148  0.1083  0.5733  0.7746
  376MOL0     C50640   8.975   0.838  10.149 -0.7053  0.4526 -0.4429
  376MOL0     C50641   8.838   0.867  10.090  0.4537 -0.4561  0.3179
  376MOL0     N50642   8.838   0.896   9.949 -0.3353 -0.2602  0.2429
  376MOL0     C50643   8.897   0.820   9.844  0.9386 -0.3813 -0.1404
  376MOL0     C50644   8.917   0.910   9.742 -0.0699 -0.7062 -0.3581
  376MOL0     C50645   8.985   0.878   9.610  0.0760 -0.4028  0.1019
  376MOL0     C50646   9.138   0.931   9.608  0.1037  0.4588  0.2470
  376MOL0     C50647   9.221   0.860   9.510 -0.2078  0.1146  0.4147
  376MOL0     C50648   9.366   0.876   9.534  0.0729 -0.3304  0.2243
  376MOL0     O50649   9.439   0.778   9.459 -0.7548 -0.7482  0.0081
  376MOL0     C50650   9.581   0.790   9.467  0.2677 -0.2856 -0.5083
  376MOL0     C50651   9.656   0.722   9.370 -0.3408 -0.7737 -0.5539
  376MOL0     C50652   9.795   0.731   9.382  0.3315  0.2772  0.2297
  376MOL0     C50653   9.857   0.809   9.474  0.0308  0.5972  0.7698
  376MOL0     C50654  10.004   0.814   9.482 -0.7116  0.9233  0.2109
  376MOL0     O50655  10.063   0.934   9.530  0.5569 -0.6011 -0.6850
  376MOL0     C50656  10.197   0.937   9.544 -0.1677 -0.3657  0.2003
  376MOL0     C50657  10.272   1.047   9.499  0.3455  0.1334 -0.6333
  376MOL0     C50658  10.409   1.055   9.499 -0.3583  1.2613 -0.2648
  376MOL0     C50659  10.484   0.940   9.533 -0.4244  0.0376 -0.2833
  376MOL0     O50660  10.624   0.945   9.506 -0.7456  1.1156  1.2464
  376MOL0     C50661  10.713   0.899   9.602  0.1931  0.5335  0.1206
  376MOL0     C50662  10.847   0.954   9.568 -1.2125  0.3194 -0.2943
  376MOL0     C50663  10.857   1.109   9.588  0.0443  0.0609 -0.2582
  376MOL0     C50664  11.004   1.161   9.576 -0.2522  0.4467  0.4117
  376MOL0     C50665  11.023   1.312   9.622 -0.0325  0.0740  0.2749
  376MOL0     C50666  11.167   1.365   9.626 -0.3897 -0.3283 -0.1437
  376MOL0     C50667  11.166   1.498   9.712 -0.0971 -0.0756  0.3930
  376MOL0     C50668  11.300   1.553   9.751 -0.1500  0.0758  0.0011
  376MOL0    Cl50669  11.393   1.619   9.608  0.1415 -0.2545 -0.1150
  376MOL0     C50670  10.413   0.836   9.597 -1.6383 -0.2400  0.3493
  376MOL0     C50671  10.267   0.834   9.606 -0.0262  0.1246  0.1199
  376MOL0     O50672  10.069   0.731   9.428 -0.0555  1.2632 -0.8710
  376MOL0     C50673   9.783   0.882   9.567 -0.6802 -0.5934 -0.5133
  376MOL0     C50674   9.643   0.882   9.551 -0.4474  0.3442  1.4502
  376MOL0     N50675   8.879   1.040   9.786  0.7465 -0.6889  0.3153
  376MOL0     N50676   8.814   1.019   9.900 -0.0497  0.5496 -0.3889
  376MOL0     C50677   9.625   1.406  10.729  0.0178  0.4952 -0.2141
  376MOL0     C50678   9.729   1.451  10.803  0.6429 -0.6982 -0.0323
  376MOL0     C50679  10.148   1.474  11.006 -0.4530  0.1133  0.1999
  376MOL0     C50680  10.091   1.509  11.135 -0.2838 -0.0811  0.3022
  376MOL0     C50681  10.178   1.541  11.242 -0.0775  0.8842  0.8313
  376MOL0     C50682  10.318   1.553  11.215  0.3739 -0.2307 -0.5422
  376MOL0     O50683  10.414   1.582  11.306 -0.3276  0.4105 -0.6473
  376MOL0     C50684  10.382   1.607  11.442 -0.1740 -0.1005 -0.2495
  376MOL0     C50685  10.493   1.565  11.539 -0.6205  0.3573 -0.1371
  376MOL0     C50686  10.516   1.414  11.532  0.4791 -0.0428 -0.3125
  376MOL0     C50687  10.635   1.351  11.604  0.3978 -0.0286 -0.4376
  376MOL0     C50688  10.768   1.397  11.557 -0.6312  0.1960  0.5599
  376MOL0     C50689  10.882   1.439  11.517 -0.3691  0.1966  0.1108
  376MOL0     C50690  10.364   1.523  11.096  0.5500 -0.4000 -0.5867
  376MOL0     C50691  10.288   1.477  10.996 -0.1996 -0.0597  0.1707
  376MOL0     C50692  10.358   1.439  10.873  0.4944  0.1828  0.3339
  376MOL0     H50693   9.924   1.171  10.812 -1.0287 -0.6470 -0.4043
  376MOL0     H50694   9.733   1.093  10.698 -0.8350  0.8613 -1.6614
  376MOL0     H50695   9.657   1.161  10.473  0.4328  1.2717 -0.6509
  376MOL0     H50696   9.557   1.031  10.539 -1.4953  0.6802  0.2234
  376MOL0     H50697   9.527   1.173  10.286 -0.7504 -1.3806 -0.0565
  376MOL0     H50698   9.417   1.249  10.385  1.0035  1.5228 -0.6692
  376MOL0     H50699   9.312   1.035  10.459 -1.0282 -0.6288 -0.2933
  376MOL0     H50700   9.425   0.942  10.347  0.5362 -0.0997  1.2562
  376MOL0     H50701   9.216   1.150  10.250 -2.5499 -0.8746 -1.1513
  376MOL0     H50702   9.342   1.072  10.148  1.0557 -1.0658  0.3907
  376MOL0     H50703   9.237   0.853  10.177 -1.3138 -0.3278 -0.9522
  376MOL0     H50704   9.156   0.924  10.327  0.7393  1.5006  0.2620
  376MOL0     H50705   9.014   1.050  10.194  0.6578 -0.3662  3.2582
  376MOL0     H50706   9.089   0.982  10.044 -2.1357  0.6950  0.1483
  376MOL0     H50707   8.953   0.828  10.256  1.2756 -2.5884 -0.2073
  376MOL0     H50708   9.026   0.746  10.118 -0.5587 -0.0033  1.0917
  376MOL0     H50709   8.761   0.791  10.109 -0.0967 -0.6299 -2.2767
  376MOL0     H50710   8.788   0.953  10.136  0.4001 -0.5488  0.4352
  376MOL0     H50711   8.923   0.715   9.848  1.3347 -0.2936  3.5281
  376MOL0     H50712   8.973   0.770   9.601 -2.0743 -0.2683  0.8584
  376MOL0     H50713   8.922   0.923   9.533  0.3868  1.3485  0.8288
  376MOL0     H50714   9.134   1.039   9.596  0.4371  0.5231  0.7085
  376MOL0     H50715   9.185   0.908   9.704  0.0230  1.1748  0.4574
  376MOL0     H50716   9.200   0.890   9.407 -2.9887 -0.7704  0.6516
  376MOL0     H50717   9.195   0.753   9.512 -2.5536  0.6163  0.0073
  376MOL0     H50718   9.384   0.864   9.641 -1.9939  0.4982  0.7243
  376MOL0     H50719   9.396   0.976   9.503  0.9533 -0.7242 -0.2236
  376MOL0     H50720   9.602   0.652   9.308 -0.6689 -1.6339  0.6621
  376MOL0     H50721   9.863   0.684   9.311  0.3012  2.6109 -1.4626
  376MOL0     H50722  10.219   1.133   9.459 -0.6468 -0.0336  0.2735
  376MOL0     H50723  10.460   1.141   9.458  0.4077  1.6663  1.4115
  376MOL0     H50724  10.677   0.932   9.700 -0.6184  0.5318 -0.1648
  376MOL0     H50725  10.715   0.790   9.604 -0.6218  0.4882 -0.9335
  376MOL0     H50726  10.931   0.910   9.623 -0.5173  0.9303 -0.8351
  376MOL0     H50727  10.870   0.923   9.465  0.2948 -1.3256  0.4798
  376MOL0     H50728  10.800   1.165   9.513  1.3233  2.5257  0.4794
  376MOL0     H50729  10.819   1.137   9.686 -1.7227 -0.7533 -0.6837
  376MOL0     H50730  11.021   1.137   9.470 -2.7984  0.0661  0.0289
  376MOL0     H50731  11.075   1.103   9.637  1.1957 -0.2864 -1.8169
  376MOL0     H50732  10.999   1.310   9.729  0.6023  1.2753  0.4520
  376MOL0     H50733  10.959   1.384   9.571  0.6857  0.3648 -0.2291
  376MOL0     H50734  11.234   1.292   9.673 -1.4984  0.0936  2.2247
  376MOL0     H50735  11.212   1.393   9.530 -2.2953  0.4665 -0.8494
  376MOL0     H50736  11.114   1.470   9.804 -1.6116 -0.0728 -0.4207
  376MOL0     H50737  11.106   1.572   9.658 -0.5091  0.3993  1.4808
  376MOL0     H50738  11.288   1.632   9.826  1.3329  1.3536 -1.0205
  376MOL0     H50739  11.359   1.475   9.800  1.1563  1.8328  1.3718
  376MOL0     H50740  10.471   0.750   9.629 -0.1149  0.6458  0.1084
  376MOL0     H50741  10.233   0.737   9.641 -0.7890  0.2433 -0.2805
  376MOL0     H50742   9.828   0.952   9.636 -0.9036  1.7053 -2.5570
  376MOL0     H50743   9.588   0.954   9.609 -2.1244  0.5611 -0.3104
  376MOL0     H50744   9.540   1.471  10.708 -1.0062 -0.5930  0.4580
  376MOL0     H50745   9.719   1.553  10.838  2.4094 -1.1958  2.1056
  376MOL0     H50746   9.984   1.505  11.147 -0.1838 -3.1507  1.0159
  376MOL0     H50747  10.141   1.573  11.339 -0.6530 -0.4998  1.0978
  376MOL0     H50748  10.292   1.547  11.461 -1.5309  0.8877 -2.9573
  376MOL0     H50749  10.373   1.716  11.448  1.2101 -0.0649  2.2479
  376MOL0     H50750  10.466   1.599  11.639 -1.4361 -2.6798  0.7839
  376MOL0     H50751  10.584   1.620  11.516 -1.3612  3.1067  2.8921
  376MOL0     H50752  10.534   1.377  11.431  2.3646 -0.1194  0.0173
  376MOL0     H50753  10.423   1.366  11.565 -1.4734  2.0376 -2.3981
  376MOL0     H50754  10.625   1.367  11.711  0.0946  0.0829 -0.4817
  376MOL0     H50755  10.631   1.243  11.590  3.1953 -0.0421 -2.0782
  376MOL0     H50756  10.980   1.479  11.498 -1.2757  2.4790 -0.0637
  376MOL0     H50757  10.471   1.516  11.083  0.6361 -0.6328  0.1972
  376MOL0     H50758  10.463   1.467  10.869  0.6691 -0.5986 -0.8335
  376MOL0     H50759  10.347   1.330  10.865 -1.4157  0.4217 -0.9085
  376MOL0     H50760  10.307   1.480  10.786 -0.1862  0.0870  0.6748
  377MOL0     O50761   5.567   4.460   5.334  0.0361 -0.4312  0.4627
  377MOL0     C50762   5.627   4.370   5.378 -0.4836 -0.3418 -0.0822
  377MOL0     O50763   5.751   4.375   5.416 -1.5363 -0.4615  0.2437
  377MOL0     C50764   5.822   4.491   5.412  1.5346 -0.1375 -0.4846
  377MOL0     C50765   5.884   4.529   5.296 -0.2426  0.9803 -0.0571
  377MOL0     C50766   5.960   4.647   5.282 -0.1398  0.4807  0.0577
  377MOL0     C50767   5.974   4.736   5.395 -0.6411 -0.7937  0.7669
  377MOL0     O50768   6.054   4.855   5.382 -0.3291 -0.0941 -0.9066
  377MOL0     C50769   6.114   4.899   5.261 -0.1303  0.3426  0.2830
  377MOL0     C50770   6.146   5.047   5.270  0.5513 -0.1186 -0.2287
  377MOL0     C50771   6.261   5.080   5.377  0.3176  0.0658  0.3579
  377MOL0     C50772   6.311   5.223   5.364  0.1918 -0.2599 -0.8060
  377MOL0     C50773   6.409   5.262   5.474  0.4373 -0.0020  0.1180
  377MOL0     C50774   6.457   5.413   5.481  0.3627 -0.2236  0.8470
  377MOL0     C50775   6.537   5.429   5.359 -0.1784 -0.6482  0.6692
  377MOL0     C50776   6.612   5.563   5.353 -0.1137 -0.0961  0.3452
  377MOL0     N50777   6.694   5.561   5.234  0.0733 -0.7770 -1.2724
  377MOL0     C50778   6.655   5.605   5.116 -0.3651 -0.4478  0.0240
  377MOL0     C50779   6.766   5.616   5.040  0.4220  0.4224  0.3279
  377MOL0     C50780   6.760   5.682   4.904 -0.0712  0.0843 -0.5374
  377MOL0     C50781   6.717   5.834   4.880 -1.1290 -0.3024 -0.4006
  377MOL0     C50782   6.727   5.853   4.726 -0.0330 -0.7177 -0.1285
  377MOL0     C50783   6.864   5.920   4.687  0.5623 -0.5307 -0.1547
  377MOL0     O50784   6.974   5.829   4.712  0.0237  0.5018 -1.1789
  377MOL0     C50785   7.099   5.865   4.674 -0.1096 -0.3777 -0.5572
  377MOL0     C50786   7.147   6.001   4.687  0.0958 -0.0727  1.0226
  377MOL0     C50787   7.283   6.023   4.648  0.2451 -0.3753 -0.0220
  377MOL0     C50788   7.374   5.920   4.610 -0.1474  0.0624 -0.9723
  377MOL0     C50789   7.520   5.944   4.573 -0.5734 -0.5344 -0.1299
  377MOL0     O50790   7.584   5.826   4.555  0.2383  0.0364  0.4388
  377MOL0     C50791   7.718   5.806   4.561  0.5506 -0.3489 -0.1502
  377MOL0     C50792   7.764   5.670   4.559  0.6210 -0.1849  0.1146
  377MOL0     C50793   7.903   5.634   4.574  0.0795 -0.0394  0.6684
  377MOL0     C50794   7.999   5.730   4.579  1.3528 -0.5311 -0.6812
  377MOL0     O50795   8.128   5.712   4.591  0.0776  0.5040 -0.3742
  377MOL0     C50796   8.166   5.599   4.659 -1.5009  0.7940  0.7790
  377MOL0     C50797   8.323   5.593   4.656  0.0074  0.1454 -0.4446
  377MOL0     C50798   8.373   5.490   4.761  0.2413 -0.5099  0.1334
  377MOL0     C50799   8.523   5.522   4.786 -0.1882  0.5588  0.0687
  377MOL0     C50800   8.600   5.411   4.866  0.2810  1.0872  0.6681
  377MOL0     C50801   8.738   5.457   4.910 -1.2971 -0.4015  0.0926
  377MOL0     C50802   8.811   5.331   4.974 -0.0354 -0.3619  0.9285
  377MOL0     C50803   8.940   5.366   5.045 -1.0404 -0.2823 -0.3692
  377MOL0    Cl50804   9.006   5.207   5.072  0.1348 -0.0307  0.0237
  377MOL0     C50805   7.957   5.864   4.582  0.2678 -0.2283  0.5710
  377MOL0     C50806   7.820   5.899   4.582 -0.5492 -0.7800 -0.5087
  377MOL0     O50807   7.570   6.056   4.579  0.0310 -0.1730 -0.1104
  377MOL0     C50808   7.316   5.786   4.612 -0.1312  0.6495 -0.1424
  377MOL0     C50809   7.182   5.764   4.634  0.9772 -0.5294 -0.2986
  377MOL0     N50810   6.874   5.575   5.125  0.0854  0.0905 -0.3402
  377MOL0     N50811   6.827   5.534   5.243  0.0277  0.4245 -0.3752
  377MOL0     C50812   5.903   4.702   5.513 -0.5270 -0.6864 -0.1664
  377MOL0     C50813   5.821   4.582   5.517 -0.0348  0.0546  0.4575
  377MOL0     C50814   5.558   4.239   5.387 -0.3082 -0.0542 -0.0123
  377MOL0     C50815   5.646   4.128   5.368  0.4826 -0.1089  0.0401
  377MOL0     C50816   5.601   3.998   5.368  0.1487  0.3577 -0.3335
  377MOL0     C50817   5.470   3.975   5.386  0.4964 -0.1860 -0.5539
  377MOL0     O50818   5.436   3.845   5.381 -0.1912 -0.8471  0.5452
  377MOL0     C50819   5.302   3.792   5.426 -0.2147  0.7866  0.4833
  377MOL0     C50820   5.222   3.743   5.306  0.7036 -0.0687 -0.3171
  377MOL0     C50821   5.079   3.708   5.356 -0.4309 -0.2834  0.2055
  377MOL0     C50822   5.018   3.592   5.265  0.0937 -0.0810 -0.0029
  377MOL0     C50823   4.899   3.522   5.325 -0.7586  0.1756 -0.0664
  377MOL0     C50824   4.787   3.508   5.369  0.6020 -0.0128 -0.7099
  377MOL0     C50825   5.375   4.080   5.411  0.0541  1.3275 -0.1853
  377MOL0     C50826   5.420   4.210   5.407 -0.0692 -0.3400  0.1402
  377MOL0     C50827   5.315   4.316   5.441  0.4090  0.1102 -0.4049
  377MOL0     H50828   5.872   4.463   5.210  0.1683  0.5977  0.1771
  377MOL0     H50829   5.989   4.659   5.179 -1.6796  0.3007 -0.4298
  377MOL0     H50830   6.202   4.840   5.237 -0.6487 -0.4744  0.3599
  377MOL0     H50831   6.053   4.883   5.172  1.5725 -3.3631 -0.3839
  377MOL0     H50832   6.059   5.100   5.311 -0.7801 -0.7016 -2.1781
  377MOL0     H50833   6.173   5.096   5.176  0.2618 -0.5105 -0.5175
  377MOL0     H50834   6.348   5.015   5.361 -1.6242 -2.3649 -1.1155
  377MOL0     H50835   6.227   5.065   5.479 -2.0955  1.9077 -0.1040
  377MOL0     H50836   6.366   5.237   5.271  0.5449  1.7796 -0.3317
  377MOL0     H50837   6.232   5.298   5.356  0.0858 -0.5094 -2.3377
  377MOL0     H50838   6.369   5.240   5.574  0.5290  0.8345  0.3471
  377MOL0     H50839   6.496   5.196   5.468 -0.1667 -0.8556  0.5110
  377MOL0     H50840   6.368   5.475   5.467  0.5313 -0.0658  0.4779
  377MOL0     H50841   6.519   5.448   5.565 -1.2835  0.9763  1.6328
  377MOL0     H50842   6.468   5.420   5.274  1.4421 -2.8078 -0.5353
  377MOL0     H50843   6.611   5.349   5.354  0.8074  0.3112 -0.8751
  377MOL0     H50844   6.549   5.653   5.350  2.2388  1.6126 -1.9535
  377MOL0     H50845   6.678   5.565   5.440  0.1740 -0.0833  0.1292
  377MOL0     H50846   6.557   5.642   5.090  0.1993  0.8544 -0.3258
  377MOL0     H50847   6.861   5.657   4.872  0.7018 -1.5935  2.7297
  377MOL0     H50848   6.687   5.618   4.853 -0.0470 -0.2601 -0.1477
  377MOL0     H50849   6.628   5.871   4.931  0.6571 -1.0209  3.5693
  377MOL0     H50850   6.799   5.897   4.917  0.9967 -3.4699  0.7603
  377MOL0     H50851   6.646   5.922   4.701  0.8647 -0.0775 -1.4114
  377MOL0     H50852   6.716   5.760   4.669  5.8149 -0.7950 -1.8215
  377MOL0     H50853   6.881   6.011   4.745  0.5478 -0.5541 -0.1140
  377MOL0     H50854   6.869   5.946   4.580  2.3725 -2.8910 -0.7273
  377MOL0     H50855   7.088   6.084   4.724 -1.1370 -0.6050  0.3160
  377MOL0     H50856   7.324   6.122   4.635 -3.2179  0.9622 -2.2885
  377MOL0     H50857   7.692   5.589   4.555 -0.4725  0.5949  2.4225
  377MOL0     H50858   7.915   5.527   4.586 -2.7187 -0.6498 -1.0099
  377MOL0     H50859   8.129   5.591   4.762  0.2896  0.3410  1.4243
  377MOL0     H50860   8.136   5.506   4.609 -2.7550  2.9767 -2.8665
  377MOL0     H50861   8.357   5.576   4.553 -1.1983  2.8777 -1.3593
  377MOL0     H50862   8.360   5.694   4.675  0.0742 -0.3532  2.6059
  377MOL0     H50863   8.322   5.497   4.858  2.8503 -1.6952  1.6702
  377MOL0     H50864   8.363   5.389   4.720  2.9052 -0.1970 -1.4910
  377MOL0     H50865   8.534   5.614   4.843  0.4146  1.0502 -0.8160
  377MOL0     H50866   8.575   5.539   4.691  0.0586 -0.0180  0.0912
  377MOL0     H50867   8.609   5.318   4.809 -1.9299  0.0605  1.8775
  377MOL0     H50868   8.537   5.380   4.950 -1.3995 -6.9448 -2.6433
  377MOL0     H50869   8.798   5.481   4.821  0.3575  1.0878  1.5362
  377MOL0     H50870   8.742   5.542   4.978 -2.8726 -1.0081  1.0007
  377MOL0     H50871   8.827   5.261   4.891  1.1912  2.8478 -1.7860
  377MOL0     H50872   8.734   5.288   5.039 -2.6184 -1.7811 -2.7191
  377MOL0     H50873   9.004   5.430   4.982 -2.0688  1.0252 -0.1235
  377MOL0     H50874   8.911   5.410   5.141 -1.1793 -1.7633  0.2950
  377MOL0     H50875   8.036   5.938   4.584  2.7982 -2.7720  0.5787
  377MOL0     H50876   7.802   6.007   4.580 -0.2075 -0.7298 -0.8006
  377MOL0     H50877   7.376   5.709   4.565 -2.0943 -0.0926 -1.5699
  377MOL0     H50878   7.130   5.669   4.626  1.0163 -0.4531 -1.7482
  377MOL0     H50879   5.908   4.772   5.596  2.1842 -0.0731 -0.7389
  377MOL0     H50880   5.752   4.567   5.600  1.3939  1.2821  1.9191
  377MOL0     H50881   5.753   4.144   5.358  0.3002 -0.0049 -2.2880
  377MOL0     H50882   5.671   3.918   5.347 -0.8172 -0.7369  0.5409
  377MOL0     H50883   5.245   3.871   5.475  2.0406  1.5098  2.0876
  377MOL0     H50884   5.317   3.714   5.502 -4.4884  1.2811  2.0963
  377MOL0     H50885   5.265   3.655   5.257  1.0116  0.9357 -1.9395
  377MOL0     H50886   5.202   3.827   5.239 -1.5283  0.2956  0.7000
  377MOL0     H50887   5.018   3.798   5.347  0.1631 -0.1051 -3.4407
  377MOL0     H50888   5.071   3.688   5.464  0.0287 -0.2024  0.2588
  377MOL0     H50889   4.985   3.636   5.170 -2.2500  0.5182  1.0168
  377MOL0     H50890   5.089   3.509   5.265 -0.9153 -0.9747 -0.9617
  377MOL0     H50891   4.685   3.517   5.401  1.3679  0.0743  1.9096
  377MOL0     H50892   5.270   4.056   5.422  0.2888 -0.4531 -1.5361
  377MOL0     H50893   5.286   4.381   5.358  2.8074  0.1788 -1.2724
  377MOL0     H50894   5.227   4.263   5.479  1.5309 -0.9225  0.8647
  377MOL0     H50895   5.357   4.375   5.523 -0.8893 -0.7506  0.9302
  378MOL0     O50896   7.372   4.280   5.591 -0.1123 -0.3700 -0.4276
  378MOL0     C50897   7.328   4.355   5.685 -0.4528  0.7239  0.1619
  378MOL0     O50898   7.373   4.484   5.711  0.1887 -1.2869  0.1511
  378MOL0     C50899   7.500   4.533   5.667 -0.2658  0.5856 -0.2642
  378MOL0     C50900   7.515   4.667   5.629 -0.0142  0.1968  0.5775
  378MOL0     C50901   7.643   4.711   5.585 -0.0172  1.0445  0.9567
  378MOL0     C50902   7.748   4.622   5.562  0.1673  0.0439 -0.3580
  378MOL0     O50903   7.874   4.655   5.516 -0.2083 -0.0653 -0.1031
  378MOL0     C50904   7.905   4.782   5.462  0.0753  0.1710  0.6232
  378MOL0     C50905   7.977   4.859   5.565  0.2860  0.4618  0.1666
  378MOL0     C50906   8.105   4.795   5.621 -0.4912  0.1647  0.2644
  378MOL0     C50907   8.180   4.898   5.701 -0.5456 -0.3901 -0.4431
  378MOL0     C50908   8.311   4.851   5.780  0.4786 -0.3908 -0.0046
  378MOL0     C50909   8.427   4.808   5.675  0.6716  0.0335  0.1891
  378MOL0     C50910   8.551   4.782   5.755  0.0963  0.2205 -0.4074
  378MOL0     C50911   8.663   4.740   5.661  0.5117 -0.8669 -0.1765
  378MOL0     N50912   8.722   4.848   5.582  0.2204 -0.1210  0.0763
  378MOL0     C50913   8.842   4.898   5.616  0.6814 -0.2247  0.7129
  378MOL0     C50914   8.881   4.966   5.511  0.0845  0.0355  0.0192
  378MOL0     C50915   9.000   5.061   5.485 -0.2030 -0.4101  0.0090
  378MOL0     C50916   9.114   5.005   5.405 -0.7382  0.2230  0.5336
  378MOL0     C50917   9.239   5.085   5.420 -0.3648 -0.0152 -0.3383
  378MOL0     C50918   9.352   5.037   5.325 -0.3355 -0.9394 -0.3341
  378MOL0     O50919   9.425   4.936   5.404 -0.4337 -0.1399 -0.0304
  378MOL0     C50920   9.558   4.934   5.389 -0.5899 -0.2296  0.0471
  378MOL0     C50921   9.629   4.963   5.266  0.4282  1.2655 -0.1627
  378MOL0     C50922   9.764   4.967   5.263 -0.1479  0.1650  0.5053
  378MOL0     C50923   9.841   4.940   5.382  0.1909 -0.6624  0.2186
  378MOL0     C50924   9.993   4.933   5.369 -0.0323  0.0592 -0.1365
  378MOL0     O50925  10.056   4.827   5.443  0.2693  0.8226 -0.3321
  378MOL0     C50926  10.179   4.780   5.398  0.3713 -0.6077 -0.1683
  378MOL0     C50927  10.198   4.718   5.273  0.2096 -0.8015 -0.5486
  378MOL0     C50928  10.323   4.664   5.237 -0.1216 -0.0615  0.2530
  378MOL0     C50929  10.428   4.678   5.319 -0.0611  0.4581 -0.3232
  378MOL0     O50930  10.548   4.652   5.259 -0.8515  0.1150 -0.8639
  378MOL0     C50931  10.664   4.651   5.353 -0.1758  0.0017  0.6446
  378MOL0     C50932  10.779   4.619   5.255 -0.3621 -0.7836 -0.0466
  378MOL0     C50933  10.919   4.590   5.314  0.0405  0.3634 -0.9001
  378MOL0     C50934  11.038   4.595   5.214  0.6728 -0.8514 -0.1470
  378MOL0     C50935  11.176   4.570   5.277  0.2130 -0.0728  0.3663
  378MOL0     C50936  11.208   4.652   5.401 -0.4775  0.4967 -0.8517
  378MOL0     C50937  11.354   4.629   5.435  0.0894 -0.2344 -0.1573
  378MOL0     C50938  11.381   4.704   5.561 -0.9427  0.1696 -0.1835
  378MOL0    Cl50939  11.565   4.737   5.583  0.2647 -0.1801 -0.1661
  378MOL0     C50940  10.413   4.732   5.450 -0.4159  0.3768  0.9211
  378MOL0     C50941  10.286   4.782   5.490  0.1324 -0.4842  0.9785
  378MOL0     O50942  10.055   5.007   5.283  0.2475  0.2858 -0.2143
  378MOL0     C50943   9.773   4.916   5.501  0.6035  0.1206  0.4710
  378MOL0     C50944   9.639   4.914   5.504 -0.4190 -0.8256 -0.5153
  378MOL0     N50945   8.784   4.947   5.409  0.4530 -0.3273  0.0246
  378MOL0     N50946   8.696   4.866   5.454 -0.5586 -0.3956  0.0358
  378MOL0     C50947   7.730   4.487   5.598 -0.5070 -0.3167  0.1820
  378MOL0     C50948   7.614   4.448   5.657 -0.0875  0.0399 -0.9029
  378MOL0     C50949   7.218   4.297   5.763 -0.1507  0.5285 -0.2576
  378MOL0     C50950   7.106   4.252   5.693 -0.4310  0.4955  0.1907
  378MOL0     C50951   7.010   4.177   5.761  0.1001  0.1610 -0.4650
  378MOL0     C50952   7.016   4.164   5.898  0.3780 -0.0973  0.1007
  378MOL0     O50953   6.929   4.090   5.977 -0.0891 -0.3114 -0.1694
  378MOL0     C50954   6.828   4.015   5.922 -0.0608 -0.1552 -0.1162
  378MOL0     C50955   6.838   3.866   5.989  1.1403 -0.2839 -0.1315
  378MOL0     C50956   6.698   3.793   5.980 -0.0159  1.0655  0.1984
  378MOL0     C50957   6.700   3.645   6.018  0.4275 -0.3877 -0.2905
  378MOL0     C50958   6.762   3.629   6.148  0.8091  0.3206  0.0941
  378MOL0     C50959   6.808   3.633   6.251  0.3727 -0.3213 -0.6227
  378MOL0     C50960   7.125   4.228   5.965 -0.1791 -0.1148 -0.6789
  378MOL0     C50961   7.232   4.285   5.899 -0.5794  1.1977  0.0638
  378MOL0     C50962   7.343   4.340   5.967 -0.6409 -0.0567 -0.7022
  378MOL0     H50963   7.429   4.731   5.647 -2.2525 -1.5210 -2.9497
  378MOL0     H50964   7.638   4.819   5.577 -1.1089  0.9140 -0.6016
  378MOL0     H50965   7.972   4.761   5.378  0.9057  0.6383  1.1523
  378MOL0     H50966   7.814   4.821   5.416 -0.0831 -2.7527 -1.8756
  378MOL0     H50967   7.912   4.882   5.650 -0.7311  1.6466 -0.8939
  378MOL0     H50968   7.998   4.957   5.522  3.5170 -0.3814 -0.4079
  378MOL0     H50969   8.166   4.760   5.538 -1.9903  0.5541 -1.0635
  378MOL0     H50970   8.079   4.706   5.679 -1.3951 -0.1121 -0.5453
  378MOL0     H50971   8.190   4.985   5.635 -1.0146 -0.0577 -0.0885
  378MOL0     H50972   8.111   4.938   5.776  0.6093  0.5588  0.1342
  378MOL0     H50973   8.342   4.937   5.839 -0.5124 -0.9300  1.3489
  378MOL0     H50974   8.273   4.765   5.835  0.6679 -0.8229 -0.5341
  378MOL0     H50975   8.383   4.718   5.633 -0.8174  0.8743 -0.1306
  378MOL0     H50976   8.447   4.882   5.597  0.6301 -0.7233 -0.5480
  378MOL0     H50977   8.538   4.708   5.835  1.8145  0.8400  0.5071
  378MOL0     H50978   8.599   4.858   5.817  0.8466 -0.4281 -0.1672
  378MOL0     H50979   8.738   4.682   5.716 -0.6589 -0.1386  2.3400
  378MOL0     H50980   8.625   4.666   5.591  0.8300 -1.0913 -0.1165
  378MOL0     H50981   8.902   4.897   5.706  2.2098 -0.2305 -0.2605
  378MOL0     H50982   8.957   5.145   5.430  0.0212  0.4539  1.1069
  378MOL0     H50983   9.033   5.108   5.578 -0.0480  0.4645 -0.4718
  378MOL0     H50984   9.131   4.908   5.452 -0.9122 -0.2352 -0.3320
  378MOL0     H50985   9.089   4.998   5.299  0.7391  1.5785  0.0490
  378MOL0     H50986   9.258   5.070   5.527 -1.9650 -0.1545 -0.0389
  378MOL0     H50987   9.216   5.191   5.405 -0.9438  0.1896  1.7023
  378MOL0     H50988   9.417   5.122   5.305  0.6082 -1.9098 -1.6297
  378MOL0     H50989   9.313   5.006   5.227 -0.1429  0.8734 -1.0233
  378MOL0     H50990   9.581   4.972   5.169  0.5222  1.5397 -0.1846
  378MOL0     H50991   9.814   4.990   5.170  0.3758 -2.0864  0.1771
  378MOL0     H50992  10.105   4.715   5.216 -2.1078  0.9531  2.7863
  378MOL0     H50993  10.326   4.619   5.139 -0.6202 -2.3845  1.2514
  378MOL0     H50994  10.685   4.749   5.395  1.6615 -0.6138  1.2665
  378MOL0     H50995  10.643   4.582   5.435 -2.5297  0.5241  0.5520
  378MOL0     H50996  10.746   4.539   5.188 -2.6004  0.9963 -1.1791
  378MOL0     H50997  10.790   4.712   5.199 -4.6443  1.0430  1.6931
  378MOL0     H50998  10.932   4.672   5.385 -4.3083 -0.9651  1.7908
  378MOL0     H50999  10.916   4.500   5.376  2.4956  1.1463  0.4824
  378MOL0     H51000  11.037   4.692   5.163  0.8843 -0.7996 -0.0561
  378MOL0     H51001  11.026   4.521   5.134 -0.9095  1.9428 -2.6811
  378MOL0     H51002  11.248   4.583   5.197  0.1351  3.4076  0.7070
  378MOL0     H51003  11.176   4.466   5.310 -1.5013 -0.0572  0.5240
  378MOL0     H51004  11.193   4.760   5.385 -1.0090  0.5740  0.1061
  378MOL0     H51005  11.145   4.613   5.481 -0.7194  0.8859 -0.8466
  378MOL0     H51006  11.425   4.659   5.357 -0.0011  0.7931  0.1366
  378MOL0     H51007  11.384   4.525   5.442  0.2106 -0.1275  1.0650
  378MOL0     H51008  11.330   4.800   5.567 -0.4458  0.5635 -1.7832
  378MOL0     H51009  11.333   4.635   5.631 -1.8643  1.0824  0.1044
  378MOL0     H51010  10.485   4.746   5.530  0.1194  0.0173  0.5093
  378MOL0     H51011  10.276   4.843   5.580  1.7939  1.6565 -0.1906
  378MOL0     H51012   9.835   4.897   5.588  1.2718 -0.7692 -0.1845
  378MOL0     H51013   9.573   4.909   5.590 -1.3392  0.1374 -1.1510
  378MOL0     H51014   7.811   4.420   5.571 -1.9576 -0.8798 -3.3318
  378MOL0     H51015   7.603   4.345   5.689  2.7169 -0.1737 -0.4201
  378MOL0     H51016   7.098   4.269   5.586 -0.6819  1.0907  0.2984
  378MOL0     H51017   6.935   4.134   5.695 -0.1531  2.5007 -1.8079
  378MOL0     H51018   6.846   3.998   5.815  0.6463  1.7576 -0.3567
  378MOL0     H51019   6.727   4.058   5.922  1.1105  2.9000  0.9249
  378MOL0     H51020   6.868   3.872   6.094 -0.5180 -0.4898  0.3854
  378MOL0     H51021   6.912   3.803   5.938 -1.9725 -2.0446 -2.8220
  378MOL0     H51022   6.659   3.800   5.877 -0.3941 -0.5541  0.2026
  378MOL0     H51023   6.633   3.850   6.046 -1.7021 -2.0464  1.4570
  378MOL0     H51024   6.597   3.609   6.023 -0.1829  1.3177  0.1914
  378MOL0     H51025   6.754   3.588   5.941 -0.9087 -0.6445 -1.0646
  378MOL0     H51026   6.858   3.638   6.346  1.0683 -3.1724 -0.7494
  378MOL0     H51027   7.121   4.226   6.074 -1.2355 -0.0852 -0.7098
  378MOL0     H51028   7.345   4.312   6.073 -2.0019 -2.1365 -1.1782
  378MOL0     H51029   7.428   4.285   5.925 -1.6787 -1.4962 -0.9947
  378MOL0     H51030   7.350   4.449   5.957  3.3274 -0.1218 -0.2950
  379MOL0     O51031  10.912   6.034   5.822 -0.4341 -0.4872  0.7842
  379MOL0     C51032  10.838   5.938   5.816  0.3266  0.1809  0.5518
  379MOL0     O51033  10.873   5.819   5.750 -0.3547 -0.9508 -0.4358
  379MOL0     C51034  11.004   5.801   5.707 -0.2028  0.4872 -0.6272
  379MOL0     C51035  11.047   5.853   5.582 -0.3550  0.4075 -0.5190
  379MOL0     C51036  11.180   5.821   5.546  1.2843  1.2286  0.1370
  379MOL0     C51037  11.273   5.748   5.623  0.4276  1.1128  0.3553
  379MOL0     O51038  11.403   5.719   5.591 -0.5670 -0.3215  0.0122
  379MOL0     C51039  11.437   5.678   5.458  0.2508  0.1449 -0.1550
  379MOL0     C51040  11.500   5.537   5.464  0.3897  0.1456 -0.0040
  379MOL0     C51041  11.639   5.509   5.496  0.2569 -0.4689  0.3645
  379MOL0     C51042  11.685   5.556   5.636 -0.1615 -1.6550 -1.1573
  379MOL0     C51043  11.825   5.513   5.653 -0.0256 -0.0601  0.1780
  379MOL0     C51044  11.896   5.574   5.780 -0.8205 -0.4381  0.0239
  379MOL0     C51045  12.027   5.511   5.800  0.0936 -0.0370 -0.2699
  379MOL0     C51046  12.070   5.520   5.942 -0.4171 -0.4507 -0.5937
  379MOL0     N51047  12.209   5.485   5.965  0.8415 -0.2576  0.1879
  379MOL0     C51048  12.302   5.568   6.034  0.3109 -0.8787  0.4370
  379MOL0     C51049  12.420   5.510   6.019  0.4129 -0.1230 -0.2983
  379MOL0     C51050  12.555   5.545   6.080  0.6838  0.1625 -0.7238
  379MOL0     C51051  12.665   5.457   6.020  0.8077  0.5834 -0.6489
  379MOL0     C51052  12.789   5.466   6.107 -0.0497 -0.2409 -0.0239
  379MOL0     C51053  12.902   5.511   6.021  0.2346  0.0912  0.0402
  379MOL0     O51054  13.013   5.565   6.094 -0.4056 -0.9562 -0.5011
  379MOL0     C51055  13.128   5.495   6.097  0.2868 -0.1823 -0.6583
  379MOL0     C51056  13.244   5.571   6.116  0.9097  0.3659  0.1955
  379MOL0     C51057  13.376   5.513   6.100  0.5432  0.5748 -0.3814
  379MOL0     C51058  13.383   5.367   6.079 -0.3551 -0.5194 -0.1603
  379MOL0     C51059  13.515   5.303   6.067  0.1461  0.4578  0.7885
  379MOL0     O51060  13.635   5.375   6.092  0.7744  0.3585  0.5003
  379MOL0     C51061  13.750   5.311   6.072  1.0805  0.2038 -0.7112
  379MOL0     C51062  13.787   5.259   5.948  0.5781  0.1421 -0.0473
  379MOL0     C51063  13.919   5.223   5.920  0.4330 -0.6448 -0.0748
  379MOL0     C51064  14.011   5.222   6.030  1.1251 -0.0203 -0.1502
  379MOL0     O51065  14.143   5.210   5.993 -0.3637 -0.6801  0.0503
  379MOL0     C51066  14.240   5.221   6.098 -0.5054 -0.3716  0.2657
  379MOL0     C51067  14.383   5.227   6.037  0.3074 -0.1924  0.5504
  379MOL0     C51068  14.495   5.280   6.124 -0.2411 -0.2801  0.3503
  379MOL0     C51069  14.547   5.182   6.226  1.0700 -0.4563  0.0458
  379MOL0     C51070  14.640   5.254   6.308  0.0202 -0.2330 -0.0365
  379MOL0     C51071  14.698   5.153   6.412 -0.8906 -0.3664 -0.2201
  379MOL0     C51072  14.816   5.224   6.497  0.4682  0.2660 -0.3820
  379MOL0     C51073  14.913   5.128   6.571  0.4575 -0.5901 -0.2758
  379MOL0    Cl51074  15.073   5.208   6.630  0.0292  0.4187  0.0168
  379MOL0     C51075  13.971   5.257   6.154  0.3368 -0.5710 -0.6529
  379MOL0     C51076  13.846   5.315   6.175  0.0495  0.0296 -0.4615
  379MOL0     O51077  13.517   5.187   6.016 -0.3669 -0.3983  0.2125
  379MOL0     C51078  13.265   5.286   6.069  0.2161 -0.2663 -0.5233
  379MOL0     C51079  13.139   5.354   6.075 -0.6356 -0.8401 -0.4134
  379MOL0     N51080  12.400   5.385   5.965  0.1222  0.0955 -0.0243
  379MOL0     N51081  12.273   5.377   5.923 -0.4253 -0.1402 -0.0187
  379MOL0     C51082  11.215   5.692   5.745  0.4517  0.6634  0.3480
  379MOL0     C51083  11.087   5.716   5.784 -0.1339 -0.3842  0.3278
  379MOL0     C51084  10.710   5.944   5.882  0.1295 -0.4295 -0.4997
  379MOL0     C51085  10.619   5.834   5.865 -0.5211 -0.0981 -0.9081
  379MOL0     C51086  10.483   5.839   5.906 -0.5148  0.7670  0.1316
  379MOL0     C51087  10.439   5.943   5.978  0.1488  1.5037  0.5762
  379MOL0     O51088  10.305   5.970   6.006  0.7194 -1.0084 -0.0764
  379MOL0     C51089  10.215   5.853   6.012  0.2431 -0.6246 -0.3349
  379MOL0     C51090  10.090   5.904   6.093  0.8695  0.5272 -0.7002
  379MOL0     C51091   9.997   5.784   6.120 -0.5411  0.6597  0.1957
  379MOL0     C51092   9.894   5.812   6.228 -0.3827  0.2518  0.6531
  379MOL0     C51093   9.869   5.686   6.301 -0.2483 -0.2668 -0.1752
  379MOL0     C51094   9.826   5.580   6.343  0.3583  0.3736 -0.1214
  379MOL0     C51095  10.525   6.049   6.001  0.4291 -0.1138 -0.0229
  379MOL0     C51096  10.658   6.056   5.963 -0.6787  0.3669  0.5073
  379MOL0     C51097  10.745   6.168   6.014  0.2299  0.5946  0.3992
  379MOL0     H51098  10.981   5.910   5.518 -3.2603 -1.2891  0.7806
  379MOL0     H51099  11.223   5.868   5.458  1.0403  1.6451  0.2384
  379MOL0     H51100  11.347   5.662   5.398 -0.8639  1.1968  1.1710
  379MOL0     H51101  11.507   5.745   5.407 -2.1372  2.2402 -0.9078
  379MOL0     H51102  11.485   5.495   5.364  2.7558 -2.4619  0.6178
  379MOL0     H51103  11.444   5.478   5.537  1.4601 -0.6597  0.1759
  379MOL0     H51104  11.712   5.562   5.434  0.1729 -0.7791 -0.0070
  379MOL0     H51105  11.664   5.404   5.479 -0.3014 -0.4102 -0.9567
  379MOL0     H51106  11.688   5.665   5.639  1.6761 -1.6995  0.0721
  379MOL0     H51107  11.623   5.514   5.716  0.8272 -1.4771 -0.2803
  379MOL0     H51108  11.834   5.404   5.656  1.1351  0.0342  1.7226
  379MOL0     H51109  11.881   5.553   5.568 -1.7657  1.8409 -0.1472
  379MOL0     H51110  11.909   5.682   5.771  3.7041 -0.8976 -1.5389
  379MOL0     H51111  11.836   5.546   5.867 -1.6099  3.7779  1.0188
  379MOL0     H51112  12.111   5.539   5.736  1.6414 -0.8261  1.3186
  379MOL0     H51113  12.010   5.405   5.780 -1.6591  0.3742 -1.1233
  379MOL0     H51114  12.041   5.621   5.973 -0.7517 -1.1591  1.5069
  379MOL0     H51115  12.010   5.451   6.003 -1.3121 -0.2310 -1.1987
  379MOL0     H51116  12.298   5.660   6.090  1.0715  2.0563 -3.8379
  379MOL0     H51117  12.584   5.650   6.065 -0.3429  1.1372  3.0756
  379MOL0     H51118  12.558   5.527   6.188  2.3309  1.3953 -0.5215
  379MOL0     H51119  12.636   5.353   6.034  0.6431  1.0693  4.1969
  379MOL0     H51120  12.676   5.481   5.914  0.0542 -0.2310 -0.9243
  379MOL0     H51121  12.807   5.369   6.153 -0.8056  0.4096  1.7285
  379MOL0     H51122  12.773   5.538   6.188  3.0450 -0.7331  1.1666
  379MOL0     H51123  12.869   5.595   5.958  0.9253  1.2955  1.2418
  379MOL0     H51124  12.939   5.448   5.939 -0.5785 -2.4860  1.5446
  379MOL0     H51125  13.216   5.676   6.125 -1.7553 -0.1194 -1.4718
  379MOL0     H51126  13.467   5.571   6.087  0.9042  0.7066  2.2110
  379MOL0     H51127  13.714   5.264   5.868  2.3404  0.8716 -1.6749
  379MOL0     H51128  13.950   5.203   5.818  4.1186 -1.7550  1.0825
  379MOL0     H51129  14.233   5.315   6.154  2.7458  1.0555 -1.4387
  379MOL0     H51130  14.237   5.144   6.175 -0.1280 -1.8169 -1.1178
  379MOL0     H51131  14.400   5.121   6.016  2.7168  0.5316 -1.6687
  379MOL0     H51132  14.378   5.296   5.953 -2.5074  2.6345  2.7753
  379MOL0     H51133  14.576   5.305   6.055  0.9609 -0.3579  1.6967
  379MOL0     H51134  14.466   5.381   6.158  1.0537  1.1160 -2.3830
  379MOL0     H51135  14.599   5.102   6.172 -0.6089 -1.6084  0.0455
  379MOL0     H51136  14.474   5.135   6.293  1.9748  0.4750  1.7281
  379MOL0     H51137  14.587   5.333   6.361 -2.0448 -0.0332 -2.2220
  379MOL0     H51138  14.715   5.309   6.251  1.6355 -2.4252 -0.1638
  379MOL0     H51139  14.624   5.124   6.486 -0.6268 -0.9493 -0.1771
  379MOL0     H51140  14.735   5.061   6.364  4.2975 -0.5766  3.3733
  379MOL0     H51141  14.766   5.284   6.573 -0.4384 -1.0948  0.1376
  379MOL0     H51142  14.869   5.295   6.432  0.1278  0.8281 -0.0563
  379MOL0     H51143  14.861   5.085   6.657 -0.1250 -0.8833 -0.7648
  379MOL0     H51144  14.933   5.042   6.507  0.3207 -0.0503 -1.0547
  379MOL0     H51145  14.037   5.246   6.239 -0.4775 -0.1258  0.0558
  379MOL0     H51146  13.801   5.331   6.272 -1.5198 -0.9524 -0.9935
  379MOL0     H51147  13.269   5.180   6.046  0.7205 -0.4215  0.2369
  379MOL0     H51148  13.045   5.305   6.054 -1.8338  0.6820  1.1588
  379MOL0     H51149  11.280   5.630   5.805 -0.6691 -1.3009 -0.3829
  379MOL0     H51150  11.042   5.653   5.860 -0.0304 -2.7484 -1.4429
  379MOL0     H51151  10.664   5.742   5.829  0.9305  0.3593 -0.3338
  379MOL0     H51152  10.415   5.760   5.877  1.3590 -0.2797 -1.6645
  379MOL0     H51153  10.273   5.780   6.069 -0.8909  1.3303  3.6886
  379MOL0     H51154  10.166   5.815   5.921 -2.9574 -0.2608  1.1011
  379MOL0     H51155  10.049   5.994   6.047  0.1998  0.5347 -0.1021
  379MOL0     H51156  10.124   5.933   6.193  1.4117 -0.9066 -0.4491
  379MOL0     H51157  10.070   5.705   6.140 -1.3229 -0.6522 -1.7904
  379MOL0     H51158   9.951   5.755   6.025 -0.0678  1.1373 -0.1902
  379MOL0     H51159   9.930   5.884   6.302  3.0003 -1.1344  0.5240
  379MOL0     H51160   9.810   5.853   6.171  2.0579  1.2839 -2.4975
  379MOL0     H51161   9.791   5.489   6.388 -0.2436  1.6652  2.1616
  379MOL0     H51162  10.475   6.127   6.057  1.4291  0.8940 -0.5133
  379MOL0     H51163  10.834   6.120   6.056 -0.0809 -1.5330 -1.1562
  379MOL0     H51164  10.782   6.231   5.933  0.3094  1.4108  1.0614
  379MOL0     H51165  10.689   6.219   6.093 -2.2810 -0.4803 -0.5702
  380MOL0     O51166   5.980   3.690   9.529  0.2893  0.0940  0.3284
  380MOL0     C51167   5.887   3.702   9.448 -0.2445 -0.6678  0.7936
  380MOL0     O51168   5.890   3.726   9.317 -0.1806 -0.0656  0.0862
  380MOL0     C51169   6.013   3.751   9.256  0.6450  0.3880 -0.5535
  380MOL0     C51170   6.029   3.862   9.171  0.4421  0.6322 -0.3729
  380MOL0     C51171   6.155   3.878   9.112 -0.5126  0.0198  0.2440
  380MOL0     C51172   6.263   3.790   9.127  0.5206  0.1353  1.2945
  380MOL0     O51173   6.387   3.799   9.074 -0.3025  0.2734 -0.5253
  380MOL0     C51174   6.404   3.894   8.968  0.5201  0.3819  0.5956
  380MOL0     C51175   6.547   3.915   8.913 -0.2990  0.0256 -0.7546
  380MOL0     C51176   6.586   3.786   8.862  0.0961 -0.1711 -0.9265
  380MOL0     C51177   6.716   3.773   8.775  0.3239  0.0772 -0.0972
  380MOL0     C51178   6.693   3.817   8.628  0.2759 -0.2411  0.9467
  380MOL0     C51179   6.814   3.788   8.525  0.3949 -0.6624 -0.1352
  380MOL0     C51180   6.856   3.637   8.525  0.2876  0.7786 -0.3649
  380MOL0     C51181   6.742   3.533   8.525 -0.5551  0.3456 -0.2463
  380MOL0     N51182   6.644   3.565   8.418  0.0544 -0.3489  0.2381
  380MOL0     C51183   6.656   3.537   8.278 -0.0177  0.1525 -0.3863
  380MOL0     C51184   6.538   3.574   8.224  0.0252 -0.1127  0.3904
  380MOL0     C51185   6.494   3.573   8.076 -1.0315  0.1409  0.1017
  380MOL0     C51186   6.452   3.437   8.039  0.0458 -0.0624  1.1962
  380MOL0     C51187   6.386   3.427   7.899 -1.1498 -0.2825  0.3796
  380MOL0     C51188   6.485   3.476   7.803 -0.7446 -0.2402 -0.7820
  380MOL0     O51189   6.588   3.386   7.784  0.6512 -0.1318  0.1729
  380MOL0     C51190   6.712   3.439   7.761 -0.1923 -0.1450 -0.0997
  380MOL0     C51191   6.812   3.449   7.858 -0.2257 -0.1913 -0.0529
  380MOL0     C51192   6.925   3.532   7.832  0.0057  0.0674  0.3452
  380MOL0     C51193   6.949   3.585   7.704 -0.2900  0.8404  0.3857
  380MOL0     C51194   7.071   3.665   7.678 -0.4394  0.2148  0.7122
  380MOL0     O51195   7.092   3.715   7.549 -0.1192  0.0787 -0.5398
  380MOL0     C51196   7.205   3.779   7.532  0.1136 -0.5983  0.1358
  380MOL0     C51197   7.320   3.700   7.510  0.2440  0.1501 -0.7968
  380MOL0     C51198   7.441   3.763   7.483  0.7688  0.3034  0.0599
  380MOL0     C51199   7.446   3.906   7.470 -0.1041  0.2692  0.2471
  380MOL0     O51200   7.558   3.985   7.445  0.0043 -0.5569  0.6090
  380MOL0     C51201   7.684   3.956   7.520  1.4744  0.0546 -0.2086
  380MOL0     C51202   7.809   3.972   7.426  0.1621  0.2052  0.1995
  380MOL0     C51203   7.803   3.879   7.304  0.2286  0.2225  0.7212
  380MOL0     C51204   7.768   3.941   7.171  0.1886 -0.2929 -0.5220
  380MOL0     C51205   7.793   3.850   7.041  0.4329 -0.1342 -0.1512
  380MOL0     C51206   7.941   3.844   6.993 -0.0408  0.5594  0.3787
  380MOL0     C51207   7.992   3.994   6.956 -0.7198 -0.1221 -0.7621
  380MOL0     C51208   8.108   3.973   6.856 -0.3377 -0.3555  0.2128
  380MOL0    Cl51209   8.261   3.894   6.912 -0.2262  0.1445 -0.2056
  380MOL0     C51210   7.324   3.978   7.482  0.0180 -0.3267 -0.1624
  380MOL0     C51211   7.202   3.916   7.514 -1.7718 -0.6114  0.5136
  380MOL0     O51212   7.138   3.696   7.774  0.1202  0.4697  0.1219
  380MOL0     C51213   6.854   3.559   7.604 -0.5960  0.0334  0.6061
  380MOL0     C51214   6.741   3.484   7.631 -0.0140 -0.8638  0.3560
  380MOL0     N51215   6.448   3.606   8.321 -0.2450 -0.5836  0.0125
  380MOL0     N51216   6.511   3.605   8.432  0.2426 -0.5690  0.0062
  380MOL0     C51217   6.241   3.677   9.211  0.3907  0.0076  1.3207
  380MOL0     C51218   6.119   3.660   9.281 -0.0663 -0.1541  1.2010
  380MOL0     C51219   5.762   3.658   9.502  0.4621 -0.6214 -0.1558
  380MOL0     C51220   5.728   3.699   9.635  0.2919 -0.2026 -0.0546
  380MOL0     C51221   5.600   3.658   9.676  0.7132  0.2871 -0.5784
  380MOL0     C51222   5.523   3.560   9.611 -0.8050  0.8424 -0.1921
  380MOL0     O51223   5.403   3.521   9.658 -0.1920 -0.2865 -0.3942
  380MOL0     C51224   5.388   3.382   9.686  0.7685  0.6816  0.7702
  380MOL0     C51225   5.397   3.373   9.839 -0.2963 -0.5277 -0.5545
  380MOL0     C51226   5.411   3.231   9.895 -0.2418 -0.2781 -0.2479
  380MOL0     C51227   5.404   3.219  10.041 -0.1609  0.1551  0.2819
  380MOL0     C51228   5.266   3.245  10.089  0.6493  0.2114 -0.8483
  380MOL0     C51229   5.151   3.270  10.121  0.1802 -0.3161 -0.1532
  380MOL0     C51230   5.560   3.513   9.492 -1.2383 -0.5780  0.3703
  380MOL0     C51231   5.675   3.568   9.434  0.4560  0.4385  0.6245
  380MOL0     C51232   5.701   3.506   9.291 -0.3492 -0.2997  0.0132
  380MOL0     H51233   5.943   3.924   9.150  1.3832  1.9484 -0.4313
  380MOL0     H51234   6.163   3.966   9.048 -0.3254  0.9151  1.4453
  380MOL0     H51235   6.342   3.865   8.883 -0.5833  4.4545 -0.1813
  380MOL0     H51236   6.370   3.988   9.010  0.1469 -0.4226  2.1756
  380MOL0     H51237   6.614   3.949   8.993 -2.0421  3.2879 -0.4896
  380MOL0     H51238   6.533   3.986   8.831 -1.3073 -1.0127 -1.5229
  380MOL0     H51239   6.502   3.737   8.811  0.2611  0.2458 -1.6030
  380MOL0     H51240   6.600   3.721   8.949 -0.1921  0.0527 -0.7151
  380MOL0     H51241   6.795   3.825   8.829 -1.4941  1.3114  1.4978
  380MOL0     H51242   6.733   3.665   8.778 -1.9026 -0.3202 -0.0287
  380MOL0     H51243   6.607   3.768   8.582  0.6051 -1.7346  1.8509
  380MOL0     H51244   6.677   3.926   8.627  1.8581  0.0262  1.7484
  380MOL0     H51245   6.795   3.826   8.424  2.3053 -0.3796 -0.4260
  380MOL0     H51246   6.899   3.839   8.570  1.3603 -3.1356  1.0406
  380MOL0     H51247   6.930   3.617   8.602 -0.4829 -2.3889 -0.3206
  380MOL0     H51248   6.912   3.621   8.433  1.7145 -0.8410  0.7315
  380MOL0     H51249   6.786   3.437   8.497  0.1803  0.9043 -1.0722
  380MOL0     H51250   6.695   3.517   8.622  2.8299  0.1561  1.4726
  380MOL0     H51251   6.740   3.506   8.217  0.5161 -0.9224  0.8576
  380MOL0     H51252   6.409   3.641   8.065 -0.7420  0.7670  1.4595
  380MOL0     H51253   6.583   3.608   8.021 -0.9391  0.2964  0.3445
  380MOL0     H51254   6.529   3.360   8.051 -0.9254 -1.1505  0.6407
  380MOL0     H51255   6.380   3.406   8.116  1.2897  1.2254  2.9539
  380MOL0     H51256   6.289   3.478   7.895 -0.9765 -0.0431 -2.5142
  380MOL0     H51257   6.362   3.325   7.870  1.9977 -2.3441  4.0636
  380MOL0     H51258   6.525   3.573   7.835 -0.6252 -0.7174  0.5752
  380MOL0     H51259   6.441   3.483   7.703  2.4297  2.0438 -2.2372
  380MOL0     H51260   6.790   3.411   7.957 -1.3611  0.9939  0.1735
  380MOL0     H51261   6.985   3.572   7.914  1.4215  2.1242 -1.5588
  380MOL0     H51262   7.299   3.594   7.507 -0.7349  0.3595 -3.0888
  380MOL0     H51263   7.533   3.705   7.476 -0.1788 -1.4568  1.4138
  380MOL0     H51264   7.684   4.015   7.611  4.0678  1.0483 -0.7861
  380MOL0     H51265   7.676   3.853   7.556  1.9661  0.0278 -0.1764
  380MOL0     H51266   7.817   4.079   7.405  0.1358 -0.2762 -2.7007
  380MOL0     H51267   7.905   3.936   7.465  0.9992  2.2516  0.1197
  380MOL0     H51268   7.905   3.841   7.293 -0.1194 -0.4042 -0.4465
  380MOL0     H51269   7.741   3.790   7.317  0.6809  0.2979  4.7414
  380MOL0     H51270   7.820   4.036   7.162 -0.0388  0.0055  1.0054
  380MOL0     H51271   7.660   3.963   7.172 -0.7653 -3.8346 -3.5500
  380MOL0     H51272   7.731   3.890   6.960 -1.0777 -0.5070  0.7715
  380MOL0     H51273   7.758   3.747   7.057  1.2058  0.0061  3.3984
  380MOL0     H51274   8.003   3.790   7.066 -0.6351  0.2683  0.6710
  380MOL0     H51275   7.954   3.775   6.909  2.8848  1.2898  0.1164
  380MOL0     H51276   8.016   4.059   7.041 -0.7945  0.9949 -1.5763
  380MOL0     H51277   7.909   4.037   6.899 -1.4234 -1.6839 -0.9685
  380MOL0     H51278   8.078   3.904   6.776  1.8940  0.5996 -1.5790
  380MOL0     H51279   8.121   4.073   6.814 -0.7862 -0.4599 -0.1846
  380MOL0     H51280   7.328   4.087   7.477 -5.6383  0.1913  0.5041
  380MOL0     H51281   7.116   3.979   7.530  0.8211  3.5221 -0.4003
  380MOL0     H51282   6.865   3.583   7.499 -0.2919 -3.1992 -0.2311
  380MOL0     H51283   6.664   3.469   7.556  1.0522  0.2440 -1.0253
  380MOL0     H51284   6.321   3.605   9.222  0.2592 -0.6114 -1.1913
  380MOL0     H51285   6.104   3.568   9.336  2.5543 -0.6831  1.1637
  380MOL0     H51286   5.788   3.767   9.695 -2.1001  1.1357  0.9279
  380MOL0     H51287   5.546   3.701   9.760  1.4566  0.4611 -0.1866
  380MOL0     H51288   5.457   3.322   9.626 -0.6933  0.0964 -0.3862
  380MOL0     H51289   5.295   3.356   9.635  2.0601 -0.5872 -1.0637
  380MOL0     H51290   5.301   3.413   9.875  1.1056  1.9964  0.6987
  380MOL0     H51291   5.471   3.441   9.883 -1.9051  1.3496 -0.6331
  380MOL0     H51292   5.505   3.188   9.862 -1.1294 -2.2292 -0.3638
  380MOL0     H51293   5.332   3.169   9.851 -0.9042  0.7417 -0.5330
  380MOL0     H51294   5.423   3.117  10.074  1.9565 -0.0492 -1.3339
  380MOL0     H51295   5.479   3.290  10.079  0.3234 -0.6399  0.8402
  380MOL0     H51296   5.045   3.270  10.139  0.2232 -1.3075  0.1601
  380MOL0     H51297   5.502   3.442   9.434  1.8494 -2.1628 -1.0222
  380MOL0     H51298   5.803   3.471   9.276  0.1038  1.8406 -2.5314
  380MOL0     H51299   5.642   3.414   9.276 -0.1967 -0.4826  0.5127
  380MOL0     H51300   5.672   3.573   9.210 -1.5157  1.0579  1.4771
  381MOL0     O51301   8.313   9.196  10.363 -0.6357 -0.0713 -0.0944
  381MOL0     C51302   8.358   9.211  10.249 -0.1089 -0.8328 -0.3466
  381MOL0     O51303   8.289   9.190  10.130  0.4360 -0.3875  0.1246
  381MOL0     C51304   8.156   9.169  10.145  0.5368  0.1838  0.1077
  381MOL0     C51305   8.067   9.271  10.133  0.0211  1.0418 -0.2972
  381MOL0     C51306   7.932   9.235  10.148 -0.2652 -0.1429 -0.4658
  381MOL0     C51307   7.877   9.105  10.175 -0.1324  0.0582 -1.1704
  381MOL0     O51308   7.740   9.088  10.170  0.4201  0.1097 -0.3437
  381MOL0     C51309   7.676   8.974  10.233 -0.2952  1.5143 -0.0157
  381MOL0     C51310   7.534   9.013  10.282  0.1562 -0.5610  0.0967
  381MOL0     C51311   7.454   9.053  10.157  1.1256  0.0810 -0.3591
  381MOL0     C51312   7.313   9.057  10.209 -0.2754 -0.5282  0.0259
  381MOL0     C51313   7.201   9.085  10.106 -0.8833 -0.4440  0.8887
  381MOL0     C51314   7.059   9.074  10.166 -0.1231 -0.6194  0.1785
  381MOL0     C51315   6.941   9.073  10.060  0.7662  0.3012 -0.2084
  381MOL0     C51316   6.935   8.944   9.988  0.2010  0.2889 -0.1710
  381MOL0     N51317   6.955   8.833  10.078  0.2040  0.4086  0.3416
  381MOL0     C51318   6.865   8.800  10.178 -0.1603 -0.5872  0.0900
  381MOL0     C51319   6.933   8.719  10.266  0.4820  0.3113 -0.0359
  381MOL0     C51320   6.891   8.654  10.394  0.2723  0.0392  0.0728
  381MOL0     C51321   6.906   8.740  10.517 -0.8600 -0.8033 -0.5450
  381MOL0     C51322   7.049   8.810  10.523 -0.3512  0.6223  0.5957
  381MOL0     C51323   7.085   8.877  10.666 -0.1450  0.7288 -0.2278
  381MOL0     O51324   7.199   8.967  10.656 -0.2446 -0.0771 -0.5937
  381MOL0     C51325   7.328   8.916  10.694  0.2085 -0.7070 -0.4167
  381MOL0     C51326   7.444   8.996  10.670  0.1839  0.1337  0.5923
  381MOL0     C51327   7.571   8.940  10.693 -0.7775 -1.4452  0.8113
  381MOL0     C51328   7.595   8.812  10.746  0.6960  0.3966  0.2623
  381MOL0     C51329   7.729   8.750  10.762 -0.0573 -0.9452  0.1784
  381MOL0     O51330   7.829   8.810  10.685 -0.2848  0.2183 -0.7819
  381MOL0     C51331   7.960   8.774  10.686  0.1416  0.5141 -0.0414
  381MOL0     C51332   8.036   8.848  10.599  0.3534  0.2972 -0.5419
  381MOL0     C51333   8.177   8.839  10.604 -0.2369  0.7893  0.4458
  381MOL0     C51334   8.245   8.749  10.687  0.3445  0.0665 -0.0729
  381MOL0     O51335   8.378   8.726  10.667 -0.0237  0.1013 -0.5739
  381MOL0     C51336   8.461   8.728  10.791  0.6153 -0.4890 -0.0714
  381MOL0     C51337   8.605   8.736  10.771 -0.3516 -1.1028  0.8162
  381MOL0     C51338   8.643   8.862  10.680 -0.1664 -0.4326 -0.1689
  381MOL0     C51339   8.792   8.924  10.690  0.6638  0.9863 -0.4789
  381MOL0     C51340   8.819   8.976  10.825 -0.2048  0.2542 -0.1293
  381MOL0     C51341   8.962   8.999  10.850  0.4071  0.3236  0.5169
  381MOL0     C51342   9.026   9.103  10.768 -0.4056  0.7203 -0.6516
  381MOL0     C51343   9.072   9.057  10.629 -1.1295  0.1786  0.5554
  381MOL0    Cl51344   9.226   9.133  10.575 -0.3924  0.2812 -0.2643
  381MOL0     C51345   8.168   8.676  10.779  0.0975 -0.7460 -0.3691
  381MOL0     C51346   8.026   8.691  10.782 -0.4966  0.9463  0.1957
  381MOL0     O51347   7.748   8.660  10.834 -0.1016  0.0732  0.3792
  381MOL0     C51348   7.481   8.746  10.796 -0.1041  0.2572  0.8891
  381MOL0     C51349   7.356   8.803  10.765 -0.1324  0.6609 -0.5770
  381MOL0     N51350   7.055   8.693  10.196  1.0479  0.4290 -0.2219
  381MOL0     N51351   7.069   8.764  10.089 -1.0218  0.2186 -0.7884
  381MOL0     C51352   7.975   9.008  10.193 -0.1878 -0.5670  0.3775
  381MOL0     C51353   8.113   9.035  10.169 -0.0026 -0.0387 -0.9728
  381MOL0     C51354   8.499   9.231  10.230  0.1205  0.2086 -0.4444
  381MOL0     C51355   8.549   9.259  10.103  0.2568  0.1192  0.9838
  381MOL0     C51356   8.687   9.270  10.077  0.5720  0.1419 -1.6138
  381MOL0     C51357   8.780   9.269  10.185  0.0083 -0.1558  0.4092
  381MOL0     O51358   8.913   9.287  10.148 -0.5358 -0.8927 -0.0766
  381MOL0     C51359   9.006   9.229  10.244  0.4365 -0.1387 -0.4490
  381MOL0     C51360   9.146   9.227  10.181 -0.6804  0.0279 -0.9010
  381MOL0     C51361   9.203   9.352  10.121  0.5547 -0.6959  0.0544
  381MOL0     C51362   9.351   9.359  10.159  0.4647  0.3765  0.0241
  381MOL0     C51363   9.368   9.390  10.303  0.2945  0.3173 -0.7549
  381MOL0     C51364   9.391   9.405  10.422  0.4427  0.1292 -0.0780
  381MOL0     C51365   8.733   9.250  10.315  0.4246 -0.0985  0.4770
  381MOL0     C51366   8.594   9.223  10.335  0.4530  0.7523  0.1883
  381MOL0     C51367   8.559   9.191  10.480 -0.5045  0.5663 -0.1684
  381MOL0     H51368   8.107   9.367  10.101  2.5108 -0.1487 -1.0443
  381MOL0     H51369   7.855   9.308  10.128 -1.0938 -0.9921 -0.4867
  381MOL0     H51370   7.664   8.893  10.160  0.9467  0.2946  1.0608
  381MOL0     H51371   7.733   8.939  10.320  1.0141  2.3105 -0.5290
  381MOL0     H51372   7.522   9.075  10.372 -1.0910 -2.1905  1.1342
  381MOL0     H51373   7.497   8.920  10.327 -4.0301  0.8545  0.0361
  381MOL0     H51374   7.459   8.969  10.087 -1.9331 -1.1600  0.7197
  381MOL0     H51375   7.481   9.144  10.103 -0.8237  1.7154  1.2483
  381MOL0     H51376   7.284   8.969  10.266 -3.0896  1.3057  1.6730
  381MOL0     H51377   7.303   9.144  10.275  1.7346  0.4245 -0.8304
  381MOL0     H51378   7.195   9.178  10.049 -2.8758  0.1476  1.9622
  381MOL0     H51379   7.216   9.002  10.037 -1.9479 -1.8226  2.2366
  381MOL0     H51380   7.056   8.996  10.243  0.3404 -0.1896  0.6383
  381MOL0     H51381   7.034   9.160  10.229 -0.2656 -0.9557  0.5896
  381MOL0     H51382   6.956   9.147   9.981 -0.7545 -0.6181 -1.4031
  381MOL0     H51383   6.847   9.092  10.112 -1.3062  0.1690 -3.5883
  381MOL0     H51384   6.837   8.940   9.940 -0.3012  0.6928  0.7819
  381MOL0     H51385   7.011   8.945   9.909 -1.4432  2.4107 -1.8336
  381MOL0     H51386   6.766   8.841  10.195 -0.4296  0.0366 -2.5969
  381MOL0     H51387   6.784   8.635  10.383  0.0570  0.8252  0.6916
  381MOL0     H51388   6.947   8.562  10.413 -0.0337 -0.3903 -1.0041
  381MOL0     H51389   6.829   8.815  10.537  0.4773 -0.2677  3.5682
  381MOL0     H51390   6.907   8.666  10.598 -1.5073 -1.9756 -1.5762
  381MOL0     H51391   7.040   8.897  10.457 -2.8566  1.2571  1.6118
  381MOL0     H51392   7.128   8.741  10.493 -1.2440  0.4530 -1.5348
  381MOL0     H51393   7.100   8.799  10.742  2.3138  0.3976 -0.9580
  381MOL0     H51394   6.991   8.927  10.689 -0.5682 -0.0285 -0.2861
  381MOL0     H51395   7.432   9.086  10.610 -2.9329 -0.5015  0.0651
  381MOL0     H51396   7.663   8.993  10.670 -2.0357  0.8261  0.7073
  381MOL0     H51397   7.991   8.922  10.533  1.0409  0.4896 -0.7962
  381MOL0     H51398   8.247   8.895  10.544  1.3041 -0.1562  1.2845
  381MOL0     H51399   8.423   8.810  10.853 -0.9893 -0.2356 -1.3269
  381MOL0     H51400   8.446   8.637  10.850  2.8783 -0.0207  1.3460
  381MOL0     H51401   8.652   8.741  10.870  3.6813 -0.0052 -0.9355
  381MOL0     H51402   8.641   8.647  10.718  2.5032  1.4067 -1.9170
  381MOL0     H51403   8.617   8.850  10.575 -1.2696  2.2214 -0.2672
  381MOL0     H51404   8.577   8.945  10.708  0.8680 -0.3064  2.1286
  381MOL0     H51405   8.804   9.005  10.617  0.4160 -1.0665 -2.9484
  381MOL0     H51406   8.862   8.843  10.666 -1.5477 -1.3610  0.4799
  381MOL0     H51407   8.785   8.902  10.898 -1.2466  1.4235  0.6357
  381MOL0     H51408   8.761   9.065  10.853 -0.5120  0.5419 -1.6207
  381MOL0     H51409   8.962   9.030  10.955 -1.0114 -0.5404  0.8074
  381MOL0     H51410   9.011   8.901  10.848 -1.7777 -0.8248  0.1194
  381MOL0     H51411   9.119   9.135  10.815 -0.9115 -0.3952  1.2180
  381MOL0     H51412   8.969   9.196  10.768 -2.1807 -0.3273 -0.4535
  381MOL0     H51413   9.079   8.948  10.629  0.5098  0.1522 -2.6350
  381MOL0     H51414   8.996   9.076  10.553  1.5427 -0.1130 -2.3954
  381MOL0     H51415   8.213   8.603  10.846  3.3458 -0.8081 -2.3522
  381MOL0     H51416   7.969   8.628  10.850  0.8547 -1.1893 -0.5230
  381MOL0     H51417   7.487   8.652  10.851 -1.1182  0.6992  1.7942
  381MOL0     H51418   7.272   8.747  10.804  0.5847  0.8714  1.4084
  381MOL0     H51419   7.946   8.905  10.212  3.0538 -1.4315  1.1593
  381MOL0     H51420   8.193   8.964  10.192  0.3871  0.8095  0.4556
  381MOL0     H51421   8.485   9.271  10.016  2.8303 -1.8954 -1.3885
  381MOL0     H51422   8.722   9.284   9.975 -0.4685  0.4711 -1.9376
  381MOL0     H51423   8.981   9.125  10.266 -0.7370  0.0170 -0.9383
  381MOL0     H51424   9.015   9.282  10.339  1.4115  2.9861 -2.1537
  381MOL0     H51425   9.147   9.145  10.109  1.0654 -1.0872  0.3237
  381MOL0     H51426   9.208   9.188  10.262 -0.6003 -0.2301 -1.0869
  381MOL0     H51427   9.144   9.434  10.163 -0.9036 -0.8907 -1.4768
  381MOL0     H51428   9.197   9.350  10.012  0.8298 -0.9823  0.0450
  381MOL0     H51429   9.400   9.265  10.133 -2.4312 -1.2526  0.1595
  381MOL0     H51430   9.398   9.444  10.107  1.6125 -0.0677  0.3036
  381MOL0     H51431   9.416   9.420  10.525  2.6781 -1.6387 -0.2816
  381MOL0     H51432   8.796   9.247  10.404 -0.3163 -0.4439  0.9976
  381MOL0     H51433   8.498   9.276  10.513  0.3186  1.6746 -1.4305
  381MOL0     H51434   8.498   9.100  10.491 -0.7436  0.6700 -0.6234
  381MOL0     H51435   8.645   9.187  10.548 -1.0181  0.3402  0.4823
  382MOL0     O51436   1.720   3.453   0.354  0.0964  0.2361 -0.0944
  382MOL0     C51437   1.641   3.419   0.437 -0.3167  0.0885 -0.8603
  382MOL0     O51438   1.666   3.384   0.566 -0.6914 -0.7216  1.1506
  382MOL0     C51439   1.789   3.338   0.592  0.1179  0.4825 -0.9139
  382MOL0     C51440   1.906   3.407   0.564 -0.9139 -0.2217  0.0577
  382MOL0     C51441   2.034   3.342   0.602  0.5782  0.4917  0.5484
  382MOL0     C51442   2.028   3.217   0.666  0.0227  0.6381  0.1422
  382MOL0     O51443   2.152   3.168   0.709 -0.4618 -0.1476  0.3662
  382MOL0     C51444   2.150   3.044   0.792  0.7251 -0.3926  0.8570
  382MOL0     C51445   2.286   3.020   0.858  0.2979  0.2273 -1.0339
  382MOL0     C51446   2.300   2.875   0.907  0.1259 -0.6828 -0.4038
  382MOL0     C51447   2.281   2.760   0.810 -0.3004  0.4057  0.1294
  382MOL0     C51448   2.289   2.633   0.891  0.3031 -0.6952  0.2222
  382MOL0     C51449   2.429   2.595   0.928  0.6603 -0.4365 -0.0164
  382MOL0     C51450   2.443   2.458   0.997  0.3123  0.5303  0.3019
  382MOL0     C51451   2.586   2.415   1.037  0.4524 -0.9299  0.2159
  382MOL0     N51452   2.677   2.434   0.925  0.1518  0.1234 -0.1335
  382MOL0     C51453   2.691   2.343   0.819  1.6950  0.7579 -0.3558
  382MOL0     C51454   2.792   2.399   0.753  0.6911 -0.1918  0.4686
  382MOL0     C51455   2.852   2.348   0.628  1.1317 -0.3360  0.0712
  382MOL0     C51456   2.955   2.243   0.645  0.0718  0.2315 -0.1267
  382MOL0     C51457   3.081   2.283   0.722  1.0293 -0.9317 -0.4389
  382MOL0     C51458   3.178   2.167   0.738  0.5712 -0.2247 -0.2883
  382MOL0     O51459   3.223   2.124   0.614 -0.3997 -0.3872 -0.2302
  382MOL0     C51460   3.359   2.095   0.594  0.1004  0.2641 -0.3825
  382MOL0     C51461   3.469   2.136   0.669 -0.0511  0.2217  0.0130
  382MOL0     C51462   3.595   2.102   0.645 -0.7314  0.0058 -0.0628
  382MOL0     C51463   3.625   2.031   0.526  0.5274  0.5589  0.3443
  382MOL0     C51464   3.763   2.019   0.477 -0.1975 -0.2923 -0.5417
  382MOL0     O51465   3.868   2.032   0.566 -0.1372 -1.0664 -0.0324
  382MOL0     C51466   3.993   2.062   0.515  0.1919 -0.2167  0.3785
  382MOL0     C51467   4.100   1.970   0.519 -0.0624  0.4735  0.6824
  382MOL0     C51468   4.228   2.006   0.484 -0.2159 -0.3865 -0.1422
  382MOL0     C51469   4.262   2.127   0.437  1.0638 -0.9859 -0.2720
  382MOL0     O51470   4.386   2.160   0.408 -0.6106  0.6569  0.7784
  382MOL0     C51471   4.408   2.189   0.269  0.7059 -0.5544 -0.0418
  382MOL0     C51472   4.547   2.248   0.256  0.0981 -0.1260 -0.0115
  382MOL0     C51473   4.661   2.147   0.303 -0.2310  0.0716  0.4731
  382MOL0     C51474   4.799   2.221   0.301  0.8468  0.5123 -0.2843
  382MOL0     C51475   4.913   2.124   0.337 -0.2093 -0.0468 -0.2681
  382MOL0     C51476   5.039   2.200   0.360  0.0331  0.5248  0.5446
  382MOL0     C51477   5.094   2.272   0.234 -0.3154  0.3979  0.4824
  382MOL0     C51478   5.240   2.304   0.236  0.2179  0.2856 -0.1351
  382MOL0    Cl51479   5.273   2.447   0.327 -0.2214  0.0373 -0.0662
  382MOL0     C51480   4.162   2.216   0.413 -0.1976  0.0154  0.4654
  382MOL0     C51481   4.027   2.186   0.447  0.2672  0.2024  0.3305
  382MOL0     O51482   3.779   2.007   0.357 -0.5225 -0.3853  0.2379
  382MOL0     C51483   3.514   1.976   0.454 -0.1976  0.2529  0.4086
  382MOL0     C51484   3.385   2.017   0.486 -0.4813 -0.4444  0.2888
  382MOL0     N51485   2.845   2.509   0.819  0.4727 -0.0846  0.2658
  382MOL0     N51486   2.779   2.525   0.928  0.2813 -0.7467 -0.1847
  382MOL0     C51487   1.908   3.157   0.701 -0.2065  0.3998  1.2418
  382MOL0     C51488   1.790   3.214   0.660 -0.5903  0.5526 -0.3550
  382MOL0     C51489   1.489   3.413   0.413 -0.1470 -0.4423  0.2781
  382MOL0     C51490   1.414   3.300   0.439 -0.8419 -0.0590  0.6773
  382MOL0     C51491   1.279   3.291   0.410 -0.1086 -0.3604  0.8531
  382MOL0     C51492   1.209   3.390   0.349 -0.5714  0.0754 -0.0328
  382MOL0     O51493   1.081   3.370   0.307  0.0858  0.2845  0.2649
  382MOL0     C51494   0.989   3.489   0.290 -0.8103  0.8846  1.1791
  382MOL0     C51495   0.850   3.442   0.341 -0.5112  0.3385  0.5392
  382MOL0     C51496   0.764   3.358   0.244 -0.5284  0.1141 -0.2990
  382MOL0     C51497   0.663   3.280   0.322 -0.4292 -0.4000  0.3629
  382MOL0     C51498   0.579   3.209   0.231  0.4134  0.7035  0.2534
  382MOL0     C51499   0.512   3.140   0.157  0.6516  0.4061 -0.3895
  382MOL0     C51500   1.284   3.505   0.322 -0.6472  0.2888  0.3975
  382MOL0     C51501   1.419   3.518   0.353 -0.7187 -1.1556 -0.0973
  382MOL0     C51502   1.488   3.655   0.338  0.6405 -0.6718  0.0010
  382MOL0     H51503   1.905   3.504   0.514 -2.1195  0.5629  1.4874
  382MOL0     H51504   2.132   3.383   0.580  1.5783 -0.8459  2.3027
  382MOL0     H51505   2.069   3.043   0.865 -1.2466  1.3838 -1.1675
  382MOL0     H51506   2.127   2.970   0.715 -2.6207 -1.0842  2.3731
  382MOL0     H51507   2.300   3.083   0.947  2.3449 -1.5381 -0.0012
  382MOL0     H51508   2.357   3.050   0.780  0.3007  0.1364 -1.0658
  382MOL0     H51509   2.224   2.854   0.983  0.3209  1.4629  0.4622
  382MOL0     H51510   2.396   2.870   0.959  0.7524  3.7465 -0.7195
  382MOL0     H51511   2.179   2.771   0.772 -0.8065 -0.5302  1.1550
  382MOL0     H51512   2.356   2.771   0.731 -2.5210 -0.1861 -2.1905
  382MOL0     H51513   2.226   2.644   0.980 -1.1632 -0.8478 -0.7693
  382MOL0     H51514   2.252   2.549   0.832  1.1114 -1.2427  0.4753
  382MOL0     H51515   2.494   2.599   0.840 -0.4832 -1.1846 -0.9198
  382MOL0     H51516   2.461   2.666   1.004 -2.8240 -1.2787  2.4815
  382MOL0     H51517   2.396   2.382   0.933  1.6761 -0.3866  0.3457
  382MOL0     H51518   2.376   2.469   1.082 -1.1611  0.0356 -0.7411
  382MOL0     H51519   2.619   2.478   1.120 -1.7754  0.4306  0.1718
  382MOL0     H51520   2.586   2.316   1.084  1.4054  0.3152  3.0235
  382MOL0     H51521   2.637   2.253   0.791  2.8143 -0.4101  1.0478
  382MOL0     H51522   2.770   2.313   0.564  1.0672 -0.7746  0.3862
  382MOL0     H51523   2.904   2.430   0.577 -2.4434  1.3159 -1.2701
  382MOL0     H51524   2.911   2.146   0.667  0.3917  0.0961 -0.0718
  382MOL0     H51525   2.988   2.244   0.541  1.0976  1.9492  0.1755
  382MOL0     H51526   3.052   2.324   0.819  1.0093 -0.2718 -0.7168
  382MOL0     H51527   3.132   2.361   0.665  0.0640 -0.5926 -0.8621
  382MOL0     H51528   3.134   2.081   0.792  4.3703 -1.0426  1.8418
  382MOL0     H51529   3.257   2.201   0.805 -0.7581  2.5382  0.0018
  382MOL0     H51530   3.467   2.193   0.761  4.1118  2.7364 -1.1948
  382MOL0     H51531   3.673   2.137   0.712  0.1934 -3.8414  1.1232
  382MOL0     H51532   4.082   1.874   0.565  2.6137  0.1164  1.1839
  382MOL0     H51533   4.312   1.938   0.495 -0.3461 -0.6348 -0.6265
  382MOL0     H51534   4.408   2.092   0.219  2.8479 -0.4914 -0.2426
  382MOL0     H51535   4.335   2.259   0.226 -1.7664 -1.3748  2.4979
  382MOL0     H51536   4.556   2.285   0.154 -0.4260 -0.6959 -0.2697
  382MOL0     H51537   4.555   2.335   0.322 -1.9179  1.3038 -1.5155
  382MOL0     H51538   4.651   2.100   0.401  0.2289 -0.7381  0.1403
  382MOL0     H51539   4.670   2.063   0.234  1.1204 -0.8022  1.6531
  382MOL0     H51540   4.784   2.308   0.365 -3.2046  0.6492 -1.1509
  382MOL0     H51541   4.819   2.250   0.197  2.5978 -0.3661 -0.2227
  382MOL0     H51542   4.930   2.049   0.260  0.0455 -1.4642  1.1048
  382MOL0     H51543   4.887   2.068   0.427 -0.6188 -0.2370 -0.5035
  382MOL0     H51544   5.040   2.272   0.443  0.7447 -1.4836  2.3802
  382MOL0     H51545   5.113   2.127   0.394  0.3810  0.4391 -0.3903
  382MOL0     H51546   5.037   2.363   0.212 -0.9475 -0.0977  0.0563
  382MOL0     H51547   5.077   2.218   0.141 -1.5465  3.1924 -1.0443
  382MOL0     H51548   5.283   2.224   0.298 -1.1608 -0.4374 -0.0659
  382MOL0     H51549   5.281   2.317   0.136 -0.3192  3.6874 -0.0431
  382MOL0     H51550   4.190   2.308   0.363  0.5844  0.1643  1.1549
  382MOL0     H51551   3.946   2.258   0.438  1.0127  1.2070  1.4602
  382MOL0     H51552   3.537   1.928   0.359  0.7445  1.7145 -0.1428
  382MOL0     H51553   3.303   1.987   0.421  1.9399  0.1089 -3.3042
  382MOL0     H51554   1.902   3.055   0.738 -0.4015 -0.0412  0.0445
  382MOL0     H51555   1.696   3.164   0.681 -1.7053  2.1193 -1.3794
  382MOL0     H51556   1.460   3.212   0.483 -1.5237 -1.3519 -1.1017
  382MOL0     H51557   1.222   3.201   0.430  1.5792 -1.7506 -0.2980
  382MOL0     H51558   0.980   3.515   0.184  0.7879  1.1442  1.0836
  382MOL0     H51559   1.018   3.578   0.346 -3.1387  0.8449  2.5881
  382MOL0     H51560   0.782   3.527   0.351 -2.5139 -0.9182 -1.3909
  382MOL0     H51561   0.873   3.399   0.439  1.4534 -0.8567 -0.3842
  382MOL0     H51562   0.829   3.291   0.188  1.1929  0.9743  0.5663
  382MOL0     H51563   0.720   3.416   0.163  0.3568 -1.6628 -2.1422
  382MOL0     H51564   0.699   3.197   0.383  0.5799  1.3687  2.2970
  382MOL0     H51565   0.603   3.350   0.381  1.5928  1.0846  0.7588
  382MOL0     H51566   0.457   3.077   0.091 -0.5763  0.3061  0.6971
  382MOL0     H51567   1.236   3.579   0.258 -3.4421 -1.7419 -0.0229
  382MOL0     H51568   1.519   3.673   0.235  1.0909  1.8450  0.5125
  382MOL0     H51569   1.421   3.737   0.366 -0.1013 -0.4745 -2.2047
  382MOL0     H51570   1.577   3.668   0.400  0.5517 -0.4675  0.0897
  383MOL0     O51571   5.359   2.243   1.596  0.3059 -0.6488  0.1314
  383MOL0     C51572   5.291   2.148   1.557 -0.1110 -0.3545 -0.4394
  383MOL0     O51573   5.347   2.033   1.508 -0.2536 -0.5450  0.0148
  383MOL0     C51574   5.482   2.037   1.481 -0.1052 -1.0794 -0.6864
  383MOL0     C51575   5.562   1.927   1.532  0.1521 -0.1413 -0.9264
  383MOL0     C51576   5.700   1.924   1.506  0.9991  0.5830  0.1187
  383MOL0     C51577   5.759   2.031   1.437 -0.6511 -0.4977  0.1133
  383MOL0     O51578   5.895   2.033   1.421 -0.7256 -0.0384  0.2092
  383MOL0     C51579   5.954   2.123   1.325  0.8106  0.2757  0.0286
  383MOL0     C51580   6.107   2.134   1.339 -1.0735 -0.5083 -0.6882
  383MOL0     C51581   6.176   2.026   1.266  0.5700 -0.0727 -0.1473
  383MOL0     C51582   6.322   1.984   1.304 -0.7547 -0.2181 -0.5184
  383MOL0     C51583   6.421   2.095   1.246  0.2887 -0.0033 -0.0840
  383MOL0     C51584   6.568   2.059   1.278  0.0032 -0.6643 -0.0344
  383MOL0     C51585   6.673   2.179   1.275 -0.2539  0.7783  0.0786
  383MOL0     C51586   6.738   2.195   1.138  0.0742 -0.4538  0.6506
  383MOL0     N51587   6.868   2.271   1.143 -0.2454  0.2104  0.0892
  383MOL0     C51588   6.872   2.403   1.157  0.5911 -0.1091 -0.0766
  383MOL0     C51589   6.999   2.438   1.133  0.0488  1.0124  0.0074
  383MOL0     C51590   7.037   2.579   1.154 -0.6836 -0.3693  1.0090
  383MOL0     C51591   7.187   2.606   1.113 -0.9562  0.4519 -0.4847
  383MOL0     C51592   7.282   2.545   1.219 -0.4108  0.1780 -0.6194
  383MOL0     C51593   7.395   2.643   1.247  0.0393  0.0740 -0.4675
  383MOL0     O51594   7.416   2.646   1.388  0.3582  0.2747 -1.0131
  383MOL0     C51595   7.544   2.672   1.427 -0.6146  0.0779  0.6074
  383MOL0     C51596   7.627   2.774   1.363  0.1645 -0.0534 -0.5137
  383MOL0     C51597   7.754   2.810   1.404  0.3857  0.1221 -0.2514
  383MOL0     C51598   7.812   2.734   1.510 -0.8609 -0.6416  0.0615
  383MOL0     C51599   7.953   2.762   1.545 -0.7655  0.7951 -0.6768
  383MOL0     O51600   8.021   2.659   1.604  0.4504  0.8728  0.1000
  383MOL0     C51601   8.148   2.666   1.650 -1.0436  0.7213  0.0914
  383MOL0     C51602   8.186   2.785   1.716 -0.7905 -0.0098  0.3830
  383MOL0     C51603   8.310   2.794   1.779 -0.4265 -0.2739  0.1949
  383MOL0     C51604   8.403   2.682   1.765 -1.0878 -0.0997  0.3363
  383MOL0     O51605   8.531   2.700   1.812 -0.1568 -0.7329  0.8606
  383MOL0     C51606   8.632   2.632   1.742 -0.0834 -0.5993 -0.7991
  383MOL0     C51607   8.768   2.646   1.802 -0.2575 -0.5264  0.2407
  383MOL0     C51608   8.820   2.532   1.885  0.4716  0.7868 -0.2927
  383MOL0     C51609   8.945   2.569   1.958  0.1250  0.2855  0.9853
  383MOL0     C51610   8.966   2.474   2.077 -0.2940  0.1387 -0.7239
  383MOL0     C51611   9.102   2.506   2.151  0.0887  0.3707 -0.2968
  383MOL0     C51612   9.224   2.455   2.058 -0.1811  0.6966  0.1405
  383MOL0     C51613   9.346   2.455   2.154  0.7367  0.2680 -0.0656
  383MOL0    Cl51614   9.351   2.308   2.246  0.3909  0.1805 -0.2464
  383MOL0     C51615   8.357   2.562   1.707 -0.1380  0.0908 -0.9010
  383MOL0     C51616   8.228   2.555   1.650  0.0731 -0.4106  0.9425
  383MOL0     O51617   7.999   2.872   1.521 -0.6363  0.4323 -0.4085
  383MOL0     C51618   7.730   2.636   1.577 -0.4820  0.6947 -0.0171
  383MOL0     C51619   7.599   2.614   1.541  0.5904  0.1538 -0.2934
  383MOL0     N51620   7.077   2.325   1.123  0.3908  0.2924 -0.3231
  383MOL0     N51621   6.991   2.218   1.127 -0.7267 -1.2878 -0.7260
  383MOL0     C51622   5.673   2.135   1.387 -0.0523  0.3300  0.8035
  383MOL0     C51623   5.536   2.139   1.400 -0.5319  1.5902  0.7043
  383MOL0     C51624   5.144   2.157   1.554 -0.2682  0.2162  0.3969
  383MOL0     C51625   5.086   2.273   1.512 -0.1997 -0.3082 -1.0579
  383MOL0     C51626   4.945   2.302   1.531 -0.6055  0.5796 -0.2882
  383MOL0     C51627   4.856   2.197   1.559 -0.5586  0.3657 -0.7099
  383MOL0     O51628   4.723   2.230   1.549  0.1154  0.5529 -0.2661
  383MOL0     C51629   4.640   2.183   1.657 -0.0919  0.0472  0.4061
  383MOL0     C51630   4.622   2.297   1.753 -0.0541 -0.1146  0.0939
  383MOL0     C51631   4.515   2.405   1.715 -0.0147 -0.0535  0.2293
  383MOL0     C51632   4.550   2.488   1.593 -0.4883  0.3130 -0.1485
  383MOL0     C51633   4.440   2.581   1.559  0.0895  0.1600  0.3642
  383MOL0     C51634   4.344   2.655   1.549 -0.3888  0.1691  0.4992
  383MOL0     C51635   4.909   2.068   1.573  0.1881 -0.5504 -0.3320
  383MOL0     C51636   5.052   2.052   1.575 -0.2839 -0.5320  0.4101
  383MOL0     C51637   5.107   1.918   1.632  0.6752 -0.6931 -0.2093
  383MOL0     H51638   5.514   1.839   1.574  0.1182  0.4609  0.3398
  383MOL0     H51639   5.761   1.845   1.550 -1.2512 -1.6836 -0.5440
  383MOL0     H51640   5.923   2.094   1.224  0.0255  0.5269  0.1971
  383MOL0     H51641   5.916   2.224   1.345 -0.0043 -0.3585  1.8526
  383MOL0     H51642   6.127   2.138   1.447  3.3328  0.8373 -1.3685
  383MOL0     H51643   6.143   2.234   1.314  0.7299 -1.0307 -0.2913
  383MOL0     H51644   6.161   2.033   1.158 -0.2314 -1.8621 -0.1849
  383MOL0     H51645   6.117   1.935   1.283  1.4035 -0.4493  0.8248
  383MOL0     H51646   6.344   1.975   1.411 -0.9053  2.9953 -0.1188
  383MOL0     H51647   6.354   1.892   1.255  0.2403 -0.1074 -0.1136
  383MOL0     H51648   6.399   2.099   1.139 -1.8797  0.5603  0.3218
  383MOL0     H51649   6.398   2.191   1.294 -0.5370 -0.2153 -0.0286
  383MOL0     H51650   6.584   2.017   1.377  1.0568  0.5569  0.3340
  383MOL0     H51651   6.600   1.979   1.211  1.2328  0.8323 -1.3176
  383MOL0     H51652   6.751   2.159   1.349  1.3020  0.8720 -1.4886
  383MOL0     H51653   6.631   2.272   1.314 -1.3217  0.0694  0.6712
  383MOL0     H51654   6.748   2.094   1.097  1.6087 -0.2929  0.5592
  383MOL0     H51655   6.679   2.242   1.058 -1.4943 -1.3759  1.2311
  383MOL0     H51656   6.790   2.468   1.188  2.0070  1.5557  0.3407
  383MOL0     H51657   6.981   2.644   1.087  1.7660 -1.1031 -1.9929
  383MOL0     H51658   7.019   2.617   1.255  1.0810  1.7779  0.6075
  383MOL0     H51659   7.199   2.553   1.018  0.1574 -0.3734  0.0992
  383MOL0     H51660   7.199   2.712   1.090 -2.3120  0.8992  0.7173
  383MOL0     H51661   7.316   2.447   1.185 -1.4236 -0.3202 -0.2210
  383MOL0     H51662   7.223   2.522   1.308  1.8132  0.9563  1.1861
  383MOL0     H51663   7.379   2.747   1.216 -2.1685  0.4243  1.5266
  383MOL0     H51664   7.490   2.613   1.202  1.6772  0.6212  2.3629
  383MOL0     H51665   7.588   2.834   1.281 -1.6241  1.7442  1.5399
  383MOL0     H51666   7.810   2.893   1.362  1.3375 -0.4020 -0.0530
  383MOL0     H51667   8.122   2.871   1.736 -1.7210 -0.8382  1.0756
  383MOL0     H51668   8.330   2.890   1.827 -0.8143  1.1464 -2.2696
  383MOL0     H51669   8.614   2.524   1.749 -0.3401 -0.4431  1.8488
  383MOL0     H51670   8.634   2.666   1.638 -2.1247 -1.1017 -1.0454
  383MOL0     H51671   8.836   2.679   1.722 -1.5466  2.8308  0.3570
  383MOL0     H51672   8.762   2.734   1.866 -0.2073  0.0219 -0.4985
  383MOL0     H51673   8.742   2.489   1.949 -2.1010  3.8038 -1.1466
  383MOL0     H51674   8.843   2.452   1.814 -0.0018  0.0292  0.3890
  383MOL0     H51675   8.923   2.665   2.007 -1.4832 -0.3683  1.6192
  383MOL0     H51676   9.026   2.573   1.886 -1.4247 -0.9660 -0.9316
  383MOL0     H51677   8.970   2.367   2.056 -0.5934 -0.3016  1.2500
  383MOL0     H51678   8.881   2.496   2.142 -0.1231  5.0954 -1.7345
  383MOL0     H51679   9.089   2.612   2.175 -2.8163 -0.1563  0.8838
  383MOL0     H51680   9.096   2.451   2.246  0.3155  0.2276 -0.3628
  383MOL0     H51681   9.235   2.527   1.977  3.0122  2.2972  1.8024
  383MOL0     H51682   9.211   2.352   2.024  0.5627  1.1067 -1.4468
  383MOL0     H51683   9.435   2.457   2.089 -0.0772 -0.3011 -1.2228
  383MOL0     H51684   9.348   2.540   2.223  0.6356  0.4924 -0.3370
  383MOL0     H51685   8.423   2.476   1.701  1.1850  1.0164 -0.1441
  383MOL0     H51686   8.186   2.471   1.596 -2.4897  3.1424 -3.1936
  383MOL0     H51687   7.757   2.574   1.663 -0.9046  0.0328 -0.3519
  383MOL0     H51688   7.535   2.552   1.602  2.3286 -1.0219  0.4026
  383MOL0     H51689   5.709   2.222   1.334 -5.9004  1.6519 -1.8479
  383MOL0     H51690   5.478   2.216   1.350 -2.5621 -0.8322 -0.9229
  383MOL0     H51691   5.149   2.351   1.469  0.0700 -0.1640 -0.4155
  383MOL0     H51692   4.907   2.401   1.510 -1.4890  0.1862 -0.6246
  383MOL0     H51693   4.674   2.103   1.723 -1.1482  0.2823  1.2762
  383MOL0     H51694   4.542   2.147   1.625 -0.5793  0.5550  1.2613
  383MOL0     H51695   4.718   2.347   1.765  1.2545 -2.3394 -0.5709
  383MOL0     H51696   4.584   2.250   1.844 -2.5885  1.3513 -0.1114
  383MOL0     H51697   4.489   2.475   1.794 -2.8826  1.0510 -1.5334
  383MOL0     H51698   4.418   2.358   1.695  1.0268 -1.7811 -1.1355
  383MOL0     H51699   4.639   2.550   1.609 -1.9392  2.6306 -0.5750
  383MOL0     H51700   4.582   2.429   1.506  1.9683  1.6498 -0.2532
  383MOL0     H51701   4.258   2.720   1.543 -0.9536 -0.5890  0.1757
  383MOL0     H51702   4.831   1.994   1.592 -1.2453  0.5495 -1.6891
  383MOL0     H51703   5.026   1.844   1.621  0.0173  0.0579 -0.4903
  383MOL0     H51704   5.189   1.886   1.568  0.8197  1.9375 -1.4666
  383MOL0     H51705   5.134   1.908   1.737 -1.3782 -2.0369  0.2494
  384MOL0     O51706   7.952   6.094   6.500  0.8439 -0.1002  0.1235
  384MOL0     C51707   7.840   6.087   6.447  1.1196 -0.2114  0.2887
  384MOL0     O51708   7.817   6.080   6.309 -0.5184  0.4786  0.1075
  384MOL0     C51709   7.890   6.009   6.225 -0.2408 -0.1891 -0.4172
  384MOL0     C51710   7.880   6.035   6.087 -0.0808  0.3029  0.1382
  384MOL0     C51711   7.977   5.990   5.995 -0.6690 -0.1500  0.6092
  384MOL0     C51712   8.057   5.873   6.033  0.2799  0.4917 -0.1794
  384MOL0     O51713   8.148   5.814   5.948  0.1385 -0.1630 -0.4748
  384MOL0     C51714   8.151   5.842   5.807  0.1863 -0.0006 -0.7485
  384MOL0     C51715   8.237   5.737   5.738  1.0595 -0.1117 -0.3482
  384MOL0     C51716   8.256   5.768   5.587 -0.4845  0.4512 -0.1243
  384MOL0     C51717   8.360   5.869   5.541  0.3237 -0.2610  0.5097
  384MOL0     C51718   8.497   5.830   5.585 -0.8755  0.3501 -0.1744
  384MOL0     C51719   8.606   5.886   5.492  0.0104 -0.8038  0.1225
  384MOL0     C51720   8.589   6.040   5.474 -1.0299  0.2166 -0.3653
  384MOL0     C51721   8.609   6.115   5.607  0.6773  0.2494 -0.1129
  384MOL0     N51722   8.750   6.106   5.655 -0.4601 -0.5606 -0.1656
  384MOL0     C51723   8.860   6.128   5.583 -0.7442 -0.5420  0.0894
  384MOL0     C51724   8.964   6.107   5.668 -0.3677 -0.0580 -0.3640
  384MOL0     C51725   9.110   6.128   5.617  0.7787  0.0771  0.3353
  384MOL0     C51726   9.181   6.218   5.709  0.7076 -0.5557 -0.7930
  384MOL0     C51727   9.323   6.188   5.673  0.3586 -0.8069  0.0846
  384MOL0     C51728   9.413   6.285   5.757  0.2265  0.2287 -0.8225
  384MOL0     O51729   9.379   6.427   5.751  0.2659  0.2735  0.4478
  384MOL0     C51730   9.445   6.503   5.847 -0.6416 -0.2575 -0.3507
  384MOL0     C51731   9.390   6.631   5.866  0.3618  0.0503 -0.5337
  384MOL0     C51732   9.445   6.724   5.958 -0.9246  1.0413 -0.0901
  384MOL0     C51733   9.575   6.694   6.009  0.2785  0.0505  0.4481
  384MOL0     C51734   9.655   6.796   6.078  0.7525 -0.2130 -0.2547
  384MOL0     O51735   9.768   6.756   6.143 -0.7845  0.0537 -0.5839
  384MOL0     C51736   9.859   6.854   6.190  0.2001  0.2814 -1.2779
  384MOL0     C51737   9.927   6.942   6.110 -0.3004  0.3816 -0.2991
  384MOL0     C51738  10.011   7.041   6.161  0.8165 -0.4569 -0.4317
  384MOL0     C51739  10.032   7.037   6.295 -0.0052  0.1695  0.0388
  384MOL0     O51740  10.125   7.123   6.356 -0.0227 -0.5938 -0.7077
  384MOL0     C51741  10.212   7.214   6.278  0.4284  0.5621  0.2642
  384MOL0     C51742  10.322   7.277   6.371  0.4463  0.5281  0.1484
  384MOL0     C51743  10.263   7.393   6.453 -0.2959  0.0329 -0.3373
  384MOL0     C51744  10.377   7.492   6.505  0.0479  0.4430  0.2868
  384MOL0     C51745  10.320   7.640   6.526  0.0546 -0.6764  0.2984
  384MOL0     C51746  10.411   7.751   6.570 -0.5939 -0.4405 -1.0396
  384MOL0     C51747  10.468   7.734   6.710  0.0922 -0.4582 -0.4200
  384MOL0     C51748  10.570   7.847   6.732  0.4502 -0.0070  0.0037
  384MOL0    Cl51749  10.468   7.990   6.742  0.4157  0.0247  0.0744
  384MOL0     C51750   9.964   6.943   6.380  0.5724  0.0119 -0.0888
  384MOL0     C51751   9.874   6.858   6.330 -0.1378  0.0786  0.1923
  384MOL0     O51752   9.607   6.913   6.069 -0.5127  0.4093  0.1384
  384MOL0     C51753   9.631   6.562   5.991 -0.1255 -0.2458  0.7948
  384MOL0     C51754   9.567   6.468   5.913  0.6630 -0.6650  0.0195
  384MOL0     N51755   8.916   6.064   5.787 -0.4103  0.4636 -0.4027
  384MOL0     N51756   8.786   6.072   5.781 -0.2144 -0.4204  0.3564
  384MOL0     C51757   8.052   5.833   6.168 -0.9705  0.0702  0.5948
  384MOL0     C51758   7.976   5.905   6.261 -0.4011 -0.0726  0.4781
  384MOL0     C51759   7.719   6.128   6.521 -0.6486 -0.4479 -1.4661
  384MOL0     C51760   7.595   6.072   6.484 -0.1963  0.0212 -0.0275
  384MOL0     C51761   7.479   6.076   6.566 -0.0374 -0.4554 -0.2125
  384MOL0     C51762   7.484   6.159   6.683  0.9956 -0.6238 -0.4966
  384MOL0     O51763   7.390   6.161   6.783 -0.7793  0.0575  0.2870
  384MOL0     C51764   7.310   6.044   6.785  0.3883 -0.4383  0.6190
  384MOL0     C51765   7.230   6.044   6.918 -0.4328 -0.1936 -0.0659
  384MOL0     C51766   7.129   5.928   6.924  0.6033  0.5008  0.2500
  384MOL0     C51767   7.040   5.939   7.041  0.3090 -0.7105 -0.4858
  384MOL0     C51768   6.952   6.052   7.026 -0.0529 -0.4844 -0.3173
  384MOL0     C51769   6.870   6.139   7.031  0.0050  0.2149  0.4783
  384MOL0     C51770   7.605   6.226   6.717  0.1890 -0.1136  0.7428
  384MOL0     C51771   7.720   6.202   6.642  0.6159  0.0086  0.0952
  384MOL0     C51772   7.841   6.274   6.700 -0.1695  0.7036 -0.4147
  384MOL0     H51773   7.823   6.121   6.055  1.1974  0.9412 -0.5302
  384MOL0     H51774   7.984   6.027   5.894  1.5651 -0.0526  0.7481
  384MOL0     H51775   8.059   5.849   5.748  0.0500  2.1846 -0.3622
  384MOL0     H51776   8.209   5.935   5.799 -0.3205  0.5656  1.6222
  384MOL0     H51777   8.180   5.644   5.746  1.3714 -0.1563  2.2935
  384MOL0     H51778   8.334   5.728   5.788  0.6594 -3.0914  0.1094
  384MOL0     H51779   8.168   5.811   5.539 -0.2188 -0.2008 -1.2269
  384MOL0     H51780   8.281   5.675   5.535  1.5063  0.4470  0.7472
  384MOL0     H51781   8.374   5.873   5.433  0.9441 -0.9051  0.5583
  384MOL0     H51782   8.332   5.971   5.568  1.7048  0.6054 -1.1035
  384MOL0     H51783   8.514   5.853   5.691 -0.0718 -1.8230  0.2079
  384MOL0     H51784   8.513   5.722   5.580  0.8412  0.4267  2.0026
  384MOL0     H51785   8.701   5.864   5.542  0.2248 -1.1442 -0.4235
  384MOL0     H51786   8.604   5.833   5.396  0.9980  0.1981 -0.4651
  384MOL0     H51787   8.494   6.051   5.422 -0.7711  4.1956 -0.2709
  384MOL0     H51788   8.667   6.073   5.405 -1.1760  1.0295 -0.1504
  384MOL0     H51789   8.575   6.218   5.595 -0.3379  0.0018  0.4877
  384MOL0     H51790   8.550   6.062   5.683  2.3608 -0.5968  0.6592
  384MOL0     H51791   8.868   6.150   5.477 -0.9680 -1.9732 -0.2407
  384MOL0     H51792   9.156   6.030   5.598 -3.1169 -1.9252  0.1993
  384MOL0     H51793   9.112   6.174   5.518 -0.3902 -1.0785 -0.2605
  384MOL0     H51794   9.143   6.319   5.692 -0.1259 -1.0724 -2.1812
  384MOL0     H51795   9.167   6.195   5.815  0.6536 -1.9524 -1.0771
  384MOL0     H51796   9.349   6.200   5.567  1.1208  0.2191  0.3722
  384MOL0     H51797   9.354   6.087   5.702 -0.3863 -0.8097  0.8984
  384MOL0     H51798   9.513   6.273   5.715  0.6757 -0.0984  0.3046
  384MOL0     H51799   9.410   6.243   5.858  3.2189 -0.0023 -0.7589
  384MOL0     H51800   9.295   6.658   5.821 -0.9505  0.3971  2.2330
  384MOL0     H51801   9.402   6.822   5.972 -4.3478 -0.2734 -0.3336
  384MOL0     H51802   9.923   6.937   6.002  0.1820 -1.7878 -0.2552
  384MOL0     H51803  10.058   7.109   6.090 -3.2068  1.0398 -1.9544
  384MOL0     H51804  10.266   7.153   6.206 -1.8249  0.9131 -1.8537
  384MOL0     H51805  10.151   7.286   6.222 -0.8915 -2.1541 -2.0417
  384MOL0     H51806  10.364   7.195   6.430  0.9862 -0.1651 -1.1630
  384MOL0     H51807  10.398   7.324   6.307  0.1207  1.5991  0.5214
  384MOL0     H51808  10.186   7.451   6.401 -0.6261 -0.7938 -0.7838
  384MOL0     H51809  10.216   7.346   6.540 -2.3546  1.6124 -0.5336
  384MOL0     H51810  10.466   7.497   6.441 -0.2322  1.3000 -0.0478
  384MOL0     H51811  10.408   7.451   6.602 -0.7604 -2.4992 -0.6168
  384MOL0     H51812  10.227   7.642   6.584  0.1689 -2.0623  0.5753
  384MOL0     H51813  10.297   7.679   6.427  3.4068  2.1656  0.4843
  384MOL0     H51814  10.501   7.743   6.509  1.9331 -2.3274  2.5652
  384MOL0     H51815  10.367   7.850   6.556  1.1044  0.7415  1.2237
  384MOL0     H51816  10.524   7.641   6.703 -1.0810 -1.3630  1.3283
  384MOL0     H51817  10.384   7.729   6.780  1.1281  1.5515  1.0588
  384MOL0     H51818  10.608   7.834   6.834 -0.3909  0.6468  0.4114
  384MOL0     H51819  10.647   7.852   6.654 -0.9284 -2.9705 -1.7108
  384MOL0     H51820   9.991   6.949   6.485  0.5293 -0.1006 -0.0710
  384MOL0     H51821   9.819   6.794   6.398 -1.0309  0.1074 -0.4954
  384MOL0     H51822   9.726   6.537   6.035  1.2389  1.9230 -0.6751
  384MOL0     H51823   9.622   6.375   5.912  2.6847  0.3318  3.4153
  384MOL0     H51824   8.109   5.749   6.207 -0.5239 -0.8626 -1.8929
  384MOL0     H51825   8.000   5.882   6.364 -0.0228 -1.0592  0.1836
  384MOL0     H51826   7.600   6.006   6.397  2.4352 -2.3595  1.7357
  384MOL0     H51827   7.388   6.031   6.528 -0.7414  1.2686 -0.6505
  384MOL0     H51828   7.371   5.953   6.789 -2.2108 -2.3035  0.2043
  384MOL0     H51829   7.242   6.038   6.699 -0.3071 -1.4050  1.2199
  384MOL0     H51830   7.199   6.148   6.933  1.6551  1.0574 -3.2645
  384MOL0     H51831   7.300   6.023   6.999 -1.3035  0.4069  0.8567
  384MOL0     H51832   7.187   5.837   6.937  1.6885  1.4292  2.2538
  384MOL0     H51833   7.069   5.917   6.833 -0.5604 -2.3451  1.2134
  384MOL0     H51834   6.981   5.848   7.033 -2.0874  0.7574 -0.6436
  384MOL0     H51835   7.097   5.938   7.134  0.2848 -0.6333 -0.4699
  384MOL0     H51836   6.798   6.217   7.048  0.6046  1.3881 -1.8806
  384MOL0     H51837   7.614   6.298   6.798 -1.1140  0.9253  0.0213
  384MOL0     H51838   7.817   6.349   6.775 -1.2945 -1.5926  1.6574
  384MOL0     H51839   7.892   6.202   6.765  0.4771  3.4479  2.3049
  384MOL0     H51840   7.907   6.308   6.619  0.1273 -0.7806 -0.8388
  385MOL0     O51841  11.227   2.909   9.587  0.5232  0.2023  0.4830
  385MOL0     C51842  11.268   3.018   9.628 -0.4926  0.8753  0.6958
  385MOL0     O51843  11.195   3.100   9.715 -0.0712  0.7200  0.4901
  385MOL0     C51844  11.058   3.095   9.731  0.0781  0.0985 -0.1024
  385MOL0     C51845  11.008   3.131   9.849  0.6636  0.5360 -0.1665
  385MOL0     C51846  10.871   3.133   9.864  0.2955  0.2117 -0.0423
  385MOL0     C51847  10.776   3.072   9.772 -0.3458 -0.0931  0.5872
  385MOL0     O51848  10.643   3.069   9.808  0.1127  0.2339 -0.3892
  385MOL0     C51849  10.553   3.051   9.698 -0.1601  0.2962  0.0816
  385MOL0     C51850  10.401   3.089   9.733 -0.5430 -0.6279  0.2729
  385MOL0     C51851  10.376   3.213   9.823 -0.1286  0.0473  0.2102
  385MOL0     C51852  10.450   3.335   9.766 -0.2424  0.0782  0.2970
  385MOL0     C51853  10.416   3.468   9.843  0.3572  0.3049 -0.5861
  385MOL0     C51854  10.426   3.459   9.995  0.2208 -0.0439 -0.1150
  385MOL0     C51855  10.565   3.406  10.051  0.4282 -0.6360  0.3826
  385MOL0     C51856  10.685   3.486  10.025  0.3757 -0.3049  0.7921
  385MOL0     N51857  10.788   3.457  10.130 -0.2251  0.1386  0.0730
  385MOL0     C51858  10.918   3.496  10.109  0.3504 -0.1311 -0.3004
  385MOL0     C51859  10.988   3.436  10.204 -0.6844  0.5816 -0.6719
  385MOL0     C51860  11.130   3.457  10.246  0.1609  0.2751  0.1214
  385MOL0     C51861  11.218   3.359  10.181 -0.0703  0.4897  0.4426
  385MOL0     C51862  11.361   3.365  10.231 -1.0764  0.4053  0.6149
  385MOL0     C51863  11.455   3.300  10.133 -0.5091  0.7770  0.3944
  385MOL0     O51864  11.585   3.323  10.187  0.6513  0.1287 -0.2518
  385MOL0     C51865  11.683   3.309  10.095 -0.3244 -0.2217  0.6991
  385MOL0     C51866  11.693   3.203  10.007  0.4572  0.1892 -0.0374
  385MOL0     C51867  11.811   3.192   9.931 -0.1638 -0.8426  0.0840
  385MOL0     C51868  11.923   3.280   9.954  0.0321  0.6187  0.8244
  385MOL0     C51869  12.047   3.269   9.868  0.6516 -0.7668  0.3142
  385MOL0     O51870  12.037   3.175   9.766 -0.2741  0.1170  0.0418
  385MOL0     C51871  12.141   3.141   9.685  0.8797 -0.2194 -0.2050
  385MOL0     C51872  12.100   3.109   9.560  0.6762 -0.6473 -0.2260
  385MOL0     C51873  12.187   3.068   9.457  1.0083 -0.4996  0.1578
  385MOL0     C51874  12.324   3.063   9.479  0.2451 -0.1159  0.1387
  385MOL0     O51875  12.390   3.020   9.365  0.2286 -0.1388  0.8757
  385MOL0     C51876  12.527   2.990   9.365 -0.5341 -0.7392 -0.2092
  385MOL0     C51877  12.559   2.901   9.246  0.5462  0.1341  0.0506
  385MOL0     C51878  12.709   2.855   9.241  0.2081 -0.1709 -0.2263
  385MOL0     C51879  12.709   2.767   9.117 -0.3565  0.5783 -0.2498
  385MOL0     C51880  12.833   2.668   9.109 -0.4077 -0.8351 -0.6242
  385MOL0     C51881  12.818   2.595   8.977  0.2067 -0.4144  0.1988
  385MOL0     C51882  12.941   2.500   8.957 -0.4791 -0.2549  0.3628
  385MOL0     C51883  12.919   2.417   8.819 -0.1370 -0.2652  0.3073
  385MOL0    Cl51884  12.911   2.523   8.670  0.0666 -0.2313 -0.1634
  385MOL0     C51885  12.372   3.099   9.610  0.1050  0.4076  0.1368
  385MOL0     C51886  12.281   3.136   9.713  0.2902  0.0687 -0.0137
  385MOL0     O51887  12.133   3.350   9.878  0.6161 -0.4341 -0.0169
  385MOL0     C51888  11.900   3.385  10.041 -0.5285  0.0839 -0.4395
  385MOL0     C51889  11.788   3.398  10.112  0.7767 -0.9994  0.1106
  385MOL0     N51890  10.898   3.358  10.280  0.0045  0.1958  0.2432
  385MOL0     N51891  10.779   3.369  10.236 -0.1672  0.1025  0.1712
  385MOL0     C51892  10.836   3.034   9.649  0.2390 -0.3976  0.4451
  385MOL0     C51893  10.969   3.055   9.625  0.1236 -0.0457  0.1748
  385MOL0     C51894  11.397   3.072   9.583 -0.5819  0.0144 -0.3020
  385MOL0     C51895  11.441   3.193   9.639 -0.6948 -0.3882  0.4349
  385MOL0     C51896  11.564   3.247   9.586  0.8708  1.4729 -0.2983
  385MOL0     C51897  11.646   3.177   9.513  0.3142 -0.1859  0.1880
  385MOL0     O51898  11.776   3.212   9.488 -0.4144  0.4437  0.4352
  385MOL0     C51899  11.823   3.341   9.516  0.3695 -0.4396  0.2780
  385MOL0     C51900  11.914   3.379   9.393  0.7101 -0.2294  0.0393
  385MOL0     C51901  11.852   3.361   9.248 -0.8699  1.0282 -0.2469
  385MOL0     C51902  11.935   3.429   9.142  0.0402 -0.6501 -0.4908
  385MOL0     C51903  11.855   3.451   9.026 -0.1166  0.4253  0.2178
  385MOL0     C51904  11.792   3.484   8.927 -0.2145  0.3139  0.1334
  385MOL0     C51905  11.601   3.053   9.464  0.1229 -0.6985  0.3101
  385MOL0     C51906  11.480   2.995   9.496  0.0760  0.9987 -0.6129
  385MOL0     C51907  11.459   2.848   9.444  1.1478 -1.0258 -0.1917
  385MOL0     H51908  11.068   3.169   9.931 -2.2670 -0.3824  2.5936
  385MOL0     H51909  10.836   3.162   9.962 -1.9008 -1.5568 -0.1965
  385MOL0     H51910  10.578   3.120   9.617 -1.7643  0.6016 -0.1920
  385MOL0     H51911  10.558   2.949   9.661 -2.0883 -0.6359  2.1191
  385MOL0     H51912  10.361   3.000   9.784 -0.1364  0.1874  2.1011
  385MOL0     H51913  10.343   3.096   9.641  0.1014 -0.1709 -0.1013
  385MOL0     H51914  10.416   3.197   9.924  0.7414 -0.7607 -0.2426
  385MOL0     H51915  10.268   3.228   9.827  0.0254  1.3520 -0.1101
  385MOL0     H51916  10.557   3.322   9.752 -0.4843  0.1639 -2.0950
  385MOL0     H51917  10.417   3.352   9.663 -1.0365  0.0586  0.5424
  385MOL0     H51918  10.487   3.546   9.813 -1.6813  3.4079  2.0312
  385MOL0     H51919  10.318   3.509   9.818 -0.0604  1.6035  2.7236
  385MOL0     H51920  10.414   3.563  10.024 -3.1232 -0.3742  0.0442
  385MOL0     H51921  10.340   3.400  10.029 -1.4615  1.1818 -2.0382
  385MOL0     H51922  10.576   3.303  10.016  1.9490 -0.0491 -0.9918
  385MOL0     H51923  10.551   3.399  10.159  1.7799 -2.4353  0.4970
  385MOL0     H51924  10.732   3.471   9.927 -1.2912 -0.5415 -0.0111
  385MOL0     H51925  10.670   3.592  10.049 -1.9524 -0.6214  0.9348
  385MOL0     H51926  10.959   3.571  10.043 -0.3323  0.9239  0.4476
  385MOL0     H51927  11.157   3.562  10.236 -0.1095  0.4620  1.2482
  385MOL0     H51928  11.131   3.434  10.353  1.0588 -3.0983 -0.4642
  385MOL0     H51929  11.182   3.257  10.200 -0.5178  0.4741 -0.4199
  385MOL0     H51930  11.219   3.373  10.073  1.1650 -0.8997  0.2339
  385MOL0     H51931  11.363   3.321  10.331  1.2908  1.3254  1.0547
  385MOL0     H51932  11.389   3.470  10.242  2.5272  0.0293 -2.5862
  385MOL0     H51933  11.445   3.350  10.036 -0.9810 -0.5403 -0.2486
  385MOL0     H51934  11.448   3.193  10.115 -1.2100  0.8234  0.3515
  385MOL0     H51935  11.620   3.123   9.999  0.5138 -0.0305  1.4104
  385MOL0     H51936  11.825   3.109   9.863 -1.7031  0.0036 -1.3442
  385MOL0     H51937  11.994   3.106   9.542 -0.3216  2.9211  3.4301
  385MOL0     H51938  12.141   3.029   9.366 -1.7262 -1.5436  1.8506
  385MOL0     H51939  12.591   3.078   9.353  1.3724 -2.1046 -0.5338
  385MOL0     H51940  12.559   2.933   9.453  0.1005 -1.7722 -1.1006
  385MOL0     H51941  12.491   2.817   9.263  0.5165 -0.1219 -1.2598
  385MOL0     H51942  12.522   2.950   9.156  1.1420 -1.1100 -0.9018
  385MOL0     H51943  12.768   2.948   9.241  0.5227 -0.2877 -2.8093
  385MOL0     H51944  12.747   2.796   9.324  0.4267 -0.7990 -0.7687
  385MOL0     H51945  12.703   2.827   9.026 -2.6445 -1.7825 -1.7798
  385MOL0     H51946  12.620   2.704   9.126  0.3834 -0.7444 -1.6923
  385MOL0     H51947  12.840   2.594   9.189 -0.0567 -0.5724 -0.4094
  385MOL0     H51948  12.932   2.715   9.117 -1.0223  0.2997  0.6072
  385MOL0     H51949  12.719   2.548   8.978  0.3759 -0.8083 -0.5019
  385MOL0     H51950  12.799   2.670   8.899  1.8481  1.7971  1.8126
  385MOL0     H51951  12.951   2.432   9.042 -1.2524  1.3538  1.8003
  385MOL0     H51952  13.036   2.554   8.950 -2.6665  3.8844 -0.5542
  385MOL0     H51953  13.004   2.350   8.797 -0.9604 -1.1433 -0.3109
  385MOL0     H51954  12.824   2.363   8.827 -1.6648  2.3622  0.9289
  385MOL0     H51955  12.479   3.110   9.628  0.0488 -0.3386  0.9815
  385MOL0     H51956  12.317   3.151   9.815  0.1735 -1.2925  0.2452
  385MOL0     H51957  11.960   3.473  10.061 -0.0126 -0.6223  1.3584
  385MOL0     H51958  11.778   3.484  10.177 -1.8473 -2.0920  1.3071
  385MOL0     H51959  10.775   2.998   9.566 -1.1193  1.0471  0.7695
  385MOL0     H51960  10.999   3.022   9.526 -2.0425  2.6859 -1.5349
  385MOL0     H51961  11.372   3.236   9.711 -2.7004  1.5352 -2.4219
  385MOL0     H51962  11.596   3.334   9.641  1.6095  0.4407  0.9758
  385MOL0     H51963  11.883   3.338   9.607  0.7900 -2.6755 -0.0168
  385MOL0     H51964  11.740   3.410   9.536 -0.2250 -0.9871 -0.2197
  385MOL0     H51965  12.009   3.324   9.390  1.5381  1.1715 -1.8592
  385MOL0     H51966  11.936   3.485   9.409  0.2856 -0.1777  0.2968
  385MOL0     H51967  11.747   3.388   9.240 -0.3326  2.8895 -2.0299
  385MOL0     H51968  11.875   3.258   9.220  0.5459  1.3088 -0.1940
  385MOL0     H51969  11.969   3.525   9.181 -2.1806  0.1295 -0.2964
  385MOL0     H51970  12.028   3.373   9.132  0.4841 -0.1049  0.5047
  385MOL0     H51971  11.771   3.526   8.831  1.4739 -3.4513 -2.0879
  385MOL0     H51972  11.661   2.993   9.396 -0.9477 -0.9481 -0.4428
  385MOL0     H51973  11.366   2.834   9.388  0.5309  0.8044  0.2935
  385MOL0     H51974  11.540   2.822   9.376 -0.6895 -1.9066 -2.1530
  385MOL0     H51975  11.455   2.782   9.532 -1.7512  2.3173  2.4801
  386MOL0     O51976   4.521  10.629   8.171 -0.3783  0.1864  0.4001
  386MOL0     C51977   4.459  10.531   8.220  0.4867 -0.2518 -0.5611
  386MOL0     O51978   4.480  10.398   8.194 -0.2088 -0.2462 -0.2263
  386MOL0     C51979   4.521  10.360   8.074  0.2199 -0.3820 -0.2299
  386MOL0     C51980   4.497  10.426   7.958 -1.0598 -0.1102 -0.4710
  386MOL0     C51981   4.559  10.382   7.839 -0.9133  0.6445 -0.5992
  386MOL0     C51982   4.635  10.260   7.831  0.3738 -0.7087 -1.2976
  386MOL0     O51983   4.710  10.207   7.736 -0.7436 -0.8065  0.1476
  386MOL0     C51984   4.671  10.249   7.607  0.3309 -0.5902  0.0124
  386MOL0     C51985   4.755  10.182   7.497 -0.8923  1.2432 -0.4085
  386MOL0     C51986   4.905  10.213   7.529 -0.1602  0.8622 -0.1992
  386MOL0     C51987   5.004  10.131   7.437 -0.0862  0.3545  0.2592
  386MOL0     C51988   5.150  10.151   7.446 -0.3514  0.0332  0.1606
  386MOL0     C51989   5.226  10.089   7.329  0.0487 -0.4985  0.4935
  386MOL0     C51990   5.379  10.086   7.337 -0.3498  0.4291  0.6205
  386MOL0     C51991   5.425   9.976   7.430 -0.5293  0.3358  0.4081
  386MOL0     N51992   5.570   9.955   7.405 -0.6526 -0.4068  0.4418
  386MOL0     C51993   5.669  10.038   7.454 -0.1950 -0.1771  0.7603
  386MOL0     C51994   5.783   9.977   7.416  0.0295 -0.5473  0.7236
  386MOL0     C51995   5.925  10.027   7.450  0.7123  0.2128  0.5515
  386MOL0     C51996   5.959  10.167   7.387  0.5592  0.0811  0.3219
  386MOL0     C51997   6.098  10.232   7.435 -0.1101  0.2101 -0.4550
  386MOL0     C51998   6.214  10.138   7.421  0.6496 -0.0216 -0.6187
  386MOL0     O51999   6.333  10.210   7.462  0.4362 -0.4224  0.2695
  386MOL0     C52000   6.431  10.245   7.366 -0.7916  0.3532  0.0412
  386MOL0     C52001   6.550  10.286   7.414 -0.0219 -0.2097  0.4729
  386MOL0     C52002   6.652  10.322   7.330 -1.5251  0.0478 -0.3250
  386MOL0     C52003   6.639  10.324   7.191  0.2245 -0.0879 -0.0637
  386MOL0     C52004   6.755  10.352   7.108  0.1445 -0.0855  0.0274
  386MOL0     O52005   6.868  10.388   7.175 -0.0277 -0.5222 -0.7858
  386MOL0     C52006   6.974  10.467   7.131 -0.0920 -0.2326  0.3691
  386MOL0     C52007   6.979  10.532   7.002 -0.4392  0.0213 -0.2346
  386MOL0     C52008   7.098  10.613   6.959  0.1672  0.5264 -0.6274
  386MOL0     C52009   7.202  10.632   7.053  0.8507  0.5253 -0.4625
  386MOL0     O52010   7.292  10.734   7.026 -0.2900  0.3772  0.8872
  386MOL0     C52011   7.337  10.815   7.134 -0.4439 -0.2627 -0.5283
  386MOL0     C52012   7.301  10.967   7.093  0.0976  0.2526  0.4432
  386MOL0     C52013   7.206  11.028   7.186 -0.8414  0.3536  0.7431
  386MOL0     C52014   7.216  11.177   7.177 -0.0028  0.0457  1.0299
  386MOL0     C52015   7.355  11.236   7.231  0.0522  0.1947  0.3542
  386MOL0     C52016   7.343  11.379   7.277 -0.1708 -0.1339  0.1438
  386MOL0     C52017   7.491  11.435   7.311  1.0810 -0.2709 -0.2762
  386MOL0     C52018   7.491  11.595   7.330  0.6823  0.4433  0.1620
  386MOL0    Cl52019   7.347  11.655   7.425 -0.7654  0.2019  0.0102
  386MOL0     C52020   7.196  10.566   7.176 -0.2410 -0.0322  0.4435
  386MOL0     C52021   7.088  10.480   7.215  0.7334 -0.4342  0.7441
  386MOL0     O52022   6.754  10.340   6.988 -0.1949 -0.7066 -0.4817
  386MOL0     C52023   6.513  10.290   7.144 -0.4475  0.0033  1.0466
  386MOL0     C52024   6.407  10.248   7.228  0.5816  1.3081  0.0390
  386MOL0     N52025   5.754   9.859   7.342  0.0841  0.7082 -0.1730
  386MOL0     N52026   5.623   9.842   7.343 -0.4048 -0.4614 -0.2095
  386MOL0     C52027   4.656  10.191   7.954  0.6078  0.5868 -0.4107
  386MOL0     C52028   4.598  10.241   8.072  0.3318 -0.3149 -0.4076
  386MOL0     C52029   4.363  10.565   8.338 -0.5537  0.4454  0.1869
  386MOL0     C52030   4.381  10.690   8.397  0.2701  0.4571 -0.5396
  386MOL0     C52031   4.294  10.727   8.503 -0.2349  0.0767 -0.9715
  386MOL0     C52032   4.185  10.650   8.544  0.0717  0.1537  0.6361
  386MOL0     O52033   4.083  10.686   8.629  0.3463  0.6010 -0.0391
  386MOL0     C52034   4.083  10.798   8.711 -0.8559 -0.0694 -0.9804
  386MOL0     C52035   4.167  10.778   8.840 -0.6456  0.7003 -0.0874
  386MOL0     C52036   4.163  10.629   8.894 -0.1964  0.0854 -0.4687
  386MOL0     C52037   4.031  10.555   8.898  0.3237  0.3188  0.2488
  386MOL0     C52038   4.040  10.446   8.991 -0.0470  0.0275 -0.4105
  386MOL0     C52039   4.063  10.350   9.064  1.2052 -0.4981 -0.1820
  386MOL0     C52040   4.176  10.519   8.483 -0.9520  0.2065 -1.1833
  386MOL0     C52041   4.263  10.478   8.378 -0.7807  0.8677 -1.2260
  386MOL0     C52042   4.226  10.346   8.311 -0.0310  0.1056 -0.3179
  386MOL0     H52043   4.421  10.503   7.955 -2.1585 -1.1360 -0.2617
  386MOL0     H52044   4.534  10.429   7.745 -1.4445 -0.5149 -1.0625
  386MOL0     H52045   4.567  10.219   7.588  0.6367 -1.2669 -0.6166
  386MOL0     H52046   4.687  10.356   7.598 -0.9729 -0.4894 -1.5760
  386MOL0     H52047   4.733  10.219   7.396 -1.2486  2.0257 -0.0582
  386MOL0     H52048   4.737  10.075   7.510  0.2953  1.1441  0.5245
  386MOL0     H52049   4.927  10.204   7.636 -2.5033 -0.7084  0.2144
  386MOL0     H52050   4.932  10.313   7.494  0.1867  0.4209 -1.2151
  386MOL0     H52051   4.987  10.025   7.457 -0.4725  0.3076 -0.3187
  386MOL0     H52052   4.974  10.143   7.333 -0.4430  0.8207  0.4096
  386MOL0     H52053   5.189  10.253   7.434  0.5113 -0.3643 -0.5385
  386MOL0     H52054   5.189  10.108   7.539 -0.9852  2.1813  1.4917
  386MOL0     H52055   5.193   9.990   7.298  0.6392 -0.4250 -0.4107
  386MOL0     H52056   5.199  10.157   7.247  2.5088 -1.1761 -0.9738
  386MOL0     H52057   5.408  10.185   7.373  0.1163  0.4393  0.2278
  386MOL0     H52058   5.427  10.071   7.240  1.8507  0.6167  1.6318
  386MOL0     H52059   5.420   9.998   7.537 -0.8485 -1.9603  0.9178
  386MOL0     H52060   5.378   9.879   7.414  2.8144 -1.6002  1.2897
  386MOL0     H52061   5.655  10.135   7.501 -0.2611 -0.2998  0.9931
  386MOL0     H52062   5.937  10.026   7.559  0.3890 -0.6237  0.5887
  386MOL0     H52063   5.980   9.948   7.399 -1.9326 -0.5245 -1.3808
  386MOL0     H52064   5.959  10.158   7.277 -0.3138  3.0713 -0.0090
  386MOL0     H52065   5.880  10.240   7.408 -1.3234 -1.6847 -0.2396
  386MOL0     H52066   6.095  10.256   7.541 -1.3239  1.8415 -0.8192
  386MOL0     H52067   6.114  10.329   7.387  0.4798 -0.4740 -1.6846
  386MOL0     H52068   6.217  10.097   7.320 -0.5407 -1.8277  0.0394
  386MOL0     H52069   6.199  10.041   7.469 -1.8990  1.3485  1.6098
  386MOL0     H52070   6.578  10.301   7.518  2.3007  2.4978 -0.4027
  386MOL0     H52071   6.741  10.343   7.388 -1.8686 -2.7642  1.4505
  386MOL0     H52072   6.888  10.531   6.942  0.0906  0.7888 -1.0695
  386MOL0     H52073   7.102  10.673   6.868  1.6900  2.2297  0.4956
  386MOL0     H52074   7.299  10.783   7.231 -1.7773 -0.0570 -0.9652
  386MOL0     H52075   7.444  10.790   7.136 -0.9273 -2.6185 -0.7794
  386MOL0     H52076   7.398  11.017   7.097  1.9102 -3.0169  1.4861
  386MOL0     H52077   7.265  10.970   6.990  1.1436  3.9314  0.0476
  386MOL0     H52078   7.110  10.982   7.162  0.7059 -0.6249 -4.8793
  386MOL0     H52079   7.232  11.005   7.290 -0.6188  0.7250  0.7718
  386MOL0     H52080   7.135  11.220   7.237 -0.4425  0.2500  0.3115
  386MOL0     H52081   7.210  11.215   7.075 -1.7661  3.2738  2.1860
  386MOL0     H52082   7.417  11.240   7.141  0.1154  4.8790  0.3668
  386MOL0     H52083   7.396  11.169   7.307 -1.1294 -0.9286  0.0316
  386MOL0     H52084   7.294  11.431   7.194 -2.3271 -1.7411  0.2966
  386MOL0     H52085   7.281  11.389   7.367  0.0272  3.3949  0.0352
  386MOL0     H52086   7.563  11.408   7.234  0.6302  0.9681 -1.1597
  386MOL0     H52087   7.523  11.397   7.408  1.6817  0.4900 -0.1686
  386MOL0     H52088   7.586  11.612   7.382  2.3498 -2.7436 -1.5023
  386MOL0     H52089   7.481  11.640   7.231 -2.8200 -1.2132 -0.4089
  386MOL0     H52090   7.279  10.571   7.246 -0.2055  0.0333  0.3961
  386MOL0     H52091   7.090  10.435   7.313  1.3739 -1.6994  0.1763
  386MOL0     H52092   6.481  10.293   7.040  1.9162 -0.1100  0.2534
  386MOL0     H52093   6.317  10.215   7.177  1.5467 -1.7369  0.1075
  386MOL0     H52094   4.701  10.094   7.934 -1.4341 -0.4265 -0.3053
  386MOL0     H52095   4.603  10.202   8.173 -3.6197  1.4580  0.7202
  386MOL0     H52096   4.457  10.753   8.350  1.5621  0.1245  1.0345
  386MOL0     H52097   4.303  10.824   8.550 -0.4256 -0.4822  0.2643
  386MOL0     H52098   3.978  10.815   8.737 -1.0236 -2.8876  0.5467
  386MOL0     H52099   4.125  10.881   8.653 -2.1128  3.0536  2.2056
  386MOL0     H52100   4.132  10.846   8.919  1.7058  3.3898 -1.1592
  386MOL0     H52101   4.264  10.819   8.810 -0.7895  0.1136 -1.4097
  386MOL0     H52102   4.203  10.645   8.994 -1.8292  1.4656  0.0147
  386MOL0     H52103   4.231  10.563   8.838  1.2377  0.6546  0.5581
  386MOL0     H52104   3.954  10.621   8.938  0.7667  0.4474  0.8964
  386MOL0     H52105   3.995  10.509   8.805 -0.0736 -2.8095  1.7951
  386MOL0     H52106   4.073  10.273   9.138 -2.4190  2.5313  4.0347
  386MOL0     H52107   4.095  10.453   8.512  0.5868 -1.9035 -1.4516
  386MOL0     H52108   4.307  10.273   8.325 -2.4045 -2.4324  1.1382
  386MOL0     H52109   4.139  10.296   8.355  0.0841 -2.5137 -2.8037
  386MOL0     H52110   4.202  10.353   8.205  2.4103 -4.0808 -1.3578
  387MOL0     O52111   7.799   0.433   9.919 -0.3492  0.2832  0.5707
  387MOL0     C52112   7.745   0.332   9.877 -1.0227  0.1177 -0.5046
  387MOL0     O52113   7.820   0.221   9.835 -0.4059 -0.0167  0.5015
  387MOL0     C52114   7.955   0.219   9.854 -0.0635 -0.2163  1.0018
  387MOL0     C52115   8.038   0.306   9.774  0.2272  0.1212 -0.0894
  387MOL0     C52116   8.179   0.297   9.775  0.3097  0.4378 -0.0196
  387MOL0     C52117   8.235   0.196   9.846 -0.1589 -0.2070  0.6319
  387MOL0     O52118   8.369   0.184   9.855 -0.8192  1.0651 -0.0526
  387MOL0     C52119   8.430   0.164   9.733  0.3670 -0.6021  0.7624
  387MOL0     C52120   8.582   0.161   9.745 -0.4123 -0.7515 -0.0259
  387MOL0     C52121   8.645   0.045   9.815  0.3003 -0.8168 -0.1517
  387MOL0     C52122   8.795   0.085   9.823  0.3174 -0.7455 -0.8558
  387MOL0     C52123   8.880  -0.037   9.885 -0.0274  0.3614 -0.6483
  387MOL0     C52124   9.024   0.013   9.913 -0.1131 -0.3500 -0.3201
  387MOL0     C52125   9.121  -0.099   9.950 -0.6676  0.4946  1.2260
  387MOL0     C52126   9.094  -0.173  10.083 -0.2105 -0.0981  0.4259
  387MOL0     N52127   9.171  -0.118  10.197 -1.1478  0.2595  0.3763
  387MOL0     C52128   9.302  -0.079  10.189 -0.1746  0.7689 -0.8171
  387MOL0     C52129   9.339  -0.035  10.319  0.3741 -0.0626 -0.1055
  387MOL0     C52130   9.465   0.034  10.362 -0.5320  0.7093 -0.2126
  387MOL0     C52131   9.455   0.149  10.472  0.2389  0.5829 -0.1792
  387MOL0     C52132   9.573   0.249  10.477 -0.4804 -0.5366  0.1921
  387MOL0     C52133   9.598   0.300  10.615  1.1253  1.0576 -0.6274
  387MOL0     O52134   9.699   0.396  10.611 -0.3055 -0.6497 -0.0853
  387MOL0     C52135   9.829   0.368  10.648  0.5781  1.1425 -0.2229
  387MOL0     C52136   9.883   0.243  10.668  0.3724 -0.1632  0.4190
  387MOL0     C52137  10.014   0.224  10.715 -0.3036  0.2606  0.1914
  387MOL0     C52138  10.092   0.330  10.740  0.4855 -0.3503 -0.8084
  387MOL0     C52139  10.233   0.302  10.779  0.3092  0.4514 -0.0292
  387MOL0     O52140  10.317   0.416  10.801  0.0759  0.5867  0.4283
  387MOL0     C52141  10.448   0.387  10.832 -0.7546  0.6973 -0.5703
  387MOL0     C52142  10.502   0.425  10.954 -0.0678 -0.2736  0.0321
  387MOL0     C52143  10.635   0.406  10.981 -0.9679 -0.1963 -0.2238
  387MOL0     C52144  10.723   0.352  10.887 -0.2876  0.0350  0.3647
  387MOL0     O52145  10.855   0.339  10.933  0.3601  0.2364 -0.2217
  387MOL0     C52146  10.936   0.242  10.857  0.0280  0.8811  0.1272
  387MOL0     C52147  11.070   0.202  10.922 -0.4547 -0.7088 -0.8291
  387MOL0     C52148  11.179   0.141  10.828 -0.1827 -0.7667  0.2499
  387MOL0     C52149  11.321   0.186  10.849  0.4241 -0.5422  0.9571
  387MOL0     C52150  11.434   0.085  10.821  0.6657  0.1339 -0.3135
  387MOL0     C52151  11.429   0.029  10.676 -0.3643  0.0716  0.1936
  387MOL0     C52152  11.554  -0.040  10.650 -0.5460 -0.3575  0.0955
  387MOL0     C52153  11.543  -0.092  10.507  0.0988 -0.5777 -1.1435
  387MOL0    Cl52154  11.553   0.026  10.380  0.3480  0.2016  0.0084
  387MOL0     C52155  10.675   0.326  10.756  0.6708 -0.5812  0.3883
  387MOL0     C52156  10.542   0.349  10.725 -0.1225  0.1677  0.6930
  387MOL0     O52157  10.273   0.187  10.782  0.5416  0.1437  0.3087
  387MOL0     C52158  10.034   0.460  10.726 -0.3979  0.0612  0.2428
  387MOL0     C52159   9.906   0.477  10.683  1.0701  0.1406  0.5918
  387MOL0     N52160   9.228  -0.051  10.394  0.1711 -0.0546 -0.3303
  387MOL0     N52161   9.130  -0.090  10.322 -0.3199 -0.2435 -0.4039
  387MOL0     C52162   8.157   0.112   9.922  0.0875 -0.1465  0.1421
  387MOL0     C52163   8.019   0.123   9.923 -0.6775  0.9166  0.0380
  387MOL0     C52164   7.592   0.333   9.879 -0.8536 -0.6547 -0.7877
  387MOL0     C52165   7.522   0.448   9.854  0.2876 -0.6904 -0.6287
  387MOL0     C52166   7.381   0.448   9.844 -0.8804 -1.5187 -0.6421
  387MOL0     C52167   7.305   0.335   9.860 -0.8638 -0.1133 -0.0767
  387MOL0     O52168   7.166   0.343   9.832  0.2970 -0.5118  0.9259
  387MOL0     C52169   7.078   0.241   9.892  0.1204 -0.4554 -0.3302
  387MOL0     C52170   6.933   0.290   9.886  0.0383 -0.2250 -0.0656
  387MOL0     C52171   6.837   0.203   9.960  0.7363 -0.2271  0.0777
  387MOL0     C52172   6.724   0.172   9.859 -0.2467 -0.0657  0.1637
  387MOL0     C52173   6.611   0.116   9.926 -0.7745 -0.7154 -0.3130
  387MOL0     C52174   6.518   0.072   9.986  0.1334  0.4620  0.0392
  387MOL0     C52175   7.377   0.214   9.886 -0.0565 -0.0424 -1.1091
  387MOL0     C52176   7.520   0.211   9.887 -0.0165  1.0293 -0.2578
  387MOL0     C52177   7.587   0.076   9.922  0.8304  0.5244 -0.2577
  387MOL0     H52178   7.985   0.378   9.712  0.3078  4.4175  4.2648
  387MOL0     H52179   8.246   0.360   9.718  1.0108 -0.7128 -0.5226
  387MOL0     H52180   8.397   0.070   9.690  1.3846  0.5629 -2.8915
  387MOL0     H52181   8.398   0.245   9.666  0.9094 -0.6934  0.3852
  387MOL0     H52182   8.605   0.252   9.799 -0.9963 -1.4490  1.4595
  387MOL0     H52183   8.622   0.169   9.643 -0.2413 -1.2082  0.0048
  387MOL0     H52184   8.630  -0.057   9.778 -1.6638 -1.3865  2.0098
  387MOL0     H52185   8.603   0.040   9.915 -0.2300 -1.7670 -0.4114
  387MOL0     H52186   8.835   0.091   9.721 -0.9861  0.3038 -1.3313
  387MOL0     H52187   8.811   0.182   9.870 -0.1829 -0.3844 -1.4223
  387MOL0     H52188   8.826  -0.069   9.975  1.4070  3.1036  1.3276
  387MOL0     H52189   8.882  -0.127   9.823  1.7168  1.4624 -2.2879
  387MOL0     H52190   9.058   0.068   9.825 -0.6711 -0.8682 -0.8735
  387MOL0     H52191   9.019   0.081   9.999 -2.5197  0.0774 -0.7191
  387MOL0     H52192   9.219  -0.051   9.944 -0.1045 -0.6849  0.5712
  387MOL0     H52193   9.119  -0.174   9.870 -0.5094 -1.6136  3.1162
  387MOL0     H52194   8.988  -0.180  10.109 -0.2254  1.9170  1.0431
  387MOL0     H52195   9.124  -0.276  10.057  2.8328  1.1589 -1.6452
  387MOL0     H52196   9.369  -0.076  10.103 -0.7663  1.0969 -1.2717
  387MOL0     H52197   9.529  -0.048  10.397 -0.6720  0.3070 -0.8763
  387MOL0     H52198   9.513   0.075  10.272 -0.0449 -1.0914 -0.8251
  387MOL0     H52199   9.357   0.197  10.466 -1.3686 -2.6183 -1.4453
  387MOL0     H52200   9.464   0.089  10.563  1.4361 -2.1152 -1.9461
  387MOL0     H52201   9.540   0.332  10.414 -0.2248 -1.0384 -0.6100
  387MOL0     H52202   9.671   0.210  10.447  0.8947  3.6730 -1.5337
  387MOL0     H52203   9.614   0.215  10.683  1.1163  0.8872 -0.8365
  387MOL0     H52204   9.501   0.339  10.647  0.4375 -1.1042  0.1233
  387MOL0     H52205   9.809   0.164  10.679 -0.3810  0.3505 -0.7981
  387MOL0     H52206  10.054   0.126  10.740  0.5741  0.6060  0.1718
  387MOL0     H52207  10.443   0.455  11.040 -0.4140  1.5730 -0.7873
  387MOL0     H52208  10.677   0.439  11.075 -0.3126  1.5617 -1.0721
  387MOL0     H52209  10.876   0.150  10.861 -0.5875  1.2486 -0.4540
  387MOL0     H52210  10.947   0.257  10.749  3.3456  0.2419  0.2771
  387MOL0     H52211  11.106   0.298  10.961 -4.3971  0.4998  0.2931
  387MOL0     H52212  11.055   0.137  11.009 -0.9906 -0.1349 -0.4880
  387MOL0     H52213  11.171   0.033  10.835  0.1344 -0.7919  0.2548
  387MOL0     H52214  11.151   0.179  10.729  1.2773  2.1835  0.8250
  387MOL0     H52215  11.328   0.232  10.948 -2.7924 -2.0707  1.9898
  387MOL0     H52216  11.337   0.272  10.783 -2.9354 -0.7148 -0.2823
  387MOL0     H52217  11.410  -0.005  10.879 -0.1932 -0.1656 -1.1080
  387MOL0     H52218  11.530   0.122  10.860  1.0577 -2.0058  0.9227
  387MOL0     H52219  11.345  -0.040  10.665 -0.0222 -0.0646 -2.3369
  387MOL0     H52220  11.419   0.110  10.603 -0.0450  1.0724  1.2333
  387MOL0     H52221  11.567  -0.120  10.723 -0.7101  0.9070  1.5526
  387MOL0     H52222  11.647   0.016  10.657  0.7587 -2.4249  0.1368
  387MOL0     H52223  11.611  -0.178  10.501 -0.7446 -1.3633  0.1150
  387MOL0     H52224  11.450  -0.147  10.493  0.6397 -2.3340  1.3845
  387MOL0     H52225  10.742   0.325  10.670 -0.1974  5.4616 -0.8010
  387MOL0     H52226  10.519   0.344  10.619 -1.1388 -2.7304  0.9831
  387MOL0     H52227  10.096   0.543  10.758  1.9907 -0.9532 -1.4429
  387MOL0     H52228   9.876   0.580  10.665  2.3483  0.3085 -0.8189
  387MOL0     H52229   8.206   0.039   9.987  0.5666  1.6958  1.9692
  387MOL0     H52230   7.963   0.051   9.982 -0.0976 -0.2204 -0.7516
  387MOL0     H52231   7.570   0.541   9.825 -1.8792  0.7284  0.1028
  387MOL0     H52232   7.336   0.539   9.806  1.8557 -0.5279 -1.7257
  387MOL0     H52233   7.116   0.229   9.995  0.7201  1.2094 -0.3251
  387MOL0     H52234   7.092   0.145   9.841  1.4864  0.7962 -2.4553
  387MOL0     H52235   6.910   0.290   9.779 -0.8198 -0.6875  0.1131
  387MOL0     H52236   6.916   0.389   9.929 -0.9814 -1.0186  1.4572
  387MOL0     H52237   6.790   0.259  10.041 -1.0144 -1.4419 -0.0332
  387MOL0     H52238   6.890   0.115   9.998  2.8169  0.6435 -0.6711
  387MOL0     H52239   6.694   0.263   9.806  1.8828 -1.2065 -3.3644
  387MOL0     H52240   6.760   0.101   9.784  2.0240  0.7860  0.3597
  387MOL0     H52241   6.425   0.043  10.031 -0.8758  0.3361 -2.0239
  387MOL0     H52242   7.324   0.120   9.899 -2.4728  1.2450 -0.8718
  387MOL0     H52243   7.654   0.037   9.845  1.4321  0.4093  0.3141
  387MOL0     H52244   7.632   0.094  10.020  2.4500  0.2980 -0.9241
  387MOL0     H52245   7.502   0.007   9.934 -0.7574  2.1874 -1.3569
  388MOL0     O52246   9.921   3.030   0.003 -0.2480  0.1279 -0.0914
  388MOL0     C52247   9.878   3.084   0.108  0.4643  0.1429 -0.0459
  388MOL0     O52248   9.951   3.162   0.200 -0.6761 -0.0427 -0.4548
  388MOL0     C52249  10.089   3.156   0.179 -0.6270 -1.1355 -0.4610
  388MOL0     C52250  10.164   3.042   0.216 -0.5715 -0.8232 -0.0884
  388MOL0     C52251  10.303   3.040   0.193  0.3649  0.0773 -0.5985
  388MOL0     C52252  10.371   3.152   0.139  0.5112 -1.2533  0.3234
  388MOL0     O52253  10.510   3.148   0.129  0.6313 -0.0170  0.1597
  388MOL0     C52254  10.576   3.245   0.046 -0.1959  0.0932  0.0068
  388MOL0     C52255  10.720   3.190   0.007  0.1770  0.4327  0.1877
  388MOL0     C52256  10.803   3.128   0.127  0.3264  0.5433 -0.0479
  388MOL0     C52257  10.930   3.063   0.075 -0.0388  0.1363 -0.4343
  388MOL0     C52258  11.039   3.053   0.189 -0.4261  0.2352  0.4882
  388MOL0     C52259  11.172   3.005   0.134 -0.6256  0.1068  0.3777
  388MOL0     C52260  11.282   3.009   0.231 -0.0285  0.4371 -0.3572
  388MOL0     C52261  11.419   2.992   0.171  0.2095 -0.2637 -1.1895
  388MOL0     N52262  11.442   3.100   0.078 -0.1984  0.0570  0.1828
  388MOL0     C52263  11.511   3.219   0.116 -0.0446  0.5136  0.8898
  388MOL0     C52264  11.535   3.285  -0.005  0.7866  0.0658 -0.1608
  388MOL0     C52265  11.604   3.421  -0.012  0.7395 -0.5374  0.8716
  388MOL0     C52266  11.678   3.442  -0.149 -0.0356  0.4644 -1.1287
  388MOL0     C52267  11.798   3.349  -0.161  0.5417  0.4556 -0.1429
  388MOL0     C52268  11.917   3.417  -0.090  0.0010  0.7829 -0.1970
  388MOL0     O52269  11.964   3.547  -0.139  0.4375 -0.0244  0.2759
  388MOL0     C52270  12.050   3.551  -0.248 -0.3202  0.4390 -0.1236
  388MOL0     C52271  12.071   3.450  -0.346 -0.0129  0.7629  0.1678
  388MOL0     C52272  12.167   3.466  -0.443  0.3115 -0.5714  0.4771
  388MOL0     C52273  12.236   3.585  -0.464 -0.0948  0.8165  0.7465
  388MOL0     C52274  12.333   3.595  -0.570 -0.5483  0.7129  0.3963
  388MOL0     O52275  12.456   3.658  -0.545  0.0014  0.0036  0.3653
  388MOL0     C52276  12.551   3.659  -0.646  0.0454  0.1900 -0.2028
  388MOL0     C52277  12.541   3.718  -0.775 -0.5675  0.5611  0.4348
  388MOL0     C52278  12.645   3.690  -0.870  0.2023  0.3017 -0.2651
  388MOL0     C52279  12.759   3.630  -0.834 -0.1730 -0.3652  0.4264
  388MOL0     O52280  12.848   3.610  -0.940  0.1692  0.2542 -0.4462
  388MOL0     C52281  12.957   3.521  -0.913 -0.6529 -0.1984  0.1711
  388MOL0     C52282  13.039   3.505  -1.045  0.1770  1.0190  0.2272
  388MOL0     C52283  13.181   3.456  -1.008 -0.4395 -0.6497  0.5002
  388MOL0     C52284  13.268   3.413  -1.127  0.3771  0.2042  0.3212
  388MOL0     C52285  13.390   3.336  -1.076 -0.2872  0.2736  0.7645
  388MOL0     C52286  13.487   3.296  -1.196 -1.0574  0.3926  0.6910
  388MOL0     C52287  13.561   3.419  -1.245 -0.9482 -0.0087  0.2546
  388MOL0     C52288  13.641   3.408  -1.375  0.0741 -0.6663  0.4626
  388MOL0    Cl52289  13.717   3.565  -1.422  0.0859 -0.2978  0.3874
  388MOL0     C52290  12.761   3.563  -0.706 -0.4023 -0.9123 -0.3614
  388MOL0     C52291  12.662   3.577  -0.615  0.2193 -0.0851 -0.0476
  388MOL0     O52292  12.307   3.526  -0.669 -0.1139 -0.2676  0.5025
  388MOL0     C52293  12.214   3.691  -0.380 -0.0679  0.0139 -0.8421
  388MOL0     C52294  12.123   3.678  -0.269 -0.0323  0.8140 -0.2638
  388MOL0     N52295  11.464   3.205  -0.102 -0.2864  0.1618  0.4317
  388MOL0     N52296  11.422   3.088  -0.054  0.3132 -0.1922  0.3169
  388MOL0     C52297  10.300   3.263   0.107 -0.0129  0.2658 -0.2753
  388MOL0     C52298  10.158   3.272   0.126  0.6323  0.0612  0.1300
  388MOL0     C52299   9.725   3.090   0.118 -0.6909  0.2416  0.2787
  388MOL0     C52300   9.644   3.018   0.016 -0.3691  0.6769  0.1978
  388MOL0     C52301   9.507   3.031   0.011  0.9641 -0.0284 -0.7649
  388MOL0     C52302   9.441   3.114   0.103  0.0505 -0.7252 -0.1599
  388MOL0     O52303   9.303   3.123   0.112  0.3291 -0.1367 -0.8600
  388MOL0     C52304   9.249   3.033   0.208 -0.1308  0.1956  0.0309
  388MOL0     C52305   9.101   3.064   0.238  0.1200 -0.1421 -0.1179
  388MOL0     C52306   9.013   3.061   0.107  0.1361 -0.2208  0.4999
  388MOL0     C52307   8.866   3.057   0.157  0.5178  0.6194 -0.2646
  388MOL0     C52308   8.785   3.008   0.050  0.2387  0.5210  1.3811
  388MOL0     C52309   8.719   2.973  -0.043  0.3257  0.5952  0.3675
  388MOL0     C52310   9.516   3.185   0.202  0.1541  0.0887  0.1429
  388MOL0     C52311   9.655   3.181   0.205  0.1888  0.1880  0.4156
  388MOL0     C52312   9.717   3.252   0.321 -0.7941  0.7120 -0.7731
  388MOL0     H52313  10.107   2.958   0.253 -0.6614 -0.2038  1.2355
  388MOL0     H52314  10.359   2.950   0.218 -1.4051 -1.0725 -0.5866
  388MOL0     H52315  10.520   3.261  -0.047  1.8252  3.0155 -0.8831
  388MOL0     H52316  10.593   3.346   0.085  1.2379 -0.1042 -0.0310
  388MOL0     H52317  10.779   3.259  -0.054 -0.9993  0.6947 -0.6860
  388MOL0     H52318  10.702   3.097  -0.049 -0.0915 -1.1057  2.6615
  388MOL0     H52319  10.745   3.056   0.185  0.8767  0.6259  0.6287
  388MOL0     H52320  10.824   3.204   0.202  1.4326 -0.2247  0.4515
  388MOL0     H52321  10.901   2.962   0.044 -1.6837  0.7292 -0.9003
  388MOL0     H52322  10.968   3.120  -0.010 -0.0040  1.6545  0.5733
  388MOL0     H52323  11.049   3.150   0.237  0.0503  0.4207  0.0230
  388MOL0     H52324  11.008   2.984   0.268 -1.2883 -0.5201 -0.4672
  388MOL0     H52325  11.152   2.903   0.100 -0.9739 -0.0561  1.0445
  388MOL0     H52326  11.189   3.070   0.048  1.2767 -1.9650 -0.9418
  388MOL0     H52327  11.268   2.941   0.315  0.6621  0.2263 -0.4059
  388MOL0     H52328  11.283   3.100   0.292 -2.9007  0.6889 -0.5508
  388MOL0     H52329  11.491   3.002   0.252  0.1487 -0.1737 -1.1454
  388MOL0     H52330  11.428   2.893   0.126 -2.9662 -1.3515  0.2219
  388MOL0     H52331  11.536   3.264   0.212 -0.4645  0.0191  1.2361
  388MOL0     H52332  11.520   3.489  -0.024  1.4200  0.1309 -0.2398
  388MOL0     H52333  11.666   3.440   0.076 -0.3363 -1.3201  1.8368
  388MOL0     H52334  11.612   3.419  -0.234  1.5450 -0.2940 -2.1939
  388MOL0     H52335  11.714   3.545  -0.155  1.7081 -0.0706 -0.5581
  388MOL0     H52336  11.805   3.315  -0.265  2.7871 -1.2972  0.5046
  388MOL0     H52337  11.771   3.256  -0.110  1.5103 -0.3620 -1.0889
  388MOL0     H52338  12.005   3.355  -0.074  0.1161  0.0214 -3.1628
  388MOL0     H52339  11.878   3.425   0.012  2.6732 -0.3765  1.0141
  388MOL0     H52340  12.022   3.353  -0.346  2.0840 -0.3492 -0.2832
  388MOL0     H52341  12.171   3.385  -0.516 -3.3217 -2.6400  2.2922
  388MOL0     H52342  12.456   3.776  -0.811  0.3359  1.8120  0.2269
  388MOL0     H52343  12.631   3.727  -0.971  0.7692  0.7891 -0.1684
  388MOL0     H52344  13.020   3.571  -0.839  0.4118 -0.7915 -0.3072
  388MOL0     H52345  12.920   3.425  -0.877 -0.0375 -1.4409 -2.3161
  388MOL0     H52346  12.984   3.424  -1.095  1.0765  0.1793  0.5475
  388MOL0     H52347  13.048   3.588  -1.115  2.4825 -0.3496 -1.2646
  388MOL0     H52348  13.232   3.528  -0.944 -1.0032  0.0479  0.1819
  388MOL0     H52349  13.160   3.369  -0.945  2.1353 -1.2328  0.6364
  388MOL0     H52350  13.293   3.507  -1.177 -1.7564  0.0669 -1.1004
  388MOL0     H52351  13.212   3.350  -1.197 -1.2176  0.7808  1.0384
  388MOL0     H52352  13.364   3.237  -1.039  1.8435 -2.0961 -3.3460
  388MOL0     H52353  13.432   3.397  -0.995  0.1666  0.0890  0.6721
  388MOL0     H52354  13.557   3.213  -1.180 -0.6411 -0.1083 -2.8197
  388MOL0     H52355  13.419   3.264  -1.275  1.9489 -2.0099 -1.1688
  388MOL0     H52356  13.630   3.445  -1.164 -1.2284  1.2449  0.1125
  388MOL0     H52357  13.494   3.505  -1.240  0.2850  0.9499  4.2452
  388MOL0     H52358  13.707   3.320  -1.374  1.2467  0.1244  3.0523
  388MOL0     H52359  13.553   3.385  -1.435  1.7306 -2.4048 -1.4403
  388MOL0     H52360  12.837   3.490  -0.683 -0.2328 -0.2885  1.1824
  388MOL0     H52361  12.657   3.519  -0.523 -2.4095  1.8002  1.1261
  388MOL0     H52362  12.263   3.787  -0.398 -2.8539  1.0344 -4.2298
  388MOL0     H52363  12.128   3.759  -0.196 -0.4626  0.1276  0.5493
  388MOL0     H52364  10.349   3.350   0.064 -2.2162  1.1337 -1.2070
  388MOL0     H52365  10.107   3.363   0.097 -1.2851  0.0024  2.8921
  388MOL0     H52366   9.687   2.936  -0.040 -1.1066  1.0103 -0.8770
  388MOL0     H52367   9.454   2.963  -0.055 -1.7965  1.4427 -0.2087
  388MOL0     H52368   9.304   3.032   0.302  0.8288  2.0115 -0.4605
  388MOL0     H52369   9.261   2.933   0.167  1.0453  0.5446 -0.5042
  388MOL0     H52370   9.097   3.162   0.286  0.1405  0.7140 -1.7676
  388MOL0     H52371   9.062   2.995   0.314  1.2555 -0.8184 -0.1319
  388MOL0     H52372   9.035   2.969   0.051 -0.5967  0.0651 -0.2816
  388MOL0     H52373   9.042   3.146   0.045 -0.6561 -0.6024 -0.4369
  388MOL0     H52374   8.866   2.984   0.239  1.0703 -0.7890 -1.4875
  388MOL0     H52375   8.841   3.157   0.194 -0.4620  0.9610 -1.7967
  388MOL0     H52376   8.654   2.950  -0.125 -0.3200 -0.8736  1.2466
  388MOL0     H52377   9.468   3.246   0.278  0.5101  0.0812  0.3780
  388MOL0     H52378   9.760   3.345   0.282  0.2894  0.6067  0.1204
  388MOL0     H52379   9.645   3.264   0.403 -0.3061 -0.5959 -0.1301
  388MOL0     H52380   9.798   3.194   0.365  1.6696  2.0333 -3.2883
  389MOL0     O52381   1.240   1.987   1.630 -0.2000 -0.0713  0.1877
  389MOL0     C52382   1.287   2.097   1.603 -0.0207  0.7780  0.1326
  389MOL0     O52383   1.212   2.194   1.543 -0.3207 -0.5697  0.2900
  389MOL0     C52384   1.081   2.157   1.502 -0.0481 -0.7880 -0.5194
  389MOL0     C52385   1.053   2.141   1.368 -0.0851 -0.3725 -0.1421
  389MOL0     C52386   0.931   2.087   1.327 -0.6163 -0.5824  0.9622
  389MOL0     C52387   0.830   2.041   1.414  0.5047 -1.1091  0.6697
  389MOL0     O52388   0.710   1.986   1.374  0.2048 -0.3976 -0.2260
  389MOL0     C52389   0.669   1.998   1.239 -0.9845 -1.1415  0.1110
  389MOL0     C52390   0.544   1.921   1.228  0.1131 -0.7170  0.5198
  389MOL0     C52391   0.422   1.990   1.298 -0.1862  0.9454  1.2239
  389MOL0     C52392   0.388   1.924   1.425  0.5705  0.6518 -0.6655
  389MOL0     C52393   0.253   1.957   1.477  0.0926 -0.7105  0.5848
  389MOL0     C52394   0.222   1.904   1.615 -0.0639 -0.0447 -0.0523
  389MOL0     C52395   0.074   1.887   1.639 -0.1183  0.1631 -0.1116
  389MOL0     C52396   0.002   2.028   1.660  0.5008 -0.0925 -1.3279
  389MOL0     N52397  -0.144   2.013   1.641  0.0838  0.4649 -0.2505
  389MOL0     C52398  -0.251   2.000   1.732 -0.2244  0.0540 -0.1861
  389MOL0     C52399  -0.365   2.007   1.658 -0.6202 -0.4860 -0.3655
  389MOL0     C52400  -0.498   2.007   1.723 -0.3616  0.1012  0.3060
  389MOL0     C52401  -0.623   2.046   1.644 -0.4994 -0.6218 -0.1514
  389MOL0     C52402  -0.617   2.168   1.555  0.8336 -0.0181  0.2030
  389MOL0     C52403  -0.636   2.300   1.627 -0.4790 -0.2134 -0.1610
  389MOL0     O52404  -0.610   2.415   1.538 -0.5449  0.4903  0.4264
  389MOL0     C52405  -0.480   2.461   1.548  0.4132  0.4614 -0.5971
  389MOL0     C52406  -0.364   2.398   1.593 -0.5374  0.3954  1.0175
  389MOL0     C52407  -0.234   2.460   1.604  0.0791 -0.5715 -0.5295
  389MOL0     C52408  -0.222   2.596   1.559  0.0031 -0.6497  0.1981
  389MOL0     C52409  -0.098   2.680   1.572 -0.6435 -0.2020 -0.8522
  389MOL0     O52410  -0.088   2.801   1.508  0.7485  0.6552  0.5329
  389MOL0     C52411   0.022   2.879   1.517  0.3917 -0.4634 -0.0969
  389MOL0     C52412   0.139   2.814   1.513 -0.4815  0.5543  0.4702
  389MOL0     C52413   0.256   2.889   1.521 -0.4833 -0.0074  0.8666
  389MOL0     C52414   0.251   3.030   1.521 -0.1836 -0.4581 -0.3079
  389MOL0     O52415   0.365   3.114   1.507  0.2788  0.0885  0.0730
  389MOL0     C52416   0.491   3.057   1.541  1.0413 -0.6748 -0.7016
  389MOL0     C52417   0.601   3.163   1.531  0.4185 -0.3292  0.8775
  389MOL0     C52418   0.723   3.137   1.615 -0.3931  0.0316 -0.0224
  389MOL0     C52419   0.811   3.257   1.643 -0.4062 -0.8455 -0.6502
  389MOL0     C52420   0.946   3.211   1.709  0.0129  0.0877 -0.7852
  389MOL0     C52421   1.038   3.332   1.729  0.1731 -0.0764  0.4542
  389MOL0     C52422   1.186   3.304   1.734  0.2818  0.2099 -0.4018
  389MOL0     C52423   1.240   3.424   1.810  0.7663 -0.2563  0.0247
  389MOL0    Cl52424   1.207   3.409   1.995  0.2310 -0.0409  0.1116
  389MOL0     C52425   0.127   3.096   1.513 -0.9344 -0.4229  0.4677
  389MOL0     C52426   0.014   3.022   1.518  0.1377  0.3873  0.6798
  389MOL0     O52427  -0.010   2.628   1.649  0.1247 -0.7601  0.1873
  389MOL0     C52428  -0.344   2.663   1.519 -0.0532 -0.0555 -0.6952
  389MOL0     C52429  -0.467   2.590   1.518 -0.5453  0.1682 -0.7975
  389MOL0     N52430  -0.334   2.026   1.529 -0.7429  0.2824  0.0545
  389MOL0     N52431  -0.202   2.028   1.521  0.1962 -0.1670  0.9427
  389MOL0     C52432   0.857   2.049   1.556 -0.5149 -0.5997 -0.5584
  389MOL0     C52433   0.984   2.106   1.597 -0.1533  0.7456 -0.0528
  389MOL0     C52434   1.428   2.134   1.625 -0.6256  0.5154  0.6814
  389MOL0     C52435   1.478   2.252   1.579  0.3577 -0.8579 -0.6020
  389MOL0     C52436   1.609   2.301   1.596  0.0350  0.1621  1.6014
  389MOL0     C52437   1.696   2.223   1.666 -0.6128 -0.3414  0.6762
  389MOL0     O52438   1.823   2.266   1.700 -0.1531 -0.3252 -0.0099
  389MOL0     C52439   1.868   2.400   1.675  0.3841  0.9182 -0.1799
  389MOL0     C52440   2.008   2.424   1.744 -0.4540 -0.4563 -0.2794
  389MOL0     C52441   2.073   2.547   1.682 -0.8320  0.2031  0.4209
  389MOL0     C52442   2.025   2.684   1.729  0.1863 -0.1526 -0.2959
  389MOL0     C52443   1.902   2.707   1.667 -0.3038  0.0067  0.3797
  389MOL0     C52444   1.795   2.729   1.615  0.3739  0.0565 -0.2219
  389MOL0     C52445   1.645   2.101   1.721 -0.1529  0.5696  0.6385
  389MOL0     C52446   1.517   2.053   1.699  0.2823 -0.9675  0.7391
  389MOL0     C52447   1.492   1.909   1.751 -0.2139  0.9969  0.5506
  389MOL0     H52448   1.129   2.168   1.296 -1.4506  1.9817 -0.8040
  389MOL0     H52449   0.920   2.069   1.220  1.9008 -2.1983  0.8777
  389MOL0     H52450   0.655   2.102   1.211  1.5718 -0.4951  0.9733
  389MOL0     H52451   0.745   1.954   1.173 -1.2744 -0.5326 -0.6436
  389MOL0     H52452   0.544   1.819   1.267 -4.6719 -0.2833  2.3549
  389MOL0     H52453   0.525   1.917   1.121  0.8870  2.2785  0.1763
  389MOL0     H52454   0.340   1.983   1.226 -0.8994  0.4385  2.0630
  389MOL0     H52455   0.431   2.098   1.315 -2.3198  1.5057 -0.7223
  389MOL0     H52456   0.399   1.815   1.416  1.6553  0.8700 -2.5893
  389MOL0     H52457   0.457   1.950   1.506 -2.5333  0.1816  2.3698
  389MOL0     H52458   0.239   2.066   1.476  0.0323 -0.7239 -0.8173
  389MOL0     H52459   0.181   1.909   1.411 -0.0342  0.6599 -0.3212
  389MOL0     H52460   0.272   1.810   1.639  0.3763  0.6951  2.1849
  389MOL0     H52461   0.271   1.974   1.684 -1.2154  0.3060  0.4416
  389MOL0     H52462   0.062   1.839   1.736 -0.6735  0.8451  0.1693
  389MOL0     H52463   0.031   1.825   1.560 -0.4009  1.2006 -0.8074
  389MOL0     H52464   0.015   2.073   1.759 -2.6166  1.4980 -1.4938
  389MOL0     H52465   0.046   2.101   1.591 -0.5540  1.0808 -0.8096
  389MOL0     H52466  -0.232   1.994   1.838 -0.5904  0.6264 -0.0839
  389MOL0     H52467  -0.505   1.905   1.763  0.5894 -1.0308 -2.1663
  389MOL0     H52468  -0.486   2.077   1.806 -1.5494 -1.6348  2.0272
  389MOL0     H52469  -0.652   1.959   1.584 -1.4999 -1.7702  1.9003
  389MOL0     H52470  -0.710   2.054   1.710  1.6436 -1.1764  2.9513
  389MOL0     H52471  -0.698   2.152   1.483  0.6393  0.2663  0.3536
  389MOL0     H52472  -0.527   2.170   1.493  0.2850 -1.3562 -0.6874
  389MOL0     H52473  -0.577   2.300   1.720 -1.4757 -0.3137  0.4860
  389MOL0     H52474  -0.737   2.311   1.667 -1.0698  0.8424 -1.8666
  389MOL0     H52475  -0.364   2.291   1.611 -0.1623  0.2602  0.2872
  389MOL0     H52476  -0.157   2.406   1.657  0.8695  2.1986  1.4142
  389MOL0     H52477   0.154   2.706   1.510  1.1537  0.6626  2.4854
  389MOL0     H52478   0.347   2.831   1.504 -2.3752 -2.5233 -1.6612
  389MOL0     H52479   0.484   3.011   1.640  0.6476 -2.3692 -1.4778
  389MOL0     H52480   0.510   2.974   1.472  0.5368 -1.9488  0.6515
  389MOL0     H52481   0.626   3.163   1.425  0.5778 -0.2433  0.9154
  389MOL0     H52482   0.557   3.255   1.570 -1.3357 -1.3661  1.4863
  389MOL0     H52483   0.693   3.097   1.713  1.9968  0.1171  0.7917
  389MOL0     H52484   0.779   3.060   1.561  0.8060  0.4626  0.5689
  389MOL0     H52485   0.768   3.336   1.705 -0.4655 -1.3405 -0.0431
  389MOL0     H52486   0.845   3.294   1.546  0.4413 -4.7358 -2.0199
  389MOL0     H52487   1.004   3.147   1.642  1.8470  0.0267  0.7852
  389MOL0     H52488   0.926   3.155   1.801 -0.5079 -0.6105 -1.3041
  389MOL0     H52489   1.031   3.395   1.640 -1.3198 -2.0202 -0.9005
  389MOL0     H52490   1.005   3.378   1.823  0.7205 -1.4475  1.3586
  389MOL0     H52491   1.224   3.296   1.632 -0.1249 -1.9801 -0.4146
  389MOL0     H52492   1.212   3.212   1.786  1.8552 -0.3879 -2.1654
  389MOL0     H52493   1.348   3.429   1.790  0.2631  3.5753 -2.8042
  389MOL0     H52494   1.196   3.513   1.764 -1.1167 -1.1352  0.0218
  389MOL0     H52495   0.123   3.205   1.513  1.9416 -0.2256  0.0582
  389MOL0     H52496  -0.087   3.062   1.516  0.5149  1.3546  0.2967
  389MOL0     H52497  -0.338   2.770   1.503  0.6020 -0.3617 -2.9903
  389MOL0     H52498  -0.562   2.638   1.497 -0.8851  0.4453  1.2051
  389MOL0     H52499   0.788   2.016   1.633 -0.4308  0.1791 -0.1444
  389MOL0     H52500   1.009   2.110   1.703  2.6664  2.1324 -0.6648
  389MOL0     H52501   1.418   2.323   1.522 -1.2371 -0.1986  1.7626
  389MOL0     H52502   1.633   2.400   1.558 -2.8049  0.7149  1.0171
  389MOL0     H52503   1.790   2.461   1.721  0.2798 -0.6279  1.8721
  389MOL0     H52504   1.877   2.417   1.567  3.1919  2.4293  0.1980
  389MOL0     H52505   2.069   2.335   1.725 -2.6587 -2.4564  1.4039
  389MOL0     H52506   1.996   2.423   1.853  0.0745 -1.4921 -0.2173
  389MOL0     H52507   2.064   2.546   1.573 -0.2792  1.2462  0.3572
  389MOL0     H52508   2.179   2.539   1.708 -0.9055 -1.5592  0.3452
  389MOL0     H52509   2.011   2.685   1.838  0.2082 -1.6841 -0.2466
  389MOL0     H52510   2.093   2.760   1.691 -1.9529  1.8285 -0.4386
  389MOL0     H52511   1.695   2.740   1.577  1.2287 -0.0888 -2.6240
  389MOL0     H52512   1.719   2.036   1.768  0.6381 -0.7222 -2.1837
  389MOL0     H52513   1.588   1.873   1.791 -0.1396  1.2300  0.5805
  389MOL0     H52514   1.420   1.895   1.832 -1.2735 -2.7986 -0.8387
  389MOL0     H52515   1.464   1.840   1.671  2.2501 -0.5564  0.9174
  390MOL0     O52516   1.495   4.857   5.706  0.7668  0.5997 -0.3592
  390MOL0     C52517   1.448   4.920   5.804 -0.3276  0.4268 -0.2519
  390MOL0     O52518   1.517   5.017   5.869  0.0180  0.4543 -0.4532
  390MOL0     C52519   1.636   5.067   5.827  0.1516  0.3863 -0.2180
  390MOL0     C52520   1.636   5.201   5.789  0.6201 -0.0567  0.5815
  390MOL0     C52521   1.748   5.259   5.731  0.3195  0.4748  0.3618
  390MOL0     C52522   1.868   5.190   5.722 -0.3563  0.8755  0.5983
  390MOL0     O52523   1.972   5.248   5.650 -0.0513  0.3348 -0.2051
  390MOL0     C52524   2.097   5.176   5.661 -0.3999  0.4064  0.2766
  390MOL0     C52525   2.117   5.066   5.558 -0.6636  0.2825 -0.2518
  390MOL0     C52526   2.260   5.007   5.577  0.7155  0.2217 -0.3301
  390MOL0     C52527   2.302   4.917   5.453  0.1654  0.6219  0.7631
  390MOL0     C52528   2.452   4.876   5.452 -0.0871  0.1902  0.0560
  390MOL0     C52529   2.551   4.994   5.448 -0.2259  0.5643 -0.4408
  390MOL0     C52530   2.697   4.947   5.419  0.2962 -0.0559  0.1594
  390MOL0     C52531   2.800   5.044   5.374 -0.2968  0.9740  0.8322
  390MOL0     N52532   2.918   4.983   5.318 -0.0613  0.0938 -0.4944
  390MOL0     C52533   3.003   4.906   5.395  0.0587  0.6293  0.4287
  390MOL0     C52534   3.078   4.835   5.311  0.0910 -0.1398  0.3908
  390MOL0     C52535   3.181   4.733   5.344  0.7332  0.4792  0.2605
  390MOL0     C52536   3.316   4.800   5.401 -0.2096 -0.1208  0.6129
  390MOL0     C52537   3.424   4.698   5.434  0.0576  0.2545  0.3318
  390MOL0     C52538   3.574   4.747   5.459 -0.1195 -1.1628 -0.0510
  390MOL0     O52539   3.623   4.813   5.339  0.2765 -0.1854  0.5466
  390MOL0     C52540   3.723   4.892   5.373  0.2736 -0.1321  0.4605
  390MOL0     C52541   3.708   5.030   5.360 -0.2488  1.0548  0.0663
  390MOL0     C52542   3.797   5.116   5.412 -0.6101 -0.3361  0.0774
  390MOL0     C52543   3.912   5.069   5.467  0.0703  0.0445 -1.2307
  390MOL0     C52544   4.012   5.173   5.506 -0.1555  0.2523 -0.1949
  390MOL0     O52545   4.142   5.124   5.513 -1.0604  0.0243  0.4040
  390MOL0     C52546   4.251   5.203   5.523 -0.0057  0.5767 -0.3351
  390MOL0     C52547   4.359   5.124   5.557  0.7723 -0.3793 -0.6471
  390MOL0     C52548   4.492   5.186   5.541  0.4075  0.2205 -0.1808
  390MOL0     C52549   4.509   5.326   5.524 -0.4133  0.4431  0.0861
  390MOL0     O52550   4.627   5.385   5.492  0.0491 -0.0340 -0.3430
  390MOL0     C52551   4.735   5.334   5.579  0.0497 -0.6568  0.6313
  390MOL0     C52552   4.825   5.454   5.599 -0.6680  0.1341  0.2792
  390MOL0     C52553   4.921   5.441   5.718 -0.6266 -0.4669  0.7103
  390MOL0     C52554   4.995   5.574   5.739 -0.1035  0.3437 -1.0898
  390MOL0     C52555   5.053   5.583   5.882  0.6311 -0.0211 -0.0022
  390MOL0     C52556   4.949   5.636   5.992  0.1691 -0.1030  1.1447
  390MOL0     C52557   5.015   5.681   6.128  0.6781  0.3110  0.2800
  390MOL0     C52558   5.079   5.567   6.204  0.8519 -0.1262  0.3947
  390MOL0    Cl52559   5.150   5.627   6.357 -0.0532 -0.3780 -0.0183
  390MOL0     C52560   4.395   5.399   5.507 -0.1824 -0.3512 -0.7788
  390MOL0     C52561   4.268   5.345   5.495  0.1480 -0.2279 -0.2957
  390MOL0     O52562   3.980   5.286   5.535 -0.4849  0.6061  0.6076
  390MOL0     C52563   3.941   4.933   5.470 -0.2516  0.5048  0.3027
  390MOL0     C52564   3.840   4.839   5.426 -0.2111 -0.2797 -0.7643
  390MOL0     N52565   3.041   4.876   5.184 -0.0466  0.7239  0.0077
  390MOL0     N52566   2.945   4.962   5.186  0.0784  0.0320 -0.0967
  390MOL0     C52567   1.872   5.052   5.771  0.6269 -0.0336  0.2656
  390MOL0     C52568   1.757   4.993   5.822 -0.2829 -1.0761 -0.1711
  390MOL0     C52569   1.326   4.871   5.867  0.3272 -0.9645  0.1889
  390MOL0     C52570   1.288   4.738   5.880  0.5937 -0.3818 -0.4473
  390MOL0     C52571   1.172   4.684   5.932 -0.1242 -0.0440 -0.8537
  390MOL0     C52572   1.081   4.775   5.984 -0.1661  0.5148 -0.8562
  390MOL0     O52573   0.973   4.719   6.042  0.4539  0.0007 -0.7355
  390MOL0     C52574   0.878   4.806   6.107 -0.8087  0.6351  0.9589
  390MOL0     C52575   0.779   4.876   6.020  0.0557 -0.4769  1.3732
  390MOL0     C52576   0.708   4.994   6.085 -0.1616 -0.1385 -0.6405
  390MOL0     C52577   0.556   5.000   6.055 -0.3751 -0.5121  0.2606
  390MOL0     C52578   0.530   5.005   5.906  0.8126  0.3151 -0.3580
  390MOL0     C52579   0.482   5.005   5.795 -0.5193 -0.6013  0.3514
  390MOL0     C52580   1.107   4.913   5.970 -0.8912 -0.4155  0.6818
  390MOL0     C52581   1.224   4.965   5.908  0.5354  0.4245 -0.2162
  390MOL0     C52582   1.230   5.116   5.902 -0.3344 -0.0348 -0.1920
  390MOL0     H52583   1.544   5.257   5.805 -0.0458 -0.8936 -0.1661
  390MOL0     H52584   1.742   5.359   5.690  2.7576  1.4333  2.0929
  390MOL0     H52585   2.164   5.257   5.630 -0.8995 -0.4386 -3.4276
  390MOL0     H52586   2.112   5.142   5.764  0.3021  1.3939  0.5216
  390MOL0     H52587   2.103   5.111   5.459  0.0209 -0.5730 -0.7470
  390MOL0     H52588   2.043   4.985   5.565 -0.4877  0.2280  1.2998
  390MOL0     H52589   2.249   4.939   5.663 -3.2275  1.0923  0.0722
  390MOL0     H52590   2.324   5.094   5.594 -0.5201  1.0886  0.0218
  390MOL0     H52591   2.244   4.825   5.457 -2.4840  2.1954  0.6738
  390MOL0     H52592   2.280   4.980   5.366  2.1009  0.0590 -0.1818
  390MOL0     H52593   2.479   4.813   5.538 -1.3628 -1.3729 -0.6145
  390MOL0     H52594   2.464   4.814   5.363  2.7930  0.0194  0.4888
  390MOL0     H52595   2.507   5.070   5.382 -0.1335 -0.3855 -1.6399
  390MOL0     H52596   2.555   5.029   5.551  2.8689 -2.2215  0.5534
  390MOL0     H52597   2.701   4.876   5.336  1.8507  0.5428 -0.3321
  390MOL0     H52598   2.735   4.900   5.510 -1.8536  0.7878  1.5578
  390MOL0     H52599   2.760   5.104   5.292  2.1611 -1.0056 -2.0168
  390MOL0     H52600   2.817   5.111   5.459  0.3071  0.3085  1.2461
  390MOL0     H52601   3.014   4.892   5.502  3.7911 -1.9211 -0.0871
  390MOL0     H52602   3.143   4.669   5.424  0.8051  0.6893  0.4630
  390MOL0     H52603   3.206   4.665   5.262 -1.2805  0.3678 -0.3073
  390MOL0     H52604   3.356   4.884   5.344  0.6304 -1.0012 -0.1306
  390MOL0     H52605   3.292   4.844   5.499  2.8596  2.0762  0.5412
  390MOL0     H52606   3.429   4.639   5.343 -2.7043 -0.5662  0.6429
  390MOL0     H52607   3.378   4.632   5.508 -0.3767 -0.3752 -0.4965
  390MOL0     H52608   3.646   4.666   5.477  0.9421 -0.3058 -0.3405
  390MOL0     H52609   3.588   4.822   5.537  1.5199  2.1050 -3.1907
  390MOL0     H52610   3.617   5.066   5.313 -0.7133  0.9466  0.8627
  390MOL0     H52611   3.777   5.222   5.405 -0.2131 -0.3517 -1.8723
  390MOL0     H52612   4.338   5.018   5.571 -0.9825  0.0215 -0.0608
  390MOL0     H52613   4.582   5.125   5.536  0.1296 -0.1602 -0.5886
  390MOL0     H52614   4.699   5.302   5.677 -1.3511 -2.8237 -0.5101
  390MOL0     H52615   4.795   5.258   5.528  0.6485  1.3318 -1.8639
  390MOL0     H52616   4.887   5.470   5.511  2.5822 -0.1048  2.3447
  390MOL0     H52617   4.755   5.531   5.632 -1.3957 -0.6950  0.7086
  390MOL0     H52618   4.858   5.436   5.807 -1.0612  2.6171  0.6664
  390MOL0     H52619   4.985   5.353   5.711 -0.7726 -0.8346  3.1600
  390MOL0     H52620   4.928   5.660   5.733  1.4945  2.0670  2.7368
  390MOL0     H52621   5.075   5.583   5.665  1.5696  1.5714  0.7708
  390MOL0     H52622   5.135   5.655   5.897 -0.1783  0.5007  2.3600
  390MOL0     H52623   5.093   5.485   5.907  0.8150 -0.2347 -1.0603
  390MOL0     H52624   4.908   5.728   5.949  2.8126  0.8974  0.5365
  390MOL0     H52625   4.877   5.556   6.008  1.5745 -1.6905 -0.0298
  390MOL0     H52626   4.948   5.745   6.185 -1.9361 -0.8568 -1.2740
  390MOL0     H52627   5.102   5.741   6.099  1.6303 -0.9700  0.3997
  390MOL0     H52628   5.010   5.485   6.229  2.9839 -1.4547  2.3157
  390MOL0     H52629   5.145   5.510   6.138 -1.0217 -1.8472 -0.1112
  390MOL0     H52630   4.392   5.499   5.464 -1.0977  0.6846  1.5684
  390MOL0     H52631   4.179   5.397   5.463  0.3633 -1.2349 -2.7144
  390MOL0     H52632   4.025   4.878   5.512 -0.1249  1.3131  1.1448
  390MOL0     H52633   3.847   4.732   5.444  1.8088 -0.3529 -1.7210
  390MOL0     H52634   1.959   4.992   5.745  0.4916 -0.6657  1.2233
  390MOL0     H52635   1.756   4.892   5.862  0.5065 -0.7944  0.6054
  390MOL0     H52636   1.358   4.661   5.850 -1.2042 -3.1258  1.8323
  390MOL0     H52637   1.151   4.579   5.944 -0.7803 -0.5744 -5.0371
  390MOL0     H52638   0.922   4.878   6.177  0.9254  1.1573 -0.5798
  390MOL0     H52639   0.809   4.736   6.155 -3.7953  1.4429 -1.7849
  390MOL0     H52640   0.709   4.798   5.990  1.9145 -1.2589 -1.2690
  390MOL0     H52641   0.824   4.900   5.923 -2.8764 -1.1823 -0.2963
  390MOL0     H52642   0.772   5.079   6.062  2.1457 -1.6440 -0.1527
  390MOL0     H52643   0.710   4.975   6.193  0.9342 -0.6763 -0.7386
  390MOL0     H52644   0.505   4.910   6.091  1.2450 -1.6159 -0.0980
  390MOL0     H52645   0.515   5.086   6.110  0.4757  0.6391 -0.8441
  390MOL0     H52646   0.437   5.006   5.698  0.4644  1.7424 -0.1324
  390MOL0     H52647   1.034   4.983   6.008 -0.8406  0.0434 -0.0413
  390MOL0     H52648   1.177   5.149   5.812 -1.3969 -2.0989 -0.3833
  390MOL0     H52649   1.185   5.170   5.986  4.6718  0.7071  2.3827
  390MOL0     H52650   1.333   5.150   5.886  0.7983 -1.6744  2.8410
  391MOL0     O52651   6.948   6.654   2.564 -0.0446 -0.0861  0.5903
  391MOL0     C52652   6.930   6.668   2.684  0.2277 -0.9416  0.3123
  391MOL0     O52653   7.021   6.705   2.775  0.5835  0.0101 -0.4776
  391MOL0     C52654   7.147   6.731   2.724 -0.2305  0.3706 -0.4460
  391MOL0     C52655   7.179   6.860   2.692 -0.0242 -0.2820  0.4704
  391MOL0     C52656   7.307   6.890   2.650 -0.2585  0.0821 -0.3609
  391MOL0     C52657   7.400   6.800   2.630 -0.7358 -0.0717 -0.3061
  391MOL0     O52658   7.518   6.856   2.569  0.1146 -0.2010 -0.1996
  391MOL0     C52659   7.555   6.803   2.441 -0.2346  0.2456 -0.8621
  391MOL0     C52660   7.660   6.896   2.390 -1.2020 -0.0600  1.1211
  391MOL0     C52661   7.796   6.849   2.434  0.9116 -0.6701 -0.2556
  391MOL0     C52662   7.902   6.926   2.369 -0.5086 -0.1839  0.0255
  391MOL0     C52663   8.035   6.857   2.383  0.8687 -0.0657  0.3729
  391MOL0     C52664   8.138   6.962   2.340 -0.1133  0.3784 -0.8560
  391MOL0     C52665   8.288   6.908   2.350  0.3058  0.4943  0.5622
  391MOL0     C52666   8.302   6.871   2.498  0.2605  0.1651 -0.3122
  391MOL0     N52667   8.443   6.850   2.524  0.3815  0.0936 -0.3597
  391MOL0     C52668   8.515   6.736   2.541 -0.1894  0.5155 -0.2986
  391MOL0     C52669   8.638   6.774   2.585 -0.2713  0.2569  0.6255
  391MOL0     C52670   8.752   6.686   2.627 -0.1684 -0.4117  0.0602
  391MOL0     C52671   8.795   6.588   2.522 -0.3075  0.1616  0.0968
  391MOL0     C52672   8.899   6.487   2.562  1.2131 -0.4824  0.2642
  391MOL0     C52673   8.950   6.399   2.443 -0.8309 -0.4899 -0.7647
  391MOL0     O52674   9.045   6.474   2.364  0.8067  0.3565 -0.0732
  391MOL0     C52675   9.180   6.437   2.380 -0.2997 -0.1575 -0.4901
  391MOL0     C52676   9.275   6.540   2.366  0.2250 -0.0485 -0.4323
  391MOL0     C52677   9.418   6.514   2.368 -0.6110 -0.2574  0.0178
  391MOL0     C52678   9.465   6.392   2.409  0.2405  0.0381 -0.4059
  391MOL0     C52679   9.614   6.374   2.436 -0.0503 -0.5501 -0.1927
  391MOL0     O52680   9.665   6.247   2.433  0.4325 -0.6120  0.4288
  391MOL0     C52681   9.792   6.228   2.470 -1.9012  0.3961  0.7251
  391MOL0     C52682   9.821   6.161   2.587  0.1050  0.3188  0.6969
  391MOL0     C52683   9.950   6.126   2.620  0.3727 -0.5124  0.1194
  391MOL0     C52684  10.056   6.156   2.538  0.3699  0.1155  0.6449
  391MOL0     O52685  10.176   6.104   2.586  0.0914  0.2325 -0.5584
  391MOL0     C52686  10.307   6.147   2.542  0.7249 -0.9408  0.3804
  391MOL0     C52687  10.414   6.043   2.559 -0.4881 -0.3913 -0.3353
  391MOL0     C52688  10.560   6.089   2.580  0.5118  0.5871 -0.8557
  391MOL0     C52689  10.658   5.970   2.574 -0.3052 -0.2008 -0.1376
  391MOL0     C52690  10.789   6.020   2.627 -0.0322  0.2783 -0.0825
  391MOL0     C52691  10.904   5.913   2.608  0.3860 -0.3769 -0.4172
  391MOL0     C52692  10.953   5.893   2.469 -0.3809 -0.0937  0.2053
  391MOL0     C52693  11.077   5.797   2.463 -0.3651 -0.1779 -0.1269
  391MOL0    Cl52694  11.225   5.899   2.472  0.0742  0.0743  0.0487
  391MOL0     C52695  10.033   6.226   2.423  0.3505 -0.8209  0.1298
  391MOL0     C52696   9.900   6.256   2.389  0.2374  0.6356  0.0908
  391MOL0     O52697   9.675   6.468   2.483 -0.6103 -0.4138  0.0030
  391MOL0     C52698   9.374   6.292   2.414  0.3815 -0.2758 -0.1091
  391MOL0     C52699   9.233   6.309   2.404  0.3547 -0.3589  0.8477
  391MOL0     N52700   8.632   6.905   2.606  0.2014 -0.2915 -0.3959
  391MOL0     N52701   8.520   6.956   2.556  0.4881  0.0947 -0.0744
  391MOL0     C52702   7.369   6.659   2.647  0.0355 -0.3809 -0.2260
  391MOL0     C52703   7.237   6.625   2.701 -0.8285  0.8792 -0.1600
  391MOL0     C52704   6.790   6.665   2.745 -0.0563 -0.1227  0.3208
  391MOL0     C52705   6.685   6.730   2.685 -0.1068 -0.3591 -0.2452
  391MOL0     C52706   6.558   6.728   2.746 -0.5119  0.5408 -0.4160
  391MOL0     C52707   6.539   6.673   2.870  0.1331 -0.1619 -0.5264
  391MOL0     O52708   6.414   6.692   2.914 -0.0950  0.8428 -0.2052
  391MOL0     C52709   6.352   6.560   2.946  0.3924  0.7468 -0.3980
  391MOL0     C52710   6.205   6.574   2.960  0.2824  0.4233  0.1163
  391MOL0     C52711   6.129   6.438   2.980  0.2810 -0.2642  0.6815
  391MOL0     C52712   5.999   6.467   3.053  0.8950 -0.2862 -0.1772
  391MOL0     C52713   5.914   6.561   2.968 -0.3237 -0.1936 -0.0918
  391MOL0     C52714   5.846   6.631   2.892  1.1311 -0.1298  0.3390
  391MOL0     C52715   6.644   6.608   2.937  0.5984  0.3287 -0.2599
  391MOL0     C52716   6.772   6.603   2.874  0.4570 -0.5197  0.4717
  391MOL0     C52717   6.870   6.508   2.937  0.2240  0.2391  0.7431
  391MOL0     H52718   7.100   6.934   2.701 -2.8962 -2.8507 -1.5729
  391MOL0     H52719   7.336   6.993   2.631  2.2128 -0.2764  1.0465
  391MOL0     H52720   7.593   6.702   2.461 -0.2102  0.4533  0.1768
  391MOL0     H52721   7.468   6.802   2.374 -0.8975 -0.1184 -0.0054
  391MOL0     H52722   7.640   6.998   2.424  3.1580  0.3435  3.1658
  391MOL0     H52723   7.660   6.895   2.280  0.7489  1.8171  1.0587
  391MOL0     H52724   7.806   6.743   2.410 -0.3373 -0.3959 -2.2475
  391MOL0     H52725   7.811   6.865   2.541 -0.3719 -2.1441  0.1962
  391MOL0     H52726   7.889   6.943   2.261 -1.9919 -1.1499  0.0254
  391MOL0     H52727   7.915   7.029   2.402  2.0262  0.9909 -3.8956
  391MOL0     H52728   8.037   6.819   2.485  2.1986 -4.8549 -1.1193
  391MOL0     H52729   8.045   6.770   2.317 -1.4021 -0.8097  0.9503
  391MOL0     H52730   8.120   6.994   2.237 -1.7868  0.5813 -0.5268
  391MOL0     H52731   8.145   7.055   2.398 -1.5523 -0.2514  0.3881
  391MOL0     H52732   8.359   6.989   2.331  2.8453 -1.1487  2.4889
  391MOL0     H52733   8.308   6.816   2.294 -0.7551  1.1116 -0.9260
  391MOL0     H52734   8.264   6.947   2.568  1.7812 -2.8230  4.1813
  391MOL0     H52735   8.246   6.778   2.504  1.5557 -0.7951 -2.1383
  391MOL0     H52736   8.491   6.636   2.507  1.9263 -0.2569  0.3253
  391MOL0     H52737   8.841   6.746   2.647  0.1263 -0.7766 -0.1362
  391MOL0     H52738   8.717   6.633   2.716  0.6599  0.0427  0.6560
  391MOL0     H52739   8.707   6.530   2.494 -0.1314  0.2820 -0.7403
  391MOL0     H52740   8.822   6.642   2.430 -3.3990 -1.2661 -1.8004
  391MOL0     H52741   8.842   6.422   2.630 -0.1939 -0.6757 -1.0443
  391MOL0     H52742   8.986   6.532   2.610  2.5653  0.0745 -2.5279
  391MOL0     H52743   8.875   6.364   2.372 -0.7665 -0.7773 -0.6937
  391MOL0     H52744   8.991   6.308   2.489  0.3053  0.6138  0.5022
  391MOL0     H52745   9.247   6.639   2.332  1.2450  0.2637 -0.3955
  391MOL0     H52746   9.493   6.589   2.346 -2.0545  0.8766 -1.2516
  391MOL0     H52747   9.744   6.122   2.652 -1.5847 -0.0389 -1.3976
  391MOL0     H52748   9.959   6.083   2.719 -1.7843 -1.1072  0.1050
  391MOL0     H52749  10.304   6.191   2.442  1.3701  2.7351  1.8183
  391MOL0     H52750  10.343   6.227   2.607  0.4584 -1.5653  1.3219
  391MOL0     H52751  10.388   5.989   2.650 -0.0952 -1.2876 -0.7317
  391MOL0     H52752  10.410   5.977   2.471  0.7597  1.5004 -1.8934
  391MOL0     H52753  10.581   6.168   2.507 -0.1110  0.8334 -0.7827
  391MOL0     H52754  10.560   6.135   2.679  2.0569 -0.3070 -0.4235
  391MOL0     H52755  10.681   5.941   2.471  0.3880  1.7814 -0.5802
  391MOL0     H52756  10.612   5.885   2.626  1.4202  0.2300  2.2370
  391MOL0     H52757  10.773   6.040   2.733 -0.1700  0.0814 -0.0655
  391MOL0     H52758  10.814   6.106   2.565  1.0349 -0.2000 -0.3318
  391MOL0     H52759  10.994   5.944   2.662  1.0221 -0.9314 -1.1382
  391MOL0     H52760  10.877   5.813   2.644 -1.4798 -0.1152 -0.9741
  391MOL0     H52761  10.979   5.991   2.428 -0.5072  0.7822  2.1229
  391MOL0     H52762  10.876   5.849   2.405  0.8263  0.3176 -1.6098
  391MOL0     H52763  11.067   5.722   2.542 -0.7723 -0.2025 -0.2004
  391MOL0     H52764  11.088   5.745   2.368 -2.2332  0.7446 -0.9038
  391MOL0     H52765  10.113   6.259   2.357 -1.1237 -0.4965 -1.5641
  391MOL0     H52766   9.881   6.295   2.290 -0.3384 -3.3078 -1.5181
  391MOL0     H52767   9.405   6.190   2.435 -1.5713 -0.5553  1.6578
  391MOL0     H52768   9.172   6.220   2.415  2.3729 -1.9543 -0.2002
  391MOL0     H52769   7.430   6.574   2.617 -2.4047 -1.8276 -1.4593
  391MOL0     H52770   7.194   6.526   2.693 -4.2470  2.2771 -1.0554
  391MOL0     H52771   6.717   6.785   2.597  2.3139  0.8734  1.2821
  391MOL0     H52772   6.475   6.763   2.686 -0.8117 -2.2163 -1.7343
  391MOL0     H52773   6.393   6.528   3.043 -2.7596  0.7141  1.0640
  391MOL0     H52774   6.372   6.479   2.874  0.2577  0.7762 -0.4686
  391MOL0     H52775   6.162   6.636   2.880 -0.5257  0.4372  0.5466
  391MOL0     H52776   6.190   6.636   3.049 -0.4251  4.2549 -2.4229
  391MOL0     H52777   6.183   6.371   3.047  2.2083  1.9690  1.5174
  391MOL0     H52778   6.116   6.384   2.886  0.8925 -0.6836  0.8304
  391MOL0     H52779   5.947   6.373   3.072  0.8952 -0.5824 -1.5366
  391MOL0     H52780   6.024   6.520   3.145 -2.3196  1.4828 -0.1449
  391MOL0     H52781   5.785   6.694   2.830  1.4404 -1.5156 -1.4422
  391MOL0     H52782   6.630   6.571   3.038  3.1950  0.9940  0.4206
  391MOL0     H52783   6.944   6.466   2.869 -0.9317  0.6143 -0.8254
  391MOL0     H52784   6.924   6.573   3.006  1.3685  0.1242 -0.0196
  391MOL0     H52785   6.809   6.432   2.986 -1.0520  0.3877 -0.5314
  392MOL0     O52786   4.115   9.964   0.736  0.7781 -0.6261  0.1527
  392MOL0     C52787   4.152   9.879   0.662 -0.1067 -0.2219  0.0912
  392MOL0     O52788   4.081   9.765   0.631  0.3408  0.1170 -0.0644
  392MOL0     C52789   3.944   9.753   0.625  0.6510  0.4247  0.3987
  392MOL0     C52790   3.889   9.671   0.516 -0.0936 -0.3364  0.6076
  392MOL0     C52791   3.751   9.642   0.511  0.0502 -0.9535  0.2777
  392MOL0     C52792   3.661   9.705   0.606 -0.0697 -0.3760  0.0633
  392MOL0     O52793   3.528   9.685   0.586 -0.6637  0.5909 -0.0841
  392MOL0     C52794   3.462   9.660   0.710  0.4697  0.1025 -0.0041
  392MOL0     C52795   3.332   9.579   0.674 -0.2880  0.1054  0.2276
  392MOL0     C52796   3.367   9.447   0.620  0.2431 -0.0516 -0.3740
  392MOL0     C52797   3.260   9.345   0.576 -0.0920  0.7064  0.5548
  392MOL0     C52798   3.145   9.392   0.481  0.3686 -0.8143 -0.5800
  392MOL0     C52799   3.173   9.386   0.332  0.4757  0.1516 -0.2565
  392MOL0     C52800   3.065   9.457   0.254 -0.2971 -0.3227 -0.1964
  392MOL0     C52801   3.103   9.474   0.107 -0.5702 -0.1266 -0.2506
  392MOL0     N52802   3.156   9.350   0.047 -0.1026 -0.7165  0.0017
  392MOL0     C52803   3.289   9.318   0.043  0.5687  0.2579  0.1846
  392MOL0     C52804   3.292   9.188  -0.008  0.5755 -0.7478 -0.1365
  392MOL0     C52805   3.412   9.128  -0.058 -0.4113 -0.6362  0.2066
  392MOL0     C52806   3.422   9.162  -0.209  0.2743  0.1624 -0.6177
  392MOL0     C52807   3.516   9.072  -0.291  0.9088  0.0313 -0.5206
  392MOL0     C52808   3.659   9.119  -0.270  0.1628  1.0295  0.1953
  392MOL0     O52809   3.663   9.243  -0.342  0.8306 -0.3976 -0.2135
  392MOL0     C52810   3.777   9.312  -0.361 -0.1673  0.3668  0.0583
  392MOL0     C52811   3.763   9.439  -0.415 -0.5846 -0.5571 -0.9402
  392MOL0     C52812   3.881   9.514  -0.439 -0.5829  0.1078  0.4579
  392MOL0     C52813   4.010   9.457  -0.413  0.6722 -0.0201  0.5591
  392MOL0     C52814   4.135   9.519  -0.447 -0.5391  0.7175  0.1709
  392MOL0     O52815   4.252   9.444  -0.428  0.1019  0.4832 -0.7599
  392MOL0     C52816   4.367   9.515  -0.432 -0.2884 -0.0263 -0.0359
  392MOL0     C52817   4.413   9.571  -0.323  0.0259 -0.1815  0.0008
  392MOL0     C52818   4.523   9.650  -0.320  0.3082 -0.8088  0.3406
  392MOL0     C52819   4.596   9.676  -0.434  0.1602  0.2194  1.3382
  392MOL0     O52820   4.709   9.745  -0.432 -0.9020 -0.4086  0.6051
  392MOL0     C52821   4.831   9.673  -0.462 -0.1471 -0.6414 -0.2167
  392MOL0     C52822   4.897   9.747  -0.576  0.8012 -0.4926 -0.1040
  392MOL0     C52823   5.043   9.692  -0.610  0.2838 -1.1380  0.1665
  392MOL0     C52824   5.119   9.772  -0.712  0.7921 -0.5828  0.0292
  392MOL0     C52825   5.262   9.726  -0.748  0.3370 -0.4774 -0.7620
  392MOL0     C52826   5.322   9.833  -0.841  0.3406 -0.2069  0.1582
  392MOL0     C52827   5.462   9.784  -0.874  0.1207 -0.2489 -0.2206
  392MOL0     C52828   5.532   9.880  -0.965  0.7069  0.1667 -0.8910
  392MOL0    Cl52829   5.691   9.817  -1.011 -0.4009  0.0058 -0.1656
  392MOL0     C52830   4.555   9.607  -0.548 -0.3557  0.2253  0.1243
  392MOL0     C52831   4.445   9.519  -0.548 -0.3470  0.2528  0.3929
  392MOL0     O52832   4.138   9.634  -0.480  0.7474 -0.1346 -0.0499
  392MOL0     C52833   4.016   9.335  -0.348 -0.7293 -0.6664 -0.2008
  392MOL0     C52834   3.901   9.253  -0.328 -0.7776 -0.6889 -0.0421
  392MOL0     N52835   3.161   9.139  -0.008  0.6479  0.6565  0.3204
  392MOL0     N52836   3.084   9.237   0.016  0.6980 -1.0439 -0.4596
  392MOL0     C52837   3.711   9.791   0.701 -0.2202  0.2061 -0.5111
  392MOL0     C52838   3.852   9.808   0.714  0.7103  0.5608  0.0515
  392MOL0     C52839   4.293   9.898   0.601 -0.1545  0.3910 -0.2812
  392MOL0     C52840   4.329   9.804   0.506  0.2741 -0.1142  0.5730
  392MOL0     C52841   4.446   9.823   0.430  0.8792  0.6866 -0.3865
  392MOL0     C52842   4.532   9.930   0.443 -0.4651  0.2495  0.1914
  392MOL0     O52843   4.640   9.940   0.358 -0.2591 -0.7101 -0.3434
  392MOL0     C52844   4.722  10.063   0.357  0.4423  0.4460  0.3320
  392MOL0     C52845   4.827  10.057   0.235 -0.1650 -0.8580 -0.1792
  392MOL0     C52846   4.960  10.133   0.252  0.3456  0.5537 -1.0409
  392MOL0     C52847   4.951  10.256   0.339  0.3516  0.3229 -0.1880
  392MOL0     C52848   5.085  10.294   0.375  0.3244 -1.3335  0.0963
  392MOL0     C52849   5.194  10.338   0.388  0.3489  0.0271 -0.6295
  392MOL0     C52850   4.504  10.015   0.549 -0.2964 -0.5437  0.0417
  392MOL0     C52851   4.383  10.004   0.630  0.9709  0.4723  0.8098
  392MOL0     C52852   4.360  10.110   0.732 -0.6224  0.3409  0.1381
  392MOL0     H52853   3.962   9.640   0.441  0.8557  2.3711  0.2886
  392MOL0     H52854   3.712   9.572   0.439  0.2605 -1.6398  0.8218
  392MOL0     H52855   3.520   9.601   0.782 -0.4503 -0.3568  0.3795
  392MOL0     H52856   3.425   9.751   0.758 -1.1308  0.0922 -1.1261
  392MOL0     H52857   3.284   9.634   0.592 -2.6525 -2.4847 -0.2917
  392MOL0     H52858   3.268   9.579   0.763 -0.7782  1.1489 -0.1117
  392MOL0     H52859   3.432   9.399   0.694  0.5482 -0.0020 -0.6053
  392MOL0     H52860   3.425   9.466   0.529  1.0618  1.5702  0.4597
  392MOL0     H52861   3.312   9.258   0.534 -2.4353 -0.6294  0.2334
  392MOL0     H52862   3.211   9.311   0.668  2.0442 -0.3015  1.3981
  392MOL0     H52863   3.061   9.324   0.498 -0.3249  0.5072  1.6684
  392MOL0     H52864   3.116   9.492   0.513  2.4197 -0.7191  1.2440
  392MOL0     H52865   3.267   9.437   0.310  0.5378  0.4909  0.7730
  392MOL0     H52866   3.189   9.284   0.296 -0.0974  0.0200 -0.1478
  392MOL0     H52867   3.047   9.556   0.297  2.3899  0.7229 -1.2315
  392MOL0     H52868   2.980   9.389   0.264 -0.2668 -0.2441  0.7279
  392MOL0     H52869   3.014   9.519   0.062 -0.1001  2.4222  1.1934
  392MOL0     H52870   3.182   9.549   0.107 -0.9214  0.6096  4.7030
  392MOL0     H52871   3.370   9.390   0.057  0.5481 -0.0228  2.0683
  392MOL0     H52872   3.494   9.174  -0.003  0.9611  0.1195 -2.2817
  392MOL0     H52873   3.415   9.019  -0.051 -0.6096 -0.6633 -0.0916
  392MOL0     H52874   3.323   9.152  -0.254  0.8463 -1.5318 -1.5869
  392MOL0     H52875   3.452   9.267  -0.217  0.0468  0.2762 -0.0476
  392MOL0     H52876   3.488   9.085  -0.396 -0.0822  1.5995 -0.0916
  392MOL0     H52877   3.501   8.966  -0.269  0.0819  0.4673  1.1163
  392MOL0     H52878   3.730   9.044  -0.306 -2.1262 -1.5062  0.6882
  392MOL0     H52879   3.678   9.128  -0.162  0.8135  2.0907  0.0020
  392MOL0     H52880   3.667   9.489  -0.429 -1.8579 -1.8953  2.1975
  392MOL0     H52881   3.868   9.618  -0.469  1.2713  1.0285  2.5463
  392MOL0     H52882   4.355   9.570  -0.231 -0.3410  1.5269 -0.1655
  392MOL0     H52883   4.551   9.691  -0.224 -1.2915  1.2472  0.0081
  392MOL0     H52884   4.891   9.669  -0.370 -1.9299 -2.3489  0.9542
  392MOL0     H52885   4.809   9.572  -0.497 -2.9595 -0.1921  0.0135
  392MOL0     H52886   4.836   9.743  -0.666  2.3155 -0.0314 -1.1915
  392MOL0     H52887   4.898   9.848  -0.533 -2.8760  0.4414 -1.8167
  392MOL0     H52888   5.094   9.683  -0.514  0.4407  1.5285  0.4194
  392MOL0     H52889   5.033   9.588  -0.643  0.9754 -0.8792 -0.9129
  392MOL0     H52890   5.109   9.874  -0.672  0.1106 -1.5158  2.4130
  392MOL0     H52891   5.061   9.783  -0.804  0.2616  1.2476  0.5435
  392MOL0     H52892   5.258   9.628  -0.797 -0.2913 -1.6164  1.4420
  392MOL0     H52893   5.317   9.720  -0.653  0.0512  1.3978 -0.4403
  392MOL0     H52894   5.258   9.836  -0.930 -1.1151 -4.0685  0.8901
  392MOL0     H52895   5.323   9.928  -0.787  2.4475  0.2399 -0.5810
  392MOL0     H52896   5.459   9.683  -0.915 -1.8412 -0.0110 -0.7504
  392MOL0     H52897   5.516   9.779  -0.780  1.1603 -0.7993 -0.8272
  392MOL0     H52898   5.467   9.885  -1.052  0.4340 -3.9520 -1.0884
  392MOL0     H52899   5.528   9.983  -0.927 -0.8109  0.1465 -0.9264
  392MOL0     H52900   4.607   9.606  -0.643  2.0955  1.4677  1.3480
  392MOL0     H52901   4.426   9.467  -0.641  0.2407 -3.0016  1.9642
  392MOL0     H52902   4.110   9.291  -0.317  1.0768  2.7271 -0.4201
  392MOL0     H52903   3.923   9.158  -0.280 -1.8544 -0.5900  0.6735
  392MOL0     H52904   3.664   9.846   0.783  2.1711  0.3540  0.8551
  392MOL0     H52905   3.893   9.860   0.800  1.4134  1.7255 -0.9558
  392MOL0     H52906   4.262   9.720   0.491  0.3414 -0.6772  3.0562
  392MOL0     H52907   4.470   9.737   0.368  0.7863  1.4874 -1.5612
  392MOL0     H52908   4.774  10.084   0.451  0.9763  1.3243 -0.1394
  392MOL0     H52909   4.658  10.144   0.320 -3.2794 -3.9863 -4.4008
  392MOL0     H52910   4.777  10.098   0.147  0.1425  0.1636  0.1098
  392MOL0     H52911   4.841   9.952   0.209 -3.2632 -1.3387 -0.2746
  392MOL0     H52912   4.976  10.161   0.147  0.7616 -2.1792 -1.8056
  392MOL0     H52913   5.042  10.066   0.279  1.3986  2.1587 -0.1085
  392MOL0     H52914   4.899  10.338   0.288 -0.2569  0.0828  0.0354
  392MOL0     H52915   4.893  10.251   0.431 -0.7595  0.7621 -0.8499
  392MOL0     H52916   5.288  10.387   0.401  0.3881 -0.0197 -0.7390
  392MOL0     H52917   4.576  10.089   0.582  0.0778 -1.0233  0.3246
  392MOL0     H52918   4.450  10.171   0.739 -0.3532  0.0624 -0.7851
  392MOL0     H52919   4.278  10.178   0.707 -0.3884  0.1648 -1.1869
  392MOL0     H52920   4.337  10.050   0.820  0.7076  0.4701  0.5853
  393MOL0     O52921   0.487   9.870   2.670 -0.1603 -0.6120  0.1965
  393MOL0     C52922   0.468   9.812   2.775 -0.2173 -0.4358 -0.3687
  393MOL0     O52923   0.560   9.732   2.830  0.4741  0.1009 -0.0438
  393MOL0     C52924   0.679   9.709   2.762 -0.7478 -0.3365 -0.1224
  393MOL0     C52925   0.785   9.800   2.782 -0.0928 -0.2273 -0.1680
  393MOL0     C52926   0.907   9.773   2.721  0.8487  0.0708  0.0148
  393MOL0     C52927   0.931   9.650   2.665 -0.8505  0.1569  0.9319
  393MOL0     O52928   1.063   9.630   2.618  0.1726  0.1439 -0.1074
  393MOL0     C52929   1.146   9.570   2.714  0.2091  1.1182 -0.5143
  393MOL0     C52930   1.273   9.536   2.639 -0.5803  0.6401 -0.2223
  393MOL0     C52931   1.356   9.658   2.594  0.0040 -0.1758  0.6584
  393MOL0     C52932   1.494   9.603   2.552  0.9701  0.7851  0.0963
  393MOL0     C52933   1.596   9.710   2.502 -0.3868 -0.5031 -0.0663
  393MOL0     C52934   1.741   9.665   2.509 -0.4934  0.0205  0.0346
  393MOL0     C52935   1.827   9.779   2.440  0.6878  0.2001  0.0030
  393MOL0     C52936   1.979   9.740   2.444 -0.5420  0.4811 -0.0610
  393MOL0     N52937   2.069   9.850   2.397  0.0685  0.2002 -0.8050
  393MOL0     C52938   2.129   9.937   2.478  1.2039 -0.0556 -0.9075
  393MOL0     C52939   2.200  10.017   2.397  0.2542  0.1820  0.6096
  393MOL0     C52940   2.303  10.109   2.455 -0.5575 -0.3420 -0.4723
  393MOL0     C52941   2.409  10.062   2.547  0.2299 -0.0279  0.5178
  393MOL0     C52942   2.509   9.950   2.512  0.5519 -1.5632  0.0082
  393MOL0     C52943   2.586   9.969   2.383 -0.3903  0.7888 -0.6317
  393MOL0     O52944   2.660  10.095   2.388  0.5533 -0.2345 -0.1116
  393MOL0     C52945   2.789  10.103   2.375 -0.5158 -0.5214  0.4440
  393MOL0     C52946   2.860  10.212   2.436  0.0353 -0.2833 -0.1001
  393MOL0     C52947   3.001  10.225   2.433  0.2238 -0.4746  0.2751
  393MOL0     C52948   3.077  10.135   2.366 -0.6258  0.0904  0.1604
  393MOL0     C52949   3.230  10.131   2.359 -0.0551  0.0070 -0.4394
  393MOL0     O52950   3.287  10.028   2.294 -0.1856  0.2457 -0.2871
  393MOL0     C52951   3.424  10.009   2.298 -0.3007 -0.6814 -0.5072
  393MOL0     C52952   3.511  10.104   2.257  0.1137 -0.2464  0.6507
  393MOL0     C52953   3.652  10.092   2.283  0.0499  1.0324  0.2401
  393MOL0     C52954   3.698   9.978   2.349  0.8522 -0.1783  0.1246
  393MOL0     O52955   3.828   9.954   2.384 -0.1189 -0.2552  0.1739
  393MOL0     C52956   3.925  10.064   2.382  0.4204  0.6346 -0.0910
  393MOL0     C52957   4.012  10.054   2.256 -0.3655 -0.0071  0.1460
  393MOL0     C52958   4.122  10.165   2.233  1.4740 -0.7515 -0.1377
  393MOL0     C52959   4.236  10.145   2.334 -0.1861 -0.3500 -0.0114
  393MOL0     C52960   4.298  10.283   2.356  0.0739  0.3933  0.5325
  393MOL0     C52961   4.357  10.358   2.237  0.2480  0.2416 -0.0116
  393MOL0     C52962   4.466  10.461   2.269 -0.5625  0.2098  0.2762
  393MOL0     C52963   4.598  10.400   2.332 -0.2124 -1.0317  0.7822
  393MOL0    Cl52964   4.682  10.262   2.247 -0.3803 -0.2729  0.1250
  393MOL0     C52965   3.608   9.887   2.392 -0.4435 -0.6430  0.5759
  393MOL0     C52966   3.475   9.899   2.373 -0.0531 -0.3964 -0.0010
  393MOL0     O52967   3.287  10.224   2.420  0.1133 -0.2736 -0.3724
  393MOL0     C52968   3.006  10.042   2.290 -0.2879 -0.1533 -0.5274
  393MOL0     C52969   2.866  10.030   2.292  0.1583  0.3643 -0.0314
  393MOL0     N52970   2.193   9.964   2.269  0.2298 -0.0409  0.1261
  393MOL0     N52971   2.104   9.866   2.269  0.3359  0.1087  0.2840
  393MOL0     C52972   0.832   9.548   2.648  0.3404 -0.7694  0.1039
  393MOL0     C52973   0.711   9.585   2.708 -0.0136  0.8062 -0.1779
  393MOL0     C52974   0.356   9.849   2.872 -0.0820 -0.4104  0.1659
  393MOL0     C52975   0.381   9.821   3.009 -0.4434 -0.4554  0.0152
  393MOL0     C52976   0.285   9.846   3.106 -0.1667 -0.7334 -1.3189
  393MOL0     C52977   0.169   9.897   3.076 -0.5829 -0.4772  0.6441
  393MOL0     O52978   0.084   9.939   3.173 -0.6031 -0.1212 -0.2924
  393MOL0     C52979  -0.035   9.863   3.184 -0.6657  0.6099 -0.2009
  393MOL0     C52980  -0.134   9.892   3.301 -0.9722 -0.3640 -0.4401
  393MOL0     C52981  -0.259   9.795   3.307 -0.1181 -0.4709  0.2336
  393MOL0     C52982  -0.365   9.845   3.403 -0.1418  0.5391 -0.4078
  393MOL0     C52983  -0.432   9.965   3.354  0.4173 -0.9111 -0.5509
  393MOL0     C52984  -0.506  10.059   3.317 -0.8309 -0.7958 -0.0061
  393MOL0     C52985   0.140   9.921   2.941 -0.3682 -0.3675 -0.8798
  393MOL0     C52986   0.232   9.895   2.838  0.0723  0.0363  1.6520
  393MOL0     C52987   0.181   9.899   2.695 -0.6356 -0.2279 -0.3846
  393MOL0     H52988   0.758   9.891   2.834 -0.0755 -0.9505  1.1782
  393MOL0     H52989   0.985   9.849   2.725 -1.3909  2.6574  5.3550
  393MOL0     H52990   1.162   9.642   2.796  1.9334  2.7405 -2.1756
  393MOL0     H52991   1.103   9.475   2.747  0.3728  0.2874 -2.5405
  393MOL0     H52992   1.254   9.485   2.544 -3.4436 -0.5581  0.8820
  393MOL0     H52993   1.337   9.477   2.705  0.8573  2.5274  0.1755
  393MOL0     H52994   1.371   9.735   2.671 -0.3086  1.3552 -0.7559
  393MOL0     H52995   1.322   9.704   2.501  1.8796 -3.1244 -1.6255
  393MOL0     H52996   1.537   9.558   2.642  1.4515  0.8307 -0.1079
  393MOL0     H52997   1.485   9.520   2.481  2.1922 -1.3076  2.2490
  393MOL0     H52998   1.571   9.745   2.401  0.8125  0.5828 -0.0080
  393MOL0     H52999   1.591   9.795   2.569  1.9223 -1.1778  1.0580
  393MOL0     H53000   1.774   9.661   2.613  0.3569 -1.0833 -0.2598
  393MOL0     H53001   1.755   9.569   2.459 -1.2069  0.5832 -1.3036
  393MOL0     H53002   1.806   9.868   2.499  0.6725  0.1221  0.1148
  393MOL0     H53003   1.801   9.802   2.336  2.6435  1.0318 -0.3583
  393MOL0     H53004   1.998   9.710   2.547 -0.4008  2.7344  0.6330
  393MOL0     H53005   1.994   9.658   2.373 -0.5385  0.1198  0.3591
  393MOL0     H53006   2.121   9.931   2.586 -2.3237 -0.4157 -1.0647
  393MOL0     H53007   2.354  10.148   2.366  1.6084  3.5487  2.1757
  393MOL0     H53008   2.261  10.203   2.493  0.3992 -0.7583  1.7212
  393MOL0     H53009   2.479  10.143   2.569  0.4239 -0.0432 -0.0445
  393MOL0     H53010   2.362  10.044   2.645  2.5059 -1.0702  1.5060
  393MOL0     H53011   2.453   9.856   2.509 -0.1431 -1.1747  0.3702
  393MOL0     H53012   2.575   9.930   2.597 -1.2353 -1.9929  1.3592
  393MOL0     H53013   2.531   9.964   2.288  0.2563  1.4123 -1.0469
  393MOL0     H53014   2.668   9.896   2.383  1.1517  2.3827 -2.5409
  393MOL0     H53015   2.808  10.290   2.490  1.9612  0.6335  0.4814
  393MOL0     H53016   3.045  10.303   2.496 -0.5783 -1.2391  1.8359
  393MOL0     H53017   3.470  10.178   2.189 -2.0984  0.1713  2.3096
  393MOL0     H53018   3.717  10.167   2.239  1.1981  0.7584  1.4153
  393MOL0     H53019   3.882  10.164   2.383 -3.2113 -0.4072  6.3040
  393MOL0     H53020   3.978  10.047   2.477  0.5002 -3.1377 -0.6567
  393MOL0     H53021   4.071   9.963   2.273 -0.4728  0.0934  1.0915
  393MOL0     H53022   3.955  10.044   2.163 -0.4327  0.5226  0.1289
  393MOL0     H53023   4.162  10.158   2.131  1.3392  3.6109 -0.6737
  393MOL0     H53024   4.072  10.261   2.243 -0.9613 -2.0393  1.0526
  393MOL0     H53025   4.320  10.081   2.304  3.0738  2.3995  2.4365
  393MOL0     H53026   4.200  10.110   2.431  2.3794  1.2517  1.6573
  393MOL0     H53027   4.378  10.260   2.427  1.6936 -2.1088 -1.9091
  393MOL0     H53028   4.224  10.351   2.399 -2.4185 -0.1674 -2.5043
  393MOL0     H53029   4.397  10.284   2.167 -0.1724  0.0406 -0.0467
  393MOL0     H53030   4.282  10.408   2.175  1.2292  2.2894  0.3749
  393MOL0     H53031   4.414  10.546   2.312  0.1022  1.4816 -1.3243
  393MOL0     H53032   4.511  10.500   2.177  0.8190 -3.3338 -0.7296
  393MOL0     H53033   4.677  10.475   2.337  0.6655 -2.0367  2.5538
  393MOL0     H53034   4.572  10.370   2.434 -4.0548 -0.5273  0.1284
  393MOL0     H53035   3.645   9.803   2.450 -0.4055  0.0699  1.6079
  393MOL0     H53036   3.410   9.822   2.414 -2.4471  0.8349 -1.2663
  393MOL0     H53037   3.063   9.970   2.232 -1.4916 -2.0155  0.4749
  393MOL0     H53038   2.822   9.959   2.222 -2.9358  1.8721  0.2365
  393MOL0     H53039   0.852   9.461   2.587  0.7911 -0.4084 -0.2680
  393MOL0     H53040   0.629   9.514   2.709  0.2515  0.5131  0.8594
  393MOL0     H53041   0.473   9.779   3.048 -1.4848 -2.3720  0.5574
  393MOL0     H53042   0.306   9.817   3.209  0.3288 -0.8762 -1.4573
  393MOL0     H53043   0.011   9.765   3.197 -1.2059  0.3832  0.0419
  393MOL0     H53044  -0.097   9.864   3.094  0.0468  0.7099 -0.6913
  393MOL0     H53045  -0.160   9.997   3.290  1.2615  0.3882  1.0066
  393MOL0     H53046  -0.085   9.875   3.397 -1.3004  0.6177 -0.0945
  393MOL0     H53047  -0.220   9.702   3.350  3.3323  0.0964 -1.3702
  393MOL0     H53048  -0.303   9.762   3.213 -1.9437  0.1039  0.8394
  393MOL0     H53049  -0.438   9.765   3.421 -0.0369  0.4438 -0.4012
  393MOL0     H53050  -0.340   9.860   3.509  0.6173 -2.1443 -0.1318
  393MOL0     H53051  -0.548  10.149   3.275  1.8829 -0.0763 -1.4018
  393MOL0     H53052   0.044   9.966   2.921 -2.0267 -2.8435  0.8738
  393MOL0     H53053   0.135   9.806   2.661 -1.1001 -0.7129  1.4482
  393MOL0     H53054   0.097   9.970   2.697 -0.8594 -0.4628  2.0151
  393MOL0     H53055   0.254   9.925   2.618 -0.0961 -1.7408 -0.4201
  394MOL0     O53056   6.028   0.547   7.883 -0.1879  0.2074  0.2283
  394MOL0     C53057   5.942   0.614   7.827 -0.0928 -1.1140 -0.8560
  394MOL0     O53058   5.968   0.730   7.763  0.0908 -0.1976  0.3572
  394MOL0     C53059   6.099   0.759   7.731 -1.3242  0.0283  0.0201
  394MOL0     C53060   6.187   0.676   7.659 -0.0871  0.3099  0.6901
  394MOL0     C53061   6.317   0.709   7.625  0.1099  0.3180  0.6310
  394MOL0     C53062   6.376   0.831   7.664 -0.5393 -0.3372  0.6900
  394MOL0     O53063   6.503   0.872   7.637 -0.3326  0.2905  0.3734
  394MOL0     C53064   6.596   0.782   7.578  0.9923  0.7302 -0.7425
  394MOL0     C53065   6.739   0.823   7.633 -0.3798 -0.2566 -0.0698
  394MOL0     C53066   6.845   0.734   7.561 -0.9095 -0.1820 -0.3289
  394MOL0     C53067   6.985   0.798   7.597 -0.4455  0.1312 -0.0449
  394MOL0     C53068   7.014   0.780   7.753 -0.6588  0.4294 -0.0872
  394MOL0     C53069   7.170   0.802   7.775  0.1810 -0.5339  1.0737
  394MOL0     C53070   7.225   0.935   7.714  0.3185  0.8487 -0.2741
  394MOL0     C53071   7.362   0.958   7.776 -1.3385 -0.0109  0.4448
  394MOL0     N53072   7.406   1.097   7.739  1.0102  0.2766 -0.2818
  394MOL0     C53073   7.393   1.203   7.827  0.1101  0.6611 -0.1014
  394MOL0     C53074   7.410   1.311   7.748 -0.9704  0.5920 -0.7282
  394MOL0     C53075   7.398   1.449   7.798 -0.2911  0.1590  0.0927
  394MOL0     C53076   7.529   1.527   7.764  0.3756 -0.5022 -1.0128
  394MOL0     C53077   7.514   1.677   7.749  0.3746 -0.5919 -0.3038
  394MOL0     C53078   7.448   1.706   7.614 -0.3411  0.2066  0.0838
  394MOL0     O53079   7.428   1.845   7.595 -0.6446 -0.5125  0.1062
  394MOL0     C53080   7.411   1.880   7.464 -0.0215 -0.4935 -0.7761
  394MOL0     C53081   7.511   1.939   7.390  0.2748 -0.2103  0.1443
  394MOL0     C53082   7.503   1.973   7.259  0.3225  0.4581  0.2002
  394MOL0     C53083   7.384   1.938   7.192  0.3296 -0.0913 -0.3876
  394MOL0     C53084   7.380   1.953   7.045 -0.0984 -0.3440  0.6775
  394MOL0     O53085   7.479   2.023   6.984 -0.0828 -0.2566 -0.1706
  394MOL0     C53086   7.458   2.090   6.863  0.5587  0.0398 -0.1320
  394MOL0     C53087   7.331   2.145   6.817  0.6691  0.1324 -0.5141
  394MOL0     C53088   7.326   2.213   6.700  0.6914 -0.2176  0.3231
  394MOL0     C53089   7.437   2.248   6.623  0.5878  0.1827 -0.3306
  394MOL0     O53090   7.439   2.325   6.508  0.2331 -0.3764 -0.2305
  394MOL0     C53091   7.315   2.388   6.467  0.0006 -0.1381 -0.5840
  394MOL0     C53092   7.325   2.462   6.338 -0.2249  0.4967  0.0780
  394MOL0     C53093   7.438   2.567   6.320  0.6532  0.0070 -0.3260
  394MOL0     C53094   7.574   2.519   6.293  0.2145 -0.0211 -0.5516
  394MOL0     C53095   7.675   2.571   6.402 -0.3336  0.5570  0.5704
  394MOL0     C53096   7.751   2.694   6.350  0.7805  0.2791  0.1886
  394MOL0     C53097   7.665   2.822   6.318 -0.2862 -0.2369  0.1489
  394MOL0     C53098   7.749   2.958   6.339  0.2655  0.5264 -0.5139
  394MOL0    Cl53099   7.641   3.094   6.388  0.0083 -0.2271  0.3943
  394MOL0     C53100   7.561   2.197   6.670 -0.2713 -0.6766 -0.9679
  394MOL0     C53101   7.569   2.120   6.791 -0.1852  0.0546  0.6682
  394MOL0     O53102   7.275   1.916   6.994 -0.1984 -0.0294  0.1714
  394MOL0     C53103   7.280   1.881   7.268 -0.5229 -0.5743  0.4549
  394MOL0     C53104   7.285   1.849   7.404 -0.7637  0.6104  0.6852
  394MOL0     N53105   7.436   1.273   7.618 -0.2760 -0.1345 -0.0879
  394MOL0     N53106   7.437   1.144   7.616  0.3051 -0.6494  0.6065
  394MOL0     C53107   6.293   0.912   7.732  0.1695 -0.1245 -0.2230
  394MOL0     C53108   6.156   0.880   7.764  0.4281  0.6828 -0.2089
  394MOL0     C53109   5.801   0.580   7.818  0.0092  0.1089  0.2256
  394MOL0     C53110   5.702   0.685   7.796  0.2200  0.7381 -0.3570
  394MOL0     C53111   5.569   0.646   7.786 -0.0610  0.1166 -0.2116
  394MOL0     C53112   5.524   0.513   7.815  0.4826 -0.6656 -0.5957
  394MOL0     O53113   5.398   0.471   7.842 -0.0855 -0.5666  0.0572
  394MOL0     C53114   5.303   0.583   7.834 -0.3095 -0.3740  0.0285
  394MOL0     C53115   5.168   0.539   7.864  0.1630  0.4485  0.1777
  394MOL0     C53116   5.059   0.650   7.863  0.6061 -0.2127  0.3960
  394MOL0     C53117   5.066   0.741   7.740 -0.5184  0.3340  0.7298
  394MOL0     C53118   5.039   0.666   7.618 -0.2517 -0.0211  1.4926
  394MOL0     C53119   5.013   0.606   7.506  0.6568  0.4706  0.2627
  394MOL0     C53120   5.613   0.418   7.837 -0.1653 -0.2897 -0.3350
  394MOL0     C53121   5.748   0.439   7.839 -0.4176 -0.6065  0.0259
  394MOL0     C53122   5.839   0.320   7.871  1.0562  0.0889  0.1956
  394MOL0     H53123   6.156   0.577   7.626 -0.4450  0.7688 -0.3844
  394MOL0     H53124   6.370   0.632   7.570 -0.3949  0.3862  0.0290
  394MOL0     H53125   6.580   0.681   7.615 -3.5014  2.1716  2.0372
  394MOL0     H53126   6.585   0.778   7.469  1.5026 -1.6353 -0.7612
  394MOL0     H53127   6.736   0.818   7.742 -2.0350  1.5309  0.0292
  394MOL0     H53128   6.758   0.931   7.623  1.3675 -0.0560  3.8276
  394MOL0     H53129   6.831   0.743   7.453  0.6923 -0.8746 -0.6217
  394MOL0     H53130   6.833   0.628   7.584 -0.2393 -0.5286 -1.5276
  394MOL0     H53131   7.055   0.750   7.528 -0.1201  0.0630  0.3325
  394MOL0     H53132   6.983   0.904   7.569 -2.2358  0.1677  0.0773
  394MOL0     H53133   6.960   0.857   7.810 -0.7254 -0.0807  0.5596
  394MOL0     H53134   6.980   0.684   7.794  1.6115 -1.2594 -1.8846
  394MOL0     H53135   7.184   0.809   7.883 -0.5482 -0.6524  1.1822
  394MOL0     H53136   7.232   0.718   7.742 -0.5032 -1.5287  2.2290
  394MOL0     H53137   7.149   1.003   7.753  0.0083 -0.4384  1.4604
  394MOL0     H53138   7.238   0.928   7.605  2.7479  1.2867 -0.0686
  394MOL0     H53139   7.373   0.953   7.885  1.0870  3.4523  0.5281
  394MOL0     H53140   7.443   0.896   7.736 -0.9048  1.2413 -0.7130
  394MOL0     H53141   7.380   1.209   7.935  2.5726  0.0374  0.2929
  394MOL0     H53142   7.305   1.488   7.756 -1.3930  0.3583  2.5582
  394MOL0     H53143   7.385   1.449   7.907 -1.2751 -3.0882  0.0825
  394MOL0     H53144   7.607   1.497   7.835 -0.9060 -1.8812 -0.1494
  394MOL0     H53145   7.567   1.489   7.669 -0.2287 -1.0585 -1.0409
  394MOL0     H53146   7.615   1.717   7.755 -0.3227  1.2495 -0.1127
  394MOL0     H53147   7.458   1.726   7.829  3.1214  2.9061 -0.2887
  394MOL0     H53148   7.347   1.665   7.612  0.0783 -0.8216 -0.4980
  394MOL0     H53149   7.513   1.665   7.536  0.5697 -1.9240  1.8461
  394MOL0     H53150   7.604   1.950   7.446  1.0074 -1.1480 -0.8376
  394MOL0     H53151   7.586   2.014   7.204  1.6424  0.9139  2.4139
  394MOL0     H53152   7.239   2.122   6.870  0.6760 -2.0134 -1.3236
  394MOL0     H53153   7.224   2.240   6.674  1.1552 -0.3569 -1.8084
  394MOL0     H53154   7.238   2.310   6.461 -0.7680  0.3701  1.7673
  394MOL0     H53155   7.274   2.454   6.544 -2.9092  0.1779 -2.2675
  394MOL0     H53156   7.337   2.401   6.247 -0.1454  2.0998 -1.0308
  394MOL0     H53157   7.228   2.511   6.323  1.4000  3.0123 -3.6491
  394MOL0     H53158   7.414   2.632   6.236  2.1106  1.3889  0.2847
  394MOL0     H53159   7.437   2.639   6.402  3.1452  0.4914 -0.6527
  394MOL0     H53160   7.605   2.547   6.192  0.6404 -1.4802 -0.8592
  394MOL0     H53161   7.573   2.410   6.284 -1.2780 -0.1179  0.4271
  394MOL0     H53162   7.745   2.487   6.403 -2.1416 -1.0510 -0.9323
  394MOL0     H53163   7.636   2.583   6.504  0.0908  1.7769  0.6070
  394MOL0     H53164   7.832   2.712   6.421  0.0418  1.3691  0.7726
  394MOL0     H53165   7.807   2.671   6.258 -0.3051  0.8594 -0.6458
  394MOL0     H53166   7.570   2.825   6.373 -0.2881  0.9929  0.1092
  394MOL0     H53167   7.633   2.813   6.214 -3.2285  1.4555  0.7880
  394MOL0     H53168   7.813   2.939   6.425 -0.0344  0.4010 -0.3165
  394MOL0     H53169   7.812   2.974   6.251  0.5513  0.6382 -0.2908
  394MOL0     H53170   7.647   2.218   6.606  0.8466  1.5868  1.1196
  394MOL0     H53171   7.665   2.087   6.828  2.1595  3.2752 -1.9710
  394MOL0     H53172   7.190   1.854   7.213  0.5654 -0.5313 -1.4231
  394MOL0     H53173   7.214   1.793   7.464  1.7535 -0.1178  3.2136
  394MOL0     H53174   6.328   1.007   7.771 -2.6243  0.7617  0.3640
  394MOL0     H53175   6.103   0.961   7.813 -0.0120  1.1012 -1.3425
  394MOL0     H53176   5.723   0.791   7.791 -0.1432  0.7669 -4.3413
  394MOL0     H53177   5.501   0.724   7.752  0.1192  0.1436 -0.5097
  394MOL0     H53178   5.300   0.608   7.728 -0.3984  1.0890  0.3595
  394MOL0     H53179   5.336   0.671   7.889  0.0919 -0.4379 -0.1063
  394MOL0     H53180   5.161   0.481   7.956 -0.8177  0.3646  0.0583
  394MOL0     H53181   5.144   0.468   7.784 -2.2297 -1.8893  2.7750
  394MOL0     H53182   5.073   0.704   7.957  1.1863 -0.0415  0.2178
  394MOL0     H53183   4.959   0.607   7.854  0.6477 -0.7407  2.1671
  394MOL0     H53184   5.004   0.831   7.737 -0.8157  0.1109 -1.2888
  394MOL0     H53185   5.165   0.787   7.739 -0.9155  1.3001  2.1030
  394MOL0     H53186   4.999   0.559   7.410 -0.3996  3.1755 -1.0242
  394MOL0     H53187   5.586   0.320   7.875  0.9698  0.6231  3.1693
  394MOL0     H53188   5.829   0.299   7.977 -1.7325  0.8451  0.1483
  394MOL0     H53189   5.808   0.233   7.813 -3.4998  2.2429 -1.0799
  394MOL0     H53190   5.944   0.334   7.843  1.2055 -0.8913  0.2225
  395MOL0     O53191  10.053   0.319   1.914  0.8126  0.0746 -0.1957
  395MOL0     C53192  10.026   0.394   1.820  0.4257 -0.1102 -0.6514
  395MOL0     O53193  10.115   0.447   1.746  0.4467 -0.1460  0.1446
  395MOL0     C53194  10.247   0.431   1.765 -0.2646 -0.1204 -0.7204
  395MOL0     C53195  10.328   0.528   1.816 -0.9889 -1.0152 -0.2998
  395MOL0     C53196  10.463   0.509   1.838 -0.0254 -0.0476  0.1390
  395MOL0     C53197  10.532   0.395   1.795 -0.0666 -0.9966 -0.2641
  395MOL0     O53198  10.670   0.394   1.801  0.1210 -0.6735  0.2516
  395MOL0     C53199  10.743   0.273   1.752 -0.1119 -0.5011 -0.0572
  395MOL0     C53200  10.891   0.287   1.788 -0.2064  0.8725  0.2415
  395MOL0     C53201  10.947   0.426   1.730  0.2878 -0.0715  0.8960
  395MOL0     C53202  11.082   0.461   1.770 -0.1794 -0.3364  0.4413
  395MOL0     C53203  11.137   0.608   1.725  0.1122  0.6755  1.0684
  395MOL0     C53204  11.161   0.624   1.575  0.5974 -0.1791 -0.0887
  395MOL0     C53205  11.233   0.753   1.537  0.2946 -0.4932  0.1419
  395MOL0     C53206  11.225   0.782   1.385 -0.5455 -0.4249 -0.1103
  395MOL0     N53207  11.303   0.683   1.312  0.7601 -0.3827  0.0386
  395MOL0     C53208  11.318   0.681   1.175 -0.7009 -0.2104 -0.2596
  395MOL0     C53209  11.401   0.577   1.147 -0.4857 -1.1530  0.3861
  395MOL0     C53210  11.423   0.520   1.006 -0.1315 -0.1663 -0.0126
  395MOL0     C53211  11.577   0.562   0.974 -0.5828  0.2777 -0.1288
  395MOL0     C53212  11.595   0.695   0.904  0.2781  0.4940  0.4971
  395MOL0     C53213  11.741   0.739   0.904  0.2875 -0.2606  0.1693
  395MOL0     O53214  11.749   0.876   0.861  0.2387 -0.6259 -0.1269
  395MOL0     C53215  11.866   0.937   0.875 -0.9600 -0.2900  0.6256
  395MOL0     C53216  11.996   0.888   0.908  0.3759 -0.4043  0.2316
  395MOL0     C53217  12.102   0.978   0.938 -0.9439 -0.8419  0.2347
  395MOL0     C53218  12.092   1.122   0.923 -0.0318  0.5341 -0.2517
  395MOL0     C53219  12.202   1.214   0.950 -0.4723 -1.3858  0.4585
  395MOL0     O53220  12.305   1.163   1.025 -0.3422  0.3748 -0.3171
  395MOL0     C53221  12.415   1.233   1.056 -0.1421  0.4813 -0.0957
  395MOL0     C53222  12.415   1.354   1.124  0.6418 -0.4374  0.8524
  395MOL0     C53223  12.534   1.425   1.154  0.5705  0.0759  0.2584
  395MOL0     C53224  12.655   1.378   1.112  0.0444  0.1649  0.0268
  395MOL0     O53225  12.767   1.457   1.131 -0.6673  0.1816  0.1140
  395MOL0     C53226  12.899   1.417   1.078  0.1408 -0.1487  0.2339
  395MOL0     C53227  13.000   1.513   1.141  0.4226  0.5305  0.3833
  395MOL0     C53228  13.144   1.474   1.098 -0.0710  0.7122  0.0073
  395MOL0     C53229  13.199   1.359   1.175 -0.1074 -0.0410 -0.9705
  395MOL0     C53230  13.331   1.305   1.120  0.2375 -0.7203 -0.6222
  395MOL0     C53231  13.383   1.179   1.188  0.9821  0.7958 -0.0026
  395MOL0     C53232  13.363   1.050   1.101  0.0870  0.4095  0.3466
  395MOL0     C53233  13.225   1.033   1.036 -0.2941 -0.2357 -0.0344
  395MOL0    Cl53234  13.240   0.900   0.931  0.2623  0.6467  0.1692
  395MOL0     C53235  12.657   1.254   1.044 -0.5862 -0.3375 -0.0198
  395MOL0     C53236  12.540   1.188   1.023 -0.3705  0.8197  0.2908
  395MOL0     O53237  12.201   1.316   0.880 -0.4600 -0.2794 -0.5376
  395MOL0     C53238  11.966   1.170   0.879  0.1059 -0.8929 -0.2500
  395MOL0     C53239  11.860   1.075   0.849 -0.2372 -0.2119 -0.9824
  395MOL0     N53240  11.437   0.516   1.261  0.2208 -0.5667  0.1495
  395MOL0     N53241  11.388   0.585   1.359  0.2008  0.2680  0.1732
  395MOL0     C53242  10.452   0.298   1.739 -0.5590  0.3157  0.6712
  395MOL0     C53243  10.312   0.318   1.721  0.3259  0.5425  1.1480
  395MOL0     C53244   9.882   0.416   1.769  0.2256 -0.1836  0.4721
  395MOL0     C53245   9.859   0.435   1.632 -0.0767 -0.5013  0.0309
  395MOL0     C53246   9.740   0.457   1.579 -0.4525 -0.7106 -0.6048
  395MOL0     C53247   9.633   0.482   1.664  0.7406  0.2560 -0.7156
  395MOL0     O53248   9.509   0.505   1.611 -0.1022  0.9208 -0.8182
  395MOL0     C53249   9.492   0.608   1.519 -0.7737 -0.0171  0.1504
  395MOL0     C53250   9.450   0.742   1.585  0.1454  0.9882  0.2862
  395MOL0     C53251   9.323   0.717   1.667  0.7474  0.7868  0.0446
  395MOL0     C53252   9.191   0.669   1.587 -0.6549 -0.2034 -0.3608
  395MOL0     C53253   9.094   0.623   1.684  0.6085  0.5103 -0.2480
  395MOL0     C53254   9.009   0.612   1.775 -0.8963 -0.2394 -0.0800
  395MOL0     C53255   9.646   0.471   1.800  0.2052  0.2445 -0.4793
  395MOL0     C53256   9.774   0.443   1.857  0.4511  0.0879  0.4367
  395MOL0     C53257   9.796   0.443   2.006  0.4438 -0.2310  0.0746
  395MOL0     H53258  10.279   0.621   1.845 -0.4643 -0.9668  0.4486
  395MOL0     H53259  10.523   0.584   1.890  1.6549 -0.3421 -1.2940
  395MOL0     H53260  10.710   0.181   1.801 -2.1571  0.0453 -0.3000
  395MOL0     H53261  10.735   0.256   1.645  0.8164 -1.5308  0.0232
  395MOL0     H53262  10.949   0.207   1.739  0.9811  1.1132  1.1900
  395MOL0     H53263  10.919   0.273   1.893  3.3989 -1.3625 -0.8091
  395MOL0     H53264  10.878   0.510   1.738  2.3567  1.6421  1.7319
  395MOL0     H53265  10.953   0.417   1.621  0.6113  1.5038  0.7657
  395MOL0     H53266  11.084   0.460   1.880 -3.3309  1.0490  0.6124
  395MOL0     H53267  11.153   0.390   1.728  2.2927  1.7985  0.7488
  395MOL0     H53268  11.076   0.688   1.769 -0.8743  0.4723  0.1192
  395MOL0     H53269  11.231   0.612   1.780  1.3899 -1.8012 -0.7789
  395MOL0     H53270  11.205   0.531   1.539  1.2732 -0.6799  1.9147
  395MOL0     H53271  11.060   0.630   1.532  0.7765 -0.9194 -0.6403
  395MOL0     H53272  11.339   0.748   1.563  0.8019  0.1033 -1.7027
  395MOL0     H53273  11.185   0.830   1.598 -0.1248 -0.6822  0.0562
  395MOL0     H53274  11.119   0.771   1.361 -1.0510 -1.3709  2.2221
  395MOL0     H53275  11.268   0.882   1.378 -3.1041  1.3177  4.7024
  395MOL0     H53276  11.276   0.750   1.103 -0.6199 -1.0087 -1.0932
  395MOL0     H53277  11.420   0.411   1.011  0.2149 -0.1576  0.4395
  395MOL0     H53278  11.353   0.560   0.932  0.8099 -2.3323 -2.1764
  395MOL0     H53279  11.638   0.556   1.065  1.2127 -3.5895 -1.3579
  395MOL0     H53280  11.629   0.490   0.910  0.1793  0.0594  0.7134
  395MOL0     H53281  11.542   0.775   0.957 -0.6910 -0.6049  1.2350
  395MOL0     H53282  11.567   0.693   0.798 -1.4325 -0.2859  0.9394
  395MOL0     H53283  11.812   0.682   0.843  0.5446  3.0372 -3.0204
  395MOL0     H53284  11.781   0.728   1.005 -1.4335 -1.8046  0.7255
  395MOL0     H53285  12.017   0.781   0.912 -3.0985 -1.2027  0.7252
  395MOL0     H53286  12.196   0.935   0.973 -0.1459  1.3920  0.9736
  395MOL0     H53287  12.323   1.399   1.159  1.4758 -0.3848  3.1622
  395MOL0     H53288  12.518   1.523   1.197  0.2101  1.0013 -1.8289
  395MOL0     H53289  12.920   1.317   1.117  0.0495  0.2393  1.3302
  395MOL0     H53290  12.902   1.403   0.970  1.7654 -1.6980  0.4521
  395MOL0     H53291  12.977   1.613   1.102  1.8294 -0.1487 -2.5266
  395MOL0     H53292  12.994   1.516   1.250  0.7482 -0.0200  0.4166
  395MOL0     H53293  13.137   1.438   0.995 -0.1336 -1.5373  0.7379
  395MOL0     H53294  13.212   1.558   1.110 -0.3508  1.0166 -0.4690
  395MOL0     H53295  13.129   1.275   1.186  0.5257 -0.3360  1.4504
  395MOL0     H53296  13.226   1.393   1.276 -0.3442 -2.7805  0.1313
  395MOL0     H53297  13.412   1.378   1.134  3.7576 -4.2160 -0.7654
  395MOL0     H53298  13.310   1.293   1.014  0.9331 -0.2598 -0.8185
  395MOL0     H53299  13.491   1.190   1.201  1.0490  0.2925 -0.1217
  395MOL0     H53300  13.344   1.160   1.289  0.1651 -3.1200 -0.8810
  395MOL0     H53301  13.396   0.963   1.160 -2.0805 -0.4738  0.3549
  395MOL0     H53302  13.435   1.063   1.019  0.3460 -2.3189  0.0244
  395MOL0     H53303  13.150   1.006   1.111 -0.3254  0.8346  0.3439
  395MOL0     H53304  13.195   1.116   0.971 -2.0382 -2.5530 -2.3792
  395MOL0     H53305  12.753   1.223   1.005  0.9558  3.1825  0.6076
  395MOL0     H53306  12.536   1.094   0.969 -0.6220  0.5052  0.8470
  395MOL0     H53307  11.952   1.276   0.860  3.0867  0.0634  2.0683
  395MOL0     H53308  11.764   1.099   0.805 -1.3412  0.4215  1.6224
  395MOL0     H53309  10.501   0.210   1.698  1.1096  1.0830  0.9355
  395MOL0     H53310  10.255   0.245   1.665  0.7111 -0.2228  1.7400
  395MOL0     H53311   9.935   0.415   1.557  1.2326 -1.1366  1.4666
  395MOL0     H53312   9.728   0.459   1.471  1.7636  0.6854 -0.8914
  395MOL0     H53313   9.415   0.586   1.445  3.1235  1.9789 -5.1353
  395MOL0     H53314   9.581   0.617   1.456 -0.5977 -1.3320  0.1672
  395MOL0     H53315   9.429   0.826   1.518  1.7795  0.4853 -0.8902
  395MOL0     H53316   9.532   0.759   1.655  0.6260 -0.6434  0.1408
  395MOL0     H53317   9.305   0.816   1.711  0.0503  0.9829 -0.6484
  395MOL0     H53318   9.334   0.654   1.756 -1.2601  0.2718 -0.0099
  395MOL0     H53319   9.153   0.754   1.531 -0.2865  0.0818 -0.1866
  395MOL0     H53320   9.210   0.595   1.509 -0.4046 -0.8519  0.3003
  395MOL0     H53321   8.933   0.593   1.848 -1.8134  0.9237 -0.7021
  395MOL0     H53322   9.564   0.488   1.869 -0.6437 -0.1756 -1.3533
  395MOL0     H53323   9.901   0.459   2.031  0.6668 -0.8246 -0.4252
  395MOL0     H53324   9.727   0.511   2.056  1.0566 -0.8235  1.8201
  395MOL0     H53325   9.781   0.348   2.059  2.8538  0.0506  1.4139
  396MOL0     O53326   0.665   6.103   6.476 -0.4874 -0.2997 -0.2401
  396MOL0     C53327   0.600   6.067   6.378  0.7970  0.2020 -0.7027
  396MOL0     O53328   0.639   5.971   6.296 -0.4255 -0.0954 -0.0763
  396MOL0     C53329   0.743   5.890   6.342  0.0835  0.6041  0.5294
  396MOL0     C53330   0.873   5.898   6.284 -0.9536 -0.1904 -0.0012
  396MOL0     C53331   0.986   5.841   6.352  0.1102 -0.5849  0.5004
  396MOL0     C53332   0.968   5.762   6.469  0.6748 -0.1837  0.0629
  396MOL0     O53333   1.076   5.710   6.539  0.1549 -0.0167 -0.2905
  396MOL0     C53334   1.205   5.755   6.519  0.3815 -0.2584  0.0967
  396MOL0     C53335   1.292   5.715   6.636  0.4903  0.7055 -0.2476
  396MOL0     C53336   1.306   5.560   6.639  0.2547  0.3512 -0.5495
  396MOL0     C53337   1.406   5.499   6.537  0.2746 -0.0858  0.1206
  396MOL0     C53338   1.536   5.440   6.596 -0.8035 -0.2342  0.3455
  396MOL0     C53339   1.635   5.399   6.479  0.0284 -0.0960 -0.6201
  396MOL0     C53340   1.760   5.332   6.544  0.4498 -0.3005  0.3629
  396MOL0     C53341   1.836   5.261   6.429  0.5260  0.6743 -0.3228
  396MOL0     N53342   1.968   5.198   6.463  0.2073 -0.0981 -0.7257
  396MOL0     C53343   2.090   5.258   6.437 -0.3628 -1.3387  0.2741
  396MOL0     C53344   2.179   5.169   6.492  0.5065  0.0579 -0.2229
  396MOL0     C53345   2.333   5.181   6.488  1.1317  0.8544  0.0143
  396MOL0     C53346   2.409   5.062   6.416  0.3859 -0.0038 -0.4022
  396MOL0     C53347   2.413   4.938   6.505 -0.3935  0.9331  0.2219
  396MOL0     C53348   2.514   4.833   6.452  0.5954  0.1173 -0.0738
  396MOL0     O53349   2.646   4.889   6.463 -0.1863  0.7716  0.8768
  396MOL0     C53350   2.748   4.840   6.387 -0.6981 -0.3528 -0.2280
  396MOL0     C53351   2.743   4.720   6.311  0.1993  0.0004 -1.2898
  396MOL0     C53352   2.859   4.675   6.248 -0.9814  1.2378 -0.1497
  396MOL0     C53353   2.987   4.739   6.271  0.3515 -0.4854  0.1798
  396MOL0     C53354   3.112   4.685   6.226 -0.4441 -0.1683  0.0444
  396MOL0     O53355   3.228   4.747   6.267  0.2565  0.2376  0.3641
  396MOL0     C53356   3.340   4.669   6.257  0.2863  0.2692  1.0364
  396MOL0     C53357   3.359   4.543   6.315  1.4352  0.7664 -0.1948
  396MOL0     C53358   3.478   4.485   6.327 -0.8599 -0.5148 -0.0894
  396MOL0     C53359   3.594   4.539   6.263 -0.3081 -1.0271  0.7538
  396MOL0     O53360   3.717   4.484   6.287 -0.2033 -0.6550 -0.1979
  396MOL0     C53361   3.832   4.526   6.210  0.3600  0.1029 -0.0379
  396MOL0     C53362   3.956   4.449   6.265 -0.6846  0.0261 -0.6739
  396MOL0     C53363   4.081   4.511   6.201  1.0085 -0.0688 -0.5770
  396MOL0     C53364   4.209   4.449   6.247 -0.9393 -0.0185  0.5620
  396MOL0     C53365   4.331   4.542   6.235 -0.4520 -0.0123 -0.4953
  396MOL0     C53366   4.460   4.476   6.292 -0.4826  0.1711  0.7116
  396MOL0     C53367   4.578   4.566   6.275 -0.1161  0.0263 -0.1987
  396MOL0     C53368   4.711   4.489   6.269 -0.5391  0.3076 -0.7079
  396MOL0    Cl53369   4.836   4.618   6.254 -0.1761 -0.1716 -0.0216
  396MOL0     C53370   3.576   4.657   6.187 -0.4841  0.3139 -0.3208
  396MOL0     C53371   3.451   4.725   6.191  0.6505 -0.2837 -0.8000
  396MOL0     O53372   3.110   4.580   6.156  0.3857 -0.0827  0.1454
  396MOL0     C53373   2.985   4.850   6.353 -0.4076 -0.0722  0.0922
  396MOL0     C53374   2.868   4.905   6.405 -0.6265 -0.0691  0.0836
  396MOL0     N53375   2.109   5.067   6.553  0.9311 -0.1072  0.7139
  396MOL0     N53376   1.980   5.082   6.522 -0.6047  0.4923  0.5760
  396MOL0     C53377   0.840   5.755   6.518 -0.6841 -0.0991 -0.8320
  396MOL0     C53378   0.732   5.820   6.466  0.4767 -0.3629 -0.1603
  396MOL0     C53379   0.470   6.141   6.349 -0.5126  0.0340 -0.5531
  396MOL0     C53380   0.418   6.105   6.220 -0.4604 -0.6880 -0.1947
  396MOL0     C53381   0.298   6.163   6.174  0.7070  0.0219  1.2648
  396MOL0     C53382   0.218   6.249   6.252 -0.3925 -0.4213  0.2795
  396MOL0     O53383   0.114   6.319   6.189  1.1222 -0.3536 -0.1820
  396MOL0     C53384   0.020   6.388   6.279 -0.2802 -0.8205  0.0452
  396MOL0     C53385  -0.107   6.443   6.210  0.9778  0.3161  0.5128
  396MOL0     C53386  -0.198   6.512   6.307 -0.0797 -0.5687  0.2978
  396MOL0     C53387  -0.296   6.600   6.235 -0.0771 -0.0524  0.5051
  396MOL0     C53388  -0.365   6.677   6.333 -0.0564 -0.1535 -0.8216
  396MOL0     C53389  -0.419   6.739   6.428 -0.3481  0.7329 -0.1735
  396MOL0     C53390   0.263   6.271   6.385 -0.4277  0.2159 -0.0113
  396MOL0     C53391   0.390   6.220   6.438  0.2389 -0.1931 -0.3436
  396MOL0     C53392   0.426   6.261   6.577 -0.7082  0.2832 -0.1420
  396MOL0     H53393   0.892   5.952   6.192  2.8226  0.4457  0.9946
  396MOL0     H53394   1.081   5.862   6.306 -0.4770  2.0622  0.3046
  396MOL0     H53395   1.230   5.707   6.424  2.9001  3.4347 -1.3460
  396MOL0     H53396   1.201   5.864   6.506  0.2947 -0.0722  1.5067
  396MOL0     H53397   1.239   5.754   6.724 -0.6737 -1.4007  0.0390
  396MOL0     H53398   1.388   5.766   6.631  0.0785  1.4635 -0.8774
  396MOL0     H53399   1.217   5.496   6.638 -0.7113  1.6469 -0.0300
  396MOL0     H53400   1.345   5.542   6.740  0.4860  0.4336 -0.6224
  396MOL0     H53401   1.351   5.434   6.469  1.1964  0.5264 -1.2561
  396MOL0     H53402   1.447   5.581   6.477 -0.5421  0.0427 -0.2664
  396MOL0     H53403   1.583   5.511   6.664 -0.7080 -0.2557  0.3019
  396MOL0     H53404   1.514   5.345   6.646  2.4216 -1.2666  0.0029
  396MOL0     H53405   1.576   5.339   6.409 -0.2976 -1.1249  0.4999
  396MOL0     H53406   1.675   5.487   6.429 -0.2262  1.2735  1.4391
  396MOL0     H53407   1.718   5.264   6.619 -0.1203  0.0523  0.3707
  396MOL0     H53408   1.822   5.412   6.586  0.4454  0.3563 -0.8416
  396MOL0     H53409   1.770   5.187   6.384 -0.1050  0.1803  1.3105
  396MOL0     H53410   1.852   5.339   6.354 -5.3115  3.8428  1.0835
  396MOL0     H53411   2.108   5.358   6.399 -0.6017 -1.0030  1.0189
  396MOL0     H53412   2.346   5.270   6.424 -1.7453  1.7505  0.5396
  396MOL0     H53413   2.368   5.194   6.591  3.2027  3.4860 -0.8938
  396MOL0     H53414   2.359   5.050   6.320  0.8877 -0.2279 -0.6375
  396MOL0     H53415   2.514   5.082   6.395  0.1950  1.0731 -0.4188
  396MOL0     H53416   2.314   4.892   6.492  0.3826 -0.6307 -0.5142
  396MOL0     H53417   2.444   4.962   6.607 -0.0101 -0.9194  0.5805
  396MOL0     H53418   2.492   4.815   6.346  0.3474  1.5801 -0.2845
  396MOL0     H53419   2.515   4.748   6.521 -1.2376 -0.6756 -0.9557
  396MOL0     H53420   2.658   4.653   6.320  0.0981  0.3967  2.2680
  396MOL0     H53421   2.855   4.588   6.183 -1.4456  1.6311 -0.6551
  396MOL0     H53422   3.272   4.500   6.364  0.6248 -0.3019 -2.4416
  396MOL0     H53423   3.502   4.396   6.384  0.7191 -1.2579 -1.8129
  396MOL0     H53424   3.826   4.489   6.107 -0.5190 -0.5996  0.2572
  396MOL0     H53425   3.863   4.631   6.213  3.6521 -0.7475 -0.5002
  396MOL0     H53426   3.967   4.460   6.373  2.7518  0.8312 -1.0061
  396MOL0     H53427   3.948   4.341   6.248  2.8216 -1.1460  3.5391
  396MOL0     H53428   4.075   4.520   6.093 -1.0898  1.5348 -0.3871
  396MOL0     H53429   4.076   4.617   6.229  2.5125 -0.0772 -0.1489
  396MOL0     H53430   4.235   4.361   6.187 -0.1157  0.4970  0.1569
  396MOL0     H53431   4.187   4.418   6.350  1.3956 -0.6908  0.9086
  396MOL0     H53432   4.322   4.642   6.277  2.6289  0.0433  0.2927
  396MOL0     H53433   4.355   4.555   6.129  1.7628 -0.8546 -0.1658
  396MOL0     H53434   4.451   4.452   6.398 -0.3224  2.6665  1.3561
  396MOL0     H53435   4.481   4.383   6.238  1.7261 -0.9068  3.2152
  396MOL0     H53436   4.595   4.625   6.366  2.6775  0.6245 -1.0145
  396MOL0     H53437   4.568   4.633   6.190  0.0915  2.1030  1.3386
  396MOL0     H53438   4.716   4.426   6.358 -0.8656 -1.7696 -2.1160
  396MOL0     H53439   4.712   4.425   6.180  3.1992 -2.3547  0.9750
  396MOL0     H53440   3.664   4.703   6.143  0.1655 -1.0414 -0.4947
  396MOL0     H53441   3.446   4.830   6.164  2.0002 -0.6379 -2.6263
  396MOL0     H53442   3.076   4.894   6.393 -1.9272  1.3555  2.1916
  396MOL0     H53443   2.871   4.990   6.472  2.4912  0.1238 -0.1198
  396MOL0     H53444   0.836   5.688   6.604  1.4236  0.0648 -0.5581
  396MOL0     H53445   0.637   5.824   6.517  0.4949 -0.1156 -0.1446
  396MOL0     H53446   0.475   6.038   6.156  1.2684 -2.4214  2.9226
  396MOL0     H53447   0.268   6.147   6.071 -0.7136  3.6315  0.9377
  396MOL0     H53448   0.074   6.472   6.324  2.1595 -1.1748 -2.0224
  396MOL0     H53449  -0.025   6.320   6.352 -1.4154  0.4159  0.5402
  396MOL0     H53450  -0.147   6.355   6.159  1.7355 -0.1429  0.6956
  396MOL0     H53451  -0.072   6.519   6.140  2.8354  0.8999  1.9761
  396MOL0     H53452  -0.138   6.567   6.380  2.5022 -0.1087 -2.0204
  396MOL0     H53453  -0.258   6.435   6.357 -1.1352 -0.5164 -0.8379
  396MOL0     H53454  -0.242   6.671   6.172 -2.1028  0.1095 -1.1743
  396MOL0     H53455  -0.372   6.548   6.176 -0.8922  0.7066  0.8520
  396MOL0     H53456  -0.466   6.788   6.511 -0.7031 -1.0315  0.6956
  396MOL0     H53457   0.206   6.336   6.449  2.4758  0.8006  2.1630
  396MOL0     H53458   0.504   6.338   6.570 -1.1980  0.6363 -2.9192
  396MOL0     H53459   0.348   6.305   6.640 -2.9349 -1.7610 -1.3233
  396MOL0     H53460   0.452   6.173   6.637 -1.8916 -0.0842 -0.1502
  397MOL0     O53461   1.171   9.591   3.107 -0.2292 -0.1465 -0.1643
  397MOL0     C53462   1.171   9.476   3.055  1.0123  1.1266 -0.6835
  397MOL0     O53463   1.280   9.408   3.022  0.1861 -0.3380 -0.2471
  397MOL0     C53464   1.397   9.443   3.078 -0.5337 -0.3248 -0.0519
  397MOL0     C53465   1.509   9.443   2.992  0.1726 -0.4138  0.3302
  397MOL0     C53466   1.632   9.469   3.039 -0.7396 -0.1361  0.3998
  397MOL0     C53467   1.666   9.483   3.177 -0.4619 -0.5065 -0.2875
  397MOL0     O53468   1.792   9.502   3.224 -0.4695  0.6703 -0.5155
  397MOL0     C53469   1.879   9.388   3.222 -0.1470  0.3463 -0.5167
  397MOL0     C53470   1.982   9.405   3.112  0.8094  0.6564 -0.5621
  397MOL0     C53471   2.106   9.321   3.110  0.3558 -0.8386 -1.2437
  397MOL0     C53472   2.191   9.330   2.980 -0.4212 -0.4949 -0.5343
  397MOL0     C53473   2.310   9.238   2.990 -0.7901 -0.0222  0.6812
  397MOL0     C53474   2.409   9.269   3.093 -0.9190  1.3637  0.2240
  397MOL0     C53475   2.554   9.203   3.063  0.0853 -0.4223 -0.6913
  397MOL0     C53476   2.668   9.262   3.147 -0.4714  0.4551  0.8080
  397MOL0     N53477   2.777   9.163   3.180  1.5245  0.3113  0.5812
  397MOL0     C53478   2.856   9.108   3.085  0.7143 -0.1568 -1.1662
  397MOL0     C53479   2.942   9.035   3.157 -0.6974  1.0580 -0.6651
  397MOL0     C53480   3.057   8.953   3.112 -0.9161 -0.1766  0.3583
  397MOL0     C53481   3.022   8.849   3.008 -1.0098  0.1424  0.5416
  397MOL0     C53482   3.128   8.738   2.990  0.6928 -0.4319  0.0807
  397MOL0     C53483   3.275   8.780   2.972  0.2208  0.1564  0.7597
  397MOL0     O53484   3.355   8.658   2.958 -0.5868  0.2253  0.4549
  397MOL0     C53485   3.488   8.685   2.943  0.2189  0.2042  1.5874
  397MOL0     C53486   3.565   8.568   2.917  0.7893 -0.3435 -0.0266
  397MOL0     C53487   3.705   8.569   2.898 -0.3418 -0.6544 -0.0405
  397MOL0     C53488   3.777   8.690   2.883  0.4420 -0.0911  0.3269
  397MOL0     C53489   3.922   8.693   2.842 -0.1762  1.1875  0.0784
  397MOL0     O53490   3.975   8.577   2.789  0.0962 -0.3386 -0.4777
  397MOL0     C53491   4.099   8.591   2.746 -0.8901  0.6923  0.0208
  397MOL0     C53492   4.203   8.578   2.839  0.1889  1.0477 -0.1204
  397MOL0     C53493   4.339   8.598   2.805 -0.1692  0.9117 -0.2551
  397MOL0     C53494   4.370   8.616   2.673  0.2033  0.5902  0.4076
  397MOL0     O53495   4.496   8.635   2.646 -0.0893  0.6123 -0.0758
  397MOL0     C53496   4.565   8.622   2.518 -0.7723 -0.9381 -0.2217
  397MOL0     C53497   4.716   8.623   2.533  0.2214  0.0239 -0.3670
  397MOL0     C53498   4.786   8.588   2.400 -0.6545 -0.5976  0.2408
  397MOL0     C53499   4.922   8.655   2.387  0.6787  1.2093 -0.0579
  397MOL0     C53500   4.984   8.636   2.245 -0.3582 -0.2461  0.7554
  397MOL0     C53501   5.109   8.729   2.234  0.3346  0.4562  0.6262
  397MOL0     C53502   5.178   8.713   2.106 -0.2394  0.4149  0.0175
  397MOL0     C53503   5.286   8.815   2.094  0.5268 -0.1857  0.4059
  397MOL0    Cl53504   5.397   8.783   1.955  0.1399 -0.1335 -0.3863
  397MOL0     C53505   4.265   8.603   2.575  0.4306 -0.0625 -0.7937
  397MOL0     C53506   4.126   8.589   2.615 -0.9966 -0.6014 -0.4156
  397MOL0     O53507   3.985   8.801   2.847 -0.4154 -0.1509  1.0021
  397MOL0     C53508   3.708   8.805   2.918  0.0756  0.5155  0.7550
  397MOL0     C53509   3.564   8.805   2.950  0.4027  0.2886 -0.1682
  397MOL0     N53510   2.904   9.036   3.295 -1.3315 -0.4161  0.2327
  397MOL0     N53511   2.801   9.117   3.308  0.7249 -0.2410  0.4734
  397MOL0     C53512   1.557   9.472   3.260 -0.7728 -0.1155 -0.8739
  397MOL0     C53513   1.423   9.456   3.215 -0.0635  0.3706 -0.8361
  397MOL0     C53514   1.040   9.419   3.012  0.0440  0.6449  0.1247
  397MOL0     C53515   1.044   9.280   2.971 -0.2325 -0.0344 -0.2606
  397MOL0     C53516   0.936   9.215   2.941  0.0654 -0.1651 -0.4013
  397MOL0     C53517   0.806   9.278   2.949  0.4247 -0.9329 -0.3118
  397MOL0     O53518   0.678   9.215   2.937 -0.6130  0.2026  0.6078
  397MOL0     C53519   0.676   9.092   2.850 -0.1168 -0.0034 -0.4917
  397MOL0     C53520   0.542   9.018   2.876 -1.3631  0.5586 -0.7718
  397MOL0     C53521   0.432   9.104   2.820 -0.2867 -0.0394 -0.5957
  397MOL0     C53522   0.298   9.041   2.837 -1.4417 -0.0346 -1.0269
  397MOL0     C53523   0.190   9.128   2.793 -0.3253  0.6025 -0.3890
  397MOL0     C53524   0.095   9.188   2.747  0.4198  0.4919 -0.2229
  397MOL0     C53525   0.793   9.411   2.986  0.0725 -0.3371  0.1741
  397MOL0     C53526   0.910   9.483   3.016  0.6819 -1.2500 -0.7704
  397MOL0     C53527   0.881   9.620   3.080 -0.6451 -0.2621  0.2079
  397MOL0     H53528   1.505   9.403   2.891  2.7280 -0.8171  0.3213
  397MOL0     H53529   1.708   9.495   2.965 -0.8544  1.0435  0.6775
  397MOL0     H53530   1.924   9.384   3.322 -1.4057  0.1390  0.0532
  397MOL0     H53531   1.829   9.294   3.200 -0.8346  0.3931  0.7517
  397MOL0     H53532   2.017   9.509   3.113 -0.5281  1.1350 -0.4456
  397MOL0     H53533   1.923   9.389   3.021  1.6256 -3.5166 -0.5370
  397MOL0     H53534   2.094   9.216   3.137  2.0309 -1.1823 -1.7575
  397MOL0     H53535   2.172   9.354   3.191  2.5953 -0.8775 -2.9610
  397MOL0     H53536   2.128   9.288   2.901  2.3135 -4.3578 -0.9195
  397MOL0     H53537   2.233   9.427   2.953  0.5475 -0.9072 -0.5506
  397MOL0     H53538   2.277   9.134   2.989  0.1213 -0.3700 -2.6088
  397MOL0     H53539   2.356   9.257   2.893  1.8089  0.3646  1.9084
  397MOL0     H53540   2.437   9.374   3.106  0.7365  0.6692  3.0306
  397MOL0     H53541   2.383   9.226   3.190 -1.2882 -2.0529 -1.2266
  397MOL0     H53542   2.576   9.208   2.957 -0.9123  0.5692 -0.8733
  397MOL0     H53543   2.553   9.095   3.083 -1.6330 -0.5430 -1.2511
  397MOL0     H53544   2.714   9.340   3.085  0.2977 -1.5979 -1.3684
  397MOL0     H53545   2.618   9.299   3.237 -2.8664 -2.5587  0.8573
  397MOL0     H53546   2.844   9.119   2.977 -0.6699  2.1016 -0.8533
  397MOL0     H53547   3.134   9.018   3.071  0.2964 -0.8293  1.5047
  397MOL0     H53548   3.102   8.899   3.196 -2.9858 -1.2772  0.8340
  397MOL0     H53549   2.928   8.800   3.034 -0.5466 -0.4185  1.1511
  397MOL0     H53550   3.010   8.889   2.906  1.3320 -1.8773 -0.6471
  397MOL0     H53551   3.089   8.676   2.908  0.8994  1.5848 -1.6158
  397MOL0     H53552   3.126   8.670   3.076  1.6589 -2.1967 -1.2212
  397MOL0     H53553   3.312   8.838   3.057  2.0216  0.6452 -0.2914
  397MOL0     H53554   3.284   8.853   2.891  0.9587  3.1466  3.3338
  397MOL0     H53555   3.507   8.478   2.935 -2.7004  1.1134 -2.8747
  397MOL0     H53556   3.758   8.474   2.899  0.3605 -0.3229  2.5034
  397MOL0     H53557   4.160   8.554   2.935 -1.4723 -0.1411 -1.1143
  397MOL0     H53558   4.410   8.594   2.887 -0.8893  1.1301  0.3836
  397MOL0     H53559   4.553   8.524   2.471  1.0330 -2.0981  1.5596
  397MOL0     H53560   4.529   8.699   2.449  1.3987 -2.3552 -3.1741
  397MOL0     H53561   4.749   8.719   2.574 -2.4287  0.4902  0.8749
  397MOL0     H53562   4.734   8.544   2.607 -0.0525 -0.2330 -0.5729
  397MOL0     H53563   4.802   8.480   2.389  1.1988 -0.3730  0.3590
  397MOL0     H53564   4.721   8.619   2.317 -3.7454  0.7802  2.9636
  397MOL0     H53565   4.985   8.616   2.467  1.3481  0.0687 -1.1081
  397MOL0     H53566   4.914   8.763   2.404  0.5449  1.1417  0.3283
  397MOL0     H53567   4.907   8.669   2.174 -1.2840 -0.0174  1.8342
  397MOL0     H53568   5.017   8.533   2.227 -3.9553 -1.4791  0.2752
  397MOL0     H53569   5.077   8.833   2.248 -1.0892 -0.2584  3.2678
  397MOL0     H53570   5.175   8.705   2.318 -2.0247 -1.8937  1.9409
  397MOL0     H53571   5.104   8.719   2.025  0.6096 -0.5125 -0.8637
  397MOL0     H53572   5.221   8.613   2.111  1.4497  0.8047 -3.3750
  397MOL0     H53573   5.246   8.915   2.078  1.6062  0.6232  2.4205
  397MOL0     H53574   5.345   8.825   2.185 -0.4250 -1.3863  1.1905
  397MOL0     H53575   4.288   8.619   2.470  0.2526  0.4714 -0.7560
  397MOL0     H53576   4.045   8.592   2.544 -0.1811 -1.2688 -1.3863
  397MOL0     H53577   3.757   8.901   2.930 -1.0228  1.1636  0.2108
  397MOL0     H53578   3.512   8.897   2.976 -1.1675 -0.6202  0.0853
  397MOL0     H53579   1.582   9.476   3.366 -0.4989 -0.0151 -0.9433
  397MOL0     H53580   1.352   9.445   3.297  2.5122 -0.5133  1.4506
  397MOL0     H53581   1.129   9.212   2.972  0.8878  1.2423  2.2995
  397MOL0     H53582   0.950   9.111   2.915 -2.4931 -2.0827  4.5231
  397MOL0     H53583   0.765   9.031   2.864 -0.5924 -1.0445 -1.8129
  397MOL0     H53584   0.688   9.132   2.749 -0.4509  1.2762 -0.0550
  397MOL0     H53585   0.522   8.990   2.980 -0.4235  0.8490 -0.5064
  397MOL0     H53586   0.554   8.929   2.813  1.9251 -0.0339  0.4748
  397MOL0     H53587   0.451   9.123   2.714 -0.8587  2.7507 -0.2780
  397MOL0     H53588   0.439   9.200   2.872  1.5416 -2.1629  3.4747
  397MOL0     H53589   0.287   8.943   2.791 -0.0255 -0.0550 -1.3800
  397MOL0     H53590   0.287   9.032   2.945 -1.4425  2.2054 -0.7848
  397MOL0     H53591   0.029   9.257   2.698  1.3240  1.1233 -0.5752
  397MOL0     H53592   0.694   9.449   3.006 -0.8321 -3.2495  1.8547
  397MOL0     H53593   0.926   9.705   3.027  0.1175 -1.2984 -0.8403
  397MOL0     H53594   0.773   9.633   3.071 -0.6938 -0.1181  0.9751
  397MOL0     H53595   0.906   9.622   3.186 -0.1118 -1.1483  0.1094
  398MOL0     O53596   3.637   8.343   5.838 -0.4527 -0.5229  0.8407
  398MOL0     C53597   3.557   8.314   5.752 -0.9404  1.2002  0.2138
  398MOL0     O53598   3.589   8.276   5.631  0.6472  0.7700  0.4637
  398MOL0     C53599   3.717   8.249   5.586 -0.1659  0.5504 -0.5856
  398MOL0     C53600   3.826   8.329   5.613  0.2946 -0.2108 -0.2361
  398MOL0     C53601   3.953   8.303   5.555  0.2788 -0.3182 -0.2242
  398MOL0     C53602   3.970   8.184   5.474 -0.1518 -0.3531 -0.2227
  398MOL0     O53603   4.099   8.154   5.421  0.2417 -0.0507 -0.1331
  398MOL0     C53604   4.116   8.024   5.367 -0.4468 -0.0675  0.6988
  398MOL0     C53605   4.148   7.931   5.482  0.6432  0.0733 -1.1043
  398MOL0     C53606   4.295   7.894   5.495  0.1967 -0.7648  0.2142
  398MOL0     C53607   4.334   7.813   5.618 -0.0946 -0.2313  0.2542
  398MOL0     C53608   4.479   7.747   5.593  1.0096 -1.1066  0.0163
  398MOL0     C53609   4.579   7.832   5.526 -0.4324 -0.4148  0.6918
  398MOL0     C53610   4.719   7.757   5.516  1.2010 -1.6661  0.3672
  398MOL0     C53611   4.793   7.737   5.650  0.7743 -0.8081 -0.4294
  398MOL0     N53612   4.845   7.869   5.689 -0.6611  0.5339  1.1667
  398MOL0     C53613   4.962   7.930   5.638  0.8539 -0.5121  0.3343
  398MOL0     C53614   4.971   8.051   5.694  0.4417 -0.3967  0.6192
  398MOL0     C53615   5.068   8.167   5.674 -0.6291 -0.0952  0.1600
  398MOL0     C53616   5.212   8.135   5.713  0.3066  0.0040  0.3167
  398MOL0     C53617   5.285   8.074   5.589 -0.2791 -0.5641 -0.8061
  398MOL0     C53618   5.423   8.033   5.634 -0.1384  0.1250 -0.7940
  398MOL0     O53619   5.487   8.051   5.515  0.5273 -0.2267 -0.8188
  398MOL0     C53620   5.617   8.034   5.501 -1.3721  0.2971 -0.5649
  398MOL0     C53621   5.673   8.063   5.382 -0.7035 -0.8124  0.3854
  398MOL0     C53622   5.810   8.042   5.363  0.0696 -0.4652  0.2346
  398MOL0     C53623   5.905   8.003   5.462 -0.7095  0.1453 -0.6819
  398MOL0     C53624   6.050   7.986   5.429  0.4406 -0.6419  0.0889
  398MOL0     O53625   6.089   8.034   5.306 -0.1169  0.5241 -0.1416
  398MOL0     C53626   6.223   8.012   5.265  0.0027  0.5329  0.1804
  398MOL0     C53627   6.253   7.919   5.169  0.3058 -0.1996 -0.3675
  398MOL0     C53628   6.375   7.897   5.131 -1.3804 -0.5176 -0.1402
  398MOL0     C53629   6.489   7.972   5.178 -0.7332 -1.1063  0.0501
  398MOL0     O53630   6.619   7.967   5.134 -0.9530  0.3973  0.5830
  398MOL0     C53631   6.659   7.848   5.060 -0.3279  0.5224  1.0491
  398MOL0     C53632   6.815   7.852   5.053  0.3853  0.3076  0.1461
  398MOL0     C53633   6.884   7.826   5.190  0.4714  0.5160 -0.0843
  398MOL0     C53634   6.960   7.950   5.248  0.0138  0.1274  0.0385
  398MOL0     C53635   7.029   7.927   5.386 -0.0380 -0.0532  0.0732
  398MOL0     C53636   7.161   7.850   5.381 -0.2219 -0.5693  0.1623
  398MOL0     C53637   7.264   7.846   5.493  0.4570 -0.0546  0.0570
  398MOL0     C53638   7.225   7.726   5.588  0.3070  0.0209 -1.2833
  398MOL0    Cl53639   7.056   7.712   5.654 -0.2367  0.0905 -0.0030
  398MOL0     C53640   6.455   8.073   5.275 -0.6316 -0.7721  0.3983
  398MOL0     C53641   6.326   8.090   5.316  0.3737 -0.1498  0.1483
  398MOL0     O53642   6.121   7.954   5.525  0.4338  0.5143  0.2431
  398MOL0     C53643   5.845   7.968   5.583  0.0306 -0.2335  1.1708
  398MOL0     C53644   5.707   7.986   5.603 -0.6519  0.1318  0.1620
  398MOL0     N53645   4.871   8.064   5.784  0.8176  0.1896  0.6083
  398MOL0     N53646   4.800   7.952   5.785 -0.1890 -0.8204 -0.8125
  398MOL0     C53647   3.856   8.105   5.452 -0.0201 -0.1368  0.3857
  398MOL0     C53648   3.731   8.145   5.502  0.4313  1.0025 -0.2536
  398MOL0     C53649   3.409   8.343   5.774 -0.6994 -0.5870  0.6912
  398MOL0     C53650   3.325   8.353   5.659 -0.1652 -0.2131  0.2592
  398MOL0     C53651   3.189   8.364   5.674  0.9247  0.1108 -0.4267
  398MOL0     C53652   3.133   8.382   5.800 -0.5605  0.3922 -0.0377
  398MOL0     O53653   3.008   8.422   5.824 -0.2320  0.2312 -0.6551
  398MOL0     C53654   2.902   8.373   5.739 -0.2862  0.2006 -0.2049
  398MOL0     C53655   2.883   8.225   5.770  0.2935 -0.1797  0.4763
  398MOL0     C53656   2.766   8.169   5.683  0.4541  0.5951  0.9274
  398MOL0     C53657   2.706   8.042   5.745 -0.2214  0.0801 -0.3612
  398MOL0     C53658   2.807   7.935   5.764  0.4674  0.7175 -0.4375
  398MOL0     C53659   2.892   7.854   5.765 -0.0185  1.0107  0.2385
  398MOL0     C53660   3.214   8.365   5.909  0.2150 -0.3046 -0.3129
  398MOL0     C53661   3.349   8.349   5.899 -0.3237  0.3277  0.4432
  398MOL0     C53662   3.428   8.327   6.023  0.1318  0.5782  0.2156
  398MOL0     H53663   3.801   8.409   5.681  0.4763  0.5442 -1.0467
  398MOL0     H53664   4.026   8.378   5.584 -0.6300  0.5009 -0.0194
  398MOL0     H53665   4.036   7.975   5.310  0.2980  0.8301 -1.1852
  398MOL0     H53666   4.198   8.030   5.296 -2.7173  1.3994 -1.9816
  398MOL0     H53667   4.096   7.839   5.454 -1.7737  1.8216 -2.7610
  398MOL0     H53668   4.100   7.970   5.573 -0.9421  1.3610 -2.4466
  398MOL0     H53669   4.351   7.988   5.486 -2.3942  0.8324 -0.0195
  398MOL0     H53670   4.315   7.826   5.411  0.4370  1.4749 -1.6435
  398MOL0     H53671   4.339   7.881   5.704  1.0043 -0.9754  0.8059
  398MOL0     H53672   4.257   7.742   5.649  0.4307 -0.6174  0.6990
  398MOL0     H53673   4.503   7.701   5.689 -0.5520 -3.8135 -0.7870
  398MOL0     H53674   4.467   7.655   5.535  1.2025  0.0747 -1.9899
  398MOL0     H53675   4.551   7.860   5.424  0.9480 -1.8417 -0.1299
  398MOL0     H53676   4.599   7.923   5.584  0.1404  0.7952 -1.2884
  398MOL0     H53677   4.783   7.816   5.449  1.7633 -2.3064  0.3285
  398MOL0     H53678   4.691   7.660   5.476 -0.3610 -0.8848 -0.5108
  398MOL0     H53679   4.725   7.707   5.730 -1.0847  0.3538 -1.5121
  398MOL0     H53680   4.877   7.667   5.647 -0.0349 -1.8828  0.9770
  398MOL0     H53681   5.022   7.894   5.555 -0.1392  3.2400 -2.2744
  398MOL0     H53682   5.060   8.198   5.570 -2.1868 -0.6261  0.0989
  398MOL0     H53683   5.033   8.253   5.732  0.2183  1.6767 -1.8166
  398MOL0     H53684   5.273   8.222   5.741 -1.8676  2.9017 -3.0271
  398MOL0     H53685   5.213   8.074   5.804  1.6522  0.8092  0.8662
  398MOL0     H53686   5.293   8.165   5.530 -0.8928  0.1478  0.1732
  398MOL0     H53687   5.240   7.988   5.539 -0.7619 -3.7284  4.2786
  398MOL0     H53688   5.434   7.926   5.656  2.2877  0.2504 -1.1940
  398MOL0     H53689   5.458   8.103   5.710 -0.3309 -1.2782  0.6420
  398MOL0     H53690   5.621   8.092   5.291 -0.4548  0.5241  0.6610
  398MOL0     H53691   5.849   8.082   5.270 -2.1353  0.2103 -0.4504
  398MOL0     H53692   6.172   7.860   5.129 -0.0688 -0.6479  1.0103
  398MOL0     H53693   6.400   7.822   5.057  1.8318 -0.3214  0.5678
  398MOL0     H53694   6.616   7.759   5.107 -1.2579 -0.7555 -1.9837
  398MOL0     H53695   6.620   7.848   4.958 -0.6484 -1.3776  1.1317
  398MOL0     H53696   6.847   7.772   4.986 -0.2074 -1.0282  1.4046
  398MOL0     H53697   6.849   7.943   5.003  1.9773 -1.3581 -1.9630
  398MOL0     H53698   6.817   7.784   5.265  3.6268 -1.5842  1.8084
  398MOL0     H53699   6.968   7.757   5.180  0.6571  0.3857  1.9684
  398MOL0     H53700   6.899   8.041   5.254 -2.2610 -1.4053  1.5227
  398MOL0     H53701   7.038   7.973   5.174 -0.8042  0.1231 -0.8544
  398MOL0     H53702   6.963   7.875   5.457  1.3602 -0.9356  0.7768
  398MOL0     H53703   7.054   8.025   5.428 -0.9708  0.5159 -0.6871
  398MOL0     H53704   7.123   7.748   5.369 -0.1211 -0.4696 -1.1735
  398MOL0     H53705   7.220   7.884   5.295 -1.0783  1.0990  0.1902
  398MOL0     H53706   7.250   7.939   5.549  0.5401 -0.9640  1.6224
  398MOL0     H53707   7.367   7.829   5.463  1.6118  0.5541  3.3369
  398MOL0     H53708   7.247   7.636   5.529 -1.3998 -0.0589 -1.8405
  398MOL0     H53709   7.294   7.732   5.673 -0.6307  0.1635 -0.5260
  398MOL0     H53710   6.529   8.134   5.325 -0.2225 -1.7423  1.0055
  398MOL0     H53711   6.301   8.175   5.380 -0.9819 -0.0931 -0.4154
  398MOL0     H53712   5.906   7.949   5.671 -0.4839  1.9143  2.0594
  398MOL0     H53713   5.674   7.953   5.701 -1.9609 -1.0058 -0.6219
  398MOL0     H53714   3.846   8.018   5.387  1.5051 -0.3376  0.3972
  398MOL0     H53715   3.639   8.089   5.488  0.7830 -0.4382  2.3976
  398MOL0     H53716   3.369   8.340   5.561  3.5736  1.5282  1.5239
  398MOL0     H53717   3.132   8.361   5.582  3.5919 -4.1985 -2.2398
  398MOL0     H53718   2.920   8.388   5.632 -1.2565  1.0042 -0.2598
  398MOL0     H53719   2.813   8.424   5.774 -0.3223 -1.3661  2.2113
  398MOL0     H53720   2.855   8.198   5.872  2.0277  1.0089  1.3134
  398MOL0     H53721   2.974   8.169   5.752  0.9093  1.4075 -1.8076
  398MOL0     H53722   2.816   8.139   5.590  2.1466 -0.0361  1.9956
  398MOL0     H53723   2.687   8.242   5.661 -0.8270 -1.0470 -0.2046
  398MOL0     H53724   2.675   8.067   5.847  0.0889 -0.3217 -0.1643
  398MOL0     H53725   2.623   8.008   5.683  3.6872 -1.1510 -5.6559
  398MOL0     H53726   2.966   7.779   5.747 -1.1358  0.0048 -0.2744
  398MOL0     H53727   3.154   8.370   5.999  1.2546  1.5770  0.3106
  398MOL0     H53728   3.367   8.328   6.113  1.3612  1.0838  1.0726
  398MOL0     H53729   3.472   8.226   6.022 -0.4598  0.1673 -3.8521
  398MOL0     H53730   3.508   8.402   6.028  0.1641  0.6588 -1.0634
  399MOL0     O53731   6.686   9.394   4.958  0.0653  0.4859 -0.4029
  399MOL0     C53732   6.742   9.480   4.889  0.1506 -0.5349 -0.7209
  399MOL0     O53733   6.684   9.574   4.809 -0.0160 -0.7746 -0.3917
  399MOL0     C53734   6.568   9.546   4.750  0.2192 -0.5207  0.1570
  399MOL0     C53735   6.549   9.440   4.663  0.1033  0.7286  0.4558
  399MOL0     C53736   6.424   9.414   4.607  0.2284  0.2721  0.3731
  399MOL0     C53737   6.317   9.494   4.632  0.3161  0.4195  0.5853
  399MOL0     O53738   6.194   9.473   4.565 -0.6117 -0.1147 -0.3473
  399MOL0     C53739   6.139   9.340   4.555 -0.8884 -0.2146  0.1469
  399MOL0     C53740   5.999   9.364   4.509  0.7982 -0.4734  0.3250
  399MOL0     C53741   5.914   9.442   4.608 -0.1368 -0.4997 -0.4360
  399MOL0     C53742   5.762   9.459   4.573 -0.3381  1.1137 -0.8831
  399MOL0     C53743   5.685   9.516   4.681  0.6846 -0.5600  0.1762
  399MOL0     C53744   5.537   9.535   4.646  0.4968 -0.2289  0.1246
  399MOL0     C53745   5.453   9.586   4.775  0.0825  0.3294  0.2168
  399MOL0     C53746   5.303   9.602   4.736  0.2186  0.6349 -0.4108
  399MOL0     N53747   5.222   9.646   4.858 -0.0505 -0.4106  0.1847
  399MOL0     C53748   5.263   9.730   4.957  0.2923  0.3162  0.0493
  399MOL0     C53749   5.156   9.725   5.052  0.3534  0.7757  0.0852
  399MOL0     C53750   5.144   9.820   5.169 -0.0704  0.5461  0.5267
  399MOL0     C53751   5.282   9.838   5.245 -1.1625 -0.1721 -0.0981
  399MOL0     C53752   5.347   9.713   5.299  0.2235  0.1283 -1.4103
  399MOL0     C53753   5.455   9.739   5.402 -0.4974 -0.2953  0.3939
  399MOL0     O53754   5.544   9.841   5.352  0.5326  0.1369 -0.1611
  399MOL0     C53755   5.680   9.850   5.377 -0.7540  0.2995  0.0706
  399MOL0     C53756   5.757   9.783   5.475  1.1273  0.0538  0.2432
  399MOL0     C53757   5.893   9.800   5.482  0.1789 -0.0912  0.3443
  399MOL0     C53758   5.966   9.886   5.387 -0.0880 -0.2345  0.4889
  399MOL0     C53759   6.111   9.905   5.407 -0.7815  0.0626  0.4112
  399MOL0     O53760   6.161   9.865   5.532  0.0234 -0.2703  0.7579
  399MOL0     C53761   6.283   9.906   5.565 -0.2572 -0.9760  0.0739
  399MOL0     C53762   6.396   9.831   5.530 -0.0821  0.3866 -0.0821
  399MOL0     C53763   6.536   9.865   5.541 -0.7463 -0.0369 -0.1646
  399MOL0     C53764   6.553   9.993   5.595 -0.6955 -0.2340 -0.3237
  399MOL0     O53765   6.679  10.055   5.595  0.2597  0.0003  1.0828
  399MOL0     C53766   6.732  10.049   5.465 -0.4904 -0.2742 -0.6360
  399MOL0     C53767   6.835  10.153   5.444 -0.5204 -0.2714 -0.2365
  399MOL0     C53768   6.944  10.144   5.333  0.6260 -0.1549  1.4647
  399MOL0     C53769   6.883  10.179   5.192  0.3948 -1.0893 -0.0088
  399MOL0     C53770   6.983  10.175   5.084  0.4759  0.4101  0.9054
  399MOL0     C53771   7.113  10.245   5.105 -0.0451 -0.0096  0.2908
  399MOL0     C53772   7.090  10.396   5.143 -0.2111  0.2569  0.3155
  399MOL0     C53773   7.234  10.457   5.178  0.3488  0.2127 -0.0949
  399MOL0    Cl53774   7.364  10.422   5.050  0.5615  0.5114 -0.2580
  399MOL0     C53775   6.444  10.074   5.618  0.4772 -1.1437 -0.1680
  399MOL0     C53776   6.308  10.040   5.613  1.3036  0.5909  0.2233
  399MOL0     O53777   6.175   9.964   5.323 -0.6103  0.1825  0.2417
  399MOL0     C53778   5.898   9.940   5.281  0.0774 -0.4319  0.0513
  399MOL0     C53779   5.757   9.922   5.279 -0.2986  0.1441  0.3327
  399MOL0     N53780   5.075   9.624   5.019  0.2181 -1.1967 -0.5203
  399MOL0     N53781   5.103   9.584   4.899 -0.1995 -0.0259  0.8431
  399MOL0     C53782   6.336   9.613   4.709 -0.0736  0.2006 -1.1785
  399MOL0     C53783   6.461   9.636   4.775 -0.6419 -0.4488 -0.5269
  399MOL0     C53784   6.892   9.477   4.900 -0.5437  0.6481  0.1615
  399MOL0     C53785   6.957   9.598   4.899  0.5354 -0.7109  0.1317
  399MOL0     C53786   7.098   9.613   4.920 -0.0442  0.2795  1.1470
  399MOL0     C53787   7.182   9.504   4.932 -0.2673  0.9786  0.0751
  399MOL0     O53788   7.316   9.528   4.952 -0.3193  0.4742 -0.4357
  399MOL0     C53789   7.414   9.431   4.918  0.6338 -0.1944  0.0228
  399MOL0     C53790   7.443   9.355   5.044  0.2917 -0.0960 -0.1837
  399MOL0     C53791   7.473   9.462   5.168 -0.2433  0.8738 -0.2043
  399MOL0     C53792   7.596   9.547   5.140  0.4113 -0.2356  0.2809
  399MOL0     C53793   7.715   9.472   5.102  0.8209  0.3722 -0.5151
  399MOL0     C53794   7.818   9.412   5.076 -0.2537 -0.2201  0.2614
  399MOL0     C53795   7.125   9.380   4.927  0.5058  0.5699  0.2495
  399MOL0     C53796   6.983   9.364   4.911 -0.0239 -0.9041 -0.0691
  399MOL0     C53797   6.939   9.225   4.896 -0.5056  0.7570  0.1686
  399MOL0     H53798   6.633   9.376   4.641 -0.6824  0.2124 -1.1983
  399MOL0     H53799   6.418   9.334   4.533 -0.8212  1.7174 -1.1840
  399MOL0     H53800   6.189   9.289   4.473  2.2379 -2.5783  3.2147
  399MOL0     H53801   6.140   9.281   4.647 -0.5590 -0.5654 -0.0812
  399MOL0     H53802   5.945   9.271   4.488  0.9463 -1.4600  3.7293
  399MOL0     H53803   6.011   9.421   4.416  1.2881 -2.1256 -0.6686
  399MOL0     H53804   5.956   9.543   4.612 -0.2586 -0.3378 -2.2534
  399MOL0     H53805   5.915   9.394   4.706  1.0313  1.7885  0.7370
  399MOL0     H53806   5.750   9.504   4.474 -2.5064  0.1452 -1.1065
  399MOL0     H53807   5.732   9.355   4.554  0.9887  0.2122  1.5550
  399MOL0     H53808   5.680   9.448   4.767 -1.2709 -2.8606 -1.6249
  399MOL0     H53809   5.716   9.614   4.719 -2.4959  1.2616 -1.5265
  399MOL0     H53810   5.536   9.604   4.562  1.4561  0.9974  1.0751
  399MOL0     H53811   5.496   9.440   4.610 -0.0873  0.3276 -0.6859
  399MOL0     H53812   5.498   9.681   4.806  0.3907  0.6934 -1.2816
  399MOL0     H53813   5.472   9.514   4.856  1.7310 -0.0412 -0.4677
  399MOL0     H53814   5.290   9.666   4.648  2.9298 -0.7425 -1.9551
  399MOL0     H53815   5.267   9.507   4.695  1.1526 -0.1789  0.5948
  399MOL0     H53816   5.346   9.800   4.961  0.5009  0.0312  1.1842
  399MOL0     H53817   5.104   9.916   5.135  1.6773  1.0966 -0.0720
  399MOL0     H53818   5.067   9.769   5.227 -1.2277 -1.1018 -2.2295
  399MOL0     H53819   5.358   9.880   5.178  1.0977  0.8941  2.9063
  399MOL0     H53820   5.281   9.918   5.319  1.5181  0.1768 -0.3603
  399MOL0     H53821   5.391   9.653   5.219 -0.0851 -2.1087  0.0084
  399MOL0     H53822   5.280   9.645   5.352  1.2269  0.2939  0.1357
  399MOL0     H53823   5.518   9.650   5.414 -1.6367 -1.1247  0.3816
  399MOL0     H53824   5.411   9.782   5.492 -1.1224  2.2888 -1.0435
  399MOL0     H53825   5.719   9.709   5.544 -0.8738  1.2375  0.4828
  399MOL0     H53826   5.945   9.749   5.563  2.2093  0.0161 -0.8165
  399MOL0     H53827   6.380   9.734   5.485  3.0107  1.0080 -2.8687
  399MOL0     H53828   6.616   9.800   5.507  2.6313  3.2573  0.8336
  399MOL0     H53829   6.785   9.953   5.465 -0.6124 -0.3568 -1.8400
  399MOL0     H53830   6.650  10.044   5.392 -2.3380 -1.3894  1.3865
  399MOL0     H53831   6.785  10.250   5.437  1.4812  0.7511 -1.2047
  399MOL0     H53832   6.902  10.172   5.529 -0.9868  2.0922 -0.3286
  399MOL0     H53833   7.037  10.196   5.358 -0.1602  0.7850  2.5159
  399MOL0     H53834   6.972  10.039   5.318 -2.6509 -0.9428 -0.0387
  399MOL0     H53835   6.829  10.274   5.188  0.6226 -0.9881 -1.0079
  399MOL0     H53836   6.797  10.124   5.153 -2.2162  2.8429 -0.3506
  399MOL0     H53837   6.945  10.210   4.987  1.8225 -3.5288 -1.2695
  399MOL0     H53838   7.003  10.067   5.076  2.6156  0.6243  2.5987
  399MOL0     H53839   7.173  10.195   5.182 -0.6827  1.3224  1.6969
  399MOL0     H53840   7.177  10.226   5.018  0.9554 -2.5082  1.4773
  399MOL0     H53841   7.025  10.421   5.228  1.8624  1.0357  1.7722
  399MOL0     H53842   7.057  10.445   5.051 -0.9862  0.2080  0.5664
  399MOL0     H53843   7.220  10.565   5.173 -0.5726  0.2093  1.6838
  399MOL0     H53844   7.269  10.428   5.277  0.6437  2.5476  0.5248
  399MOL0     H53845   6.467  10.176   5.645 -0.7652  0.0580 -3.2258
  399MOL0     H53846   6.227  10.108   5.637 -0.3377 -1.3550  0.4724
  399MOL0     H53847   5.959   9.996   5.211  2.3470 -0.0903  2.1896
  399MOL0     H53848   5.714   9.969   5.191 -0.0111  2.5542  1.4000
  399MOL0     H53849   6.249   9.676   4.726 -0.8405 -0.8945 -0.9079
  399MOL0     H53850   6.463   9.723   4.840  2.2684  0.2883 -1.4439
  399MOL0     H53851   6.908   9.695   4.903  1.8033 -0.0010 -0.7721
  399MOL0     H53852   7.146   9.707   4.943  1.5544 -0.0993 -0.4145
  399MOL0     H53853   7.504   9.477   4.877  0.3166 -0.8514 -1.4696
  399MOL0     H53854   7.384   9.371   4.832 -1.2679  4.0754 -2.6278
  399MOL0     H53855   7.527   9.287   5.032  0.3397 -0.2963  1.1630
  399MOL0     H53856   7.358   9.295   5.080  1.2303 -1.2039  0.2290
  399MOL0     H53857   7.483   9.416   5.267 -2.6057 -1.4161 -0.9074
  399MOL0     H53858   7.393   9.535   5.187  0.3952  1.3883  0.5693
  399MOL0     H53859   7.584   9.622   5.061  1.2376  0.0465  0.4107
  399MOL0     H53860   7.617   9.606   5.231  0.3273 -2.0372  1.5180
  399MOL0     H53861   7.908   9.363   5.044 -1.0504 -0.3552 -1.9861
  399MOL0     H53862   7.188   9.292   4.921 -2.5627 -1.7443 -0.2241
  399MOL0     H53863   6.837   9.215   4.934 -0.4602  1.1058  0.3942
  399MOL0     H53864   6.947   9.188   4.794 -0.2298  1.7475 -0.1818
  399MOL0     H53865   7.003   9.157   4.953  0.2443  0.8052 -0.5957
  400MOL0     O53866   4.910   2.424   8.187  0.8725 -0.1051 -0.0657
  400MOL0     C53867   4.875   2.320   8.238 -0.5524  0.4873 -0.2189
  400MOL0     O53868   4.956   2.212   8.244  0.0938 -0.5507  0.1283
  400MOL0     C53869   5.089   2.220   8.205  0.2967  0.3309 -1.7256
  400MOL0     C53870   5.110   2.167   8.077  0.6574  0.3092  0.1836
  400MOL0     C53871   5.239   2.151   8.034 -0.0609 -0.5106 -0.4012
  400MOL0     C53872   5.348   2.187   8.113  0.5564 -1.1592  1.3049
  400MOL0     O53873   5.468   2.193   8.050 -0.7374  0.0670 -0.5951
  400MOL0     C53874   5.557   2.079   8.063  0.1121 -1.1345 -0.3883
  400MOL0     C53875   5.692   2.137   8.107  0.2187  0.3041 -0.2743
  400MOL0     C53876   5.806   2.046   8.066 -0.3776  0.3392  0.2574
  400MOL0     C53877   5.936   2.099   8.126 -0.7167  0.4679  0.7041
  400MOL0     C53878   6.054   2.001   8.090 -0.5196 -0.0971 -0.3399
  400MOL0     C53879   6.169   2.026   8.176 -0.2497  0.1587 -0.2714
  400MOL0     C53880   6.233   2.168   8.145  0.4485  0.8715 -0.2502
  400MOL0     C53881   6.324   2.145   8.025 -0.6919 -0.5047 -0.1513
  400MOL0     N53882   6.423   2.258   8.014 -0.6617 -0.2261  0.0432
  400MOL0     C53883   6.548   2.246   7.960  0.4394 -0.0603 -0.0065
  400MOL0     C53884   6.611   2.368   7.968  0.0960 -0.0482  0.7991
  400MOL0     C53885   6.758   2.401   7.941  0.3718 -0.0197  1.0095
  400MOL0     C53886   6.849   2.320   8.025  1.0037 -0.1043 -0.1960
  400MOL0     C53887   6.995   2.359   8.014  0.4147 -0.5656  1.0169
  400MOL0     C53888   7.051   2.347   7.874  0.3064  0.1641  0.6703
  400MOL0     O53889   7.201   2.362   7.900  0.3136  0.0234  0.6867
  400MOL0     C53890   7.300   2.353   7.808 -0.0635 -0.6430  0.0621
  400MOL0     C53891   7.427   2.375   7.860 -0.1968  0.8453 -0.2114
  400MOL0     C53892   7.540   2.392   7.778 -0.5782 -0.1338 -0.0760
  400MOL0     C53893   7.518   2.374   7.640 -0.5256 -0.2577 -0.1618
  400MOL0     C53894   7.626   2.386   7.540  0.3150 -0.3192 -0.9050
  400MOL0     O53895   7.608   2.325   7.423  0.9399 -0.0896  0.0917
  400MOL0     C53896   7.716   2.277   7.347  0.1536 -0.2595  0.1806
  400MOL0     C53897   7.838   2.253   7.397 -0.0530 -0.2370 -0.0701
  400MOL0     C53898   7.943   2.200   7.321  0.1566  0.5322 -0.6362
  400MOL0     C53899   7.927   2.178   7.180 -0.1086 -0.6226  0.2073
  400MOL0     O53900   8.037   2.135   7.103 -0.0661 -0.0449 -0.6782
  400MOL0     C53901   8.061   2.208   6.990  0.2961 -0.3166 -0.6505
  400MOL0     C53902   8.209   2.196   6.961 -0.3968 -0.2937  0.1980
  400MOL0     C53903   8.241   2.236   6.812  0.5861  0.4521 -0.2126
  400MOL0     C53904   8.385   2.205   6.769  0.2892 -0.2176  0.1722
  400MOL0     C53905   8.397   2.208   6.612 -0.8682 -0.0564 -0.0225
  400MOL0     C53906   8.552   2.198   6.574  0.5450 -0.2099 -0.0740
  400MOL0     C53907   8.571   2.146   6.426 -0.3459  1.0026 -0.5973
  400MOL0     C53908   8.612   2.005   6.415  0.2301 -0.4938  0.2080
  400MOL0    Cl53909   8.496   1.887   6.484  0.2800  0.4364  0.2394
  400MOL0     C53910   7.797   2.203   7.126 -0.3926  0.1962 -0.6038
  400MOL0     C53911   7.691   2.247   7.211  0.1438 -0.7301  0.1426
  400MOL0     O53912   7.726   2.443   7.574 -0.4583 -0.2241  0.1359
  400MOL0     C53913   7.389   2.348   7.589 -0.1480 -0.2895 -0.5074
  400MOL0     C53914   7.278   2.345   7.670 -0.6085 -0.1092 -0.5883
  400MOL0     N53915   6.513   2.456   8.016 -0.0136  0.2448  0.3407
  400MOL0     N53916   6.402   2.388   8.040 -0.0970  0.0593  0.4085
  400MOL0     C53917   5.323   2.239   8.243  0.5405  0.4893  0.0358
  400MOL0     C53918   5.192   2.263   8.292  0.1411  0.8924  0.7055
  400MOL0     C53919   4.730   2.308   8.273  0.5216  0.4818  0.9394
  400MOL0     C53920   4.692   2.182   8.326  0.0100 -0.1782 -0.5259
  400MOL0     C53921   4.552   2.169   8.368 -0.0498  0.8641  0.0147
  400MOL0     C53922   4.457   2.262   8.348  0.5901  0.1312 -0.2479
  400MOL0     O53923   4.325   2.236   8.383  0.0071  0.0615 -0.0521
  400MOL0     C53924   4.243   2.205   8.267  0.5469 -0.1649  0.6242
  400MOL0     C53925   4.112   2.284   8.259  0.1367  0.1611 -0.0488
  400MOL0     C53926   4.020   2.250   8.378 -0.0065  1.3840  0.6075
  400MOL0     C53927   3.926   2.131   8.346  0.2327  0.2438  1.2630
  400MOL0     C53928   3.859   2.084   8.470 -0.0457  0.1813  0.3509
  400MOL0     C53929   3.787   2.040   8.556  0.0891 -0.1355 -0.3671
  400MOL0     C53930   4.495   2.377   8.278  0.1114  0.1553 -0.4328
  400MOL0     C53931   4.622   2.406   8.242  0.8609  0.2552  0.0771
  400MOL0     C53932   4.655   2.536   8.176 -0.2485 -0.0689 -0.2718
  400MOL0     H53933   5.026   2.140   8.014  1.5423 -1.3911 -0.3329
  400MOL0     H53934   5.245   2.103   7.936 -1.7891 -2.5710  0.4243
  400MOL0     H53935   5.520   2.000   8.128 -1.7413  0.1641  0.2210
  400MOL0     H53936   5.570   2.025   7.968  0.4787 -0.7657 -0.5502
  400MOL0     H53937   5.689   2.139   8.217 -1.7980 -0.9110 -0.2530
  400MOL0     H53938   5.708   2.237   8.065  2.0130 -0.3934 -1.3581
  400MOL0     H53939   5.810   2.050   7.957 -0.2636 -0.2263  0.2399
  400MOL0     H53940   5.796   1.942   8.097 -0.2695  0.4003  0.5012
  400MOL0     H53941   5.970   2.199   8.097 -1.2297  0.6255  0.6415
  400MOL0     H53942   5.913   2.110   8.233 -1.2189  2.2871  0.4432
  400MOL0     H53943   6.023   1.897   8.101  0.3672 -0.1391  2.6057
  400MOL0     H53944   6.083   2.007   7.984  3.1962 -0.5457  0.5093
  400MOL0     H53945   6.132   2.027   8.279  0.6868  2.4905  0.0944
  400MOL0     H53946   6.239   1.942   8.165 -2.1505 -1.6052  0.3544
  400MOL0     H53947   6.294   2.204   8.228  1.1565  1.9686 -1.2005
  400MOL0     H53948   6.153   2.242   8.133  1.0348  1.5845  0.1866
  400MOL0     H53949   6.380   2.052   8.034  0.2778 -0.0994 -1.6222
  400MOL0     H53950   6.259   2.141   7.937 -0.7148  1.9996 -0.3418
  400MOL0     H53951   6.602   2.156   7.930  2.6801  0.8292  1.0787
  400MOL0     H53952   6.782   2.379   7.837 -0.6493 -1.3668  1.0379
  400MOL0     H53953   6.773   2.510   7.948 -1.1715  0.6438 -3.0859
  400MOL0     H53954   6.822   2.337   8.130 -1.7679  1.8531 -1.0962
  400MOL0     H53955   6.838   2.215   7.997 -0.2961  0.3896 -1.7153
  400MOL0     H53956   7.058   2.293   8.075 -1.7505 -1.5875  2.2290
  400MOL0     H53957   6.999   2.459   8.058  2.9235 -0.5461  0.9031
  400MOL0     H53958   7.030   2.429   7.805  2.9649  1.0800  0.8585
  400MOL0     H53959   7.009   2.257   7.827 -3.6075  0.9937  2.1470
  400MOL0     H53960   7.444   2.384   7.967  0.4828  0.4655 -0.2827
  400MOL0     H53961   7.636   2.415   7.823  0.0901  0.3031 -1.6609
  400MOL0     H53962   7.869   2.277   7.498  2.5904  0.5236 -0.9686
  400MOL0     H53963   8.042   2.184   7.362 -0.4964  0.8932  1.1482
  400MOL0     H53964   7.999   2.160   6.913 -0.2725  0.0951 -0.4565
  400MOL0     H53965   8.037   2.315   6.994 -0.5313 -0.5169 -0.0914
  400MOL0     H53966   8.268   2.260   7.027  1.2364 -1.6467  0.1147
  400MOL0     H53967   8.241   2.093   6.978 -0.9867 -0.1308  2.5128
  400MOL0     H53968   8.180   2.175   6.745 -0.1767  3.0476 -2.0362
  400MOL0     H53969   8.222   2.342   6.793  0.4988  0.1096 -2.1898
  400MOL0     H53970   8.416   2.107   6.807  2.0759  0.7787  1.3946
  400MOL0     H53971   8.442   2.286   6.815 -0.6897 -0.7562  2.4117
  400MOL0     H53972   8.342   2.295   6.577 -1.1332 -0.8851 -1.7447
  400MOL0     H53973   8.339   2.126   6.569 -1.2954 -1.3233  2.7375
  400MOL0     H53974   8.612   2.289   6.588 -1.3501  0.9755  0.7700
  400MOL0     H53975   8.593   2.125   6.644 -1.7682 -2.4503 -0.9263
  400MOL0     H53976   8.642   2.210   6.372 -0.9468  1.6592 -0.6110
  400MOL0     H53977   8.475   2.172   6.381 -0.1309  3.1461  0.0525
  400MOL0     H53978   8.613   1.968   6.312 -2.7656 -3.9083  1.1824
  400MOL0     H53979   8.711   1.993   6.458 -0.9479  0.4199  3.4716
  400MOL0     H53980   7.785   2.170   7.024 -1.9036  1.6771 -0.9579
  400MOL0     H53981   7.592   2.275   7.176 -0.5028 -0.3949  2.0790
  400MOL0     H53982   7.383   2.342   7.480  3.2020  1.3822 -0.9081
  400MOL0     H53983   7.179   2.329   7.629 -0.7914  1.1064 -0.6582
  400MOL0     H53984   5.417   2.267   8.289  2.7743 -2.9829 -1.9635
  400MOL0     H53985   5.177   2.302   8.392  0.1700 -2.5962  2.1932
  400MOL0     H53986   4.762   2.107   8.360 -0.8038 -0.6472  0.1575
  400MOL0     H53987   4.522   2.075   8.413  0.1062  0.3680 -0.8847
  400MOL0     H53988   4.234   2.096   8.278  1.5841 -0.3368 -0.0908
  400MOL0     H53989   4.293   2.224   8.171 -1.1700  0.3039 -0.2066
  400MOL0     H53990   4.061   2.261   8.165 -1.5687 -3.4236  1.5519
  400MOL0     H53991   4.142   2.389   8.264 -5.7536  2.2716 -0.9816
  400MOL0     H53992   3.957   2.334   8.407  0.5098  1.6242  1.0422
  400MOL0     H53993   4.086   2.221   8.460  0.7941  0.7567 -0.2337
  400MOL0     H53994   3.854   2.155   8.267  0.3548 -1.9153  0.4229
  400MOL0     H53995   3.987   2.046   8.315  0.4179  1.1102 -0.9066
  400MOL0     H53996   3.721   1.998   8.630  1.0309 -0.7771  0.1229
  400MOL0     H53997   4.418   2.449   8.250  2.4608  3.2155  0.3366
  400MOL0     H53998   4.567   2.599   8.159  1.6940  3.1093  0.6997
  400MOL0     H53999   4.721   2.599   8.235 -1.7604  0.6442  0.7170
  400MOL0     H54000   4.700   2.515   8.078 -0.8563 -1.0765 -0.3565
  401MOL0     O54001   3.101  10.088   9.269 -0.1848 -0.4729  0.0367
  401MOL0     C54002   3.122  10.193   9.213  0.2546  1.1277 -0.3663
  401MOL0     O54003   3.041  10.297   9.210 -0.8324 -0.2118 -0.5866
  401MOL0     C54004   2.919  10.304   9.254  0.1543  0.8803 -0.1853
  401MOL0     C54005   2.890  10.254   9.389  0.3973  0.6734  0.1922
  401MOL0     C54006   2.758  10.245   9.431 -0.0710 -0.1303 -0.3679
  401MOL0     C54007   2.657  10.307   9.359 -0.7907  0.5828 -0.4142
  401MOL0     O54008   2.530  10.308   9.421 -0.6033  0.1032  0.1694
  401MOL0     C54009   2.429  10.382   9.353 -0.1389 -0.6178  0.4472
  401MOL0     C54010   2.299  10.357   9.428 -0.0920 -0.4496 -0.1091
  401MOL0     C54011   2.239  10.218   9.413  0.4699  0.5848  0.9318
  401MOL0     C54012   2.105  10.215   9.490  0.0727  0.2488  0.1625
  401MOL0     C54013   1.990  10.288   9.428  0.6683  0.0702 -0.1715
  401MOL0     C54014   1.871  10.228   9.503 -0.2835  1.4285  0.0842
  401MOL0     C54015   1.734  10.283   9.452 -0.1268  0.8358  0.5440
  401MOL0     C54016   1.610  10.201   9.511 -0.0564 -0.3968  0.0657
  401MOL0     N54017   1.568  10.093   9.428  0.0055  0.2749 -0.3488
  401MOL0     C54018   1.506  10.104   9.306 -0.1428  0.2891  0.2335
  401MOL0     C54019   1.524   9.980   9.251  0.4281  0.7520 -0.8691
  401MOL0     C54020   1.497   9.938   9.108  0.4372  0.0234 -0.1327
  401MOL0     C54021   1.615   9.907   9.024 -0.0021  0.2121 -0.2811
  401MOL0     C54022   1.576   9.804   8.915 -1.0761 -0.0338 -0.0126
  401MOL0     C54023   1.694   9.768   8.830  0.4034 -0.8000 -0.3955
  401MOL0     O54024   1.750   9.890   8.767 -0.2495 -0.0968 -0.1277
  401MOL0     C54025   1.872   9.878   8.703 -1.0763 -0.7473  0.5763
  401MOL0     C54026   1.955   9.764   8.666 -0.0980  0.4321 -0.0640
  401MOL0     C54027   2.077   9.777   8.593  0.4058  0.2208  0.6583
  401MOL0     C54028   2.116   9.912   8.561  0.4896  0.2048  0.0583
  401MOL0     C54029   2.241   9.928   8.485  0.5792 -0.2658  0.6630
  401MOL0     O54030   2.300  10.051   8.501 -0.1801  0.4187 -0.3506
  401MOL0     C54031   2.391  10.101   8.410 -0.4049  0.2480 -0.7332
  401MOL0     C54032   2.525  10.106   8.443  0.3351  0.4676  0.0984
  401MOL0     C54033   2.625  10.162   8.360 -0.4818 -0.1892 -0.9425
  401MOL0     C54034   2.586  10.221   8.233  0.1267 -0.8186 -0.3114
  401MOL0     O54035   2.669  10.278   8.133 -0.6916 -0.6247 -0.3756
  401MOL0     C54036   2.791  10.340   8.186  0.2639 -0.2721 -0.4374
  401MOL0     C54037   2.856  10.454   8.099  0.5897  0.1361  0.0703
  401MOL0     C54038   2.875  10.400   7.949  0.2002  0.1883  0.4355
  401MOL0     C54039   2.965  10.481   7.859 -0.0583 -1.1271  0.3506
  401MOL0     C54040   2.924  10.636   7.841  0.5775  0.2025 -0.3497
  401MOL0     C54041   2.802  10.650   7.750 -0.4296  0.6044 -0.2333
  401MOL0     C54042   2.753  10.793   7.734 -0.0230 -0.0117 -0.7084
  401MOL0     C54043   2.846  10.867   7.636  0.6976  0.7916 -0.5934
  401MOL0    Cl54044   2.780  11.027   7.594  0.5661  0.1941  0.3073
  401MOL0     C54045   2.447  10.230   8.204  1.3927 -0.3628 -0.6884
  401MOL0     C54046   2.352  10.171   8.293  0.3879  0.7504  0.6154
  401MOL0     O54047   2.275   9.844   8.403  0.6239  1.1885  0.8164
  401MOL0     C54048   2.043  10.025   8.598  0.5635  0.2565  0.0654
  401MOL0     C54049   1.921  10.003   8.660 -0.6618  0.2744  0.7590
  401MOL0     N54050   1.596   9.904   9.344 -0.7979  0.1926  0.1909
  401MOL0     N54051   1.605   9.972   9.447  0.3461  0.2272 -0.4603
  401MOL0     C54052   2.688  10.369   9.233  0.2350 -0.3713 -1.2267
  401MOL0     C54053   2.821  10.369   9.184 -0.2846  0.5000  0.0094
  401MOL0     C54054   3.244  10.206   9.121  0.5022 -0.6001  0.4910
  401MOL0     C54055   3.215  10.241   8.982  0.4256  0.2839 -0.8949
  401MOL0     C54056   3.325  10.243   8.893  0.7223  0.1889 -0.0812
  401MOL0     C54057   3.453  10.206   8.927 -0.7063 -0.4735  1.0754
  401MOL0     O54058   3.550  10.233   8.825  0.1965 -0.5454 -0.2900
  401MOL0     C54059   3.689  10.238   8.850  0.8778 -0.0014 -0.2215
  401MOL0     C54060   3.770  10.332   8.756 -0.2757 -0.2551  0.5881
  401MOL0     C54061   3.745  10.309   8.608 -0.9751 -0.1476  0.9839
  401MOL0     C54062   3.849  10.389   8.525  1.3948 -0.0805 -1.1205
  401MOL0     C54063   3.810  10.417   8.388 -0.0971  0.1904 -0.5578
  401MOL0     C54064   3.757  10.454   8.282 -0.2849  0.5072 -0.0451
  401MOL0     C54065   3.471  10.160   9.058  0.3509  0.6069  0.2762
  401MOL0     C54066   3.373  10.167   9.158 -0.2530  0.6821 -0.2607
  401MOL0     C54067   3.416  10.130   9.303  1.1799  0.4155  0.2356
  401MOL0     H54068   2.963  10.202   9.451  1.3967  0.6178 -0.9990
  401MOL0     H54069   2.735  10.200   9.527  1.1199  0.4556  0.2062
  401MOL0     H54070   2.451  10.488   9.366  1.1250 -1.0365  2.1936
  401MOL0     H54071   2.412  10.348   9.250 -1.5534  3.2032 -0.7508
  401MOL0     H54072   2.227  10.429   9.387 -0.6081 -1.1551 -0.4737
  401MOL0     H54073   2.310  10.380   9.534 -3.2834  0.7899  0.0758
  401MOL0     H54074   2.304  10.143   9.459 -2.0154 -0.7414  2.4975
  401MOL0     H54075   2.217  10.193   9.309 -2.5674 -1.1435  1.8618
  401MOL0     H54076   2.084  10.112   9.519  0.5979  0.8604  3.1092
  401MOL0     H54077   2.125  10.269   9.584  0.8130  1.6646 -0.7687
  401MOL0     H54078   1.993  10.396   9.448 -1.8706  0.0045  0.8638
  401MOL0     H54079   1.983  10.269   9.321  3.7076 -0.1572 -0.4395
  401MOL0     H54080   1.867  10.119   9.496 -0.0536  1.1999  2.5985
  401MOL0     H54081   1.876  10.245   9.611  0.2290 -0.4931  0.3973
  401MOL0     H54082   1.731  10.287   9.343  0.3623 -1.6385  0.3931
  401MOL0     H54083   1.722  10.386   9.487 -4.0263  0.3720  0.9517
  401MOL0     H54084   1.636  10.166   9.611  1.9682  0.9820  0.0719
  401MOL0     H54085   1.525  10.270   9.519  2.1825  2.4668  0.9161
  401MOL0     H54086   1.473  10.202   9.271  1.6952  1.1044  0.6086
  401MOL0     H54087   1.446   9.842   9.115  1.1135 -0.2247  3.5449
  401MOL0     H54088   1.445  10.022   9.062  1.1045 -0.0992 -1.1396
  401MOL0     H54089   1.669   9.993   8.985 -1.0707  0.8790 -0.3164
  401MOL0     H54090   1.685   9.863   9.096 -1.0858  0.3064  0.8519
  401MOL0     H54091   1.506   9.851   8.845  0.3608 -0.6298 -1.9070
  401MOL0     H54092   1.547   9.708   8.958  1.3729 -1.0099 -0.4092
  401MOL0     H54093   1.656   9.709   8.746 -0.3506 -1.6872  0.5490
  401MOL0     H54094   1.772   9.707   8.876  0.8917 -0.1059 -0.2960
  401MOL0     H54095   1.923   9.663   8.692  2.2245 -0.3716 -0.1244
  401MOL0     H54096   2.135   9.690   8.564  0.0674  1.5039 -5.1819
  401MOL0     H54097   2.554  10.056   8.536 -2.3806 -2.5382 -0.4953
  401MOL0     H54098   2.730  10.153   8.388 -1.0225 -1.2097  0.8790
  401MOL0     H54099   2.772  10.395   8.279  2.0904  0.0680 -0.2331
  401MOL0     H54100   2.862  10.259   8.201 -3.3152 -3.4795  0.9959
  401MOL0     H54101   2.785  10.537   8.090 -0.3195 -0.6550 -0.3039
  401MOL0     H54102   2.947  10.497   8.140 -0.1125  1.1902  0.5572
  401MOL0     H54103   2.923  10.302   7.943 -0.4114 -0.0235 -1.5462
  401MOL0     H54104   2.780  10.375   7.900  1.2217  0.4532 -1.8050
  401MOL0     H54105   2.969  10.447   7.755  0.2778  4.1952 -1.6934
  401MOL0     H54106   3.069  10.470   7.890  0.4860  0.8274 -0.5980
  401MOL0     H54107   3.009  10.684   7.791  1.2864 -0.7277 -0.0708
  401MOL0     H54108   2.911  10.684   7.939  0.2054  2.0160 -1.2475
  401MOL0     H54109   2.817  10.601   7.653  0.6057 -0.7668  0.5771
  401MOL0     H54110   2.725  10.590   7.798 -0.4288 -0.8912 -1.9764
  401MOL0     H54111   2.745  10.849   7.828 -1.5531  1.7465 -1.8280
  401MOL0     H54112   2.659  10.808   7.681  0.1184  1.0934 -0.6754
  401MOL0     H54113   2.947  10.881   7.677  0.7001 -0.3668 -0.1566
  401MOL0     H54114   2.844  10.803   7.547 -0.4342  0.1330 -0.1194
  401MOL0     H54115   2.421  10.298   8.124 -0.3363 -0.1933 -0.0314
  401MOL0     H54116   2.245  10.177   8.274 -0.0991  1.1209  3.1797
  401MOL0     H54117   2.060  10.129   8.574 -0.9240  0.3318 -0.7880
  401MOL0     H54118   1.857  10.085   8.692  1.5847  2.6826 -0.5709
  401MOL0     H54119   2.614  10.424   9.177 -0.9302 -1.0087 -0.3712
  401MOL0     H54120   2.834  10.411   9.085 -0.0803  0.2962 -0.0523
  401MOL0     H54121   3.122  10.258   8.928  0.3391 -0.8556 -1.1237
  401MOL0     H54122   3.309  10.286   8.795 -2.0812  1.0408  0.6683
  401MOL0     H54123   3.722  10.134   8.847  0.7340 -0.0308 -2.2452
  401MOL0     H54124   3.703  10.280   8.950 -0.2994 -0.7199  0.2685
  401MOL0     H54125   3.877  10.332   8.780 -0.1673  1.1788  0.1630
  401MOL0     H54126   3.738  10.435   8.776 -0.4822 -0.3744  0.8774
  401MOL0     H54127   3.641  10.330   8.584 -0.8313 -1.6019 -1.1762
  401MOL0     H54128   3.750  10.202   8.589  0.5661  0.0132  0.2992
  401MOL0     H54129   3.863  10.490   8.564 -1.4884  1.5339 -3.7738
  401MOL0     H54130   3.940  10.329   8.529  0.1379 -2.8693 -6.0654
  401MOL0     H54131   3.716  10.470   8.184  0.1189  0.3373 -0.2458
  401MOL0     H54132   3.571  10.123   9.080  0.2480  0.6431  0.8131
  401MOL0     H54133   3.393  10.024   9.316 -3.6963  1.1862 -0.1315
  401MOL0     H54134   3.522  10.147   9.323  1.2732  0.8774 -0.6022
  401MOL0     H54135   3.361  10.189   9.376 -0.5871 -2.4845  1.4334
  402MOL0     O54136   9.329   8.481  10.172  0.5448 -0.7079  0.0520
  402MOL0     C54137   9.381   8.372  10.192  0.8156  0.1746  0.2674
  402MOL0     O54138   9.516   8.334  10.187 -0.1893  0.1478 -0.4534
  402MOL0     C54139   9.600   8.433  10.158  0.0705  0.0425  1.1005
  402MOL0     C54140   9.683   8.410  10.043 -0.1151  0.0726  0.0290
  402MOL0     C54141   9.788   8.505  10.010 -0.3415  0.4412 -0.1509
  402MOL0     C54142   9.813   8.613  10.093  0.8223  0.0961 -0.6255
  402MOL0     O54143   9.918   8.684  10.054  0.7687 -0.4654  0.2361
  402MOL0     C54144   9.989   8.764  10.146 -0.4043 -0.0094 -0.2891
  402MOL0     C54145  10.114   8.823  10.090 -0.6873  0.6001 -0.5458
  402MOL0     C54146  10.211   8.723  10.026  0.0783  0.1051  0.0748
  402MOL0     C54147  10.350   8.792   9.985  0.3872  0.7272  0.1586
  402MOL0     C54148  10.431   8.702   9.887 -0.8562  0.0555  0.0875
  402MOL0     C54149  10.536   8.795   9.815  0.8077 -0.1480  0.1374
  402MOL0     C54150  10.634   8.866   9.900  0.2453  0.1821  0.2436
  402MOL0     C54151  10.671   8.998   9.840 -0.4608 -0.4440 -0.2646
  402MOL0     N54152  10.794   9.057   9.892 -0.5667 -0.1512  0.7994
  402MOL0     C54153  10.919   9.024   9.837  0.8304 -0.4189  0.1273
  402MOL0     C54154  11.004   9.109   9.892  1.0752 -0.8508  0.3216
  402MOL0     C54155  11.148   9.140   9.845  0.4868 -0.0152 -1.1635
  402MOL0     C54156  11.141   9.256   9.749  0.6128  0.3024 -0.0549
  402MOL0     C54157  11.280   9.310   9.717  0.3457  0.8484  0.5244
  402MOL0     C54158  11.344   9.244   9.595  0.6244  0.7150  0.6388
  402MOL0     O54159  11.475   9.291   9.589  0.4427 -0.1067 -0.3174
  402MOL0     C54160  11.562   9.233   9.507 -0.4934 -0.2942  1.1260
  402MOL0     C54161  11.698   9.279   9.528  0.7580 -0.1651 -0.0156
  402MOL0     C54162  11.797   9.241   9.437 -0.1773  0.0590 -0.6326
  402MOL0     C54163  11.776   9.149   9.339  0.1826  0.4302  0.3363
  402MOL0     C54164  11.882   9.101   9.248  0.1894  0.0922  0.0267
  402MOL0     O54165  12.001   9.127   9.297 -0.1403 -0.5331 -0.8512
  402MOL0     C54166  12.114   9.118   9.213  0.3854 -0.3997  0.7362
  402MOL0     C54167  12.234   9.158   9.281 -0.2624  0.4166 -0.5683
  402MOL0     C54168  12.360   9.130   9.236 -0.1783 -0.3871 -0.1534
  402MOL0     C54169  12.375   9.072   9.109 -0.2300 -0.1227  0.1013
  402MOL0     O54170  12.497   9.042   9.046  0.2277  0.0551  0.0176
  402MOL0     C54171  12.615   9.057   9.124 -0.4577  0.7201 -0.3627
  402MOL0     C54172  12.735   9.009   9.042 -0.2236  0.1867  0.5687
  402MOL0     C54173  12.863   9.038   9.115  0.2261  0.2137 -0.1454
  402MOL0     C54174  12.981   8.996   9.044  0.0285 -0.0445 -0.2193
  402MOL0     C54175  13.111   9.004   9.121 -0.6649  0.0682  0.7500
  402MOL0     C54176  13.240   8.991   9.036 -0.0216  0.0912  1.5285
  402MOL0     C54177  13.251   9.111   8.934 -0.5472  0.4160 -0.4511
  402MOL0     C54178  13.374   9.100   8.842 -0.6323 -0.4217  0.0146
  402MOL0    Cl54179  13.540   9.142   8.932  0.1207  0.4203  0.3952
  402MOL0     C54180  12.261   9.036   9.033 -0.5559  0.0473  0.1696
  402MOL0     C54181  12.130   9.054   9.084  0.2033  0.6895 -0.6507
  402MOL0     O54182  11.853   9.066   9.134  0.0589 -0.0465  0.2236
  402MOL0     C54183  11.646   9.102   9.324  0.0456 -0.0899 -0.5696
  402MOL0     C54184  11.541   9.143   9.405  0.0396  0.4295 -0.9333
  402MOL0     N54185  10.929   9.194   9.972 -0.0339 -0.5692 -0.1156
  402MOL0     N54186  10.810   9.160   9.975  0.6172  0.4385  0.6761
  402MOL0     C54187   9.737   8.637  10.205  1.0906 -0.6099 -0.7132
  402MOL0     C54188   9.634   8.548  10.237 -0.0214 -0.0588 -0.3081
  402MOL0     C54189   9.275   8.281  10.257  0.2802 -0.2609 -0.0895
  402MOL0     C54190   9.323   8.193  10.353  0.7206  0.4415  0.6265
  402MOL0     C54191   9.236   8.123  10.438 -0.3028 -0.1758  0.8715
  402MOL0     C54192   9.099   8.136  10.420  0.2880 -0.4544 -0.5405
  402MOL0     O54193   9.000   8.059  10.487 -0.5787  0.4481 -0.7428
  402MOL0     C54194   9.042   7.954  10.566 -0.4763 -0.1142  0.3533
  402MOL0     C54195   8.920   7.899  10.641  0.0412 -0.2717 -0.3815
  402MOL0     C54196   8.950   7.802  10.756  0.4060  0.0475 -0.0740
  402MOL0     C54197   8.887   7.672  10.725 -0.9477  0.5487 -0.6341
  402MOL0     C54198   8.921   7.556  10.816  0.1414  0.1745 -0.6546
  402MOL0     C54199   8.942   7.457  10.879  0.7947 -0.2168 -0.5710
  402MOL0     C54200   9.042   8.201  10.312 -0.2593  0.3334  0.6695
  402MOL0     C54201   9.135   8.276  10.226 -0.6752  0.2318 -0.1461
  402MOL0     C54202   9.085   8.341  10.110  0.0802 -0.2104  0.2211
  402MOL0     H54203   9.667   8.318   9.988  3.8649 -2.1183  2.1216
  402MOL0     H54204   9.860   8.492   9.930 -0.8336  0.1071 -0.5516
  402MOL0     H54205   9.920   8.846  10.169 -0.0753  0.6343 -1.5543
  402MOL0     H54206  10.007   8.712  10.241  1.8362 -0.7956 -1.0798
  402MOL0     H54207  10.166   8.878  10.170  1.7394  2.8080 -3.4147
  402MOL0     H54208  10.075   8.891  10.014  0.1012  2.2393  0.4477
  402MOL0     H54209  10.165   8.697   9.930 -0.7151  1.0081  0.2029
  402MOL0     H54210  10.224   8.627  10.077  0.0090  0.0488 -0.0128
  402MOL0     H54211  10.338   8.892   9.944  0.4423  0.7750  0.2585
  402MOL0     H54212  10.412   8.807  10.074  2.2532  1.8458 -1.2466
  402MOL0     H54213  10.488   8.619   9.932  2.3034  1.7323 -0.5291
  402MOL0     H54214  10.363   8.659   9.813 -1.8423  0.3176  0.8191
  402MOL0     H54215  10.596   8.736   9.745  3.2479  1.2267  0.9274
  402MOL0     H54216  10.472   8.864   9.761 -2.7688 -1.7948  1.9283
  402MOL0     H54217  10.724   8.804   9.901  0.6699  0.1826 -5.3041
  402MOL0     H54218  10.596   8.875  10.002 -4.0634  1.6193 -1.3062
  402MOL0     H54219  10.695   8.990   9.734  1.8923  2.2526 -0.0389
  402MOL0     H54220  10.593   9.073   9.857  0.2479  0.1688  0.3524
  402MOL0     H54221  10.946   8.947   9.765  0.3108 -1.1077  0.6575
  402MOL0     H54222  11.196   9.177   9.936  0.8294  1.8863 -2.0730
  402MOL0     H54223  11.195   9.052   9.801 -1.4761 -1.0945 -1.2304
  402MOL0     H54224  11.078   9.225   9.664 -1.9900  0.4346  1.7063
  402MOL0     H54225  11.080   9.334   9.796  1.8307  3.6211 -3.4453
  402MOL0     H54226  11.329   9.307   9.814 -1.3900  1.9291  1.4818
  402MOL0     H54227  11.265   9.415   9.691  0.1192  0.0498 -3.2583
  402MOL0     H54228  11.299   9.281   9.503  1.1458  1.8543  0.8323
  402MOL0     H54229  11.340   9.135   9.606 -0.1660  0.8762  2.3610
  402MOL0     H54230  11.721   9.332   9.620 -1.4495 -4.6209  3.5239
  402MOL0     H54231  11.899   9.278   9.440  0.6375 -2.0386 -0.8585
  402MOL0     H54232  12.218   9.212   9.373 -0.7816 -2.2329  1.0220
  402MOL0     H54233  12.456   9.149   9.283  0.1658 -1.3081 -0.4756
  402MOL0     H54234  12.630   9.160   9.157  1.0606  0.5693 -0.5252
  402MOL0     H54235  12.611   8.986   9.208  0.2207 -0.1639 -1.0637
  402MOL0     H54236  12.730   8.901   9.022 -2.0545  0.8283 -3.5671
  402MOL0     H54237  12.729   9.060   8.946 -2.1530 -0.6503  0.1847
  402MOL0     H54238  12.881   9.145   9.127 -0.6502  0.7092 -2.5553
  402MOL0     H54239  12.857   8.987   9.211 -1.1037 -2.4481 -1.5237
  402MOL0     H54240  12.973   9.054   8.951 -2.6446 -2.2490 -1.5162
  402MOL0     H54241  12.971   8.890   9.016 -3.4280 -0.0359  0.5858
  402MOL0     H54242  13.122   8.919   9.188 -1.0472 -2.0503 -1.7334
  402MOL0     H54243  13.101   9.097   9.178 -1.7149 -0.4399  1.4309
  402MOL0     H54244  13.324   8.968   9.101  1.3013  0.8560  0.1622
  402MOL0     H54245  13.220   8.904   8.971 -1.3247  1.3461  0.1627
  402MOL0     H54246  13.260   9.207   8.986  0.3902  1.3432 -2.2283
  402MOL0     H54247  13.160   9.113   8.874 -1.9227 -0.9398  1.4713
  402MOL0     H54248  13.366   9.009   8.783 -2.5206  1.0509 -2.1897
  402MOL0     H54249  13.367   9.182   8.770 -1.4992 -1.3043 -0.9262
  402MOL0     H54250  12.268   8.996   8.932  0.1494 -2.4991  1.1344
  402MOL0     H54251  12.053   9.015   9.018 -0.6010 -1.6061  1.4484
  402MOL0     H54252  11.627   9.034   9.241 -2.9085  3.2788 -2.9572
  402MOL0     H54253  11.436   9.118   9.394 -0.5655  1.7069  1.3627
  402MOL0     H54254   9.758   8.717  10.275  0.2698 -2.3687  1.6986
  402MOL0     H54255   9.581   8.570  10.329 -0.9884  2.2997 -1.3370
  402MOL0     H54256   9.430   8.184  10.373  0.3490  1.3036  3.3027
  402MOL0     H54257   9.271   8.054  10.514 -1.5533  0.6486  2.2386
  402MOL0     H54258   9.110   7.985  10.646  0.4128 -1.3815  0.1170
  402MOL0     H54259   9.092   7.876  10.509 -1.2922 -0.6211  0.3133
  402MOL0     H54260   8.843   7.861  10.574  1.1300  1.1031 -2.5319
  402MOL0     H54261   8.883   7.989  10.692  4.0057  0.3695  1.8433
  402MOL0     H54262   8.903   7.849  10.843 -2.3702 -2.1307 -0.2744
  402MOL0     H54263   9.058   7.789  10.771  0.2980 -0.5149  0.2757
  402MOL0     H54264   8.779   7.686  10.728 -0.6409  3.1116  0.8670
  402MOL0     H54265   8.930   7.633  10.632  0.1239 -1.9768  0.8211
  402MOL0     H54266   8.948   7.364  10.932 -3.8432 -0.2810  0.2322
  402MOL0     H54267   8.935   8.211  10.297 -0.8061 -2.8318  1.7791
  402MOL0     H54268   9.070   8.446  10.139  0.2746 -0.0128 -0.3796
  402MOL0     H54269   9.164   8.336  10.034  1.0491  0.6980  1.1390
  402MOL0     H54270   8.984   8.308  10.085 -0.7890  1.3251  1.5307
  403MOL0     O54271  10.554   0.285   8.780 -0.0626 -1.1983  0.4749
  403MOL0     C54272  10.529   0.292   8.902 -0.0278  0.4932 -0.6070
  403MOL0     O54273  10.615   0.246   9.009  0.3818 -0.1420 -0.2071
  403MOL0     C54274  10.732   0.179   8.981 -0.7863 -0.6025 -0.4640
  403MOL0     C54275  10.816   0.188   9.096 -0.6049  0.4620 -0.4356
  403MOL0     C54276  10.941   0.124   9.093 -0.0523 -0.0898 -0.3413
  403MOL0     C54277  10.986   0.055   8.984 -0.4906  0.4031  0.8480
  403MOL0     O54278  11.108  -0.004   8.988  0.4847  0.2906 -0.1999
  403MOL0     C54279  11.196   0.060   8.889 -0.3897 -0.1835 -0.2739
  403MOL0     C54280  11.345   0.061   8.935  0.1506 -0.0279 -0.2887
  403MOL0     C54281  11.394  -0.082   8.935  0.3932  0.5187  0.1035
  403MOL0     C54282  11.547  -0.103   8.970 -0.0190  0.5348  0.8712
  403MOL0     C54283  11.648  -0.033   8.877 -0.8235  0.5069 -0.2985
  403MOL0     C54284  11.793  -0.090   8.900  0.7081  0.8990 -0.1936
  403MOL0     C54285  11.894  -0.016   8.809 -0.3525 -0.7698  0.1224
  403MOL0     C54286  12.028  -0.092   8.829 -0.3872  0.1641 -0.5814
  403MOL0     N54287  12.138  -0.005   8.792  0.2024 -0.5247 -0.2059
  403MOL0     C54288  12.259  -0.066   8.784 -0.5254  0.1485 -0.7663
  403MOL0     C54289  12.324   0.036   8.726  0.4288  0.5786 -0.8130
  403MOL0     C54290  12.468   0.025   8.699 -0.0988 -0.5093 -0.4107
  403MOL0     C54291  12.555   0.084   8.809  0.2624  0.0365 -0.3223
  403MOL0     C54292  12.702   0.059   8.770 -1.0029  0.2090 -0.4110
  403MOL0     C54293  12.775   0.195   8.749  0.3674  0.5118  0.0583
  403MOL0     O54294  12.787   0.278   8.860  0.6069 -0.0282 -0.7301
  403MOL0     C54295  12.911   0.346   8.864 -0.0139 -0.1338 -0.8388
  403MOL0     C54296  12.921   0.474   8.811 -0.6723 -0.3853 -0.0681
  403MOL0     C54297  13.053   0.528   8.812 -0.2405 -0.7345 -0.0226
  403MOL0     C54298  13.171   0.465   8.853 -0.6756  1.2901 -0.5244
  403MOL0     C54299  13.298   0.524   8.827 -0.2661 -0.0395  0.2982
  403MOL0     O54300  13.411   0.443   8.824 -0.0546  0.6121 -0.2814
  403MOL0     C54301  13.516   0.479   8.753  0.2177 -0.2772 -0.1119
  403MOL0     C54302  13.509   0.474   8.621  0.4897  0.0950  0.3200
  403MOL0     C54303  13.622   0.499   8.533  0.0915 -0.0370  0.2358
  403MOL0     C54304  13.746   0.537   8.591  0.3351  0.2714 -0.6359
  403MOL0     O54305  13.862   0.568   8.518 -0.4238  0.6053  0.3540
  403MOL0     C54306  13.840   0.574   8.373 -0.2192 -0.2570  0.2873
  403MOL0     C54307  13.842   0.438   8.304  0.4086 -1.1255  0.2699
  403MOL0     C54308  13.865   0.470   8.151 -1.0410  0.3119 -0.0371
  403MOL0     C54309  13.868   0.345   8.066 -0.1779 -0.3949 -0.4223
  403MOL0     C54310  13.866   0.381   7.913  0.2061 -0.4156  0.0126
  403MOL0     C54311  13.978   0.472   7.863 -0.3656  1.2907 -0.6194
  403MOL0     C54312  14.117   0.418   7.887 -0.4764 -0.1433 -0.4887
  403MOL0     C54313  14.145   0.273   7.839  0.3484 -0.6384 -0.6158
  403MOL0    Cl54314  14.319   0.255   7.803  0.1286  0.1344 -0.2501
  403MOL0     C54315  13.746   0.543   8.729 -0.0118  0.2690 -0.4934
  403MOL0     C54316  13.641   0.506   8.811  0.7104 -0.4518  0.7969
  403MOL0     O54317  13.300   0.646   8.819 -0.2806 -0.3384  0.1228
  403MOL0     C54318  13.142   0.336   8.910  0.2919  0.0864  0.1313
  403MOL0     C54319  13.018   0.276   8.913 -0.1854 -0.1528  0.9324
  403MOL0     N54320  12.251   0.147   8.707 -0.4078  0.0476  1.3364
  403MOL0     N54321  12.133   0.119   8.738 -0.0741 -0.1626 -0.0049
  403MOL0     C54322  10.902   0.050   8.873  0.3713 -0.3451  0.5736
  403MOL0     C54323  10.779   0.112   8.869 -0.7227 -0.3509  0.5724
  403MOL0     C54324  10.394   0.345   8.945  0.2045  0.4571 -0.3476
  403MOL0     C54325  10.381   0.380   9.079 -0.5783 -0.2438  0.4972
  403MOL0     C54326  10.263   0.429   9.136 -0.0481  0.1105 -0.0126
  403MOL0     C54327  10.148   0.436   9.072  0.3044 -1.5095 -0.1577
  403MOL0     O54328  10.031   0.466   9.136  0.3799 -0.5387 -0.3831
  403MOL0     C54329   9.908   0.494   9.057 -0.4868 -0.8883 -0.4657
  403MOL0     C54330   9.909   0.636   8.998 -0.2823  0.9510  0.5740
  403MOL0     C54331   9.775   0.684   8.960  0.2597 -0.1654  0.0428
  403MOL0     C54332   9.780   0.833   8.922 -0.1384  0.8104  0.8768
  403MOL0     C54333   9.639   0.880   8.889  0.9076  0.5197  0.1462
  403MOL0     C54334   9.526   0.920   8.867  0.2163  0.3441  0.1445
  403MOL0     C54335  10.154   0.404   8.933 -0.2817  0.1341 -0.3716
  403MOL0     C54336  10.275   0.351   8.872 -0.4470  1.1397 -0.3430
  403MOL0     C54337  10.265   0.306   8.722 -0.1422  0.0602 -0.3712
  403MOL0     H54338  10.782   0.233   9.188  3.8837  0.7071  1.3685
  403MOL0     H54339  10.999   0.120   9.185  0.9976 -0.9056 -1.0114
  403MOL0     H54340  11.194   0.003   8.795  1.0472  0.5635 -0.7917
  403MOL0     H54341  11.155   0.159   8.867 -2.8490 -1.3755 -1.5321
  403MOL0     H54342  11.339   0.100   9.037 -0.9373 -3.0545  0.8961
  403MOL0     H54343  11.400   0.123   8.863 -1.3090  2.2948  0.4770
  403MOL0     H54344  11.364  -0.124   8.839 -2.7138 -2.0346  1.9536
  403MOL0     H54345  11.330  -0.115   9.018 -3.1388  0.3227 -2.4637
  403MOL0     H54346  11.570  -0.073   9.072  0.6001 -0.1423  0.9427
  403MOL0     H54347  11.566  -0.211   8.967  0.1532  0.5782 -1.1147
  403MOL0     H54348  11.625  -0.060   8.774  0.7827  0.0536 -0.5589
  403MOL0     H54349  11.644   0.075   8.892  1.7772  0.6184  0.0373
  403MOL0     H54350  11.825  -0.078   9.003  0.4692 -2.2525  0.3566
  403MOL0     H54351  11.798  -0.197   8.879 -0.5233  0.8509 -0.3631
  403MOL0     H54352  11.909   0.087   8.841  1.9961 -1.2762  0.8368
  403MOL0     H54353  11.855  -0.011   8.707  3.2759 -0.4579 -1.4063
  403MOL0     H54354  12.050  -0.122   8.932  0.4022 -1.1971 -1.1190
  403MOL0     H54355  12.038  -0.177   8.761  1.1696  0.2878 -0.5577
  403MOL0     H54356  12.297  -0.164   8.811 -0.5349 -0.4142 -2.6945
  403MOL0     H54357  12.509  -0.074   8.679  3.4231  1.1579 -2.3321
  403MOL0     H54358  12.488   0.077   8.605  0.0080 -0.6398 -0.4602
  403MOL0     H54359  12.537   0.192   8.815  0.2646 -0.0270  1.2747
  403MOL0     H54360  12.540   0.030   8.903  1.8347 -1.5165 -0.9107
  403MOL0     H54361  12.725  -0.007   8.685  1.6957 -0.1614  0.5084
  403MOL0     H54362  12.759  -0.003   8.839  0.9556 -1.4845 -3.3104
  403MOL0     H54363  12.719   0.244   8.669  0.1347  1.5810  0.8481
  403MOL0     H54364  12.873   0.169   8.708 -0.6133 -1.4724 -1.1916
  403MOL0     H54365  12.840   0.529   8.765 -0.4581  0.4802  0.5697
  403MOL0     H54366  13.047   0.630   8.775 -0.8699 -0.9836 -0.6561
  403MOL0     H54367  13.417   0.441   8.574  2.1194 -1.6807 -1.8746
  403MOL0     H54368  13.607   0.515   8.426  1.5251 -0.2635 -0.0227
  403MOL0     H54369  13.754   0.637   8.348 -0.1784 -0.5034 -0.4976
  403MOL0     H54370  13.930   0.618   8.331  1.8753 -0.3503  4.2799
  403MOL0     H54371  13.936   0.389   8.326  1.5637  1.0799  0.5822
  403MOL0     H54372  13.761   0.369   8.330 -0.2684  0.5565  3.0257
  403MOL0     H54373  13.804   0.551   8.111 -1.2668 -0.0290 -0.3931
  403MOL0     H54374  13.967   0.507   8.139 -0.5135 -0.9062  0.5007
  403MOL0     H54375  13.779   0.287   8.092  1.1100 -2.0147  0.6069
  403MOL0     H54376  13.955   0.284   8.091  1.5883  1.8476 -0.7306
  403MOL0     H54377  13.770   0.429   7.894  0.2317  0.8656  2.6565
  403MOL0     H54378  13.857   0.290   7.852 -2.7637 -3.6453  4.6427
  403MOL0     H54379  13.984   0.491   7.756  4.6180 -1.8038 -1.1941
  403MOL0     H54380  13.970   0.571   7.909  2.0756  1.9516 -1.4909
  403MOL0     H54381  14.146   0.438   7.991 -3.0172  1.1507  0.0323
  403MOL0     H54382  14.180   0.484   7.827  0.4874 -2.2594 -1.9450
  403MOL0     H54383  14.110   0.209   7.920 -1.0021  3.0130  1.9563
  403MOL0     H54384  14.094   0.251   7.745 -0.9206  0.6495 -0.2514
  403MOL0     H54385  13.837   0.573   8.781 -0.5609 -0.7256  1.1096
  403MOL0     H54386  13.650   0.502   8.919 -2.3666  3.0163  1.3992
  403MOL0     H54387  13.228   0.292   8.959 -1.6841 -1.4577  2.3964
  403MOL0     H54388  12.994   0.172   8.934  2.6220 -1.4036 -1.2450
  403MOL0     H54389  10.931  -0.009   8.787 -2.0607 -0.8450 -0.0045
  403MOL0     H54390  10.716   0.113   8.781  0.8244  1.8325 -0.5902
  403MOL0     H54391  10.465   0.364   9.145  0.1703 -0.8513 -0.5553
  403MOL0     H54392  10.263   0.441   9.244  1.4317 -2.9084  0.4417
  403MOL0     H54393   9.827   0.498   9.130  0.1581  1.0027  0.2104
  403MOL0     H54394   9.871   0.421   8.984  1.0845 -0.0531 -2.1809
  403MOL0     H54395   9.977   0.633   8.912 -0.5442  3.2288  0.2305
  403MOL0     H54396   9.952   0.716   9.059 -0.2859  2.4723 -1.3314
  403MOL0     H54397   9.718   0.679   9.052  0.6394  1.7626  0.4287
  403MOL0     H54398   9.718   0.625   8.888 -2.3485 -0.1099  1.9449
  403MOL0     H54399   9.814   0.888   9.009  0.9840 -2.5633  2.7693
  403MOL0     H54400   9.845   0.854   8.836  0.7142 -1.4513  0.8800
  403MOL0     H54401   9.429   0.961   8.851 -0.1256 -1.0912 -1.8343
  403MOL0     H54402  10.066   0.410   8.870  0.2977 -0.3637 -1.2500
  403MOL0     H54403  10.305   0.204   8.713 -4.1877 -1.6128 -2.8106
  403MOL0     H54404  10.161   0.315   8.689 -1.5316 -1.6511  3.0207
  403MOL0     H54405  10.323   0.368   8.654 -2.0884 -0.1736 -2.3912
  404MOL0     O54406   2.914   8.760   0.826 -0.5864  0.3703  0.8999
  404MOL0     C54407   2.894   8.843   0.736 -0.2967 -0.1033  0.4446
  404MOL0     O54408   2.983   8.942   0.704 -0.0204 -0.0589 -0.4478
  404MOL0     C54409   3.110   8.942   0.758 -0.2132  0.1427  0.7238
  404MOL0     C54410   3.197   8.829   0.748 -0.2790 -0.1403  1.0852
  404MOL0     C54411   3.328   8.842   0.792 -0.4557 -0.0923 -0.1033
  404MOL0     C54412   3.378   8.957   0.858  0.3951 -0.4181  0.0360
  404MOL0     O54413   3.498   8.959   0.919 -0.0261 -0.2822 -0.2202
  404MOL0     C54414   3.572   8.838   0.922  0.5732  0.6640  0.6147
  404MOL0     C54415   3.685   8.857   1.017  0.3483  0.2822 -0.0063
  404MOL0     C54416   3.756   8.725   1.068  0.9012 -0.6042  0.2701
  404MOL0     C54417   3.836   8.659   0.957  0.0496  0.7432  0.0247
  404MOL0     C54418   3.917   8.532   1.016 -0.3954  0.2720 -0.8465
  404MOL0     C54419   4.041   8.567   1.099 -0.5504  0.4595 -1.5701
  404MOL0     C54420   4.124   8.438   1.112 -0.6913  0.1542 -0.7058
  404MOL0     C54421   4.234   8.468   1.212  0.3078  0.3878  0.1282
  404MOL0     N54422   4.358   8.525   1.154 -0.1322 -0.3747  0.4396
  404MOL0     C54423   4.467   8.444   1.133  0.3461 -0.3702  0.7998
  404MOL0     C54424   4.561   8.516   1.063  1.0046 -0.1859  1.2333
  404MOL0     C54425   4.689   8.451   1.000  0.2424  0.5257 -0.2674
  404MOL0     C54426   4.777   8.570   0.945 -0.8149  0.3325 -0.0779
  404MOL0     C54427   4.917   8.516   0.899  0.3891 -0.0960 -0.4343
  404MOL0     C54428   5.003   8.623   0.833 -0.1950 -0.0166  0.1385
  404MOL0     O54429   5.130   8.558   0.805  0.3065 -0.3174 -0.2473
  404MOL0     C54430   5.217   8.629   0.730  0.9089 -0.5858 -0.1998
  404MOL0     C54431   5.319   8.563   0.656 -0.2939  0.2510  0.3782
  404MOL0     C54432   5.414   8.636   0.584 -0.6250 -0.8772  0.6624
  404MOL0     C54433   5.409   8.774   0.561 -0.0889 -0.3213 -0.2499
  404MOL0     C54434   5.487   8.845   0.458 -0.1958  0.0129 -0.1875
  404MOL0     O54435   5.476   8.982   0.453  0.0864 -0.0907  0.3726
  404MOL0     C54436   5.561   9.046   0.365 -0.1199 -0.6847  0.3133
  404MOL0     C54437   5.677   9.110   0.408 -0.5956  1.4375 -0.5338
  404MOL0     C54438   5.748   9.201   0.322 -1.4673  0.6208  1.8833
  404MOL0     C54439   5.707   9.216   0.185 -0.7458 -0.3844  0.0366
  404MOL0     O54440   5.784   9.307   0.114  0.0216  0.0001  0.3274
  404MOL0     C54441   5.755   9.310  -0.019 -0.1756 -0.6672  0.8996
  404MOL0     C54442   5.822   9.427  -0.096  0.2756  0.4596  0.4277
  404MOL0     C54443   5.752   9.462  -0.236  0.5609  0.0245 -0.6308
  404MOL0     C54444   5.813   9.575  -0.313 -0.0259  0.2825 -0.8007
  404MOL0     C54445   5.952   9.542  -0.357  0.1624 -0.5999 -0.8136
  404MOL0     C54446   5.993   9.634  -0.473  0.3875 -0.8563  0.5266
  404MOL0     C54447   6.119   9.588  -0.545  0.0682 -0.0957 -1.0571
  404MOL0     C54448   6.154   9.690  -0.651  0.4980 -0.0336 -0.0403
  404MOL0    Cl54449   6.036   9.725  -0.782 -0.3146 -0.0574 -0.7499
  404MOL0     C54450   5.596   9.147   0.148 -0.2987  0.0784 -0.5396
  404MOL0     C54451   5.524   9.062   0.230 -0.4109  0.6521 -0.3073
  404MOL0     O54452   5.568   8.779   0.386  0.0361 -0.2409 -0.4298
  404MOL0     C54453   5.301   8.840   0.629  0.3909  0.2702  0.2924
  404MOL0     C54454   5.209   8.773   0.707 -0.3946  0.1557 -0.2037
  404MOL0     N54455   4.498   8.634   1.038 -0.0751 -0.7697 -0.3274
  404MOL0     N54456   4.381   8.640   1.086  0.0580  0.3602 -0.1762
  404MOL0     C54457   3.287   9.070   0.872  0.0673  0.0876 -1.4469
  404MOL0     C54458   3.162   9.060   0.811 -0.1551  0.7419 -0.6785
  404MOL0     C54459   2.752   8.854   0.681 -0.0476  0.0725  1.1790
  404MOL0     C54460   2.641   8.797   0.754 -0.8714 -0.0185  0.3237
  404MOL0     C54461   2.507   8.819   0.714  0.1491  0.5167  0.3370
  404MOL0     C54462   2.481   8.891   0.597 -0.1077 -0.4554  0.1923
  404MOL0     O54463   2.359   8.930   0.549  0.0584 -0.2374  0.5778
  404MOL0     C54464   2.267   8.986   0.647  0.6354  0.0546  0.2322
  404MOL0     C54465   2.188   8.873   0.722 -0.5732  0.2003  0.1025
  404MOL0     C54466   2.044   8.909   0.754 -0.3874  0.2688  0.3320
  404MOL0     C54467   1.969   8.794   0.823  0.2511  0.0946  0.8765
  404MOL0     C54468   1.911   8.846   0.939 -0.4193 -0.0974 -0.2540
  404MOL0     C54469   1.866   8.889   1.045  0.6714 -0.9154 -0.1384
  404MOL0     C54470   2.586   8.945   0.526  0.0284  0.1936  0.2043
  404MOL0     C54471   2.721   8.929   0.563  0.3213  0.6873  0.0338
  404MOL0     C54472   2.811   9.004   0.475 -1.1110  0.1741  0.3684
  404MOL0     H54473   3.175   8.740   0.689  0.0969 -0.3792  1.3059
  404MOL0     H54474   3.387   8.752   0.776 -0.5821  0.4319 -5.3954
  404MOL0     H54475   3.508   8.754   0.950  0.5011  1.2708  2.3900
  404MOL0     H54476   3.602   8.815   0.819 -0.5432  1.2930  0.1273
  404MOL0     H54477   3.651   8.907   1.108 -0.7518 -1.6467  0.7067
  404MOL0     H54478   3.768   8.909   0.968  0.4200 -0.0761 -0.2650
  404MOL0     H54479   3.687   8.644   1.090  0.9969 -0.5739  0.7009
  404MOL0     H54480   3.818   8.754   1.154 -0.5533  1.4243  0.7304
  404MOL0     H54481   3.759   8.628   0.886 -4.5804  3.3011  3.4337
  404MOL0     H54482   3.910   8.725   0.910 -0.0895  1.3231  0.6217
  404MOL0     H54483   3.852   8.467   1.074 -0.5268  0.4185 -0.8281
  404MOL0     H54484   3.957   8.473   0.933  0.8328  0.5188 -0.4579
  404MOL0     H54485   4.106   8.643   1.055 -0.6383  2.0999  0.9599
  404MOL0     H54486   4.014   8.600   1.199  0.0643  0.3927 -1.3778
  404MOL0     H54487   4.178   8.402   1.024  1.8807 -2.3657  1.7150
  404MOL0     H54488   4.053   8.366   1.152 -0.5748 -1.1938 -2.8040
  404MOL0     H54489   4.200   8.537   1.291  2.5764 -0.1330  1.6481
  404MOL0     H54490   4.254   8.371   1.258  0.3492 -0.3599 -1.4051
  404MOL0     H54491   4.480   8.340   1.159  1.8451  0.1279  2.2434
  404MOL0     H54492   4.751   8.403   1.077  0.8371  0.9902 -0.4530
  404MOL0     H54493   4.669   8.376   0.923  1.3877  0.9573 -0.9969
  404MOL0     H54494   4.733   8.601   0.850 -0.1225 -2.5448 -1.4479
  404MOL0     H54495   4.778   8.655   1.014  1.1641 -0.1130  0.4846
  404MOL0     H54496   4.911   8.429   0.833  0.9800 -2.1933  2.1094
  404MOL0     H54497   4.972   8.482   0.987  4.3968  1.4784 -2.1025
  404MOL0     H54498   5.007   8.715   0.892 -2.9458  0.9867 -1.0933
  404MOL0     H54499   4.956   8.640   0.735  0.6270 -0.9073 -0.4274
  404MOL0     H54500   5.323   8.455   0.668  1.4720 -0.0086 -1.7624
  404MOL0     H54501   5.506   8.587   0.552  0.1587  0.3739  0.9536
  404MOL0     H54502   5.722   9.101   0.506 -1.1583  0.8515 -0.3238
  404MOL0     H54503   5.833   9.265   0.345  0.0534 -0.3024 -0.6444
  404MOL0     H54504   5.787   9.215  -0.064  1.5035 -1.0143  2.6939
  404MOL0     H54505   5.649   9.326  -0.042 -0.1533 -1.0141  0.5245
  404MOL0     H54506   5.809   9.516  -0.034 -2.3793 -0.6482  1.5944
  404MOL0     H54507   5.928   9.397  -0.091 -0.4881 -2.5768  0.5015
  404MOL0     H54508   5.754   9.373  -0.299 -1.8721 -1.4134  1.1415
  404MOL0     H54509   5.650   9.496  -0.217  1.1337  1.1201  0.7128
  404MOL0     H54510   5.811   9.664  -0.250  1.3037 -0.1881 -0.0367
  404MOL0     H54511   5.749   9.598  -0.398 -2.4560 -1.7940  0.3417
  404MOL0     H54512   5.960   9.435  -0.380 -0.1373 -1.0521  0.9880
  404MOL0     H54513   6.015   9.556  -0.269  2.6548 -0.0807 -2.5722
  404MOL0     H54514   5.908   9.637  -0.541  0.4896  0.9241  0.4218
  404MOL0     H54515   6.010   9.731  -0.424  2.6806 -1.9956  2.1993
  404MOL0     H54516   6.102   9.497  -0.604  1.2899 -0.4930 -0.8282
  404MOL0     H54517   6.204   9.576  -0.478 -0.4601 -0.0389 -0.3707
  404MOL0     H54518   6.176   9.781  -0.594  2.1277  1.4890 -2.8662
  404MOL0     H54519   6.246   9.661  -0.703 -0.0810  0.1719 -1.2028
  404MOL0     H54520   5.550   9.160   0.051  1.0582  1.2091 -1.0573
  404MOL0     H54521   5.431   9.016   0.199  0.3690 -0.8743 -0.5118
  404MOL0     H54522   5.284   8.944   0.607 -0.4850 -0.1101 -0.9636
  404MOL0     H54523   5.129   8.832   0.751  0.2638  0.8452  0.0720
  404MOL0     H54524   3.311   9.155   0.935  0.7975 -1.4461  0.4525
  404MOL0     H54525   3.094   9.145   0.812 -2.0356 -0.6842 -1.5378
  404MOL0     H54526   2.651   8.730   0.839 -2.3169  0.1487  0.6528
  404MOL0     H54527   2.430   8.768   0.770 -0.3363  2.0505  1.1247
  404MOL0     H54528   2.201   9.050   0.587 -1.2970 -2.7852 -0.9097
  404MOL0     H54529   2.332   9.042   0.714  0.7131  1.5243 -1.0124
  404MOL0     H54530   2.241   8.857   0.817  1.7749  0.4435 -1.0930
  404MOL0     H54531   2.194   8.777   0.670  1.4128 -1.0868  2.4343
  404MOL0     H54532   1.980   8.954   0.677  0.1647 -2.4871 -1.8977
  404MOL0     H54533   2.054   8.992   0.825 -1.9860 -0.0104  0.9264
  404MOL0     H54534   1.906   8.735   0.756 -0.9501  0.6912  1.4640
  404MOL0     H54535   2.041   8.716   0.850 -1.5467 -1.6749  0.8356
  404MOL0     H54536   1.826   8.951   1.123 -2.9871 -1.1222 -1.6430
  404MOL0     H54537   2.569   9.002   0.436 -0.1504  0.6267  0.5094
  404MOL0     H54538   2.868   9.080   0.529 -3.2257  1.6968  0.5765
  404MOL0     H54539   2.879   8.931   0.430 -1.1155 -0.8012  1.8493
  404MOL0     H54540   2.753   9.059   0.400 -0.9786  0.6025  0.5787
  405MOL0     O54541   2.131   5.118   2.773 -0.0573  0.2635 -0.5357
  405MOL0     C54542   2.137   5.180   2.673 -0.0671 -0.6426  0.1106
  405MOL0     O54543   2.248   5.258   2.633 -0.0097 -0.5736 -0.1458
  405MOL0     C54544   2.374   5.221   2.674  0.5708 -0.1534  0.0436
  405MOL0     C54545   2.421   5.096   2.717  0.8338 -0.3483  0.5719
  405MOL0     C54546   2.559   5.086   2.756 -0.1885 -0.5039  0.0506
  405MOL0     C54547   2.639   5.192   2.747  0.8041 -0.5282  0.1348
  405MOL0     O54548   2.774   5.168   2.779  0.4609 -0.3416  0.1578
  405MOL0     C54549   2.871   5.261   2.738  0.8794 -0.4061 -1.1634
  405MOL0     C54550   3.010   5.198   2.703 -0.4771  0.2588  0.1552
  405MOL0     C54551   3.117   5.304   2.711 -0.0987 -0.0504 -0.2771
  405MOL0     C54552   3.248   5.225   2.671 -0.6094 -0.2310 -0.2376
  405MOL0     C54553   3.359   5.313   2.704 -0.4371  0.1480  0.6869
  405MOL0     C54554   3.485   5.222   2.681  0.9042  0.4242 -0.6869
  405MOL0     C54555   3.615   5.300   2.724 -0.6765  1.3179  0.4197
  405MOL0     C54556   3.719   5.201   2.784  0.5441  0.7375  0.7105
  405MOL0     N54557   3.844   5.262   2.809  0.1999  0.2372  0.6743
  405MOL0     C54558   3.896   5.274   2.938 -0.2779  0.2290  0.9788
  405MOL0     C54559   4.010   5.332   2.921 -0.1714 -0.7816  0.1314
  405MOL0     C54560   4.125   5.353   3.013  0.8488  1.1111 -0.2789
  405MOL0     C54561   4.247   5.255   2.967  0.2234 -0.6974 -0.1816
  405MOL0     C54562   4.363   5.255   3.066 -0.1403  0.0505 -0.5763
  405MOL0     C54563   4.466   5.365   3.040 -1.0692  0.2265 -0.2746
  405MOL0     O54564   4.550   5.373   3.150 -0.3103  0.0601 -0.3758
  405MOL0     C54565   4.684   5.354   3.135 -0.1203 -0.3444  0.2681
  405MOL0     C54566   4.754   5.241   3.185 -0.6340 -0.3474  0.0818
  405MOL0     C54567   4.892   5.216   3.153  0.1227  0.2971 -0.2711
  405MOL0     C54568   4.960   5.306   3.073 -0.6897 -0.7512  0.0429
  405MOL0     C54569   5.109   5.297   3.061  0.3222  0.2046  0.2391
  405MOL0     O54570   5.183   5.403   3.025 -0.2174 -0.2641  0.2961
  405MOL0     C54571   5.317   5.397   3.057  0.6051 -0.9387 -0.5625
  405MOL0     C54572   5.375   5.360   3.182 -0.1934  0.4704  0.3225
  405MOL0     C54573   5.510   5.369   3.208 -0.0702  0.4272  1.7966
  405MOL0     C54574   5.592   5.417   3.103  0.2820  0.2076 -0.8780
  405MOL0     O54575   5.732   5.417   3.122  0.3505 -0.2275 -0.9046
  405MOL0     C54576   5.827   5.470   3.036  0.3260  0.7633  0.2289
  405MOL0     C54577   5.963   5.490   3.117  0.9360  0.4044  0.4118
  405MOL0     C54578   6.076   5.567   3.039 -0.3735  0.2324  0.5543
  405MOL0     C54579   6.208   5.554   3.131  0.3271 -0.9738  0.5869
  405MOL0     C54580   6.315   5.645   3.071  0.1160 -0.0145  0.5793
  405MOL0     C54581   6.454   5.638   3.136 -0.5319 -0.7999 -0.4575
  405MOL0     C54582   6.571   5.710   3.054 -0.2292  0.6662  0.1879
  405MOL0     C54583   6.557   5.859   3.048 -0.2682 -0.0501  0.5496
  405MOL0    Cl54584   6.675   5.942   2.939  0.2506 -0.3953  0.0689
  405MOL0     C54585   5.533   5.463   2.982  0.2968  0.6076 -0.0440
  405MOL0     C54586   5.399   5.450   2.959 -0.0015 -0.2076  1.1126
  405MOL0     O54587   5.155   5.184   3.082  0.5525  0.2760 -0.5782
  405MOL0     C54588   4.887   5.423   3.038 -0.1058  0.7461  0.7592
  405MOL0     C54589   4.757   5.443   3.063  0.7614  0.3907 -0.3140
  405MOL0     N54590   4.023   5.367   2.783  0.0566 -0.7221 -1.1557
  405MOL0     N54591   3.921   5.326   2.717  0.5505 -0.5221  0.2372
  405MOL0     C54592   2.591   5.316   2.707  0.8917 -0.0656 -0.4323
  405MOL0     C54593   2.457   5.329   2.676  0.2154  0.4272 -0.1868
  405MOL0     C54594   2.021   5.161   2.587 -0.4296 -1.2430  1.4853
  405MOL0     C54595   2.042   5.094   2.466  0.1054  0.2785 -0.6372
  405MOL0     C54596   1.935   5.071   2.377 -0.6084 -0.1739  0.3238
  405MOL0     C54597   1.809   5.097   2.414  0.5948  0.3271  0.3399
  405MOL0     O54598   1.712   5.098   2.319  0.2604 -0.3149 -0.7592
  405MOL0     C54599   1.703   5.007   2.211 -0.1327 -0.2816  0.3821
  405MOL0     C54600   1.558   4.981   2.184  0.5849 -0.5195 -0.6059
  405MOL0     C54601   1.544   4.898   2.061 -0.2956 -0.4161  0.7171
  405MOL0     C54602   1.397   4.849   2.039  0.0312 -0.3222 -0.3919
  405MOL0     C54603   1.391   4.807   1.900 -0.3953  0.4357 -0.3775
  405MOL0     C54604   1.387   4.776   1.786  0.5096  0.6365  0.0577
  405MOL0     C54605   1.785   5.149   2.543 -0.0011 -0.2368  0.1089
  405MOL0     C54606   1.888   5.175   2.633  0.3543  0.1030 -0.1594
  405MOL0     C54607   1.841   5.227   2.759 -0.5205 -0.0789 -0.7010
  405MOL0     H54608   2.363   5.004   2.718  0.2396  0.0181  0.3178
  405MOL0     H54609   2.593   4.989   2.789 -1.1378 -0.8520  0.0225
  405MOL0     H54610   2.828   5.299   2.644  0.3284  2.3380  0.0954
  405MOL0     H54611   2.887   5.344   2.807 -0.9046  0.1218 -1.3265
  405MOL0     H54612   3.004   5.150   2.605 -1.4702 -0.1943  0.4252
  405MOL0     H54613   3.024   5.123   2.780  0.6491  1.1065  0.8079
  405MOL0     H54614   3.126   5.349   2.810 -1.2124 -1.7128  0.6363
  405MOL0     H54615   3.109   5.384   2.637  0.1895  0.1557 -0.0842
  405MOL0     H54616   3.257   5.132   2.729 -0.3120 -0.5908 -0.8427
  405MOL0     H54617   3.245   5.198   2.565  0.0181  1.7915 -0.8057
  405MOL0     H54618   3.363   5.403   2.642  3.9718  0.3122  0.9158
  405MOL0     H54619   3.346   5.335   2.810 -0.2030 -0.6631  0.8913
  405MOL0     H54620   3.472   5.133   2.743  3.9540  0.3921  0.0863
  405MOL0     H54621   3.486   5.188   2.577 -0.4571  0.7576 -0.8285
  405MOL0     H54622   3.585   5.379   2.793 -0.9394  2.1715 -0.6475
  405MOL0     H54623   3.656   5.348   2.635 -4.2884  3.4932 -0.3011
  405MOL0     H54624   3.685   5.146   2.872  1.6000 -1.2540 -0.0698
  405MOL0     H54625   3.740   5.123   2.710 -0.0861  0.5244  0.7482
  405MOL0     H54626   3.857   5.219   3.023 -0.6574  0.3760  0.9038
  405MOL0     H54627   4.156   5.458   3.005 -2.2728  2.1492 -0.0572
  405MOL0     H54628   4.097   5.321   3.114  1.9465 -2.1336 -0.8671
  405MOL0     H54629   4.203   5.155   2.954 -1.3742 -0.2543  1.4400
  405MOL0     H54630   4.274   5.279   2.864 -3.7857 -0.2586 -1.3114
  405MOL0     H54631   4.417   5.160   3.068 -0.3673 -0.0772 -0.4223
  405MOL0     H54632   4.321   5.259   3.167  2.5714 -1.4331  0.7130
  405MOL0     H54633   4.420   5.464   3.043  0.6252  1.1294  4.5276
  405MOL0     H54634   4.520   5.338   2.948 -1.2004  1.2310 -0.6524
  405MOL0     H54635   4.707   5.167   3.249 -2.6806  0.1039 -0.8026
  405MOL0     H54636   4.946   5.131   3.195 -0.8444 -0.6878 -0.9621
  405MOL0     H54637   5.312   5.322   3.263  3.0932 -1.6191  2.1190
  405MOL0     H54638   5.557   5.336   3.301 -2.4538 -1.9568  2.2939
  405MOL0     H54639   5.851   5.395   2.961 -0.2700 -1.3356  2.0405
  405MOL0     H54640   5.791   5.562   2.989 -0.7451  1.3049  1.9831
  405MOL0     H54641   5.941   5.542   3.211 -1.6775 -2.4967  1.5398
  405MOL0     H54642   6.006   5.394   3.145  0.8471  0.0026 -0.7657
  405MOL0     H54643   6.091   5.525   2.939 -0.9505 -0.4637  0.7524
  405MOL0     H54644   6.055   5.675   3.034  1.2967  0.6783  2.1928
  405MOL0     H54645   6.239   5.451   3.148 -0.3921 -1.4274 -0.7336
  405MOL0     H54646   6.186   5.603   3.226 -1.4786  1.0948 -0.7918
  405MOL0     H54647   6.282   5.749   3.068 -0.8940 -0.2287  2.7368
  405MOL0     H54648   6.342   5.627   2.967  4.4772  2.8459  0.9378
  405MOL0     H54649   6.436   5.680   3.235  1.9096 -1.8615  0.5284
  405MOL0     H54650   6.487   5.534   3.146  2.0583 -0.0880 -0.7843
  405MOL0     H54651   6.572   5.661   2.956 -0.0895  2.9613 -1.0178
  405MOL0     H54652   6.666   5.676   3.098 -0.5924 -0.4682  0.1156
  405MOL0     H54653   6.455   5.871   3.009  0.2681 -1.3758 -1.4631
  405MOL0     H54654   6.558   5.905   3.147  1.3950  3.3636 -0.8727
  405MOL0     H54655   5.593   5.503   2.901  0.4808  0.8188  0.1959
  405MOL0     H54656   5.358   5.504   2.875  0.6684  1.7739  2.0103
  405MOL0     H54657   4.939   5.484   2.965 -1.4380 -0.5797 -1.3988
  405MOL0     H54658   4.717   5.539   3.034 -0.5984  0.0499  0.3850
  405MOL0     H54659   2.655   5.403   2.698 -0.1522  0.8822  0.9139
  405MOL0     H54660   2.419   5.420   2.630  0.9419  0.0614 -1.5746
  405MOL0     H54661   2.145   5.075   2.439  0.1629  1.0905 -1.0181
  405MOL0     H54662   1.952   5.053   2.272 -0.1780 -1.1407  0.5485
  405MOL0     H54663   1.754   4.913   2.232 -0.5695 -1.3662 -2.9134
  405MOL0     H54664   1.748   5.068   2.133  0.9430  2.0427  2.6694
  405MOL0     H54665   1.515   5.080   2.170  0.4558  0.1821  3.4621
  405MOL0     H54666   1.504   4.933   2.266 -0.2572  2.6735  0.8338
  405MOL0     H54667   1.598   4.806   2.086 -0.9261 -0.6644  1.2095
  405MOL0     H54668   1.596   4.950   1.980  1.1535 -0.1107  1.7971
  405MOL0     H54669   1.376   4.764   2.104 -1.1376 -2.8070 -3.7366
  405MOL0     H54670   1.343   4.941   2.066  1.1206 -0.0143  0.8272
  405MOL0     H54671   1.375   4.768   1.679 -0.8327  2.0119  0.0641
  405MOL0     H54672   1.686   5.176   2.578  0.3186 -0.2755  1.0905
  405MOL0     H54673   1.807   5.327   2.732  1.4245  0.1665 -2.4272
  405MOL0     H54674   1.762   5.165   2.803  0.4505 -0.9120 -0.0772
  405MOL0     H54675   1.917   5.229   2.838 -0.5707 -1.2160 -0.6062
  406MOL0     O54676   5.299   6.152   9.867 -0.1285  0.6223  0.5105
  406MOL0     C54677   5.240   6.080   9.784 -0.0542 -0.3545 -0.0693
  406MOL0     O54678   5.295   5.964   9.725  0.2101  0.0872 -0.1181
  406MOL0     C54679   5.434   5.961   9.719  0.4775  0.6715 -0.3612
  406MOL0     C54680   5.494   5.854   9.783  0.0723 -0.6826 -0.0498
  406MOL0     C54681   5.631   5.837   9.791  0.0840 -0.3588  0.5415
  406MOL0     C54682   5.708   5.939   9.732  0.2572 -0.1516 -0.3376
  406MOL0     O54683   5.841   5.933   9.745 -0.3804  0.6921 -0.6762
  406MOL0     C54684   5.903   5.844   9.649  0.2454  0.3504  0.2567
  406MOL0     C54685   6.049   5.835   9.683 -0.6113  0.3358 -0.8575
  406MOL0     C54686   6.105   5.735   9.588 -0.1326 -0.2752  0.0626
  406MOL0     C54687   6.255   5.757   9.585  0.6371  0.1591  0.0531
  406MOL0     C54688   6.329   5.631   9.528  0.8859 -1.0501 -0.3486
  406MOL0     C54689   6.469   5.683   9.493  0.3916  0.0375 -1.1805
  406MOL0     C54690   6.571   5.587   9.443 -0.3189  0.3113 -0.3324
  406MOL0     C54691   6.605   5.497   9.570 -0.1732  0.4704 -0.9373
  406MOL0     N54692   6.724   5.411   9.550  0.6688 -0.1661  0.7772
  406MOL0     C54693   6.743   5.335   9.443 -0.0064  0.2143 -0.1658
  406MOL0     C54694   6.869   5.290   9.445  0.2055 -0.5358 -0.0555
  406MOL0     C54695   6.948   5.214   9.342  0.2179 -0.1133  1.2848
  406MOL0     C54696   7.094   5.266   9.346  0.1828  0.5037 -0.4609
  406MOL0     C54697   7.178   5.202   9.232  0.2137 -0.5625 -0.1917
  406MOL0     C54698   7.313   5.257   9.213  0.0712 -0.4671  0.4098
  406MOL0     O54699   7.375   5.288   9.339  0.0377 -0.1516 -0.5229
  406MOL0     C54700   7.504   5.237   9.365  1.0067 -0.3709 -0.4268
  406MOL0     C54701   7.542   5.250   9.494  0.7676 -0.1095  0.1303
  406MOL0     C54702   7.677   5.206   9.527  0.5214 -1.0098 -0.0960
  406MOL0     C54703   7.766   5.163   9.434 -0.7677  0.0670  0.4893
  406MOL0     C54704   7.909   5.136   9.461  0.8580  1.1197 -0.6694
  406MOL0     O54705   7.990   5.118   9.349 -0.5618 -0.1880 -0.8571
  406MOL0     C54706   8.125   5.106   9.363 -0.2121  0.3672  0.4653
  406MOL0     C54707   8.181   5.016   9.448 -0.8270 -0.6360 -0.8321
  406MOL0     C54708   8.318   4.987   9.441 -0.3457 -0.0014  0.8093
  406MOL0     C54709   8.406   5.056   9.343  0.8370  0.0792 -0.4135
  406MOL0     O54710   8.540   5.028   9.356 -0.1864  0.0866  0.6682
  406MOL0     C54711   8.622   5.036   9.248  0.1884  0.2703 -0.2653
  406MOL0     C54712   8.616   4.913   9.159 -0.3548  0.0522  0.1070
  406MOL0     C54713   8.702   4.798   9.203 -0.1697  0.2966 -0.0639
  406MOL0     C54714   8.697   4.686   9.104 -0.3468 -0.5146 -0.5150
  406MOL0     C54715   8.757   4.564   9.183  0.2668 -0.5967  0.1601
  406MOL0     C54716   8.807   4.453   9.092 -0.4079  0.1065  0.4258
  406MOL0     C54717   8.692   4.402   8.995  0.4701  0.2497  0.3506
  406MOL0     C54718   8.723   4.266   8.930 -0.1761 -0.0328  0.2527
  406MOL0    Cl54719   8.820   4.303   8.788  0.0763 -0.2902 -0.2543
  406MOL0     C54720   8.343   5.145   9.251  0.6307 -0.5017  0.1278
  406MOL0     C54721   8.200   5.163   9.255  0.0802  0.4686 -0.0398
  406MOL0     O54722   7.943   5.139   9.583 -0.2667 -0.3963  0.4712
  406MOL0     C54723   7.723   5.174   9.295  0.0722  0.3542  0.0431
  406MOL0     C54724   7.591   5.197   9.268  0.3342 -0.3128 -0.2554
  406MOL0     N54725   6.925   5.349   9.553 -0.4914  0.4439  1.0987
  406MOL0     N54726   6.839   5.407   9.621  0.7330 -0.3427 -0.0864
  406MOL0     C54727   5.655   6.048   9.675 -0.0503 -0.1864 -0.0218
  406MOL0     C54728   5.517   6.056   9.658  0.3403 -0.6299  0.4170
  406MOL0     C54729   5.097   6.121   9.761  0.7824  1.0097  0.2338
  406MOL0     C54730   5.024   6.059   9.659 -0.6122 -0.2884 -0.9415
  406MOL0     C54731   4.888   6.064   9.634 -0.0347 -0.0917 -0.0836
  406MOL0     C54732   4.805   6.142   9.710 -0.1638 -0.5471  0.8472
  406MOL0     O54733   4.669   6.148   9.687 -0.2607  0.0383  0.2252
  406MOL0     C54734   4.612   6.101   9.571 -0.5335 -0.1713  0.0926
  406MOL0     C54735   4.470   6.168   9.555  0.0617 -0.8529  0.1376
  406MOL0     C54736   4.435   6.164   9.404 -0.1615  0.9205 -0.5936
  406MOL0     C54737   4.301   6.235   9.395  0.2599  0.3165  0.2339
  406MOL0     C54738   4.243   6.218   9.259 -0.2376 -0.5694 -0.4327
  406MOL0     C54739   4.183   6.201   9.159 -0.0523 -1.0351  0.6355
  406MOL0     C54740   4.870   6.224   9.807 -0.6816  0.3384 -1.0747
  406MOL0     C54741   5.007   6.204   9.844  1.0564  0.0447  0.5564
  406MOL0     C54742   5.053   6.274   9.970 -0.2095  0.1830 -0.0321
  406MOL0     H54743   5.436   5.770   9.819 -2.9355  0.7636 -1.1921
  406MOL0     H54744   5.680   5.748   9.829  0.6641 -0.4472 -0.3752
  406MOL0     H54745   5.859   5.744   9.652  0.0907  0.2630 -2.4266
  406MOL0     H54746   5.899   5.884   9.547  0.8115 -2.0415 -0.7709
  406MOL0     H54747   6.064   5.807   9.787  1.2542 -0.3407 -1.2637
  406MOL0     H54748   6.094   5.934   9.669  0.9123 -0.4225 -1.5544
  406MOL0     H54749   6.070   5.756   9.487  0.0351 -1.7473 -0.3142
  406MOL0     H54750   6.066   5.635   9.611 -3.0731  0.9994  1.2394
  406MOL0     H54751   6.281   5.849   9.532  0.0324 -0.5774 -1.5933
  406MOL0     H54752   6.289   5.768   9.689 -1.2971 -3.0139  1.1652
  406MOL0     H54753   6.329   5.549   9.600 -0.4312 -0.8145 -0.0537
  406MOL0     H54754   6.276   5.605   9.436  0.1785 -0.0021 -0.2566
  406MOL0     H54755   6.456   5.758   9.415  0.2634  2.3094  0.9176
  406MOL0     H54756   6.505   5.736   9.582  4.2469 -0.7282 -2.1198
  406MOL0     H54757   6.666   5.630   9.410 -0.4899  0.3610 -0.7566
  406MOL0     H54758   6.538   5.535   9.352 -1.7040  1.3113 -0.4362
  406MOL0     H54759   6.625   5.561   9.656  2.5923 -3.8415  2.0707
  406MOL0     H54760   6.514   5.439   9.592 -0.7020  1.1673 -1.2602
  406MOL0     H54761   6.672   5.307   9.365 -1.6029 -1.6560  1.8314
  406MOL0     H54762   6.950   5.109   9.373 -0.2774 -0.7440 -0.6981
  406MOL0     H54763   6.903   5.216   9.242  1.0013  0.4127  0.9330
  406MOL0     H54764   7.087   5.374   9.329  2.5318  0.7179 -0.3287
  406MOL0     H54765   7.136   5.246   9.445  3.0279 -1.2497 -1.8945
  406MOL0     H54766   7.125   5.223   9.139 -2.5124 -0.5714  1.2542
  406MOL0     H54767   7.175   5.094   9.250  0.1732 -0.9350 -2.2686
  406MOL0     H54768   7.309   5.352   9.159  0.7475 -1.4861 -1.5419
  406MOL0     H54769   7.369   5.189   9.149 -1.5971 -0.2078 -1.4033
  406MOL0     H54770   7.473   5.289   9.568  1.7388 -1.2072  1.7068
  406MOL0     H54771   7.697   5.201   9.633  1.8146 -3.3413 -0.3704
  406MOL0     H54772   8.118   4.961   9.516 -1.0073  0.1495 -0.3449
  406MOL0     H54773   8.371   4.929   9.516 -1.4464 -2.3180 -0.1181
  406MOL0     H54774   8.608   5.127   9.189 -1.3139  1.2043  1.4405
  406MOL0     H54775   8.726   5.045   9.281 -0.2727  0.0831  1.2891
  406MOL0     H54776   8.516   4.869   9.152  0.2023 -1.0005 -3.6595
  406MOL0     H54777   8.640   4.952   9.060  1.1395  0.0812  0.4568
  406MOL0     H54778   8.802   4.839   9.224  1.0010 -1.6944 -1.4514
  406MOL0     H54779   8.662   4.756   9.296 -1.7233  2.8687  0.5227
  406MOL0     H54780   8.758   4.710   9.016 -0.5370 -0.1710 -0.5533
  406MOL0     H54781   8.595   4.662   9.076 -0.9413 -0.0887  1.1368
  406MOL0     H54782   8.675   4.520   9.241  0.6380 -5.3555 -2.3937
  406MOL0     H54783   8.839   4.594   9.250 -0.4915  3.3594 -0.4341
  406MOL0     H54784   8.890   4.488   9.031 -1.4761 -0.0604 -1.1900
  406MOL0     H54785   8.844   4.370   9.152 -0.1082  0.0196  0.1225
  406MOL0     H54786   8.675   4.476   8.917  0.2340 -0.0324  0.1360
  406MOL0     H54787   8.602   4.377   9.052 -0.2539 -1.5733 -1.4711
  406MOL0     H54788   8.780   4.198   8.995  0.2626  1.4404  1.4570
  406MOL0     H54789   8.635   4.210   8.898  0.7528 -1.2162 -0.3618
  406MOL0     H54790   8.387   5.191   9.164  2.5915  0.3958  1.5332
  406MOL0     H54791   8.152   5.232   9.186 -2.3705 -0.4717  0.6182
  406MOL0     H54792   7.788   5.161   9.209  2.2608  0.1796  1.6260
  406MOL0     H54793   7.556   5.191   9.165 -1.4097 -0.5771  0.3250
  406MOL0     H54794   5.724   6.115   9.623  2.5560 -0.4404  2.8183
  406MOL0     H54795   5.469   6.138   9.606 -0.9257  0.4203  3.0728
  406MOL0     H54796   5.081   5.985   9.605 -0.2502 -0.5349 -0.2410
  406MOL0     H54797   4.851   5.992   9.561  1.6836  0.1436 -1.2518
  406MOL0     H54798   4.612   5.992   9.558  0.3197 -0.0667 -0.8449
  406MOL0     H54799   4.671   6.141   9.489  1.7222 -1.3803  1.0581
  406MOL0     H54800   4.451   6.271   9.584 -0.5375  0.5108 -4.3849
  406MOL0     H54801   4.403   6.113   9.622 -0.8358 -1.0507 -0.8932
  406MOL0     H54802   4.425   6.058   9.380  1.6576  0.1544  1.6713
  406MOL0     H54803   4.508   6.210   9.337 -0.8450  1.8792 -0.7097
  406MOL0     H54804   4.240   6.187   9.472  1.2263  0.1796  0.9296
  406MOL0     H54805   4.309   6.340   9.426  0.9918 -0.1005  1.5255
  406MOL0     H54806   4.121   6.194   9.071 -1.2345  1.2391  1.2027
  406MOL0     H54807   4.813   6.281   9.880 -2.0592 -4.5954  2.2135
  406MOL0     H54808   5.085   6.194  10.038 -1.9607  1.3193  2.2715
  406MOL0     H54809   5.135   6.342   9.947 -2.1951  1.9825 -2.2096
  406MOL0     H54810   4.966   6.323  10.014 -0.1727 -0.7510  1.1521
  407MOL0     O54811   4.905   2.891  10.143  0.1080  0.2617  0.2728
  407MOL0     C54812   4.825   2.808  10.183  0.5781 -0.4895 -0.2282
  407MOL0     O54813   4.749   2.733  10.104  0.5745  0.5130 -0.1956
  407MOL0     C54814   4.763   2.724   9.971 -0.5845 -0.2139  0.5540
  407MOL0     C54815   4.799   2.603   9.912 -0.8891 -0.2322  0.1638
  407MOL0     C54816   4.808   2.594   9.777  0.6355 -0.2500 -0.5097
  407MOL0     C54817   4.793   2.703   9.694 -0.0222 -1.2918  0.0738
  407MOL0     O54818   4.812   2.684   9.561 -0.0401 -0.2058  0.5599
  407MOL0     C54819   4.935   2.729   9.514 -0.6843 -0.2578 -0.1081
  407MOL0     C54820   5.009   2.614   9.456  0.2473  0.3393 -0.3365
  407MOL0     C54821   5.140   2.654   9.405  0.7461  0.4008 -0.7303
  407MOL0     C54822   5.155   2.765   9.294  1.5356 -0.3631  1.1873
  407MOL0     C54823   5.293   2.827   9.279 -0.3377 -0.5297 -0.4625
  407MOL0     C54824   5.390   2.725   9.217 -0.0838  0.0378  0.0752
  407MOL0     C54825   5.537   2.725   9.270  0.2083  0.9867 -0.1524
  407MOL0     C54826   5.618   2.854   9.267  0.2243 -0.1684 -0.2717
  407MOL0     N54827   5.619   2.906   9.132 -0.5356 -0.5388 -0.7568
  407MOL0     C54828   5.729   2.910   9.050  0.5649  0.4754 -0.6626
  407MOL0     C54829   5.697   2.994   8.946  0.6562  0.3358  0.2207
  407MOL0     C54830   5.800   3.033   8.844  0.2005  0.3949  0.1096
  407MOL0     C54831   5.905   3.123   8.907 -0.4142 -0.7428  0.1579
  407MOL0     C54832   6.017   3.149   8.802 -0.3990  0.2535  0.6628
  407MOL0     C54833   6.130   3.044   8.789  0.2482 -0.5024 -0.6251
  407MOL0     O54834   6.181   3.020   8.924 -0.2555  0.3043 -0.2347
  407MOL0     C54835   6.278   2.917   8.930  0.0198 -0.7298  0.3762
  407MOL0     C54836   6.307   2.836   8.821 -0.5068  0.0101 -0.1555
  407MOL0     C54837   6.393   2.726   8.846  0.5791  0.7250  0.2320
  407MOL0     C54838   6.422   2.688   8.975 -0.5502  0.5140  0.1483
  407MOL0     C54839   6.500   2.555   8.989  0.7112  0.2118 -0.7092
  407MOL0     O54840   6.523   2.473   8.882  0.2778 -0.4436 -0.2778
  407MOL0     C54841   6.600   2.363   8.879  0.1756 -0.0818  0.1234
  407MOL0     C54842   6.568   2.274   8.773 -0.1706 -0.4090  0.0085
  407MOL0     C54843   6.622   2.151   8.764 -0.9303  0.0361 -0.2655
  407MOL0     C54844   6.724   2.115   8.858 -0.1861 -0.2916  0.5745
  407MOL0     O54845   6.803   1.999   8.851  0.6467  0.4677  0.2995
  407MOL0     C54846   6.804   1.941   8.715 -0.2127 -0.6233 -0.4025
  407MOL0     C54847   6.934   1.869   8.708  0.4467 -0.1585 -0.5253
  407MOL0     C54848   6.944   1.794   8.573  0.0866  0.2806 -0.1426
  407MOL0     C54849   7.066   1.692   8.567 -0.6122  0.1694  0.0408
  407MOL0     C54850   7.037   1.592   8.452 -0.3230 -0.2000 -0.0323
  407MOL0     C54851   7.153   1.505   8.415  0.4885 -0.4819  0.3472
  407MOL0     C54852   7.120   1.393   8.322 -0.2079  0.2389  0.2330
  407MOL0     C54853   7.251   1.329   8.279 -0.4513 -0.0077  2.2539
  407MOL0    Cl54854   7.223   1.168   8.191 -0.3589 -0.4392 -0.5261
  407MOL0     C54855   6.755   2.196   8.970  0.3887 -0.1130 -0.1260
  407MOL0     C54856   6.689   2.318   8.981 -0.5615 -0.2269 -0.2434
  407MOL0     O54857   6.545   2.538   9.101  0.1559 -0.1366 -0.2847
  407MOL0     C54858   6.393   2.770   9.080 -0.1983  0.3612  0.0417
  407MOL0     C54859   6.317   2.892   9.058  0.3887  0.4641 -0.2124
  407MOL0     N54860   5.568   3.036   8.968 -0.7978 -0.2197  0.4912
  407MOL0     N54861   5.522   2.988   9.077  0.4237 -0.1827  0.2659
  407MOL0     C54862   4.756   2.829   9.752  1.0226  0.5239  0.2297
  407MOL0     C54863   4.734   2.835   9.893  0.5173  0.1890 -0.2177
  407MOL0     C54864   4.818   2.789  10.326  0.4672  0.7415  0.5849
  407MOL0     C54865   4.853   2.899  10.406  0.0897  0.3447  0.0484
  407MOL0     C54866   4.840   2.897  10.541  0.0013  0.1339 -0.2429
  407MOL0     C54867   4.793   2.787  10.608 -0.4009 -0.1000 -1.0692
  407MOL0     O54868   4.790   2.766  10.744  0.6257 -0.9813 -0.0771
  407MOL0     C54869   4.857   2.863  10.825 -1.0726 -0.3478  0.0016
  407MOL0     C54870   5.000   2.813  10.835  0.7643 -0.7026 -0.1176
  407MOL0     C54871   5.082   2.868  10.960  0.2417  0.4842 -0.9099
  407MOL0     C54872   5.228   2.885  10.920 -0.2755 -0.2153 -0.2455
  407MOL0     C54873   5.278   2.758  10.880 -0.0894  0.5554 -0.0101
  407MOL0     C54874   5.335   2.659  10.835 -0.6575 -0.3598 -0.0184
  407MOL0     C54875   4.757   2.672  10.533  0.9485 -0.9844  0.0995
  407MOL0     C54876   4.755   2.675  10.390 -0.5081 -0.0631 -0.2542
  407MOL0     C54877   4.690   2.561  10.321 -0.6239  0.1904 -0.4569
  407MOL0     H54878   4.821   2.512   9.967  1.3278 -0.2537 -0.6479
  407MOL0     H54879   4.832   2.499   9.730  0.1099  0.6666 -2.7552
  407MOL0     H54880   4.921   2.797   9.429  4.3981  1.2136 -0.1053
  407MOL0     H54881   4.999   2.773   9.591  2.0743 -2.8770 -0.6771
  407MOL0     H54882   4.955   2.568   9.372 -1.1148 -0.2447  0.8075
  407MOL0     H54883   5.022   2.540   9.536 -3.0580 -0.9728 -0.8188
  407MOL0     H54884   5.193   2.572   9.356 -2.5843 -2.4297 -0.0061
  407MOL0     H54885   5.191   2.690   9.494 -1.6801 -0.6841  1.1998
  407MOL0     H54886   5.118   2.738   9.194 -0.1585  0.8428  1.4373
  407MOL0     H54887   5.093   2.852   9.317  1.8742  0.3492 -0.4811
  407MOL0     H54888   5.293   2.923   9.227  1.9654  0.7783  1.7109
  407MOL0     H54889   5.322   2.844   9.384  0.4961  1.8845 -1.0180
  407MOL0     H54890   5.355   2.622   9.230  2.8858 -0.9116  1.2938
  407MOL0     H54891   5.397   2.743   9.109 -1.2768  1.4530  0.1900
  407MOL0     H54892   5.585   2.658   9.198 -0.8771  0.1082 -0.0955
  407MOL0     H54893   5.528   2.688   9.372  1.3122  0.7078 -0.1509
  407MOL0     H54894   5.570   2.926   9.334 -0.0523 -0.6488  0.0590
  407MOL0     H54895   5.721   2.848   9.303  0.5495  2.1250 -0.6539
  407MOL0     H54896   5.825   2.869   9.079 -0.5580 -0.0770  2.6804
  407MOL0     H54897   5.849   2.940   8.813 -0.3514  0.7496 -2.0091
  407MOL0     H54898   5.757   3.081   8.755 -2.4432 -0.6400  0.7503
  407MOL0     H54899   5.868   3.220   8.943 -0.3935 -0.8319  0.4180
  407MOL0     H54900   5.943   3.064   8.990  1.2098 -0.2526 -0.1908
  407MOL0     H54901   6.088   3.219   8.846  2.0820 -1.7414  0.0552
  407MOL0     H54902   5.975   3.191   8.710 -2.7369  0.5395  1.7847
  407MOL0     H54903   6.206   3.089   8.724 -0.7265  2.5061  0.1401
  407MOL0     H54904   6.089   2.953   8.745 -0.7419 -0.5987  0.4542
  407MOL0     H54905   6.269   2.844   8.720  1.6274  0.6746 -0.9759
  407MOL0     H54906   6.435   2.658   8.772  0.8988  1.0863  0.0750
  407MOL0     H54907   6.511   2.318   8.692  1.2625  1.0355 -0.2664
  407MOL0     H54908   6.609   2.098   8.670  0.5531 -0.2935 -0.3031
  407MOL0     H54909   6.720   1.871   8.714 -1.0025  0.2661  0.8042
  407MOL0     H54910   6.794   2.010   8.631  5.5042  0.4802 -0.6053
  407MOL0     H54911   7.013   1.938   8.740 -0.5322  0.9170 -0.3392
  407MOL0     H54912   6.942   1.795   8.788  1.7899  0.5983  0.0704
  407MOL0     H54913   6.848   1.744   8.559 -1.8048  3.9014 -1.5511
  407MOL0     H54914   6.955   1.867   8.491  1.3792  1.7712  1.2794
  407MOL0     H54915   7.062   1.642   8.664  0.4222  2.2807  1.2449
  407MOL0     H54916   7.165   1.735   8.548  0.4406 -1.4330  1.5361
  407MOL0     H54917   6.999   1.637   8.360  0.8658 -0.1691 -0.5242
  407MOL0     H54918   6.950   1.537   8.488 -1.5705  0.7219 -1.5356
  407MOL0     H54919   7.231   1.570   8.375  0.3245 -1.1359 -1.0989
  407MOL0     H54920   7.203   1.448   8.495  0.2895 -1.9681 -0.5485
  407MOL0     H54921   7.061   1.424   8.235  1.3112 -0.5131 -1.1326
  407MOL0     H54922   7.060   1.316   8.371  1.5301 -1.2068  0.2232
  407MOL0     H54923   7.313   1.399   8.222 -1.0784 -1.0380  0.2253
  407MOL0     H54924   7.316   1.309   8.364  0.8880 -0.1168  1.2353
  407MOL0     H54925   6.835   2.160   9.035 -0.6743  0.6128  1.6547
  407MOL0     H54926   6.702   2.386   9.065  0.3356 -1.3723  0.5829
  407MOL0     H54927   6.432   2.732   9.173  1.6004  1.0454 -0.3925
  407MOL0     H54928   6.295   2.956   9.143 -1.0719 -0.6492  0.2917
  407MOL0     H54929   4.737   2.925   9.703  0.3891  0.3439  0.1100
  407MOL0     H54930   4.707   2.935   9.922 -2.9461 -0.0107 -2.1534
  407MOL0     H54931   4.896   2.982  10.351  1.7979 -0.9471 -0.6560
  407MOL0     H54932   4.865   2.989  10.591  0.6265  0.8706 -1.8270
  407MOL0     H54933   4.805   2.871  10.921  0.1075 -3.3893  1.0187
  407MOL0     H54934   4.860   2.965  10.787  1.0098  0.0767  1.1668
  407MOL0     H54935   5.047   2.845  10.741 -1.0170  0.1261 -0.7639
  407MOL0     H54936   4.992   2.704  10.844  0.5636 -0.6681  0.1346
  407MOL0     H54937   5.078   2.799  11.044 -0.6109  0.6708 -0.7890
  407MOL0     H54938   5.051   2.968  10.991 -0.0103  0.1176  0.0513
  407MOL0     H54939   5.229   2.953  10.835 -1.1705  1.0053  0.6797
  407MOL0     H54940   5.285   2.927  11.004 -2.3117  3.2117 -0.3738
  407MOL0     H54941   5.394   2.576  10.803  1.0799  0.1085  1.7922
  407MOL0     H54942   4.702   2.589  10.577  0.3739 -1.0668 -0.7585
  407MOL0     H54943   4.673   2.482  10.395 -1.7135 -1.9277 -2.8049
  407MOL0     H54944   4.593   2.589  10.278  0.3458  1.5377 -1.8693
  407MOL0     H54945   4.758   2.514  10.249 -2.1079 -1.7545 -0.6541
  408MOL0     O54946   2.886   1.430  11.210 -0.1314  1.0000  0.1583
  408MOL0     C54947   2.859   1.545  11.168 -0.2383 -0.0671  0.0638
  408MOL0     O54948   2.958   1.635  11.129 -0.3104 -0.0200  0.2870
  408MOL0     C54949   3.083   1.586  11.141 -0.3603  0.4377 -0.2765
  408MOL0     C54950   3.160   1.582  11.272 -0.6608  0.2029  1.0203
  408MOL0     C54951   3.290   1.542  11.269 -1.2492  0.1774 -0.1720
  408MOL0     C54952   3.355   1.516  11.145  0.4114  0.2849  0.6011
  408MOL0     O54953   3.493   1.479  11.130 -0.1005 -0.2493  0.0613
  408MOL0     C54954   3.572   1.460  11.250 -0.3010  0.5035 -0.8333
  408MOL0     C54955   3.701   1.386  11.209  0.3416  1.0884 -0.3211
  408MOL0     C54956   3.802   1.399  11.327  0.4584  0.4986 -0.2725
  408MOL0     C54957   3.928   1.307  11.327 -0.1814 -1.0059 -0.3500
  408MOL0     C54958   4.031   1.332  11.436 -0.2652 -0.0127  0.2417
  408MOL0     C54959   4.149   1.235  11.433 -0.7069 -0.4873  0.3148
  408MOL0     C54960   4.249   1.276  11.535 -0.1622 -0.2662  0.5466
  408MOL0     C54961   4.367   1.169  11.538 -0.3239 -0.0332 -0.0545
  408MOL0     N54962   4.467   1.214  11.639  0.4371  0.2848  0.1026
  408MOL0     C54963   4.606   1.214  11.611 -0.3182  0.2965  0.0155
  408MOL0     C54964   4.665   1.252  11.726 -0.4322 -0.3034 -0.4531
  408MOL0     C54965   4.805   1.265  11.768  0.1488  0.1962  0.2536
  408MOL0     C54966   4.912   1.202  11.682 -0.0481  0.7632 -0.3349
  408MOL0     C54967   5.047   1.200  11.772 -0.0220  0.4219  0.0012
  408MOL0     C54968   5.173   1.141  11.698 -0.3153  0.4154  0.0960
  408MOL0     O54969   5.218   1.020  11.766  0.0716 -1.0749 -0.3183
  408MOL0     C54970   5.346   0.970  11.741 -1.1863  0.8574  1.0404
  408MOL0     C54971   5.454   1.042  11.683 -0.1143  0.1367 -0.2212
  408MOL0     C54972   5.580   0.984  11.665  0.5169  0.0389  0.7988
  408MOL0     C54973   5.622   0.867  11.724 -0.1135  0.0807 -0.4679
  408MOL0     C54974   5.758   0.810  11.696  1.2184 -0.2364  0.5229
  408MOL0     O54975   5.840   0.902  11.639  0.0225  0.6120  0.5289
  408MOL0     C54976   5.970   0.869  11.613  0.0351  0.4519 -0.3592
  408MOL0     C54977   6.070   0.908  11.703 -0.0991 -0.6612 -0.7683
  408MOL0     C54978   6.200   0.872  11.691 -0.4226 -0.5191 -0.1562
  408MOL0     C54979   6.235   0.796  11.576 -0.1616  0.4624  0.1867
  408MOL0     O54980   6.360   0.750  11.541 -0.2456 -0.0021  0.1983
  408MOL0     C54981   6.470   0.827  11.605  0.8483  0.1362 -0.5450
  408MOL0     C54982   6.604   0.772  11.562 -0.6355  0.4134 -0.6409
  408MOL0     C54983   6.703   0.888  11.549  0.1710 -0.0781  0.8666
  408MOL0     C54984   6.842   0.836  11.515 -0.6702 -0.5549 -0.3790
  408MOL0     C54985   6.940   0.955  11.517 -0.1638  0.2767 -0.1209
  408MOL0     C54986   7.080   0.901  11.511  0.6473 -0.0159 -0.1830
  408MOL0     C54987   7.195   1.007  11.509  0.6442  0.4588  0.5453
  408MOL0     C54988   7.226   1.037  11.372 -0.0179  0.2156  0.4024
  408MOL0    Cl54989   7.312   0.899  11.304 -0.2883 -0.0291  0.1092
  408MOL0     C54990   6.131   0.761  11.487 -0.6625  0.2923  0.0252
  408MOL0     C54991   6.001   0.794  11.504 -1.0984 -0.3391 -0.0807
  408MOL0     O54992   5.793   0.699  11.738  0.4067  0.1987  0.2481
  408MOL0     C54993   5.519   0.797  11.785  0.1329 -0.6204  0.0264
  408MOL0     C54994   5.385   0.852  11.798 -0.8726 -0.9186 -0.2758
  408MOL0     N54995   4.568   1.274  11.814  1.6284  0.3511 -0.1871
  408MOL0     N54996   4.449   1.248  11.770 -0.0223 -0.6578  0.5213
  408MOL0     C54997   3.286   1.529  11.024  0.1250 -0.4843  0.5675
  408MOL0     C54998   3.148   1.561  11.019  0.4198  0.9450 -0.5354
  408MOL0     C54999   2.720   1.585  11.142 -0.3596 -0.9975 -0.5762
  408MOL0     C55000   2.671   1.716  11.178  0.3022  0.1590 -1.5593
  408MOL0     C55001   2.534   1.743  11.190  0.2584  0.4722  0.6412
  408MOL0     C55002   2.437   1.643  11.157  0.2121  0.2137 -0.5181
  408MOL0     O55003   2.304   1.669  11.165 -0.3008  0.7908 -0.2910
  408MOL0     C55004   2.245   1.674  11.039  0.8414 -0.0585 -0.1803
  408MOL0     C55005   2.116   1.754  11.047  0.3082 -0.5038 -0.9561
  408MOL0     C55006   2.020   1.699  11.155  0.0020 -0.7721 -0.2124
  408MOL0     C55007   1.874   1.751  11.144 -0.0887 -1.3626  1.1385
  408MOL0     C55008   1.788   1.674  11.226  0.6832 -0.0928 -0.0661
  408MOL0     C55009   1.717   1.605  11.292 -0.4037  0.0368  0.4446
  408MOL0     C55010   2.482   1.527  11.110 -0.3031 -0.2430  0.3888
  408MOL0     C55011   2.620   1.491  11.107  0.1942 -1.2212  0.7193
  408MOL0     C55012   2.645   1.346  11.078 -0.0941 -0.7340  0.3509
  408MOL0     H55013   3.117   1.595  11.371 -0.0894 -0.9303  1.4421
  408MOL0     H55014   3.347   1.532  11.361  0.5665  0.9444 -1.1747
  408MOL0     H55015   3.597   1.554  11.300  1.6806 -0.8632  0.8831
  408MOL0     H55016   3.525   1.397  11.326  0.5716 -1.4855 -1.8880
  408MOL0     H55017   3.738   1.442  11.123 -0.2431  1.8041 -0.1204
  408MOL0     H55018   3.681   1.286  11.171  0.7796  1.0986 -0.5810
  408MOL0     H55019   3.745   1.387  11.419 -0.5452 -0.4470 -0.9925
  408MOL0     H55020   3.834   1.503  11.318  1.1938  0.4082  1.1005
  408MOL0     H55021   3.898   1.202  11.323  0.7439 -1.2497 -1.8083
  408MOL0     H55022   3.983   1.333  11.236 -1.2809 -2.3823 -1.4506
  408MOL0     H55023   4.061   1.435  11.419  3.3413 -0.4372  2.9706
  408MOL0     H55024   3.987   1.323  11.536 -1.5686  0.7682 -0.2305
  408MOL0     H55025   4.119   1.132  11.452  0.7338 -0.3822  3.9691
  408MOL0     H55026   4.193   1.238  11.333 -1.6550 -2.9314 -0.2411
  408MOL0     H55027   4.216   1.286  11.639 -0.1777  1.0045  0.4440
  408MOL0     H55028   4.289   1.372  11.502 -0.1535 -0.8647 -1.2745
  408MOL0     H55029   4.336   1.069  11.571 -1.0714  0.8542  2.1191
  408MOL0     H55030   4.411   1.172  11.438 -0.9653  0.7177 -0.3180
  408MOL0     H55031   4.658   1.177  11.523  3.0466  1.2847  1.4572
  408MOL0     H55032   4.823   1.373  11.775 -2.1565  0.6763 -0.5073
  408MOL0     H55033   4.812   1.226  11.870  1.9667  3.2333  1.4504
  408MOL0     H55034   4.889   1.095  11.673  2.3099 -0.1068  2.2833
  408MOL0     H55035   4.911   1.256  11.588 -2.8321 -1.1822 -1.5705
  408MOL0     H55036   5.023   1.156  11.869 -2.4882  2.4221  0.4024
  408MOL0     H55037   5.078   1.301  11.799  2.8203 -0.6946  1.3234
  408MOL0     H55038   5.246   1.221  11.711  0.3440 -0.4597  2.0721
  408MOL0     H55039   5.158   1.136  11.589  0.1976 -0.7284  0.0586
  408MOL0     H55040   5.445   1.143  11.646  2.2167 -0.5307 -2.9370
  408MOL0     H55041   5.649   1.040  11.601  2.2905 -0.9662  1.7464
  408MOL0     H55042   6.044   0.956  11.797  1.6321  1.3128 -1.2118
  408MOL0     H55043   6.262   0.894  11.777 -2.0683  0.5040  0.8270
  408MOL0     H55044   6.472   0.932  11.572  3.2071  0.6789  1.0599
  408MOL0     H55045   6.464   0.814  11.713  0.9186  0.0960 -0.5462
  408MOL0     H55046   6.645   0.692  11.625 -1.8280 -0.0093 -0.3782
  408MOL0     H55047   6.596   0.719  11.467 -2.9224 -2.3029  0.9282
  408MOL0     H55048   6.677   0.965  11.475 -1.6747 -0.3279  1.2140
  408MOL0     H55049   6.714   0.939  11.645 -0.0050  1.9108 -0.1123
  408MOL0     H55050   6.834   0.783  11.420 -2.0454 -1.8343  0.4047
  408MOL0     H55051   6.873   0.766  11.593  2.3325 -0.4523 -1.3720
  408MOL0     H55052   6.916   1.011  11.608 -1.0999 -0.2076 -0.0635
  408MOL0     H55053   6.917   1.021  11.433 -2.3913  0.1176  0.3112
  408MOL0     H55054   7.093   0.865  11.614  1.4124  0.8199  0.0314
  408MOL0     H55055   7.081   0.824  11.434 -0.9348  2.5861 -3.0479
  408MOL0     H55056   7.276   0.958  11.564  1.6405  0.2936 -1.0193
  408MOL0     H55057   7.177   1.097  11.569  0.3167  2.1037 -1.8864
  408MOL0     H55058   7.135   1.056  11.314 -0.3186  1.1465  1.1441
  408MOL0     H55059   7.291   1.125  11.378 -1.1372  0.9688  4.6302
  408MOL0     H55060   6.151   0.718  11.390  1.7574 -0.9939  0.9949
  408MOL0     H55061   5.932   0.779  11.421 -0.1678 -0.6230 -0.8274
  408MOL0     H55062   5.550   0.700  11.823  2.5227 -0.0408 -0.2747
  408MOL0     H55063   5.301   0.803  11.846 -1.1400 -0.1116  0.0952
  408MOL0     H55064   3.343   1.518  10.933 -1.3341  2.8641 -0.9185
  408MOL0     H55065   3.103   1.580  10.923 -0.6725 -1.1381 -0.4844
  408MOL0     H55066   2.744   1.793  11.202 -2.1149  1.9087  0.7319
  408MOL0     H55067   2.488   1.834  11.226 -1.5219 -0.0401 -0.1894
  408MOL0     H55068   2.221   1.574  11.002 -0.3110  0.8849 -2.1306
  408MOL0     H55069   2.320   1.718  10.972  2.7762  1.7388  2.9030
  408MOL0     H55070   2.063   1.731  10.954  1.6904 -2.5524 -1.3194
  408MOL0     H55071   2.133   1.862  11.056 -1.6742 -0.2565  0.7676
  408MOL0     H55072   2.056   1.739  11.250  2.3323 -2.8215 -0.1335
  408MOL0     H55073   2.023   1.590  11.161 -2.3902 -0.8560  0.2975
  408MOL0     H55074   1.864   1.859  11.158 -4.6496 -1.1271 -1.8644
  408MOL0     H55075   1.856   1.736  11.037  0.1028 -1.3944  1.1099
  408MOL0     H55076   1.652   1.527  11.327  2.6844 -2.3372  1.4368
  408MOL0     H55077   2.413   1.446  11.092 -0.7741  0.3545 -0.5511
  408MOL0     H55078   2.571   1.302  11.010 -1.4628  1.9006  0.0323
  408MOL0     H55079   2.743   1.342  11.030  0.0242  1.4815  0.3242
  408MOL0     H55080   2.649   1.283  11.168  2.6840 -0.8353  0.2417
  409MOL0     O55081   5.906   4.506   0.423  0.0388  0.3240  0.0780
  409MOL0     C55082   5.916   4.452   0.531 -0.1003  0.2876  0.0403
  409MOL0     O55083   6.031   4.448   0.605 -0.0678 -0.0597  0.3388
  409MOL0     C55084   6.153   4.496   0.566 -0.5015  0.8358  0.0293
  409MOL0     C55085   6.266   4.418   0.598  0.2021 -0.9664  0.3039
  409MOL0     C55086   6.397   4.466   0.574  0.2373 -0.1381  0.9877
  409MOL0     C55087   6.417   4.590   0.499 -0.1124 -0.1653  0.3086
  409MOL0     O55088   6.547   4.623   0.462 -0.3249 -0.2382 -0.3189
  409MOL0     C55089   6.567   4.763   0.437 -0.3414  0.1941  0.0763
  409MOL0     C55090   6.707   4.810   0.444  0.0033  0.3582  0.6873
  409MOL0     C55091   6.789   4.742   0.551  0.4709 -0.2146  0.5935
  409MOL0     C55092   6.939   4.783   0.567  0.2780  0.5198 -0.1168
  409MOL0     C55093   7.021   4.703   0.676 -1.3480 -0.5856  0.2941
  409MOL0     C55094   7.147   4.785   0.698 -0.2025 -0.1592  0.2837
  409MOL0     C55095   7.265   4.692   0.745  0.5168 -0.1971  0.1926
  409MOL0     C55096   7.398   4.764   0.752  0.4918  0.1923 -0.0205
  409MOL0     N55097   7.505   4.664   0.799 -0.3599 -1.1727 -0.4801
  409MOL0     C55098   7.630   4.649   0.748 -0.2361  0.2751 -0.0017
  409MOL0     C55099   7.674   4.552   0.834  0.2064  0.1584 -0.1745
  409MOL0     C55100   7.810   4.498   0.815  0.4373 -0.1776  0.1079
  409MOL0     C55101   7.913   4.552   0.920  1.2051 -0.3126  0.1400
  409MOL0     C55102   7.931   4.698   0.929  0.9635 -0.0262 -0.4774
  409MOL0     C55103   7.992   4.742   0.801  0.0045 -0.5496 -0.2481
  409MOL0     O55104   8.114   4.691   0.771 -0.0655  0.4058  0.0219
  409MOL0     C55105   8.226   4.737   0.837 -0.7056 -0.0692  0.0252
  409MOL0     C55106   8.334   4.653   0.822  0.0670 -0.3121  0.2312
  409MOL0     C55107   8.453   4.695   0.881 -0.2445 -0.1475 -0.0734
  409MOL0     C55108   8.477   4.816   0.939 -0.5500  0.2257  0.3251
  409MOL0     C55109   8.620   4.858   0.972 -0.5641 -0.8612 -0.1776
  409MOL0     O55110   8.714   4.765   0.985  0.4763  0.1585 -0.1315
  409MOL0     C55111   8.840   4.794   1.024  0.0043  0.6480  0.0380
  409MOL0     C55112   8.923   4.682   1.042 -0.0347 -0.4646  0.6925
  409MOL0     C55113   9.054   4.685   1.094  0.0551  0.2121 -0.1659
  409MOL0     C55114   9.117   4.812   1.110 -0.2936  0.5710 -1.1928
  409MOL0     O55115   9.249   4.823   1.141  0.2955  0.1584 -0.2798
  409MOL0     C55116   9.293   4.759   1.260 -0.2054  0.0738  0.2124
  409MOL0     C55117   9.372   4.636   1.214  0.0708 -0.7778  0.4408
  409MOL0     C55118   9.385   4.532   1.320 -0.4942 -0.3048  0.7552
  409MOL0     C55119   9.507   4.448   1.298 -0.1204  0.0473 -0.0141
  409MOL0     C55120   9.547   4.352   1.407  0.0750  0.0141  0.7730
  409MOL0     C55121   9.681   4.277   1.368  0.5163 -0.0384  0.6200
  409MOL0     C55122   9.725   4.183   1.485  0.2620 -0.1160 -0.2207
  409MOL0     C55123   9.863   4.114   1.459 -0.1823  1.1023  0.3824
  409MOL0    Cl55124   9.852   4.006   1.307  0.2835 -0.0508 -0.0195
  409MOL0     C55125   9.036   4.924   1.086 -0.4070  0.5054 -0.6739
  409MOL0     C55126   8.904   4.911   1.056  1.0809  0.3915 -0.2556
  409MOL0     O55127   8.627   4.978   1.001  0.0270  0.1681  0.0474
  409MOL0     C55128   8.363   4.900   0.957  0.0346 -0.0047  0.5109
  409MOL0     C55129   8.237   4.859   0.916  0.2353 -0.2272 -0.0534
  409MOL0     N55130   7.584   4.530   0.932 -0.1218  0.8228 -0.3850
  409MOL0     N55131   7.491   4.601   0.914  1.1589  0.1656 -0.0158
  409MOL0     C55132   6.301   4.666   0.453 -0.0253  0.2770  0.1865
  409MOL0     C55133   6.173   4.619   0.493 -0.4818  0.5181  0.4868
  409MOL0     C55134   5.797   4.387   0.582  0.8276 -0.1559  1.0656
  409MOL0     C55135   5.804   4.288   0.683 -0.1084  0.8116  0.0426
  409MOL0     C55136   5.690   4.226   0.737  0.5013 -0.3779 -0.8305
  409MOL0     C55137   5.555   4.255   0.694 -0.1867 -0.7882 -0.2577
  409MOL0     O55138   5.439   4.192   0.732  0.0234  0.2020 -0.0109
  409MOL0     C55139   5.437   4.064   0.797 -0.7836  0.1215  0.6997
  409MOL0     C55140   5.325   4.050   0.902  1.1119 -0.5117  0.1230
  409MOL0     C55141   5.178   4.066   0.846 -0.2970  0.0853 -0.1695
  409MOL0     C55142   5.071   4.027   0.945 -0.1667 -0.1982  0.1387
  409MOL0     C55143   4.935   4.035   0.896 -0.1579 -0.2102 -0.0293
  409MOL0     C55144   4.821   4.037   0.854 -0.0367 -0.2184 -0.6561
  409MOL0     C55145   5.545   4.355   0.588 -0.9586 -0.1621  0.0862
  409MOL0     C55146   5.659   4.417   0.532 -0.2958  0.1298 -0.6371
  409MOL0     C55147   5.622   4.511   0.419 -0.5519  0.1086 -0.1177
  409MOL0     H55148   6.258   4.320   0.644 -2.1340 -1.0771 -0.2165
  409MOL0     H55149   6.486   4.410   0.600  0.4794 -0.8247 -1.1487
  409MOL0     H55150   6.511   4.793   0.347 -2.0558 -0.6696  0.8107
  409MOL0     H55151   6.514   4.815   0.517 -0.7793  0.2800 -0.2656
  409MOL0     H55152   6.693   4.917   0.462 -0.3988  0.2541  1.0052
  409MOL0     H55153   6.756   4.806   0.346  0.6263 -0.5120  1.0192
  409MOL0     H55154   6.795   4.635   0.530  2.2724 -0.4268  1.9457
  409MOL0     H55155   6.735   4.757   0.645 -3.7930  1.1101 -1.7944
  409MOL0     H55156   6.997   4.784   0.474 -0.0114  0.6846 -0.2957
  409MOL0     H55157   6.937   4.885   0.607 -0.5474  1.0795 -1.4904
  409MOL0     H55158   6.959   4.695   0.766 -5.7726  1.8285 -2.1789
  409MOL0     H55159   7.037   4.599   0.647  0.8602 -1.3886  3.7647
  409MOL0     H55160   7.184   4.837   0.609 -1.6809  1.1660  0.4029
  409MOL0     H55161   7.128   4.849   0.785 -2.2013 -2.2743  1.5307
  409MOL0     H55162   7.273   4.611   0.672  0.4827  1.7695 -2.1194
  409MOL0     H55163   7.226   4.645   0.836  0.3121 -0.4036 -0.0003
  409MOL0     H55164   7.416   4.796   0.649  1.5337 -0.6648 -0.1218
  409MOL0     H55165   7.402   4.850   0.820  0.4174  0.2341 -0.0697
  409MOL0     H55166   7.679   4.674   0.655 -1.1006 -0.0541 -0.5660
  409MOL0     H55167   7.801   4.391   0.836  0.7986 -0.8845 -2.8692
  409MOL0     H55168   7.840   4.504   0.710 -0.4464 -1.0888 -0.2230
  409MOL0     H55169   7.870   4.519   1.016 -1.0225  0.0681 -0.6704
  409MOL0     H55170   8.006   4.503   0.891  0.9356 -0.4936 -0.4289
  409MOL0     H55171   7.998   4.724   1.011  1.7886  1.0954 -1.4799
  409MOL0     H55172   7.834   4.747   0.942  1.0144  0.2634 -1.1178
  409MOL0     H55173   8.000   4.851   0.800  1.5513 -0.6462 -1.3485
  409MOL0     H55174   7.918   4.722   0.723 -1.9620 -0.5196  1.5154
  409MOL0     H55175   8.334   4.557   0.772 -0.3223 -0.7676  1.0902
  409MOL0     H55176   8.548   4.643   0.872  0.9140  1.7690  0.4209
  409MOL0     H55177   8.887   4.582   1.019  2.3688 -1.4607  0.9614
  409MOL0     H55178   9.099   4.587   1.113  0.5933  0.7296  1.4170
  409MOL0     H55179   9.362   4.823   1.316 -1.2815  1.3067  0.1827
  409MOL0     H55180   9.215   4.729   1.330  0.2922 -1.7693  0.0224
  409MOL0     H55181   9.323   4.596   1.125 -0.2348  0.5999 -0.0257
  409MOL0     H55182   9.469   4.676   1.183 -1.1949  1.8024 -0.4757
  409MOL0     H55183   9.385   4.568   1.423 -0.1257 -0.2674  0.7432
  409MOL0     H55184   9.294   4.473   1.304  0.9167 -2.1985 -0.8304
  409MOL0     H55185   9.588   4.516   1.270  0.4613 -0.8038 -0.4342
  409MOL0     H55186   9.504   4.386   1.208 -0.5603  1.7252 -1.2074
  409MOL0     H55187   9.483   4.267   1.430  1.6816 -1.5812 -0.3833
  409MOL0     H55188   9.566   4.415   1.495 -0.7672  0.8358  0.3778
  409MOL0     H55189   9.663   4.213   1.281 -1.9864 -1.4462  2.0523
  409MOL0     H55190   9.767   4.344   1.356  0.3686  0.2027  0.8757
  409MOL0     H55191   9.659   4.097   1.501  3.5099 -2.7891 -0.2297
  409MOL0     H55192   9.725   4.237   1.580 -0.6714  0.7186 -0.6748
  409MOL0     H55193   9.932   4.197   1.439 -0.9520  1.2776 -1.8693
  409MOL0     H55194   9.898   4.067   1.551  1.2500  2.2280  0.4711
  409MOL0     H55195   9.083   5.022   1.095 -0.6300  0.6278 -0.8592
  409MOL0     H55196   8.850   5.005   1.052  0.7416  0.6246  4.3295
  409MOL0     H55197   8.370   4.999   1.002 -2.4502  1.0348 -1.1339
  409MOL0     H55198   8.158   4.932   0.926  3.6633  3.6927  0.9554
  409MOL0     H55199   6.310   4.748   0.382 -2.8596 -0.6011 -1.3454
  409MOL0     H55200   6.086   4.680   0.472 -1.6885 -0.9356  1.0564
  409MOL0     H55201   5.901   4.264   0.724 -0.9758  0.2583  1.9046
  409MOL0     H55202   5.720   4.179   0.830 -0.5945 -0.4207 -0.4873
  409MOL0     H55203   5.538   4.046   0.833  0.3283  0.8234 -1.8298
  409MOL0     H55204   5.417   3.982   0.726 -1.0765 -2.2112  3.2941
  409MOL0     H55205   5.350   4.123   0.979  1.3026 -0.6633  0.2047
  409MOL0     H55206   5.342   3.955   0.953 -3.2579 -1.3027  0.4054
  409MOL0     H55207   5.171   3.999   0.759 -3.4374 -0.7215  0.5681
  409MOL0     H55208   5.169   4.170   0.815  2.1949  0.2551 -0.5139
  409MOL0     H55209   5.074   3.924   0.982 -1.2430  0.2374  1.5173
  409MOL0     H55210   5.083   4.094   1.031  2.2907  2.3184 -1.9631
  409MOL0     H55211   4.722   4.067   0.827 -0.9657 -0.8041  1.7930
  409MOL0     H55212   5.446   4.381   0.551 -0.5559 -0.5268 -1.3218
  409MOL0     H55213   5.521   4.489   0.384 -0.3725  0.1678 -0.6739
  409MOL0     H55214   5.621   4.613   0.458 -1.7972 -0.2677  0.9091
  409MOL0     H55215   5.681   4.490   0.329  1.1409 -2.4585  1.4404
  410MOL0     O55216  11.142   6.498   8.256  0.2624  0.7170 -0.6432
  410MOL0     C55217  11.153   6.545   8.143 -0.3211 -0.4339  0.0720
  410MOL0     O55218  11.269   6.557   8.084 -0.5992  0.0836 -1.0931
  410MOL0     C55219  11.387   6.528   8.155  0.1666 -0.3328  0.0947
  410MOL0     C55220  11.482   6.455   8.084 -0.2479  0.3986 -0.0905
  410MOL0     C55221  11.603   6.431   8.138  0.2155 -0.1615 -0.4244
  410MOL0     C55222  11.637   6.482   8.266  0.8791  0.6549  0.9027
  410MOL0     O55223  11.754   6.458   8.330 -0.1015 -0.5231 -0.5878
  410MOL0     C55224  11.861   6.372   8.281  0.8467  0.4935  0.8371
  410MOL0     C55225  11.973   6.356   8.386 -0.8891 -0.4455 -0.5000
  410MOL0     C55226  12.072   6.472   8.364 -0.2460  0.2308 -0.3456
  410MOL0     C55227  12.193   6.445   8.453  0.0490 -0.7553  0.2472
  410MOL0     C55228  12.300   6.549   8.430 -0.1487 -0.7542 -0.9246
  410MOL0     C55229  12.436   6.536   8.498  0.1986  0.0489  0.1404
  410MOL0     C55230  12.534   6.657   8.467  0.3175 -0.4967  0.0188
  410MOL0     C55231  12.578   6.660   8.320  1.2663 -0.5000 -0.4042
  410MOL0     N55232  12.673   6.774   8.306 -0.5479  0.3479  0.2827
  410MOL0     C55233  12.808   6.742   8.294 -0.7921 -0.6519 -0.8457
  410MOL0     C55234  12.857   6.865   8.281 -1.3825  0.0837 -0.1563
  410MOL0     C55235  12.998   6.903   8.258  0.0224 -0.6300  0.0784
  410MOL0     C55236  13.078   6.800   8.165 -0.0488  0.6576 -0.1129
  410MOL0     C55237  13.022   6.811   8.027  0.5785 -0.5843  0.2028
  410MOL0     C55238  13.052   6.702   7.935 -0.2229  0.5905 -0.7379
  410MOL0     O55239  13.024   6.569   7.992  0.4595  0.4536 -0.8634
  410MOL0     C55240  12.897   6.520   8.008  0.5890  0.0149  0.5369
  410MOL0     C55241  12.801   6.555   7.924  0.6347  0.1381  0.5060
  410MOL0     C55242  12.673   6.500   7.929 -0.4718 -0.5445  0.3022
  410MOL0     C55243  12.634   6.423   8.037 -0.0678  0.2866  0.8633
  410MOL0     C55244  12.486   6.392   8.059  0.2375 -0.8989 -0.4822
  410MOL0     O55245  12.403   6.407   7.950 -0.2671 -0.0081  0.1249
  410MOL0     C55246  12.277   6.368   7.955  0.4499 -0.0554  1.3343
  410MOL0     C55247  12.252   6.234   7.982  0.7051 -0.8139 -0.2465
  410MOL0     C55248  12.121   6.193   8.000  0.4152  0.5269  0.3750
  410MOL0     C55249  12.011   6.279   7.980  0.0371 -0.8466  0.6126
  410MOL0     O55250  11.875   6.234   7.977  0.1522  1.0499  0.1320
  410MOL0     C55251  11.848   6.101   8.019 -0.0434 -0.0696  0.7002
  410MOL0     C55252  11.701   6.077   8.022 -0.6305 -0.1240  0.0076
  410MOL0     C55253  11.644   6.102   7.883 -0.3211 -1.3031  0.2538
  410MOL0     C55254  11.514   6.029   7.851 -0.5447  0.0947 -0.3688
  410MOL0     C55255  11.474   6.078   7.716  0.8670 -0.6514 -0.5914
  410MOL0     C55256  11.399   6.213   7.718  0.1341  0.6202 -0.4152
  410MOL0     C55257  11.425   6.290   7.586  0.2953  0.2539 -0.2314
  410MOL0     C55258  11.346   6.416   7.577  0.3453  0.2750 -0.3721
  410MOL0    Cl55259  11.172   6.379   7.602 -0.5484  0.1489  0.3498
  410MOL0     C55260  12.042   6.406   7.947 -0.4077 -0.3254 -0.0367
  410MOL0     C55261  12.168   6.454   7.932 -1.0323 -0.0644  1.0890
  410MOL0     O55262  12.456   6.366   8.176  1.2044 -0.0864 -0.2207
  410MOL0     C55263  12.735   6.384   8.126 -0.7531 -0.7181 -0.2667
  410MOL0     C55264  12.867   6.421   8.099 -0.1791 -0.2843 -0.4813
  410MOL0     N55265  12.762   6.959   8.282  0.4927  0.1794 -0.4131
  410MOL0     N55266  12.648   6.904   8.291 -0.2328  0.2979 -0.3116
  410MOL0     C55267  11.537   6.549   8.339 -0.7436 -1.2312  0.1674
  410MOL0     C55268  11.410   6.570   8.285 -0.3020 -0.5404  0.2641
  410MOL0     C55269  11.038   6.552   8.052  0.1917  0.6317 -0.3161
  410MOL0     C55270  11.041   6.507   7.922 -0.0166 -0.7244  0.4407
  410MOL0     C55271  10.933   6.507   7.842  0.2052 -0.2765 -0.6229
  410MOL0     C55272  10.811   6.551   7.888  1.0367 -0.0370  1.1226
  410MOL0     O55273  10.694   6.554   7.819  0.2249  0.4343  0.2446
  410MOL0     C55274  10.698   6.540   7.676 -0.0281 -0.0374  0.5532
  410MOL0     C55275  10.574   6.570   7.610  0.8530 -0.2170  0.2227
  410MOL0     C55276  10.538   6.717   7.661  0.9884 -0.0610  0.4204
  410MOL0     C55277  10.433   6.714   7.769 -0.1595 -0.2532  0.0828
  410MOL0     C55278  10.285   6.692   7.729 -0.0082 -0.0277 -0.2499
  410MOL0     C55279  10.168   6.677   7.691  0.6178  0.2082  0.1939
  410MOL0     C55280  10.798   6.590   8.022  0.3262 -0.9242 -0.2273
  410MOL0     C55281  10.911   6.592   8.104  0.2589  0.1852  0.8148
  410MOL0     C55282  10.889   6.630   8.246 -0.5630  0.0443 -0.7910
  410MOL0     H55283  11.463   6.411   7.986 -0.2965  1.6850 -0.6794
  410MOL0     H55284  11.673   6.369   8.083 -1.2375 -1.4355 -0.9162
  410MOL0     H55285  11.808   6.279   8.258 -1.1537  1.5504  0.8752
  410MOL0     H55286  11.907   6.400   8.186 -1.4448 -2.6816 -1.4514
  410MOL0     H55287  12.026   6.261   8.372  0.1439  0.2612 -1.5390
  410MOL0     H55288  11.920   6.356   8.482  0.3440  0.4284  0.1981
  410MOL0     H55289  12.030   6.565   8.403  0.7012  0.7632 -0.5797
  410MOL0     H55290  12.107   6.483   8.261 -0.5232  2.6947 -0.2446
  410MOL0     H55291  12.158   6.448   8.556  0.4529 -0.1423  0.3664
  410MOL0     H55292  12.238   6.346   8.438  0.3124 -0.6496  0.3398
  410MOL0     H55293  12.315   6.543   8.322  1.0129 -2.0552 -0.7229
  410MOL0     H55294  12.262   6.646   8.463 -0.2742 -1.0907 -0.0564
  410MOL0     H55295  12.427   6.520   8.606  0.1427 -2.6382 -0.1937
  410MOL0     H55296  12.493   6.447   8.469 -1.0985 -1.3560  1.7464
  410MOL0     H55297  12.620   6.638   8.532  0.2990  1.3904  0.6328
  410MOL0     H55298  12.499   6.756   8.495  1.1111 -0.3145  0.3988
  410MOL0     H55299  12.622   6.570   8.276  1.8930 -0.8746  0.9265
  410MOL0     H55300  12.490   6.689   8.261  1.2948 -0.0188 -0.2165
  410MOL0     H55301  12.859   6.646   8.297 -1.3706 -1.0566  3.6768
  410MOL0     H55302  12.982   6.998   8.206 -2.0766 -1.2831 -0.5572
  410MOL0     H55303  13.038   6.914   8.359 -1.7539  2.8161  0.5703
  410MOL0     H55304  13.187   6.807   8.160  0.0214 -0.8565 -1.6368
  410MOL0     H55305  13.061   6.703   8.212  1.3947  0.8091  0.7863
  410MOL0     H55306  13.049   6.907   7.982  0.4933  0.0397  1.4225
  410MOL0     H55307  12.913   6.821   8.025  0.8020  3.3343  0.2831
  410MOL0     H55308  13.158   6.711   7.909  2.0858 -0.6486  6.1062
  410MOL0     H55309  12.997   6.718   7.842  1.7732  2.2997 -1.7149
  410MOL0     H55310  12.806   6.627   7.844 -2.5258 -0.1517 -0.0881
  410MOL0     H55311  12.592   6.529   7.863  1.3450 -1.0069 -2.2647
  410MOL0     H55312  12.334   6.168   8.010 -0.4533 -1.7202  1.1301
  410MOL0     H55313  12.121   6.093   8.042  0.3541 -0.7620 -2.4718
  410MOL0     H55314  11.894   6.034   7.946 -2.3569  4.0984 -5.3010
  410MOL0     H55315  11.898   6.086   8.116 -1.1254  0.8676  1.4319
  410MOL0     H55316  11.675   5.975   8.053 -1.1990  0.7063  2.5097
  410MOL0     H55317  11.654   6.141   8.097  2.1502  1.7007  0.3252
  410MOL0     H55318  11.624   6.209   7.868 -1.9282 -1.6219 -0.0061
  410MOL0     H55319  11.715   6.075   7.805 -1.1039  0.7627 -1.2605
  410MOL0     H55320  11.438   6.045   7.929 -0.5628 -1.8979  0.0783
  410MOL0     H55321  11.547   5.925   7.846  2.0003  0.7512  0.8919
  410MOL0     H55322  11.411   5.999   7.673  0.7144 -0.4566 -0.7300
  410MOL0     H55323  11.558   6.096   7.649 -0.4628  2.7218 -1.5999
  410MOL0     H55324  11.294   6.184   7.730  0.4957 -0.7966 -0.5224
  410MOL0     H55325  11.428   6.273   7.804 -3.4200  0.9324  0.7506
  410MOL0     H55326  11.398   6.219   7.507 -0.1911  0.4717 -0.2615
  410MOL0     H55327  11.531   6.316   7.578  0.3321  0.0226 -0.5237
  410MOL0     H55328  11.367   6.486   7.658  0.3139  1.5019 -1.3930
  410MOL0     H55329  11.360   6.469   7.482  0.1096 -0.0702 -0.6020
  410MOL0     H55330  11.957   6.467   7.920  0.5523  1.0204 -0.1390
  410MOL0     H55331  12.165   6.562   7.916 -0.3531 -0.3689 -1.5649
  410MOL0     H55332  12.720   6.343   8.225 -0.2376  2.9455  1.5074
  410MOL0     H55333  12.943   6.400   8.174 -1.3766 -0.9426  0.5892
  410MOL0     H55334  11.573   6.580   8.437  2.1611 -2.3060 -0.4465
  410MOL0     H55335  11.335   6.616   8.349 -0.7980  0.1014 -0.7594
  410MOL0     H55336  11.135   6.463   7.892  0.4274  0.1573  0.5167
  410MOL0     H55337  10.930   6.463   7.742 -0.1609 -0.5014 -0.5165
  410MOL0     H55338  10.731   6.438   7.654 -0.4775  0.1364 -1.0584
  410MOL0     H55339  10.768   6.611   7.631 -1.7803  2.1822  1.1312
  410MOL0     H55340  10.498   6.493   7.622 -1.8472  2.3726  1.0065
  410MOL0     H55341  10.580   6.571   7.501 -0.2129  1.4177  0.1380
  410MOL0     H55342  10.506   6.781   7.579 -0.2939 -1.6131 -0.3347
  410MOL0     H55343  10.618   6.780   7.702  2.5906 -0.8871 -1.3226
  410MOL0     H55344  10.460   6.648   7.852 -1.9166 -1.1397 -0.0117
  410MOL0     H55345  10.429   6.816   7.809 -0.8914 -0.5816  0.8906
  410MOL0     H55346  10.067   6.656   7.663  0.4899  1.6403 -0.4884
  410MOL0     H55347  10.699   6.610   8.062  0.3048 -4.2961  1.7548
  410MOL0     H55348  10.856   6.545   8.307  2.7806  1.2007  3.0425
  410MOL0     H55349  10.976   6.665   8.302 -0.6320 -0.8197 -0.1125
  410MOL0     H55350  10.818   6.714   8.250 -0.6602 -0.0751  1.9759
  411MOL0     O55351   4.477   3.315   8.125 -0.6793  0.2068  0.9193
  411MOL0     C55352   4.438   3.220   8.190  0.2601 -0.3137 -0.2235
  411MOL0     O55353   4.354   3.126   8.141 -0.6578  0.1050  0.3125
  411MOL0     C55354   4.285   3.165   8.033  0.5030  0.8440  0.3093
  411MOL0     C55355   4.358   3.155   7.908 -0.7148  0.0335 -0.8716
  411MOL0     C55356   4.297   3.194   7.790  0.3804  0.2230  0.6792
  411MOL0     C55357   4.162   3.212   7.789 -0.1118  0.1766 -0.1190
  411MOL0     O55358   4.087   3.248   7.687  0.2698 -0.6740  0.2060
  411MOL0     C55359   4.014   3.143   7.624  0.2783  0.2763  0.7572
  411MOL0     C55360   4.089   3.071   7.514 -0.5380 -0.6740 -0.0840
  411MOL0     C55361   4.113   3.159   7.394  0.8559 -0.6423  0.4853
  411MOL0     C55362   4.241   3.235   7.385 -0.0797 -0.6362 -0.3076
  411MOL0     C55363   4.367   3.154   7.402  0.0732 -0.5795  0.6126
  411MOL0     C55364   4.414   3.071   7.283 -0.6458 -0.3291  0.2607
  411MOL0     C55365   4.571   3.041   7.303 -0.0408  0.2047 -0.3857
  411MOL0     C55366   4.616   2.968   7.180  0.7152 -0.1204 -0.7308
  411MOL0     N55367   4.761   2.964   7.172 -0.1200  0.4197  0.3955
  411MOL0     C55368   4.849   3.070   7.189  0.1787  0.3421 -1.0847
  411MOL0     C55369   4.966   3.014   7.153 -0.6410  0.0602 -0.4540
  411MOL0     C55370   5.093   3.085   7.152  0.6574 -0.7880 -0.8031
  411MOL0     C55371   5.187   3.022   7.054  0.0877  0.0090  0.4027
  411MOL0     C55372   5.299   3.122   7.012  0.9984  0.0504 -0.9581
  411MOL0     C55373   5.412   3.039   6.946 -1.0704 -0.1137 -0.1440
  411MOL0     O55374   5.516   3.139   6.914 -0.0025  0.3707 -0.2467
  411MOL0     C55375   5.629   3.089   6.858 -0.5136 -0.8244 -0.1028
  411MOL0     C55376   5.690   2.973   6.900  0.2601  0.9629  0.3979
  411MOL0     C55377   5.815   2.938   6.855 -0.1295  0.5524 -0.0956
  411MOL0     C55378   5.880   3.004   6.758 -1.1518 -0.7527 -0.0677
  411MOL0     C55379   6.010   2.953   6.708  0.1609  0.1245 -0.5971
  411MOL0     O55380   6.018   2.825   6.685  0.4975 -0.0362 -0.1607
  411MOL0     C55381   6.140   2.762   6.654 -0.3120  0.3800 -0.1667
  411MOL0     C55382   6.119   2.635   6.601  0.6863  1.5690 -0.2128
  411MOL0     C55383   6.219   2.542   6.594 -0.7295 -0.5502  0.1579
  411MOL0     C55384   6.356   2.584   6.617 -0.1521 -0.1546 -0.2880
  411MOL0     O55385   6.464   2.504   6.595 -0.3851 -0.1344  0.1559
  411MOL0     C55386   6.454   2.362   6.593 -0.1549  0.4264  0.1515
  411MOL0     C55387   6.477   2.311   6.461  0.7317 -0.1232 -0.0516
  411MOL0     C55388   6.466   2.167   6.439 -0.1068 -0.1540  0.0988
  411MOL0     C55389   6.316   2.130   6.428 -0.5093 -0.1343 -0.7044
  411MOL0     C55390   6.279   1.989   6.390 -1.2649  0.1983  0.2417
  411MOL0     C55391   6.143   2.000   6.325 -0.1935  0.1314 -0.0995
  411MOL0     C55392   6.020   2.038   6.409  0.3960 -0.6564  0.0558
  411MOL0     C55393   6.002   1.939   6.529 -0.0934 -0.1055  0.2590
  411MOL0    Cl55394   5.857   1.970   6.624  0.2668 -0.4064  0.2330
  411MOL0     C55395   6.382   2.713   6.653 -0.2913 -1.3903 -0.7476
  411MOL0     C55396   6.277   2.804   6.680 -0.1635 -0.0878 -0.4756
  411MOL0     O55397   6.097   3.033   6.675  0.1540  0.3199  0.2797
  411MOL0     C55398   5.821   3.121   6.712 -1.0374  0.7918  0.4969
  411MOL0     C55399   5.694   3.159   6.759 -0.4001  0.1555 -0.0819
  411MOL0     N55400   4.946   2.882   7.116 -1.2119  0.0256  0.2347
  411MOL0     N55401   4.825   2.851   7.128  0.0975  0.6993 -0.3097
  411MOL0     C55402   4.093   3.216   7.909  0.0412  0.3193  0.3653
  411MOL0     C55403   4.155   3.191   8.028  0.6130 -0.7946  0.1538
  411MOL0     C55404   4.479   3.217   8.341 -0.6584 -0.2624  0.5220
  411MOL0     C55405   4.388   3.158   8.432 -0.6095  0.3931  0.2977
  411MOL0     C55406   4.426   3.142   8.565 -0.7259 -0.3505  0.0775
  411MOL0     C55407   4.552   3.180   8.616  0.2923 -0.8371  0.0091
  411MOL0     O55408   4.593   3.167   8.747  0.1711 -0.4571 -0.1766
  411MOL0     C55409   4.554   3.044   8.806 -0.8839 -0.2069  0.0940
  411MOL0     C55410   4.621   2.924   8.755 -0.7364  0.4748  0.1992
  411MOL0     C55411   4.763   2.905   8.817 -0.4321 -0.0983  0.1094
  411MOL0     C55412   4.872   2.977   8.743 -0.9124 -0.0053 -0.1481
  411MOL0     C55413   5.007   2.968   8.809  0.2698 -1.0104  0.3597
  411MOL0     C55414   5.115   2.978   8.857 -0.3396 -0.4539  0.0598
  411MOL0     C55415   4.639   3.237   8.525 -0.5524 -0.2917  0.1602
  411MOL0     C55416   4.607   3.253   8.388 -0.2183 -0.5809 -0.4443
  411MOL0     C55417   4.716   3.322   8.315  0.6128  0.7251 -0.6388
  411MOL0     H55418   4.461   3.122   7.897 -0.6890 -1.2678  2.1947
  411MOL0     H55419   4.349   3.199   7.695  0.8855  1.5160  1.0007
  411MOL0     H55420   4.000   3.069   7.703  4.6454 -1.5472  0.0717
  411MOL0     H55421   3.916   3.160   7.579  1.2541 -0.9867 -2.0968
  411MOL0     H55422   4.020   2.999   7.469 -0.7757 -0.3289 -0.2786
  411MOL0     H55423   4.171   3.015   7.559 -1.1389 -1.5254 -0.0261
  411MOL0     H55424   4.031   3.231   7.392 -0.0542 -1.6372  1.1203
  411MOL0     H55425   4.118   3.098   7.304  2.4444 -0.0524  0.1404
  411MOL0     H55426   4.246   3.285   7.288  0.1529 -1.4284 -0.7083
  411MOL0     H55427   4.249   3.310   7.465 -2.1992  0.1281 -0.7652
  411MOL0     H55428   4.448   3.221   7.432  0.2607 -0.6267  0.2138
  411MOL0     H55429   4.350   3.086   7.486 -0.6655 -1.5006 -0.2505
  411MOL0     H55430   4.352   2.982   7.268  1.9606 -1.9680 -1.7072
  411MOL0     H55431   4.406   3.136   7.195  1.7004  2.6589  2.0619
  411MOL0     H55432   4.597   3.001   7.401 -0.2852  2.4554  0.6618
  411MOL0     H55433   4.623   3.137   7.302  0.9185 -0.2996 -1.7093
  411MOL0     H55434   4.581   2.864   7.172 -0.4937  0.2878 -0.8495
  411MOL0     H55435   4.583   3.025   7.093  0.8706  0.4301 -0.4331
  411MOL0     H55436   4.833   3.175   7.210 -0.2790  0.4119 -1.7822
  411MOL0     H55437   5.074   3.192   7.136 -0.8952 -0.9478 -0.1742
  411MOL0     H55438   5.135   3.079   7.252 -0.2269  0.5612 -0.3242
  411MOL0     H55439   5.239   2.946   7.114 -1.5746  0.1394  2.1141
  411MOL0     H55440   5.143   2.982   6.962  0.0916 -1.1087  0.8669
  411MOL0     H55441   5.344   3.163   7.103 -1.2796  1.3131 -0.3076
  411MOL0     H55442   5.265   3.207   6.953  1.5561  0.2490 -0.9978
  411MOL0     H55443   5.377   2.987   6.856  1.0131 -2.8518  0.5055
  411MOL0     H55444   5.451   2.971   7.022  1.1436  1.4977  0.2624
  411MOL0     H55445   5.649   2.909   6.977  3.4219 -1.9052 -0.0297
  411MOL0     H55446   5.860   2.846   6.892 -1.6252 -0.8643 -1.6136
  411MOL0     H55447   6.020   2.596   6.576  1.8078 -4.4274  2.7362
  411MOL0     H55448   6.192   2.443   6.557  1.2293 -0.4974 -1.5851
  411MOL0     H55449   6.529   2.325   6.663  1.3028  1.4548 -0.8131
  411MOL0     H55450   6.355   2.323   6.620  0.2258 -3.4005 -3.0031
  411MOL0     H55451   6.399   2.367   6.408  0.0731  1.9897  2.8861
  411MOL0     H55452   6.578   2.334   6.424  1.0229  0.3066  0.9691
  411MOL0     H55453   6.519   2.146   6.345 -0.8893 -1.9142  0.0101
  411MOL0     H55454   6.508   2.110   6.521 -1.2557  2.0797  2.3716
  411MOL0     H55455   6.266   2.200   6.361 -0.2851 -0.0700 -0.8080
  411MOL0     H55456   6.279   2.143   6.529  2.0229 -2.8290  0.7463
  411MOL0     H55457   6.290   1.928   6.480  3.6478  0.6024  0.1962
  411MOL0     H55458   6.354   1.938   6.328  1.6339  2.7036  1.4383
  411MOL0     H55459   6.151   2.069   6.241  0.4862 -0.3177 -0.4159
  411MOL0     H55460   6.126   1.899   6.286  1.0567 -0.6752  1.3347
  411MOL0     H55461   5.934   2.024   6.342 -1.7993  1.9444  2.0996
  411MOL0     H55462   6.023   2.143   6.438  1.4304 -0.2897 -1.2826
  411MOL0     H55463   5.994   1.837   6.491  1.8232 -0.0491 -0.3966
  411MOL0     H55464   6.089   1.938   6.596  1.5987 -0.5250 -1.8355
  411MOL0     H55465   6.486   2.740   6.672 -0.4431 -1.4160  0.1842
  411MOL0     H55466   6.299   2.905   6.711  3.6819 -0.9618  0.1397
  411MOL0     H55467   5.871   3.185   6.640  1.2112 -2.2093 -0.8394
  411MOL0     H55468   5.630   3.241   6.725 -0.1774  0.3420 -0.0503
  411MOL0     H55469   3.989   3.246   7.914 -0.0040 -0.0449  2.2427
  411MOL0     H55470   4.099   3.213   8.119  0.9054 -0.6067  0.2925
  411MOL0     H55471   4.285   3.138   8.406 -1.0010 -0.3881  2.3473
  411MOL0     H55472   4.347   3.103   8.628  0.3938 -2.3072  0.3785
  411MOL0     H55473   4.445   3.033   8.803 -0.8606 -0.2728 -0.6547
  411MOL0     H55474   4.574   3.044   8.914 -2.3188  1.1278  0.3927
  411MOL0     H55475   4.635   2.929   8.647  2.0800 -0.2910  0.4432
  411MOL0     H55476   4.552   2.842   8.777 -1.2725  1.2896  1.7128
  411MOL0     H55477   4.791   2.799   8.814  1.8669  0.4744 -1.2585
  411MOL0     H55478   4.760   2.928   8.923 -2.0662  0.3862 -0.0111
  411MOL0     H55479   4.889   2.927   8.647 -2.5735 -2.9532  0.9931
  411MOL0     H55480   4.852   3.084   8.730  1.4728  0.6934  1.3313
  411MOL0     H55481   5.214   2.987   8.897 -0.7764 -2.4281  1.7485
  411MOL0     H55482   4.738   3.263   8.560  0.4456 -1.1746 -1.8283
  411MOL0     H55483   4.718   3.429   8.336  2.3661  0.5106  0.4136
  411MOL0     H55484   4.814   3.283   8.343  0.4161 -1.6553 -2.8479
  411MOL0     H55485   4.717   3.315   8.205 -1.1324  3.2168 -0.9013
  412MOL0     O55486   0.906   7.106   3.249 -0.0065 -0.2249 -0.1610
  412MOL0     C55487   0.864   6.990   3.239  0.0746  0.1693 -0.3905
  412MOL0     O55488   0.937   6.879   3.210  0.3692 -0.1465  0.2332
  412MOL0     C55489   1.070   6.884   3.205 -0.4754 -1.2247  0.2549
  412MOL0     C55490   1.147   6.878   3.088  0.2070 -0.1699 -0.2269
  412MOL0     C55491   1.285   6.875   3.095  0.3870  0.5450  0.0891
  412MOL0     C55492   1.358   6.882   3.214  0.7194 -0.1729  0.8546
  412MOL0     O55493   1.497   6.879   3.214 -0.0466 -0.0694  0.0532
  412MOL0     C55494   1.581   6.895   3.332 -0.8735 -0.1417  0.5554
  412MOL0     C55495   1.731   6.874   3.294 -0.8540 -0.1082 -0.3718
  412MOL0     C55496   1.831   6.922   3.409  0.4783 -0.1482  0.3735
  412MOL0     C55497   1.978   6.912   3.368 -0.2566 -0.7851  0.0612
  412MOL0     C55498   2.074   6.942   3.489 -0.3031  0.5769  0.6055
  412MOL0     C55499   2.048   7.078   3.552  0.0700 -0.3209 -0.3034
  412MOL0     C55500   2.145   7.106   3.660 -0.3093  0.6292 -0.7595
  412MOL0     C55501   2.134   7.255   3.718 -0.7913 -0.6026 -0.7864
  412MOL0     N55502   2.241   7.266   3.823 -0.3498  0.1832  0.0687
  412MOL0     C55503   2.353   7.349   3.815  0.1071  0.1601 -0.2491
  412MOL0     C55504   2.426   7.320   3.923  1.0123  1.1473  0.9135
  412MOL0     C55505   2.562   7.380   3.953  0.0664  0.1411 -0.0589
  412MOL0     C55506   2.607   7.358   4.101  0.6626 -0.3217  0.5308
  412MOL0     C55507   2.699   7.470   4.140  0.3087 -0.4056 -0.1491
  412MOL0     C55508   2.769   7.438   4.278  0.3999  0.4556  0.1703
  412MOL0     O55509   2.835   7.558   4.324 -0.0927  1.1689  0.1746
  412MOL0     C55510   2.964   7.581   4.285  0.1632 -0.2956 -0.8587
  412MOL0     C55511   3.060   7.488   4.252 -0.8132  0.1715 -0.2675
  412MOL0     C55512   3.188   7.514   4.214  0.0662 -0.6770 -0.0222
  412MOL0     C55513   3.237   7.650   4.227 -0.3011  0.9551 -0.0662
  412MOL0     C55514   3.372   7.695   4.195  0.2502  0.4686 -0.3124
  412MOL0     O55515   3.423   7.815   4.229  0.6874 -0.3868 -0.5806
  412MOL0     C55516   3.557   7.855   4.216 -0.2770  0.8914  0.2479
  412MOL0     C55517   3.589   7.986   4.198  0.1283  0.4323 -0.6631
  412MOL0     C55518   3.725   8.034   4.182  0.3382 -0.0710 -1.4873
  412MOL0     C55519   3.835   7.947   4.185 -0.0111  0.4571 -0.9575
  412MOL0     O55520   3.964   8.000   4.201  0.2022  0.0696  0.0197
  412MOL0     C55521   4.056   7.928   4.286 -0.4033 -0.2421  0.3049
  412MOL0     C55522   4.193   7.923   4.216  1.7376 -0.7799  0.7919
  412MOL0     C55523   4.296   7.846   4.296 -0.1950 -0.3381 -0.2051
  412MOL0     C55524   4.436   7.853   4.232 -0.0280 -0.3071 -0.8039
  412MOL0     C55525   4.538   7.785   4.322  0.0362  0.1007  1.1035
  412MOL0     C55526   4.663   7.779   4.243  0.3409 -0.2311 -0.4882
  412MOL0     C55527   4.761   7.691   4.327  0.8548  0.3927  0.6371
  412MOL0     C55528   4.901   7.668   4.251 -0.6138  0.3451  0.0440
  412MOL0    Cl55529   4.980   7.825   4.203 -0.2953  0.1440 -0.6614
  412MOL0     C55530   3.803   7.806   4.199  0.9308  0.7758  1.0293
  412MOL0     C55531   3.667   7.768   4.211  0.0422  0.5781  0.1176
  412MOL0     O55532   3.433   7.616   4.121  0.4209  0.0732 -0.0411
  412MOL0     C55533   3.142   7.748   4.265  1.0646 -0.2119 -0.2235
  412MOL0     C55534   3.008   7.714   4.299 -0.1056 -0.2474  0.4334
  412MOL0     N55535   2.362   7.223   3.997  1.2781  0.0298  0.1838
  412MOL0     N55536   2.249   7.190   3.935 -0.7507  0.2543 -0.1394
  412MOL0     C55537   1.282   6.878   3.333 -0.1976  0.5708  0.2541
  412MOL0     C55538   1.145   6.881   3.334 -0.0635  0.0556  0.4659
  412MOL0     C55539   0.724   6.968   3.265  0.6567  0.2594  0.2293
  412MOL0     C55540   0.672   6.847   3.220  0.6140  1.4281 -0.2559
  412MOL0     C55541   0.529   6.825   3.237 -0.4822 -0.3556 -0.1471
  412MOL0     C55542   0.454   6.912   3.299  0.1104 -0.1060  0.4799
  412MOL0     O55543   0.317   6.884   3.316  0.5177 -0.2826 -0.6410
  412MOL0     C55544   0.232   6.998   3.345 -0.0557  0.0982  1.4501
  412MOL0     C55545   0.092   6.945   3.363  1.1029  0.1104 -0.2474
  412MOL0     C55546   0.020   7.062   3.433  1.0133  0.3839  0.3376
  412MOL0     C55547  -0.032   7.168   3.330 -0.4592  0.2921 -0.9172
  412MOL0     C55548  -0.136   7.253   3.388  0.5425 -0.0927 -0.0506
  412MOL0     C55549  -0.223   7.321   3.447  0.0263 -0.0634 -0.3775
  412MOL0     C55550   0.515   7.018   3.358  0.8913  0.3331  0.0342
  412MOL0     C55551   0.653   7.047   3.350  0.6225 -0.8420 -0.1497
  412MOL0     C55552   0.702   7.175   3.421 -0.2622 -0.0777 -0.4058
  412MOL0     H55553   1.094   6.852   2.997  1.5571  2.7965 -2.0306
  412MOL0     H55554   1.335   6.869   2.999  0.3119  1.8652 -0.0538
  412MOL0     H55555   1.575   6.991   3.385  2.5748  0.3912  0.2071
  412MOL0     H55556   1.556   6.808   3.393  1.3778 -1.5802 -0.4449
  412MOL0     H55557   1.745   6.932   3.202  0.4489  1.0039  0.4798
  412MOL0     H55558   1.744   6.767   3.276 -0.9597 -0.5991  2.0761
  412MOL0     H55559   1.799   6.872   3.501 -2.0176  3.4233  1.6508
  412MOL0     H55560   1.800   7.027   3.414 -1.9713 -0.7402 -0.8070
  412MOL0     H55561   1.993   6.812   3.325 -0.4916 -1.5266  1.6188
  412MOL0     H55562   1.990   6.982   3.285 -2.5721 -0.7027 -0.2881
  412MOL0     H55563   2.066   6.857   3.558  0.5758 -1.1267 -1.3192
  412MOL0     H55564   2.174   6.946   3.446 -1.5033 -1.1993 -2.7243
  412MOL0     H55565   2.061   7.152   3.472  1.3894  0.7385  0.8370
  412MOL0     H55566   1.947   7.082   3.592 -0.0124  2.8325 -0.5941
  412MOL0     H55567   2.249   7.082   3.635 -0.5126 -3.0689  1.2339
  412MOL0     H55568   2.110   7.048   3.746 -2.2499  0.7492 -1.4100
  412MOL0     H55569   2.131   7.332   3.641 -0.0164 -0.5218 -0.7453
  412MOL0     H55570   2.043   7.267   3.778  0.9768  0.2773  1.9153
  412MOL0     H55571   2.368   7.412   3.728 -1.2633  0.4658 -0.2790
  412MOL0     H55572   2.633   7.338   3.881  1.2517  1.4438  0.2997
  412MOL0     H55573   2.552   7.486   3.929 -0.5654  0.0557 -0.1951
  412MOL0     H55574   2.520   7.375   4.165  2.0497  3.8722  1.6425
  412MOL0     H55575   2.658   7.261   4.109 -0.4181 -0.8173  1.8205
  412MOL0     H55576   2.652   7.568   4.149  3.4050  1.2480 -0.5859
  412MOL0     H55577   2.773   7.476   4.059 -0.9800  1.1917 -1.2813
  412MOL0     H55578   2.839   7.356   4.259 -0.9928 -0.5994 -0.6271
  412MOL0     H55579   2.685   7.409   4.341 -0.0943 -1.1317 -1.1678
  412MOL0     H55580   3.024   7.386   4.258 -1.9564  0.5844  0.2006
  412MOL0     H55581   3.263   7.441   4.184  0.6612  1.0771 -3.3251
  412MOL0     H55582   3.505   8.055   4.202  1.1208  1.7607 -1.6943
  412MOL0     H55583   3.747   8.140   4.181  1.2867 -0.1317  1.9846
  412MOL0     H55584   4.064   7.985   4.379  2.5808  1.1307 -0.6806
  412MOL0     H55585   4.022   7.824   4.298 -0.3123 -0.8909 -3.7790
  412MOL0     H55586   4.184   7.888   4.113  1.3822 -0.6111  0.7661
  412MOL0     H55587   4.219   8.028   4.199 -2.3612  0.1989 -0.4013
  412MOL0     H55588   4.308   7.882   4.398 -1.6504 -1.0835  0.2633
  412MOL0     H55589   4.268   7.741   4.312 -0.5056 -0.0930  0.9027
  412MOL0     H55590   4.464   7.958   4.225 -1.3793 -0.0267 -2.4436
  412MOL0     H55591   4.441   7.815   4.130  2.4114  0.6861 -1.1236
  412MOL0     H55592   4.503   7.685   4.350 -5.3488 -0.3651 -4.9810
  412MOL0     H55593   4.558   7.846   4.411  0.5325  0.5903  0.6594
  412MOL0     H55594   4.641   7.737   4.145 -2.0836 -1.3855  0.4718
  412MOL0     H55595   4.703   7.881   4.239  0.5199 -0.0956  2.3192
  412MOL0     H55596   4.721   7.590   4.339  2.2799 -0.5412 -1.6822
  412MOL0     H55597   4.779   7.741   4.422 -1.6161 -0.9537  1.9196
  412MOL0     H55598   4.973   7.627   4.323 -0.0715 -0.0927 -0.7330
  412MOL0     H55599   4.895   7.598   4.168  0.3973  0.6447 -0.2970
  412MOL0     H55600   3.879   7.729   4.188  0.0206 -0.0451  0.3277
  412MOL0     H55601   3.643   7.664   4.227  1.7423  0.4637  2.3035
  412MOL0     H55602   3.161   7.855   4.271  3.9686 -0.5813 -1.3381
  412MOL0     H55603   2.939   7.793   4.325  0.4899 -0.1993  1.9893
  412MOL0     H55604   1.336   6.894   3.426  0.4053  0.8230 -0.1310
  412MOL0     H55605   1.091   6.888   3.428 -2.1599  0.3770 -0.7028
  412MOL0     H55606   0.714   6.769   3.158 -2.4585 -0.0072 -0.7121
  412MOL0     H55607   0.472   6.744   3.193  0.3353 -1.6797  1.1255
  412MOL0     H55608   0.220   7.063   3.258 -1.1528 -1.2884  0.5334
  412MOL0     H55609   0.273   7.056   3.429 -0.2945  0.2971  1.4316
  412MOL0     H55610   0.092   6.855   3.426  0.4081 -0.0346 -0.4390
  412MOL0     H55611   0.048   6.918   3.267  0.7890 -0.2502 -0.0091
  412MOL0     H55612   0.078   7.091   3.521 -1.1406 -2.2342  2.8407
  412MOL0     H55613  -0.076   7.031   3.475  0.1121  1.3262 -0.9215
  412MOL0     H55614   0.049   7.231   3.293  0.4057  0.9340  1.7877
  412MOL0     H55615  -0.069   7.116   3.241 -1.5392 -0.9298  0.1992
  412MOL0     H55616  -0.290   7.379   3.507  1.5112  1.9439 -0.5177
  412MOL0     H55617   0.472   7.074   3.440 -1.5189 -2.6073  0.9216
  412MOL0     H55618   0.787   7.155   3.486 -1.4733 -2.2023  0.6571
  412MOL0     H55619   0.730   7.258   3.355  3.0675 -1.0051 -0.3028
  412MOL0     H55620   0.622   7.213   3.485  1.2905  1.5631  0.6461
  413MOL0     O55621   3.734  10.475  10.866  0.0213 -0.8440 -0.0662
  413MOL0     C55622   3.777  10.389  10.944  0.6412  0.4723  0.3258
  413MOL0     O55623   3.884  10.314  10.920  0.0379 -0.0510  0.2165
  413MOL0     C55624   3.979  10.338  10.820  0.3963 -0.7608 -0.0287
  413MOL0     C55625   4.106  10.355  10.864  0.0212  0.6246  0.1414
  413MOL0     C55626   4.208  10.391  10.777  0.7938 -1.0660 -1.1835
  413MOL0     C55627   4.183  10.404  10.643 -0.4154  0.7451  0.1155
  413MOL0     O55628   4.280  10.437  10.550  0.0425  0.3674 -0.0059
  413MOL0     C55629   4.413  10.385  10.576 -0.2045 -0.6075  0.5042
  413MOL0     C55630   4.487  10.412  10.439  0.4487  0.3850 -0.6863
  413MOL0     C55631   4.624  10.346  10.438  0.2256  0.1094 -0.0492
  413MOL0     C55632   4.673  10.312  10.282  0.8840  0.2353 -1.0153
  413MOL0     C55633   4.799  10.232  10.283 -0.3137  0.9513 -0.3548
  413MOL0     C55634   4.924  10.324  10.306  0.3562 -0.0266 -0.3940
  413MOL0     C55635   5.059  10.246  10.304 -0.9522  0.4240  0.4617
  413MOL0     C55636   5.171  10.348  10.299 -0.1506 -0.3070  0.0922
  413MOL0     N55637   5.301  10.287  10.283  0.2740 -0.3766 -0.0273
  413MOL0     C55638   5.420  10.359  10.279 -0.0201  0.5307 -0.3818
  413MOL0     C55639   5.511  10.264  10.238 -0.9404  0.2595 -0.2337
  413MOL0     C55640   5.656  10.304  10.212  0.7651  0.0817  0.1941
  413MOL0     C55641   5.669  10.385  10.077  0.0231  0.6545 -0.6804
  413MOL0     C55642   5.818  10.427  10.063  0.9173  0.3871 -1.0600
  413MOL0     C55643   5.848  10.465   9.919 -0.0323  1.4303 -0.9089
  413MOL0     O55644   5.965  10.553   9.901  0.1925 -0.1481 -0.1723
  413MOL0     C55645   6.090  10.498   9.912  0.6595 -0.2999 -0.6445
  413MOL0     C55646   6.206  10.583   9.908 -0.1585 -0.9083 -0.1457
  413MOL0     C55647   6.339  10.531   9.919 -0.1117 -0.0502 -0.4946
  413MOL0     C55648   6.359  10.394   9.914  0.6655 -0.0827  1.3167
  413MOL0     C55649   6.496  10.328   9.910  0.0826  0.3454 -0.2080
  413MOL0     O55650   6.602  10.406   9.936  0.1560  0.4298  0.5193
  413MOL0     C55651   6.720  10.336   9.956  0.5227 -0.3027  0.2909
  413MOL0     C55652   6.826  10.371   9.873  0.4106 -0.7351 -0.3771
  413MOL0     C55653   6.955  10.322   9.891  0.1277 -0.0271 -0.3225
  413MOL0     C55654   6.978  10.238   9.996  0.1988  0.0877  0.1533
  413MOL0     O55655   7.104  10.198  10.035  0.0247  0.3986  0.8550
  413MOL0     C55656   7.217  10.233   9.940 -0.6958  0.7353 -0.7046
  413MOL0     C55657   7.348  10.149   9.979  0.4471  0.3172 -0.2004
  413MOL0     C55658   7.474  10.234   9.941 -0.9262  0.5365  0.0922
  413MOL0     C55659   7.596  10.171  10.010  0.6860 -1.1464 -0.4024
  413MOL0     C55660   7.729  10.244  10.004  0.4688  0.1297  0.3544
  413MOL0     C55661   7.787  10.241   9.852 -0.8624 -0.5465 -0.0477
  413MOL0     C55662   7.921  10.321   9.830 -0.1983 -0.4791  1.4912
  413MOL0     C55663   8.019  10.242   9.747  0.2422  1.3806  0.1061
  413MOL0    Cl55664   8.125  10.352   9.648 -0.1170 -0.6872  0.0299
  413MOL0     C55665   6.871  10.198  10.075  0.0884 -1.0618 -0.1263
  413MOL0     C55666   6.741  10.238  10.057  0.5066 -0.7874  0.3902
  413MOL0     O55667   6.495  10.204   9.889 -0.3518 -0.5136  0.9797
  413MOL0     C55668   6.244  10.313   9.924 -0.6233  0.0147 -0.5176
  413MOL0     C55669   6.117  10.361   9.918 -0.3776 -0.1963 -0.4707
  413MOL0     N55670   5.453  10.144  10.206  0.3763  0.8081 -0.0973
  413MOL0     N55671   5.324  10.165  10.235  0.7177  0.6445  0.1387
  413MOL0     C55672   4.055  10.392  10.596  0.1472 -0.0393 -0.2788
  413MOL0     C55673   3.957  10.358  10.686  0.1028 -0.1757  0.0014
  413MOL0     C55674   3.686  10.359  11.056  0.2669 -0.3688 -0.2229
  413MOL0     C55675   3.553  10.414  11.066  0.8222  0.5862 -0.1264
  413MOL0     C55676   3.473  10.391  11.175  0.2617  0.0286  0.1819
  413MOL0     C55677   3.505  10.303  11.273  0.3083 -0.5857 -0.7488
  413MOL0     O55678   3.415  10.268  11.376 -0.3905 -0.7870  1.2764
  413MOL0     C55679   3.276  10.310  11.366 -0.3384  0.6065 -0.1148
  413MOL0     C55680   3.193  10.240  11.480 -0.8527 -0.8983  0.1153
  413MOL0     C55681   3.048  10.302  11.501  0.2666  0.0126 -0.9941
  413MOL0     C55682   2.941  10.212  11.442 -0.4458  0.2831 -0.8111
  413MOL0     C55683   2.906  10.262  11.309 -0.4382  0.7677 -0.3603
  413MOL0     C55684   2.887  10.291  11.191  0.2378 -0.7865  0.2347
  413MOL0     C55685   3.639  10.250  11.269  1.1101  0.6172 -0.1215
  413MOL0     C55686   3.725  10.278  11.166 -0.3557 -0.1705 -0.3409
  413MOL0     C55687   3.865  10.221  11.193 -0.1651 -0.3996 -0.4188
  413MOL0     H55688   4.133  10.354  10.969  1.2797  1.1969 -0.1513
  413MOL0     H55689   4.307  10.403  10.820 -0.2221  0.3968  0.8889
  413MOL0     H55690   4.461  10.441  10.657  1.4320  0.0501 -0.8547
  413MOL0     H55691   4.411  10.278  10.598  2.1848 -0.9107 -0.3758
  413MOL0     H55692   4.508  10.519  10.431  0.4478  0.4411 -0.0393
  413MOL0     H55693   4.437  10.372  10.350  2.7855 -3.4825 -0.4496
  413MOL0     H55694   4.612  10.250  10.489  0.0558  0.5412  0.7446
  413MOL0     H55695   4.702  10.403  10.488  2.6924 -2.0163 -1.2124
  413MOL0     H55696   4.596  10.251  10.235  0.9875 -0.3374 -0.4499
  413MOL0     H55697   4.684  10.411  10.236 -0.1034  1.7045  1.6451
  413MOL0     H55698   4.793  10.151  10.355 -4.3824 -0.8750 -2.3645
  413MOL0     H55699   4.812  10.180  10.187  4.4531 -0.9711  1.0757
  413MOL0     H55700   4.931  10.409  10.238  0.3323 -1.3826 -2.1633
  413MOL0     H55701   4.913  10.371  10.404  0.8821 -0.9065  0.1031
  413MOL0     H55702   5.058  10.173  10.222  0.1956 -2.2644  2.6481
  413MOL0     H55703   5.066  10.187  10.396 -1.2238 -2.2854 -1.1132
  413MOL0     H55704   5.159  10.408  10.208  2.3328 -0.6340 -0.5278
  413MOL0     H55705   5.149  10.422  10.376 -1.6228 -0.8258  0.1960
  413MOL0     H55706   5.433  10.466  10.292 -0.5061  0.4821  0.6109
  413MOL0     H55707   5.714  10.346  10.295  0.8746  1.7325 -0.6611
  413MOL0     H55708   5.706  10.208  10.194 -0.4086 -0.4158 -0.5288
  413MOL0     H55709   5.645  10.326   9.989  1.1670 -0.0976 -0.5165
  413MOL0     H55710   5.610  10.477  10.075 -1.4788 -0.1333  2.2095
  413MOL0     H55711   5.885  10.349  10.102 -1.6656 -0.8034  1.3419
  413MOL0     H55712   5.835  10.517  10.122 -2.9204 -0.3274  1.5022
  413MOL0     H55713   5.760  10.506   9.868 -0.6318  0.0382 -1.0557
  413MOL0     H55714   5.861  10.363   9.881  0.5318 -1.1353  5.0960
  413MOL0     H55715   6.195  10.691   9.898  2.5363 -0.6121 -0.5508
  413MOL0     H55716   6.430  10.587   9.937  0.5693 -2.2862  5.5132
  413MOL0     H55717   6.806  10.451   9.803 -0.0398 -0.7216 -0.2397
  413MOL0     H55718   7.037  10.355   9.829 -1.1707  0.6385 -1.7433
  413MOL0     H55719   7.206  10.209   9.834 -2.6718  0.2096 -0.4096
  413MOL0     H55720   7.235  10.341   9.942  0.0371  0.6218  1.5054
  413MOL0     H55721   7.344  10.129  10.087 -2.1150 -2.7326 -0.7263
  413MOL0     H55722   7.337  10.053   9.928 -0.2901 -0.3942  1.2282
  413MOL0     H55723   7.486  10.226   9.833  1.7980  1.3358  0.2759
  413MOL0     H55724   7.453  10.339   9.964 -4.9371  0.1429 -0.9741
  413MOL0     H55725   7.618  10.071   9.970  0.0962 -1.3665 -0.1786
  413MOL0     H55726   7.573  10.158  10.116 -0.8797  1.5729 -0.3180
  413MOL0     H55727   7.800  10.195  10.071 -0.3181 -0.0708  1.0622
  413MOL0     H55728   7.717  10.346  10.043 -2.0781  0.1785 -0.3925
  413MOL0     H55729   7.804  10.137   9.824  0.3441 -1.2999  3.0591
  413MOL0     H55730   7.708  10.285   9.791  0.9177  1.6306 -0.9275
  413MOL0     H55731   7.970  10.357   9.921  0.7181  0.3903  0.6789
  413MOL0     H55732   7.900  10.410   9.770 -0.8657 -1.3120  0.4552
  413MOL0     H55733   8.084  10.189   9.817  1.5553  1.7211 -0.8320
  413MOL0     H55734   7.968  10.171   9.681 -0.4090  2.9438 -1.1214
  413MOL0     H55735   6.893  10.130  10.157  1.7675  1.9578  2.1044
  413MOL0     H55736   6.662  10.209  10.126  1.7199 -1.7034  1.4471
  413MOL0     H55737   6.269  10.208   9.938  0.0747  0.3817  1.3622
  413MOL0     H55738   6.039  10.286   9.926  0.5203 -1.1871 -0.9016
  413MOL0     H55739   4.029  10.393  10.490 -2.9054  0.5008  0.3957
  413MOL0     H55740   3.862  10.382  10.639 -0.6874 -1.7631  0.7261
  413MOL0     H55741   3.518  10.476  10.984 -0.4949  0.6816  0.4732
  413MOL0     H55742   3.375  10.439  11.169 -0.6219 -1.4316  2.0415
  413MOL0     H55743   3.231  10.276  11.272 -1.9818 -2.0311  1.5140
  413MOL0     H55744   3.273  10.419  11.378 -2.9597  0.4821  1.0127
  413MOL0     H55745   3.251  10.249  11.572 -1.0264 -1.9771  0.3437
  413MOL0     H55746   3.182  10.135  11.453 -0.6294 -1.4504  2.0249
  413MOL0     H55747   3.039  10.401  11.457  1.5732  0.0397 -1.2343
  413MOL0     H55748   3.038  10.317  11.609  2.3556 -0.7986 -0.6524
  413MOL0     H55749   2.975  10.108  11.443 -1.5327 -0.1038  1.2163
  413MOL0     H55750   2.848  10.220  11.500  0.1784  0.2599  0.2240
  413MOL0     H55751   2.866  10.296  11.086  4.1433  0.0446 -0.6727
  413MOL0     H55752   3.671  10.172  11.337 -0.7722 -1.0795 -1.0542
  413MOL0     H55753   3.936  10.304  11.180 -2.9192  2.1340 -0.3700
  413MOL0     H55754   3.887  10.195  11.297  0.5166 -1.0434 -0.7064
  413MOL0     H55755   3.889  10.127  11.143 -3.3418 -0.8080 -1.3623
  414MOL0     O55756   6.559   2.158   4.813 -0.0677  0.1159 -0.4348
  414MOL0     C55757   6.521   2.104   4.710 -0.2023 -0.5818  0.0149
  414MOL0     O55758   6.606   2.037   4.614 -0.0506  0.1297  0.3764
  414MOL0     C55759   6.737   2.046   4.635  0.1496  0.5224 -0.1587
  414MOL0     C55760   6.808   2.156   4.677 -0.4359 -0.6475 -0.2207
  414MOL0     C55761   6.947   2.158   4.673  0.3222 -0.7299  1.7313
  414MOL0     C55762   7.018   2.054   4.608  0.5703  0.0969 -0.2828
  414MOL0     O55763   7.156   2.043   4.591  0.3242  0.1421  0.9792
  414MOL0     C55764   7.255   2.117   4.667  0.0823  0.9367 -0.2390
  414MOL0     C55765   7.396   2.059   4.652  0.0579 -0.0004 -1.0225
  414MOL0     C55766   7.506   2.111   4.753  0.0114 -1.0422 -0.0587
  414MOL0     C55767   7.639   2.019   4.755 -0.2127  0.3424 -0.3502
  414MOL0     C55768   7.765   2.100   4.791 -0.0493 -0.3977  0.0878
  414MOL0     C55769   7.893   2.030   4.730  0.0026  0.2150  0.1747
  414MOL0     C55770   8.016   2.109   4.734  0.9674 -1.0563  0.1828
  414MOL0     C55771   8.079   2.133   4.878  0.4626 -0.0694 -0.2413
  414MOL0     N55772   8.193   2.229   4.868  0.6063  0.1312  0.2305
  414MOL0     C55773   8.185   2.369   4.873 -0.3701  0.7637 -0.3726
  414MOL0     C55774   8.310   2.413   4.856 -0.2325 -0.1104 -0.5025
  414MOL0     C55775   8.341   2.563   4.832 -0.3781 -0.3524  0.0159
  414MOL0     C55776   8.493   2.579   4.811  0.8686  0.7544 -0.4604
  414MOL0     C55777   8.583   2.597   4.930 -0.4578 -0.4555 -0.2036
  414MOL0     C55778   8.724   2.599   4.893  0.1142 -0.1387 -0.7199
  414MOL0     O55779   8.767   2.719   4.825  0.0823  0.0252 -0.3042
  414MOL0     C55780   8.874   2.784   4.884 -0.1062 -1.1032 -0.4059
  414MOL0     C55781   8.873   2.924   4.886 -1.1337  0.5605  0.3966
  414MOL0     C55782   8.972   3.007   4.939 -0.7109  0.3050  0.1301
  414MOL0     C55783   9.086   2.941   5.001 -0.8169 -0.2335 -0.4125
  414MOL0     C55784   9.188   3.019   5.074 -0.3208  0.1369  0.5664
  414MOL0     O55785   9.275   2.955   5.151 -0.2296  0.5828  0.1724
  414MOL0     C55786   9.380   3.003   5.222 -0.9002 -0.2338 -0.3741
  414MOL0     C55787   9.419   3.144   5.225 -0.0250 -0.1403  0.2518
  414MOL0     C55788   9.537   3.178   5.288  0.1824 -0.6470  0.3518
  414MOL0     C55789   9.627   3.076   5.335  0.6510  0.1518 -0.4490
  414MOL0     O55790   9.755   3.116   5.356  0.4224 -0.1070 -0.1487
  414MOL0     C55791   9.857   3.015   5.363 -0.1685  0.5460  0.5409
  414MOL0     C55792   9.992   3.083   5.385  0.6881 -0.2308 -0.2046
  414MOL0     C55793  10.102   2.983   5.390 -0.0765  1.2266  0.1809
  414MOL0     C55794  10.237   3.029   5.343  0.3141 -0.2064 -0.7064
  414MOL0     C55795  10.338   2.923   5.382  0.2654  0.6402 -0.5889
  414MOL0     C55796  10.375   2.900   5.530 -0.0043  0.0933 -0.8966
  414MOL0     C55797  10.505   2.812   5.547 -0.1365 -0.0351 -0.6172
  414MOL0     C55798  10.632   2.892   5.531  0.0028  0.3124 -0.8931
  414MOL0    Cl55799  10.698   2.914   5.368  0.5307  0.0742 -0.3226
  414MOL0     C55800   9.585   2.936   5.338  0.3559  1.2676  0.2736
  414MOL0     C55801   9.464   2.900   5.276  0.5443  0.4742  0.2090
  414MOL0     O55802   9.181   3.138   5.061  0.4458  0.1001  0.4744
  414MOL0     C55803   9.101   2.803   4.986  1.0499 -0.0996 -1.4280
  414MOL0     C55804   8.995   2.729   4.930 -0.0428  0.2843 -0.4216
  414MOL0     N55805   8.399   2.301   4.859  0.0152  0.0992  0.6274
  414MOL0     N55806   8.325   2.196   4.877 -0.6372 -0.3063 -0.5085
  414MOL0     C55807   6.948   1.944   4.573  0.2210 -0.9354  0.7919
  414MOL0     C55808   6.809   1.935   4.590  0.1563 -0.6875 -0.1126
  414MOL0     C55809   6.376   2.100   4.696  0.3970 -0.2780  0.5070
  414MOL0     C55810   6.322   1.990   4.635 -0.3244  0.4763 -0.9696
  414MOL0     C55811   6.190   1.978   4.589  0.5617 -0.6843 -0.4113
  414MOL0     C55812   6.104   2.084   4.623  0.7142  0.7700  0.3944
  414MOL0     O55813   5.967   2.080   4.605 -0.5245 -0.2795  0.2698
  414MOL0     C55814   5.911   1.948   4.591  1.1437  0.3391 -0.4841
  414MOL0     C55815   5.754   1.956   4.572 -0.4540 -0.5863 -0.1773
  414MOL0     C55816   5.678   2.019   4.679 -0.6957  0.7771 -0.0713
  414MOL0     C55817   5.525   2.038   4.648  0.4712 -0.0843  0.1542
  414MOL0     C55818   5.461   1.926   4.573 -1.1168 -0.2460 -0.9551
  414MOL0     C55819   5.417   1.824   4.527  0.4385  0.2014 -0.0356
  414MOL0     C55820   6.161   2.202   4.677 -0.3801  0.0821  1.1314
  414MOL0     C55821   6.295   2.210   4.717  1.1788  0.2552  0.3192
  414MOL0     C55822   6.336   2.334   4.782 -0.9704 -0.2614  0.3534
  414MOL0     H55823   6.760   2.245   4.717 -0.0900 -0.3344 -0.4958
  414MOL0     H55824   7.003   2.246   4.703 -0.7163  1.8229 -2.7688
  414MOL0     H55825   7.260   2.221   4.632  1.7245  0.9099 -0.1570
  414MOL0     H55826   7.232   2.118   4.774 -3.7908  0.6327 -0.9233
  414MOL0     H55827   7.434   2.077   4.551  1.4596 -1.9888 -0.9141
  414MOL0     H55828   7.378   1.954   4.676  0.2802  0.3689  0.9873
  414MOL0     H55829   7.460   2.114   4.852 -0.9977  1.3261 -0.5405
  414MOL0     H55830   7.519   2.216   4.728 -0.8375 -0.9052  0.0476
  414MOL0     H55831   7.633   1.937   4.827  2.0235  0.8527  0.4992
  414MOL0     H55832   7.658   1.965   4.661  1.2913  0.7666 -0.3221
  414MOL0     H55833   7.751   2.200   4.750 -1.7310 -1.7167 -2.9160
  414MOL0     H55834   7.786   2.123   4.895 -1.9494 -1.1980  0.6943
  414MOL0     H55835   7.904   1.923   4.753  2.2531  0.7797  2.1305
  414MOL0     H55836   7.878   2.020   4.622 -0.9108 -3.0204  0.5027
  414MOL0     H55837   8.003   2.204   4.681 -2.5101 -1.6493 -0.2671
  414MOL0     H55838   8.089   2.053   4.675  0.5458  0.8468 -2.3166
  414MOL0     H55839   8.010   2.171   4.954  0.1474 -2.7615  0.9599
  414MOL0     H55840   8.115   2.035   4.912 -1.7319 -1.2442 -1.0771
  414MOL0     H55841   8.093   2.425   4.885 -0.7860 -0.0623  0.4408
  414MOL0     H55842   8.293   2.589   4.737  0.1539  2.5197  0.4552
  414MOL0     H55843   8.309   2.626   4.915 -2.4862 -0.5804 -0.5532
  414MOL0     H55844   8.523   2.506   4.735 -0.2819  3.2229 -3.5105
  414MOL0     H55845   8.508   2.669   4.751  1.0619 -1.3290 -3.8005
  414MOL0     H55846   8.558   2.517   5.000 -2.5601  1.2197  1.0762
  414MOL0     H55847   8.566   2.691   4.984 -1.6976 -1.7540  1.7828
  414MOL0     H55848   8.759   2.512   4.836 -2.2531 -1.5088 -0.2318
  414MOL0     H55849   8.783   2.577   4.983 -1.7915 -3.0285 -0.0338
  414MOL0     H55850   8.774   2.961   4.862 -1.4387 -1.2083 -1.2268
  414MOL0     H55851   8.957   3.112   4.917  1.7038  0.1744 -2.7000
  414MOL0     H55852   9.357   3.225   5.187  3.0181  1.9523 -0.6549
  414MOL0     H55853   9.572   3.280   5.279  0.9212 -0.9027  0.2235
  414MOL0     H55854   9.844   2.945   5.446 -0.8287  2.2067  1.9027
  414MOL0     H55855   9.856   2.966   5.265  2.8262 -2.0044  1.6299
  414MOL0     H55856  10.002   3.159   5.306 -0.0904 -0.6932 -0.7642
  414MOL0     H55857  10.002   3.142   5.476  1.1588  3.4278 -2.4021
  414MOL0     H55858  10.123   2.963   5.495  0.2954 -0.9041 -0.2485
  414MOL0     H55859  10.070   2.894   5.334 -0.2505  0.9512  0.7064
  414MOL0     H55860  10.251   3.121   5.399  0.8504 -1.5150  1.4433
  414MOL0     H55861  10.252   3.037   5.235  1.1329 -3.3142 -0.9435
  414MOL0     H55862  10.431   2.961   5.339  0.4011  1.9508  0.7674
  414MOL0     H55863  10.321   2.830   5.328  1.0095  1.4397 -2.2557
  414MOL0     H55864  10.379   2.991   5.590 -1.8644  0.0349 -0.6213
  414MOL0     H55865  10.299   2.838   5.578  1.3398 -1.4109 -0.6461
  414MOL0     H55866  10.508   2.731   5.474  0.8042  0.0073 -0.6431
  414MOL0     H55867  10.499   2.782   5.651  1.1850 -1.4046 -0.8995
  414MOL0     H55868  10.606   2.993   5.564  3.0602  1.2015 -0.9516
  414MOL0     H55869  10.713   2.848   5.590  1.5151  2.0712 -1.5750
  414MOL0     H55870   9.651   2.858   5.373 -0.1578  0.1552 -1.1338
  414MOL0     H55871   9.444   2.794   5.260  1.4685  0.6808 -3.1858
  414MOL0     H55872   9.184   2.759   5.040 -0.6290  0.7645  2.2160
  414MOL0     H55873   9.030   2.627   4.917  1.7583  0.8030  0.0297
  414MOL0     H55874   6.997   1.868   4.514 -3.4270 -1.9993 -1.1928
  414MOL0     H55875   6.758   1.848   4.550 -4.7570  2.0243 -0.4495
  414MOL0     H55876   6.389   1.907   4.612  1.4425  1.2433  1.0444
  414MOL0     H55877   6.158   1.887   4.541  1.9323 -1.9558  0.9989
  414MOL0     H55878   5.931   1.891   4.683 -1.5456 -0.2605 -0.1774
  414MOL0     H55879   5.950   1.891   4.506  1.1737  0.7615 -0.7578
  414MOL0     H55880   5.733   1.850   4.554  3.0144 -1.1704 -1.7783
  414MOL0     H55881   5.729   2.006   4.478 -1.2554 -0.1015  0.2841
  414MOL0     H55882   5.725   2.113   4.708  4.7358 -0.3854 -3.6592
  414MOL0     H55883   5.693   1.955   4.766  4.9754 -2.3991 -2.8184
  414MOL0     H55884   5.471   2.044   4.743  4.5869 -2.0589  2.9324
  414MOL0     H55885   5.515   2.136   4.599  3.8321  0.3786  0.1580
  414MOL0     H55886   5.379   1.732   4.489 -1.1710  0.6263  0.4442
  414MOL0     H55887   6.101   2.292   4.686  2.8218  2.4066  0.9788
  414MOL0     H55888   6.333   2.327   4.892 -0.5799 -1.8454  0.2948
  414MOL0     H55889   6.439   2.358   4.754 -1.1626  0.9430  0.6362
  414MOL0     H55890   6.293   2.430   4.752  4.4951  2.5550  0.1704
  415MOL0     O55891  11.001   4.970   8.564 -0.2031 -0.1811 -0.3298
  415MOL0     C55892  10.908   5.033   8.609  0.0868 -0.6007 -0.1638
  415MOL0     O55893  10.915   5.154   8.673 -0.3018  0.8622  0.4330
  415MOL0     C55894  11.033   5.222   8.696  0.0811  0.2016  0.0995
  415MOL0     C55895  11.016   5.356   8.712 -0.5307 -0.3453  0.0751
  415MOL0     C55896  11.115   5.439   8.763  0.4284 -0.2741  0.0471
  415MOL0     C55897  11.244   5.385   8.785  0.1058  0.3410  0.4375
  415MOL0     O55898  11.356   5.450   8.830 -0.1879 -0.5721 -0.0155
  415MOL0     C55899  11.366   5.593   8.840  0.7339 -0.6731 -0.9582
  415MOL0     C55900  11.491   5.629   8.921  0.1705  0.7833 -0.2472
  415MOL0     C55901  11.617   5.600   8.832  0.6482 -1.1535  0.9563
  415MOL0     C55902  11.728   5.547   8.909 -0.4581 -0.3699  0.3766
  415MOL0     C55903  11.849   5.535   8.817 -0.5849  0.5533 -0.4967
  415MOL0     C55904  11.958   5.454   8.884 -0.5850  0.3984 -0.1922
  415MOL0     C55905  12.077   5.440   8.794 -0.2193 -0.0375  0.1277
  415MOL0     C55906  12.178   5.340   8.856 -0.6318  0.1512 -0.2389
  415MOL0     N55907  12.317   5.364   8.806  0.3082 -0.1166  0.4175
  415MOL0     C55908  12.432   5.302   8.844 -0.8967  0.5214 -0.0188
  415MOL0     C55909  12.524   5.317   8.745 -0.0223 -0.6119  0.9931
  415MOL0     C55910  12.660   5.245   8.733  0.6236 -0.6941  0.2244
  415MOL0     C55911  12.773   5.337   8.807  0.0787  0.1510  0.3809
  415MOL0     C55912  12.888   5.242   8.850 -0.1509  0.1983 -0.2426
  415MOL0     C55913  12.973   5.182   8.731  0.3444 -1.2017 -0.2330
  415MOL0     O55914  13.067   5.094   8.782  0.3208  0.6906  0.1386
  415MOL0     C55915  13.175   5.154   8.826 -0.1429  0.5616 -0.1323
  415MOL0     C55916  13.194   5.158   8.961  0.5226  0.4545 -0.2370
  415MOL0     C55917  13.324   5.179   9.012 -0.1045 -0.4373  0.3958
  415MOL0     C55918  13.433   5.200   8.919 -0.4683 -0.4160  0.7480
  415MOL0     C55919  13.571   5.247   8.960 -0.1192  0.1484 -0.0474
  415MOL0     O55920  13.668   5.283   8.867 -0.2330  0.6265  0.2073
  415MOL0     C55921  13.797   5.320   8.903 -0.3344 -0.3845 -0.4920
  415MOL0     C55922  13.873   5.259   8.999  0.1594 -0.5821  0.2680
  415MOL0     C55923  14.005   5.284   9.010 -0.6609  0.4900 -0.9854
  415MOL0     C55924  14.062   5.376   8.923 -0.9416  0.8476  0.7043
  415MOL0     O55925  14.200   5.382   8.919 -0.3598 -0.2747 -0.4568
  415MOL0     C55926  14.265   5.336   8.798 -0.0713 -0.0088 -0.5198
  415MOL0     C55927  14.413   5.350   8.831 -1.0785 -0.3285 -0.3567
  415MOL0     C55928  14.445   5.259   8.960  0.7843  0.1712  0.1145
  415MOL0     C55929  14.552   5.165   8.915  0.2010 -0.8642  0.3817
  415MOL0     C55930  14.610   5.089   9.033  0.0591  0.4734 -0.3497
  415MOL0     C55931  14.729   5.156   9.100  0.1078  0.6348  0.2159
  415MOL0     C55932  14.791   5.054   9.209 -0.1970  0.2486 -0.3925
  415MOL0     C55933  14.926   5.109   9.263  0.3320 -0.6412  0.4635
  415MOL0    Cl55934  14.897   5.245   9.362 -0.0763  0.4063  0.3639
  415MOL0     C55935  13.994   5.442   8.823 -0.0528  0.0393 -0.4474
  415MOL0     C55936  13.856   5.416   8.817 -0.3019 -0.1460 -0.9267
  415MOL0     O55937  13.584   5.255   9.083 -0.4028 -0.9830 -0.0485
  415MOL0     C55938  13.408   5.208   8.779 -0.2109  0.7934 -0.1111
  415MOL0     C55939  13.273   5.187   8.738 -0.7293  0.0615  0.3007
  415MOL0     N55940  12.459   5.401   8.652 -1.2287  0.5514  0.9925
  415MOL0     N55941  12.338   5.427   8.684 -0.0350  0.6111 -0.2186
  415MOL0     C55942  11.270   5.248   8.755 -0.0859  0.1140 -0.1543
  415MOL0     C55943  11.160   5.161   8.717 -0.2167 -0.6421  0.0800
  415MOL0     C55944  10.766   4.981   8.602 -0.3330 -1.7232 -0.7774
  415MOL0     C55945  10.662   5.084   8.578 -0.2107  0.2970  0.3866
  415MOL0     C55946  10.529   5.047   8.578 -0.0583 -0.1927 -0.5586
  415MOL0     C55947  10.486   4.917   8.601  0.7688  0.7739 -0.4823
  415MOL0     O55948  10.352   4.895   8.613  0.0094 -0.4134  0.3951
  415MOL0     C55949  10.296   4.764   8.633  0.6708  0.4264  0.0452
  415MOL0     C55950  10.147   4.778   8.651  0.9224 -0.6924 -0.4993
  415MOL0     C55951  10.081   4.644   8.693 -0.1506  0.8260 -0.0540
  415MOL0     C55952   9.933   4.657   8.693 -0.1983 -0.1066 -0.4155
  415MOL0     C55953   9.885   4.535   8.749 -0.8511  0.7538 -0.0206
  415MOL0     C55954   9.846   4.429   8.786 -0.1292  0.5636  1.1805
  415MOL0     C55955  10.583   4.817   8.622  0.2551  0.1258  0.0139
  415MOL0     C55956  10.720   4.853   8.625  0.2658 -0.3674  0.0886
  415MOL0     C55957  10.818   4.747   8.650 -0.5835 -0.1413 -1.0746
  415MOL0     H55958  10.929   5.413   8.681  0.3033  0.0532 -1.5879
  415MOL0     H55959  11.091   5.543   8.782 -1.6724 -0.8750  1.0022
  415MOL0     H55960  11.378   5.621   8.735  0.0647  0.5181 -0.7246
  415MOL0     H55961  11.278   5.646   8.875 -0.0205 -2.5532  0.1620
  415MOL0     H55962  11.489   5.565   9.010 -0.2193  1.7115  0.4347
  415MOL0     H55963  11.490   5.734   8.952 -1.6985  0.4189  1.1277
  415MOL0     H55964  11.644   5.693   8.779  0.0206 -2.1402 -1.2060
  415MOL0     H55965  11.600   5.527   8.752 -0.0785 -0.1016  0.1180
  415MOL0     H55966  11.740   5.608   8.999  0.8825 -1.2341  0.8253
  415MOL0     H55967  11.693   5.446   8.932  0.6820 -0.8773 -0.0248
  415MOL0     H55968  11.824   5.479   8.726  0.8039  1.1236 -1.2611
  415MOL0     H55969  11.884   5.631   8.776  0.2193  0.1365 -0.8184
  415MOL0     H55970  11.991   5.496   8.980 -2.4218 -0.0350  0.6705
  415MOL0     H55971  11.921   5.354   8.908  2.8564 -1.0793 -0.4789
  415MOL0     H55972  12.127   5.536   8.777 -2.1565  1.2747  1.4711
  415MOL0     H55973  12.045   5.396   8.699 -2.5276  1.1841  0.2949
  415MOL0     H55974  12.178   5.323   8.964  1.3578 -1.5723 -0.4600
  415MOL0     H55975  12.151   5.241   8.819  1.7891 -1.5275  2.0917
  415MOL0     H55976  12.454   5.251   8.937 -4.5137 -0.2777  0.5210
  415MOL0     H55977  12.652   5.152   8.792  1.9593 -0.5836  0.6150
  415MOL0     H55978  12.675   5.218   8.628  0.2607  0.2036 -0.0624
  415MOL0     H55979  12.815   5.409   8.736 -0.5660  2.4180  2.1788
  415MOL0     H55980  12.738   5.398   8.891  5.3507  1.9341  1.6807
  415MOL0     H55981  12.836   5.169   8.913 -0.3987  1.2554  0.8253
  415MOL0     H55982  12.958   5.296   8.915  0.6525 -1.5114  0.3775
  415MOL0     H55983  13.016   5.269   8.681 -1.7158 -0.5371 -0.9419
  415MOL0     H55984  12.931   5.114   8.656  2.9447 -3.2937  0.0450
  415MOL0     H55985  13.121   5.122   9.032 -0.1144 -2.8859 -2.3553
  415MOL0     H55986  13.338   5.181   9.120 -2.1296 -1.6672  0.7336
  415MOL0     H55987  13.825   5.184   9.060 -0.8138  0.0812  0.3318
  415MOL0     H55988  14.057   5.223   9.083  2.0251 -1.1123 -3.9757
  415MOL0     H55989  14.237   5.235   8.765 -0.9528  0.9178 -2.8297
  415MOL0     H55990  14.234   5.406   8.720 -2.4075  0.5765  0.8352
  415MOL0     H55991  14.465   5.314   8.742 -1.0156 -2.6502  0.5373
  415MOL0     H55992  14.432   5.455   8.855 -0.1184 -0.8874  1.4969
  415MOL0     H55993  14.479   5.320   9.044 -0.3429  2.4011 -0.9616
  415MOL0     H55994  14.359   5.198   8.991  2.3207 -2.1605  0.0200
  415MOL0     H55995  14.639   5.211   8.866 -1.5116  2.0265 -0.2351
  415MOL0     H55996  14.505   5.097   8.843  1.9927 -1.4622 -0.2788
  415MOL0     H55997  14.653   4.995   8.997  0.8286  0.2269  1.1149
  415MOL0     H55998  14.531   5.068   9.106  0.0651  2.6668  0.3574
  415MOL0     H55999  14.808   5.171   9.025 -2.6009 -0.8860 -3.2445
  415MOL0     H56000  14.701   5.251   9.146 -2.8967 -1.2952  2.7833
  415MOL0     H56001  14.819   4.957   9.167 -1.8364  0.2660 -1.6367
  415MOL0     H56002  14.710   5.043   9.281 -0.3369 -2.0841 -0.8371
  415MOL0     H56003  14.967   5.028   9.324 -0.2644 -1.1715  0.1680
  415MOL0     H56004  14.996   5.128   9.181 -1.9262  1.1421 -1.1648
  415MOL0     H56005  14.053   5.520   8.775  2.9096  0.1266  2.9368
  415MOL0     H56006  13.785   5.457   8.746 -3.6394  1.4229  2.9769
  415MOL0     H56007  13.489   5.232   8.712  0.2516  0.9017  0.4773
  415MOL0     H56008  13.263   5.186   8.630  1.2292 -0.9853  0.0816
  415MOL0     H56009  11.367   5.202   8.772 -1.5998 -2.6545  1.6641
  415MOL0     H56010  11.158   5.053   8.704 -1.6506 -0.5329 -0.8296
  415MOL0     H56011  10.693   5.184   8.551 -2.6225  0.5929 -1.5879
  415MOL0     H56012  10.453   5.121   8.556  0.5236  0.4954 -0.2912
  415MOL0     H56013  10.336   4.717   8.724 -1.5127 -1.4732  0.0982
  415MOL0     H56014  10.324   4.713   8.540 -1.3865  1.5440 -1.2489
  415MOL0     H56015  10.107   4.822   8.560  1.5724  1.8614  0.3565
  415MOL0     H56016  10.134   4.852   8.731 -3.1152 -2.9816  1.2686
  415MOL0     H56017  10.112   4.629   8.797 -2.2327  2.0839  0.8118
  415MOL0     H56018  10.112   4.564   8.625 -2.1485  0.0943 -0.1585
  415MOL0     H56019   9.901   4.744   8.750 -3.0201  0.0667 -2.0906
  415MOL0     H56020   9.892   4.671   8.592 -3.7467  0.9008  1.0269
  415MOL0     H56021   9.796   4.335   8.802  2.0339 -0.8342  0.1801
  415MOL0     H56022  10.558   4.712   8.638  1.2601 -0.2952 -0.9860
  415MOL0     H56023  10.774   4.655   8.688  0.3939  0.3891  1.6009
  415MOL0     H56024  10.879   4.742   8.560  0.2574  1.7544 -0.6625
  415MOL0     H56025  10.885   4.778   8.732  0.4243 -0.1693 -1.8644
  416MOL0     O56026   0.656   9.857  10.198 -0.2123 -0.6914 -0.2735
  416MOL0     C56027   0.600   9.903  10.292  0.2551  0.2638 -0.0872
  416MOL0     O56028   0.657   9.951  10.402 -0.0014 -0.0715 -0.3198
  416MOL0     C56029   0.795   9.971  10.392  0.4586  0.1909 -0.3253
  416MOL0     C56030   0.885   9.870  10.385  0.6560  0.9009  1.2244
  416MOL0     C56031   1.023   9.889  10.391  0.3199 -0.3573  0.6144
  416MOL0     C56032   1.066  10.020  10.406 -0.3231 -0.5138 -1.0821
  416MOL0     O56033   1.205  10.033  10.414  0.3917 -0.2720  0.2590
  416MOL0     C56034   1.272  10.135  10.331 -0.4011  0.2175  1.2451
  416MOL0     C56035   1.420  10.121  10.333  0.6131  0.0077  0.3620
  416MOL0     C56036   1.476   9.982  10.305  0.3115  0.5215  0.2536
  416MOL0     C56037   1.401   9.891  10.202 -0.2225 -0.5752 -0.9335
  416MOL0     C56038   1.480   9.761  10.169  0.2542  0.1598 -0.9107
  416MOL0     C56039   1.599   9.780  10.078  0.0189  0.4076 -0.4736
  416MOL0     C56040   1.552   9.829   9.941 -0.6942  0.1234 -0.2758
  416MOL0     C56041   1.648   9.788   9.826  0.1393 -0.4470 -0.2435
  416MOL0     N56042   1.781   9.846   9.854 -0.0760 -1.0259  0.8872
  416MOL0     C56043   1.842   9.953   9.788 -0.1793  0.2872  0.4914
  416MOL0     C56044   1.972   9.954   9.838  1.1076  0.2534 -0.2608
  416MOL0     C56045   2.078  10.045   9.806 -0.4931 -0.2545 -0.5040
  416MOL0     C56046   2.141  10.126   9.925 -0.4998  0.6231  0.0403
  416MOL0     C56047   2.243  10.238   9.886 -0.4664 -0.0358  0.1081
  416MOL0     C56048   2.280  10.324  10.006 -0.1334 -0.4901  0.1081
  416MOL0     O56049   2.398  10.391   9.967  0.7705 -0.6351  0.5813
  416MOL0     C56050   2.455  10.482  10.055  0.8239 -0.4305 -0.0142
  416MOL0     C56051   2.586  10.526  10.027  0.3075 -0.7730  0.7201
  416MOL0     C56052   2.664  10.601  10.111  0.3750 -0.4818 -0.3186
  416MOL0     C56053   2.604  10.637  10.239 -1.3832  0.0417 -0.3811
  416MOL0     C56054   2.696  10.680  10.344  0.9395  0.4242  0.3798
  416MOL0     O56055   2.636  10.677  10.470 -0.6316  0.1614 -0.4084
  416MOL0     C56056   2.714  10.721  10.580  0.2298 -0.0030 -0.7958
  416MOL0     C56057   2.656  10.814  10.673  0.2198  0.2847 -0.1327
  416MOL0     C56058   2.730  10.857  10.785 -0.5070 -0.3236  0.5620
  416MOL0     C56059   2.860  10.803  10.810  0.9197  0.0470 -0.2444
  416MOL0     O56060   2.937  10.852  10.910 -0.8492  0.5001 -0.5269
  416MOL0     C56061   2.883  10.894  11.039 -0.5315 -0.7736  0.8363
  416MOL0     C56062   2.999  10.937  11.133  0.3178  0.6021  0.3669
  416MOL0     C56063   3.079  10.811  11.171  0.2518  0.9915  0.0971
  416MOL0     C56064   3.200  10.851  11.251  0.2905 -0.8050 -0.5406
  416MOL0     C56065   3.299  10.733  11.261 -0.1588 -0.0676  0.0213
  416MOL0     C56066   3.416  10.785  11.331  0.0471 -0.1918  0.7606
  416MOL0     C56067   3.530  10.692  11.326 -0.6513 -0.3381  0.4562
  416MOL0     C56068   3.653  10.752  11.394  0.5019 -0.4624  0.0150
  416MOL0    Cl56069   3.622  10.817  11.558  0.2383 -0.0790 -0.0251
  416MOL0     C56070   2.914  10.711  10.724 -0.2884  0.6673 -0.1754
  416MOL0     C56071   2.849  10.682  10.602 -0.2898 -0.0465 -0.7388
  416MOL0     O56072   2.810  10.727  10.307  0.1485  0.6272 -0.4704
  416MOL0     C56073   2.471  10.604  10.266  0.1282  0.3186 -0.3272
  416MOL0     C56074   2.398  10.520  10.181 -0.0561 -0.1973  0.8380
  416MOL0     N56075   1.987   9.834   9.912 -0.0573 -0.6642 -0.5053
  416MOL0     N56076   1.869   9.775   9.927  0.1570  0.4047 -0.5788
  416MOL0     C56077   0.978  10.133  10.417 -0.3192  0.3069 -0.1058
  416MOL0     C56078   0.838  10.106  10.406 -0.3044 -0.2087 -0.5296
  416MOL0     C56079   0.451   9.906  10.293  0.5838 -0.5837 -0.6580
  416MOL0     C56080   0.386  10.009  10.361  0.0012 -0.7612  0.0747
  416MOL0     C56081   0.249  10.022  10.360 -0.2988 -0.4402  0.2501
  416MOL0     C56082   0.166   9.928  10.295  0.6919  0.2189  0.3622
  416MOL0     O56083   0.031   9.941  10.287  0.4205  0.5251  0.1592
  416MOL0     C56084  -0.018  10.041  10.194 -0.8366 -0.1488 -0.9321
  416MOL0     C56085  -0.161  10.014  10.146  0.8721  0.4427  0.1472
  416MOL0     C56086  -0.256  10.045  10.268  0.5333 -0.1290  0.9898
  416MOL0     C56087  -0.397   9.999  10.244  0.5504  0.4106 -0.3488
  416MOL0     C56088  -0.469   9.986  10.371  0.3280  1.0539 -0.1988
  416MOL0     C56089  -0.531   9.971  10.478  0.5089  0.4821 -0.1793
  416MOL0     C56090   0.220   9.820  10.229 -0.2395  1.1106 -0.0800
  416MOL0     C56091   0.361   9.812  10.228 -0.1348  0.3857  0.8116
  416MOL0     C56092   0.421   9.690  10.159  0.5738  1.1378 -0.2021
  416MOL0     H56093   0.850   9.770  10.363  2.2131  0.7173 -0.7261
  416MOL0     H56094   1.096   9.812  10.368 -1.0557 -1.4641 -0.2254
  416MOL0     H56095   1.235  10.134  10.228  3.9113 -0.3058 -0.4908
  416MOL0     H56096   1.250  10.233  10.374  0.2172 -1.0109  4.6243
  416MOL0     H56097   1.430  10.144  10.440 -2.7867  2.5773  0.2819
  416MOL0     H56098   1.458  10.195  10.263 -0.9033  1.6121  1.1424
  416MOL0     H56099   1.488   9.929  10.400 -0.2794 -1.4583 -0.7154
  416MOL0     H56100   1.575   9.995  10.260  1.2392  0.2633  2.1305
  416MOL0     H56101   1.304   9.864  10.245 -0.9411  0.4839 -1.8343
  416MOL0     H56102   1.388   9.957  10.116 -0.5037 -0.5412 -0.8661
  416MOL0     H56103   1.509   9.718  10.265  1.9376  0.4827 -1.2386
  416MOL0     H56104   1.404   9.701  10.120 -0.6650 -0.7869  1.5438
  416MOL0     H56105   1.665   9.856  10.119  0.9021 -0.9188  0.6328
  416MOL0     H56106   1.651   9.685  10.067  0.2782  0.3407  1.1024
  416MOL0     H56107   1.558   9.939   9.944 -1.9514  0.4243 -3.9160
  416MOL0     H56108   1.448   9.799   9.927 -0.7759  0.3651 -0.1925
  416MOL0     H56109   1.668   9.681   9.815 -2.7482 -0.9998 -0.9834
  416MOL0     H56110   1.623   9.831   9.728 -0.9241  0.1183  0.2595
  416MOL0     H56111   1.794  10.026   9.724  1.0854 -2.2308 -3.6913
  416MOL0     H56112   2.154   9.987   9.754  0.8141  0.7158  0.2746
  416MOL0     H56113   2.056  10.122   9.731 -1.5196 -1.1853 -1.1927
  416MOL0     H56114   2.056  10.160   9.985 -1.6813  1.1864 -1.8402
  416MOL0     H56115   2.194  10.054   9.987  1.0539  0.6326 -1.2348
  416MOL0     H56116   2.197  10.302   9.809  0.1151 -0.2617 -0.4367
  416MOL0     H56117   2.339  10.200   9.849  0.9155  0.2917  3.0983
  416MOL0     H56118   2.311  10.268  10.095  0.5189 -1.0724 -0.4724
  416MOL0     H56119   2.193  10.388  10.019 -1.9590 -2.9672  0.9648
  416MOL0     H56120   2.632  10.499   9.933 -1.0879  2.0793 -0.9310
  416MOL0     H56121   2.764  10.632  10.082 -0.3937  0.2840 -2.3472
  416MOL0     H56122   2.558  10.858  10.654  0.1661 -0.3066 -1.3735
  416MOL0     H56123   2.695  10.938  10.847  1.0731  0.8636 -0.0334
  416MOL0     H56124   2.818  10.981  11.028 -2.0812 -1.9630  0.3411
  416MOL0     H56125   2.823  10.809  11.072 -0.4491 -0.4529  1.8583
  416MOL0     H56126   3.063  11.018  11.098  0.8825  0.3068  0.7052
  416MOL0     H56127   2.941  10.979  11.216 -1.2731 -1.2416  0.2612
  416MOL0     H56128   3.010  10.751  11.231 -0.5289  0.9467 -0.8217
  416MOL0     H56129   3.102  10.753  11.082 -0.6978 -0.2154  0.6048
  416MOL0     H56130   3.162  10.885  11.348 -0.0907 -1.7045 -0.3652
  416MOL0     H56131   3.249  10.936  11.201  0.5940  0.2355  1.4445
  416MOL0     H56132   3.329  10.715  11.157 -0.3696  2.4690 -0.5619
  416MOL0     H56133   3.263  10.641  11.306 -0.2753  0.9397  2.0863
  416MOL0     H56134   3.449  10.875  11.278  1.9198 -1.5188 -0.4702
  416MOL0     H56135   3.392  10.803  11.436 -4.1360  0.9787 -0.1855
  416MOL0     H56136   3.562  10.660  11.227 -2.5288 -1.2927  0.1131
  416MOL0     H56137   3.509  10.603  11.387 -2.7403  0.9573  1.7424
  416MOL0     H56138   3.740  10.686  11.394 -1.2369 -2.8840  0.6693
  416MOL0     H56139   3.688  10.837  11.335 -0.0561 -0.5394 -0.4326
  416MOL0     H56140   3.018  10.685  10.741 -0.4116  0.5811  0.4520
  416MOL0     H56141   2.906  10.621  10.532  1.0834  1.0169 -0.5945
  416MOL0     H56142   2.429  10.632  10.362  2.2744  2.4602  0.0780
  416MOL0     H56143   2.298  10.484  10.204 -0.9273  0.7964 -1.1362
  416MOL0     H56144   1.012  10.235  10.437 -0.7925  0.3055  0.7559
  416MOL0     H56145   0.761  10.183  10.404 -0.3762 -0.2096  0.8814
  416MOL0     H56146   0.438  10.079  10.425  0.7126 -1.6100  0.4485
  416MOL0     H56147   0.198  10.114  10.386 -0.3246 -0.1184 -0.8872
  416MOL0     H56148   0.038  10.040  10.101 -2.1224 -0.5222 -1.7363
  416MOL0     H56149  -0.026  10.138  10.244 -0.0508 -1.9122  3.0160
  416MOL0     H56150  -0.165   9.909  10.116  0.8062  0.4370  0.1770
  416MOL0     H56151  -0.192  10.079  10.063 -1.6582 -0.4078  0.3403
  416MOL0     H56152  -0.267  10.151  10.292 -6.0735 -0.2092  0.1630
  416MOL0     H56153  -0.208  10.006  10.358  4.0802  0.5230 -0.4491
  416MOL0     H56154  -0.455  10.060  10.174 -0.4716 -1.1246 -0.8886
  416MOL0     H56155  -0.403   9.904  10.190  0.1785 -0.3110  0.9225
  416MOL0     H56156  -0.583   9.961  10.571 -0.4155  1.6687 -0.5506
  416MOL0     H56157   0.152   9.753  10.180  2.6733  0.1235 -3.1416
  416MOL0     H56158   0.497   9.720  10.086  2.1019  2.2173  1.7626
  416MOL0     H56159   0.464   9.627  10.237 -2.6602 -0.0159  0.8085
  416MOL0     H56160   0.345   9.628  10.110  0.2967 -0.9060  2.6124
  417MOL0     O56161   8.872   0.132   4.162  0.2879  0.0289  0.6844
  417MOL0     C56162   8.970   0.075   4.105  0.5666  0.1732  0.0524
  417MOL0     O56163   8.958  -0.016   3.998  0.1242 -0.2523 -0.7842
  417MOL0     C56164   8.833  -0.034   3.955  0.4673  0.8838  0.2049
  417MOL0     C56165   8.763  -0.151   4.009 -0.6762  0.3227 -0.2488
  417MOL0     C56166   8.629  -0.168   3.968  0.4778 -0.0914  0.9737
  417MOL0     C56167   8.568  -0.090   3.862  0.0237 -0.0994  0.4641
  417MOL0     O56168   8.436  -0.116   3.828  0.3699 -0.7473  0.1380
  417MOL0     C56169   8.381  -0.040   3.722 -0.6572  0.4481  0.1170
  417MOL0     C56170   8.226  -0.043   3.734 -0.8452  0.4298  0.0257
  417MOL0     C56171   8.168  -0.184   3.718 -0.4041 -0.2974 -0.5193
  417MOL0     C56172   8.184  -0.250   3.582 -0.6809 -0.5177 -1.6248
  417MOL0     C56173   8.111  -0.379   3.573 -0.5668  0.2217 -0.7516
  417MOL0     C56174   8.075  -0.404   3.429 -0.6846  0.2012  0.2618
  417MOL0     C56175   7.984  -0.525   3.434  0.0162  0.7094  0.1403
  417MOL0     C56176   7.961  -0.577   3.288  0.8056 -1.2115  0.3626
  417MOL0     N56177   7.889  -0.698   3.289 -0.0959 -0.6085  0.4555
  417MOL0     C56178   7.930  -0.820   3.350  0.4018  0.0975 -0.1364
  417MOL0     C56179   7.826  -0.899   3.340 -0.0288  0.1586  0.8486
  417MOL0     C56180   7.801  -1.045   3.372  0.5344  0.0558 -0.1595
  417MOL0     C56181   7.830  -1.149   3.259 -0.2586 -0.1824  0.0519
  417MOL0     C56182   7.925  -1.101   3.149  0.3313 -0.3722  0.5971
  417MOL0     C56183   7.956  -1.210   3.053 -0.1739 -0.0655  0.2256
  417MOL0     O56184   8.004  -1.328   3.119 -0.2267  0.4908  1.0690
  417MOL0     C56185   8.142  -1.340   3.144 -1.3252 -0.8156  0.3314
  417MOL0     C56186   8.242  -1.242   3.108  1.0958 -0.3226  0.3901
  417MOL0     C56187   8.364  -1.254   3.174 -0.6461 -0.8603  0.1017
  417MOL0     C56188   8.400  -1.367   3.246 -0.4240  0.4716  0.0551
  417MOL0     C56189   8.531  -1.366   3.317  0.7195  0.4271  1.1293
  417MOL0     O56190   8.546  -1.436   3.434 -0.0076  0.1061 -0.6645
  417MOL0     C56191   8.670  -1.443   3.498 -0.1740 -0.2056 -0.5688
  417MOL0     C56192   8.708  -1.353   3.594  0.4400 -0.0522 -0.2395
  417MOL0     C56193   8.823  -1.367   3.667 -0.0799  0.3401  0.7673
  417MOL0     C56194   8.923  -1.454   3.614  1.2113  0.5313 -0.2281
  417MOL0     O56195   9.056  -1.465   3.647 -0.7673 -0.2376  0.2997
  417MOL0     C56196   9.108  -1.343   3.688 -0.1891  0.6328 -0.4949
  417MOL0     C56197   9.259  -1.361   3.703  0.5599 -0.0065  1.1215
  417MOL0     C56198   9.306  -1.505   3.740 -0.5818 -0.4597  0.4432
  417MOL0     C56199   9.443  -1.505   3.808  0.2989  0.5310  0.7058
  417MOL0     C56200   9.540  -1.423   3.723  0.3776 -0.0315  0.0554
  417MOL0     C56201   9.671  -1.405   3.796 -0.5641  0.2663 -0.2603
  417MOL0     C56202   9.745  -1.534   3.804 -0.4139  0.6263  0.7029
  417MOL0     C56203   9.877  -1.520   3.885 -0.3724  1.6577 -0.1878
  417MOL0    Cl56204   9.979  -1.405   3.810 -0.0517 -0.0478 -0.3404
  417MOL0     C56205   8.881  -1.544   3.520 -0.6517  0.9891  0.7823
  417MOL0     C56206   8.759  -1.540   3.467  0.3572  1.0236  0.0536
  417MOL0     O56207   8.628  -1.322   3.254  0.2077  0.4621  0.0934
  417MOL0     C56208   8.306  -1.473   3.255  0.5543 -0.2726  0.4278
  417MOL0     C56209   8.182  -1.456   3.216  0.4645 -0.6452 -0.1743
  417MOL0     N56210   7.727  -0.827   3.277  0.3908  1.0945  0.5489
  417MOL0     N56211   7.755  -0.707   3.252 -0.4469 -0.0196  0.6680
  417MOL0     C56212   8.644   0.015   3.809  1.1407 -0.3196  0.2742
  417MOL0     C56213   8.769   0.043   3.851 -0.1358  0.7104  0.1310
  417MOL0     C56214   9.102   0.107   4.157  0.0579 -0.0100  0.6662
  417MOL0     C56215   9.109   0.163   4.289  0.0160 -0.3253  0.2004
  417MOL0     C56216   9.230   0.188   4.354  1.1085  0.0144 -0.6696
  417MOL0     C56217   9.351   0.163   4.290 -0.4783 -0.8321 -0.7050
  417MOL0     O56218   9.471   0.204   4.344  0.6121 -0.3325  0.2137
  417MOL0     C56219   9.452   0.270   4.472 -0.6771 -0.2170 -0.0422
  417MOL0     C56220   9.588   0.286   4.547 -0.3004  0.8392 -0.7858
  417MOL0     C56221   9.674   0.393   4.477 -0.5089  0.8492 -1.2648
  417MOL0     C56222   9.805   0.398   4.543  1.2015 -0.4955 -0.1345
  417MOL0     C56223   9.874   0.522   4.515  0.6679  0.7350 -0.1577
  417MOL0     C56224   9.922   0.634   4.497 -0.2260 -0.3975  0.5245
  417MOL0     C56225   9.344   0.112   4.162  0.3204 -0.0912 -0.3679
  417MOL0     C56226   9.228   0.084   4.089  0.6437 -0.8107 -0.6094
  417MOL0     C56227   9.232   0.034   3.952 -0.1055 -0.2723 -0.2573
  417MOL0     H56228   8.811  -0.227   4.069  0.9368  1.5636  0.0957
  417MOL0     H56229   8.571  -0.242   4.021 -0.0110 -0.7628 -0.4414
  417MOL0     H56230   8.403   0.067   3.730  1.2886 -0.0083  1.8731
  417MOL0     H56231   8.408  -0.083   3.625 -0.0646 -0.8860  0.8515
  417MOL0     H56232   8.173   0.019   3.661  0.0130  1.7586  0.4899
  417MOL0     H56233   8.205  -0.006   3.835  0.2419 -0.3878  0.5745
  417MOL0     H56234   8.062  -0.196   3.742 -0.8907  0.0045 -2.4279
  417MOL0     H56235   8.214  -0.244   3.798  3.1041 -0.0939 -2.2041
  417MOL0     H56236   8.139  -0.187   3.505 -2.1827  0.1363 -0.2941
  417MOL0     H56237   8.289  -0.257   3.553 -0.3307 -0.4764 -0.4184
  417MOL0     H56238   8.179  -0.456   3.610  1.0842  1.2970 -1.4357
  417MOL0     H56239   8.022  -0.369   3.636  0.1666  2.2049  0.0469
  417MOL0     H56240   8.030  -0.319   3.376  2.4392 -0.3629 -3.7316
  417MOL0     H56241   8.166  -0.429   3.375 -1.0831 -1.7888  0.4393
  417MOL0     H56242   7.887  -0.509   3.481  0.3993 -0.2602  1.2834
  417MOL0     H56243   8.035  -0.596   3.499 -0.1261  0.2577 -0.2326
  417MOL0     H56244   7.907  -0.498   3.235  0.0486 -0.4925  2.1308
  417MOL0     H56245   8.054  -0.570   3.231 -0.2025 -0.2917 -1.3000
  417MOL0     H56246   8.031  -0.846   3.381  0.7724  1.7696  0.1514
  417MOL0     H56247   7.865  -1.074   3.456 -1.6302 -1.9569  0.9305
  417MOL0     H56248   7.697  -1.058   3.403 -0.0850 -0.6008 -2.3272
  417MOL0     H56249   7.865  -1.243   3.302  3.1965  0.7223 -0.4042
  417MOL0     H56250   7.739  -1.162   3.201  1.9095 -0.8254 -3.5594
  417MOL0     H56251   8.028  -1.078   3.177  0.2472  0.4744  0.2494
  417MOL0     H56252   7.876  -1.015   3.102 -0.0715 -0.9213 -0.0062
  417MOL0     H56253   8.026  -1.178   2.975  1.0101  0.1568  1.3380
  417MOL0     H56254   7.862  -1.225   2.999 -0.5374 -0.0361  0.8419
  417MOL0     H56255   8.221  -1.148   3.059  0.1673  1.0555  3.1852
  417MOL0     H56256   8.431  -1.173   3.147 -2.9148  0.6999 -1.1479
  417MOL0     H56257   8.639  -1.273   3.618 -1.3152 -1.4232 -0.5312
  417MOL0     H56258   8.842  -1.297   3.748  0.7685  0.6316  0.3264
  417MOL0     H56259   9.084  -1.265   3.615 -2.1886 -1.1777 -1.8742
  417MOL0     H56260   9.063  -1.311   3.782 -3.0416  2.3186 -2.2962
  417MOL0     H56261   9.299  -1.335   3.605 -0.5167  0.8892  0.8915
  417MOL0     H56262   9.303  -1.293   3.777  1.3007 -2.3321  2.9197
  417MOL0     H56263   9.239  -1.546   3.817 -0.9075  1.6201  1.3398
  417MOL0     H56264   9.299  -1.561   3.646 -2.9343  3.6235 -2.1209
  417MOL0     H56265   9.466  -1.612   3.814 -3.3301 -0.3753  1.0255
  417MOL0     H56266   9.433  -1.471   3.912  0.3729 -3.2081  2.0829
  417MOL0     H56267   9.494  -1.324   3.714 -1.8154 -0.9109  0.8185
  417MOL0     H56268   9.548  -1.467   3.624 -2.9186 -0.6972 -0.0427
  417MOL0     H56269   9.728  -1.326   3.747 -0.6259  0.1475 -0.5263
  417MOL0     H56270   9.651  -1.375   3.899 -2.3303  1.4010 -0.8833
  417MOL0     H56271   9.771  -1.578   3.707  0.3620 -0.6508  1.4507
  417MOL0     H56272   9.688  -1.605   3.865 -1.9059  1.7066  0.6029
  417MOL0     H56273   9.846  -1.503   3.989 -0.3238 -0.2151  0.1635
  417MOL0     H56274   9.926  -1.617   3.891  0.8229  2.2745  0.5563
  417MOL0     H56275   8.958  -1.610   3.481 -1.5009 -0.3390  1.2697
  417MOL0     H56276   8.723  -1.607   3.390 -2.0536 -0.0202  1.9754
  417MOL0     H56277   8.328  -1.568   3.302 -0.0268 -0.6356 -0.0229
  417MOL0     H56278   8.112  -1.539   3.219  1.0180 -1.1004  0.3581
  417MOL0     H56279   8.601   0.082   3.735  1.4849  0.6113  0.9023
  417MOL0     H56280   8.809   0.129   3.798 -0.6893  1.8890  1.5538
  417MOL0     H56281   9.017   0.187   4.342 -1.4471  1.3383 -2.8513
  417MOL0     H56282   9.219   0.228   4.454  4.6482  0.6295 -0.4014
  417MOL0     H56283   9.400   0.202   4.541 -0.4129 -0.4652 -0.0836
  417MOL0     H56284   9.394   0.361   4.454  0.3080 -0.1633 -3.6032
  417MOL0     H56285   9.641   0.191   4.549 -1.5416  0.1432  0.1603
  417MOL0     H56286   9.564   0.311   4.651 -2.9250  0.6302 -1.2687
  417MOL0     H56287   9.630   0.491   4.499  0.1439  0.8794  0.0687
  417MOL0     H56288   9.682   0.372   4.370 -2.1484 -1.9306 -0.9146
  417MOL0     H56289   9.796   0.383   4.651  1.7849  0.8391  0.1245
  417MOL0     H56290   9.874   0.321   4.507  3.7001  1.0604  1.0374
  417MOL0     H56291   9.949   0.734   4.469  1.8692 -0.6288  1.5623
  417MOL0     H56292   9.435   0.110   4.103  1.2507  1.7951  0.8960
  417MOL0     H56293   9.199  -0.070   3.952 -0.1154 -0.3456  2.2474
  417MOL0     H56294   9.165   0.093   3.890  0.4776 -1.2747 -1.8849
  417MOL0     H56295   9.331   0.045   3.907  0.1355  0.9218  0.5102
  418MOL0     O56296   6.896   5.253   7.890  0.2207 -0.6584  0.3062
  418MOL0     C56297   6.846   5.173   7.811  0.1084 -1.1029 -0.6509
  418MOL0     O56298   6.913   5.124   7.705 -0.1196 -0.7033 -0.4438
  418MOL0     C56299   7.027   5.182   7.660  0.5114  0.5894  0.0588
  418MOL0     C56300   7.143   5.105   7.655 -0.2833 -0.3700  0.9131
  418MOL0     C56301   7.262   5.157   7.591 -1.0750 -0.2960 -1.4576
  418MOL0     C56302   7.261   5.278   7.528 -0.4658  0.3032 -0.1907
  418MOL0     O56303   7.371   5.334   7.470  0.0723  0.1811  0.1958
  418MOL0     C56304   7.497   5.268   7.467  0.0213 -0.6574 -0.6563
  418MOL0     C56305   7.608   5.363   7.418  1.0230 -0.0232 -0.1104
  418MOL0     C56306   7.750   5.310   7.427 -1.0341  0.4960 -0.5342
  418MOL0     C56307   7.765   5.165   7.385 -0.4338  0.9284 -0.1293
  418MOL0     C56308   7.904   5.123   7.371  0.1717  0.3289  1.0172
  418MOL0     C56309   7.925   5.010   7.277 -0.4095  0.0892  0.1650
  418MOL0     C56310   8.078   4.996   7.249  0.2503  0.1556 -0.3128
  418MOL0     C56311   8.096   4.885   7.134  0.0357 -0.4599 -0.5307
  418MOL0     N56312   8.222   4.897   7.059  0.6126  0.1986 -0.1247
  418MOL0     C56313   8.342   4.860   7.117  0.4509  0.5088 -0.0451
  418MOL0     C56314   8.440   4.904   7.034 -0.0582 -0.2444 -0.0906
  418MOL0     C56315   8.581   4.903   7.040  0.1167 -0.1837 -1.1472
  418MOL0     C56316   8.642   4.819   6.936  0.2306 -0.8011 -0.9802
  418MOL0     C56317   8.795   4.804   6.967 -0.7437 -0.4465  0.5581
  418MOL0     C56318   8.854   4.716   6.852 -0.6361  0.8700  0.7958
  418MOL0     O56319   8.857   4.787   6.731 -0.1555 -0.0107  0.1093
  418MOL0     C56320   8.976   4.844   6.694 -0.1342 -0.4897  0.4219
  418MOL0     C56321   9.068   4.887   6.788 -0.4158 -0.0528  0.1421
  418MOL0     C56322   9.192   4.950   6.743 -0.7501  0.4965  0.0277
  418MOL0     C56323   9.216   4.968   6.601 -0.8451  0.0106 -0.1103
  418MOL0     C56324   9.351   5.007   6.548  0.1560 -0.2525 -0.7439
  418MOL0     O56325   9.437   5.043   6.657  0.4255 -0.5930 -0.6092
  418MOL0     C56326   9.562   5.088   6.621  0.4696 -0.2818  0.3675
  418MOL0     C56327   9.589   5.223   6.648 -0.7358 -0.4372  0.0276
  418MOL0     C56328   9.728   5.263   6.625 -0.8611 -0.0289 -0.3532
  418MOL0     C56329   9.828   5.177   6.583 -0.4588  1.1335  0.1672
  418MOL0     O56330   9.942   5.229   6.553 -0.0774 -0.2922 -0.9862
  418MOL0     C56331  10.010   5.179   6.442 -0.6070  0.0690 -0.3131
  418MOL0     C56332  10.124   5.285   6.410  0.3975 -0.1194 -0.9503
  418MOL0     C56333  10.219   5.245   6.299 -0.9701  0.7910 -0.7080
  418MOL0     C56334  10.287   5.116   6.337  0.2226  0.0461 -0.5384
  418MOL0     C56335  10.433   5.107   6.287 -0.1984 -0.1941 -0.3954
  418MOL0     C56336  10.527   5.190   6.373 -0.2439  0.6992 -0.3116
  418MOL0     C56337  10.669   5.195   6.314 -0.3997  0.9944 -0.1414
  418MOL0     C56338  10.769   5.249   6.415  0.2291 -0.0880 -0.7217
  418MOL0    Cl56339  10.808   5.129   6.554  0.2610  0.4008 -0.2015
  418MOL0     C56340   9.791   5.045   6.550  0.2861 -0.0699 -0.2684
  418MOL0     C56341   9.660   5.005   6.565  0.2983  0.4896 -0.1531
  418MOL0     O56342   9.376   5.008   6.432  0.0414  0.4168 -0.0518
  418MOL0     C56343   9.117   4.923   6.506  0.7644 -0.7009 -0.1985
  418MOL0     C56344   9.001   4.861   6.549 -0.1143 -0.4945 -0.2902
  418MOL0     N56345   8.372   4.971   6.939  0.7823  0.0177 -0.0022
  418MOL0     N56346   8.242   4.960   6.945 -0.4218 -0.2378 -0.8679
  418MOL0     C56347   7.144   5.361   7.536  0.6007 -0.0584  0.0274
  418MOL0     C56348   7.030   5.312   7.597 -1.0309  1.1698  0.0554
  418MOL0     C56349   6.700   5.138   7.823 -0.6854  0.1810  1.0349
  418MOL0     C56350   6.651   5.042   7.739 -0.3667  0.3716  0.2486
  418MOL0     C56351   6.514   5.004   7.723 -0.1357  0.0963 -0.0592
  418MOL0     C56352   6.421   5.061   7.809 -0.7641 -0.4287  0.3064
  418MOL0     O56353   6.285   5.038   7.811  0.7619  0.4250 -0.4514
  418MOL0     C56354   6.231   4.927   7.749 -0.0523  0.2086 -0.6012
  418MOL0     C56355   6.073   4.917   7.756  0.2578 -0.5945 -0.1103
  418MOL0     C56356   6.025   5.016   7.655 -0.1954  0.6289 -0.3199
  418MOL0     C56357   5.872   5.006   7.636  0.4761  0.6555  0.1570
  418MOL0     C56358   5.829   4.869   7.586 -0.2789 -0.8568  0.1347
  418MOL0     C56359   5.782   4.756   7.566 -0.4908 -0.3391 -0.3671
  418MOL0     C56360   6.466   5.154   7.902 -0.0734 -0.5350  0.6967
  418MOL0     C56361   6.600   5.195   7.913 -0.2616  0.2948 -0.0675
  418MOL0     C56362   6.648   5.289   8.025  0.4422 -0.1962  0.0640
  418MOL0     H56363   7.159   5.007   7.699  2.8946 -0.3356  0.1211
  418MOL0     H56364   7.356   5.105   7.605 -0.7768  0.8723  1.3754
  418MOL0     H56365   7.528   5.233   7.566 -2.4510 -3.5070 -0.7625
  418MOL0     H56366   7.483   5.180   7.404 -0.1495 -0.2449 -1.1967
  418MOL0     H56367   7.606   5.453   7.481 -0.0170 -0.8291  1.0339
  418MOL0     H56368   7.580   5.394   7.316  2.3919  0.5460 -0.3405
  418MOL0     H56369   7.779   5.306   7.532  1.5568  0.7885 -1.1743
  418MOL0     H56370   7.813   5.371   7.362  0.3475 -1.0943 -0.7427
  418MOL0     H56371   7.716   5.096   7.455  1.9261  1.5205  2.2905
  418MOL0     H56372   7.707   5.151   7.293 -1.8184 -1.3426  0.9770
  418MOL0     H56373   7.962   5.209   7.336  2.8147 -1.8109 -0.2547
  418MOL0     H56374   7.943   5.095   7.469  1.5142 -0.4703  0.2777
  418MOL0     H56375   7.887   4.916   7.317  0.3528  0.3285  1.5048
  418MOL0     H56376   7.866   5.028   7.186 -0.9931  1.2553  0.7479
  418MOL0     H56377   8.130   4.970   7.341  0.1359  1.1105  0.0307
  418MOL0     H56378   8.118   5.083   7.196  0.9320 -1.0179 -1.8306
  418MOL0     H56379   8.085   4.783   7.172 -1.9378 -0.4207 -0.8835
  418MOL0     H56380   8.018   4.889   7.057 -1.0375 -2.0632  0.4190
  418MOL0     H56381   8.349   4.804   7.209  1.7261 -0.8503 -0.9244
  418MOL0     H56382   8.614   5.007   7.029 -1.5994  0.3705 -1.3185
  418MOL0     H56383   8.595   4.874   7.144 -0.3917  0.7730 -0.7988
  418MOL0     H56384   8.600   4.718   6.930  1.8153 -1.6451  0.9208
  418MOL0     H56385   8.623   4.866   6.839  1.0825 -1.8548 -1.6802
  418MOL0     H56386   8.821   4.750   7.059 -0.2293 -0.8474  0.1805
  418MOL0     H56387   8.847   4.900   6.965  1.1240 -1.4011 -1.9749
  418MOL0     H56388   8.791   4.627   6.840  0.2917  0.3883 -0.8289
  418MOL0     H56389   8.957   4.691   6.877  0.5689  2.7321 -1.8444
  418MOL0     H56390   9.062   4.855   6.892 -0.8658 -2.1405 -0.4846
  418MOL0     H56391   9.271   4.974   6.813 -0.4173 -0.3444 -0.0493
  418MOL0     H56392   9.513   5.292   6.683 -1.6683 -1.2043 -0.4295
  418MOL0     H56393   9.763   5.363   6.650  2.1852 -0.6756 -1.5301
  418MOL0     H56394  10.047   5.078   6.456 -1.2481 -0.5560 -2.6877
  418MOL0     H56395   9.946   5.181   6.353  2.4673  0.9783 -2.6709
  418MOL0     H56396  10.080   5.383   6.390 -2.1522 -1.4731 -2.6874
  418MOL0     H56397  10.189   5.299   6.497  0.5490  2.2325 -1.3815
  418MOL0     H56398  10.159   5.242   6.207  1.2060  0.4795 -2.2027
  418MOL0     H56399  10.297   5.320   6.285 -2.3307  2.1013 -1.6611
  418MOL0     H56400  10.227   5.030   6.306 -0.6740  0.6683 -0.5760
  418MOL0     H56401  10.291   5.115   6.446 -1.0877  0.9061 -0.4533
  418MOL0     H56402  10.439   5.130   6.180  2.6947 -4.7936 -1.4818
  418MOL0     H56403  10.471   5.005   6.290 -0.5069 -0.2955  0.4822
  418MOL0     H56404  10.494   5.293   6.356  1.0156  0.9340 -1.5293
  418MOL0     H56405  10.530   5.165   6.480 -0.9603  1.0871 -0.1928
  418MOL0     H56406  10.664   5.265   6.230  1.1494  2.6955  1.0971
  418MOL0     H56407  10.690   5.095   6.274 -2.4351 -0.5521  2.2992
  418MOL0     H56408  10.864   5.251   6.361  0.9276 -2.8293  0.2272
  418MOL0     H56409  10.747   5.350   6.452  1.0554  0.2005 -0.9803
  418MOL0     H56410   9.853   4.974   6.497 -0.6818 -1.4807  0.4187
  418MOL0     H56411   9.631   4.902   6.547 -2.7989  1.2051  0.1497
  418MOL0     H56412   9.126   4.941   6.399  0.0164  2.8768  0.2227
  418MOL0     H56413   8.938   4.823   6.470  1.9936 -1.2669 -1.6973
  418MOL0     H56414   7.136   5.458   7.487 -1.5897 -0.3483 -0.3200
  418MOL0     H56415   6.943   5.376   7.610 -0.9324  0.9393  2.1680
  418MOL0     H56416   6.714   4.993   7.666 -2.5523 -2.8989  0.3554
  418MOL0     H56417   6.490   4.936   7.642 -1.5848  2.5992 -1.8680
  418MOL0     H56418   6.285   4.841   7.791  0.8825  1.6775  1.3780
  418MOL0     H56419   6.270   4.924   7.647  1.2814  0.6333 -0.1296
  418MOL0     H56420   6.033   4.939   7.856  0.6015 -3.9874  0.9252
  418MOL0     H56421   6.053   4.812   7.733 -1.2878 -0.5109  0.7392
  418MOL0     H56422   6.074   4.998   7.559 -2.9404 -1.1550 -1.5259
  418MOL0     H56423   6.044   5.115   7.697 -1.6190  1.1084 -0.7376
  418MOL0     H56424   5.807   5.036   7.719 -2.0454 -0.9993 -1.1087
  418MOL0     H56425   5.842   5.079   7.561 -0.2282  0.5359  0.3196
  418MOL0     H56426   5.755   4.656   7.538 -1.1698 -0.1073 -0.5755
  418MOL0     H56427   6.388   5.192   7.968  0.4904  0.7472  0.6554
  418MOL0     H56428   6.579   5.291   8.110  0.3542  2.8018  0.0151
  418MOL0     H56429   6.741   5.252   8.068  0.0270 -1.7718 -0.3083
  418MOL0     H56430   6.655   5.388   7.980 -1.5293 -0.5400 -1.1559
  419MOL0     O56431   8.660   6.017  10.434  0.5109  0.4307 -0.3430
  419MOL0     C56432   8.589   5.987  10.527  0.3590  0.8358 -0.4472
  419MOL0     O56433   8.633   5.978  10.654  0.3829 -0.1177  0.2024
  419MOL0     C56434   8.765   5.967  10.682  0.6656 -0.6652  0.0587
  419MOL0     C56435   8.803   5.879  10.781  0.4959  0.1477  0.3574
  419MOL0     C56436   8.939   5.860  10.815  0.3663 -0.0505 -0.7294
  419MOL0     C56437   9.035   5.937  10.749  0.0649  0.6611 -0.5260
  419MOL0     O56438   9.166   5.931  10.781 -0.9394  0.1146 -0.5223
  419MOL0     C56439   9.221   5.801  10.819  0.2312  0.8786  0.0699
  419MOL0     C56440   9.343   5.838  10.912 -0.3852  0.4502 -0.2445
  419MOL0     C56441   9.426   5.717  10.957 -0.2472 -0.2830  0.3723
  419MOL0     C56442   9.568   5.748  10.985 -0.4284 -0.0250 -0.6847
  419MOL0     C56443   9.631   5.613  11.012 -0.5855  0.1175  0.2534
  419MOL0     C56444   9.767   5.641  11.073  0.1492 -0.0800  0.0246
  419MOL0     C56445   9.846   5.519  11.106  0.5634  0.6284 -0.8276
  419MOL0     C56446   9.955   5.480  11.001 -0.3120  0.6844 -0.2460
  419MOL0     N56447  10.074   5.565  10.998 -0.0963 -0.4654  0.2368
  419MOL0     C56448  10.118   5.635  10.888  0.5134  0.1083 -0.1022
  419MOL0     C56449  10.212   5.715  10.930  0.3272 -1.3880 -0.2995
  419MOL0     C56450  10.288   5.812  10.843  0.4445 -0.3900  1.0384
  419MOL0     C56451  10.413   5.751  10.779 -0.2684  0.4359 -0.2484
  419MOL0     C56452  10.526   5.714  10.883  0.7313  0.4413 -0.0450
  419MOL0     C56453  10.654   5.674  10.811  0.6015  0.6293  0.0374
  419MOL0     O56454  10.703   5.768  10.709  0.5488  0.0185 -0.2989
  419MOL0     C56455  10.838   5.776  10.705 -0.6304 -0.3869 -0.3377
  419MOL0     C56456  10.912   5.892  10.741 -0.4170 -0.5419  0.4395
  419MOL0     C56457  11.051   5.898  10.737 -0.4349 -0.2683 -0.3037
  419MOL0     C56458  11.128   5.795  10.692  0.7409  0.2848 -0.5489
  419MOL0     C56459  11.273   5.809  10.684 -1.0232  0.4884  0.2370
  419MOL0     O56460  11.324   5.915  10.737 -0.3872  0.3986  0.6501
  419MOL0     C56461  11.453   5.950  10.702 -0.7766 -0.2362  0.7297
  419MOL0     C56462  11.474   6.007  10.575  0.3807 -0.6585  0.6776
  419MOL0     C56463  11.596   6.070  10.545 -0.6304 -0.5473 -0.5518
  419MOL0     C56464  11.708   6.065  10.628  1.2858 -0.7009  1.0810
  419MOL0     O56465  11.837   6.112  10.604 -0.5142  0.7811 -0.3775
  419MOL0     C56466  11.862   6.191  10.489 -0.5310  0.7468  0.6396
  419MOL0     C56467  12.004   6.251  10.489  0.8341 -0.4352 -0.0765
  419MOL0     C56468  12.122   6.155  10.500 -0.3886  0.8523  0.6925
  419MOL0     C56469  12.250   6.215  10.548  0.1793 -0.7815  0.0123
  419MOL0     C56470  12.366   6.122  10.540  0.1152 -0.2366 -0.8155
  419MOL0     C56471  12.496   6.188  10.595  0.9815  0.3648 -1.0334
  419MOL0     C56472  12.626   6.104  10.578 -0.7297 -0.3564  0.2976
  419MOL0     C56473  12.708   6.142  10.462 -0.6406 -0.0915  1.2759
  419MOL0    Cl56474  12.842   6.015  10.457  0.3300 -0.3839 -0.5249
  419MOL0     C56475  11.684   6.005  10.749 -0.3292  0.4408  0.4045
  419MOL0     C56476  11.552   5.955  10.792 -0.1850  0.9944 -0.1684
  419MOL0     O56477  11.328   5.734  10.605  0.0034  0.2661  0.6909
  419MOL0     C56478  11.060   5.679  10.649  0.3290 -0.0979 -0.0718
  419MOL0     C56479  10.915   5.671  10.653  0.1777 -0.5164 -0.0286
  419MOL0     N56480  10.229   5.696  11.068 -0.0782  1.4222 -0.0911
  419MOL0     N56481  10.155   5.594  11.104  0.0447  0.5448  0.6528
  419MOL0     C56482   9.002   6.031  10.646 -0.5497 -0.8620  0.6185
  419MOL0     C56483   8.862   6.045  10.620 -0.3776  0.4572 -0.9524
  419MOL0     C56484   8.441   5.965  10.493  0.6007 -0.2032  0.3957
  419MOL0     C56485   8.372   6.027  10.382 -0.7481 -0.1091 -0.4556
  419MOL0     C56486   8.234   6.012  10.355  0.4435  0.3779 -0.1475
  419MOL0     C56487   8.152   5.938  10.443 -0.3862  0.4870  0.1302
  419MOL0     O56488   8.013   5.927  10.425 -0.1237  0.6905  0.0620
  419MOL0     C56489   7.955   5.928  10.297 -0.3202  1.0135 -0.5714
  419MOL0     C56490   7.907   6.069  10.254 -0.4564  0.0739 -0.0093
  419MOL0     C56491   7.830   6.049  10.112  0.0241 -0.0440 -0.0016
  419MOL0     C56492   7.736   6.165  10.081 -0.0039 -0.1866 -0.0460
  419MOL0     C56493   7.799   6.291  10.096  0.2497 -0.7360  0.1256
  419MOL0     C56494   7.836   6.406  10.084  0.6830  0.3220  0.3012
  419MOL0     C56495   8.213   5.877  10.556 -0.6793  1.0073 -0.1498
  419MOL0     C56496   8.354   5.885  10.579 -0.7531  0.0332 -1.0834
  419MOL0     C56497   8.405   5.809  10.697 -0.0145  0.8656  0.1651
  419MOL0     H56498   8.727   5.828  10.839 -0.1580  0.0966 -0.5318
  419MOL0     H56499   8.954   5.788  10.895  0.2632  0.5868 -0.1234
  419MOL0     H56500   9.149   5.731  10.862  0.0527  0.0010 -1.5871
  419MOL0     H56501   9.259   5.751  10.730 -0.7568 -0.1927  0.2382
  419MOL0     H56502   9.293   5.880  11.000 -2.3819  0.6071 -1.3740
  419MOL0     H56503   9.405   5.913  10.863 -0.4493  0.5058 -0.2404
  419MOL0     H56504   9.413   5.633  10.889  0.1920 -0.8039  0.9297
  419MOL0     H56505   9.373   5.672  11.041 -3.2873 -1.2968 -1.9063
  419MOL0     H56506   9.613   5.794  10.896 -1.2757  0.4267 -0.8888
  419MOL0     H56507   9.582   5.823  11.063  1.6703  0.2030 -1.2220
  419MOL0     H56508   9.564   5.551  11.072 -3.5479  3.7032  0.9711
  419MOL0     H56509   9.647   5.566  10.914 -0.1524 -0.3234  0.5269
  419MOL0     H56510   9.837   5.710  11.024  0.7991 -0.5055  0.3438
  419MOL0     H56511   9.746   5.683  11.172  1.6629  0.2499  0.2214
  419MOL0     H56512   9.786   5.428  11.118  1.7017 -0.0631 -0.2228
  419MOL0     H56513   9.890   5.544  11.204 -0.3171  0.4838 -0.3815
  419MOL0     H56514   9.979   5.374  11.013  0.1557  0.7422 -0.6248
  419MOL0     H56515   9.905   5.488  10.904  0.1198  1.3858 -0.4172
  419MOL0     H56516  10.073   5.631  10.789 -2.0631  0.5019  0.9641
  419MOL0     H56517  10.218   5.857  10.773  1.8425  2.3719  1.2968
  419MOL0     H56518  10.326   5.898  10.898 -0.2847  2.2233 -2.2534
  419MOL0     H56519  10.386   5.655  10.735 -0.5047  0.1975  0.3977
  419MOL0     H56520  10.456   5.815  10.702  3.1471  0.2131  1.2846
  419MOL0     H56521  10.497   5.629  10.946  3.6502 -0.1950  0.6175
  419MOL0     H56522  10.554   5.799  10.946  3.4241  3.8394 -5.1189
  419MOL0     H56523  10.648   5.579  10.758 -0.5036  0.1192  1.0319
  419MOL0     H56524  10.732   5.666  10.888 -0.3132  1.9510  1.1499
  419MOL0     H56525  10.860   5.979  10.778  3.2183  1.7518  0.5609
  419MOL0     H56526  11.101   5.990  10.765  2.1905 -1.5561 -0.4286
  419MOL0     H56527  11.387   6.032  10.515  2.0827  1.3189 -1.1309
  419MOL0     H56528  11.599   6.113  10.445 -2.3410 -1.0601 -0.8744
  419MOL0     H56529  11.849   6.132  10.398 -1.2225  0.0384  1.1830
  419MOL0     H56530  11.790   6.271  10.472 -0.1074  0.5100 -3.1893
  419MOL0     H56531  12.021   6.322  10.407 -0.3777  0.5323  0.4849
  419MOL0     H56532  12.002   6.317  10.576  1.3566 -0.3669 -0.1144
  419MOL0     H56533  12.109   6.070  10.568 -2.0841  0.2720 -0.2832
  419MOL0     H56534  12.125   6.111  10.400 -0.9230  1.2787  0.4877
  419MOL0     H56535  12.235   6.244  10.652 -2.0479 -1.3879 -0.0820
  419MOL0     H56536  12.274   6.304  10.489  1.8135 -1.8644 -1.0229
  419MOL0     H56537  12.376   6.102  10.433  1.9141  1.3052 -0.9923
  419MOL0     H56538  12.347   6.025  10.588 -0.2483 -0.6959 -1.8688
  419MOL0     H56539  12.506   6.289  10.553  0.9783  0.9563  0.3401
  419MOL0     H56540  12.476   6.214  10.699  2.4549  3.3178 -1.3764
  419MOL0     H56541  12.599   5.999  10.567 -0.3389 -0.2115 -3.1731
  419MOL0     H56542  12.686   6.109  10.669  2.6869  2.3343 -1.8093
  419MOL0     H56543  12.655   6.137  10.367  1.1434  1.9905  0.1122
  419MOL0     H56544  12.742   6.245  10.471 -2.9356  0.8944 -0.4567
  419MOL0     H56545  11.765   6.000  10.821  1.0873  1.5623 -1.0507
  419MOL0     H56546  11.528   5.905  10.885  1.3133  0.1379 -0.2044
  419MOL0     H56547  11.109   5.589  10.612 -0.1656 -0.5969  0.4680
  419MOL0     H56548  10.866   5.584  10.610 -0.7793 -0.3134  0.6288
  419MOL0     H56549   9.083   6.089  10.602 -0.2934 -1.4280  0.3392
  419MOL0     H56550   8.837   6.129  10.557 -0.3314  0.4896 -0.9266
  419MOL0     H56551   8.428   6.095  10.318 -2.1118  2.4275  0.8926
  419MOL0     H56552   8.202   6.048  10.258  1.8834  1.2502 -0.3377
  419MOL0     H56553   7.868   5.862  10.307  1.6442 -1.5319  1.2916
  419MOL0     H56554   8.018   5.885  10.220 -1.8154 -1.8768 -0.3261
  419MOL0     H56555   8.001   6.125  10.251  1.4242 -2.8883 -1.1547
  419MOL0     H56556   7.843   6.103  10.335  0.1711  0.5443  0.3014
  419MOL0     H56557   7.776   5.954  10.120 -1.7535  1.0448  2.2077
  419MOL0     H56558   7.905   6.033  10.035  3.0063  1.8032  2.3191
  419MOL0     H56559   7.685   6.140   9.987  1.4479 -1.0740 -0.6225
  419MOL0     H56560   7.657   6.152  10.156  1.5906 -1.0796  1.5644
  419MOL0     H56561   7.876   6.501  10.055 -0.0543  0.2920 -0.8756
  419MOL0     H56562   8.147   5.819  10.619  1.0719 -2.2414 -1.0642
  419MOL0     H56563   8.326   5.745  10.736 -2.4955  2.0057 -2.6748
  419MOL0     H56564   8.494   5.751  10.669  0.3899  0.5830  1.9265
  419MOL0     H56565   8.444   5.869  10.780  0.9473  0.8717 -0.2759
  420MOL0     O56566   8.983   7.703   3.609 -0.3843  0.2340  0.5842
  420MOL0     C56567   8.967   7.824   3.597 -0.6139  0.0667 -0.3491
  420MOL0     O56568   9.065   7.913   3.611 -0.1697  0.5549 -0.3871
  420MOL0     C56569   9.190   7.861   3.606 -0.6885 -0.1602 -0.5241
  420MOL0     C56570   9.232   7.773   3.504 -0.1292  0.1794  1.0574
  420MOL0     C56571   9.363   7.723   3.499  0.5791  1.1417 -0.1873
  420MOL0     C56572   9.459   7.784   3.583 -0.6230 -0.0673  0.0039
  420MOL0     O56573   9.585   7.731   3.589 -0.3792  0.2912 -0.1823
  420MOL0     C56574   9.646   7.716   3.457  0.6797 -0.2767  0.2567
  420MOL0     C56575   9.757   7.619   3.483  0.7247  0.4416  1.1277
  420MOL0     C56576   9.843   7.656   3.599 -0.2964 -0.3385 -0.2271
  420MOL0     C56577   9.964   7.566   3.603  0.9459  0.1306 -0.4863
  420MOL0     C56578  10.061   7.590   3.722  1.2558  0.2834  0.2924
  420MOL0     C56579  10.203   7.547   3.685  1.1917  0.2229  0.5320
  420MOL0     C56580  10.288   7.561   3.803 -0.5468  0.5644 -0.3031
  420MOL0     C56581  10.429   7.540   3.755 -0.0724 -0.2419 -0.4613
  420MOL0     N56582  10.520   7.573   3.868  0.7662  0.9532  0.4164
  420MOL0     C56583  10.598   7.682   3.877  0.4391 -0.1355 -0.5110
  420MOL0     C56584  10.649   7.674   4.002  0.0466  0.3745 -0.1211
  420MOL0     C56585  10.754   7.760   4.059 -0.5546 -0.0232  0.7758
  420MOL0     C56586  10.891   7.690   4.089 -1.4176 -0.0453  0.0600
  420MOL0     C56587  10.974   7.697   3.960 -0.2056  0.7317 -0.0793
  420MOL0     C56588  11.099   7.602   3.978 -0.3299 -0.5007  0.4124
  420MOL0     O56589  11.169   7.557   3.865  0.4776 -1.2154 -0.4554
  420MOL0     C56590  11.301   7.506   3.868  1.0723 -0.6911  0.0063
  420MOL0     C56591  11.394   7.503   3.971  0.3482 -0.0518 -0.0432
  420MOL0     C56592  11.524   7.456   3.960 -0.2066 -0.0577 -0.6549
  420MOL0     C56593  11.556   7.395   3.837  0.7015  0.2884 -0.4848
  420MOL0     C56594  11.691   7.346   3.817  0.0469 -0.2484  0.0388
  420MOL0     O56595  11.790   7.406   3.893  0.3596  0.5694  1.2797
  420MOL0     C56596  11.908   7.355   3.882 -0.3669 -0.0605  0.8613
  420MOL0     C56597  11.931   7.221   3.914  0.1854  0.5319  0.4643
  420MOL0     C56598  12.065   7.174   3.914  0.6304  1.0463 -0.1066
  420MOL0     C56599  12.171   7.257   3.857  0.0052  0.9333 -0.4691
  420MOL0     O56600  12.299   7.204   3.841 -0.1356  0.1514 -0.4644
  420MOL0     C56601  12.331   7.058   3.832  0.9361 -0.5698 -0.2334
  420MOL0     C56602  12.471   7.013   3.829  0.7668 -1.0601 -0.7120
  420MOL0     C56603  12.544   7.025   3.958  0.1861 -1.1119 -0.9496
  420MOL0     C56604  12.616   7.159   3.954  0.0801 -0.0664  0.3595
  420MOL0     C56605  12.731   7.164   4.046  0.3645 -0.5722  0.8319
  420MOL0     C56606  12.847   7.071   4.015 -0.6825 -0.6809 -0.2658
  420MOL0     C56607  12.971   7.095   4.101  0.0642 -0.2753  0.1004
  420MOL0     C56608  13.102   7.056   4.031 -0.4537  0.7700  0.6502
  420MOL0    Cl56609  13.112   7.140   3.867 -0.4552  0.4236 -0.3658
  420MOL0     C56610  12.137   7.384   3.823 -0.3989 -0.2342 -0.5554
  420MOL0     C56611  12.012   7.442   3.841  0.6253  0.6729 -0.7788
  420MOL0     O56612  11.699   7.252   3.738 -0.2486  0.0876  0.4723
  420MOL0     C56613  11.453   7.383   3.735 -0.1568  0.4301  0.1934
  420MOL0     C56614  11.330   7.445   3.744  0.7661  0.4224 -0.0666
  420MOL0     N56615  10.596   7.560   4.061  0.2418 -0.0849 -0.3005
  420MOL0     N56616  10.525   7.500   3.976 -0.5746  1.3135 -0.0226
  420MOL0     C56617   9.423   7.872   3.683  0.0586  0.3283  0.3175
  420MOL0     C56618   9.286   7.905   3.694  0.0257  0.1175  0.0287
  420MOL0     C56619   8.829   7.879   3.582 -0.9161 -0.3665  0.1354
  420MOL0     C56620   8.796   7.977   3.671  0.3471  0.0131 -0.1379
  420MOL0     C56621   8.659   8.014   3.673  0.5391  0.1538  0.2523
  420MOL0     C56622   8.559   7.971   3.584 -0.2026 -0.5678  0.0821
  420MOL0     O56623   8.430   8.017   3.586  0.3350 -1.0100  0.7145
  420MOL0     C56624   8.415   8.159   3.592  0.2314 -0.7310 -0.6785
  420MOL0     C56625   8.479   8.219   3.467 -0.6967 -0.5144  0.5968
  420MOL0     C56626   8.447   8.364   3.433 -0.0413  0.2862 -0.8254
  420MOL0     C56627   8.291   8.393   3.406 -0.4294  1.3259 -0.6529
  420MOL0     C56628   8.253   8.328   3.277  0.2559  0.0423 -0.1379
  420MOL0     C56629   8.221   8.279   3.171  0.0696  0.9044  0.2809
  420MOL0     C56630   8.602   7.866   3.497  0.9285  0.7255 -0.6833
  420MOL0     C56631   8.734   7.821   3.492 -0.4618 -0.3529 -0.9709
  420MOL0     C56632   8.767   7.719   3.394 -0.7191  0.9044 -0.4825
  420MOL0     H56633   9.158   7.752   3.428 -1.2531  0.5991  2.0042
  420MOL0     H56634   9.383   7.642   3.430 -3.5562  0.8143 -1.2667
  420MOL0     H56635   9.580   7.686   3.376  2.8864 -1.6171 -1.1532
  420MOL0     H56636   9.689   7.811   3.423  0.1405 -0.3129 -0.5496
  420MOL0     H56637   9.813   7.624   3.388 -1.1918  0.6945 -0.0447
  420MOL0     H56638   9.714   7.520   3.501  1.7297 -0.2035  0.1213
  420MOL0     H56639   9.798   7.635   3.696 -0.0434 -2.6918 -0.5596
  420MOL0     H56640   9.879   7.759   3.596 -0.7673  0.0530  3.5808
  420MOL0     H56641   9.921   7.466   3.600 -0.6631  0.7938 -0.5607
  420MOL0     H56642  10.009   7.589   3.506 -0.9176  0.3711 -1.3239
  420MOL0     H56643  10.062   7.692   3.760  0.0198  0.0166  1.1391
  420MOL0     H56644  10.016   7.528   3.800 -0.8169 -1.2257 -1.9450
  420MOL0     H56645  10.222   7.449   3.641  1.1434  1.0725 -1.4742
  420MOL0     H56646  10.236   7.615   3.606 -0.9590 -2.4754 -2.9766
  420MOL0     H56647  10.265   7.485   3.878  1.1488 -0.5282 -0.8387
  420MOL0     H56648  10.270   7.661   3.842  2.1918  1.4912 -1.1766
  420MOL0     H56649  10.443   7.436   3.725 -1.9145 -0.4995 -0.5323
  420MOL0     H56650  10.453   7.595   3.664  2.5579 -1.0486 -0.3562
  420MOL0     H56651  10.605   7.754   3.796  0.3403 -0.5820 -0.9183
  420MOL0     H56652  10.769   7.834   3.980 -3.3487 -0.5090 -0.3309
  420MOL0     H56653  10.715   7.810   4.147 -0.9054  1.3716 -0.1468
  420MOL0     H56654  10.946   7.755   4.159  1.4740  0.5831 -2.5692
  420MOL0     H56655  10.876   7.590   4.130  1.3104 -1.2096 -1.5306
  420MOL0     H56656  10.995   7.802   3.938 -3.4023  1.9883  2.2199
  420MOL0     H56657  10.911   7.661   3.878 -0.0994 -0.0362  0.1670
  420MOL0     H56658  11.070   7.509   4.028  1.1742 -0.6586  1.0465
  420MOL0     H56659  11.163   7.663   4.043 -3.9680  4.4425 -0.0724
  420MOL0     H56660  11.355   7.532   4.068  2.0146 -1.9657  1.3002
  420MOL0     H56661  11.588   7.471   4.046 -0.5287  3.2128 -0.8824
  420MOL0     H56662  11.847   7.156   3.940  1.1362 -0.6131  0.7777
  420MOL0     H56663  12.079   7.073   3.950  1.7239  2.0220  2.4011
  420MOL0     H56664  12.286   7.024   3.926 -1.6619  2.0292 -0.3620
  420MOL0     H56665  12.288   7.023   3.738  0.8593 -1.2082  0.0400
  420MOL0     H56666  12.473   6.907   3.805 -0.9268 -1.3507  0.2693
  420MOL0     H56667  12.518   7.076   3.752 -1.3976  1.0985 -0.3884
  420MOL0     H56668  12.483   7.009   4.047  0.8173 -0.5438 -0.4019
  420MOL0     H56669  12.621   6.947   3.957  1.6679  0.2902 -2.6263
  420MOL0     H56670  12.542   7.234   3.980 -0.5675 -0.0752 -1.3039
  420MOL0     H56671  12.654   7.186   3.855  0.6587  0.0589  0.6087
  420MOL0     H56672  12.697   7.148   4.149 -4.2520  0.5148 -0.3123
  420MOL0     H56673  12.757   7.270   4.053 -0.4909 -0.1977 -1.1194
  420MOL0     H56674  12.811   6.970   4.036 -4.1174  0.6062  0.5951
  420MOL0     H56675  12.877   7.080   3.910  4.0060 -0.9808  0.8135
  420MOL0     H56676  12.965   7.042   4.196 -0.1735 -1.2921 -0.4737
  420MOL0     H56677  12.985   7.201   4.127  0.6924 -0.3713  0.1748
  420MOL0     H56678  13.190   7.092   4.084  0.3725 -0.1468 -0.0825
  420MOL0     H56679  13.106   6.948   4.016  1.1624  0.4085  3.0460
  420MOL0     H56680  12.209   7.450   3.775 -1.5700  0.2190 -1.7202
  420MOL0     H56681  11.993   7.546   3.815 -2.2164 -0.4991 -4.2011
  420MOL0     H56682  11.476   7.342   3.637 -0.3743 -0.5932  0.5499
  420MOL0     H56683  11.261   7.450   3.661  0.6604  0.2651  0.0111
  420MOL0     H56684   9.483   7.900   3.769  0.1720 -1.3486  0.8234
  420MOL0     H56685   9.253   7.963   3.779 -0.2214  0.4390 -0.2850
  420MOL0     H56686   8.868   8.030   3.734 -0.0961 -3.3623  3.6789
  420MOL0     H56687   8.646   8.083   3.756 -0.2456  0.9016 -0.4757
  420MOL0     H56688   8.463   8.204   3.679  0.0224  1.0795 -1.4413
  420MOL0     H56689   8.309   8.186   3.592  0.1034 -1.2272 -0.2765
  420MOL0     H56690   8.458   8.158   3.378  1.0944 -0.5886  0.1797
  420MOL0     H56691   8.588   8.218   3.470 -0.4851 -0.1306 -2.6813
  420MOL0     H56692   8.504   8.381   3.340  2.1191  0.9093  0.5253
  420MOL0     H56693   8.496   8.427   3.508  0.2789 -1.1379  0.2066
  420MOL0     H56694   8.229   8.347   3.484  1.0729 -3.4288 -1.9172
  420MOL0     H56695   8.277   8.501   3.392  1.0494  1.2799 -3.0920
  420MOL0     H56696   8.191   8.235   3.078 -0.0711 -2.1133  1.6233
  420MOL0     H56697   8.526   7.851   3.421 -1.9594 -2.9699  2.5300
  420MOL0     H56698   8.710   7.730   3.301  0.3495  2.3282 -1.0027
  420MOL0     H56699   8.874   7.718   3.375 -0.4853 -3.8310  0.0196
  420MOL0     H56700   8.749   7.617   3.430 -1.0963  0.7177 -1.1763
  421MOL0     O56701   6.168   1.592   4.581  0.1996  0.3212  0.6308
  421MOL0     C56702   6.133   1.528   4.682  0.6416 -1.0126 -0.9987
  421MOL0     O56703   6.216   1.487   4.793 -0.2329  0.5620  0.2340
  421MOL0     C56704   6.341   1.519   4.789 -1.0854 -0.6594 -0.2870
  421MOL0     C56705   6.446   1.426   4.794 -0.9368  0.1754 -0.0302
  421MOL0     C56706   6.578   1.466   4.796 -0.5852 -0.1582  0.0977
  421MOL0     C56707   6.611   1.602   4.805  0.0256  0.7026 -0.3692
  421MOL0     O56708   6.741   1.651   4.817 -0.5520 -0.2128 -0.2769
  421MOL0     C56709   6.851   1.561   4.830 -0.3136  0.2303 -0.1641
  421MOL0     C56710   6.975   1.652   4.835 -0.0787  0.4870  0.5264
  421MOL0     C56711   7.094   1.578   4.894  0.3623  0.0759 -0.5267
  421MOL0     C56712   7.141   1.462   4.804 -0.2857  0.1141  0.1049
  421MOL0     C56713   7.255   1.381   4.867  0.2145 -0.7671 -0.0557
  421MOL0     C56714   7.301   1.277   4.782 -0.9584  0.8244 -0.3338
  421MOL0     C56715   7.422   1.193   4.853  0.0489 -0.8871  0.9721
  421MOL0     C56716   7.464   1.076   4.759 -0.5618 -0.2160 -0.3106
  421MOL0     N56717   7.510   1.122   4.632 -0.0997 -0.4453  0.7541
  421MOL0     C56718   7.623   1.203   4.614  0.1502 -0.1198  0.0747
  421MOL0     C56719   7.624   1.247   4.481 -0.5344 -0.2605  0.0263
  421MOL0     C56720   7.723   1.339   4.417 -0.2448  0.2596 -0.1059
  421MOL0     C56721   7.804   1.263   4.313 -0.8261 -0.2561 -0.7299
  421MOL0     C56722   7.871   1.362   4.219 -0.5395  0.7499  0.6386
  421MOL0     C56723   7.954   1.293   4.111 -0.1251 -0.4864  0.0012
  421MOL0     O56724   8.071   1.218   4.161  0.1135 -0.3840  0.6257
  421MOL0     C56725   8.181   1.286   4.218 -0.3758 -0.2043  0.8339
  421MOL0     C56726   8.188   1.431   4.218  0.0133  0.1884  0.2079
  421MOL0     C56727   8.302   1.494   4.266 -0.0342 -0.3560  0.8412
  421MOL0     C56728   8.411   1.415   4.311 -1.1241  0.3622 -0.0960
  421MOL0     C56729   8.539   1.479   4.355  0.2951 -0.2170 -0.2374
  421MOL0     O56730   8.616   1.407   4.443 -1.5540  0.3361 -0.0986
  421MOL0     C56731   8.720   1.470   4.521 -0.3428  2.0436  0.1777
  421MOL0     C56732   8.716   1.601   4.561 -0.2253  0.2722 -0.5913
  421MOL0     C56733   8.825   1.645   4.631  0.3366 -0.0143 -0.3080
  421MOL0     C56734   8.941   1.562   4.655  0.2244  0.0433  1.0311
  421MOL0     O56735   9.044   1.629   4.716 -0.0501  0.0789 -0.2045
  421MOL0     C56736   9.143   1.549   4.782  0.9232 -0.5659 -0.3605
  421MOL0     C56737   9.212   1.622   4.891  0.0418 -0.3284  0.2566
  421MOL0     C56738   9.275   1.755   4.836 -0.3493  0.1484  0.0811
  421MOL0     C56739   9.373   1.828   4.931 -0.6289  0.5523 -0.4512
  421MOL0     C56740   9.425   1.957   4.874  0.0306 -0.0323  0.0302
  421MOL0     C56741   9.559   2.006   4.944  0.6166 -0.8160 -0.1159
  421MOL0     C56742   9.617   2.121   4.868 -0.6071 -1.2914 -0.0397
  421MOL0     C56743   9.712   2.204   4.942 -0.6254  0.5569 -0.1587
  421MOL0    Cl56744   9.868   2.108   4.918 -0.7347 -0.0326  0.2558
  421MOL0     C56745   8.937   1.426   4.625 -0.6655  0.0048  0.6373
  421MOL0     C56746   8.827   1.376   4.558 -0.4040  0.7035 -0.6663
  421MOL0     O56747   8.555   1.595   4.325  0.4481 -1.1769  0.0779
  421MOL0     C56748   8.400   1.277   4.324 -0.3140 -0.3366  0.1948
  421MOL0     C56749   8.285   1.214   4.274  0.6278 -0.5050 -0.3504
  421MOL0     N56750   7.521   1.180   4.425  0.2454 -0.1753 -0.0533
  421MOL0     N56751   7.454   1.101   4.512  0.3236 -0.2371  0.6391
  421MOL0     C56752   6.508   1.690   4.813 -0.2432  0.3053  0.2774
  421MOL0     C56753   6.371   1.653   4.794  0.1943  0.5877  0.3874
  421MOL0     C56754   5.981   1.496   4.710 -0.1360 -0.5695 -0.3267
  421MOL0     C56755   5.953   1.430   4.840 -0.3275 -0.4275 -0.8753
  421MOL0     C56756   5.818   1.392   4.858 -0.1283 -0.6311 -0.4861
  421MOL0     C56757   5.713   1.419   4.775  0.5735 -0.4707 -0.2666
  421MOL0     O56758   5.588   1.387   4.822  0.5731 -0.1834  0.0603
  421MOL0     C56759   5.478   1.382   4.728  0.1376 -0.7748 -0.9818
  421MOL0     C56760   5.348   1.325   4.787  0.4338 -0.5730  0.3136
  421MOL0     C56761   5.292   1.409   4.901  0.1501 -0.3614 -0.4414
  421MOL0     C56762   5.140   1.394   4.923  0.3261  0.7613 -0.2386
  421MOL0     C56763   5.096   1.259   4.956  0.5323  0.4534 -0.3210
  421MOL0     C56764   5.043   1.152   4.991  0.6115  0.0665 -1.0622
  421MOL0     C56765   5.743   1.486   4.656 -0.6960 -0.5003  0.6385
  421MOL0     C56766   5.873   1.520   4.615 -0.2379 -0.2803 -0.1696
  421MOL0     C56767   5.893   1.580   4.477  0.3260 -0.0887 -0.9530
  421MOL0     H56768   6.416   1.322   4.790  2.4520 -0.9864  1.2778
  421MOL0     H56769   6.644   1.381   4.808 -0.0350 -0.0171 -1.6160
  421MOL0     H56770   6.848   1.492   4.915 -0.6782  1.7583  1.1184
  421MOL0     H56771   6.850   1.510   4.733  0.1946  1.2706 -0.7324
  421MOL0     H56772   6.953   1.745   4.888  1.3550  0.3408  1.4213
  421MOL0     H56773   7.012   1.691   4.739  1.7793  1.5930  1.6315
  421MOL0     H56774   7.062   1.536   4.990 -0.0004  1.2025 -0.1428
  421MOL0     H56775   7.172   1.654   4.900 -0.5537  1.0500 -0.5859
  421MOL0     H56776   7.056   1.395   4.789  0.5143 -1.1184  0.8424
  421MOL0     H56777   7.170   1.502   4.706 -1.2358  1.2424  0.2770
  421MOL0     H56778   7.332   1.451   4.898 -0.8319  0.5200 -0.2646
  421MOL0     H56779   7.208   1.329   4.951 -0.8485  1.6747  0.9457
  421MOL0     H56780   7.222   1.201   4.775  0.5911 -1.2680  2.6821
  421MOL0     H56781   7.339   1.320   4.688  1.8804  0.7733  0.6867
  421MOL0     H56782   7.385   1.161   4.951 -1.3384 -1.8462  0.1628
  421MOL0     H56783   7.500   1.270   4.853 -1.9678  1.2551  0.5372
  421MOL0     H56784   7.550   1.028   4.806 -1.6265 -1.8932  0.0061
  421MOL0     H56785   7.381   1.006   4.750 -3.0751  2.6430 -1.3785
  421MOL0     H56786   7.686   1.223   4.701  1.1741  2.0474 -1.0764
  421MOL0     H56787   7.662   1.419   4.374  0.0263 -0.7071 -2.4499
  421MOL0     H56788   7.786   1.393   4.487 -0.2646  2.1820 -1.5133
  421MOL0     H56789   7.881   1.198   4.357 -0.2033  0.3021 -0.9832
  421MOL0     H56790   7.743   1.189   4.260  1.0927 -1.2695 -1.6297
  421MOL0     H56791   7.923   1.440   4.276  1.2807 -1.0026  1.5055
  421MOL0     H56792   7.792   1.404   4.156 -0.5239 -0.3553 -0.1393
  421MOL0     H56793   7.981   1.373   4.041  1.6890 -0.0779  1.1045
  421MOL0     H56794   7.891   1.225   4.053 -1.7463  0.8662  0.0848
  421MOL0     H56795   8.098   1.487   4.194  0.5637  0.9354 -0.1766
  421MOL0     H56796   8.312   1.602   4.274  0.0608 -0.1959 -1.0187
  421MOL0     H56797   8.628   1.661   4.540 -3.1868 -3.1721  0.9367
  421MOL0     H56798   8.830   1.746   4.671 -0.7338 -0.5949  1.4213
  421MOL0     H56799   9.090   1.467   4.830  1.0826 -1.2370 -1.3054
  421MOL0     H56800   9.216   1.502   4.715 -0.4638 -0.0449 -2.3260
  421MOL0     H56801   9.133   1.656   4.959 -0.5320 -2.7736  0.9095
  421MOL0     H56802   9.288   1.558   4.937 -0.8344 -0.8798  0.9682
  421MOL0     H56803   9.325   1.736   4.740  1.2019  0.5483  0.7668
  421MOL0     H56804   9.195   1.824   4.809  0.9116  0.8519 -2.1367
  421MOL0     H56805   9.461   1.764   4.939  0.5256  2.2661  1.1152
  421MOL0     H56806   9.338   1.836   5.035  1.9795  0.6150  0.4871
  421MOL0     H56807   9.344   2.025   4.902  0.7200  1.1679 -0.8110
  421MOL0     H56808   9.438   1.958   4.766  2.3534  0.4244  0.2569
  421MOL0     H56809   9.534   2.038   5.045 -2.3949  0.6275 -1.1820
  421MOL0     H56810   9.638   1.931   4.949  1.2775 -0.2449 -1.4198
  421MOL0     H56811   9.528   2.179   4.843  1.1998  1.0247 -1.6402
  421MOL0     H56812   9.668   2.090   4.776 -1.3887 -0.4593 -0.7641
  421MOL0     H56813   9.733   2.301   4.897  3.6272  0.8728  1.9310
  421MOL0     H56814   9.682   2.224   5.045  0.9669  0.3947  0.3693
  421MOL0     H56815   9.021   1.362   4.651 -0.4493  0.1024  0.1991
  421MOL0     H56816   8.813   1.271   4.533  2.9493 -0.4131  1.5386
  421MOL0     H56817   8.489   1.232   4.367 -0.3298  1.5420  2.3841
  421MOL0     H56818   8.291   1.107   4.296  1.1165 -0.0989  1.7646
  421MOL0     H56819   6.548   1.790   4.830 -0.8316  0.4553  0.8195
  421MOL0     H56820   6.290   1.726   4.792 -1.1289 -0.7942  1.6483
  421MOL0     H56821   6.031   1.420   4.916 -0.4530 -0.3066 -0.7301
  421MOL0     H56822   5.810   1.335   4.950  3.2555  0.8193  0.8796
  421MOL0     H56823   5.504   1.316   4.645  0.9681  0.6319 -1.8828
  421MOL0     H56824   5.451   1.483   4.697 -0.1353 -0.3939  0.4257
  421MOL0     H56825   5.365   1.221   4.818 -1.6469 -0.9943  0.2015
  421MOL0     H56826   5.271   1.319   4.709  0.6618  0.8682 -0.0423
  421MOL0     H56827   5.306   1.517   4.888  1.0830 -0.5339 -1.0344
  421MOL0     H56828   5.350   1.391   4.992 -2.1308  0.6731  1.2912
  421MOL0     H56829   5.091   1.452   5.002  0.7331 -2.2202  2.3595
  421MOL0     H56830   5.076   1.425   4.839 -2.3976 -0.1229  1.3667
  421MOL0     H56831   5.005   1.057   5.022 -0.0127  0.5763 -0.1991
  421MOL0     H56832   5.658   1.510   4.593 -0.9492  0.1831  1.2379
  421MOL0     H56833   5.795   1.601   4.434 -0.7051 -1.4324  0.5923
  421MOL0     H56834   5.953   1.671   4.479 -2.4019  1.8627 -1.8910
  421MOL0     H56835   5.956   1.507   4.425  0.5532 -1.1920  0.7518
  422MOL0     O56836  10.260   8.341   7.380 -0.2267 -0.1022  0.3106
  422MOL0     C56837  10.308   8.433   7.450 -0.0456  0.2345 -0.3677
  422MOL0     O56838  10.231   8.522   7.530  0.1647 -0.3312 -1.1269
  422MOL0     C56839  10.095   8.500   7.555 -0.5352 -0.0159  0.1966
  422MOL0     C56840  10.013   8.607   7.575 -0.0735  0.6771 -0.1613
  422MOL0     C56841   9.876   8.595   7.593 -1.0018 -0.2544 -0.6927
  422MOL0     C56842   9.813   8.468   7.577 -0.7875  0.8028  1.0136
  422MOL0     O56843   9.676   8.440   7.580 -0.9153 -0.0317 -0.2715
  422MOL0     C56844   9.592   8.547   7.534  0.4452  0.8875 -0.2820
  422MOL0     C56845   9.453   8.488   7.506  0.2398  0.5515 -0.4594
  422MOL0     C56846   9.397   8.419   7.634 -0.6645  0.4299 -1.2926
  422MOL0     C56847   9.248   8.386   7.626 -0.0211  0.4740  0.7493
  422MOL0     C56848   9.181   8.341   7.751 -0.3704 -0.2569  0.5313
  422MOL0     C56849   9.031   8.306   7.727 -0.1407  0.1882 -0.5935
  422MOL0     C56850   8.999   8.168   7.652  0.3666  0.5113 -0.4228
  422MOL0     C56851   8.856   8.117   7.688 -0.0486 -0.6493  0.2347
  422MOL0     N56852   8.753   8.208   7.641 -0.0652 -0.4941 -0.7606
  422MOL0     C56853   8.643   8.167   7.563  0.7111  0.4439 -0.1815
  422MOL0     C56854   8.575   8.280   7.536  0.5862  0.1493  0.0521
  422MOL0     C56855   8.453   8.307   7.454 -0.1235 -0.0736  0.4656
  422MOL0     C56856   8.326   8.301   7.543 -0.8115  0.1162  0.4762
  422MOL0     C56857   8.299   8.150   7.591  0.0021 -0.8777  0.4212
  422MOL0     C56858   8.166   8.139   7.673  0.7463 -0.0944  0.5405
  422MOL0     O56859   8.058   8.184   7.576 -0.7214 -0.3863  0.4123
  422MOL0     C56860   7.941   8.235   7.626 -0.8225  1.1698 -0.2740
  422MOL0     C56861   7.876   8.333   7.561 -0.4799  1.0014  0.1004
  422MOL0     C56862   7.759   8.391   7.619  0.4750  0.5863 -0.3962
  422MOL0     C56863   7.706   8.347   7.740  0.0516  0.3245  0.3453
  422MOL0     C56864   7.591   8.409   7.809  0.2869 -0.7926 -0.5326
  422MOL0     O56865   7.552   8.358   7.933  0.7305  0.6592 -0.3634
  422MOL0     C56866   7.439   8.410   8.000  0.4906  0.3778  0.3897
  422MOL0     C56867   7.453   8.513   8.102  0.1500  0.0092 -0.2961
  422MOL0     C56868   7.335   8.572   8.158 -0.2904  0.5556 -0.8306
  422MOL0     C56869   7.205   8.522   8.133  0.0012 -0.7789 -0.1647
  422MOL0     O56870   7.102   8.593   8.189  0.4113 -0.2794  0.2064
  422MOL0     C56871   7.109   8.601   8.329  0.4150 -0.2468 -1.0479
  422MOL0     C56872   6.994   8.515   8.397 -0.2614  0.3041  0.3749
  422MOL0     C56873   6.959   8.569   8.541 -0.4266  0.8832 -0.4217
  422MOL0     C56874   6.806   8.549   8.565 -0.0331  0.0822 -0.0802
  422MOL0     C56875   6.766   8.597   8.709  0.5608 -0.6991  0.7784
  422MOL0     C56876   6.613   8.592   8.733 -0.0194 -0.5068  0.6242
  422MOL0     C56877   6.545   8.452   8.718 -0.0629  0.1323 -0.3756
  422MOL0     C56878   6.610   8.345   8.806 -0.3865 -0.0639 -0.2575
  422MOL0    Cl56879   6.731   8.236   8.721  0.5348 -0.2282 -0.1314
  422MOL0     C56880   7.187   8.427   8.038  0.5321  0.6893  1.0847
  422MOL0     C56881   7.299   8.365   7.975 -0.8353 -0.3007 -0.7168
  422MOL0     O56882   7.541   8.504   7.755  1.0301  0.5745 -0.8499
  422MOL0     C56883   7.781   8.251   7.814  0.4708  0.4869  0.6281
  422MOL0     C56884   7.892   8.194   7.752  0.1449  0.8134 -0.2472
  422MOL0     N56885   8.651   8.386   7.587 -0.5895  0.1835  0.8598
  422MOL0     N56886   8.757   8.346   7.638 -0.1311 -0.1422  0.2834
  422MOL0     C56887   9.896   8.354   7.566  0.9266 -1.0631 -0.3699
  422MOL0     C56888  10.031   8.371   7.562 -1.0887 -0.4952 -0.3061
  422MOL0     C56889  10.453   8.457   7.443  0.4366  0.3212  0.3128
  422MOL0     C56890  10.543   8.353   7.460  0.4591  0.0312 -0.9759
  422MOL0     C56891  10.680   8.371   7.477  1.1644 -0.4979  0.4752
  422MOL0     C56892  10.727   8.504   7.466  0.0897 -0.3863 -0.4179
  422MOL0     O56893  10.861   8.529   7.468 -0.0199  0.2816  0.0374
  422MOL0     C56894  10.949   8.427   7.532  0.3465 -0.8679  0.1134
  422MOL0     C56895  11.012   8.327   7.435  0.5760  0.1691  0.1641
  422MOL0     C56896  11.138   8.250   7.480 -0.2507  0.7552  0.0099
  422MOL0     C56897  11.189   8.170   7.363  0.7747  0.3633  0.0137
  422MOL0     C56898  11.091   8.073   7.315  0.4340  0.2036 -0.1351
  422MOL0     C56899  11.012   7.992   7.263 -0.0036  0.2137 -0.3868
  422MOL0     C56900  10.638   8.614   7.453  0.0833 -0.5951 -0.2544
  422MOL0     C56901  10.499   8.597   7.447  0.5245  0.1776 -0.6047
  422MOL0     C56902  10.403   8.714   7.417  0.4281  0.2916 -0.4128
  422MOL0     H56903  10.065   8.702   7.573  1.9323 -0.3690 -1.1496
  422MOL0     H56904   9.826   8.690   7.611  0.3599  0.3267  0.1948
  422MOL0     H56905   9.587   8.618   7.617  0.2404 -1.6704  2.0390
  422MOL0     H56906   9.632   8.606   7.451 -0.5618 -1.2056 -2.3845
  422MOL0     H56907   9.470   8.415   7.426 -1.2999 -2.2484  1.5637
  422MOL0     H56908   9.375   8.557   7.473  1.1060  0.8955 -1.8547
  422MOL0     H56909   9.411   8.494   7.712  0.6648  0.5192 -1.5970
  422MOL0     H56910   9.462   8.335   7.658 -0.1796  1.0949 -0.2333
  422MOL0     H56911   9.191   8.470   7.586  1.2757  0.4345 -1.3376
  422MOL0     H56912   9.239   8.301   7.557 -0.5338  0.2836  1.0434
  422MOL0     H56913   9.228   8.256   7.801  2.2120  2.8981  4.0479
  422MOL0     H56914   9.181   8.429   7.816 -0.5906 -0.4111  0.7438
  422MOL0     H56915   8.973   8.314   7.819 -0.0359  2.0166 -0.6470
  422MOL0     H56916   9.000   8.392   7.666 -1.6875  1.2612  1.5560
  422MOL0     H56917   9.071   8.087   7.663 -0.9679 -0.5611  1.0193
  422MOL0     H56918   9.001   8.188   7.545 -0.3022 -0.6541 -0.6748
  422MOL0     H56919   8.841   8.026   7.629  1.1392  1.4499 -3.6905
  422MOL0     H56920   8.841   8.091   7.793 -0.7559 -0.7871  0.1044
  422MOL0     H56921   8.624   8.063   7.539  2.2973  0.3059 -1.0015
  422MOL0     H56922   8.462   8.410   7.421 -0.3862  0.2137  1.2507
  422MOL0     H56923   8.435   8.242   7.368  0.2194 -0.4696  0.6912
  422MOL0     H56924   8.345   8.370   7.625  3.0848 -2.1219  1.7420
  422MOL0     H56925   8.239   8.338   7.488 -0.7766 -1.0792 -0.4217
  422MOL0     H56926   8.382   8.126   7.658  0.6130 -0.9920 -0.3609
  422MOL0     H56927   8.304   8.080   7.508 -2.3771  0.5166 -1.0111
  422MOL0     H56928   8.162   8.217   7.750  3.6297  3.5762 -2.5989
  422MOL0     H56929   8.151   8.041   7.719 -1.4076  0.2579  0.7197
  422MOL0     H56930   7.917   8.369   7.468  0.0752  0.5686  0.1753
  422MOL0     H56931   7.706   8.465   7.561  0.5117  0.7593 -0.2110
  422MOL0     H56932   7.552   8.545   8.133 -0.3873  1.8438 -0.3505
  422MOL0     H56933   7.362   8.646   8.232  2.2105 -0.5630 -0.5116
  422MOL0     H56934   7.206   8.565   8.365  0.5659 -0.3317 -1.5336
  422MOL0     H56935   7.098   8.706   8.356  0.4256 -0.2193 -1.1537
  422MOL0     H56936   6.904   8.529   8.335  0.7344  2.5715 -0.6737
  422MOL0     H56937   7.021   8.410   8.408 -1.4623  0.1777  2.9150
  422MOL0     H56938   7.024   8.515   8.611 -0.0129  0.9233 -0.7670
  422MOL0     H56939   6.991   8.673   8.548  0.1643  0.6838 -0.0619
  422MOL0     H56940   6.780   8.443   8.562 -1.5619  0.3984  1.1861
  422MOL0     H56941   6.756   8.603   8.484 -0.7029 -1.6595 -0.8851
  422MOL0     H56942   6.795   8.701   8.726  1.7105 -0.8437 -0.2214
  422MOL0     H56943   6.814   8.524   8.774  0.1008  1.0074  3.2012
  422MOL0     H56944   6.587   8.626   8.834 -1.9997  1.5316 -0.4782
  422MOL0     H56945   6.558   8.654   8.661  1.4193 -2.1031 -2.0181
  422MOL0     H56946   6.550   8.418   8.614  0.1780  3.8247 -1.7180
  422MOL0     H56947   6.440   8.461   8.744  0.1655  1.4675  0.1499
  422MOL0     H56948   6.656   8.394   8.892 -0.3971 -2.5436  1.2706
  422MOL0     H56949   6.533   8.273   8.835  0.6634 -1.9201 -1.8336
  422MOL0     H56950   7.089   8.399   7.999  1.1740  1.2564 -1.0729
  422MOL0     H56951   7.280   8.283   7.907 -2.7420 -0.6749  0.2030
  422MOL0     H56952   7.760   8.215   7.914 -0.1064 -0.4324  0.1885
  422MOL0     H56953   7.936   8.107   7.799  0.2747  1.2131  0.3820
  422MOL0     H56954   9.843   8.259   7.565  1.6120 -1.4952  1.4016
  422MOL0     H56955  10.094   8.283   7.555 -2.3798 -1.5032  0.3809
  422MOL0     H56956  10.499   8.254   7.458  1.1783 -0.3255  0.0331
  422MOL0     H56957  10.747   8.286   7.484  0.8808 -0.9640 -1.7934
  422MOL0     H56958  10.903   8.372   7.615 -2.1482 -0.8427 -1.1882
  422MOL0     H56959  11.025   8.485   7.587 -1.3042  1.5952 -0.0389
  422MOL0     H56960  11.041   8.381   7.345 -1.6049  0.4471 -0.4448
  422MOL0     H56961  10.933   8.254   7.411 -1.4530  1.4998  2.2933
  422MOL0     H56962  11.105   8.188   7.564  0.2295  1.5495  0.8036
  422MOL0     H56963  11.211   8.325   7.511  0.4173 -0.4589  1.5419
  422MOL0     H56964  11.219   8.240   7.285  0.6165  1.3719  0.8379
  422MOL0     H56965  11.276   8.115   7.401  1.0300 -1.1482 -2.4940
  422MOL0     H56966  10.939   7.922   7.229  0.4707 -1.2798  1.4892
  422MOL0     H56967  10.680   8.714   7.442 -2.2666  0.2538 -2.6594
  422MOL0     H56968  10.364   8.749   7.513  0.7459 -2.5812  0.8957
  422MOL0     H56969  10.463   8.801   7.390  1.3137  0.6268  2.2953
  422MOL0     H56970  10.315   8.695   7.355  0.8514  0.6355 -1.1354
  423MOL0     O56971   0.832   4.124   1.789 -0.4712  0.0979 -0.0550
  423MOL0     C56972   0.778   4.188   1.695 -0.6688 -0.6940 -0.3513
  423MOL0     O56973   0.834   4.312   1.647  0.1138 -0.1628 -0.7789
  423MOL0     C56974   0.971   4.332   1.649  0.5812 -0.5146  0.5549
  423MOL0     C56975   1.062   4.227   1.637  0.6416 -0.2895  0.5665
  423MOL0     C56976   1.195   4.263   1.652 -0.2264  0.5809  1.1781
  423MOL0     C56977   1.241   4.393   1.672  0.3351 -0.2470 -0.1485
  423MOL0     O56978   1.376   4.429   1.690  0.5253  0.7089 -0.4076
  423MOL0     C56979   1.469   4.379   1.597 -0.7217  0.7776 -0.1724
  423MOL0     C56980   1.601   4.411   1.655  0.1870 -0.2264 -0.0683
  423MOL0     C56981   1.613   4.549   1.706  0.8236 -1.0698 -0.5583
  423MOL0     C56982   1.765   4.576   1.745  0.2665  0.3394 -0.0218
  423MOL0     C56983   1.795   4.716   1.783  0.6598 -0.4409 -0.1633
  423MOL0     C56984   1.945   4.738   1.794 -0.3382  0.0212 -0.3254
  423MOL0     C56985   1.966   4.879   1.853 -0.8831  0.7875  0.1598
  423MOL0     C56986   2.120   4.913   1.850  0.4985 -0.7237 -0.4027
  423MOL0     N56987   2.155   5.022   1.932 -1.0088 -1.0756  0.0293
  423MOL0     C56988   2.100   5.149   1.905  0.1997 -0.4826 -0.3455
  423MOL0     C56989   2.132   5.221   2.015  0.4620 -0.8203  0.3042
  423MOL0     C56990   2.112   5.371   2.029  0.1877  0.5428  0.1332
  423MOL0     C56991   2.221   5.422   2.119  0.4866 -0.3605 -0.3586
  423MOL0     C56992   2.354   5.444   2.045 -0.0246 -0.2011 -0.0821
  423MOL0     C56993   2.474   5.459   2.150 -0.4237  0.3418  0.3527
  423MOL0     O56994   2.448   5.569   2.234 -0.3206  0.5729 -0.4158
  423MOL0     C56995   2.540   5.599   2.335  0.5326  0.0211  1.0300
  423MOL0     C56996   2.501   5.702   2.419  0.3030  0.1124 -0.2158
  423MOL0     C56997   2.582   5.752   2.519  0.0742  0.1979  1.3083
  423MOL0     C56998   2.713   5.698   2.525 -0.1236  0.3578 -0.1041
  423MOL0     C56999   2.794   5.752   2.630 -0.3966  0.1344 -0.1556
  423MOL0     O57000   2.906   5.675   2.656 -0.2207  0.2691  0.2123
  423MOL0     C57001   2.985   5.721   2.758 -0.1301 -0.2752  0.1791
  423MOL0     C57002   3.059   5.847   2.732  0.2015 -0.2847  0.2045
  423MOL0     C57003   3.136   5.907   2.836 -0.6249 -0.5380  0.3044
  423MOL0     C57004   3.132   5.845   2.963 -1.1431  0.3133  0.2301
  423MOL0     O57005   3.203   5.904   3.060  0.4582 -0.0476  0.0772
  423MOL0     C57006   3.318   5.834   3.097 -0.0947  0.4795  0.2457
  423MOL0     C57007   3.422   5.931   3.145 -0.6536  0.3483  0.1485
  423MOL0     C57008   3.424   6.070   3.078  0.5458  0.5392 -0.0731
  423MOL0     C57009   3.532   6.146   3.138  0.0197 -0.1440  0.7443
  423MOL0     C57010   3.677   6.115   3.094  0.0872  0.2321 -0.2219
  423MOL0     C57011   3.695   6.091   2.940  0.9278 -0.0447 -0.1963
  423MOL0     C57012   3.678   6.218   2.853  0.4311 -0.4087 -0.6641
  423MOL0     C57013   3.759   6.193   2.726 -0.0072 -0.8709  0.6122
  423MOL0    Cl57014   3.760   6.323   2.600 -0.1086  0.6332 -0.3333
  423MOL0     C57015   3.053   5.732   2.987 -0.0689  0.3249 -0.0488
  423MOL0     C57016   2.982   5.663   2.888  0.7006 -0.7638 -1.5390
  423MOL0     O57017   2.766   5.859   2.688 -0.6559  0.0099 -0.0251
  423MOL0     C57018   2.757   5.595   2.442  0.8786  0.8954 -0.2681
  423MOL0     C57019   2.675   5.547   2.342  0.3951 -0.5667  0.5741
  423MOL0     N57020   2.192   5.135   2.108  0.1788 -0.5425 -0.0499
  423MOL0     N57021   2.205   5.020   2.059  0.2311 -0.5747 -0.0969
  423MOL0     C57022   1.142   4.494   1.680  0.1225  0.3499 -0.0889
  423MOL0     C57023   1.006   4.463   1.675 -0.6928  0.0850 -0.2183
  423MOL0     C57024   0.651   4.148   1.641  0.4253 -0.2138  0.3900
  423MOL0     C57025   0.570   4.249   1.597  0.1728  0.3828 -0.5515
  423MOL0     C57026   0.442   4.225   1.558 -0.6300 -0.4874 -0.1232
  423MOL0     C57027   0.384   4.102   1.557 -0.3711  0.2784  1.1414
  423MOL0     O57028   0.249   4.082   1.541  0.3024  0.5307 -0.1359
  423MOL0     C57029   0.181   3.991   1.638 -0.4828 -0.1689  0.3469
  423MOL0     C57030   0.029   3.998   1.635 -0.5693  0.1879  0.2900
  423MOL0     C57031  -0.023   4.143   1.668 -1.5053  0.1605 -0.4654
  423MOL0     C57032  -0.176   4.138   1.681  0.4749 -0.3683 -0.0457
  423MOL0     C57033  -0.234   4.084   1.555 -0.7101 -0.2659  0.6918
  423MOL0     C57034  -0.277   4.051   1.447  0.1814  0.2704  0.2007
  423MOL0     C57035   0.470   3.995   1.600  0.1252  0.0647  0.4800
  423MOL0     C57036   0.604   4.013   1.631 -1.1181 -0.2748 -0.0462
  423MOL0     C57037   0.680   3.888   1.668 -0.1064  0.0538  0.0419
  423MOL0     H57038   1.030   4.123   1.634 -2.7726  0.6370  1.0237
  423MOL0     H57039   1.267   4.182   1.653 -0.4400  0.3943  1.8850
  423MOL0     H57040   1.454   4.272   1.580 -3.3159  1.1180 -0.4152
  423MOL0     H57041   1.462   4.427   1.498  0.8347  1.5678  0.0715
  423MOL0     H57042   1.681   4.379   1.588 -0.4223  0.1496 -0.9843
  423MOL0     H57043   1.621   4.355   1.747  1.8324 -0.5192 -0.5642
  423MOL0     H57044   1.561   4.566   1.801  2.1498 -0.8438  0.1599
  423MOL0     H57045   1.576   4.616   1.629 -0.7974  0.5808  1.5241
  423MOL0     H57046   1.809   4.505   1.815  1.7893  0.7306 -0.5566
  423MOL0     H57047   1.819   4.566   1.651 -0.9387 -1.4156 -0.5729
  423MOL0     H57048   1.755   4.790   1.713  0.1635 -2.0727 -1.6641
  423MOL0     H57049   1.741   4.739   1.876 -1.2483 -1.8871 -0.8533
  423MOL0     H57050   1.999   4.668   1.858  2.4016  2.0392 -0.2485
  423MOL0     H57051   1.982   4.727   1.691  0.6094 -0.4242  0.0481
  423MOL0     H57052   1.951   4.867   1.961  0.6814  3.5094  0.7749
  423MOL0     H57053   1.901   4.956   1.812 -0.9029  0.9770  0.5475
  423MOL0     H57054   2.176   4.823   1.878  2.6840  0.4924 -0.6889
  423MOL0     H57055   2.162   4.938   1.752 -2.5721 -1.7819 -2.1330
  423MOL0     H57056   2.054   5.186   1.814 -1.6197 -0.4485  0.5361
  423MOL0     H57057   2.124   5.422   1.933  1.2428 -1.6270 -0.9604
  423MOL0     H57058   2.011   5.394   2.064  1.1596 -1.2343  4.8391
  423MOL0     H57059   2.191   5.518   2.162 -0.3824  0.4606 -2.6464
  423MOL0     H57060   2.216   5.351   2.202 -1.4438 -1.0614 -1.0177
  423MOL0     H57061   2.368   5.529   1.978 -1.3602 -1.7589 -2.4937
  423MOL0     H57062   2.361   5.352   1.987  1.9226 -1.1600  1.5321
  423MOL0     H57063   2.565   5.481   2.094 -0.5958 -2.6675 -1.3220
  423MOL0     H57064   2.489   5.364   2.202 -0.5562 -1.2617 -2.3332
  423MOL0     H57065   2.396   5.730   2.413 -0.0510 -0.9203  0.8365
  423MOL0     H57066   2.556   5.832   2.587  3.1707  1.5014  1.1360
  423MOL0     H57067   3.047   5.888   2.633 -0.6590  2.4655  1.3489
  423MOL0     H57068   3.191   5.998   2.810  1.4637 -1.5712  0.8728
  423MOL0     H57069   3.295   5.762   3.176  1.4616 -0.2468  0.0787
  423MOL0     H57070   3.352   5.779   3.009 -4.5678 -0.7068 -1.0098
  423MOL0     H57071   3.413   5.945   3.253 -1.1691 -0.6692  0.2499
  423MOL0     H57072   3.518   5.880   3.133  0.4280  1.8348  2.0404
  423MOL0     H57073   3.431   6.060   2.969 -1.8748  2.3398 -0.4923
  423MOL0     H57074   3.334   6.126   3.106 -0.1655  1.1060 -3.1183
  423MOL0     H57075   3.524   6.139   3.247 -0.4950  0.3117  0.7418
  423MOL0     H57076   3.515   6.243   3.091  0.7277 -0.7294 -0.7670
  423MOL0     H57077   3.716   6.026   3.143 -0.6479  0.9175  1.7299
  423MOL0     H57078   3.749   6.196   3.109  1.9092 -1.0678 -1.5293
  423MOL0     H57079   3.798   6.056   2.941  0.4951 -1.3780  0.4501
  423MOL0     H57080   3.635   6.008   2.901 -0.5400  0.6727  0.4571
  423MOL0     H57081   3.728   6.305   2.898  0.7547 -0.1491 -1.5022
  423MOL0     H57082   3.576   6.251   2.834 -0.7049 -3.8278 -1.0842
  423MOL0     H57083   3.865   6.173   2.746  0.8489 -0.2826 -2.6789
  423MOL0     H57084   3.729   6.100   2.677 -1.2657  0.6557 -1.6862
  423MOL0     H57085   3.047   5.700   3.090 -3.6081 -0.4611 -0.3729
  423MOL0     H57086   2.908   5.587   2.914  0.9836 -0.2743  0.9681
  423MOL0     H57087   2.859   5.559   2.445  1.4598  2.3862 -1.1165
  423MOL0     H57088   2.732   5.472   2.290  1.6531  1.0061 -0.4151
  423MOL0     H57089   1.166   4.595   1.709 -0.3918  0.0697  1.4339
  423MOL0     H57090   0.930   4.537   1.698 -0.7806 -0.6356  2.0308
  423MOL0     H57091   0.614   4.348   1.603  3.0628 -0.8883  2.1309
  423MOL0     H57092   0.378   4.306   1.525  0.0891  0.3130  0.3963
  423MOL0     H57093   0.208   4.028   1.737 -0.1131  1.4720 -0.3287
  423MOL0     H57094   0.219   3.891   1.618  3.1815  1.3180 -0.9385
  423MOL0     H57095   0.000   3.931   1.717  3.4528  0.0547  1.8337
  423MOL0     H57096  -0.004   3.957   1.539 -0.8863 -1.5850  1.1007
  423MOL0     H57097   0.012   4.209   1.587  0.9913  0.4735  0.7555
  423MOL0     H57098   0.017   4.194   1.756 -0.9287  0.5697 -0.9453
  423MOL0     H57099  -0.198   4.074   1.768  0.3047  0.4995  0.5677
  423MOL0     H57100  -0.223   4.237   1.688  0.2766 -0.5621  2.4714
  423MOL0     H57101  -0.302   4.022   1.347  1.9159  1.7348 -0.7194
  423MOL0     H57102   0.429   3.895   1.601 -1.9074  0.8334 -0.5745
  423MOL0     H57103   0.783   3.910   1.699  0.2625  0.7965 -1.6117
  423MOL0     H57104   0.629   3.831   1.746 -0.5703 -1.8682 -1.5914
  423MOL0     H57105   0.682   3.822   1.581  3.5603 -0.2036  0.1480
  424MOL0     O57106   5.427  10.224   3.996  0.4500  0.2040  0.4646
  424MOL0     C57107   5.376  10.121   3.949  0.4515 -0.7236 -0.8964
  424MOL0     O57108   5.438  10.014   3.904  0.3331  0.3601  0.6531
  424MOL0     C57109   5.576  10.007   3.908  0.1740  0.2885  0.4469
  424MOL0     C57110   5.669  10.066   4.002  0.6866  0.1977  0.0910
  424MOL0     C57111   5.802  10.058   3.986 -0.6489 -0.0638  0.3262
  424MOL0     C57112   5.855   9.961   3.899 -0.1153 -0.2970  0.1633
  424MOL0     O57113   5.982   9.921   3.878 -0.1787  0.4070  0.0075
  424MOL0     C57114   6.093   9.989   3.939  0.0678 -0.5355  0.7285
  424MOL0     C57115   6.211   9.941   3.854  0.7046  0.1725 -0.3845
  424MOL0     C57116   6.336  10.036   3.873  0.1139  0.1445  0.1584
  424MOL0     C57117   6.468   9.973   3.819 -0.0644 -0.0672 -0.3369
  424MOL0     C57118   6.589  10.075   3.824  0.0481  0.2343 -0.8196
  424MOL0     C57119   6.706  10.001   3.775  0.3614 -0.1802  0.0400
  424MOL0     C57120   6.847  10.063   3.787 -0.4599 -0.2452 -0.1013
  424MOL0     C57121   6.847  10.182   3.685  0.8313  0.4702 -0.2520
  424MOL0     N57122   6.972  10.247   3.701 -0.4072 -0.0961 -0.0866
  424MOL0     C57123   7.088  10.227   3.627 -0.1558  0.3008  0.1457
  424MOL0     C57124   7.184  10.313   3.675 -0.0319 -0.3465  0.2810
  424MOL0     C57125   7.312  10.344   3.621  0.6950  0.2180  0.3790
  424MOL0     C57126   7.428  10.303   3.720 -0.4065 -1.7547  0.8226
  424MOL0     C57127   7.562  10.310   3.650 -0.4311 -0.7583 -1.5102
  424MOL0     C57128   7.666  10.292   3.766 -0.4378  0.6771 -0.1224
  424MOL0     O57129   7.791  10.265   3.700 -0.3722 -0.4438 -0.2190
  424MOL0     C57130   7.899  10.275   3.783  0.0880  0.1243  0.0663
  424MOL0     C57131   8.024  10.316   3.730  0.7398  0.3538  0.2217
  424MOL0     C57132   8.137  10.317   3.812  0.7307  0.5006  0.8499
  424MOL0     C57133   8.127  10.281   3.945  0.4083  0.1438  0.5816
  424MOL0     C57134   8.234  10.283   4.044 -0.2462  0.6063  0.8431
  424MOL0     O57135   8.221  10.254   4.176  0.3327  0.0433  0.4829
  424MOL0     C57136   8.332  10.269   4.252 -0.3285 -0.0811  0.4135
  424MOL0     C57137   8.381  10.393   4.298 -0.0431 -0.1316  0.2018
  424MOL0     C57138   8.500  10.404   4.359 -0.7136 -1.0271 -0.1505
  424MOL0     C57139   8.586  10.299   4.387  0.2023  0.2158  0.5580
  424MOL0     O57140   8.711  10.334   4.438 -0.2988  0.7771  0.1239
  424MOL0     C57141   8.800  10.221   4.473 -0.4481  0.7324  0.3894
  424MOL0     C57142   8.923  10.272   4.531  0.6019 -0.8748 -0.6112
  424MOL0     C57143   8.913  10.326   4.669 -0.6507  0.1621  0.0530
  424MOL0     C57144   9.035  10.407   4.713  0.2302  0.4491  0.2650
  424MOL0     C57145   9.164  10.315   4.727 -1.4780  0.2651  0.8542
  424MOL0     C57146   9.300  10.389   4.725  0.0079  0.8406 -0.1085
  424MOL0     C57147   9.322  10.494   4.828 -0.1751  0.0121  0.3654
  424MOL0     C57148   9.472  10.547   4.826  0.7013  0.1444  0.0190
  424MOL0    Cl57149   9.587  10.417   4.870  0.0878  0.2583  0.0631
  424MOL0     C57150   8.538  10.168   4.358  0.5385  0.5410 -0.2604
  424MOL0     C57151   8.414  10.153   4.290 -0.4713  0.1715  0.5812
  424MOL0     O57152   8.346  10.308   3.999  0.2041 -0.3435  0.1414
  424MOL0     C57153   7.997  10.233   3.994 -0.1914 -0.1191  0.1660
  424MOL0     C57154   7.895  10.216   3.907 -0.0415  0.0193  0.1281
  424MOL0     N57155   7.130  10.371   3.786 -0.8606 -0.7207 -0.3303
  424MOL0     N57156   7.001  10.334   3.798 -0.7615  0.3281  0.6806
  424MOL0     C57157   5.774   9.895   3.810 -0.2804 -0.0566  0.8496
  424MOL0     C57158   5.635   9.924   3.807  0.3005  0.0284 -0.2872
  424MOL0     C57159   5.230  10.118   3.954 -0.1292  0.3296 -0.9162
  424MOL0     C57160   5.165   9.997   3.911 -0.0194  0.0361 -0.4686
  424MOL0     C57161   5.026   9.985   3.920 -0.6116 -0.4879  0.1091
  424MOL0     C57162   4.944  10.084   3.976 -0.5065  0.3867  0.4561
  424MOL0     O57163   4.810  10.074   3.974  0.0474  0.1721 -0.0761
  424MOL0     C57164   4.737  10.155   4.066 -0.0642  0.0841 -1.1486
  424MOL0     C57165   4.590  10.120   4.063 -0.2388  0.5542  0.3901
  424MOL0     C57166   4.527  10.179   3.931  0.3819 -0.3783 -0.6009
  424MOL0     C57167   4.376  10.151   3.912  1.1982  0.0394  0.0707
  424MOL0     C57168   4.323  10.019   3.942  0.4303 -0.4725 -0.7798
  424MOL0     C57169   4.282   9.911   3.983 -0.0307 -0.5702  0.5985
  424MOL0     C57170   5.006  10.195   4.032 -0.7660  0.2350 -0.3187
  424MOL0     C57171   5.149  10.220   4.022  0.1554 -0.1973  0.0120
  424MOL0     C57172   5.192  10.359   4.070 -0.8864  0.0785 -0.2354
  424MOL0     H57173   5.638  10.128   4.085 -4.2149  0.1590 -1.3816
  424MOL0     H57174   5.870  10.111   4.052  2.5120 -1.2965 -1.7248
  424MOL0     H57175   6.093  10.099   3.943  1.6986 -0.4062 -1.3750
  424MOL0     H57176   6.104   9.943   4.038 -1.0042 -2.5125 -0.0202
  424MOL0     H57177   6.196   9.930   3.746 -1.7257  2.7557 -0.4215
  424MOL0     H57178   6.248   9.846   3.894 -0.3718 -0.3610 -0.6100
  424MOL0     H57179   6.364  10.062   3.976 -0.2709  1.2174  0.0083
  424MOL0     H57180   6.301  10.124   3.819 -1.0772 -1.3170 -1.5743
  424MOL0     H57181   6.495   9.885   3.878  0.8545 -0.0479 -0.7078
  424MOL0     H57182   6.454   9.940   3.716  0.3952 -0.2166 -0.3557
  424MOL0     H57183   6.562  10.161   3.761  0.6582  0.3557 -0.9205
  424MOL0     H57184   6.602  10.116   3.925  0.8072  1.0300 -1.2266
  424MOL0     H57185   6.718   9.908   3.831  1.1498 -1.7754 -2.6322
  424MOL0     H57186   6.680   9.970   3.673 -4.3316  2.2895  0.1599
  424MOL0     H57187   6.919   9.989   3.751  1.9051  1.4480  0.9174
  424MOL0     H57188   6.877  10.102   3.885  2.3799 -2.7078  0.1673
  424MOL0     H57189   6.841  10.154   3.580  4.3641  0.1525 -0.4603
  424MOL0     H57190   6.767  10.253   3.712 -0.6487 -1.1032 -0.2766
  424MOL0     H57191   7.081  10.158   3.544 -0.5144 -0.6713  0.9493
  424MOL0     H57192   7.324  10.299   3.522  2.0373 -1.4449  1.2453
  424MOL0     H57193   7.319  10.452   3.610  0.0240  0.4105  1.6786
  424MOL0     H57194   7.433  10.364   3.811 -0.1618 -0.2825 -0.1487
  424MOL0     H57195   7.408  10.203   3.760  0.8259 -2.4783 -0.3260
  424MOL0     H57196   7.584  10.405   3.600  2.6379  0.4859  1.8403
  424MOL0     H57197   7.565  10.229   3.577  1.6949 -2.9814  0.8905
  424MOL0     H57198   7.639  10.213   3.837  2.4464  0.5841  0.9982
  424MOL0     H57199   7.674  10.383   3.826  0.5577  1.4840 -1.4247
  424MOL0     H57200   8.011  10.348   3.627  1.1153  0.7067  0.2841
  424MOL0     H57201   8.232  10.342   3.765  1.3510  0.2917  1.9722
  424MOL0     H57202   8.327  10.482   4.268  2.1845  0.4526 -2.5026
  424MOL0     H57203   8.545  10.500   4.384 -0.2331 -1.6561  1.5183
  424MOL0     H57204   8.751  10.165   4.554  1.6818 -0.4593  0.9287
  424MOL0     H57205   8.831  10.158   4.389 -0.0709 -0.4907  1.4086
  424MOL0     H57206   8.985  10.182   4.531 -0.7633 -1.8435 -0.7093
  424MOL0     H57207   8.977  10.344   4.469  0.6073  0.6195  1.0386
  424MOL0     H57208   8.823  10.387   4.677 -1.0908 -0.6943  2.3450
  424MOL0     H57209   8.900  10.238   4.733 -1.1877  1.7285  2.2139
  424MOL0     H57210   9.013  10.455   4.808  1.7165 -1.5161  1.6791
  424MOL0     H57211   9.058  10.489   4.644  1.7995  1.7149  2.1795
  424MOL0     H57212   9.177  10.261   4.633  0.5013  0.8776  0.7339
  424MOL0     H57213   9.140  10.249   4.811 -0.4108 -1.1394  0.0932
  424MOL0     H57214   9.379  10.315   4.739  1.7181  2.8172  1.2869
  424MOL0     H57215   9.319  10.432   4.626 -0.7944  1.6703  0.0837
  424MOL0     H57216   9.277  10.464   4.923 -2.6728  1.0692 -0.3951
  424MOL0     H57217   9.260  10.580   4.800 -1.9027 -0.9841  1.0287
  424MOL0     H57218   9.497  10.594   4.730 -1.4537 -0.1691 -0.7427
  424MOL0     H57219   9.470  10.625   4.902 -2.6400  0.3546 -0.1184
  424MOL0     H57220   8.599  10.081   4.380  0.9264  1.2942  1.8672
  424MOL0     H57221   8.383  10.052   4.265 -2.4351  0.6351  1.0074
  424MOL0     H57222   7.989  10.207   4.099 -1.2099  0.9893  0.3907
  424MOL0     H57223   7.804  10.170   3.942 -0.4959 -0.4348 -1.5396
  424MOL0     H57224   5.809   9.824   3.736  1.6934  0.2790  1.3877
  424MOL0     H57225   5.574   9.875   3.731  0.8671  0.7944 -1.2637
  424MOL0     H57226   5.225   9.915   3.872 -1.2910 -1.0056 -0.3203
  424MOL0     H57227   4.996   9.885   3.890  0.1882 -1.3340  2.0061
  424MOL0     H57228   4.743  10.264   4.052 -0.6709  0.3434  0.4130
  424MOL0     H57229   4.777  10.140   4.167 -2.3429 -0.0277 -0.2131
  424MOL0     H57230   4.554  10.170   4.153  0.4822  1.4800  0.1735
  424MOL0     H57231   4.558  10.016   4.079 -0.7378  0.6647  0.1592
  424MOL0     H57232   4.586  10.145   3.846  0.9194  0.8734 -0.7436
  424MOL0     H57233   4.544  10.287   3.926  0.8396 -0.4858 -4.3439
  424MOL0     H57234   4.308  10.224   3.959 -1.1697 -2.0872  0.1414
  424MOL0     H57235   4.358  10.179   3.808 -2.6431  1.1953  0.8928
  424MOL0     H57236   4.274   9.804   3.985 -0.6340 -0.5278  0.4188
  424MOL0     H57237   4.954  10.272   4.089  0.3225  1.5694 -1.0620
  424MOL0     H57238   5.107  10.419   4.103 -1.1619  0.0134 -0.7970
  424MOL0     H57239   5.253  10.338   4.158 -0.3726 -0.1612 -0.6453
  424MOL0     H57240   5.250  10.418   3.999 -1.9892  0.3527 -0.9474
  425MOL0     O57241   1.559   8.360   2.984 -0.1779 -0.1990 -0.1878
  425MOL0     C57242   1.597   8.401   3.094  0.7712 -0.4419 -0.5693
  425MOL0     O57243   1.535   8.502   3.156  0.1546 -0.2504 -0.4860
  425MOL0     C57244   1.405   8.550   3.121  1.1948 -0.1565  0.6226
  425MOL0     C57245   1.296   8.467   3.087  0.2550 -0.1962 -0.3323
  425MOL0     C57246   1.173   8.511   3.051 -0.7825 -0.2694  0.4271
  425MOL0     C57247   1.150   8.647   3.045 -0.8146  0.5438 -0.7248
  425MOL0     O57248   1.017   8.688   3.011  0.0306  0.2846  0.5450
  425MOL0     C57249   0.972   8.811   3.066 -0.3919  0.0938 -0.3129
  425MOL0     C57250   0.821   8.802   3.079  0.3129 -1.4217 -0.3770
  425MOL0     C57251   0.769   8.684   3.160  0.7705 -0.8481  1.2842
  425MOL0     C57252   0.610   8.684   3.166  0.1920  0.4716 -0.0718
  425MOL0     C57253   0.562   8.580   3.275  0.7072  0.3709 -0.3075
  425MOL0     C57254   0.409   8.566   3.279  0.1713  0.8683 -0.2327
  425MOL0     C57255   0.359   8.466   3.174 -0.4741  0.3420 -0.7767
  425MOL0     C57256   0.213   8.425   3.215 -0.5522 -0.4332  0.2966
  425MOL0     N57257   0.108   8.528   3.191  0.8727  0.0214  0.7602
  425MOL0     C57258   0.111   8.626   3.088 -0.0999 -0.2594  0.2434
  425MOL0     C57259   0.007   8.710   3.126  0.0528  0.3853 -0.0612
  425MOL0     C57260  -0.052   8.831   3.059 -0.0115  1.0376  0.6630
  425MOL0     C57261  -0.065   8.813   2.914 -0.3166 -0.1025 -0.1868
  425MOL0     C57262  -0.138   8.690   2.861 -0.2862  0.8260  0.2087
  425MOL0     C57263  -0.114   8.660   2.707 -0.4545 -0.9357 -0.4834
  425MOL0     O57264   0.022   8.663   2.673  0.5066 -0.4096 -0.7751
  425MOL0     C57265   0.106   8.565   2.719 -0.7815  0.1556 -0.0330
  425MOL0     C57266   0.244   8.589   2.738  0.4793 -0.0432  0.5146
  425MOL0     C57267   0.335   8.492   2.784  0.4821  0.3982  0.0810
  425MOL0     C57268   0.292   8.362   2.806  0.3544 -0.3917 -0.0659
  425MOL0     C57269   0.388   8.266   2.857 -0.5072 -0.9766 -0.4255
  425MOL0     O57270   0.518   8.311   2.866  1.1531 -0.4574 -0.3385
  425MOL0     C57271   0.611   8.247   2.945 -1.0590 -0.8191 -0.1567
  425MOL0     C57272   0.712   8.329   3.007  0.9644 -0.1108 -0.0889
  425MOL0     C57273   0.821   8.281   3.071  0.2602 -0.3444 -0.4564
  425MOL0     C57274   0.850   8.146   3.059 -0.0254 -0.7138  0.5290
  425MOL0     O57275   0.968   8.100   3.102  0.4183 -0.4507  0.1297
  425MOL0     C57276   0.966   7.977   3.178  0.0882 -0.0992 -0.3658
  425MOL0     C57277   1.110   7.939   3.212  0.1350 -0.5605 -0.3622
  425MOL0     C57278   1.191   8.056   3.277  0.3201 -0.5924 -0.0214
  425MOL0     C57279   1.328   8.014   3.341 -1.2852 -0.1478  0.0312
  425MOL0     C57280   1.397   8.131   3.400  0.8607 -1.3552 -0.9595
  425MOL0     C57281   1.532   8.101   3.455  0.2301 -0.0659  0.3168
  425MOL0     C57282   1.635   8.071   3.336 -0.2738  0.7373 -0.6594
  425MOL0     C57283   1.764   8.028   3.406  0.4907 -0.3348  0.4437
  425MOL0    Cl57284   1.838   8.164   3.494  0.0978  0.1218  0.1111
  425MOL0     C57285   0.748   8.056   3.002 -0.7687 -0.3153 -1.3070
  425MOL0     C57286   0.625   8.108   2.950 -0.5992  0.0681  0.2947
  425MOL0     O57287   0.343   8.161   2.910 -0.1369 -0.2129 -0.4260
  425MOL0     C57288   0.156   8.330   2.783 -0.0459  0.8309 -0.0480
  425MOL0     C57289   0.063   8.427   2.750  0.2652  0.2949  1.1634
  425MOL0     N57290  -0.044   8.663   3.246 -0.6840  0.4485 -0.5670
  425MOL0     N57291   0.014   8.557   3.285 -0.3285 -0.7305 -0.3162
  425MOL0     C57292   1.263   8.737   3.071 -0.1508  0.3815 -0.8435
  425MOL0     C57293   1.381   8.687   3.117  0.6558  0.2864  0.2847
  425MOL0     C57294   1.740   8.365   3.133  0.2543  0.0731 -0.7231
  425MOL0     C57295   1.808   8.455   3.225 -0.1672  1.1576 -0.0624
  425MOL0     C57296   1.938   8.435   3.271  0.1008 -0.5950  0.2968
  425MOL0     C57297   2.013   8.333   3.214  0.1481  0.0657  0.3471
  425MOL0     O57298   2.146   8.334   3.263 -0.1381  0.0298  0.2480
  425MOL0     C57299   2.222   8.211   3.256 -0.5873 -0.0244 -0.1539
  425MOL0     C57300   2.311   8.218   3.130 -0.4614  0.5578 -0.5554
  425MOL0     C57301   2.434   8.303   3.163  0.4343  0.5199 -0.0171
  425MOL0     C57302   2.533   8.293   3.043 -0.1451 -0.7232  0.3026
  425MOL0     C57303   2.613   8.165   3.043 -0.3257 -0.2043 -0.5693
  425MOL0     C57304   2.689   8.066   3.051 -0.2945 -1.5138 -0.5960
  425MOL0     C57305   1.957   8.243   3.126 -0.0198 -0.0944 -0.5719
  425MOL0     C57306   1.821   8.257   3.092  0.4286 -0.2329  0.0557
  425MOL0     C57307   1.764   8.152   3.003  0.3940  1.0874 -0.4627
  425MOL0     H57308   1.307   8.360   3.102 -1.9038 -0.4928 -0.6529
  425MOL0     H57309   1.084   8.452   3.036 -1.7421  0.9136  1.2585
  425MOL0     H57310   1.019   8.837   3.162 -0.7136 -1.4819  0.3174
  425MOL0     H57311   0.996   8.891   2.996 -0.6298 -0.0756 -0.5873
  425MOL0     H57312   0.777   8.788   2.980  0.3544  2.2062 -1.0412
  425MOL0     H57313   0.782   8.896   3.120  1.7336 -1.1001  0.2970
  425MOL0     H57314   0.809   8.681   3.261  0.0078 -0.6535  1.6020
  425MOL0     H57315   0.793   8.582   3.128  1.0192 -0.3304 -0.3181
  425MOL0     H57316   0.584   8.786   3.194  2.2170  1.4800 -1.5760
  425MOL0     H57317   0.574   8.662   3.065  0.6658 -0.3645 -0.0690
  425MOL0     H57318   0.606   8.480   3.274 -1.6123 -0.7182 -0.0557
  425MOL0     H57319   0.591   8.635   3.364  0.1875 -0.4829  0.4045
  425MOL0     H57320   0.388   8.519   3.375 -0.0473  2.9432  0.7943
  425MOL0     H57321   0.342   8.652   3.267 -3.4875 -1.7323  0.1274
  425MOL0     H57322   0.415   8.373   3.188 -0.6463  0.6111  2.4195
  425MOL0     H57323   0.373   8.500   3.071  1.3694 -2.6452 -1.6313
  425MOL0     H57324   0.177   8.337   3.162 -0.8083  0.0748 -0.3924
  425MOL0     H57325   0.215   8.401   3.321  1.8989 -2.5373 -0.1263
  425MOL0     H57326   0.177   8.635   3.002  0.5338  0.7932  0.8273
  425MOL0     H57327  -0.151   8.866   3.089 -1.0163 -2.4579  1.9173
  425MOL0     H57328   0.021   8.908   3.086  0.9072  0.0556  1.0812
  425MOL0     H57329  -0.113   8.900   2.870  0.8917 -0.1930 -1.7842
  425MOL0     H57330   0.038   8.819   2.876 -0.2221 -2.4960 -0.4541
  425MOL0     H57331  -0.245   8.702   2.881  0.2455  3.9622  1.7178
  425MOL0     H57332  -0.118   8.594   2.910 -2.4508 -0.9045 -2.0091
  425MOL0     H57333  -0.165   8.734   2.645 -0.5410 -0.9011 -0.3714
  425MOL0     H57334  -0.157   8.563   2.681 -1.1051 -0.7201 -0.2557
  425MOL0     H57335   0.282   8.690   2.723  0.5099 -0.3121 -1.5121
  425MOL0     H57336   0.438   8.524   2.790  0.5940  0.2883 -0.9955
  425MOL0     H57337   0.711   8.437   3.007 -0.3529 -0.0873  1.3093
  425MOL0     H57338   0.897   8.341   3.121  1.5770 -0.2575 -2.4314
  425MOL0     H57339   0.911   7.995   3.272  0.2356  1.2718 -0.5244
  425MOL0     H57340   0.920   7.897   3.119 -3.4026  2.7808 -1.9032
  425MOL0     H57341   1.111   7.855   3.282  0.7308  0.3122  0.7041
  425MOL0     H57342   1.162   7.904   3.123  1.2058  0.2064 -0.0606
  425MOL0     H57343   1.216   8.142   3.214  0.6434 -1.7226 -1.4710
  425MOL0     H57344   1.137   8.100   3.362  1.0117  4.0503 -1.6810
  425MOL0     H57345   1.384   7.966   3.260 -2.5063 -0.9514 -0.3591
  425MOL0     H57346   1.314   7.939   3.420  1.5182 -2.5199 -1.5200
  425MOL0     H57347   1.331   8.167   3.479 -0.0132  3.3149 -3.4560
  425MOL0     H57348   1.399   8.204   3.319 -0.4412 -1.2965 -0.9521
  425MOL0     H57349   1.562   8.192   3.508  1.3320 -0.1035 -0.1887
  425MOL0     H57350   1.527   8.013   3.519  0.1476 -0.6486 -0.4652
  425MOL0     H57351   1.646   8.163   3.278  1.2989 -0.3707 -2.2331
  425MOL0     H57352   1.609   7.995   3.262  0.0384  0.5012 -0.5300
  425MOL0     H57353   1.762   7.937   3.467 -0.4121 -1.0980 -0.6818
  425MOL0     H57354   1.833   8.022   3.322 -1.5023 -0.1341 -1.2873
  425MOL0     H57355   0.762   7.950   2.982  2.1297  0.2530 -2.8890
  425MOL0     H57356   0.554   8.037   2.910 -3.1436  3.0564 -0.8513
  425MOL0     H57357   0.130   8.225   2.791 -1.1182  0.9828 -1.1579
  425MOL0     H57358  -0.039   8.396   2.731  0.6860  0.2588 -1.4202
  425MOL0     H57359   1.239   8.842   3.059  0.4433  0.3555 -2.5223
  425MOL0     H57360   1.472   8.745   3.130  0.5787  0.4609  0.0364
  425MOL0     H57361   1.761   8.546   3.260 -1.1344  1.0174 -0.9421
  425MOL0     H57362   1.983   8.497   3.348 -0.0313  0.4884 -0.4808
  425MOL0     H57363   2.160   8.123   3.238 -0.8963  0.3906 -1.1781
  425MOL0     H57364   2.279   8.191   3.348  0.8505 -2.5136 -1.4708
  425MOL0     H57365   2.263   8.256   3.040  4.2593  2.3805 -2.5780
  425MOL0     H57366   2.340   8.114   3.112 -0.4505  0.5004 -0.2228
  425MOL0     H57367   2.481   8.256   3.250 -0.7472 -0.8306 -0.0713
  425MOL0     H57368   2.406   8.406   3.186  2.3608  0.8941  0.8106
  425MOL0     H57369   2.491   8.314   2.944  1.5207 -0.2307 -0.3441
  425MOL0     H57370   2.612   8.368   3.058  0.9986 -2.2415  2.5261
  425MOL0     H57371   2.767   7.993   3.054  0.7356 -0.4756 -1.2337
  425MOL0     H57372   2.009   8.155   3.089 -0.0603  0.2916 -1.6047
  425MOL0     H57373   1.764   8.189   2.900 -0.3192  0.1784 -0.8031
  425MOL0     H57374   1.817   8.056   3.000  2.2696  2.1036 -1.9709
  425MOL0     H57375   1.663   8.122   3.033 -0.2246 -0.9619 -3.9989
  426MOL0     O57376   2.953   9.203   8.946 -0.6130 -0.7291  0.2932
  426MOL0     C57377   2.966   9.104   9.019 -0.0863 -0.2620  0.8587
  426MOL0     O57378   3.078   9.044   9.063  0.0643 -0.5084 -0.0676
  426MOL0     C57379   3.203   9.105   9.042  0.3183 -0.5008  1.4616
  426MOL0     C57380   3.297   9.029   8.977  0.1920  0.2810 -1.1142
  426MOL0     C57381   3.428   9.077   8.962 -0.6953 -0.6155 -0.1150
  426MOL0     C57382   3.464   9.205   9.001  0.8777 -0.4328 -0.1120
  426MOL0     O57383   3.593   9.245   8.976 -0.1176  0.5594 -0.8924
  426MOL0     C57384   3.653   9.357   9.036 -0.4320  0.2452 -0.6489
  426MOL0     C57385   3.800   9.395   8.992  0.1381 -0.2589 -0.2822
  426MOL0     C57386   3.798   9.440   8.846 -0.2277 -1.0022  0.0080
  426MOL0     C57387   3.935   9.462   8.784 -0.4320 -0.1828  0.0463
  426MOL0     C57388   3.933   9.482   8.626 -0.1434  0.6586 -0.0710
  426MOL0     C57389   4.087   9.488   8.583  0.3161  0.6893  0.3270
  426MOL0     C57390   4.105   9.485   8.433  0.6644  0.1972  0.2452
  426MOL0     C57391   4.242   9.437   8.375  1.3594  1.2519 -0.4861
  426MOL0     N57392   4.351   9.521   8.428  0.0090 -0.1021  0.3576
  426MOL0     C57393   4.374   9.650   8.388  0.0211  0.8595 -0.1302
  426MOL0     C57394   4.480   9.699   8.466  0.1195 -0.0719  0.2727
  426MOL0     C57395   4.522   9.845   8.472  0.6204 -0.2511  0.1364
  426MOL0     C57396   4.640   9.864   8.571 -0.3819  0.9119 -0.4901
  426MOL0     C57397   4.704   9.997   8.548  0.3806 -1.3800  0.1708
  426MOL0     C57398   4.806  10.006   8.427 -0.1070 -0.2599  0.3666
  426MOL0     O57399   4.880  10.130   8.433 -0.4802 -0.2927  0.5084
  426MOL0     C57400   5.002  10.138   8.378 -0.7953  0.2259 -0.3950
  426MOL0     C57401   5.066  10.038   8.296 -0.3411 -0.6364  0.0429
  426MOL0     C57402   5.185  10.058   8.228  0.2626 -0.3106  0.5057
  426MOL0     C57403   5.258  10.179   8.242 -0.8624 -0.2454 -0.9375
  426MOL0     C57404   5.385  10.202   8.183 -0.7879  0.9140  0.1407
  426MOL0     O57405   5.437  10.101   8.106  0.0957  0.4122  0.2043
  426MOL0     C57406   5.567  10.115   8.060 -0.3768  0.8799 -0.5270
  426MOL0     C57407   5.592  10.102   7.921  0.0292 -0.1179  0.6510
  426MOL0     C57408   5.730  10.100   7.878  1.1111  0.1881 -0.4650
  426MOL0     C57409   5.831  10.118   7.970 -0.9136 -0.3549 -0.1631
  426MOL0     O57410   5.964  10.130   7.918 -0.0530  0.2147 -0.6930
  426MOL0     C57411   6.056  10.188   8.008  0.0520 -0.1891 -0.4466
  426MOL0     C57412   6.174  10.206   7.911 -0.3294  0.1371 -0.3341
  426MOL0     C57413   6.298  10.252   7.990  0.3423  0.2240  0.6354
  426MOL0     C57414   6.408  10.271   7.876  0.0753  0.7866  0.1598
  426MOL0     C57415   6.550  10.298   7.938  1.2562  0.0342 -0.1846
  426MOL0     C57416   6.654  10.306   7.821  1.0370  0.0822 -0.7324
  426MOL0     C57417   6.793  10.352   7.868 -0.6221  0.7612  0.3032
  426MOL0     C57418   6.887  10.377   7.743 -0.2965  0.0993  0.8842
  426MOL0    Cl57419   6.808  10.477   7.619 -0.0715  0.3905 -0.0281
  426MOL0     C57420   5.803  10.143   8.107  0.3332 -0.4290 -0.4738
  426MOL0     C57421   5.670  10.135   8.152 -0.3892 -0.0997  0.6948
  426MOL0     O57422   5.437  10.313   8.204 -0.5268 -0.1788 -0.0796
  426MOL0     C57423   5.188  10.283   8.310 -0.1700  0.1268  0.2600
  426MOL0     C57424   5.074  10.258   8.385  0.6373  0.1624  0.0365
  426MOL0     N57425   4.510   9.598   8.558  0.1075  0.5257  0.0315
  426MOL0     N57426   4.425   9.499   8.538  0.3726 -1.0755  0.7524
  426MOL0     C57427   3.361   9.294   9.056  0.4531 -0.8455  0.2836
  426MOL0     C57428   3.231   9.237   9.080 -0.1955 -0.8383 -0.6429
  426MOL0     C57429   2.842   9.032   9.056 -0.4943 -0.8503 -0.5763
  426MOL0     C57430   2.828   8.901   9.036 -0.3249 -0.3918 -0.0948
  426MOL0     C57431   2.712   8.835   9.068  0.2953  0.2017  0.6502
  426MOL0     C57432   2.607   8.905   9.132 -0.5685 -1.2616  0.7167
  426MOL0     O57433   2.498   8.852   9.183  0.0935  0.2292  0.6137
  426MOL0     C57434   2.460   8.722   9.164  0.1321 -0.1842  0.4374
  426MOL0     C57435   2.323   8.680   9.210  0.1940  0.0440 -0.1838
  426MOL0     C57436   2.204   8.734   9.129  0.2018 -0.1881  0.3311
  426MOL0     C57437   2.189   8.690   8.980  0.2275 -0.1512 -0.2432
  426MOL0     C57438   2.159   8.553   8.963 -0.6661  0.4218  0.3695
  426MOL0     C57439   2.141   8.433   8.962  0.1076 -0.4393  0.6063
  426MOL0     C57440   2.622   9.040   9.149 -0.1072  0.4981 -0.0345
  426MOL0     C57441   2.742   9.109   9.118 -0.0338 -0.1665  0.6837
  426MOL0     C57442   2.747   9.257   9.143  0.0883  0.2943 -0.8932
  426MOL0     H57443   3.276   8.929   8.940 -2.8598  1.0876 -1.8861
  426MOL0     H57444   3.506   9.018   8.914 -1.9876 -0.9721 -1.8849
  426MOL0     H57445   3.593   9.445   9.012 -0.9796  0.2439  0.6324
  426MOL0     H57446   3.660   9.341   9.144  2.1048 -1.8866 -1.0323
  426MOL0     H57447   3.852   9.300   9.003 -0.5730 -1.0608 -2.9297
  426MOL0     H57448   3.847   9.476   9.048  0.2098  0.4934 -1.3906
  426MOL0     H57449   3.746   9.536   8.839  1.3679 -0.2570 -2.9357
  426MOL0     H57450   3.746   9.369   8.781 -0.9341 -1.4475  1.0300
  426MOL0     H57451   3.975   9.550   8.835  1.0363 -1.4691  1.2188
  426MOL0     H57452   3.992   9.374   8.817 -0.1208  0.2826  0.7931
  426MOL0     H57453   3.880   9.399   8.577 -0.2943  1.6724 -1.7193
  426MOL0     H57454   3.881   9.577   8.605  1.5160  1.5486 -0.3191
  426MOL0     H57455   4.144   9.566   8.634 -0.4468 -0.0993  2.5338
  426MOL0     H57456   4.130   9.390   8.608 -2.2401 -0.1349  1.8237
  426MOL0     H57457   4.074   9.577   8.383  0.3304 -1.2703 -2.4609
  426MOL0     H57458   4.028   9.415   8.400  0.8938  0.5831 -1.1526
  426MOL0     H57459   4.252   9.329   8.387  1.4145  0.9099 -3.0499
  426MOL0     H57460   4.238   9.439   8.266  2.0565 -2.0660 -0.6628
  426MOL0     H57461   4.306   9.705   8.324 -3.1299 -0.8152  1.4903
  426MOL0     H57462   4.553   9.874   8.371  1.5711  0.6939  0.6773
  426MOL0     H57463   4.442   9.909   8.512  1.7543  0.0279  2.1422
  426MOL0     H57464   4.606   9.848   8.674 -0.1944 -0.0102 -0.5600
  426MOL0     H57465   4.721   9.793   8.557  1.3011  2.9321 -1.4576
  426MOL0     H57466   4.753  10.019   8.643 -0.1915 -1.3981  0.4703
  426MOL0     H57467   4.630  10.076   8.536 -0.5332 -1.9754  1.6298
  426MOL0     H57468   4.756   9.983   8.332 -0.0261  1.0915 -0.0250
  426MOL0     H57469   4.884   9.931   8.443 -0.4560 -0.5532  0.6940
  426MOL0     H57470   5.036   9.934   8.290  0.8719 -1.0856  1.2495
  426MOL0     H57471   5.230   9.985   8.162 -0.5700  0.2745 -0.7620
  426MOL0     H57472   5.515  10.080   7.848  1.2350  0.8875 -0.9837
  426MOL0     H57473   5.750  10.103   7.772 -2.0957 -0.9815 -1.1999
  426MOL0     H57474   6.021  10.282   8.053  0.2371  0.5885 -1.8759
  426MOL0     H57475   6.099  10.127   8.087  2.5483 -0.5807 -2.0144
  426MOL0     H57476   6.195  10.113   7.859  0.6643  0.2336 -0.1241
  426MOL0     H57477   6.132  10.281   7.843  1.1570  2.4504  1.1406
  426MOL0     H57478   6.291  10.337   8.058 -0.8498 -0.5756  1.5640
  426MOL0     H57479   6.323  10.169   8.057 -1.4207 -1.3019 -0.4829
  426MOL0     H57480   6.394  10.347   7.798  0.3773  2.7091  1.9212
  426MOL0     H57481   6.414  10.174   7.824  0.6164  0.1073  1.4548
  426MOL0     H57482   6.571  10.226   8.018 -0.1552 -2.0507 -1.5634
  426MOL0     H57483   6.545  10.396   7.985 -3.1323  0.1206 -0.4398
  426MOL0     H57484   6.662  10.203   7.786 -0.4527  0.1019 -1.1947
  426MOL0     H57485   6.614  10.367   7.740  2.4511 -0.4191 -1.8543
  426MOL0     H57486   6.844  10.281   7.933  1.0148  1.9144  0.3370
  426MOL0     H57487   6.788  10.437   7.937  1.0545 -0.3749  1.9318
  426MOL0     H57488   6.981  10.423   7.774 -0.8167  0.8356  1.3983
  426MOL0     H57489   6.906  10.276   7.705 -0.4773 -0.1146  1.3580
  426MOL0     H57490   5.878  10.155   8.184 -2.6202 -2.4420  3.0729
  426MOL0     H57491   5.655  10.148   8.259 -0.6522 -0.0813  0.6567
  426MOL0     H57492   5.226  10.385   8.308 -2.2810  0.9843 -0.1699
  426MOL0     H57493   5.034  10.332   8.454 -1.8063 -0.5985 -0.4586
  426MOL0     H57494   3.380   9.398   9.080 -0.6243 -0.2459 -1.3068
  426MOL0     H57495   3.152   9.296   9.127 -0.1734 -0.5110 -1.0149
  426MOL0     H57496   2.908   8.857   8.976 -1.0946 -0.2116 -1.2873
  426MOL0     H57497   2.705   8.728   9.054 -1.2321  0.3701 -0.1663
  426MOL0     H57498   2.538   8.658   9.207  0.7739 -0.4465 -1.0492
  426MOL0     H57499   2.464   8.712   9.055 -1.5381 -1.7224  0.4742
  426MOL0     H57500   2.310   8.707   9.315 -2.7191 -2.0469  0.0968
  426MOL0     H57501   2.328   8.571   9.206  2.1220  0.0020  1.8093
  426MOL0     H57502   2.200   8.842   9.142  3.2527 -0.0427  1.0117
  426MOL0     H57503   2.120   8.691   9.184 -1.8564  1.1594 -1.5889
  426MOL0     H57504   2.115   8.755   8.932  1.8901  2.0731  0.0404
  426MOL0     H57505   2.274   8.722   8.919 -0.4004  0.7480 -0.6595
  426MOL0     H57506   2.124   8.327   8.968 -0.9973 -0.2592  0.8110
  426MOL0     H57507   2.542   9.095   9.199  0.3091  0.4077  0.7393
  426MOL0     H57508   2.745   9.313   9.049  0.8423 -1.5696 -2.0692
  426MOL0     H57509   2.667   9.287   9.211 -0.6742 -1.8092 -0.8002
  426MOL0     H57510   2.839   9.290   9.192 -0.9642 -0.0237  1.4241
  427MOL0     O57511   2.251  11.185   0.836 -0.0757  0.9280  0.4035
  427MOL0     C57512   2.324  11.243   0.916  0.7170  0.0911 -0.6632
  427MOL0     O57513   2.284  11.340   1.000  0.5134 -0.2722 -0.5152
  427MOL0     C57514   2.152  11.364   1.032 -1.3589 -0.1212 -0.1345
  427MOL0     C57515   2.040  11.276   1.023  0.4309 -0.1200  0.4478
  427MOL0     C57516   1.913  11.312   1.063  0.2983  0.0066  0.5617
  427MOL0     C57517   1.890  11.449   1.099  1.0184 -0.7969  0.2580
  427MOL0     O57518   1.765  11.500   1.151 -0.2266  0.0152  0.3099
  427MOL0     C57519   1.651  11.408   1.160 -0.4977 -0.7762  0.4374
  427MOL0     C57520   1.531  11.491   1.219  0.2260  0.1647  0.1240
  427MOL0     C57521   1.387  11.427   1.195 -0.5076 -0.0599  0.4467
  427MOL0     C57522   1.359  11.316   1.296 -0.1264  0.0820 -0.6132
  427MOL0     C57523   1.339  11.385   1.435  0.3061 -0.5011 -0.1606
  427MOL0     C57524   1.442  11.348   1.540  0.9492  0.3930  0.1103
  427MOL0     C57525   1.399  11.421   1.670 -0.1980  0.1293 -0.0415
  427MOL0     C57526   1.424  11.567   1.682 -0.0660 -0.1052 -0.4582
  427MOL0     N57527   1.360  11.623   1.805  0.2367  0.3438 -1.2157
  427MOL0     C57528   1.380  11.569   1.931  1.0373 -0.0449  0.5112
  427MOL0     C57529   1.300  11.636   2.013  0.3966  0.0779 -0.3778
  427MOL0     C57530   1.301  11.615   2.162 -0.0734  0.6266  0.4375
  427MOL0     C57531   1.256  11.475   2.211  0.9695 -0.1987 -0.3914
  427MOL0     C57532   1.320  11.426   2.336 -0.7912 -0.1930 -0.2674
  427MOL0     C57533   1.473  11.408   2.332  0.0659 -0.1368  0.0193
  427MOL0     O57534   1.504  11.349   2.204  0.8160  0.1149  0.8923
  427MOL0     C57535   1.640  11.339   2.174  0.0688  0.4501 -0.3073
  427MOL0     C57536   1.717  11.265   2.260  0.4841 -0.2893  0.8810
  427MOL0     C57537   1.853  11.236   2.236 -0.1221 -0.3067  0.2375
  427MOL0     C57538   1.905  11.275   2.118  0.7566 -0.1438 -0.4886
  427MOL0     C57539   2.045  11.239   2.083  0.4104  0.8339  0.0734
  427MOL0     O57540   2.110  11.329   2.000 -0.1968 -0.8625 -0.0724
  427MOL0     C57541   2.238  11.291   1.960 -0.6597 -0.1795 -0.0007
  427MOL0     C57542   2.346  11.369   2.007 -0.3350 -0.8188 -0.1981
  427MOL0     C57543   2.474  11.349   1.972 -0.0158  0.1332  0.3878
  427MOL0     C57544   2.498  11.249   1.878 -0.8177  0.1189  0.3073
  427MOL0     O57545   2.626  11.216   1.845  0.2239  0.3257  0.5191
  427MOL0     C57546   2.733  11.324   1.846 -0.1093  0.8286  0.0325
  427MOL0     C57547   2.842  11.305   1.738 -0.6828  0.3837  0.2055
  427MOL0     C57548   2.934  11.186   1.771  0.7255 -0.4636  1.2981
  427MOL0     C57549   3.061  11.183   1.687 -0.1872 -0.4282 -0.7427
  427MOL0     C57550   3.167  11.105   1.781  0.5313 -0.0034 -0.5063
  427MOL0     C57551   3.308  11.103   1.727  0.9534  0.8108  0.4023
  427MOL0     C57552   3.321  11.054   1.585 -0.3484  0.7140 -0.5557
  427MOL0     C57553   3.466  11.078   1.525 -0.3560 -0.0891 -0.1383
  427MOL0    Cl57554   3.477  11.024   1.350  0.1430 -0.1093 -0.1295
  427MOL0     C57555   2.398  11.170   1.827 -0.0614  0.0741 -0.1902
  427MOL0     C57556   2.269  11.191   1.863 -0.2097 -0.4017 -0.2098
  427MOL0     O57557   2.089  11.141   2.138 -0.2517 -0.3660 -0.5008
  427MOL0     C57558   1.823  11.345   2.026 -0.1775 -0.1566 -0.0068
  427MOL0     C57559   1.688  11.381   2.059 -0.1981 -0.3856  0.5858
  427MOL0     N57560   1.249  11.740   1.945 -0.9593  1.1135  0.5690
  427MOL0     N57561   1.278  11.730   1.816 -0.4042  0.2897 -0.3441
  427MOL0     C57562   1.997  11.541   1.100  0.1574  0.8821  0.0673
  427MOL0     C57563   2.126  11.493   1.075  0.2775  0.0812 -0.2895
  427MOL0     C57564   2.478  11.214   0.909  0.0575  0.5713 -0.2130
  427MOL0     C57565   2.520  11.103   0.832  0.0006 -0.3097 -0.5383
  427MOL0     C57566   2.658  11.089   0.805 -0.1064  0.3243  0.4689
  427MOL0     C57567   2.746  11.188   0.848  0.1966  1.0762  0.8182
  427MOL0     O57568   2.883  11.175   0.829 -0.2066 -0.3923  0.3920
  427MOL0     C57569   2.934  11.094   0.718  0.2979 -0.2182  0.3659
  427MOL0     C57570   3.061  11.148   0.657  0.2316  0.9995  0.0008
  427MOL0     C57571   3.187  11.148   0.759 -0.1172  0.2666  0.5482
  427MOL0     C57572   3.318  11.223   0.719  0.6489  0.5540  0.3118
  427MOL0     C57573   3.392  11.148   0.614 -0.8651  0.7365  0.3031
  427MOL0     C57574   3.466  11.097   0.530 -0.5323 -0.1212  0.4384
  427MOL0     C57575   2.709  11.282   0.939  0.7772 -0.4583  0.7488
  427MOL0     C57576   2.571  11.297   0.974 -0.0108  1.1696 -0.0076
  427MOL0     C57577   2.534  11.394   1.091  0.2728 -0.1930  0.2533
  427MOL0     H57578   2.055  11.171   0.998 -0.8195 -0.1387 -0.3178
  427MOL0     H57579   1.838  11.236   1.075 -1.2430  1.0689 -1.6748
  427MOL0     H57580   1.628  11.358   1.065  1.5529 -0.0597 -0.4936
  427MOL0     H57581   1.675  11.325   1.228 -2.0038 -0.6007  1.2356
  427MOL0     H57582   1.526  11.583   1.160 -0.1712  0.6313  0.8781
  427MOL0     H57583   1.557  11.513   1.323  0.3424  1.2780 -0.1300
  427MOL0     H57584   1.389  11.370   1.102  1.8325 -1.0587  1.0490
  427MOL0     H57585   1.316  11.510   1.187  1.7128  2.0671  1.6126
  427MOL0     H57586   1.264  11.274   1.263 -1.6646  3.0077 -0.2969
  427MOL0     H57587   1.443  11.246   1.297  0.7867  1.0944 -2.0989
  427MOL0     H57588   1.340  11.493   1.416  1.9095 -0.5088 -0.2433
  427MOL0     H57589   1.237  11.369   1.471  0.0033  0.6909 -0.4467
  427MOL0     H57590   1.433  11.241   1.562 -1.5945 -0.8933 -5.3733
  427MOL0     H57591   1.546  11.371   1.517  0.3250  2.6725 -0.7387
  427MOL0     H57592   1.461  11.374   1.747  1.5777  1.4599 -0.5837
  427MOL0     H57593   1.297  11.388   1.692 -1.3965  1.8440 -2.6003
  427MOL0     H57594   1.530  11.589   1.691  0.1245 -0.8095 -0.9363
  427MOL0     H57595   1.390  11.617   1.590 -1.1022 -0.6727 -0.3961
  427MOL0     H57596   1.435  11.479   1.959 -0.5880 -0.8298  1.3688
  427MOL0     H57597   1.405  11.623   2.194 -0.2617 -0.7646  1.5120
  427MOL0     H57598   1.249  11.695   2.216  0.2953  0.3694  1.1902
  427MOL0     H57599   1.148  11.469   2.225  1.0789 -1.6329  0.0319
  427MOL0     H57600   1.276  11.390   2.146  0.3405 -0.5673 -0.1040
  427MOL0     H57601   1.282  11.325   2.355  0.2352 -0.7666 -1.1138
  427MOL0     H57602   1.300  11.494   2.419  4.0128 -0.0244  1.0588
  427MOL0     H57603   1.496  11.338   2.413 -0.0928 -0.8668 -0.5603
  427MOL0     H57604   1.519  11.506   2.346 -1.9393  0.6963  1.1253
  427MOL0     H57605   1.674  11.212   2.345 -1.0203  0.0987  0.3898
  427MOL0     H57606   1.906  11.188   2.317 -2.5268 -0.0174  2.1088
  427MOL0     H57607   2.328  11.459   2.065 -0.5157 -1.4802  0.7976
  427MOL0     H57608   2.558  11.398   2.020 -0.8556  0.8308  1.1670
  427MOL0     H57609   2.681  11.420   1.836 -1.0029  0.1347 -3.0451
  427MOL0     H57610   2.770  11.326   1.949 -1.0429  0.4828  0.3917
  427MOL0     H57611   2.792  11.286   1.642  0.2715 -2.2498  0.1429
  427MOL0     H57612   2.903  11.396   1.737 -1.3206  0.8255  0.4233
  427MOL0     H57613   2.966  11.197   1.875  0.6181  2.7929  1.1096
  427MOL0     H57614   2.875  11.095   1.758  0.5275 -0.1816  0.1699
  427MOL0     H57615   3.104  11.280   1.659 -1.6657  0.0743 -1.3889
  427MOL0     H57616   3.047  11.125   1.595 -0.5354 -1.3372 -0.1343
  427MOL0     H57617   3.139  11.000   1.794  2.8625 -0.4526  1.7109
  427MOL0     H57618   3.175  11.148   1.881 -0.5417  1.9798 -1.2229
  427MOL0     H57619   3.355  11.202   1.730  3.1690 -0.1820  0.8413
  427MOL0     H57620   3.360  11.029   1.788 -0.2150 -1.0489 -0.7577
  427MOL0     H57621   3.244  11.097   1.520 -1.5615 -0.7491 -0.1636
  427MOL0     H57622   3.293  10.948   1.591 -0.1010  0.7310  1.9898
  427MOL0     H57623   3.507  11.178   1.543 -0.2371 -0.1648  0.0170
  427MOL0     H57624   3.534  11.014   1.583 -0.0112 -1.7690 -2.2968
  427MOL0     H57625   2.406  11.093   1.750 -3.0665  1.3597 -1.9938
  427MOL0     H57626   2.191  11.130   1.820  0.7704 -1.5503 -0.4338
  427MOL0     H57627   1.865  11.382   1.933 -0.0543 -1.4807 -0.5110
  427MOL0     H57628   1.629  11.451   2.001  0.4665  0.8296  1.3244
  427MOL0     H57629   1.976  11.643   1.129 -1.5688  0.0778  1.8564
  427MOL0     H57630   2.206  11.564   1.095  1.1740 -1.0446  0.2157
  427MOL0     H57631   2.446  11.040   0.784  1.2676 -1.1609 -1.4734
  427MOL0     H57632   2.690  11.007   0.741 -0.8336 -0.6741  1.3559
  427MOL0     H57633   2.859  11.087   0.639 -3.1122  2.5328  3.0591
  427MOL0     H57634   2.942  10.993   0.759  1.0397 -1.4552 -2.5252
  427MOL0     H57635   3.051  11.248   0.615 -0.1447  0.8024 -0.3989
  427MOL0     H57636   3.080  11.102   0.559 -0.3096 -0.5744  0.5946
  427MOL0     H57637   3.221  11.047   0.782  0.9454  0.2140 -1.0646
  427MOL0     H57638   3.146  11.189   0.852 -2.1220 -1.5575  0.5534
  427MOL0     H57639   3.306  11.329   0.694 -0.9513  0.5606  1.0174
  427MOL0     H57640   3.376  11.223   0.812  1.0701  3.1214  0.0971
  427MOL0     H57641   3.526  11.053   0.454  1.2624  1.5353  0.8280
  427MOL0     H57642   2.786  11.341   0.989  2.6292 -0.6141 -1.7269
  427MOL0     H57643   2.477  11.346   1.172 -0.3545  0.7338  0.3707
  427MOL0     H57644   2.629  11.426   1.134  2.2151 -1.9848 -2.3764
  427MOL0     H57645   2.472  11.477   1.056 -1.6565 -1.0614  1.4128
  428MOL0     O57646   3.169   2.317   5.029  0.0909  0.5131 -0.1367
  428MOL0     C57647   3.104   2.211   5.019  0.1268  0.5354 -0.4042
  428MOL0     O57648   3.127   2.096   5.093  0.2992  0.6351  0.6347
  428MOL0     C57649   3.254   2.053   5.125  0.1400  0.2548  0.0460
  428MOL0     C57650   3.377   2.113   5.067  0.5612 -0.4108  0.1990
  428MOL0     C57651   3.497   2.057   5.109 -0.1155 -0.4857 -0.4204
  428MOL0     C57652   3.515   1.966   5.213  0.9659  0.5533 -0.8042
  428MOL0     O57653   3.625   1.906   5.260 -0.3395 -0.0615  0.0607
  428MOL0     C57654   3.739   1.979   5.231 -0.0700 -0.7453 -0.5734
  428MOL0     C57655   3.866   1.912   5.293 -0.4233  0.0760 -0.5266
  428MOL0     C57656   3.882   1.763   5.257 -0.7850 -0.4216  0.4840
  428MOL0     C57657   4.021   1.698   5.303  0.6105 -0.7323  0.7524
  428MOL0     C57658   4.035   1.691   5.457 -0.9457  0.7777 -0.5753
  428MOL0     C57659   4.164   1.612   5.495  0.6625 -0.1642  0.1501
  428MOL0     C57660   4.290   1.702   5.465 -0.0300  0.6894 -0.9558
  428MOL0     C57661   4.391   1.650   5.566  0.2011 -0.1955 -0.2339
  428MOL0     N57662   4.522   1.718   5.560  0.6949  1.3358 -0.6218
  428MOL0     C57663   4.595   1.742   5.449 -0.9900 -0.8641  0.1967
  428MOL0     C57664   4.693   1.831   5.492  0.6846  0.0348 -0.0616
  428MOL0     C57665   4.780   1.907   5.397 -1.0867 -0.0399 -0.7698
  428MOL0     C57666   4.718   2.043   5.356  0.4859  0.6351 -0.1874
  428MOL0     C57667   4.779   2.115   5.243 -0.2782  0.5918 -0.1687
  428MOL0     C57668   4.914   2.185   5.289 -0.1111  0.2751 -0.6597
  428MOL0     O57669   4.954   2.282   5.185  0.0532 -0.3277 -0.7643
  428MOL0     C57670   5.082   2.345   5.199  0.2246 -1.1033 -0.7342
  428MOL0     C57671   5.135   2.414   5.077  0.5973  0.5844 -0.4983
  428MOL0     C57672   5.257   2.478   5.079  0.4360  0.5314 -0.0743
  428MOL0     C57673   5.343   2.458   5.184 -0.5689 -0.3444  0.1553
  428MOL0     C57674   5.484   2.498   5.168 -0.1720 -0.5064  0.4100
  428MOL0     O57675   5.564   2.457   5.274  0.4128 -0.2126 -0.2303
  428MOL0     C57676   5.697   2.483   5.272 -0.2069 -0.8724 -0.0296
  428MOL0     C57677   5.779   2.437   5.169  0.9884  0.7595  0.6036
  428MOL0     C57678   5.912   2.466   5.170  0.2203 -0.4932  0.0983
  428MOL0     C57679   5.969   2.540   5.280  0.2267  0.5841  0.6454
  428MOL0     O57680   6.102   2.585   5.284 -0.3267 -0.3216  0.3747
  428MOL0     C57681   6.203   2.504   5.227 -0.4287  0.6876  0.1560
  428MOL0     C57682   6.347   2.568   5.254  0.5798  0.6997  0.1536
  428MOL0     C57683   6.458   2.476   5.215 -0.2242 -0.7760  0.6269
  428MOL0     C57684   6.582   2.556   5.161 -0.2299  0.3264  0.3195
  428MOL0     C57685   6.672   2.464   5.079  0.0209 -0.3225 -0.1357
  428MOL0     C57686   6.810   2.527   5.069 -0.8315  0.2002  0.2910
  428MOL0     C57687   6.910   2.449   4.978 -0.4164  0.3521 -0.0063
  428MOL0     C57688   7.039   2.521   4.950  0.1834 -0.2805 -0.4162
  428MOL0    Cl57689   7.151   2.416   4.851 -0.1638 -0.4828  0.3586
  428MOL0     C57690   5.882   2.576   5.386  0.0047 -0.1906 -1.0075
  428MOL0     C57691   5.747   2.553   5.384 -0.2316 -0.8010  0.3898
  428MOL0     O57692   5.532   2.551   5.061 -0.3575 -0.6485 -0.9769
  428MOL0     C57693   5.295   2.396   5.303 -0.5067  0.0461 -0.0124
  428MOL0     C57694   5.175   2.339   5.315  1.4711 -0.2206  0.1261
  428MOL0     N57695   4.683   1.848   5.625 -0.0369  0.0047  0.0089
  428MOL0     N57696   4.577   1.785   5.666 -0.1615 -0.0322  0.2639
  428MOL0     C57697   3.393   1.913   5.264 -0.0892 -0.5063  0.3698
  428MOL0     C57698   3.269   1.949   5.220  0.2053 -0.0011  0.7054
  428MOL0     C57699   2.993   2.213   4.924  0.5101 -0.1441  0.2354
  428MOL0     C57700   2.915   2.332   4.915  0.3216 -0.3007 -0.1127
  428MOL0     C57701   2.786   2.332   4.868  0.3398  0.4753 -0.5414
  428MOL0     C57702   2.738   2.215   4.803  0.3131  0.1333  0.2083
  428MOL0     O57703   2.614   2.235   4.753 -0.4637  0.3680  0.0710
  428MOL0     C57704   2.539   2.142   4.678  0.6191 -0.4550  0.2221
  428MOL0     C57705   2.595   2.142   4.533 -0.6490 -0.0304  0.6014
  428MOL0     C57706   2.551   2.272   4.459 -0.2407  0.6568 -0.2803
  428MOL0     C57707   2.586   2.273   4.310 -0.3523 -0.5363  0.9452
  428MOL0     C57708   2.732   2.276   4.287  0.1537 -0.7354  1.3733
  428MOL0     C57709   2.847   2.282   4.256  0.8193 -0.4432  0.4548
  428MOL0     C57710   2.818   2.102   4.792 -0.9740 -0.3874  0.5312
  428MOL0     C57711   2.947   2.099   4.858 -0.2413 -1.0772 -0.3343
  428MOL0     C57712   3.030   1.977   4.844  0.1378 -0.0214  0.4836
  428MOL0     H57713   3.379   2.191   4.991  0.2835 -1.1880 -0.6227
  428MOL0     H57714   3.580   2.091   5.048 -1.2537 -0.9272 -2.3083
  428MOL0     H57715   3.750   2.006   5.126 -0.7459  3.0201  0.1833
  428MOL0     H57716   3.731   2.074   5.284  4.2090 -1.4384  1.8206
  428MOL0     H57717   3.874   1.926   5.401  1.8086 -2.5296 -0.2541
  428MOL0     H57718   3.954   1.973   5.271 -0.8283  0.4896 -1.0648
  428MOL0     H57719   3.874   1.751   5.148 -1.6628  0.0061  0.4925
  428MOL0     H57720   3.797   1.703   5.290 -1.1230  0.4496  1.2235
  428MOL0     H57721   4.027   1.598   5.259 -1.5855 -0.1174 -1.1969
  428MOL0     H57722   4.102   1.760   5.262 -2.1501  2.0528 -0.9575
  428MOL0     H57723   4.027   1.787   5.509  0.4146  2.2180 -2.8439
  428MOL0     H57724   3.945   1.639   5.492 -2.4247  3.5579  0.0750
  428MOL0     H57725   4.157   1.588   5.601  1.1303 -2.8215 -0.3480
  428MOL0     H57726   4.177   1.514   5.448  1.5577  0.3162 -0.6399
  428MOL0     H57727   4.270   1.809   5.472 -4.4179  0.0305 -0.5667
  428MOL0     H57728   4.337   1.673   5.371 -4.6977  0.1432 -3.4205
  428MOL0     H57729   4.352   1.658   5.668  1.2002 -2.1372  0.3300
  428MOL0     H57730   4.407   1.544   5.546 -2.9785 -0.6359 -1.0691
  428MOL0     H57731   4.581   1.712   5.345 -0.7142 -2.3984  0.5761
  428MOL0     H57732   4.865   1.929   5.462  0.1742 -1.4248 -1.8791
  428MOL0     H57733   4.800   1.842   5.311 -0.3112  0.8050 -1.2554
  428MOL0     H57734   4.615   2.017   5.327  0.2454 -0.3415  1.4483
  428MOL0     H57735   4.721   2.112   5.440  0.5438  0.9130 -0.4170
  428MOL0     H57736   4.697   2.186   5.227 -2.6301 -2.2366 -1.7484
  428MOL0     H57737   4.793   2.047   5.159 -0.0605  0.8229 -0.3173
  428MOL0     H57738   4.997   2.115   5.298  1.8198  2.5604  0.1300
  428MOL0     H57739   4.904   2.241   5.383  0.3323  0.5436 -0.7726
  428MOL0     H57740   5.068   2.412   4.992  0.3298 -0.5913 -0.2721
  428MOL0     H57741   5.294   2.537   4.996  2.7806  2.6948  2.3062
  428MOL0     H57742   5.744   2.386   5.080  0.9026 -1.4674  1.8461
  428MOL0     H57743   5.975   2.437   5.087 -0.3405 -0.6086 -0.2883
  428MOL0     H57744   6.197   2.397   5.252  0.4037 -0.1384 -2.7377
  428MOL0     H57745   6.196   2.509   5.118 -1.6803 -0.5371  0.1402
  428MOL0     H57746   6.362   2.660   5.196  1.8839 -1.4106 -3.1363
  428MOL0     H57747   6.358   2.581   5.362  0.0109 -0.2476  0.3346
  428MOL0     H57748   6.491   2.423   5.306  1.4945  1.1667  1.2224
  428MOL0     H57749   6.429   2.404   5.139 -1.5484 -0.1003  0.4731
  428MOL0     H57750   6.627   2.612   5.243 -0.0086 -1.0804  1.2054
  428MOL0     H57751   6.529   2.623   5.092  1.6661  0.0816 -1.4721
  428MOL0     H57752   6.626   2.443   4.982 -1.2355  1.7916 -0.0564
  428MOL0     H57753   6.675   2.371   5.138  0.2462  1.9467  3.8030
  428MOL0     H57754   6.791   2.623   5.021 -0.1917 -0.2440 -0.8968
  428MOL0     H57755   6.852   2.546   5.169  0.2654  0.0791 -0.1294
  428MOL0     H57756   6.856   2.427   4.885 -0.3869 -0.9225  0.2553
  428MOL0     H57757   6.934   2.347   5.009 -1.6199 -0.5466 -1.8279
  428MOL0     H57758   7.021   2.610   4.889  1.5089 -0.3283 -0.9033
  428MOL0     H57759   7.088   2.555   5.041 -1.7771 -0.6620  0.8343
  428MOL0     H57760   5.933   2.625   5.468  2.6708 -1.0796 -2.0295
  428MOL0     H57761   5.677   2.587   5.461 -0.4380 -2.2183  0.8554
  428MOL0     H57762   5.371   2.384   5.380  0.8424  0.2511 -1.2777
  428MOL0     H57763   5.137   2.307   5.412  1.5074  0.4907  0.3877
  428MOL0     H57764   3.400   1.839   5.343 -4.5830 -0.5234  1.0512
  428MOL0     H57765   3.188   1.890   5.262  1.4126 -1.3290  1.2501
  428MOL0     H57766   2.940   2.425   4.964 -2.1292  2.1325 -3.1064
  428MOL0     H57767   2.726   2.422   4.876 -1.6246 -0.6375 -1.8547
  428MOL0     H57768   2.430   2.154   4.686  0.5923 -1.8443  4.2162
  428MOL0     H57769   2.550   2.047   4.731  0.8415 -0.0028  1.0039
  428MOL0     H57770   2.550   2.060   4.476 -2.1392  0.3782  1.1438
  428MOL0     H57771   2.704   2.129   4.525 -0.3933  0.4394  2.8388
  428MOL0     H57772   2.599   2.359   4.503 -0.6722  0.5065  0.5032
  428MOL0     H57773   2.444   2.291   4.470 -1.1871 -2.2047 -2.8560
  428MOL0     H57774   2.539   2.190   4.257  2.0339 -0.7464 -1.0204
  428MOL0     H57775   2.550   2.363   4.259  0.6480 -0.0185  1.1216
  428MOL0     H57776   2.942   2.286   4.206 -0.5575 -1.9885 -2.5299
  428MOL0     H57777   2.788   2.013   4.737 -1.7317 -0.0369  0.3702
  428MOL0     H57778   3.023   1.926   4.747 -1.1764 -1.7617  1.4329
  428MOL0     H57779   3.132   1.986   4.881  0.8925 -0.9929 -1.2309
  428MOL0     H57780   2.983   1.905   4.912  0.4553  0.0510  0.7811
  429MOL0     O57781   2.160   6.709   6.390 -0.6546 -0.4038 -0.8008
  429MOL0     C57782   2.118   6.755   6.284 -0.0758 -0.4022 -0.9087
  429MOL0     O57783   2.195   6.771   6.180  0.9596 -0.8409  0.2863
  429MOL0     C57784   2.328   6.794   6.190  0.3175  0.2368  0.2543
  429MOL0     C57785   2.390   6.865   6.295 -0.0844  0.3591 -0.2527
  429MOL0     C57786   2.529   6.886   6.294 -0.2429  0.3079 -0.4154
  429MOL0     C57787   2.608   6.838   6.192 -0.0127  1.2049 -0.3378
  429MOL0     O57788   2.742   6.857   6.197 -0.5320  0.5045 -0.0649
  429MOL0     C57789   2.836   6.768   6.129  0.6510  0.0372  0.0009
  429MOL0     C57790   2.860   6.650   6.217 -0.9803 -0.1162 -0.6314
  429MOL0     C57791   2.957   6.680   6.329 -0.0552 -0.6847  0.2048
  429MOL0     C57792   2.961   6.560   6.424  0.4997 -0.7022 -0.3906
  429MOL0     C57793   3.048   6.585   6.539 -0.4643  0.4780 -0.6434
  429MOL0     C57794   3.197   6.572   6.511  0.8554 -0.3990 -0.5383
  429MOL0     C57795   3.294   6.631   6.621 -1.0973 -0.9229  0.5006
  429MOL0     C57796   3.316   6.537   6.748  0.0887  0.0706 -0.0945
  429MOL0     N57797   3.445   6.465   6.724  0.2532 -0.1973 -0.0858
  429MOL0     C57798   3.462   6.348   6.654 -0.0646 -1.5650  0.3164
  429MOL0     C57799   3.595   6.330   6.668  0.8163 -0.7556 -0.2214
  429MOL0     C57800   3.670   6.200   6.635  0.1259  0.3932  0.1022
  429MOL0     C57801   3.776   6.233   6.528 -0.3831 -0.4969 -0.1168
  429MOL0     C57802   3.899   6.149   6.551  0.1983  0.5730  0.1258
  429MOL0     C57803   3.884   5.997   6.514 -0.0088  0.5077 -0.0563
  429MOL0     O57804   3.894   5.971   6.372  0.1668 -0.0731  0.5341
  429MOL0     C57805   4.019   5.984   6.314  1.0518  0.0418  0.1132
  429MOL0     C57806   4.141   5.957   6.375 -0.5452 -0.0783 -0.7610
  429MOL0     C57807   4.261   5.970   6.305  0.7594  0.6763 -0.1103
  429MOL0     C57808   4.256   6.001   6.166 -0.3722  0.0783  0.4084
  429MOL0     C57809   4.391   6.004   6.088 -0.6724  0.3192  0.3911
  429MOL0     O57810   4.501   6.029   6.163 -0.0897 -0.0694 -0.0011
  429MOL0     C57811   4.625   6.050   6.101 -1.4220  0.5790  0.0124
  429MOL0     C57812   4.716   6.136   6.162  0.9293 -1.2524 -0.9466
  429MOL0     C57813   4.848   6.150   6.116 -0.0295  0.3853  1.1155
  429MOL0     C57814   4.897   6.077   6.007 -0.1860 -0.1523 -0.1509
  429MOL0     O57815   5.024   6.093   5.958  0.5467  0.2558  0.2754
  429MOL0     C57816   5.131   6.090   6.053  0.4918 -0.1251  0.3122
  429MOL0     C57817   5.262   6.082   5.967 -1.0094 -0.3518  0.6526
  429MOL0     C57818   5.302   5.943   5.908  0.6238  0.7286 -0.2264
  429MOL0     C57819   5.378   5.956   5.774  1.0321 -0.6115  0.3705
  429MOL0     C57820   5.530   5.957   5.779 -0.2266  0.0460  0.0752
  429MOL0     C57821   5.584   5.874   5.654  0.2416  0.0329 -0.4465
  429MOL0     C57822   5.539   5.929   5.515 -0.3723 -0.1632  0.4920
  429MOL0     C57823   5.641   5.896   5.406  0.0568 -0.4733  0.9487
  429MOL0    Cl57824   5.671   5.716   5.398 -0.0106  0.2969 -0.1370
  429MOL0     C57825   4.808   6.003   5.938 -0.2864  0.6044 -1.1226
  429MOL0     C57826   4.673   5.984   5.984  0.6824 -0.3082  0.4819
  429MOL0     O57827   4.383   6.004   5.968 -0.0544  0.7144 -0.4002
  429MOL0     C57828   4.136   6.025   6.108  0.0346 -0.9684 -0.3224
  429MOL0     C57829   4.020   6.014   6.178  0.1636  0.2194 -0.7215
  429MOL0     N57830   3.651   6.442   6.732 -0.4101 -0.0533 -0.3870
  429MOL0     N57831   3.557   6.517   6.774 -0.0358 -0.3145 -0.0979
  429MOL0     C57832   2.549   6.755   6.095  0.5300 -0.4116  0.5014
  429MOL0     C57833   2.409   6.752   6.087 -0.0252 -0.4355  0.3775
  429MOL0     C57834   1.971   6.783   6.275 -0.2892  0.2384  0.2510
  429MOL0     C57835   1.889   6.731   6.375  0.0776 -0.6032  0.1518
  429MOL0     C57836   1.750   6.731   6.374 -0.0140  0.7012 -0.3328
  429MOL0     C57837   1.684   6.785   6.264  0.7294  0.4474 -0.4479
  429MOL0     O57838   1.547   6.786   6.254  0.3452 -0.1750  0.2377
  429MOL0     C57839   1.464   6.749   6.362  0.0719 -0.5285 -0.2108
  429MOL0     C57840   1.337   6.825   6.344  0.6954 -1.2214  0.0154
  429MOL0     C57841   1.355   6.972   6.310  0.4695  0.1243  0.1332
  429MOL0     C57842   1.242   7.070   6.343 -0.4576  0.0570  1.1257
  429MOL0     C57843   1.121   7.028   6.281 -0.0702 -0.5722  1.3372
  429MOL0     C57844   1.021   6.986   6.231 -0.5361 -0.1714  0.6204
  429MOL0     C57845   1.762   6.844   6.168 -0.0310 -0.0188  1.2916
  429MOL0     C57846   1.903   6.839   6.162 -0.7031  0.0435 -0.3930
  429MOL0     C57847   1.970   6.897   6.037  0.4761 -0.6132 -0.4773
  429MOL0     H57848   2.324   6.903   6.372  2.0496  1.4850  1.0931
  429MOL0     H57849   2.578   6.932   6.380  0.7720 -1.9312  0.2834
  429MOL0     H57850   2.814   6.739   6.026  0.5955  3.4893 -1.0623
  429MOL0     H57851   2.930   6.823   6.122 -0.4154  2.6879  3.5070
  429MOL0     H57852   2.902   6.569   6.157 -1.6758 -1.6900  0.9127
  429MOL0     H57853   2.776   6.598   6.265  2.0527 -3.7239  1.2952
  429MOL0     H57854   2.926   6.775   6.373 -0.1995 -0.2488 -0.8003
  429MOL0     H57855   3.059   6.706   6.299 -0.2892  0.4843  0.4011
  429MOL0     H57856   2.865   6.559   6.476  0.1589  0.4831 -0.9438
  429MOL0     H57857   2.979   6.463   6.378 -0.5380 -1.1186  0.0707
  429MOL0     H57858   3.027   6.689   6.566 -0.2039  0.1392  0.9922
  429MOL0     H57859   3.022   6.525   6.627 -1.6589  1.0084 -0.6243
  429MOL0     H57860   3.218   6.466   6.494 -0.8615 -1.0574  0.9875
  429MOL0     H57861   3.215   6.618   6.414  0.0128 -1.9213 -1.4592
  429MOL0     H57862   3.263   6.733   6.646 -0.5416 -0.6260 -0.0057
  429MOL0     H57863   3.394   6.645   6.579 -0.4891 -2.4150  1.3626
  429MOL0     H57864   3.317   6.589   6.845  1.5795 -0.4587  0.2045
  429MOL0     H57865   3.235   6.464   6.750  0.3905 -0.2878 -0.8109
  429MOL0     H57866   3.396   6.277   6.607 -0.8957  0.8893 -2.5610
  429MOL0     H57867   3.733   6.164   6.717  0.0453 -0.5330 -0.2310
  429MOL0     H57868   3.605   6.118   6.605 -0.8186  1.8248 -2.0410
  429MOL0     H57869   3.735   6.220   6.427  1.2430 -0.5481 -0.8031
  429MOL0     H57870   3.801   6.339   6.535 -4.0068  0.4396  1.1668
  429MOL0     H57871   3.927   6.164   6.656 -1.3697 -0.3459  0.7045
  429MOL0     H57872   3.988   6.187   6.499  2.5013 -3.4615  0.6200
  429MOL0     H57873   3.791   5.966   6.561 -0.7133  3.1085  0.4563
  429MOL0     H57874   3.965   5.940   6.560 -1.3535 -1.7869 -0.4374
  429MOL0     H57875   4.159   5.923   6.476 -0.8688 -1.3703 -1.1155
  429MOL0     H57876   4.357   5.955   6.354 -1.2911 -4.2233  3.1445
  429MOL0     H57877   4.687   6.185   6.254 -2.9688 -1.6920 -1.7610
  429MOL0     H57878   4.909   6.222   6.170 -0.7301  1.7118  0.1860
  429MOL0     H57879   5.137   6.178   6.117  2.6958 -1.0501  1.4771
  429MOL0     H57880   5.112   6.009   6.124 -1.6711 -1.0426 -1.1906
  429MOL0     H57881   5.260   6.161   5.891  0.9849 -0.6572  0.2384
  429MOL0     H57882   5.338   6.105   6.042 -0.2191  4.0403 -1.2006
  429MOL0     H57883   5.351   5.874   5.978  1.0478 -0.9168 -2.0557
  429MOL0     H57884   5.205   5.896   5.888  0.7163  0.2714  0.3794
  429MOL0     H57885   5.352   6.053   5.731  0.3159 -0.7007  0.5842
  429MOL0     H57886   5.347   5.874   5.708  0.3822  0.6495 -0.9351
  429MOL0     H57887   5.571   5.911   5.869  2.9539  1.7439 -0.3324
  429MOL0     H57888   5.572   6.058   5.773  3.2806 -1.3094 -0.4733
  429MOL0     H57889   5.693   5.875   5.667  0.0578 -1.1936  1.7263
  429MOL0     H57890   5.551   5.771   5.666 -0.6564  0.3343 -0.3018
  429MOL0     H57891   5.501   6.031   5.513 -2.6071 -0.9343 -0.4038
  429MOL0     H57892   5.443   5.882   5.492 -0.1662 -0.2643 -0.1905
  429MOL0     H57893   5.602   5.932   5.310  3.3674  0.3688 -0.2271
  429MOL0     H57894   5.734   5.952   5.421 -0.8496  1.1990  0.5907
  429MOL0     H57895   4.839   5.969   5.840  0.4210 -0.3001 -0.6076
  429MOL0     H57896   4.615   5.917   5.922  0.4233 -0.4798  0.9056
  429MOL0     H57897   4.128   6.060   6.005 -1.3238 -4.5676 -1.6135
  429MOL0     H57898   3.928   6.036   6.125 -1.2383 -1.9702  0.6692
  429MOL0     H57899   2.611   6.707   6.021  0.2338 -2.3936  1.4791
  429MOL0     H57900   2.359   6.699   6.006  1.7124  1.3759 -2.0261
  429MOL0     H57901   1.931   6.698   6.469 -1.2523 -2.1123  0.2589
  429MOL0     H57902   1.707   6.699   6.468  0.9964 -0.8046 -0.3406
  429MOL0     H57903   1.516   6.781   6.453 -0.3708 -2.8270  0.9213
  429MOL0     H57904   1.445   6.642   6.374  4.5271 -1.5041  0.0834
  429MOL0     H57905   1.290   6.825   6.443  1.6322 -0.1343  0.4864
  429MOL0     H57906   1.273   6.781   6.266 -0.0188  0.2475 -0.2623
  429MOL0     H57907   1.376   6.983   6.203 -1.7876  3.1630 -0.1126
  429MOL0     H57908   1.445   7.004   6.362  0.5809 -0.6136  0.4172
  429MOL0     H57909   1.223   7.072   6.451 -1.8955  0.7868  0.8905
  429MOL0     H57910   1.272   7.171   6.314  2.0182 -1.2289 -1.1481
  429MOL0     H57911   0.939   6.944   6.176  0.1363 -0.2904 -0.3241
  429MOL0     H57912   1.708   6.878   6.080 -4.1214 -2.7242  2.4797
  429MOL0     H57913   1.919   6.983   5.994 -2.1336 -2.0794 -0.5080
  429MOL0     H57914   2.073   6.926   6.059 -0.0518 -0.9165  2.8874
  429MOL0     H57915   1.977   6.815   5.964 -0.7785  0.5914 -2.0162
  430MOL0     O57916   9.502   1.290   5.357  0.6546 -0.2163 -0.4452
  430MOL0     C57917   9.432   1.201   5.309  0.1489  0.1958 -0.0912
  430MOL0     O57918   9.476   1.075   5.265  0.5538 -0.0676 -0.4138
  430MOL0     C57919   9.602   1.031   5.301  0.7504  0.7696  0.6411
  430MOL0     C57920   9.685   0.984   5.202 -0.4112  0.2278  0.6871
  430MOL0     C57921   9.802   0.918   5.226  0.2807  0.3797 -0.8123
  430MOL0     C57922   9.840   0.895   5.354  0.1222 -0.3570  0.6624
  430MOL0     O57923   9.956   0.828   5.390  0.0748 -0.5392 -0.1934
  430MOL0     C57924  10.064   0.816   5.296  0.4325 -0.2934 -0.3057
  430MOL0     C57925  10.165   0.719   5.359 -0.2430 -0.5288 -0.3996
  430MOL0     C57926  10.246   0.795   5.462 -0.2787 -0.2744 -0.0218
  430MOL0     C57927  10.380   0.732   5.503  0.1828  0.1290  0.2343
  430MOL0     C57928  10.456   0.828   5.586 -0.0374 -0.0005 -0.4995
  430MOL0     C57929  10.600   0.785   5.623 -0.4361  0.2760  0.1461
  430MOL0     C57930  10.652   0.841   5.754 -0.4669  0.0319  0.8148
  430MOL0     C57931  10.796   0.796   5.769 -0.4712  0.2543 -0.5237
  430MOL0     N57932  10.865   0.855   5.886 -0.3742  0.2295 -0.5852
  430MOL0     C57933  10.901   0.784   6.000 -0.7427 -0.8533 -0.2950
  430MOL0     C57934  10.996   0.867   6.059  0.4328  0.4811  0.2271
  430MOL0     C57935  11.081   0.840   6.183  0.2668 -0.0575 -0.2608
  430MOL0     C57936  11.199   0.753   6.140 -0.1023 -0.4917 -0.2750
  430MOL0     C57937  11.306   0.824   6.045  1.1623 -0.0414 -0.7431
  430MOL0     C57938  11.364   0.954   6.110 -0.5097 -0.6175 -0.0884
  430MOL0     O57939  11.462   0.927   6.203 -0.0859  0.0711 -0.4295
  430MOL0     C57940  11.581   0.997   6.189 -0.7153  1.0510 -0.6255
  430MOL0     C57941  11.700   0.942   6.247 -0.0337  0.0098 -0.8219
  430MOL0     C57942  11.829   1.001   6.227 -0.1410 -0.3502  1.0054
  430MOL0     C57943  11.832   1.124   6.157  0.5875  0.0078 -0.9343
  430MOL0     C57944  11.964   1.193   6.149  0.4699 -0.3418  0.1563
  430MOL0     O57945  12.068   1.137   6.215 -0.2071  0.7357 -0.3077
  430MOL0     C57946  12.173   1.212   6.220 -0.2077 -0.2003 -0.4582
  430MOL0     C57947  12.273   1.195   6.129  0.4035 -0.9036  0.9038
  430MOL0     C57948  12.393   1.268   6.130  0.6582 -0.2219  0.7528
  430MOL0     C57949  12.408   1.366   6.227  0.1118  0.0264 -0.6026
  430MOL0     O57950  12.529   1.436   6.213  0.7921 -0.4194  0.1177
  430MOL0     C57951  12.559   1.553   6.295  0.0238 -0.5179 -0.7475
  430MOL0     C57952  12.666   1.513   6.402  0.5663  0.6758  0.3004
  430MOL0     C57953  12.808   1.498   6.342 -0.3529  0.1641 -0.1820
  430MOL0     C57954  12.808   1.380   6.237  0.7643  0.3046  0.0349
  430MOL0     C57955  12.940   1.315   6.207  0.0463 -0.0009 -0.5444
  430MOL0     C57956  12.948   1.244   6.073 -0.2346  0.8722  0.2375
  430MOL0     C57957  12.833   1.139   6.071 -0.6042 -0.5812  0.6031
  430MOL0     C57958  12.828   1.053   5.950 -0.4200 -0.5680 -0.0489
  430MOL0    Cl57959  12.979   0.961   5.950  0.2995 -0.0285 -0.3849
  430MOL0     C57960  12.312   1.372   6.333  0.9052 -0.1531  0.5714
  430MOL0     C57961  12.194   1.299   6.326 -1.1079 -0.0165  0.4674
  430MOL0     O57962  11.963   1.299   6.082 -0.2456  0.1002 -0.0837
  430MOL0     C57963  11.711   1.190   6.127  0.7193 -0.1171 -0.1293
  430MOL0     C57964  11.587   1.130   6.145 -0.6121  0.5518 -0.0241
  430MOL0     N57965  10.999   0.984   5.996  0.4426 -0.1774  0.6055
  430MOL0     N57966  10.926   0.982   5.887  0.4504  0.2691  0.0735
  430MOL0     C57967   9.760   0.944   5.459 -0.1095 -0.0054 -0.4080
  430MOL0     C57968   9.642   1.007   5.432  0.3203 -0.6479  0.1710
  430MOL0     C57969   9.290   1.235   5.273  0.1023 -0.4889  0.0613
  430MOL0     C57970   9.263   1.348   5.202 -0.0358 -0.1517 -0.2913
  430MOL0     C57971   9.132   1.373   5.155 -0.7332 -0.6047 -0.7175
  430MOL0     C57972   9.025   1.283   5.181  0.0933  0.5691  0.1230
  430MOL0     O57973   8.900   1.303   5.125  0.2062  0.4103  0.1408
  430MOL0     C57974   8.901   1.313   4.980 -0.4950  0.5850  0.8741
  430MOL0     C57975   8.790   1.225   4.913 -0.3470  0.3105 -0.1038
  430MOL0     C57976   8.672   1.315   4.925  0.6917  0.2762 -0.7368
  430MOL0     C57977   8.546   1.229   4.896 -0.6681  0.7313  0.3124
  430MOL0     C57978   8.527   1.165   4.768 -0.0000 -0.1358 -0.2592
  430MOL0     C57979   8.504   1.142   4.650  0.0587 -0.2227  0.1057
  430MOL0     C57980   9.061   1.166   5.256  0.7768 -0.4128 -0.2921
  430MOL0     C57981   9.187   1.139   5.304 -0.1463 -0.2017 -0.9642
  430MOL0     C57982   9.211   1.018   5.401  0.0759  0.7543 -0.4680
  430MOL0     H57983   9.651   0.999   5.100 -3.0028  1.4347  1.6469
  430MOL0     H57984   9.861   0.875   5.146  0.8589  0.6690 -0.5496
  430MOL0     H57985  10.033   0.768   5.203  3.1857  0.1408 -1.5774
  430MOL0     H57986  10.105   0.913   5.265  1.4233 -0.7706 -0.5264
  430MOL0     H57987  10.234   0.701   5.276  0.4875  0.7013 -0.0774
  430MOL0     H57988  10.130   0.624   5.402 -0.7337 -0.3706 -0.4489
  430MOL0     H57989  10.187   0.813   5.552 -0.3935 -1.5202  0.1740
  430MOL0     H57990  10.273   0.894   5.424 -0.3323  0.3348  1.4631
  430MOL0     H57991  10.360   0.642   5.562 -2.9828 -0.0169 -0.8716
  430MOL0     H57992  10.445   0.706   5.419 -0.7710 -0.8907 -0.2066
  430MOL0     H57993  10.468   0.921   5.529  1.1256 -0.7062 -1.4521
  430MOL0     H57994  10.401   0.852   5.677 -2.6213 -0.3651 -1.8640
  430MOL0     H57995  10.607   0.676   5.634 -1.0403  0.1823 -0.3674
  430MOL0     H57996  10.665   0.794   5.535 -0.5774  0.2031  0.0339
  430MOL0     H57997  10.601   0.811   5.846  0.7098  2.1462  2.2478
  430MOL0     H57998  10.650   0.949   5.733  0.3754 -0.0685  0.1893
  430MOL0     H57999  10.800   0.687   5.759 -0.3887  0.0716  1.1480
  430MOL0     H58000  10.853   0.825   5.681  0.0352  1.8284  0.2784
  430MOL0     H58001  10.858   0.688   6.027 -2.8835 -0.6348 -2.5428
  430MOL0     H58002  11.102   0.938   6.228 -4.8704  0.7265  1.1939
  430MOL0     H58003  11.027   0.793   6.266 -1.5014  1.4477 -0.4788
  430MOL0     H58004  11.256   0.712   6.224  0.0064 -0.5351 -0.3683
  430MOL0     H58005  11.149   0.667   6.096 -2.9130  1.0515 -0.3236
  430MOL0     H58006  11.281   0.848   5.941  0.7122  1.4449 -0.3196
  430MOL0     H58007  11.390   0.757   6.026  0.3875 -1.6339  1.1983
  430MOL0     H58008  11.291   1.017   6.161  1.1005  0.5432  0.8911
  430MOL0     H58009  11.408   1.012   6.028  0.1049  1.0144  1.3345
  430MOL0     H58010  11.688   0.851   6.305  0.6752  0.9421  0.8200
  430MOL0     H58011  11.919   0.950   6.260 -0.2158  0.0303  1.8200
  430MOL0     H58012  12.262   1.134   6.040 -1.0143  3.0625 -1.9196
  430MOL0     H58013  12.470   1.248   6.056  0.2338  0.2596  0.1803
  430MOL0     H58014  12.601   1.629   6.230 -0.3133 -1.1954 -1.7828
  430MOL0     H58015  12.472   1.603   6.338  0.7711  2.2906 -2.2516
  430MOL0     H58016  12.678   1.592   6.477  0.9830 -0.2833  1.2719
  430MOL0     H58017  12.641   1.418   6.450  2.8927  0.3723  1.0835
  430MOL0     H58018  12.822   1.591   6.287  0.4395 -0.3910 -0.9440
  430MOL0     H58019  12.880   1.501   6.424 -0.3362  2.6254 -0.2220
  430MOL0     H58020  12.784   1.425   6.141  3.5899 -0.6744 -1.2358
  430MOL0     H58021  12.726   1.315   6.269  0.1367 -0.8296 -3.4303
  430MOL0     H58022  12.963   1.243   6.286  0.2784  0.5323 -0.1180
  430MOL0     H58023  13.019   1.392   6.202  2.7952 -2.7029 -1.8445
  430MOL0     H58024  12.932   1.310   5.987 -1.0311  0.1878 -0.1561
  430MOL0     H58025  13.048   1.200   6.069  0.7556  3.0583 -1.3626
  430MOL0     H58026  12.740   1.196   6.069  0.6245  1.4732 -0.4090
  430MOL0     H58027  12.835   1.071   6.157  2.7638  0.9303  1.8576
  430MOL0     H58028  12.735   0.997   5.937  0.5023 -1.8366 -1.5246
  430MOL0     H58029  12.835   1.127   5.869 -0.1038 -0.0255  0.4638
  430MOL0     H58030  12.326   1.450   6.408  1.9971  3.2172 -2.8295
  430MOL0     H58031  12.126   1.312   6.409 -1.0155  1.6851  0.3126
  430MOL0     H58032  11.719   1.292   6.091 -1.0427 -0.1209 -0.6020
  430MOL0     H58033  11.497   1.187   6.119  1.4964  4.3717  0.2746
  430MOL0     H58034   9.789   0.938   5.563  2.3327  4.1027 -0.6339
  430MOL0     H58035   9.587   1.048   5.516 -0.9384 -2.1219  0.1069
  430MOL0     H58036   9.347   1.418   5.200 -0.3682  0.3860  2.0873
  430MOL0     H58037   9.124   1.468   5.104  1.4684 -1.2777 -2.4974
  430MOL0     H58038   8.994   1.276   4.937 -2.4395 -2.3948 -1.2673
  430MOL0     H58039   8.878   1.417   4.956 -0.6870  0.1275 -1.1194
  430MOL0     H58040   8.780   1.125   4.954  1.5725 -2.0070 -4.5778
  430MOL0     H58041   8.817   1.213   4.807 -2.1474  0.1975 -0.5741
  430MOL0     H58042   8.672   1.403   4.860 -1.8834 -0.3565 -1.7115
  430MOL0     H58043   8.665   1.351   5.028  1.0550  1.6131 -1.1534
  430MOL0     H58044   8.542   1.144   4.965  2.3050  0.7713  0.6633
  430MOL0     H58045   8.460   1.295   4.906 -1.0633  0.8010 -2.5592
  430MOL0     H58046   8.483   1.121   4.547 -1.1482  1.0212  0.0721
  430MOL0     H58047   8.991   1.084   5.270  1.1918 -0.8297 -0.6211
  430MOL0     H58048   9.247   1.058   5.496  0.0994 -0.1286 -0.1025
  430MOL0     H58049   9.117   0.967   5.425 -0.9277  2.4249 -0.6359
  430MOL0     H58050   9.288   0.948   5.368  1.1826  1.0020  1.4606
  431MOL0     O58051   9.941   9.334   8.284  0.0675  0.4588  0.2871
  431MOL0     C58052   9.878   9.231   8.260  0.1386 -0.0679 -0.7342
  431MOL0     O58053   9.928   9.112   8.291 -0.7834 -0.3457  0.9458
  431MOL0     C58054  10.064   9.088   8.293 -0.5496  0.2723  0.2866
  431MOL0     C58055  10.119   9.007   8.192 -0.2517 -0.0214  0.7739
  431MOL0     C58056  10.255   8.971   8.201  0.1752 -0.3413  0.1284
  431MOL0     C58057  10.336   9.021   8.303  0.0786  0.2434  0.0653
  431MOL0     O58058  10.469   8.988   8.321 -0.3554  0.1144  0.1814
  431MOL0     C58059  10.538   8.896   8.234 -0.5995  0.7895  1.0409
  431MOL0     C58060  10.677   8.867   8.290  0.2027  0.9066  0.1735
  431MOL0     C58061  10.786   8.831   8.185 -0.1132  1.0023 -0.2440
  431MOL0     C58062  10.920   8.799   8.254  0.1442  0.3160 -0.2707
  431MOL0     C58063  11.018   8.785   8.145 -0.1685  0.4540 -0.5141
  431MOL0     C58064  11.134   8.707   8.198 -0.5948 -0.2810 -0.2489
  431MOL0     C58065  11.246   8.699   8.090 -0.0089  0.3957 -0.1017
  431MOL0     C58066  11.369   8.785   8.108 -0.1153 -0.4821 -0.0635
  431MOL0     N58067  11.479   8.751   8.012 -0.7912 -0.2148  0.3421
  431MOL0     C58068  11.540   8.626   7.994  0.8201  0.6276  0.0015
  431MOL0     C58069  11.618   8.645   7.886  0.5566  0.1893 -0.3545
  431MOL0     C58070  11.670   8.540   7.793  0.9805 -0.1427 -0.4883
  431MOL0     C58071  11.774   8.588   7.690  0.3591 -0.2920 -0.2796
  431MOL0     C58072  11.864   8.486   7.636 -1.0101 -0.9070 -0.1329
  431MOL0     C58073  11.941   8.540   7.513  0.6157  0.8661 -0.1637
  431MOL0     O58074  12.058   8.469   7.491 -0.0398  0.2963  0.1449
  431MOL0     C58075  12.168   8.488   7.571 -0.0018  0.2112  0.4382
  431MOL0     C58076  12.273   8.409   7.534  0.0091  0.7309  1.2923
  431MOL0     C58077  12.388   8.408   7.601 -0.3402 -0.3923 -0.0765
  431MOL0     C58078  12.410   8.498   7.710 -0.2182 -0.1033  0.2662
  431MOL0     C58079  12.542   8.518   7.766 -0.3079 -0.4031 -0.6690
  431MOL0     O58080  12.617   8.400   7.777 -0.3974 -0.4547 -0.6009
  431MOL0     C58081  12.733   8.399   7.847 -0.1021 -0.1989  0.0699
  431MOL0     C58082  12.829   8.328   7.779  0.4987  0.3902  0.0460
  431MOL0     C58083  12.953   8.292   7.840  0.0308  0.4736 -0.5139
  431MOL0     C58084  12.968   8.331   7.975  0.2509  0.6862  0.1508
  431MOL0     O58085  13.085   8.273   8.027  0.1284  0.0781  0.3072
  431MOL0     C58086  13.141   8.347   8.128 -0.4103 -1.0637 -0.1238
  431MOL0     C58087  13.297   8.342   8.137 -0.4297 -0.0632  0.5127
  431MOL0     C58088  13.337   8.431   8.255 -0.7452 -0.3536 -0.5569
  431MOL0     C58089  13.487   8.420   8.285 -0.7753  0.4494  0.8616
  431MOL0     C58090  13.518   8.487   8.420 -1.2788  0.1839 -1.4672
  431MOL0     C58091  13.456   8.425   8.551 -0.2867 -0.4388 -0.9216
  431MOL0     C58092  13.453   8.268   8.549 -0.1116 -0.0324 -0.0228
  431MOL0     C58093  13.592   8.207   8.549 -0.2659  0.2270 -0.4526
  431MOL0    Cl58094  13.682   8.261   8.694  0.0839 -0.2310 -0.0196
  431MOL0     C58095  12.873   8.407   8.039 -0.0354 -0.2665  0.4549
  431MOL0     C58096  12.757   8.450   7.975 -0.9299 -0.0516 -0.5320
  431MOL0     O58097  12.575   8.625   7.800  0.3792  0.2523 -0.0467
  431MOL0     C58098  12.301   8.572   7.750 -0.4945  0.4441  0.5518
  431MOL0     C58099  12.182   8.571   7.684  0.0426 -0.8043  0.5769
  431MOL0     N58100  11.618   8.774   7.849  0.8331 -0.6538  0.1832
  431MOL0     N58101  11.532   8.841   7.922 -0.6515  0.1158  0.1400
  431MOL0     C58102  10.282   9.113   8.386 -0.3149  0.2423  0.5085
  431MOL0     C58103  10.147   9.145   8.389  0.0171 -0.6686  0.6952
  431MOL0     C58104   9.736   9.228   8.230  0.4802 -0.5205  0.3279
  431MOL0     C58105   9.662   9.116   8.282  0.2639 -0.4577 -0.0064
  431MOL0     C58106   9.516   9.119   8.269 -0.0539 -0.4366 -0.1027
  431MOL0     C58107   9.442   9.228   8.209 -0.8184 -0.0348  0.0735
  431MOL0     O58108   9.308   9.242   8.207 -0.5171  0.8638  0.1650
  431MOL0     C58109   9.234   9.124   8.173 -0.0046 -0.4109 -0.0059
  431MOL0     C58110   9.145   9.091   8.292  0.1172  0.3904 -0.7541
  431MOL0     C58111   9.050   8.972   8.268 -0.2273  0.1106  0.8598
  431MOL0     C58112   8.941   9.012   8.164 -0.7595 -0.1169  0.4413
  431MOL0     C58113   8.833   9.101   8.224  0.1399 -0.0942 -0.0673
  431MOL0     C58114   8.753   9.175   8.274 -0.0265 -0.7343  0.0271
  431MOL0     C58115   9.524   9.332   8.173  0.1402 -0.0197 -0.1300
  431MOL0     C58116   9.663   9.333   8.179  0.3933  0.0171 -0.0018
  431MOL0     C58117   9.722   9.461   8.131 -0.2748  0.9993  0.7409
  431MOL0     H58118  10.059   8.977   8.107  0.3677 -0.6657  0.5508
  431MOL0     H58119  10.296   8.909   8.122 -2.6541 -1.2043 -0.7826
  431MOL0     H58120  10.489   8.798   8.229 -0.4478  0.7774 -1.0233
  431MOL0     H58121  10.558   8.941   8.136  2.3980 -0.4016  1.0134
  431MOL0     H58122  10.674   8.779   8.355  2.3008 -1.8933 -3.1672
  431MOL0     H58123  10.703   8.956   8.348 -1.4956  0.9614  0.9084
  431MOL0     H58124  10.800   8.912   8.113 -1.1603  0.1287 -1.4843
  431MOL0     H58125  10.756   8.733   8.146 -0.1943  1.5369 -1.6162
  431MOL0     H58126  10.940   8.884   8.320 -3.5801  1.1206  0.0087
  431MOL0     H58127  10.914   8.705   8.310  0.0036  0.7467  0.4480
  431MOL0     H58128  10.971   8.725   8.066  1.1163 -1.6986  0.2656
  431MOL0     H58129  11.038   8.885   8.104  0.7575 -0.0686 -1.3925
  431MOL0     H58130  11.170   8.764   8.284  2.5353  0.9516 -2.2024
  431MOL0     H58131  11.112   8.603   8.226  1.8003 -0.3634  1.7313
  431MOL0     H58132  11.189   8.721   7.999 -1.5118 -0.4660  0.5919
  431MOL0     H58133  11.274   8.596   8.065 -0.6656 -0.3064  1.8284
  431MOL0     H58134  11.339   8.889   8.109 -1.6057 -0.8453  3.0583
  431MOL0     H58135  11.408   8.762   8.208  1.9106 -0.2985 -0.7533
  431MOL0     H58136  11.509   8.542   8.055 -0.1461  2.7326  2.6505
  431MOL0     H58137  11.696   8.450   7.849 -0.2993  0.1508  0.6314
  431MOL0     H58138  11.584   8.500   7.739 -0.8573 -0.5399  2.4739
  431MOL0     H58139  11.703   8.635   7.621  0.1190  1.0866  0.8593
  431MOL0     H58140  11.827   8.664   7.748 -2.8053 -0.3538  3.0307
  431MOL0     H58141  11.795   8.412   7.595 -0.5348  0.6277 -4.0502
  431MOL0     H58142  11.930   8.441   7.711  1.7363  1.4415 -0.9697
  431MOL0     H58143  11.972   8.644   7.525  1.3558  0.8240 -1.5741
  431MOL0     H58144  11.872   8.534   7.429 -0.1439  3.4674  0.1728
  431MOL0     H58145  12.258   8.342   7.450  2.2475 -2.3756  3.1443
  431MOL0     H58146  12.469   8.353   7.554 -0.4285 -0.6022  0.0173
  431MOL0     H58147  12.804   8.302   7.677  1.3096 -2.3802  0.4748
  431MOL0     H58148  13.020   8.228   7.784 -0.4248  1.1903 -1.9262
  431MOL0     H58149  13.114   8.452   8.115  0.7196 -0.8566 -1.0512
  431MOL0     H58150  13.105   8.310   8.224  0.7299  0.8654  1.1245
  431MOL0     H58151  13.334   8.240   8.151 -1.3530 -0.1221  3.2245
  431MOL0     H58152  13.346   8.387   8.050  1.6375 -0.7800  1.2497
  431MOL0     H58153  13.320   8.535   8.226  0.9487 -0.4652 -2.1380
  431MOL0     H58154  13.281   8.405   8.345 -0.5685  0.3874 -0.2304
  431MOL0     H58155  13.554   8.469   8.213 -1.4603 -0.6681 -0.5989
  431MOL0     H58156  13.519   8.316   8.286 -2.4003 -0.2162 -2.3578
  431MOL0     H58157  13.488   8.592   8.422  0.7657  0.8690  2.7744
  431MOL0     H58158  13.626   8.488   8.435 -1.4732  0.5063  0.0137
  431MOL0     H58159  13.495   8.468   8.644 -2.2540  2.4411 -1.3138
  431MOL0     H58160  13.350   8.450   8.563 -0.3422 -1.1540  0.3060
  431MOL0     H58161  13.386   8.228   8.472 -0.3665 -0.9514  0.6613
  431MOL0     H58162  13.409   8.237   8.643  1.8162 -0.0067  0.9302
  431MOL0     H58163  13.572   8.101   8.566  0.2309 -0.2031 -2.3333
  431MOL0     H58164  13.639   8.227   8.452 -1.3041 -0.5924 -1.1570
  431MOL0     H58165  12.889   8.443   8.140  0.3423 -0.4196  0.4497
  431MOL0     H58166  12.685   8.500   8.039 -1.0020  0.1757 -0.7874
  431MOL0     H58167  12.309   8.636   7.837 -2.4611  0.4850  0.7508
  431MOL0     H58168  12.098   8.630   7.721  0.0377 -0.3496 -0.1423
  431MOL0     H58169  10.347   9.171   8.452 -0.0041 -1.9063  2.1830
  431MOL0     H58170  10.106   9.225   8.450 -0.4443 -1.2664  1.1723
  431MOL0     H58171   9.702   9.026   8.327 -0.1808 -0.6428  0.0169
  431MOL0     H58172   9.462   9.034   8.310  1.3370 -0.9995  0.6269
  431MOL0     H58173   9.299   9.038   8.154  3.5451  2.3133 -1.6734
  431MOL0     H58174   9.179   9.130   8.078  0.9298  0.6300 -0.5073
  431MOL0     H58175   9.088   9.181   8.317  1.8575  1.2914  0.2036
  431MOL0     H58176   9.218   9.069   8.371 -0.0504 -1.7095 -1.1229
  431MOL0     H58177   9.005   8.951   8.366 -0.2746 -0.4971  0.7102
  431MOL0     H58178   9.109   8.886   8.235  1.4327  1.9164 -1.1581
  431MOL0     H58179   8.983   9.075   8.086 -0.2530 -1.4756 -0.4068
  431MOL0     H58180   8.891   8.919   8.134 -0.1368 -1.9405  4.3560
  431MOL0     H58181   8.672   9.236   8.309  0.8442  0.4158  0.0749
  431MOL0     H58182   9.482   9.422   8.129 -0.4720 -1.3058 -2.3430
  431MOL0     H58183   9.668   9.490   8.040  1.2651 -0.8119 -0.8416
  431MOL0     H58184   9.712   9.533   8.213  1.7605 -0.9708  2.8698
  431MOL0     H58185   9.823   9.452   8.091 -1.0004 -1.8413 -0.7250
  432MOL0     O58186   2.804   1.626   4.800  0.3582  0.8023  0.6268
  432MOL0     C58187   2.776   1.687   4.901  0.1675 -0.4977 -0.8654
  432MOL0     O58188   2.845   1.693   5.020  0.1923 -0.3034 -0.4332
  432MOL0     C58189   2.969   1.629   5.019 -0.0244  0.2418  0.3509
  432MOL0     C58190   3.081   1.699   5.068 -0.7344 -0.9323  0.3028
  432MOL0     C58191   3.203   1.630   5.086  0.7428 -0.1002 -0.5809
  432MOL0     C58192   3.210   1.489   5.060  0.4302  0.3115 -0.4072
  432MOL0     O58193   3.330   1.420   5.042  0.2760  0.0069 -0.0018
  432MOL0     C58194   3.452   1.499   5.067  0.5477  0.1502  0.0659
  432MOL0     C58195   3.579   1.421   5.033 -0.0519 -0.3666  0.4027
  432MOL0     C58196   3.704   1.482   5.089  0.2218 -0.7774 -0.3962
  432MOL0     C58197   3.831   1.408   5.060  0.7242 -0.9577  0.7033
  432MOL0     C58198   3.895   1.438   4.917  0.7601  0.3195 -0.5157
  432MOL0     C58199   3.997   1.340   4.878 -0.4151  0.1048  0.4165
  432MOL0     C58200   4.132   1.352   4.951 -0.1455  0.3335  0.0711
  432MOL0     C58201   4.205   1.477   4.909 -0.1520 -0.5066 -0.0727
  432MOL0     N58202   4.331   1.480   4.992  0.1537  0.3115 -0.0295
  432MOL0     C58203   4.440   1.388   4.977  0.8139  0.6836 -0.4689
  432MOL0     C58204   4.514   1.403   5.092  0.1582  0.1183 -0.4110
  432MOL0     C58205   4.641   1.329   5.133  0.4785 -0.0300 -0.0495
  432MOL0     C58206   4.721   1.407   5.238 -0.6022 -0.6096  0.3751
  432MOL0     C58207   4.848   1.330   5.273 -0.8426  0.3636 -0.5161
  432MOL0     C58208   4.937   1.411   5.367  0.0360  0.6736  0.0548
  432MOL0     O58209   4.981   1.534   5.306  0.2331  0.6143 -0.8198
  432MOL0     C58210   5.038   1.630   5.384  0.2730  0.8797  0.5031
  432MOL0     C58211   5.025   1.645   5.524 -0.4072  0.4799 -0.3133
  432MOL0     C58212   5.091   1.751   5.590 -0.3541  0.2401  0.0862
  432MOL0     C58213   5.176   1.839   5.529 -0.2231  0.2759  0.9764
  432MOL0     C58214   5.245   1.944   5.598 -0.4251 -0.5434 -0.0198
  432MOL0     O58215   5.302   2.043   5.520 -0.1248 -0.4853 -0.4788
  432MOL0     C58216   5.428   2.086   5.556  1.2203 -0.0668 -0.8560
  432MOL0     C58217   5.507   2.041   5.671 -0.6861 -0.4265  0.4378
  432MOL0     C58218   5.644   2.070   5.672 -0.3450  0.4058 -0.2874
  432MOL0     C58219   5.699   2.142   5.572  0.4384 -0.5083 -0.1110
  432MOL0     O58220   5.823   2.194   5.600  0.0639 -0.5156 -0.0601
  432MOL0     C58221   5.912   2.201   5.488 -0.5895  0.2697  0.0450
  432MOL0     C58222   6.067   2.185   5.523  0.2677  0.0894 -0.0381
  432MOL0     C58223   6.125   2.310   5.580  0.1122 -0.4558 -0.9775
  432MOL0     C58224   6.275   2.311   5.531  0.1636 -0.8925  0.4621
  432MOL0     C58225   6.365   2.196   5.578 -0.7245  0.2485 -0.3897
  432MOL0     C58226   6.515   2.219   5.526  0.0857  0.5250  0.2046
  432MOL0     C58227   6.610   2.108   5.569  1.0141  0.2116  0.2343
  432MOL0     C58228   6.612   2.103   5.719  0.1834 -1.1767  0.3267
  432MOL0    Cl58229   6.664   2.261   5.789  0.4004  0.0203  0.1240
  432MOL0     C58230   5.627   2.183   5.456  0.2500 -0.0933 -0.4837
  432MOL0     C58231   5.489   2.162   5.456  0.2187  0.9739  0.5977
  432MOL0     O58232   5.249   1.943   5.719  0.1304 -0.2304  0.4949
  432MOL0     C58233   5.206   1.812   5.390  0.2344 -0.1283  1.0791
  432MOL0     C58234   5.147   1.701   5.317  0.2985  0.3913 -1.3276
  432MOL0     N58235   4.450   1.504   5.165  0.4935 -0.0279 -0.2703
  432MOL0     N58236   4.353   1.557   5.107  0.0934 -0.8345  0.1956
  432MOL0     C58237   3.092   1.427   5.008  0.9379  0.5303 -0.1903
  432MOL0     C58238   2.976   1.494   4.988  0.3468  0.3790 -0.0658
  432MOL0     C58239   2.640   1.759   4.911  0.5067  0.4562  0.2688
  432MOL0     C58240   2.632   1.867   4.999  0.3692 -0.7891  0.0964
  432MOL0     C58241   2.516   1.944   5.016 -1.1151  0.1639  1.7734
  432MOL0     C58242   2.411   1.925   4.927 -0.5563 -0.0027  0.0348
  432MOL0     O58243   2.308   2.017   4.916  0.0501 -0.2897  0.5594
  432MOL0     C58244   2.289   2.126   5.001  0.9664  0.0742 -0.3464
  432MOL0     C58245   2.160   2.212   4.961  0.1023  0.2361  0.8874
  432MOL0     C58246   2.028   2.142   4.996 -0.2098  0.5834 -0.0971
  432MOL0     C58247   1.915   2.212   4.929 -0.3449  0.6571  0.1377
  432MOL0     C58248   1.901   2.353   4.976 -0.5495  0.2391  0.1914
  432MOL0     C58249   1.886   2.468   5.013  0.0245 -0.5057  0.0511
  432MOL0     C58250   2.410   1.813   4.842  0.3980  0.2809  0.4929
  432MOL0     C58251   2.521   1.726   4.830  0.3071 -0.2296  0.0825
  432MOL0     C58252   2.505   1.614   4.733 -0.2106  0.1691  0.7828
  432MOL0     H58253   3.067   1.802   5.096  0.3256 -0.3145 -1.2604
  432MOL0     H58254   3.293   1.677   5.124  1.1992 -0.5926 -1.0350
  432MOL0     H58255   3.451   1.587   5.002  1.1878 -0.7779 -1.2606
  432MOL0     H58256   3.457   1.523   5.173 -2.1516  1.0866  0.0609
  432MOL0     H58257   3.596   1.431   4.925 -0.3266  2.0029  0.5235
  432MOL0     H58258   3.563   1.321   5.075 -0.5423  0.2963  1.8253
  432MOL0     H58259   3.695   1.481   5.198  0.3488  3.5708 -0.1725
  432MOL0     H58260   3.706   1.588   5.061 -0.1484 -0.3576  1.1131
  432MOL0     H58261   3.901   1.435   5.140  0.0433  0.6182  0.8024
  432MOL0     H58262   3.806   1.302   5.059  1.1115 -1.0826 -1.4960
  432MOL0     H58263   3.810   1.448   4.849 -1.0154 -1.2582  1.3487
  432MOL0     H58264   3.942   1.536   4.929 -0.6660  0.9066  0.6778
  432MOL0     H58265   3.954   1.239   4.877 -0.2756 -0.0347 -2.6872
  432MOL0     H58266   4.027   1.357   4.774 -0.1372  0.3473  0.5337
  432MOL0     H58267   4.189   1.262   4.925  0.0687  0.7024 -0.7548
  432MOL0     H58268   4.125   1.353   5.060  1.7453 -0.0030  0.2300
  432MOL0     H58269   4.227   1.479   4.802  1.1290  2.4591  0.1397
  432MOL0     H58270   4.152   1.571   4.928  0.4031 -0.0360 -0.7506
  432MOL0     H58271   4.466   1.314   4.901  1.8771  0.0363  0.4939
  432MOL0     H58272   4.628   1.226   5.169  1.9870 -1.0644 -2.2332
  432MOL0     H58273   4.690   1.314   5.037 -1.3814 -2.6236 -0.7236
  432MOL0     H58274   4.753   1.503   5.198 -0.9116 -0.8912 -0.5577
  432MOL0     H58275   4.656   1.429   5.323  0.0162  1.7004  0.3231
  432MOL0     H58276   4.896   1.318   5.175 -2.6012 -1.3044 -1.2416
  432MOL0     H58277   4.815   1.237   5.319 -0.8893  0.8869  0.5382
  432MOL0     H58278   5.027   1.350   5.379  0.5219  0.7409 -2.7185
  432MOL0     H58279   4.885   1.437   5.460 -1.0551 -0.1286 -0.3022
  432MOL0     H58280   4.973   1.577   5.591  1.3619 -0.3438  0.2534
  432MOL0     H58281   5.082   1.750   5.698  3.5083  0.7359  0.5644
  432MOL0     H58282   5.472   1.969   5.744  0.7931  0.9873  2.6618
  432MOL0     H58283   5.719   2.040   5.744  2.8650  1.5798 -2.9317
  432MOL0     H58284   5.899   2.124   5.411  2.2807  0.8495 -1.1673
  432MOL0     H58285   5.901   2.289   5.425  3.1756 -0.8271 -2.5723
  432MOL0     H58286   6.086   2.109   5.599  2.1077  1.4705  0.9372
  432MOL0     H58287   6.111   2.166   5.424 -1.1968  2.0080 -1.1313
  432MOL0     H58288   6.068   2.398   5.549  1.1273  0.4898 -0.2252
  432MOL0     H58289   6.119   2.306   5.689 -1.0768  0.4867 -0.9910
  432MOL0     H58290   6.320   2.399   5.579 -1.7300  1.5427 -1.8768
  432MOL0     H58291   6.279   2.327   5.423 -3.3194  0.7364  0.4199
  432MOL0     H58292   6.347   2.094   5.541 -0.4115 -1.0595  2.7350
  432MOL0     H58293   6.363   2.203   5.687 -0.7637 -1.6489 -0.2258
  432MOL0     H58294   6.516   2.209   5.417 -3.3632 -2.8590  0.2589
  432MOL0     H58295   6.556   2.315   5.560  0.9964  1.3992 -3.0522
  432MOL0     H58296   6.709   2.110   5.522  0.6931 -1.2633 -0.5517
  432MOL0     H58297   6.583   2.009   5.531 -0.0970  0.9163 -0.9070
  432MOL0     H58298   6.511   2.084   5.757 -0.1150  0.8796  0.6786
  432MOL0     H58299   6.672   2.016   5.748 -0.7351 -1.6721  0.8187
  432MOL0     H58300   5.668   2.244   5.376 -0.6267 -1.2252 -1.8447
  432MOL0     H58301   5.443   2.170   5.358 -0.7742 -2.3344  0.6650
  432MOL0     H58302   5.278   1.876   5.340 -2.1766  1.0523 -1.1272
  432MOL0     H58303   5.178   1.677   5.216  2.4547 -2.8418 -0.0575
  432MOL0     H58304   3.090   1.320   4.991 -2.6324  0.4940 -0.2283
  432MOL0     H58305   2.890   1.439   4.953 -0.5189  0.3367  2.0182
  432MOL0     H58306   2.718   1.893   5.061 -0.7700 -0.0237  1.4094
  432MOL0     H58307   2.538   2.034   5.074  3.2739  1.4828 -1.3281
  432MOL0     H58308   2.379   2.187   5.002  0.2903  1.1139  0.6872
  432MOL0     H58309   2.270   2.090   5.103  4.0126  1.7671  0.9600
  432MOL0     H58310   2.164   2.236   4.854 -0.8528 -1.9463  0.2996
  432MOL0     H58311   2.175   2.300   5.024  1.2891 -0.9408  2.3392
  432MOL0     H58312   1.996   2.148   5.101 -0.6905 -2.4722  0.0311
  432MOL0     H58313   2.039   2.039   4.961 -0.7965  0.6977 -0.6246
  432MOL0     H58314   1.924   2.211   4.820 -0.0206  1.9859  0.1367
  432MOL0     H58315   1.818   2.168   4.953 -1.1448  1.5167 -1.3744
  432MOL0     H58316   1.866   2.569   5.042 -2.6708 -0.2209 -2.2843
  432MOL0     H58317   2.328   1.798   4.773  1.4685 -1.0860 -0.5301
  432MOL0     H58318   2.490   1.654   4.633 -1.6877  0.3961  1.0735
  432MOL0     H58319   2.591   1.548   4.719 -2.2920 -2.2741 -1.6292
  432MOL0     H58320   2.420   1.555   4.769 -0.0407 -2.1601 -2.2404
  433MOL0     O58321   4.797   7.943   7.427  0.3216  0.3839  0.1338
  433MOL0     C58322   4.817   7.964   7.548  0.4947 -0.9447 -0.3222
  433MOL0     O58323   4.923   8.028   7.595  0.0391 -0.7927  0.9771
  433MOL0     C58324   5.036   8.049   7.516  0.7347  0.3339  0.4190
  433MOL0     C58325   5.065   8.175   7.505  0.3626 -0.1179  0.1444
  433MOL0     C58326   5.183   8.208   7.437 -0.0776  0.1636 -0.2974
  433MOL0     C58327   5.278   8.113   7.395  0.7285  0.0121  0.4599
  433MOL0     O58328   5.391   8.151   7.324 -0.1302  0.3226  0.5064
  433MOL0     C58329   5.442   8.289   7.316 -0.3960  0.0994  1.0839
  433MOL0     C58330   5.577   8.289   7.245  0.9117 -0.3004 -1.1544
  433MOL0     C58331   5.618   8.435   7.202  0.1438  0.3484 -1.0989
  433MOL0     C58332   5.752   8.440   7.135  0.2099 -0.5616  0.2885
  433MOL0     C58333   5.775   8.588   7.096  0.5701 -0.3345  0.2661
  433MOL0     C58334   5.925   8.613   7.062 -0.1850  0.7159 -0.5876
  433MOL0     C58335   6.028   8.564   7.165  0.5722  0.5854 -0.5691
  433MOL0     C58336   6.161   8.634   7.132 -0.0344 -0.0890 -0.8985
  433MOL0     N58337   6.202   8.591   7.005  0.1113 -0.4176  0.3191
  433MOL0     C58338   6.259   8.477   6.964 -0.2405  0.0650 -0.0367
  433MOL0     C58339   6.313   8.498   6.848  0.0070  0.8090  0.9395
  433MOL0     C58340   6.416   8.399   6.788  0.3839  0.1405  0.3549
  433MOL0     C58341   6.550   8.391   6.852  0.0970 -0.0069  0.3399
  433MOL0     C58342   6.633   8.513   6.817  0.6860  0.7675  0.7175
  433MOL0     C58343   6.769   8.505   6.875 -0.5088 -1.1843  0.4383
  433MOL0     O58344   6.825   8.636   6.900  0.1583  0.4848 -0.2137
  433MOL0     C58345   6.966   8.645   6.913 -0.1547 -0.1547 -0.3913
  433MOL0     C58346   7.007   8.778   6.947  0.1563 -1.0308 -0.2029
  433MOL0     C58347   7.145   8.808   6.958 -0.7183 -0.1813 -0.0138
  433MOL0     C58348   7.246   8.707   6.946 -0.0848 -0.0408 -0.2585
  433MOL0     C58349   7.387   8.740   6.949 -0.6820  0.0167 -0.4746
  433MOL0     O58350   7.429   8.871   6.957 -0.3357  0.1820 -0.2271
  433MOL0     C58351   7.558   8.912   6.938 -1.0580 -0.0314  0.4993
  433MOL0     C58352   7.609   9.011   7.020  0.2860 -0.1988  0.7289
  433MOL0     C58353   7.736   9.050   7.005 -0.4494 -0.2459  0.3957
  433MOL0     C58354   7.820   9.003   6.901  0.3891 -0.5577 -0.6020
  433MOL0     O58355   7.935   9.066   6.863 -0.0587  0.0211 -0.1565
  433MOL0     C58356   7.932   9.208   6.835  0.3546 -0.0326 -0.0555
  433MOL0     C58357   8.031   9.206   6.715  0.3424  0.0858 -0.2640
  433MOL0     C58358   8.058   9.358   6.682  0.2428  0.4865 -0.8129
  433MOL0     C58359   8.177   9.378   6.581 -0.0226 -1.0122  0.6685
  433MOL0     C58360   8.228   9.519   6.594 -0.1038 -0.4269  0.5493
  433MOL0     C58361   8.336   9.565   6.484  0.5805 -0.1220 -0.1927
  433MOL0     C58362   8.474   9.519   6.528 -0.0404 -0.9490 -0.4493
  433MOL0     C58363   8.582   9.535   6.425 -0.0753 -0.0464  0.4733
  433MOL0    Cl58364   8.608   9.711   6.431 -0.3179  0.0342  0.1436
  433MOL0     C58365   7.776   8.901   6.823  0.0331  0.2699 -0.2060
  433MOL0     C58366   7.643   8.859   6.835 -0.6837 -0.2922  0.4224
  433MOL0     O58367   7.461   8.646   6.917 -0.0548  0.7163  0.2099
  433MOL0     C58368   7.199   8.578   6.908 -0.2273 -1.0616 -0.0893
  433MOL0     C58369   7.062   8.552   6.897  0.1407  0.1370  0.5667
  433MOL0     N58370   6.279   8.621   6.806 -0.3744  0.0305  0.1059
  433MOL0     N58371   6.228   8.683   6.905  0.0283  0.6386 -0.0910
  433MOL0     C58372   5.245   7.979   7.416  0.6540 -0.7869  0.3174
  433MOL0     C58373   5.114   7.948   7.470  0.7035 -0.5785 -0.1416
  433MOL0     C58374   4.707   7.933   7.642 -0.2071 -0.0495 -0.0479
  433MOL0     C58375   4.728   7.976   7.778 -0.4164  0.1996 -0.3991
  433MOL0     C58376   4.631   7.958   7.874  0.1955 -0.3736 -0.2896
  433MOL0     C58377   4.506   7.888   7.855  0.6972  0.0843 -0.2339
  433MOL0     O58378   4.419   7.858   7.959 -0.3574 -0.0385  0.0323
  433MOL0     C58379   4.307   7.777   7.942  0.5545  0.3220 -0.3678
  433MOL0     C58380   4.257   7.742   8.082 -0.3403  0.5046  0.2496
  433MOL0     C58381   4.120   7.674   8.081  0.0655  0.7102 -0.0089
  433MOL0     C58382   4.049   7.685   8.214 -0.3210 -0.3204  0.7173
  433MOL0     C58383   3.936   7.597   8.206  0.1571 -0.3303 -0.1156
  433MOL0     C58384   3.825   7.543   8.202  0.1234  0.2720  0.9067
  433MOL0     C58385   4.486   7.850   7.723  0.2668  0.2835 -1.1380
  433MOL0     C58386   4.576   7.873   7.620 -0.4002  0.5886  0.1250
  433MOL0     C58387   4.524   7.828   7.483 -0.2089 -0.3272 -0.7636
  433MOL0     H58388   4.996   8.249   7.545  1.8646  0.9063  0.9556
  433MOL0     H58389   5.202   8.315   7.432 -3.9464  1.1635  2.3311
  433MOL0     H58390   5.376   8.337   7.244 -0.2804  1.4904  1.8821
  433MOL0     H58391   5.445   8.337   7.414 -1.4729  0.3153  1.0202
  433MOL0     H58392   5.562   8.214   7.168  0.6369  0.1291 -1.5244
  433MOL0     H58393   5.646   8.250   7.320 -0.5595 -1.1551 -0.1766
  433MOL0     H58394   5.593   8.500   7.287 -0.3257 -2.3628  0.9764
  433MOL0     H58395   5.542   8.463   7.129 -0.4766  1.8013  0.0383
  433MOL0     H58396   5.830   8.389   7.191  0.6502 -0.9478 -0.6571
  433MOL0     H58397   5.749   8.404   7.032 -0.3410  1.0363 -0.2937
  433MOL0     H58398   5.711   8.622   7.014  0.2852  1.8705  1.3229
  433MOL0     H58399   5.753   8.653   7.181  2.0102 -1.7763  1.8180
  433MOL0     H58400   5.955   8.574   6.964  4.6096 -1.4726  1.4300
  433MOL0     H58401   5.940   8.720   7.047 -0.7174  0.7077 -1.2156
  433MOL0     H58402   6.041   8.456   7.158 -1.3993  0.2933 -0.3945
  433MOL0     H58403   5.995   8.590   7.266  0.1263 -1.3196 -0.1948
  433MOL0     H58404   6.154   8.744   7.137  1.5872  0.1308 -2.4880
  433MOL0     H58405   6.238   8.608   7.205 -1.4437 -4.5107 -0.7559
  433MOL0     H58406   6.282   8.388   7.020 -1.7019 -0.7165 -0.6204
  433MOL0     H58407   6.373   8.303   6.819  3.5085 -0.6767  2.6722
  433MOL0     H58408   6.428   8.393   6.680  3.6894 -0.3379  0.6204
  433MOL0     H58409   6.529   8.381   6.959 -3.2605  0.8045 -0.1343
  433MOL0     H58410   6.600   8.299   6.819  0.4097  0.0308  0.7023
  433MOL0     H58411   6.582   8.602   6.856  0.2602  0.6863  0.3585
  433MOL0     H58412   6.634   8.535   6.710  0.1004  1.7120  0.9005
  433MOL0     H58413   6.839   8.464   6.803  1.5139  1.3558  0.7923
  433MOL0     H58414   6.775   8.433   6.957 -2.3812 -0.6880  1.0749
  433MOL0     H58415   6.940   8.862   6.957  0.9749 -0.5821  2.2528
  433MOL0     H58416   7.164   8.914   6.970  0.2511 -0.3277 -0.2040
  433MOL0     H58417   7.545   9.059   7.093 -1.1758 -0.3999 -0.3575
  433MOL0     H58418   7.773   9.134   7.064 -3.0753  0.3324  1.3305
  433MOL0     H58419   7.832   9.241   6.806 -0.3335  2.2685  4.0386
  433MOL0     H58420   7.956   9.258   6.929 -0.8670  0.0852  0.2132
  433MOL0     H58421   8.122   9.152   6.744 -0.2954 -0.2894  1.1466
  433MOL0     H58422   7.988   9.146   6.634 -0.3320  0.6882 -0.3576
  433MOL0     H58423   7.964   9.401   6.646  0.7862  0.8388 -1.8634
  433MOL0     H58424   8.087   9.406   6.776 -0.8785 -2.5083  1.2150
  433MOL0     H58425   8.138   9.367   6.479  0.8984  3.4515 -0.4007
  433MOL0     H58426   8.260   9.311   6.602 -0.4975 -1.7509  0.2402
  433MOL0     H58427   8.269   9.551   6.690 -0.9044 -1.1998  1.1670
  433MOL0     H58428   8.142   9.583   6.571 -0.5757 -1.4996 -0.8136
  433MOL0     H58429   8.327   9.515   6.387  0.3556 -1.1291  0.3345
  433MOL0     H58430   8.350   9.673   6.477  0.9789  0.1459  3.1662
  433MOL0     H58431   8.474   9.417   6.568 -1.5557 -0.7089  0.2528
  433MOL0     H58432   8.502   9.585   6.610 -0.4738 -1.9539  0.5395
  433MOL0     H58433   8.672   9.477   6.448  0.1515 -0.5186 -1.3619
  433MOL0     H58434   8.545   9.508   6.325 -1.7811 -1.2138  1.3633
  433MOL0     H58435   7.838   8.861   6.744  1.5280 -2.1025  1.9841
  433MOL0     H58436   7.610   8.790   6.758 -0.6372 -0.3524  0.4568
  433MOL0     H58437   7.259   8.500   6.863 -0.0815 -1.4788  0.8129
  433MOL0     H58438   7.028   8.451   6.877  0.0422  0.6541 -2.3666
  433MOL0     H58439   5.318   7.905   7.384  1.7580 -0.1683  1.3101
  433MOL0     H58440   5.080   7.845   7.475  0.7320 -0.7689 -2.7470
  433MOL0     H58441   4.819   8.027   7.808  0.6857 -1.2581 -1.1324
  433MOL0     H58442   4.646   7.993   7.976 -2.7951 -0.6918  0.3612
  433MOL0     H58443   4.338   7.682   7.897  0.8243 -0.2294  0.9238
  433MOL0     H58444   4.233   7.829   7.881 -1.3145 -0.7708  0.8672
  433MOL0     H58445   4.254   7.836   8.138  2.8730  0.0534  1.4299
  433MOL0     H58446   4.327   7.675   8.133 -0.2905  0.1255 -0.3163
  433MOL0     H58447   4.135   7.569   8.057  1.8533  0.5576  1.5077
  433MOL0     H58448   4.062   7.725   8.004  0.0290  2.6178  1.1863
  433MOL0     H58449   4.111   7.644   8.294 -0.5225  0.5518  1.3334
  433MOL0     H58450   4.017   7.785   8.245 -1.2177  0.1768 -1.5554
  433MOL0     H58451   3.725   7.504   8.198 -0.8807  2.3625  3.0779
  433MOL0     H58452   4.390   7.810   7.690 -0.5364 -0.0160  1.3742
  433MOL0     H58453   4.488   7.919   7.433  0.2956 -0.2554 -1.0043
  433MOL0     H58454   4.604   7.782   7.424  0.4528  0.1769 -0.2823
  433MOL0     H58455   4.454   7.746   7.500 -0.3916 -0.2344 -1.0592
  434MOL0     O58456   9.438   3.683   7.750 -0.2062  0.3753  0.0666
  434MOL0     C58457   9.537   3.736   7.784 -0.0798  0.3680  0.1174
  434MOL0     O58458   9.547   3.807   7.899 -0.6309 -0.6034  0.4413
  434MOL0     C58459   9.436   3.842   7.972 -0.6764 -0.5873 -0.5705
  434MOL0     C58460   9.319   3.904   7.930  0.8893 -0.1170  0.1590
  434MOL0     C58461   9.229   3.953   8.023 -0.6359  0.2747  0.6118
  434MOL0     C58462   9.251   3.929   8.162  0.6123  0.2059  0.4311
  434MOL0     O58463   9.157   3.967   8.257 -0.5776 -0.3902  0.9446
  434MOL0     C58464   9.020   3.925   8.239 -0.7146 -0.2525  0.4076
  434MOL0     C58465   8.915   4.038   8.219 -0.2393 -0.8904 -0.3123
  434MOL0     C58466   8.783   3.972   8.202 -0.1972  0.4953  0.1243
  434MOL0     C58467   8.680   4.079   8.169 -0.3402  0.3161  0.3068
  434MOL0     C58468   8.542   4.015   8.160  0.2240  0.5672 -0.2793
  434MOL0     C58469   8.504   3.902   8.250 -0.1101  0.2851 -0.2712
  434MOL0     C58470   8.357   3.880   8.232  0.1415  0.0567  0.2970
  434MOL0     C58471   8.304   3.763   8.314  0.7201 -0.8503  0.4163
  434MOL0     N58472   8.159   3.756   8.301 -0.8260  0.2316 -0.1746
  434MOL0     C58473   8.065   3.840   8.360 -0.5774 -0.0111 -0.0400
  434MOL0     C58474   7.945   3.812   8.303 -0.5706  0.0715 -0.0821
  434MOL0     C58475   7.818   3.891   8.347 -0.5895  0.2223  0.5816
  434MOL0     C58476   7.809   4.028   8.257  0.0809  0.6070  1.0792
  434MOL0     C58477   7.819   4.155   8.340 -0.2921 -0.0503 -0.4203
  434MOL0     C58478   7.960   4.187   8.382 -0.0768  0.0544 -1.0224
  434MOL0     O58479   7.985   4.320   8.436  0.0078  0.0940 -1.0814
  434MOL0     C58480   8.119   4.367   8.432 -0.5800 -1.1872 -0.3839
  434MOL0     C58481   8.148   4.504   8.426  0.7714  0.3531  0.5931
  434MOL0     C58482   8.278   4.545   8.415  0.0262 -0.3894  0.2405
  434MOL0     C58483   8.389   4.460   8.417  0.0667 -0.1215 -0.2195
  434MOL0     C58484   8.523   4.496   8.383  0.2240  0.9219  0.1643
  434MOL0     O58485   8.628   4.432   8.443 -0.1166  0.6049  0.1215
  434MOL0     C58486   8.749   4.440   8.384  0.2346  0.1864  0.5831
  434MOL0     C58487   8.864   4.457   8.473  0.4552 -0.3535 -0.1009
  434MOL0     C58488   8.989   4.457   8.414  0.1848 -0.0416 -0.6590
  434MOL0     C58489   9.013   4.442   8.275  0.2100  1.0425 -0.4627
  434MOL0     O58490   9.143   4.434   8.239 -0.0703  0.1138 -0.1458
  434MOL0     C58491   9.216   4.318   8.279  0.2803 -0.1869 -0.3784
  434MOL0     C58492   9.371   4.325   8.250  0.0270  0.1427  0.5382
  434MOL0     C58493   9.398   4.329   8.099 -0.3558  0.0236 -0.7986
  434MOL0     C58494   9.510   4.231   8.045 -0.3811  0.3744  0.2714
  434MOL0     C58495   9.552   4.260   7.890 -0.4383 -0.5431  0.5684
  434MOL0     C58496   9.657   4.152   7.850 -0.1102  0.1578 -0.6088
  434MOL0     C58497   9.696   4.159   7.702 -0.4367 -0.9748  0.1292
  434MOL0     C58498   9.853   4.167   7.679  0.0747 -0.1489  0.6512
  434MOL0    Cl58499   9.931   4.308   7.756 -0.4148  0.0351  0.1313
  434MOL0     C58500   8.899   4.439   8.188  0.5696 -0.1804  0.2212
  434MOL0     C58501   8.771   4.433   8.245  0.2094  0.5533 -0.0253
  434MOL0     O58502   8.539   4.597   8.314  0.6675 -0.2434 -0.4824
  434MOL0     C58503   8.359   4.323   8.421  0.4527  0.0851 -0.7048
  434MOL0     C58504   8.230   4.277   8.435 -0.8093  0.5356 -0.2817
  434MOL0     N58505   7.980   3.734   8.191  0.0852  0.7747  0.0293
  434MOL0     N58506   8.105   3.689   8.204  0.2338 -0.1108 -0.3809
  434MOL0     C58507   9.358   3.854   8.207  1.1267 -0.2685  0.1496
  434MOL0     C58508   9.451   3.812   8.113  1.2929 -0.2758  0.1642
  434MOL0     C58509   9.664   3.705   7.707 -0.3853 -0.1102 -0.0545
  434MOL0     C58510   9.778   3.787   7.743 -1.0828  0.0937  0.2713
  434MOL0     C58511   9.906   3.767   7.691  0.4231  0.7058 -0.4497
  434MOL0     C58512   9.922   3.670   7.589  0.0268  0.3861 -0.5897
  434MOL0     O58513  10.039   3.646   7.529 -0.2679  0.8049  0.3143
  434MOL0     C58514  10.162   3.620   7.612  0.8204 -0.8532 -0.3996
  434MOL0     C58515  10.236   3.506   7.549 -0.2151  0.1483 -0.4944
  434MOL0     C58516  10.159   3.376   7.571 -0.1753 -0.3244 -1.3979
  434MOL0     C58517  10.219   3.254   7.507 -0.5457  0.6004  0.2781
  434MOL0     C58518  10.222   3.263   7.361  0.2519  0.2829  0.4588
  434MOL0     C58519  10.219   3.270   7.240  0.2375 -0.2465 -0.2245
  434MOL0     C58520   9.815   3.595   7.545 -0.4700  0.3941 -0.6245
  434MOL0     C58521   9.683   3.612   7.599  0.6819 -0.0355 -0.4163
  434MOL0     C58522   9.573   3.513   7.559 -0.0965 -0.1333 -0.0889
  434MOL0     H58523   9.313   3.924   7.824 -0.6332  1.2536  0.4840
  434MOL0     H58524   9.141   4.006   7.988 -2.4168 -2.4287  0.6997
  434MOL0     H58525   8.999   3.856   8.157  2.4110 -2.6776  1.4441
  434MOL0     H58526   8.994   3.874   8.332 -1.1824  0.6369  0.7813
  434MOL0     H58527   8.936   4.104   8.135  2.4994 -0.0507  0.9128
  434MOL0     H58528   8.919   4.100   8.309 -1.6103  1.0162 -1.4944
  434MOL0     H58529   8.766   3.908   8.289  0.4105 -0.4754 -0.4456
  434MOL0     H58530   8.783   3.900   8.119 -1.6533 -2.6574  2.6302
  434MOL0     H58531   8.673   4.151   8.251  0.1744 -0.1126  0.7290
  434MOL0     H58532   8.690   4.131   8.073  2.3425  2.3517  1.5731
  434MOL0     H58533   8.476   4.101   8.173 -2.4288 -1.0947 -1.8336
  434MOL0     H58534   8.532   3.972   8.059  1.8420  0.9427 -0.6307
  434MOL0     H58535   8.561   3.812   8.226  0.4935  0.3030  1.0335
  434MOL0     H58536   8.529   3.934   8.351  0.0051  2.5267 -0.9449
  434MOL0     H58537   8.336   3.868   8.125 -0.1041 -1.9871  0.5389
  434MOL0     H58538   8.314   3.976   8.262  0.8967  0.8786 -1.1642
  434MOL0     H58539   8.354   3.671   8.283  3.6142 -0.0517  2.2711
  434MOL0     H58540   8.319   3.773   8.422  0.2764  1.8525  0.2967
  434MOL0     H58541   8.087   3.901   8.448 -0.3162  0.2310 -0.2718
  434MOL0     H58542   7.733   3.822   8.333 -0.4982  0.4440 -1.3636
  434MOL0     H58543   7.818   3.911   8.454 -1.8863 -0.8975  0.8207
  434MOL0     H58544   7.875   4.030   8.170  0.1640 -0.4980  1.1007
  434MOL0     H58545   7.707   4.017   8.220  0.1724 -0.6307  1.1320
  434MOL0     H58546   7.760   4.153   8.432 -1.1788 -0.3363 -0.9896
  434MOL0     H58547   7.780   4.242   8.286 -1.3242  0.2070  0.7010
  434MOL0     H58548   8.026   4.165   8.298  2.5968  1.8767  0.4510
  434MOL0     H58549   7.990   4.123   8.466  1.4022  2.0736  0.0909
  434MOL0     H58550   8.064   4.572   8.439  1.8031  1.3851  2.2283
  434MOL0     H58551   8.311   4.648   8.428 -1.8899  0.0517  2.3888
  434MOL0     H58552   8.853   4.473   8.579  3.3247 -0.4371  0.3059
  434MOL0     H58553   9.075   4.461   8.480  0.4235 -3.3623 -0.6141
  434MOL0     H58554   9.210   4.305   8.388  1.1027 -1.3859 -0.4558
  434MOL0     H58555   9.173   4.230   8.232 -1.5045  1.3423 -1.7852
  434MOL0     H58556   9.425   4.403   8.305 -0.9669  0.5560  0.9453
  434MOL0     H58557   9.411   4.234   8.295 -0.1779  0.1335  0.7042
  434MOL0     H58558   9.302   4.319   8.048 -1.3393  0.7843  0.8099
  434MOL0     H58559   9.429   4.430   8.072 -0.9261  0.5085  0.3089
  434MOL0     H58560   9.476   4.128   8.054  1.0255 -0.3495 -1.7484
  434MOL0     H58561   9.591   4.241   8.118 -0.2432  2.3990 -0.1085
  434MOL0     H58562   9.596   4.360   7.882  2.7965 -1.5636  3.0509
  434MOL0     H58563   9.465   4.239   7.827 -1.4385  1.3652  1.2365
  434MOL0     H58564   9.741   4.179   7.915  0.1119  0.7363 -1.1306
  434MOL0     H58565   9.627   4.051   7.882  3.2417 -0.5015  0.9357
  434MOL0     H58566   9.636   4.237   7.655 -0.2954 -0.8409  0.1691
  434MOL0     H58567   9.658   4.074   7.644 -0.3792  0.3903 -2.0059
  434MOL0     H58568   9.901   4.073   7.707 -3.6911 -2.8969 -1.2683
  434MOL0     H58569   9.859   4.174   7.570 -1.3857  0.3859  0.5837
  434MOL0     H58570   8.907   4.437   8.080  0.5379 -0.9071  0.2268
  434MOL0     H58571   8.690   4.400   8.179 -0.4571  2.2685 -0.1043
  434MOL0     H58572   8.437   4.250   8.401 -0.4555 -0.6043 -1.8984
  434MOL0     H58573   8.214   4.170   8.444 -1.7640  0.4969 -1.9946
  434MOL0     H58574   9.372   3.829   8.312 -1.1759 -3.0657 -0.0875
  434MOL0     H58575   9.535   3.748   8.140  2.2280  1.7056  2.3220
  434MOL0     H58576   9.764   3.858   7.824  0.1957 -0.2855  0.8459
  434MOL0     H58577   9.983   3.837   7.720 -0.4806  1.4178  0.2807
  434MOL0     H58578  10.136   3.589   7.714  2.0236  0.7024  0.4189
  434MOL0     H58579  10.220   3.712   7.618  1.4065 -1.2310 -0.0878
  434MOL0     H58580  10.334   3.488   7.594 -1.1287 -3.3383  0.4635
  434MOL0     H58581  10.254   3.521   7.443  0.9953  2.2615 -0.0302
  434MOL0     H58582  10.052   3.383   7.551 -0.5252 -3.8391 -1.4200
  434MOL0     H58583  10.162   3.349   7.677 -0.7703 -0.7392 -1.4850
  434MOL0     H58584  10.320   3.232   7.540 -1.8246 -1.8467  3.0422
  434MOL0     H58585  10.157   3.168   7.535 -0.3675  0.9308  1.7781
  434MOL0     H58586  10.205   3.268   7.134  0.3733 -3.3781 -0.2765
  434MOL0     H58587   9.834   3.528   7.462  1.2994  1.7162 -1.3624
  434MOL0     H58588   9.550   3.462   7.653  0.8429 -0.4847 -0.0458
  434MOL0     H58589   9.485   3.571   7.526 -0.2399 -0.1340  0.2910
  434MOL0     H58590   9.601   3.437   7.486 -1.5942  0.0785 -0.9354
  435MOL0     O58591   0.982   7.265   7.723  0.1005  0.0716 -0.1000
  435MOL0     C58592   0.918   7.362   7.678 -0.3146  0.7636  0.0706
  435MOL0     O58593   0.969   7.471   7.614  0.5257  0.2125  0.4719
  435MOL0     C58594   1.102   7.490   7.623  0.0164  0.6374  0.7353
  435MOL0     C58595   1.173   7.490   7.751 -0.2165 -0.0511  0.5311
  435MOL0     C58596   1.314   7.515   7.759  0.4895  0.3374  1.0308
  435MOL0     C58597   1.385   7.554   7.641  0.7213  0.9718 -0.7493
  435MOL0     O58598   1.522   7.588   7.650 -0.3924  0.0507  0.2283
  435MOL0     C58599   1.609   7.554   7.544  0.4945 -0.4832  0.8291
  435MOL0     C58600   1.740   7.503   7.599 -1.0009  0.7677  0.1474
  435MOL0     C58601   1.796   7.574   7.719  0.2156 -0.4851  0.0329
  435MOL0     C58602   1.925   7.516   7.770 -0.4681  0.5684 -0.3168
  435MOL0     C58603   1.969   7.601   7.890  0.1592  0.4914 -0.0053
  435MOL0     C58604   2.071   7.525   7.988  0.4789 -0.2854 -0.0651
  435MOL0     C58605   2.175   7.438   7.923  0.2332 -0.5099  0.2455
  435MOL0     C58606   2.293   7.397   8.007 -0.5204 -0.4761 -0.6048
  435MOL0     N58607   2.428   7.461   8.009 -0.0026  0.1180  0.0596
  435MOL0     C58608   2.454   7.593   8.035  0.1869  0.4181 -0.1057
  435MOL0     C58609   2.581   7.603   8.063 -0.2218 -0.3917 -0.6052
  435MOL0     C58610   2.660   7.718   8.108  0.1326 -0.8250 -0.1361
  435MOL0     C58611   2.772   7.754   8.007 -0.2161 -0.6174  0.0921
  435MOL0     C58612   2.897   7.670   7.973  0.5338 -0.1140  0.6365
  435MOL0     C58613   2.985   7.653   8.092 -0.2434 -0.0553  0.0013
  435MOL0     O58614   3.044   7.772   8.137  0.6708 -1.3607 -0.4961
  435MOL0     C58615   3.172   7.790   8.110 -0.8431  0.3932  0.0288
  435MOL0     C58616   3.275   7.702   8.146 -0.1894  0.0386 -0.2534
  435MOL0     C58617   3.410   7.728   8.119  0.0587 -0.2776  0.9628
  435MOL0     C58618   3.452   7.839   8.048  0.8730 -0.4552 -0.0567
  435MOL0     C58619   3.598   7.867   8.018  0.1676 -0.1287  0.6959
  435MOL0     O58620   3.635   7.998   7.993  0.0605 -0.3334  0.4790
  435MOL0     C58621   3.764   8.018   7.998 -0.4132  0.1607  0.2797
  435MOL0     C58622   3.841   7.994   7.885  0.5344  0.4196 -0.4254
  435MOL0     C58623   3.979   8.018   7.879 -0.6560  0.1720  0.2806
  435MOL0     C58624   4.041   8.075   7.984 -0.3012  0.7511  0.0623
  435MOL0     O58625   4.174   8.101   7.990 -0.7652  0.6738 -0.5897
  435MOL0     C58626   4.236   8.166   7.875 -0.0223  0.9350 -0.1925
  435MOL0     C58627   4.368   8.231   7.925  0.4872 -0.0488 -0.0662
  435MOL0     C58628   4.455   8.271   7.809 -0.1155 -0.6279 -0.3263
  435MOL0     C58629   4.565   8.374   7.841 -0.0044 -0.2656 -0.0842
  435MOL0     C58630   4.643   8.416   7.719 -0.0678 -0.5327 -0.6294
  435MOL0     C58631   4.742   8.525   7.753 -0.0162 -0.0776 -0.9802
  435MOL0     C58632   4.800   8.594   7.634 -0.3262 -0.1198  0.7782
  435MOL0     C58633   4.902   8.520   7.560  0.2154 -0.7060 -0.1736
  435MOL0    Cl58634   5.049   8.502   7.655 -0.2293 -0.2476  0.4822
  435MOL0     C58635   3.968   8.078   8.111  0.4605  0.1940 -0.1662
  435MOL0     C58636   3.834   8.062   8.114  0.0991  0.3750 -0.2992
  435MOL0     O58637   3.667   7.769   8.014 -0.2773 -0.0401 -0.4402
  435MOL0     C58638   3.350   7.921   8.001 -0.9043  0.5096  0.0338
  435MOL0     C58639   3.215   7.908   8.039  0.1964  0.5352 -0.9212
  435MOL0     N58640   2.648   7.480   8.047 -0.0506 -0.6809  0.1783
  435MOL0     N58641   2.550   7.390   8.023  0.2707 -0.2456  0.2416
  435MOL0     C58642   1.315   7.565   7.524 -0.1356  0.5736  0.3290
  435MOL0     C58643   1.179   7.528   7.512  0.5262 -0.0001  0.6574
  435MOL0     C58644   0.769   7.358   7.695 -0.1675 -0.2737 -0.3771
  435MOL0     C58645   0.691   7.443   7.611 -0.3733 -0.2218  0.2449
  435MOL0     C58646   0.556   7.450   7.622  0.1722 -0.3881 -0.4146
  435MOL0     C58647   0.487   7.385   7.726 -0.2416 -0.0540  1.0369
  435MOL0     O58648   0.355   7.400   7.752  0.7744 -0.4563 -0.2692
  435MOL0     C58649   0.280   7.272   7.729  0.2938 -0.3038 -0.2035
  435MOL0     C58650   0.261   7.249   7.574 -0.2418 -0.0354  0.4023
  435MOL0     C58651   0.198   7.363   7.496 -1.1743  0.3954  0.1437
  435MOL0     C58652   0.079   7.321   7.406  0.4928 -0.0954  0.0435
  435MOL0     C58653  -0.032   7.265   7.488  0.3837 -0.6759 -0.0138
  435MOL0     C58654  -0.130   7.221   7.545 -0.8911  0.0681 -0.0690
  435MOL0     C58655   0.568   7.308   7.806 -0.4450  0.8216  0.2891
  435MOL0     C58656   0.706   7.287   7.801 -0.2466  0.2448  0.5784
  435MOL0     C58657   0.754   7.194   7.911  0.1826  0.4791 -0.5480
  435MOL0     H58658   1.105   7.459   7.830  0.2635 -0.2059  0.8859
  435MOL0     H58659   1.371   7.501   7.850  1.4635 -0.0372  0.3775
  435MOL0     H58660   1.560   7.485   7.475  3.3796 -0.4499 -1.4606
  435MOL0     H58661   1.630   7.646   7.488 -2.0816  0.2104  0.8872
  435MOL0     H58662   1.815   7.509   7.519 -2.1238 -0.0597 -1.0162
  435MOL0     H58663   1.728   7.395   7.613  2.1060 -0.0661 -2.4229
  435MOL0     H58664   1.720   7.568   7.797 -2.4913  1.1964 -2.2620
  435MOL0     H58665   1.805   7.680   7.691  0.9033 -0.7462 -0.7860
  435MOL0     H58666   1.921   7.411   7.801 -0.9511  0.7769  0.3330
  435MOL0     H58667   1.997   7.514   7.688 -0.7323  0.8440 -0.5607
  435MOL0     H58668   1.999   7.692   7.837 -1.0246 -0.7382 -2.9842
  435MOL0     H58669   1.881   7.623   7.951 -0.9119  1.8968 -1.9407
  435MOL0     H58670   2.134   7.597   8.041 -1.5165  1.5805 -0.1003
  435MOL0     H58671   2.009   7.464   8.054 -3.4465  0.6855 -2.5225
  435MOL0     H58672   2.220   7.470   7.829  2.5564 -6.4912 -1.1771
  435MOL0     H58673   2.119   7.349   7.891 -0.4287 -0.7763  1.9872
  435MOL0     H58674   2.249   7.379   8.106  1.6516  2.5281  1.0520
  435MOL0     H58675   2.305   7.298   7.962 -2.0298 -0.5954 -0.8033
  435MOL0     H58676   2.384   7.674   8.054  1.7971  2.1353 -1.1746
  435MOL0     H58677   2.592   7.798   8.137  4.7253  2.5951  2.3078
  435MOL0     H58678   2.708   7.681   8.199 -0.2548 -1.4996 -0.1966
  435MOL0     H58679   2.714   7.779   7.918 -2.6535  0.2171  1.8178
  435MOL0     H58680   2.817   7.847   8.044  0.5786 -0.9134 -0.0945
  435MOL0     H58681   2.954   7.718   7.892  2.5384 -3.1847  0.0768
  435MOL0     H58682   2.869   7.571   7.935  1.6372 -0.1838 -0.0343
  435MOL0     H58683   3.058   7.584   8.050 -2.5801 -1.3104 -2.3120
  435MOL0     H58684   2.929   7.609   8.175 -1.1327  0.2294 -0.4288
  435MOL0     H58685   3.261   7.613   8.206 -0.1549 -0.1134 -0.4698
  435MOL0     H58686   3.487   7.656   8.145  0.5966  1.0343  3.2028
  435MOL0     H58687   3.792   7.955   7.796 -2.9583  1.2825  0.9341
  435MOL0     H58688   4.033   7.997   7.787 -0.9688 -3.3186  0.7645
  435MOL0     H58689   4.268   8.084   7.811 -0.4307  0.5561  0.0793
  435MOL0     H58690   4.166   8.229   7.819 -2.3840  0.5453  2.1196
  435MOL0     H58691   4.339   8.307   7.998  3.1395 -0.3379  1.4003
  435MOL0     H58692   4.415   8.149   7.980 -0.0525 -0.1362  0.2781
  435MOL0     H58693   4.498   8.184   7.758 -1.5860 -1.6124  0.0405
  435MOL0     H58694   4.403   8.322   7.727  0.6269 -0.7330 -0.8692
  435MOL0     H58695   4.646   8.325   7.896 -0.1511 -2.4795 -1.6629
  435MOL0     H58696   4.525   8.459   7.896 -2.1612 -0.7630 -0.7565
  435MOL0     H58697   4.576   8.457   7.643  0.2978 -1.6150 -1.5633
  435MOL0     H58698   4.692   8.329   7.675  0.1486 -0.3706 -0.7171
  435MOL0     H58699   4.688   8.599   7.813 -0.5247 -2.4888  1.7578
  435MOL0     H58700   4.822   8.482   7.815  0.2774 -0.9887 -1.9650
  435MOL0     H58701   4.853   8.686   7.660 -3.0346  1.1896  2.0262
  435MOL0     H58702   4.718   8.631   7.571  0.4614  0.0914 -0.1481
  435MOL0     H58703   4.851   8.429   7.529  0.7842 -0.3789 -2.2250
  435MOL0     H58704   4.917   8.556   7.458 -1.9463 -0.5752 -0.5006
  435MOL0     H58705   4.011   8.118   8.203  0.6674  0.3306 -0.3207
  435MOL0     H58706   3.779   8.062   8.208  1.2300  1.1768  0.3986
  435MOL0     H58707   3.366   8.020   7.958 -2.4250  0.7782  0.0320
  435MOL0     H58708   3.137   7.972   8.000 -0.3475 -0.4951 -1.5548
  435MOL0     H58709   1.370   7.590   7.434 -0.1476 -2.3953 -0.6153
  435MOL0     H58710   1.126   7.529   7.417 -0.6090 -0.0891  1.2719
  435MOL0     H58711   0.726   7.475   7.513  0.2498  0.4148  0.6640
  435MOL0     H58712   0.500   7.496   7.541 -0.6259  1.6037  1.1857
  435MOL0     H58713   0.178   7.274   7.768  0.3824 -0.1782  0.0219
  435MOL0     H58714   0.329   7.183   7.768 -0.6954  0.0668  2.0045
  435MOL0     H58715   0.188   7.168   7.571  0.0489 -0.4354  2.6436
  435MOL0     H58716   0.354   7.224   7.521  1.0200  0.7198  2.1675
  435MOL0     H58717   0.273   7.396   7.424 -1.8161  2.1104  0.2251
  435MOL0     H58718   0.177   7.453   7.554  1.0195 -0.4079  2.3910
  435MOL0     H58719   0.033   7.398   7.343 -2.3942 -1.0821  0.8113
  435MOL0     H58720   0.111   7.245   7.334  1.7115 -0.1702  0.6365
  435MOL0     H58721  -0.207   7.165   7.593 -2.2999  0.5506 -1.6381
  435MOL0     H58722   0.510   7.263   7.886 -0.1087 -0.1304  0.0083
  435MOL0     H58723   0.767   7.089   7.882  1.2329  0.6873 -0.8920
  435MOL0     H58724   0.848   7.231   7.954  0.1133  2.8726 -2.2464
  435MOL0     H58725   0.691   7.204   8.000  2.6141 -2.1717  1.6709
  436MOL0     O58726  10.101   9.429   6.062  0.5491 -0.0675 -0.2801
  436MOL0     C58727  10.077   9.541   6.098 -0.4788  0.1104  1.0266
  436MOL0     O58728  10.170   9.639   6.101 -0.4604 -0.0339  0.4670
  436MOL0     C58729  10.300   9.638   6.055  0.2180  0.6518  0.8968
  436MOL0     C58730  10.323   9.584   5.932  0.6619  0.1740 -0.3036
  436MOL0     C58731  10.453   9.566   5.888 -0.2795 -0.4671 -0.4150
  436MOL0     C58732  10.554   9.620   5.966 -0.5142 -0.4514  1.3076
  436MOL0     O58733  10.682   9.610   5.916 -0.8368 -0.4402  0.1011
  436MOL0     C58734  10.787   9.688   5.972 -0.6277 -0.5525 -0.8249
  436MOL0     C58735  10.927   9.662   5.915 -0.2034  0.1837  0.1164
  436MOL0     C58736  10.944   9.708   5.770 -0.3281  0.1450 -0.5592
  436MOL0     C58737  11.093   9.690   5.738  0.1208  0.5567  0.0631
  436MOL0     C58738  11.130   9.736   5.607 -0.1174  0.7303 -0.2052
  436MOL0     C58739  11.256   9.670   5.563  0.4549 -0.5117 -0.4532
  436MOL0     C58740  11.379   9.698   5.647 -0.3110 -0.0248  0.7651
  436MOL0     C58741  11.422   9.852   5.635 -0.6429  0.1715  0.2844
  436MOL0     N58742  11.551   9.868   5.716  0.3260 -1.1249 -0.7943
  436MOL0     C58743  11.556   9.866   5.849  0.0319 -0.9016 -0.1164
  436MOL0     C58744  11.690   9.868   5.882  0.1570 -0.1673  1.0167
  436MOL0     C58745  11.742   9.848   6.017  0.2701  0.4781  0.1165
  436MOL0     C58746  11.887   9.789   6.012 -0.6169  0.0856  0.5234
  436MOL0     C58747  11.960   9.795   6.147 -0.2934  0.0557 -0.8932
  436MOL0     C58748  11.914   9.687   6.251 -0.0002  0.3512  0.1481
  436MOL0     O58749  11.895   9.555   6.200  0.2468  0.0118 -0.1378
  436MOL0     C58750  12.012   9.479   6.192  0.5364  0.3412 -0.5660
  436MOL0     C58751  12.002   9.354   6.141  0.3390  0.3733 -0.4358
  436MOL0     C58752  12.112   9.273   6.101 -0.1973 -0.2628  0.0411
  436MOL0     C58753  12.242   9.319   6.121 -0.7762 -0.6010  0.2916
  436MOL0     C58754  12.352   9.235   6.074  0.1244  0.2992 -0.2749
  436MOL0     O58755  12.476   9.264   6.133 -0.4197  0.0507  0.3831
  436MOL0     C58756  12.598   9.243   6.065  0.2118  0.0586  0.2359
  436MOL0     C58757  12.718   9.241   6.137 -0.7661 -0.3278  0.2401
  436MOL0     C58758  12.838   9.213   6.067 -0.6329 -0.0718  0.3060
  436MOL0     C58759  12.839   9.201   5.930 -0.4114  0.9887 -0.2666
  436MOL0     O58760  12.952   9.174   5.854  0.0980 -0.4647  0.2471
  436MOL0     C58761  13.079   9.177   5.916 -0.6259 -0.5536 -0.2591
  436MOL0     C58762  13.178   9.118   5.815 -0.3577  0.4791  0.3151
  436MOL0     C58763  13.324   9.172   5.822 -0.1744 -0.5221  0.1583
  436MOL0     C58764  13.417   9.084   5.731 -0.6039 -0.3843  0.2798
  436MOL0     C58765  13.573   9.100   5.759  0.0680  0.0622  0.8757
  436MOL0     C58766  13.620   9.068   5.897 -0.5336 -0.3848  0.7587
  436MOL0     C58767  13.766   9.107   5.934  0.1589  0.4333 -0.2919
  436MOL0     C58768  13.779   9.251   5.978 -0.0947  0.1451 -0.3871
  436MOL0    Cl58769  13.949   9.262   6.048 -0.3321 -0.0612 -0.0198
  436MOL0     C58770  12.715   9.210   5.857  0.0238 -0.8675 -0.3150
  436MOL0     C58771  12.599   9.234   5.920 -0.5379 -0.7396 -0.6050
  436MOL0     O58772  12.330   9.154   5.981 -0.0496 -0.1692  0.6987
  436MOL0     C58773  12.263   9.444   6.191  0.2673  0.1948 -0.2546
  436MOL0     C58774  12.146   9.518   6.223  0.2416 -0.1627 -0.5511
  436MOL0     N58775  11.759   9.882   5.766 -0.6369 -1.1805 -0.2211
  436MOL0     N58776  11.679   9.882   5.667  0.5993 -0.4873 -0.1039
  436MOL0     C58777  10.530   9.683   6.084  0.9779  0.3399 -0.1006
  436MOL0     C58778  10.401   9.693   6.131 -0.4473 -0.5373 -0.2420
  436MOL0     C58779   9.937   9.578   6.127 -0.0582  0.3098 -0.4504
  436MOL0     C58780   9.835   9.481   6.158 -0.2546  0.4284  0.0192
  436MOL0     C58781   9.700   9.511   6.192  0.6948 -0.8254  0.1139
  436MOL0     C58782   9.665   9.648   6.203 -0.1371  0.3440 -0.0508
  436MOL0     O58783   9.543   9.702   6.220 -0.2771  0.0960 -0.1384
  436MOL0     C58784   9.426   9.617   6.241 -0.6007  0.5004 -0.1223
  436MOL0     C58785   9.300   9.704   6.254 -0.1435 -0.1578  0.3955
  436MOL0     C58786   9.164   9.625   6.257  0.4567  0.6343  0.1025
  436MOL0     C58787   9.044   9.711   6.241  0.3289 -0.0101  0.1344
  436MOL0     C58788   8.918   9.633   6.215 -0.8400 -0.5667  0.9607
  436MOL0     C58789   8.831   9.559   6.190  0.3911  0.9719  0.6793
  436MOL0     C58790   9.763   9.745   6.177  1.4336 -0.7351 -0.6671
  436MOL0     C58791   9.899   9.712   6.149  0.5003  0.2045 -0.3233
  436MOL0     C58792   9.991   9.834   6.133  0.1832 -0.2761  0.2890
  436MOL0     H58793  10.248   9.542   5.866  2.1662  0.1700 -2.0970
  436MOL0     H58794  10.472   9.501   5.803 -0.7126 -2.6548  1.0728
  436MOL0     H58795  10.766   9.790   5.938 -2.5068 -1.8317 -3.8736
  436MOL0     H58796  10.788   9.688   6.082  1.1423 -0.2175 -0.8020
  436MOL0     H58797  10.956   9.556   5.923 -2.0308 -0.3551  0.2125
  436MOL0     H58798  10.994   9.726   5.973 -0.6297  2.1189 -1.4175
  436MOL0     H58799  10.923   9.815   5.759  0.1957  0.1876 -1.2204
  436MOL0     H58800  10.875   9.654   5.704 -1.4579  0.8805 -0.0174
  436MOL0     H58801  11.154   9.745   5.810  0.2072  0.2083  0.2598
  436MOL0     H58802  11.118   9.584   5.745  0.8739  0.8137  1.9911
  436MOL0     H58803  11.052   9.701   5.538  2.2820  0.0447 -2.7023
  436MOL0     H58804  11.126   9.845   5.604 -0.0247  0.7912  1.2657
  436MOL0     H58805  11.248   9.562   5.548  1.8921 -0.9062  1.3025
  436MOL0     H58806  11.273   9.713   5.464 -1.3374  0.9877 -0.1593
  436MOL0     H58807  11.465   9.642   5.609  2.5293  2.1555  3.3877
  436MOL0     H58808  11.368   9.670   5.752  1.1275 -0.8872  0.7179
  436MOL0     H58809  11.429   9.874   5.528 -1.3613  0.1083  0.2213
  436MOL0     H58810  11.364   9.937   5.673  0.0937  1.0875 -0.6016
  436MOL0     H58811  11.473   9.853   5.918  0.3961  1.7777  0.9317
  436MOL0     H58812  11.742   9.941   6.076 -1.3377 -1.5446  3.6622
  436MOL0     H58813  11.674   9.779   6.068  0.2937 -0.5640 -1.2261
  436MOL0     H58814  11.867   9.687   5.979 -0.6079  0.3654 -0.3642
  436MOL0     H58815  11.954   9.832   5.936 -0.7396 -3.0091 -1.5162
  436MOL0     H58816  11.956   9.894   6.192 -0.7045 -0.0359 -0.7212
  436MOL0     H58817  12.064   9.776   6.119 -0.4179 -1.0453 -0.6728
  436MOL0     H58818  11.819   9.728   6.286  0.7741  1.4878  0.9827
  436MOL0     H58819  11.990   9.692   6.330  2.7176 -1.6929 -2.0944
  436MOL0     H58820  11.908   9.303   6.120 -0.8536  0.9215  2.8618
  436MOL0     H58821  12.101   9.168   6.078  0.9670 -0.1984 -0.8947
  436MOL0     H58822  12.715   9.257   6.245  2.9887 -1.2424  0.6193
  436MOL0     H58823  12.937   9.232   6.107  0.3696  1.3619 -2.6088
  436MOL0     H58824  13.110   9.280   5.938  0.4422 -0.6252 -1.3485
  436MOL0     H58825  13.073   9.110   6.002  0.3226 -2.2645 -1.4809
  436MOL0     H58826  13.180   9.010   5.831  3.9096  0.4278  0.4320
  436MOL0     H58827  13.157   9.124   5.708 -0.0759 -0.1657  0.2212
  436MOL0     H58828  13.337   9.274   5.786 -1.2238 -0.6952 -0.7675
  436MOL0     H58829  13.359   9.174   5.926  1.6391  0.8377 -0.4201
  436MOL0     H58830  13.396   9.116   5.628 -0.6876  2.8316  1.1809
  436MOL0     H58831  13.393   8.981   5.760 -2.4376  0.0896  0.5759
  436MOL0     H58832  13.598   9.204   5.738 -0.3658  0.0043  0.0159
  436MOL0     H58833  13.625   9.036   5.687  1.3951 -1.1938  2.8292
  436MOL0     H58834  13.554   9.113   5.972  2.0111  3.1462  1.1659
  436MOL0     H58835  13.628   8.960   5.908  2.9722 -0.2853  0.3122
  436MOL0     H58836  13.832   9.094   5.848  1.4971 -0.8887  0.8869
  436MOL0     H58837  13.806   9.040   6.011 -1.9219 -1.8340 -1.0665
  436MOL0     H58838  13.760   9.318   5.894  2.5350  0.8873 -0.4854
  436MOL0     H58839  13.710   9.260   6.061  1.8244  1.3209  1.1635
  436MOL0     H58840  12.737   9.203   5.751 -0.9545 -1.9510 -0.4702
  436MOL0     H58841  12.510   9.242   5.859  0.8650 -0.9170 -2.8172
  436MOL0     H58842  12.349   9.485   6.243 -1.7754  3.3284  0.9201
  436MOL0     H58843  12.162   9.606   6.284 -1.6783 -0.4646  0.4795
  436MOL0     H58844  10.614   9.718   6.143  1.0126 -0.2310  0.1953
  436MOL0     H58845  10.388   9.744   6.226 -0.7637  0.6755 -0.9114
  436MOL0     H58846   9.864   9.376   6.166 -2.7646 -0.3275  0.1717
  436MOL0     H58847   9.629   9.429   6.196  1.7906 -1.7798  0.7690
  436MOL0     H58848   9.446   9.561   6.332 -1.1889 -2.6107 -1.7813
  436MOL0     H58849   9.417   9.541   6.163 -2.2042 -0.2729  0.7818
  436MOL0     H58850   9.295   9.767   6.165 -0.7169 -2.1918 -1.1059
  436MOL0     H58851   9.316   9.762   6.344  4.4663 -1.8222  0.9619
  436MOL0     H58852   9.162   9.555   6.341  1.1558 -2.5260 -2.3323
  436MOL0     H58853   9.169   9.566   6.166 -3.3570 -0.7809  0.6482
  436MOL0     H58854   9.040   9.766   6.336  1.3172 -1.4296  1.0533
  436MOL0     H58855   9.049   9.782   6.159 -0.1885  0.6576  0.6702
  436MOL0     H58856   8.750   9.495   6.160  2.1269 -0.7939 -0.4858
  436MOL0     H58857   9.747   9.852   6.178  1.7079 -0.6148  2.3239
  436MOL0     H58858  10.039   9.841   6.035  1.1204  3.7647  0.8542
  436MOL0     H58859   9.934   9.923   6.162 -1.8563 -1.0920 -0.9882
  436MOL0     H58860  10.077   9.821   6.199 -0.1632 -1.8024  0.4739
  437MOL0     O58861   1.800   7.443   8.959 -0.0055 -1.0776  0.2859
  437MOL0     C58862   1.813   7.545   8.892  0.4001 -0.2812  0.3819
  437MOL0     O58863   1.935   7.579   8.834  0.1923 -0.2913 -0.4186
  437MOL0     C58864   2.060   7.519   8.867  0.0688  0.1610 -0.1449
  437MOL0     C58865   2.169   7.546   8.786 -0.5038  0.3281  0.2850
  437MOL0     C58866   2.305   7.514   8.803  0.1261  0.3696 -1.0175
  437MOL0     C58867   2.338   7.437   8.920 -0.6222  0.1594 -0.2813
  437MOL0     O58868   2.471   7.399   8.954 -0.1529 -0.5867  0.2624
  437MOL0     C58869   2.582   7.441   8.870 -0.2322  0.7786  0.3410
  437MOL0     C58870   2.700   7.355   8.917 -0.5296 -0.0766  0.0871
  437MOL0     C58871   2.739   7.347   9.066 -0.0559 -0.5780  0.3791
  437MOL0     C58872   2.830   7.457   9.116  0.3387 -0.3290  0.2600
  437MOL0     C58873   2.967   7.443   9.051  0.8743  0.8116 -0.3679
  437MOL0     C58874   3.066   7.550   9.092  0.3759  0.0670  0.0062
  437MOL0     C58875   3.204   7.547   9.016  0.1749 -0.3139  0.3253
  437MOL0     C58876   3.313   7.638   9.065  0.4848  0.4803  0.5413
  437MOL0     N58877   3.410   7.647   8.954 -0.2768 -0.7567 -0.5287
  437MOL0     C58878   3.398   7.707   8.832  0.2520 -0.3717 -0.0764
  437MOL0     C58879   3.508   7.673   8.764  0.0275 -0.0154  0.6154
  437MOL0     C58880   3.520   7.684   8.612 -0.6056  1.2190 -0.3465
  437MOL0     C58881   3.599   7.805   8.567  0.2794  0.1703 -0.2628
  437MOL0     C58882   3.598   7.848   8.418 -0.0261  0.3597 -0.2634
  437MOL0     C58883   3.487   7.949   8.383 -0.7635 -0.0093 -0.1600
  437MOL0     O58884   3.363   7.870   8.392  0.2426  0.8591  0.2731
  437MOL0     C58885   3.258   7.953   8.420  0.8622 -0.2133  0.8066
  437MOL0     C58886   3.227   8.062   8.341  0.7941  0.5014  0.6877
  437MOL0     C58887   3.120   8.149   8.365  0.0126  0.4942  0.1206
  437MOL0     C58888   3.035   8.120   8.476  0.4962 -0.2510 -0.2564
  437MOL0     C58889   2.923   8.220   8.505 -0.2604  0.2149 -0.4624
  437MOL0     O58890   2.897   8.234   8.644  0.0786 -0.2275  0.5328
  437MOL0     C58891   2.842   8.359   8.669 -0.2655 -0.4554 -0.3505
  437MOL0     C58892   2.707   8.400   8.672 -0.4346  0.3301  0.1283
  437MOL0     C58893   2.671   8.535   8.694 -0.6003  0.8024 -0.2791
  437MOL0     C58894   2.768   8.635   8.709  0.2581  0.4259 -0.0808
  437MOL0     O58895   2.742   8.770   8.735 -0.5075 -0.1863 -0.0328
  437MOL0     C58896   2.611   8.827   8.702 -0.2780 -0.0094  0.0402
  437MOL0     C58897   2.617   8.981   8.719 -0.4234  0.3434 -0.3448
  437MOL0     C58898   2.699   9.048   8.605 -0.8468 -0.4240  0.6150
  437MOL0     C58899   2.689   9.197   8.603 -0.1681 -0.9959 -0.1332
  437MOL0     C58900   2.782   9.263   8.504  0.0859 -0.1121 -0.4516
  437MOL0     C58901   2.929   9.263   8.557  0.4205 -0.8541  0.5671
  437MOL0     C58902   3.026   9.317   8.452 -0.4620 -0.3222  0.9757
  437MOL0     C58903   3.070   9.459   8.484  1.2069 -0.2508 -0.6111
  437MOL0    Cl58904   3.170   9.527   8.346 -0.2646 -0.0547  0.1299
  437MOL0     C58905   2.905   8.599   8.716 -0.0721  0.3773 -0.4844
  437MOL0     C58906   2.945   8.463   8.699 -0.1016 -0.6726 -0.3135
  437MOL0     O58907   2.878   8.279   8.414  0.5447 -0.6954  0.1906
  437MOL0     C58908   3.073   8.016   8.562 -0.0556  0.0921  0.2402
  437MOL0     C58909   3.184   7.931   8.533 -0.3900 -0.3955 -0.3195
  437MOL0     N58910   3.586   7.612   8.850 -0.1126  0.0036 -0.2218
  437MOL0     N58911   3.537   7.597   8.967 -0.5090 -0.1172  0.6291
  437MOL0     C58912   2.241   7.409   9.012 -0.3454  0.4102  0.6910
  437MOL0     C58913   2.100   7.446   8.983 -0.8067  0.5919  0.6579
  437MOL0     C58914   1.694   7.628   8.844 -0.5231 -0.8780 -0.3886
  437MOL0     C58915   1.727   7.744   8.765  0.2205  0.1015  0.3036
  437MOL0     C58916   1.621   7.827   8.713 -0.3308 -0.0387  0.0457
  437MOL0     C58917   1.485   7.784   8.736  0.0959 -0.0735 -0.1802
  437MOL0     O58918   1.372   7.848   8.688  1.0716  0.1551 -0.0898
  437MOL0     C58919   1.385   7.969   8.606  0.4501 -0.2228  0.9328
  437MOL0     C58920   1.247   8.018   8.573  1.6146  0.1163  0.2408
  437MOL0     C58921   1.150   7.914   8.509  0.6157 -1.0799  0.7097
  437MOL0     C58922   1.006   7.965   8.469  0.0970  0.2761 -0.6982
  437MOL0     C58923   0.923   8.011   8.576 -0.2549 -1.0762 -0.1576
  437MOL0     C58924   0.864   8.055   8.668  0.5238 -0.4213  0.6398
  437MOL0     C58925   1.459   7.676   8.819  0.5509 -0.0784  0.2645
  437MOL0     C58926   1.556   7.599   8.869  0.6943 -0.3190  0.3617
  437MOL0     C58927   1.515   7.476   8.941 -0.7520  0.2650  0.4332
  437MOL0     H58928   2.148   7.602   8.695 -0.8336 -1.5504 -0.8490
  437MOL0     H58929   2.367   7.540   8.718  1.8016  0.1542  0.0990
  437MOL0     H58930   2.562   7.427   8.763  0.3472 -3.6689  0.6542
  437MOL0     H58931   2.599   7.549   8.876 -4.3171  1.5108  2.0192
  437MOL0     H58932   2.777   7.366   8.840 -1.3520 -0.9361 -0.8863
  437MOL0     H58933   2.678   7.250   8.899  1.2840 -0.7786  1.5723
  437MOL0     H58934   2.767   7.242   9.081 -0.5870 -0.9282 -0.9240
  437MOL0     H58935   2.646   7.360   9.122  1.9131 -2.2244  4.4480
  437MOL0     H58936   2.784   7.550   9.080 -0.7074 -1.0489 -0.3046
  437MOL0     H58937   2.839   7.450   9.225  0.9063  1.6990  0.3940
  437MOL0     H58938   3.017   7.350   9.080  0.0697 -0.1499 -1.9445
  437MOL0     H58939   2.952   7.459   8.944  0.0599 -1.3253 -0.6309
  437MOL0     H58940   3.030   7.653   9.082  1.1889  0.3924  0.3271
  437MOL0     H58941   3.079   7.547   9.200 -0.4866  2.4116  0.2352
  437MOL0     H58942   3.186   7.568   8.910 -0.7457  0.4112  0.5997
  437MOL0     H58943   3.239   7.444   9.027  0.5665 -0.0497  1.6064
  437MOL0     H58944   3.266   7.732   9.095  0.8526  0.7419  0.3070
  437MOL0     H58945   3.348   7.605   9.163  0.6256 -0.1690  0.2758
  437MOL0     H58946   3.311   7.762   8.796  1.3341  0.7562 -1.0338
  437MOL0     H58947   3.568   7.599   8.562 -1.2653  0.7742 -0.2377
  437MOL0     H58948   3.416   7.694   8.580 -0.2291 -0.4552 -2.3056
  437MOL0     H58949   3.554   7.890   8.619  0.7880  1.1092 -1.3138
  437MOL0     H58950   3.702   7.795   8.603  0.6453 -4.1056 -1.8195
  437MOL0     H58951   3.593   7.759   8.355  0.0828  1.5402 -2.0329
  437MOL0     H58952   3.698   7.891   8.403  0.0294 -0.2958 -1.9086
  437MOL0     H58953   3.493   7.999   8.285  0.2673  0.6079  0.2011
  437MOL0     H58954   3.482   8.036   8.449 -2.2571  1.3386 -1.9326
  437MOL0     H58955   3.291   8.097   8.260 -0.3379 -0.4149 -0.6375
  437MOL0     H58956   3.109   8.241   8.308  1.2006  0.3630 -0.3516
  437MOL0     H58957   2.627   8.328   8.681  1.5871 -2.0822 -0.1065
  437MOL0     H58958   2.568   8.568   8.699 -0.4696  1.0289  2.1195
  437MOL0     H58959   2.573   8.802   8.603  0.2428  0.5801 -0.3205
  437MOL0     H58960   2.532   8.796   8.771  0.1254 -1.1086  0.0225
  437MOL0     H58961   2.513   9.012   8.727  0.0684  1.9963 -0.0179
  437MOL0     H58962   2.660   9.008   8.816  1.6354  0.3170 -1.1974
  437MOL0     H58963   2.804   9.025   8.625  0.1058  2.0635 -0.9465
  437MOL0     H58964   2.667   9.008   8.508  0.3392  1.4668 -0.6228
  437MOL0     H58965   2.716   9.239   8.701  0.5347 -0.3153 -0.6053
  437MOL0     H58966   2.585   9.224   8.585 -0.0535  0.1961  0.8436
  437MOL0     H58967   2.744   9.366   8.505 -0.9934 -0.3939  3.2328
  437MOL0     H58968   2.768   9.208   8.410 -2.5520  0.5860 -0.5579
  437MOL0     H58969   2.956   9.323   8.645  1.0118  0.9048 -0.7411
  437MOL0     H58970   2.965   9.160   8.566  1.1717 -0.5900  0.6774
  437MOL0     H58971   2.986   9.312   8.350 -1.5141 -1.2854  1.4124
  437MOL0     H58972   3.124   9.269   8.462 -0.3231 -0.1507  0.4711
  437MOL0     H58973   2.976   9.514   8.497  1.6402  0.2520  0.5021
  437MOL0     H58974   3.122   9.459   8.580 -2.2028 -0.2248  1.3906
  437MOL0     H58975   2.974   8.679   8.742 -0.7809 -0.0827  3.3139
  437MOL0     H58976   3.048   8.430   8.706 -1.1720 -4.0523  3.6278
  437MOL0     H58977   3.011   7.999   8.649 -0.5113 -3.1014 -0.5796
  437MOL0     H58978   3.216   7.845   8.591  0.3122  0.0013 -0.1019
  437MOL0     H58979   2.275   7.355   9.100 -0.6307 -0.2739  0.3885
  437MOL0     H58980   2.013   7.439   9.049 -1.9977  1.3021 -0.7872
  437MOL0     H58981   1.830   7.763   8.737 -0.3329 -0.3101 -2.2398
  437MOL0     H58982   1.642   7.911   8.647  1.6715 -0.8501 -0.4292
  437MOL0     H58983   1.436   7.955   8.510 -1.2089 -1.6792  0.2143
  437MOL0     H58984   1.441   8.042   8.666  2.8552 -2.5658  1.7303
  437MOL0     H58985   1.255   8.102   8.504  1.3141 -2.2410 -2.8586
  437MOL0     H58986   1.193   8.043   8.665 -1.2679 -0.6106 -1.1241
  437MOL0     H58987   1.133   7.833   8.581 -1.5249 -0.6459  0.7761
  437MOL0     H58988   1.207   7.876   8.424  1.6480  1.1212  0.3290
  437MOL0     H58989   1.013   8.036   8.387  1.2688 -2.3557 -3.0469
  437MOL0     H58990   0.964   7.874   8.425  1.6557 -0.8492  0.0288
  437MOL0     H58991   0.823   8.103   8.754 -0.2994  2.9813 -1.4637
  437MOL0     H58992   1.363   7.627   8.834  1.3547 -1.4703  1.1106
  437MOL0     H58993   1.407   7.460   8.932 -0.9962  1.7585  0.4697
  437MOL0     H58994   1.560   7.383   8.903  1.5119  1.5378 -0.1725
  437MOL0     H58995   1.539   7.479   9.047  0.1480  0.6041  0.2260
  438MOL0     O58996   2.179   2.756   4.279  0.5573 -0.1606 -0.5851
  438MOL0     C58997   2.136   2.854   4.340 -0.4309  0.2007 -1.1175
  438MOL0     O58998   2.176   2.895   4.467  0.0128 -0.1409 -0.4644
  438MOL0     C58999   2.304   2.888   4.513 -0.0984  0.5534  0.1314
  438MOL0     C59000   2.338   2.895   4.650  0.2240 -0.0512 -0.6649
  438MOL0     C59001   2.469   2.861   4.694  0.4957  0.0088 -0.7664
  438MOL0     C59002   2.568   2.835   4.600 -0.4037  0.3488  0.7566
  438MOL0     O59003   2.695   2.803   4.641 -0.1576  0.4386  0.1021
  438MOL0     C59004   2.743   2.676   4.618 -0.1238 -0.5118 -0.6372
  438MOL0     C59005   2.879   2.676   4.551 -0.4922  0.5422 -0.5888
  438MOL0     C59006   2.911   2.548   4.485 -0.2762 -0.5839 -0.1911
  438MOL0     C59007   3.000   2.459   4.578  0.5270 -0.4349  0.1621
  438MOL0     C59008   3.150   2.486   4.584  0.7887 -0.0334 -0.2685
  438MOL0     C59009   3.212   2.376   4.674 -0.3684  1.7846 -0.3075
  438MOL0     C59010   3.366   2.375   4.647  0.3110  0.1558  0.7461
  438MOL0     C59011   3.421   2.241   4.687 -0.0377  0.4406 -0.4603
  438MOL0     N59012   3.565   2.249   4.702 -0.1812  0.5805  0.5726
  438MOL0     C59013   3.645   2.292   4.599 -0.4744  0.6986  0.7160
  438MOL0     C59014   3.773   2.302   4.642  0.3134  0.7052 -0.0044
  438MOL0     C59015   3.893   2.344   4.562 -1.5987 -0.2643 -0.1891
  438MOL0     C59016   3.997   2.414   4.658 -0.3651  0.5491  0.8067
  438MOL0     C59017   4.098   2.318   4.731 -0.5246 -0.3525  0.0785
  438MOL0     C59018   4.189   2.231   4.651  0.5592  0.1216 -0.3337
  438MOL0     O59019   4.239   2.310   4.540  0.4845  0.3859 -1.0477
  438MOL0     C59020   4.372   2.346   4.554 -1.0591  0.3754  0.8477
  438MOL0     C59021   4.404   2.481   4.542 -0.8941 -0.5081  0.5271
  438MOL0     C59022   4.535   2.515   4.557 -0.4027  0.3612  0.2732
  438MOL0     C59023   4.644   2.424   4.568 -0.0806 -0.4367  0.3817
  438MOL0     C59024   4.784   2.458   4.587  0.0737 -0.2540 -0.0502
  438MOL0     O59025   4.880   2.363   4.581  0.0998  0.2257  0.1156
  438MOL0     C59026   5.017   2.397   4.600 -0.5602  0.8546 -0.9256
  438MOL0     C59027   5.074   2.514   4.668  0.1895 -0.2147 -0.1788
  438MOL0     C59028   5.214   2.515   4.684 -0.1593 -0.0138 -0.2626
  438MOL0     C59029   5.295   2.406   4.630 -1.1220 -0.0162  0.4235
  438MOL0     O59030   5.429   2.394   4.646  0.6781  0.0716  0.2195
  438MOL0     C59031   5.483   2.404   4.779 -0.1347 -0.6430  0.0847
  438MOL0     C59032   5.641   2.392   4.778  0.7283  0.2978 -0.2006
  438MOL0     C59033   5.708   2.525   4.738  0.0500  0.1077  0.6331
  438MOL0     C59034   5.845   2.539   4.807  0.0609  0.4436 -0.3689
  438MOL0     C59035   5.927   2.656   4.759  0.4441  0.5925  0.4025
  438MOL0     C59036   6.061   2.655   4.822  0.4025 -0.1038 -0.7417
  438MOL0     C59037   6.140   2.782   4.782 -0.3208 -0.0472  0.1786
  438MOL0     C59038   6.253   2.833   4.865 -0.4583  0.4997 -0.4592
  438MOL0    Cl59039   6.389   2.716   4.869 -0.2231  0.0718 -0.0972
  438MOL0     C59040   5.232   2.296   4.572  0.6445 -0.3829 -0.1675
  438MOL0     C59041   5.099   2.298   4.558 -0.0884  0.8198  0.3031
  438MOL0     O59042   4.798   2.581   4.599 -0.5394  0.9007 -0.0215
  438MOL0     C59043   4.608   2.294   4.572 -0.5924 -0.3797  0.0587
  438MOL0     C59044   4.472   2.256   4.558 -0.6801 -0.9732  0.4178
  438MOL0     N59045   3.763   2.260   4.771 -0.0754  0.9790 -0.4751
  438MOL0     N59046   3.645   2.224   4.807  0.0581  0.2660 -0.0236
  438MOL0     C59047   2.541   2.845   4.469  1.0618 -0.5921  0.5186
  438MOL0     C59048   2.414   2.870   4.427  1.0654 -0.0630  0.5422
  438MOL0     C59049   2.019   2.919   4.295  0.6153 -0.6685  0.2048
  438MOL0     C59050   1.902   2.895   4.361  0.1808 -0.0836 -0.3988
  438MOL0     C59051   1.784   2.954   4.325  0.2186 -0.3572  0.0039
  438MOL0     C59052   1.783   3.044   4.214  0.2636 -0.8832  0.4364
  438MOL0     O59053   1.654   3.086   4.189  0.2729 -0.2886  0.3407
  438MOL0     C59054   1.627   3.180   4.079 -0.3318  1.0247 -0.4075
  438MOL0     C59055   1.574   3.088   3.961 -0.6472 -0.5464  0.0167
  438MOL0     C59056   1.541   3.170   3.835 -0.2646 -0.5405 -0.4246
  438MOL0     C59057   1.412   3.247   3.852  1.2156  0.0603 -0.0443
  438MOL0     C59058   1.377   3.348   3.747 -0.7504  0.3930 -0.8212
  438MOL0     C59059   1.351   3.435   3.673 -0.3459 -0.8258  0.2491
  438MOL0     C59060   1.901   3.078   4.151  0.5589  0.3391  0.0411
  438MOL0     C59061   2.019   3.014   4.192 -0.1166 -0.7398  0.1304
  438MOL0     C59062   2.151   3.065   4.132 -0.1282  0.1651 -0.2662
  438MOL0     H59063   2.259   2.923   4.719 -0.2844  0.7933 -1.5640
  438MOL0     H59064   2.491   2.860   4.801 -0.7318 -2.2510 -0.4917
  438MOL0     H59065   2.751   2.618   4.711  0.6819 -0.1328 -0.4622
  438MOL0     H59066   2.670   2.629   4.551 -2.4558  2.9685 -0.7847
  438MOL0     H59067   2.962   2.713   4.611  0.3232 -1.6476 -0.2997
  438MOL0     H59068   2.869   2.752   4.473  3.9797  0.8809 -1.0753
  438MOL0     H59069   2.968   2.561   4.393  2.0872 -1.7174  1.0145
  438MOL0     H59070   2.817   2.496   4.462  0.7373 -2.0588 -1.1456
  438MOL0     H59071   2.966   2.475   4.681 -0.8562  1.6753 -0.5409
  438MOL0     H59072   2.995   2.353   4.551 -0.8217 -0.4878  0.5543
  438MOL0     H59073   3.196   2.470   4.486  0.7959  0.7425 -0.3977
  438MOL0     H59074   3.165   2.588   4.620  0.3013 -0.0138 -0.1178
  438MOL0     H59075   3.188   2.405   4.777  0.0645 -1.5588  0.8344
  438MOL0     H59076   3.164   2.279   4.664 -2.3899  2.7051  0.0448
  438MOL0     H59077   3.419   2.444   4.713  1.4384 -1.5736  1.7288
  438MOL0     H59078   3.383   2.406   4.544 -0.2319  1.3417  1.0047
  438MOL0     H59079   3.383   2.226   4.789 -0.3699 -0.7989 -0.7518
  438MOL0     H59080   3.390   2.160   4.621  0.3312  1.5910 -2.1011
  438MOL0     H59081   3.619   2.313   4.496 -1.6445  0.4312  0.9424
  438MOL0     H59082   3.934   2.259   4.507 -0.1605 -2.3589  3.7904
  438MOL0     H59083   3.866   2.415   4.483  0.0548  0.1281 -0.4534
  438MOL0     H59084   4.049   2.489   4.596 -3.7881  1.0665 -1.7141
  438MOL0     H59085   3.943   2.469   4.736 -0.7754  0.7129  0.4134
  438MOL0     H59086   4.042   2.244   4.788 -1.6567 -1.2278 -2.0313
  438MOL0     H59087   4.161   2.375   4.799  0.6383 -0.3602 -0.9577
  438MOL0     H59088   4.126   2.151   4.611 -0.5411  2.5577 -4.0468
  438MOL0     H59089   4.264   2.185   4.716 -0.0627 -0.6162 -0.1339
  438MOL0     H59090   4.334   2.563   4.538  0.1375  0.3636 -0.0756
  438MOL0     H59091   4.555   2.622   4.562 -1.4129  0.5812 -0.3286
  438MOL0     H59092   5.010   2.583   4.721 -2.7396 -3.4331  0.8568
  438MOL0     H59093   5.251   2.606   4.731 -0.2643 -0.7983  1.3866
  438MOL0     H59094   5.462   2.505   4.816 -1.2871 -1.0566  0.5941
  438MOL0     H59095   5.439   2.335   4.852 -0.9182 -1.3125 -1.0020
  438MOL0     H59096   5.677   2.362   4.876  2.7051  4.0283  0.4090
  438MOL0     H59097   5.680   2.316   4.710 -0.9907  0.1503 -1.0835
  438MOL0     H59098   5.725   2.516   4.630 -0.0388 -0.9733  0.7028
  438MOL0     H59099   5.641   2.609   4.761  2.5160  1.9491  1.5492
  438MOL0     H59100   5.894   2.444   4.785  0.5640  0.7671 -0.6707
  438MOL0     H59101   5.837   2.555   4.915  2.3870  0.7057 -0.1882
  438MOL0     H59102   5.876   2.750   4.784  1.8239  1.0015  1.8627
  438MOL0     H59103   5.937   2.642   4.651 -2.5548 -2.2466  0.3625
  438MOL0     H59104   6.043   2.660   4.930 -0.5080 -0.2886 -0.8731
  438MOL0     H59105   6.116   2.566   4.789 -0.0466 -1.5973  2.1823
  438MOL0     H59106   6.067   2.864   4.775  0.3560  0.6183  0.7618
  438MOL0     H59107   6.175   2.793   4.679  4.8179  2.0033  1.8325
  438MOL0     H59108   6.281   2.927   4.815 -0.6964  0.3741 -0.8311
  438MOL0     H59109   6.224   2.860   4.967 -0.8779  1.0202 -0.7100
  438MOL0     H59110   5.286   2.217   4.520 -2.1482 -0.8173 -2.6740
  438MOL0     H59111   5.048   2.213   4.514 -1.5333  0.1919  2.9283
  438MOL0     H59112   4.688   2.224   4.593 -0.0274 -0.2007 -1.3410
  438MOL0     H59113   4.457   2.148   4.563  1.5485 -1.3100  0.8678
  438MOL0     H59114   2.621   2.825   4.398 -1.0938 -3.4092 -1.3408
  438MOL0     H59115   2.399   2.868   4.320  0.3565 -0.0740  0.6380
  438MOL0     H59116   1.903   2.816   4.435 -0.9932  1.7153  1.6437
  438MOL0     H59117   1.695   2.901   4.359 -0.9589 -0.2070 -2.6111
  438MOL0     H59118   1.717   3.221   4.034 -0.3457  1.4100 -0.0888
  438MOL0     H59119   1.556   3.255   4.116  0.3812  1.0613  0.9593
  438MOL0     H59120   1.482   3.035   3.988 -1.3873  0.2625 -0.8197
  438MOL0     H59121   1.650   3.013   3.935 -3.6126 -4.1695  0.9388
  438MOL0     H59122   1.536   3.107   3.746 -1.7961  0.9572 -1.4592
  438MOL0     H59123   1.615   3.248   3.815  1.6650 -2.0447  0.4674
  438MOL0     H59124   1.327   3.178   3.843  1.5503 -0.4492  0.6375
  438MOL0     H59125   1.406   3.297   3.949  0.1194 -3.5285  1.9227
  438MOL0     H59126   1.329   3.504   3.594 -1.3080 -2.2422 -0.7492
  438MOL0     H59127   1.906   3.145   4.066  1.2897 -3.0128 -2.7705
  438MOL0     H59128   2.162   3.173   4.136 -0.6694  0.1911  0.8885
  438MOL0     H59129   2.234   3.021   4.188 -0.6851 -1.3024 -0.5304
  438MOL0     H59130   2.156   3.037   4.026  1.0010 -2.5470  0.3970
  439MOL0     O59131  11.285   7.885   6.126  0.6998  0.3736  0.4243
  439MOL0     C59132  11.345   7.989   6.149  0.1974 -0.4238  0.2817
  439MOL0     O59133  11.305   8.089   6.231  0.0147  0.1080  0.0835
  439MOL0     C59134  11.173   8.099   6.253 -0.5101  0.1006 -0.2773
  439MOL0     C59135  11.105   8.211   6.206  0.2098 -0.7390  0.4004
  439MOL0     C59136  10.965   8.229   6.212  1.1280  1.2132 -0.2203
  439MOL0     C59137  10.887   8.127   6.273  0.2850 -0.3899 -0.9574
  439MOL0     O59138  10.748   8.139   6.291 -0.0653 -0.2282  0.5747
  439MOL0     C59139  10.678   8.085   6.402 -0.4203 -0.0943  0.1680
  439MOL0     C59140  10.536   8.100   6.405  0.8792  0.5654  0.3719
  439MOL0     C59141  10.491   8.247   6.403 -0.0041 -0.0449 -0.1631
  439MOL0     C59142  10.336   8.259   6.399 -1.3061 -0.3749  0.7365
  439MOL0     C59143  10.279   8.181   6.520  0.3723  1.1475 -0.3485
  439MOL0     C59144  10.140   8.238   6.563  0.5660 -0.5845  0.0454
  439MOL0     C59145  10.100   8.128   6.666 -1.2628  0.3701  0.1421
  439MOL0     C59146   9.964   8.144   6.734  0.2042 -0.1312  0.7029
  439MOL0     N59147   9.855   8.097   6.650 -0.1575  0.0112  0.4344
  439MOL0     C59148   9.837   7.973   6.609 -0.5519  0.7264 -1.0986
  439MOL0     C59149   9.724   7.971   6.546  0.3783 -0.4342 -0.6829
  439MOL0     C59150   9.660   7.854   6.475  0.1236  0.2698  0.8913
  439MOL0     C59151   9.509   7.845   6.498 -0.1174 -0.2704  0.3945
  439MOL0     C59152   9.430   7.724   6.450 -0.7724  0.2593 -0.1181
  439MOL0     C59153   9.456   7.685   6.306 -1.0197 -0.5203 -0.9149
  439MOL0     O59154   9.391   7.558   6.285  0.6777  0.4127 -0.1377
  439MOL0     C59155   9.250   7.545   6.287 -0.1655 -1.0321  0.9319
  439MOL0     C59156   9.172   7.650   6.241  0.1644 -0.1814 -0.3202
  439MOL0     C59157   9.035   7.623   6.224 -0.6251 -0.2778 -0.0706
  439MOL0     C59158   8.979   7.498   6.259  0.3410  0.6077 -0.6426
  439MOL0     C59159   8.837   7.472   6.250 -0.6893  0.1819  0.0952
  439MOL0     O59160   8.799   7.336   6.260 -0.1228 -0.1508  0.2299
  439MOL0     C59161   8.667   7.306   6.258  1.2641  1.1475  0.2338
  439MOL0     C59162   8.569   7.381   6.332  0.6345 -0.2091 -0.2964
  439MOL0     C59163   8.441   7.335   6.341 -0.4714 -0.1334  0.3512
  439MOL0     C59164   8.396   7.231   6.263  0.4037 -0.0391  0.8126
  439MOL0     O59165   8.262   7.202   6.278 -0.1072  0.2488 -0.5881
  439MOL0     C59166   8.197   7.125   6.176  0.2694 -0.9779 -0.1651
  439MOL0     C59167   8.047   7.119   6.216 -0.2817  0.6180 -0.5182
  439MOL0     C59168   7.967   7.020   6.135  0.1410  0.2555  0.4768
  439MOL0     C59169   7.827   7.029   6.208 -0.1095  0.4474 -0.5688
  439MOL0     C59170   7.721   6.959   6.125  0.2384 -0.3178  0.3450
  439MOL0     C59171   7.602   6.923   6.220  0.2705  0.2132  0.1956
  439MOL0     C59172   7.506   7.037   6.222  0.8402 -0.6251 -0.5196
  439MOL0     C59173   7.392   7.008   6.324 -0.9097  0.4488 -0.0651
  439MOL0    Cl59174   7.264   7.137   6.310  0.1507 -0.0361 -0.0675
  439MOL0     C59175   8.494   7.157   6.198  0.8202 -0.1726  0.0548
  439MOL0     C59176   8.625   7.184   6.207  0.0935 -0.0446 -0.2831
  439MOL0     O59177   8.763   7.560   6.217 -0.4417  0.6248  0.1091
  439MOL0     C59178   9.062   7.396   6.308 -0.2447  0.4064 -0.3188
  439MOL0     C59179   9.199   7.419   6.318  0.2707 -0.4296  0.2653
  439MOL0     N59180   9.658   8.093   6.553 -0.9635  0.0974  0.2730
  439MOL0     N59181   9.745   8.169   6.614 -0.2677 -0.4085 -0.7940
  439MOL0     C59182  10.955   8.017   6.330 -0.2724  0.2530  0.6538
  439MOL0     C59183  11.094   8.004   6.319 -0.2052 -0.0461 -0.4107
  439MOL0     C59184  11.489   7.986   6.108  0.4484  0.4677 -0.2574
  439MOL0     C59185  11.586   8.034   6.196 -0.4279  0.7237 -0.4978
  439MOL0     C59186  11.720   8.007   6.179  0.4439 -0.0676 -0.0862
  439MOL0     C59187  11.771   7.943   6.066  0.0320 -0.4767 -0.6619
  439MOL0     O59188  11.901   7.924   6.035 -0.5779 -0.2537  0.2798
  439MOL0     C59189  11.995   7.966   6.132 -0.7670  0.2412  0.5074
  439MOL0     C59190  12.145   7.945   6.104  0.1192 -0.7504  0.5684
  439MOL0     C59191  12.185   8.051   5.993 -0.0575  0.6929 -0.4445
  439MOL0     C59192  12.143   8.027   5.845  0.1833 -0.0284  0.2526
  439MOL0     C59193  12.191   8.143   5.774 -0.8091 -0.2151  0.3193
  439MOL0     C59194  12.240   8.235   5.707  0.1305 -0.7128 -0.0325
  439MOL0     C59195  11.675   7.884   5.982 -0.6189 -0.1871  0.8439
  439MOL0     C59196  11.537   7.905   5.999 -0.0870  0.1844  0.0041
  439MOL0     C59197  11.457   7.833   5.885 -0.1490 -0.9035 -0.5746
  439MOL0     H59198  11.173   8.280   6.157  0.7830 -0.8167  1.0742
  439MOL0     H59199  10.924   8.319   6.166 -1.0454  1.3694  1.8813
  439MOL0     H59200  10.703   7.979   6.415  0.1300  0.1304  1.0076
  439MOL0     H59201  10.712   8.136   6.493  1.4614 -3.0843  1.2731
  439MOL0     H59202  10.484   8.039   6.480 -0.4650  0.5012 -0.5729
  439MOL0     H59203  10.485   8.058   6.318 -3.4393  0.0054  2.8568
  439MOL0     H59204  10.535   8.297   6.316 -1.9817 -0.5961 -1.5483
  439MOL0     H59205  10.536   8.293   6.492 -0.4353  1.2166 -0.5680
  439MOL0     H59206  10.301   8.362   6.400  0.0465  0.2391 -2.8283
  439MOL0     H59207  10.304   8.212   6.306  0.2860 -3.1229  1.4368
  439MOL0     H59208  10.264   8.074   6.499 -0.6988  1.1828  0.1309
  439MOL0     H59209  10.341   8.183   6.611 -2.1354 -0.9499  1.5851
  439MOL0     H59210  10.153   8.334   6.614  3.9790 -2.2062  2.5549
  439MOL0     H59211  10.065   8.251   6.484  0.2708 -1.9156  0.0732
  439MOL0     H59212  10.170   8.123   6.750 -1.0283 -3.1494 -0.1391
  439MOL0     H59213  10.093   8.029   6.621  0.0691 -0.1283  0.9532
  439MOL0     H59214   9.967   8.076   6.820 -0.8097 -1.7466 -0.4884
  439MOL0     H59215   9.951   8.245   6.774 -0.2535 -0.5246  1.5885
  439MOL0     H59216   9.905   7.891   6.630 -2.3228 -0.4446  0.4209
  439MOL0     H59217   9.679   7.851   6.367 -0.8373 -0.5703  0.7337
  439MOL0     H59218   9.714   7.763   6.502  0.3037  0.2501  0.4804
  439MOL0     H59219   9.495   7.854   6.606  2.1259  0.0076  0.7037
  439MOL0     H59220   9.476   7.936   6.447 -0.9443 -2.1742 -2.7410
  439MOL0     H59221   9.325   7.751   6.467 -0.2672  1.1363  1.9405
  439MOL0     H59222   9.456   7.639   6.515 -2.9685  0.9219  1.7764
  439MOL0     H59223   9.564   7.672   6.294 -1.1864 -1.2148 -1.7303
  439MOL0     H59224   9.417   7.757   6.233 -1.6932  0.6394  0.5400
  439MOL0     H59225   9.210   7.747   6.212  0.8890 -0.1685  0.6133
  439MOL0     H59226   8.989   7.702   6.166  0.2818  1.2414  1.2035
  439MOL0     H59227   8.600   7.470   6.386  0.5120 -1.0114  1.1575
  439MOL0     H59228   8.375   7.382   6.413  0.4607 -1.2674  1.9992
  439MOL0     H59229   8.216   7.182   6.085  2.7433  1.5321  1.7313
  439MOL0     H59230   8.247   7.028   6.173  2.4648 -0.1618  3.3616
  439MOL0     H59231   8.050   7.089   6.321  2.1818  1.7402 -0.1966
  439MOL0     H59232   8.003   7.219   6.218 -4.6315 -0.7763  5.8002
  439MOL0     H59233   7.961   7.063   6.034  0.1874  0.8457  0.7218
  439MOL0     H59234   8.010   6.920   6.138 -2.3959 -1.0950 -2.1326
  439MOL0     H59235   7.791   7.130   6.228  0.6790  0.9781 -1.7516
  439MOL0     H59236   7.842   6.980   6.305  2.9728  1.7830 -0.2653
  439MOL0     H59237   7.764   6.861   6.101 -3.5617 -2.0310 -0.2652
  439MOL0     H59238   7.685   7.007   6.034 -1.7369  0.1676  1.3105
  439MOL0     H59239   7.549   6.833   6.186  2.9712 -0.7325 -1.8067
  439MOL0     H59240   7.640   6.899   6.320  3.6716 -3.4696 -1.7268
  439MOL0     H59241   7.462   7.041   6.122  2.3128  0.4860 -1.1643
  439MOL0     H59242   7.566   7.124   6.251 -1.3014  0.5872  0.5338
  439MOL0     H59243   7.361   6.907   6.296  0.8186 -0.7367  1.9614
  439MOL0     H59244   7.425   6.998   6.428  0.2640 -0.3887 -0.4973
  439MOL0     H59245   8.452   7.074   6.142 -1.7867  0.1956  1.3057
  439MOL0     H59246   8.696   7.124   6.151  0.2865  1.8397 -2.2120
  439MOL0     H59247   9.035   7.293   6.328 -0.0138  0.3262 -0.4146
  439MOL0     H59248   9.266   7.339   6.344  0.9487  0.5148  1.5664
  439MOL0     H59249  10.903   7.931   6.371 -2.0881 -0.0362 -2.0579
  439MOL0     H59250  11.146   7.918   6.360 -0.4818  0.2168  0.5339
  439MOL0     H59251  11.563   8.093   6.285 -0.8576  0.1191 -0.2071
  439MOL0     H59252  11.794   8.048   6.247  0.0654  0.3439  0.0866
  439MOL0     H59253  11.985   7.910   6.225  1.6340 -2.1389 -0.5116
  439MOL0     H59254  11.981   8.073   6.144  0.3302  0.9216 -3.0987
  439MOL0     H59255  12.165   7.852   6.051  0.0123  0.4048 -1.6210
  439MOL0     H59256  12.202   7.967   6.195  1.2082  1.0730 -0.4870
  439MOL0     H59257  12.295   8.053   5.989 -0.0834  3.1295 -1.5657
  439MOL0     H59258  12.153   8.149   6.028  3.1593  1.3839  0.8860
  439MOL0     H59259  12.180   7.936   5.799  1.2119  0.0707  0.8483
  439MOL0     H59260  12.033   8.022   5.848  0.1816 -0.8324  4.5098
  439MOL0     H59261  12.281   8.301   5.634 -0.7967 -0.5821 -0.4476
  439MOL0     H59262  11.721   7.827   5.902  2.7717  1.7535  1.2156
  439MOL0     H59263  11.424   7.731   5.909 -2.9372 -0.1302 -0.6662
  439MOL0     H59264  11.369   7.886   5.847  0.1077 -1.2100 -1.6086
  439MOL0     H59265  11.522   7.819   5.799  0.0713 -2.1356 -0.2239
  440MOL0     O59266   7.740   8.960   0.865  0.6904  0.3823 -0.1688
  440MOL0     C59267   7.644   8.930   0.794  0.3168 -0.0116  0.6527
  440MOL0     O59268   7.644   8.849   0.690  0.7650 -0.1586  0.2840
  440MOL0     C59269   7.764   8.793   0.649  0.6294 -0.0506  0.5980
  440MOL0     C59270   7.751   8.660   0.625 -1.1811  0.0373  0.3355
  440MOL0     C59271   7.870   8.593   0.577 -0.3985 -0.3996  0.8400
  440MOL0     C59272   7.996   8.659   0.582  0.2306  0.7590  0.1997
  440MOL0     O59273   8.105   8.573   0.571 -0.6140 -0.0330  1.2068
  440MOL0     C59274   8.214   8.611   0.647  0.1436 -0.1933 -0.4542
  440MOL0     C59275   8.339   8.541   0.600 -0.2172 -0.4297 -0.1693
  440MOL0     C59276   8.442   8.561   0.714 -0.1384  0.8780  1.2326
  440MOL0     C59277   8.581   8.585   0.655  0.1901  0.5718 -0.0807
  440MOL0     C59278   8.636   8.476   0.565  0.1301  0.1496 -0.1153
  440MOL0     C59279   8.613   8.501   0.411 -0.4278  1.0007  0.7173
  440MOL0     C59280   8.710   8.429   0.314 -0.1046  0.3092 -1.3585
  440MOL0     C59281   8.720   8.280   0.362  0.5831 -0.5688 -0.0842
  440MOL0     N59282   8.810   8.204   0.268 -0.3728  0.5190 -0.9983
  440MOL0     C59283   8.759   8.124   0.166  0.4932  0.1390  0.8740
  440MOL0     C59284   8.870   8.080   0.103  0.4528 -0.2319 -0.7915
  440MOL0     C59285   8.864   8.005  -0.023  0.6644  0.2356  0.9016
  440MOL0     C59286   8.797   8.071  -0.138  0.2183 -0.0723 -0.8532
  440MOL0     C59287   8.869   8.198  -0.177 -0.0193 -0.4592  0.2162
  440MOL0     C59288   9.018   8.191  -0.221 -0.2772  0.3985 -0.5779
  440MOL0     O59289   9.030   8.115  -0.337  0.2503 -0.6045  0.1123
  440MOL0     C59290   9.122   8.163  -0.431 -0.1667  0.3542  0.8867
  440MOL0     C59291   9.234   8.089  -0.460  0.8033  0.6538  0.0249
  440MOL0     C59292   9.343   8.134  -0.537 -0.3802 -0.1606  0.5092
  440MOL0     C59293   9.332   8.261  -0.596 -0.4059  0.1441  0.1409
  440MOL0     C59294   9.450   8.336  -0.667  0.4161 -0.0493  0.1548
  440MOL0     O59295   9.576   8.286  -0.639 -0.8019  0.2775 -0.2111
  440MOL0     C59296   9.677   8.342  -0.708 -0.5042  1.1919  0.1340
  440MOL0     C59297   9.720   8.300  -0.836  0.8663  0.1345 -0.3982
  440MOL0     C59298   9.821   8.349  -0.907  0.8170 -0.9600 -0.1435
  440MOL0     C59299   9.902   8.443  -0.844  0.0813  1.2438 -0.2907
  440MOL0     O59300  10.005   8.502  -0.912  0.4433 -0.1592 -0.0712
  440MOL0     C59301  10.135   8.477  -0.861 -0.1776 -0.2022  0.9795
  440MOL0     C59302  10.243   8.510  -0.969  0.4289 -0.3766 -0.4080
  440MOL0     C59303  10.392   8.500  -0.927 -0.2539  0.0717  0.0258
  440MOL0     C59304  10.483   8.523  -1.052  0.4948 -0.1317  0.1595
  440MOL0     C59305  10.624   8.497  -1.007  1.0618  0.4335  0.2620
  440MOL0     C59306  10.736   8.545  -1.100 -0.5394  0.1153 -0.0382
  440MOL0     C59307  10.745   8.702  -1.103  0.0667 -0.0061  0.3484
  440MOL0     C59308  10.889   8.756  -1.117  0.2497 -0.4477 -0.1399
  440MOL0    Cl59309  10.989   8.689  -1.257  0.0149 -0.0665  0.2687
  440MOL0     C59310   9.874   8.488  -0.712  0.2062  0.6374  1.0153
  440MOL0     C59311   9.760   8.439  -0.645  0.5131  0.9926  0.7586
  440MOL0     O59312   9.417   8.434  -0.739 -0.5228 -0.3054 -0.0532
  440MOL0     C59313   9.211   8.327  -0.581  0.1764 -0.8537 -0.8827
  440MOL0     C59314   9.110   8.282  -0.497 -0.1748  0.2613  0.5005
  440MOL0     N59315   8.985   8.138   0.156  0.3535 -0.5394 -0.1391
  440MOL0     N59316   8.948   8.211   0.262  1.1048  0.2115  0.5232
  440MOL0     C59317   7.996   8.799   0.592 -0.2375 -1.1586  0.3016
  440MOL0     C59318   7.883   8.872   0.622  0.9289  0.3650 -0.4755
  440MOL0     C59319   7.523   9.005   0.816  0.5290  0.0532 -0.1207
  440MOL0     C59320   7.459   8.965   0.928 -0.0961 -0.0730  0.0767
  440MOL0     C59321   7.332   9.027   0.961 -0.6643  0.5742 -0.1322
  440MOL0     C59322   7.276   9.116   0.867  0.0493 -0.7803  0.3407
  440MOL0     O59323   7.151   9.163   0.892 -0.4205 -0.5520  0.0727
  440MOL0     C59324   7.044   9.201   0.797  0.3312 -0.7722  0.2384
  440MOL0     C59325   6.905   9.210   0.870  0.2176  0.0517 -0.1817
  440MOL0     C59326   6.889   9.307   0.994 -0.0369  0.6519 -1.3452
  440MOL0     C59327   6.965   9.261   1.126  0.9198 -0.1600  1.1113
  440MOL0     C59328   6.915   9.334   1.246  0.2634  0.4228  0.5431
  440MOL0     C59329   6.872   9.385   1.347  0.0805 -0.0119  0.5028
  440MOL0     C59330   7.346   9.148   0.747 -0.0696 -1.0837 -0.3645
  440MOL0     C59331   7.469   9.094   0.725  0.9840 -0.1472 -0.1892
  440MOL0     C59332   7.538   9.121   0.600 -0.4044 -0.5388 -0.5872
  440MOL0     H59333   7.652   8.615   0.628 -0.7886 -1.1995 -2.1684
  440MOL0     H59334   7.875   8.485   0.561 -2.5661 -0.7857  2.3237
  440MOL0     H59335   8.237   8.718   0.636  1.5029 -0.6130 -2.3183
  440MOL0     H59336   8.190   8.592   0.752  3.9313  0.8973  0.8068
  440MOL0     H59337   8.372   8.597   0.512  2.3603 -1.6949 -0.0831
  440MOL0     H59338   8.324   8.436   0.573 -0.0555 -0.8127  1.1637
  440MOL0     H59339   8.441   8.468   0.771 -2.3607 -0.7688 -1.2335
  440MOL0     H59340   8.420   8.643   0.782 -0.9573  0.8834  0.9684
  440MOL0     H59341   8.578   8.684   0.609 -2.2503  0.5690 -0.0920
  440MOL0     H59342   8.652   8.600   0.737  1.3363  0.2211 -0.9825
  440MOL0     H59343   8.743   8.462   0.581  0.4882  0.1493 -2.1852
  440MOL0     H59344   8.593   8.380   0.598  0.2059 -0.0501 -0.5848
  440MOL0     H59345   8.513   8.467   0.382 -0.9456  0.1783  3.2399
  440MOL0     H59346   8.607   8.608   0.390  1.2701  1.0495  0.3354
  440MOL0     H59347   8.804   8.485   0.318  0.4522 -0.5857 -1.6321
  440MOL0     H59348   8.676   8.425   0.210  3.5563 -2.2334 -2.7003
  440MOL0     H59349   8.769   8.278   0.460 -0.9688  0.5291  0.7665
  440MOL0     H59350   8.630   8.221   0.379  2.5748 -3.6385  0.4818
  440MOL0     H59351   8.656   8.098   0.147 -0.1838  3.7000 -1.2558
  440MOL0     H59352   8.961   7.973  -0.063 -1.1349 -2.5654 -1.7508
  440MOL0     H59353   8.805   7.918   0.008 -0.7815  1.3277  1.3210
  440MOL0     H59354   8.785   7.999  -0.219 -1.0697  0.5650 -1.2556
  440MOL0     H59355   8.695   8.102  -0.112  0.7219  1.2124 -0.3152
  440MOL0     H59356   8.852   8.274  -0.101  1.0372  1.2854 -1.2239
  440MOL0     H59357   8.822   8.243  -0.265 -1.5776  1.5163  1.9496
  440MOL0     H59358   9.084   8.139  -0.150  2.2109  3.8439 -0.1005
  440MOL0     H59359   9.066   8.289  -0.233  1.0852  0.3633  3.0863
  440MOL0     H59360   9.243   7.994  -0.409 -0.2825  1.0393  0.9669
  440MOL0     H59361   9.437   8.082  -0.549  0.2373  1.1417 -0.6840
  440MOL0     H59362   9.641   8.242  -0.884 -0.2179  2.2575 -1.3046
  440MOL0     H59363   9.844   8.320  -1.009 -3.3115 -0.6543 -1.3382
  440MOL0     H59364  10.154   8.523  -0.764 -1.0160 -2.5222  2.3358
  440MOL0     H59365  10.150   8.369  -0.850  0.9538 -0.3561 -1.5548
  440MOL0     H59366  10.223   8.452  -1.059 -1.0108 -1.4638  0.5718
  440MOL0     H59367  10.223   8.615  -0.994 -2.1482 -0.7841 -0.2959
  440MOL0     H59368  10.429   8.565  -0.848 -1.3273 -0.2337  0.8124
  440MOL0     H59369  10.396   8.394  -0.898 -2.5550  0.1066  0.6628
  440MOL0     H59370  10.469   8.628  -1.079 -2.6753 -0.3640  0.4828
  440MOL0     H59371  10.443   8.449  -1.122  0.4826 -0.3962  0.4448
  440MOL0     H59372  10.626   8.388  -1.007 -2.6736  0.2546 -0.5882
  440MOL0     H59373  10.631   8.542  -0.907 -2.1027  0.3774  0.6033
  440MOL0     H59374  10.829   8.518  -1.048 -0.9616  1.0358  1.2629
  440MOL0     H59375  10.735   8.490  -1.194 -1.1730 -1.1364  0.6799
  440MOL0     H59376  10.703   8.751  -1.015 -0.0785 -1.2407  0.9846
  440MOL0     H59377  10.707   8.738  -1.200  1.1789 -0.7308 -0.3873
  440MOL0     H59378  10.888   8.865  -1.126  1.3750  0.0487  3.9535
  440MOL0     H59379  10.952   8.746  -1.029  3.5619 -1.0530 -2.3944
  440MOL0     H59380   9.933   8.569  -0.671  1.3057  0.5982 -0.3933
  440MOL0     H59381   9.730   8.486  -0.552 -0.5991  4.2214 -1.0606
  440MOL0     H59382   9.196   8.418  -0.638 -2.5147 -0.5472  0.1647
  440MOL0     H59383   9.026   8.351  -0.495  0.0211  0.5560  3.8120
  440MOL0     H59384   8.090   8.854   0.589 -1.3573  0.8500 -0.8646
  440MOL0     H59385   7.880   8.981   0.626  0.3604  0.3160  1.3305
  440MOL0     H59386   7.516   8.908   1.000  3.3516 -0.0608 -2.4008
  440MOL0     H59387   7.273   8.990   1.044  0.4010 -0.7449  0.0617
  440MOL0     H59388   7.030   9.134   0.712 -2.5521  0.7704 -0.6295
  440MOL0     H59389   7.066   9.300   0.756 -1.5734 -0.6047 -0.4546
  440MOL0     H59390   6.877   9.107   0.893  2.6291 -0.5418  0.3352
  440MOL0     H59391   6.832   9.247   0.797  0.2840  1.6277  0.4967
  440MOL0     H59392   6.782   9.305   1.016  0.1594 -1.0919 -0.3490
  440MOL0     H59393   6.921   9.409   0.971 -1.7701  2.0916  1.8712
  440MOL0     H59394   6.951   9.154   1.146  1.9440 -0.2202  1.5972
  440MOL0     H59395   7.071   9.277   1.105  0.8808 -2.4555 -1.3323
  440MOL0     H59396   6.831   9.434   1.434  1.8777 -1.0220  2.0074
  440MOL0     H59397   7.295   9.222   0.687 -3.6420 -0.7403  2.7454
  440MOL0     H59398   7.646   9.134   0.615 -0.6586 -0.6020  1.7544
  440MOL0     H59399   7.520   9.032   0.539  0.5207 -1.7173  0.7833
  440MOL0     H59400   7.506   9.210   0.545 -0.6588  1.2545  2.2718
  441MOL0     O59401   0.265   0.933  10.073  0.3047 -0.3106  0.1270
  441MOL0     C59402   0.215   0.820  10.052 -0.9686 -0.0504  0.2971
  441MOL0     O59403   0.283   0.703  10.062 -0.1187 -0.2026 -0.1301
  441MOL0     C59404   0.416   0.699  10.099  0.2047  0.0136 -0.4750
  441MOL0     C59405   0.516   0.648  10.020 -0.1254 -0.8979  0.2661
  441MOL0     C59406   0.654   0.654  10.061  0.7095 -0.1633 -0.2286
  441MOL0     C59407   0.689   0.721  10.180  0.2152  0.5758  0.5141
  441MOL0     O59408   0.822   0.713  10.219 -0.6324  1.1150 -0.3922
  441MOL0     C59409   0.864   0.715  10.358 -0.6088 -0.2849 -0.3666
  441MOL0     C59410   0.859   0.572  10.409 -0.1847 -0.8440  0.0065
  441MOL0     C59411   0.872   0.556  10.566 -0.5751  0.1545  0.0230
  441MOL0     C59412   0.876   0.406  10.606 -0.8598  0.6880  0.1873
  441MOL0     C59413   0.846   0.385  10.759 -0.3631 -0.7737  0.3751
  441MOL0     C59414   0.960   0.432  10.849 -0.5561 -0.4551  0.5845
  441MOL0     C59415   0.949   0.409  10.996 -0.2754 -0.0339  0.6247
  441MOL0     C59416   1.080   0.412  11.076  0.4434 -0.0646  0.4954
  441MOL0     N59417   1.048   0.404  11.219  0.1062 -0.1640  0.1989
  441MOL0     C59418   1.078   0.292  11.299  0.4079 -0.1226  0.1000
  441MOL0     C59419   1.076   0.337  11.426 -0.3455 -0.5796 -0.6636
  441MOL0     C59420   1.104   0.255  11.547 -0.0982  0.4007 -0.7281
  441MOL0     C59421   1.173   0.331  11.662 -0.4700  0.0121  0.4135
  441MOL0     C59422   1.281   0.435  11.622 -0.1945  0.2984 -0.4227
  441MOL0     C59423   1.399   0.359  11.573 -0.3735  0.3097 -0.4144
  441MOL0     O59424   1.514   0.436  11.588 -0.4385 -0.7214  0.1198
  441MOL0     C59425   1.638   0.390  11.550 -0.0070  0.5753 -0.4245
  441MOL0     C59426   1.745   0.479  11.551  0.3717  0.3784 -0.6730
  441MOL0     C59427   1.878   0.445  11.532  0.5449 -0.3601 -1.0877
  441MOL0     C59428   1.900   0.313  11.497 -1.3492  0.7673  0.3340
  441MOL0     C59429   2.037   0.256  11.490  1.6005 -0.5767  0.0170
  441MOL0     O59430   2.131   0.332  11.546  0.5097  0.5147 -0.2755
  441MOL0     C59431   2.258   0.283  11.546 -0.1902  0.8586 -0.4268
  441MOL0     C59432   2.347   0.357  11.482  0.4316 -0.0416  0.4681
  441MOL0     C59433   2.477   0.309  11.470  0.2282 -0.0095 -0.2223
  441MOL0     C59434   2.521   0.183  11.516 -0.8888  0.4654  0.0848
  441MOL0     O59435   2.653   0.165  11.520  0.1793  0.1049 -0.4977
  441MOL0     C59436   2.698   0.036  11.499  0.4837  0.5530 -0.4767
  441MOL0     C59437   2.848   0.027  11.520 -0.4174 -0.5715 -0.0740
  441MOL0     C59438   2.895  -0.119  11.534  0.5798 -0.0815  0.1626
  441MOL0     C59439   3.040  -0.134  11.573  0.2297  0.1922  0.3650
  441MOL0     C59440   3.127  -0.116  11.454 -0.4538 -0.2452 -0.0471
  441MOL0     C59441   3.268  -0.128  11.499  0.0815 -0.9732 -0.5528
  441MOL0     C59442   3.363  -0.162  11.389 -0.3498 -0.3098  0.0853
  441MOL0     C59443   3.511  -0.163  11.430  0.1503  0.8374 -0.1096
  441MOL0    Cl59444   3.591  -0.224  11.290 -0.1945 -0.1941 -0.2346
  441MOL0     C59445   2.423   0.100  11.577  0.1443  0.3576  0.3325
  441MOL0     C59446   2.293   0.152  11.587  0.5030 -0.2269  0.8067
  441MOL0     O59447   2.053   0.146  11.444  0.3862  0.0606 -0.2776
  441MOL0     C59448   1.794   0.220  11.481  0.7215  0.3511 -0.3152
  441MOL0     C59449   1.666   0.258  11.513  0.3353  0.4738  0.2921
  441MOL0     N59450   1.034   0.472  11.423 -0.0234 -0.0195 -0.1592
  441MOL0     N59451   1.014   0.508  11.297 -0.1846  0.1844  0.3196
  441MOL0     C59452   0.587   0.763  10.265  0.0259  0.4278 -0.0862
  441MOL0     C59453   0.457   0.756  10.219  0.2751 -0.2749  0.4609
  441MOL0     C59454   0.077   0.820  10.001  0.5033 -0.2163 -0.4068
  441MOL0     C59455   0.003   0.699  10.023 -0.5036  0.4076  0.0070
  441MOL0     C59456  -0.123   0.663   9.970 -0.0598 -0.1522 -0.5227
  441MOL0     C59457  -0.184   0.755   9.885 -0.5875 -0.3956 -0.0882
  441MOL0     O59458  -0.306   0.753   9.823  0.0757 -0.2530  0.4754
  441MOL0     C59459  -0.386   0.636   9.829  0.6413  0.0738  0.6885
  441MOL0     C59460  -0.453   0.628   9.974 -0.7190  0.3221 -0.6849
  441MOL0     C59461  -0.555   0.519   9.993 -0.0169  0.8936 -0.0618
  441MOL0     C59462  -0.655   0.502   9.871 -0.2662 -0.6673 -0.6818
  441MOL0     C59463  -0.780   0.453   9.923 -0.6788  0.7636  0.2951
  441MOL0     C59464  -0.887   0.418   9.949  0.1071  0.3078  1.2608
  441MOL0     C59465  -0.111   0.878   9.862 -0.8629 -0.4290  0.2696
  441MOL0     C59466   0.011   0.914   9.915 -0.3166  0.0010 -0.1348
  441MOL0     C59467   0.056   1.046   9.867 -0.0469 -1.0125  0.0366
  441MOL0     H59468   0.485   0.604   9.926  0.9340  0.3198 -0.6948
  441MOL0     H59469   0.725   0.616   9.989  1.1462  3.3276 -1.8388
  441MOL0     H59470   0.970   0.740  10.357 -0.9785  1.4659 -0.8042
  441MOL0     H59471   0.811   0.784  10.425 -1.1116 -1.5077  0.5215
  441MOL0     H59472   0.947   0.527  10.362  1.6963 -0.0539  2.5513
  441MOL0     H59473   0.768   0.524  10.372  0.6350 -1.2020 -1.6491
  441MOL0     H59474   0.777   0.589  10.609 -0.1469  0.2482  0.9108
  441MOL0     H59475   0.958   0.614  10.601 -0.0774  0.3658 -1.4752
  441MOL0     H59476   0.807   0.348  10.544 -0.8653  1.5888 -0.6835
  441MOL0     H59477   0.977   0.364  10.598  0.5685  3.2030  3.1482
  441MOL0     H59478   0.745   0.421  10.780 -0.8628  0.3728 -3.3892
  441MOL0     H59479   0.829   0.279  10.779  2.1348 -0.8065  3.1346
  441MOL0     H59480   1.051   0.382  10.814 -2.0481 -3.2849  0.4330
  441MOL0     H59481   0.961   0.541  10.850 -0.9396 -0.4489  1.4876
  441MOL0     H59482   0.910   0.308  11.011 -1.0510  0.1309 -0.2025
  441MOL0     H59483   0.875   0.480  11.034 -0.4856  0.6392 -0.9655
  441MOL0     H59484   1.133   0.320  11.047  0.7137  0.2396  0.0150
  441MOL0     H59485   1.142   0.490  11.032 -1.0160  0.0098 -1.5759
  441MOL0     H59486   1.105   0.192  11.266  2.9571  1.1695 -2.0632
  441MOL0     H59487   1.006   0.217  11.578  0.5466  0.1500  1.0762
  441MOL0     H59488   1.156   0.162  11.520  0.7621 -0.0449  2.1864
  441MOL0     H59489   1.094   0.384  11.716  1.4025  1.7537  1.5925
  441MOL0     H59490   1.207   0.258  11.737  0.5359 -0.3629 -0.3826
  441MOL0     H59491   1.310   0.478  11.719  0.5786 -2.8825  0.8942
  441MOL0     H59492   1.257   0.516  11.553 -2.8077 -0.4298 -0.4735
  441MOL0     H59493   1.383   0.332  11.469  4.5826 -1.4563 -0.9743
  441MOL0     H59494   1.398   0.273  11.640  0.9342  0.8245  0.3052
  441MOL0     H59495   1.716   0.581  11.572 -2.9795 -0.7595  0.8572
  441MOL0     H59496   1.957   0.512  11.562  0.6944 -1.7100  1.9878
  441MOL0     H59497   2.317   0.456  11.449 -0.0847  0.4488  2.2982
  441MOL0     H59498   2.555   0.369  11.425 -0.7682 -0.0274 -2.0621
  441MOL0     H59499   2.652  -0.032  11.572 -0.0478  2.1762  0.7741
  441MOL0     H59500   2.687  -0.003  11.398 -0.6871  0.9177 -0.5126
  441MOL0     H59501   2.893   0.065  11.428 -0.5238  0.3704  0.2519
  441MOL0     H59502   2.890   0.093  11.597  0.1611 -1.9210  0.7905
  441MOL0     H59503   2.828  -0.177  11.599 -1.1628  2.1550  0.4797
  441MOL0     H59504   2.884  -0.147  11.429  2.3841  1.5092 -0.5045
  441MOL0     H59505   3.049  -0.237  11.608 -0.8453 -0.3676 -0.9070
  441MOL0     H59506   3.074  -0.064  11.650  1.6819  0.0134 -0.0930
  441MOL0     H59507   3.104  -0.017  11.413 -1.2986 -0.9566 -1.3671
  441MOL0     H59508   3.099  -0.198  11.387 -0.2467  0.1176 -0.5893
  441MOL0     H59509   3.300  -0.035  11.547 -2.0857 -1.3808  1.9132
  441MOL0     H59510   3.259  -0.202  11.580  0.4794  1.4310  1.8497
  441MOL0     H59511   3.363  -0.096  11.302  0.0147  0.8391  0.9386
  441MOL0     H59512   3.338  -0.263  11.355  0.3234 -0.0437 -1.2338
  441MOL0     H59513   3.536  -0.059  11.451 -1.1277  0.7913  1.8490
  441MOL0     H59514   3.528  -0.233  11.512 -0.9054 -1.4577 -1.7465
  441MOL0     H59515   2.447   0.004  11.621 -1.0743 -0.4660 -0.7089
  441MOL0     H59516   2.213   0.100  11.638  0.0270  1.2320  1.6082
  441MOL0     H59517   1.796   0.115  11.455 -4.5023 -0.1100  0.0150
  441MOL0     H59518   1.583   0.189  11.511  0.3629  0.2478  3.1975
  441MOL0     H59519   0.606   0.789  10.369  3.9432 -2.1843  0.0728
  441MOL0     H59520   0.383   0.797  10.287  1.8168  3.6920  0.0191
  441MOL0     H59521   0.050   0.620  10.080 -1.4933 -0.3610 -0.2138
  441MOL0     H59522  -0.168   0.569   9.998  0.8391  0.0370  1.7296
  441MOL0     H59523  -0.321   0.550   9.812 -2.0085 -2.1589  1.2086
  441MOL0     H59524  -0.466   0.649   9.755 -0.8948 -0.5963  2.1551
  441MOL0     H59525  -0.509   0.722   9.983  2.4292  2.4765 -1.9590
  441MOL0     H59526  -0.382   0.628  10.057  0.1637 -1.2669 -1.3941
  441MOL0     H59527  -0.617   0.548  10.078 -2.9436 -0.2705 -1.6486
  441MOL0     H59528  -0.486   0.439  10.020 -0.1183  1.6685  2.7703
  441MOL0     H59529  -0.673   0.597   9.819 -2.5425  1.6069  3.7569
  441MOL0     H59530  -0.606   0.431   9.803  2.2770 -0.8526  1.2239
  441MOL0     H59531  -0.987   0.387   9.971 -1.6250  1.3985 -3.8462
  441MOL0     H59532  -0.160   0.951   9.798 -0.3305  0.2167  0.5862
  441MOL0     H59533   0.045   1.111   9.955  0.6749 -2.3578  1.1623
  441MOL0     H59534   0.161   1.057   9.839  0.5142  1.0012  2.4926
  441MOL0     H59535  -0.002   1.100   9.792 -1.3315 -0.5390  1.3139
  442MOL0     O59536   7.836   0.840  11.050  0.6604  0.1608 -1.0278
  442MOL0     C59537   7.852   0.751  11.128 -0.5422 -0.0477 -0.0445
  442MOL0     O59538   7.979   0.713  11.185  0.6498  0.3922  0.7164
  442MOL0     C59539   8.091   0.747  11.107 -0.8741  0.0163  0.9242
  442MOL0     C59540   8.201   0.794  11.173  0.4180  0.0748  0.2087
  442MOL0     C59541   8.319   0.834  11.114 -0.6774 -0.4128  0.1715
  442MOL0     C59542   8.334   0.824  10.976  0.1592  0.4314  0.1112
  442MOL0     O59543   8.456   0.849  10.917  0.1048 -0.1861  0.4399
  442MOL0     C59544   8.447   0.946  10.808  0.3047  0.2610  0.0345
  442MOL0     C59545   8.584   1.011  10.804 -0.6902 -0.6583 -0.0622
  442MOL0     C59546   8.614   1.074  10.941 -0.7091 -0.2837  0.5119
  442MOL0     C59547   8.724   1.176  10.939 -0.4745 -0.0760 -0.1326
  442MOL0     C59548   8.736   1.230  11.079 -0.7071 -0.0659  0.4935
  442MOL0     C59549   8.870   1.290  11.113 -0.1088 -0.5569  0.4478
  442MOL0     C59550   8.880   1.348  11.246 -0.6941  0.1063 -0.2122
  442MOL0     C59551   9.000   1.439  11.262  0.7173  0.1722  0.5799
  442MOL0     N59552   9.013   1.464  11.410 -0.4657 -0.2154  0.4806
  442MOL0     C59553   9.027   1.376  11.509 -0.0839 -0.0733  0.3512
  442MOL0     C59554   9.046   1.449  11.623 -0.1599 -0.9077  0.0251
  442MOL0     C59555   9.079   1.390  11.751  0.3444 -1.1942  0.5188
  442MOL0     C59556   9.223   1.334  11.753 -0.4436  0.5198  0.2509
  442MOL0     C59557   9.267   1.285  11.895 -0.2096  0.3762  0.6373
  442MOL0     C59558   9.411   1.235  11.886 -0.3806  0.3284 -0.0444
  442MOL0     O59559   9.506   1.309  11.803 -0.5482  0.3762  0.8863
  442MOL0     C59560   9.632   1.271  11.798 -0.6579  0.5466  1.4358
  442MOL0     C59561   9.699   1.182  11.874 -0.2196  0.2998  0.4599
  442MOL0     C59562   9.835   1.155  11.858 -0.3949  0.0345  0.0783
  442MOL0     C59563   9.915   1.227  11.766  0.9323  0.0391 -0.2120
  442MOL0     C59564  10.056   1.197  11.759 -0.2222 -0.6712  0.2848
  442MOL0     O59565  10.108   1.095  11.835  0.2639  0.2230  0.2443
  442MOL0     C59566  10.247   1.077  11.829  0.4929 -0.2888 -1.1397
  442MOL0     C59567  10.315   1.031  11.720 -0.4190 -0.7528 -0.0432
  442MOL0     C59568  10.457   1.012  11.716  0.4075 -0.1104 -0.7860
  442MOL0     C59569  10.530   1.040  11.825 -0.8634 -0.5939 -1.1783
  442MOL0     O59570  10.661   1.015  11.815  0.1083  0.2044  0.0704
  442MOL0     C59571  10.752   1.053  11.920  0.6739 -0.3254 -0.5276
  442MOL0     C59572  10.903   1.060  11.865  1.0716 -0.3454  0.5234
  442MOL0     C59573  10.923   1.146  11.731  0.6600 -0.2974 -0.0878
  442MOL0     C59574  11.066   1.113  11.677  0.2956 -0.2483 -0.0224
  442MOL0     C59575  11.130   1.196  11.564  0.7103 -0.1718  0.0311
  442MOL0     C59576  11.190   1.331  11.621 -0.0972 -0.0179 -1.2757
  442MOL0     C59577  11.322   1.301  11.673 -1.0189  0.2004 -0.3998
  442MOL0     C59578  11.401   1.430  11.688 -0.9602  0.1011 -0.0751
  442MOL0    Cl59579  11.558   1.375  11.754  0.2943 -0.8353 -0.0348
  442MOL0     C59580  10.464   1.091  11.936  0.7063  0.0656 -0.0413
  442MOL0     C59581  10.323   1.102  11.939 -0.4923 -0.8684  0.4506
  442MOL0     O59582  10.115   1.274  11.685 -0.5018 -0.6271  0.0710
  442MOL0     C59583   9.849   1.317  11.674  0.3280 -0.0393 -0.0959
  442MOL0     C59584   9.711   1.341  11.702 -0.6366  0.7462  0.3518
  442MOL0     N59585   9.041   1.579  11.585  0.6758  0.1492 -0.6986
  442MOL0     N59586   9.034   1.589  11.457  0.5048 -0.3176 -0.5242
  442MOL0     C59587   8.219   0.780  10.897  0.4860 -0.1962  0.4238
  442MOL0     C59588   8.098   0.744  10.964 -0.3627  0.5648 -0.7013
  442MOL0     C59589   7.734   0.689  11.182 -0.2526 -0.0833  0.6527
  442MOL0     C59590   7.756   0.624  11.307 -0.2784 -0.4315  0.4298
  442MOL0     C59591   7.648   0.556  11.366  0.1611  0.5005 -0.4104
  442MOL0     C59592   7.528   0.538  11.299  0.5168  0.5011 -0.0676
  442MOL0     O59593   7.431   0.475  11.373  0.3043  0.7483  0.0711
  442MOL0     C59594   7.295   0.488  11.331 -0.7441  0.2842 -0.4945
  442MOL0     C59595   7.205   0.501  11.452  0.3170  0.2307 -0.4377
  442MOL0     C59596   7.064   0.497  11.411  0.0468 -0.8660 -0.1056
  442MOL0     C59597   6.968   0.503  11.533  0.1859  0.0354 -0.6144
  442MOL0     C59598   6.973   0.372  11.609  0.6269  0.3259 -0.1351
  442MOL0     C59599   6.995   0.272  11.671  0.6139  0.6382 -1.0515
  442MOL0     C59600   7.513   0.603  11.172  1.0611  0.1584 -0.9286
  442MOL0     C59601   7.610   0.673  11.113 -0.3179  0.8827  0.6177
  442MOL0     C59602   7.588   0.725  10.975  0.3453  0.5039  0.0957
  442MOL0     H59603   8.196   0.793  11.282 -0.6433 -0.7824  0.1690
  442MOL0     H59604   8.415   0.857  11.159  0.8595 -2.6159 -1.7828
  442MOL0     H59605   8.426   0.899  10.712 -0.8924  0.7404  0.0468
  442MOL0     H59606   8.368   1.021  10.819 -0.5167 -0.0337 -3.0417
  442MOL0     H59607   8.575   1.083  10.722  1.0028 -0.1556  0.1536
  442MOL0     H59608   8.658   0.935  10.780 -0.8057 -0.2303 -1.9232
  442MOL0     H59609   8.655   0.996  11.006  2.2487  0.7250 -0.0321
  442MOL0     H59610   8.526   1.115  10.992 -0.0462  0.2001  1.2803
  442MOL0     H59611   8.819   1.129  10.913  2.7855  5.1074  0.9107
  442MOL0     H59612   8.694   1.258  10.872 -2.5791 -0.2986  0.4647
  442MOL0     H59613   8.653   1.296  11.105 -0.2264 -0.7648  4.4572
  442MOL0     H59614   8.726   1.150  11.152  0.1466  0.9481  1.7573
  442MOL0     H59615   8.950   1.216  11.114  0.9408  0.5151 -0.5768
  442MOL0     H59616   8.890   1.371  11.041  0.7083 -1.0044  0.1660
  442MOL0     H59617   8.888   1.272  11.324  2.2005 -0.6357 -1.0935
  442MOL0     H59618   8.792   1.410  11.263 -0.3952  0.0313  1.8914
  442MOL0     H59619   9.084   1.384  11.217 -1.1079 -1.7363 -0.6869
  442MOL0     H59620   8.971   1.532  11.212 -3.7471 -1.3536 -0.1559
  442MOL0     H59621   9.028   1.268  11.495 -1.0455  0.1439 -1.7880
  442MOL0     H59622   9.064   1.468  11.826  2.0046  0.5462 -0.8544
  442MOL0     H59623   9.011   1.305  11.764 -2.6180  0.3321 -2.9130
  442MOL0     H59624   9.232   1.251  11.682  3.5521  1.4753 -0.6146
  442MOL0     H59625   9.295   1.409  11.717  1.2694 -1.6489 -1.0746
  442MOL0     H59626   9.219   1.197  11.937 -0.6401  1.0398  1.5685
  442MOL0     H59627   9.265   1.364  11.970  1.8525 -0.4008  1.5776
  442MOL0     H59628   9.416   1.132  11.848  1.8838 -1.1137  3.6664
  442MOL0     H59629   9.450   1.235  11.988 -1.3066  2.2054  0.3403
  442MOL0     H59630   9.644   1.146  11.960 -1.4138  1.9076  0.4214
  442MOL0     H59631   9.896   1.107  11.934  0.0163  2.7171  1.5485
  442MOL0     H59632  10.272   0.999  11.626  0.7661  0.0132 -0.8707
  442MOL0     H59633  10.506   0.971  11.628  0.2872 -0.0971 -0.8594
  442MOL0     H59634  10.727   1.149  11.966  0.0522 -0.4519 -0.5795
  442MOL0     H59635  10.734   0.978  11.997 -3.4064 -1.7947 -2.5876
  442MOL0     H59636  10.972   1.101  11.939  1.6557 -0.1104 -0.1309
  442MOL0     H59637  10.943   0.960  11.843 -0.5495 -0.6957 -1.1065
  442MOL0     H59638  10.854   1.121  11.650  0.0544  1.0919 -0.0288
  442MOL0     H59639  10.921   1.255  11.738  1.9153  0.2973 -5.0204
  442MOL0     H59640  11.052   1.014  11.633 -1.0377 -1.6765  3.2419
  442MOL0     H59641  11.130   1.103  11.766 -2.3310  0.7046  2.1149
  442MOL0     H59642  11.048   1.218  11.495 -0.4369 -1.4605  0.9052
  442MOL0     H59643  11.206   1.140  11.509  1.3423  0.4640  0.2565
  442MOL0     H59644  11.212   1.407  11.545  0.5501  1.2552  0.1195
  442MOL0     H59645  11.126   1.372  11.700 -0.5378  0.2112 -1.7422
  442MOL0     H59646  11.371   1.240  11.596 -2.1224  0.9024 -1.7063
  442MOL0     H59647  11.313   1.246  11.767  0.6947 -0.9139 -0.8498
  442MOL0     H59648  11.421   1.470  11.588  1.0301 -1.0027 -0.1700
  442MOL0     H59649  11.355   1.510  11.748  1.6499  0.0685  2.1911
  442MOL0     H59650  10.509   1.115  12.032 -0.8974 -0.1619  0.7974
  442MOL0     H59651  10.274   1.137  12.029 -0.5771 -2.2240  0.9567
  442MOL0     H59652   9.904   1.372  11.598 -1.1951 -0.3588 -1.4694
  442MOL0     H59653   9.647   1.404  11.640 -2.3998  0.3347  1.6628
  442MOL0     H59654   8.226   0.773  10.789  0.2149 -1.1599  0.4600
  442MOL0     H59655   8.011   0.714  10.906  2.0114 -2.7875 -2.9274
  442MOL0     H59656   7.844   0.648  11.365  0.6243 -0.2683 -0.9668
  442MOL0     H59657   7.663   0.509  11.463 -0.8051 -1.7993 -1.2838
  442MOL0     H59658   7.268   0.394  11.282  4.7276 -0.9937 -1.6537
  442MOL0     H59659   7.269   0.567  11.261 -1.0284 -0.4435 -1.2334
  442MOL0     H59660   7.225   0.599  11.498 -2.5802  0.8677 -0.3563
  442MOL0     H59661   7.243   0.425  11.520  0.7350 -0.7338 -1.7248
  442MOL0     H59662   7.044   0.405  11.355  0.0632 -2.6578  2.6418
  442MOL0     H59663   7.041   0.584  11.349 -2.3914  0.1545  2.0650
  442MOL0     H59664   6.991   0.585  11.602  1.8315 -1.9889  1.3984
  442MOL0     H59665   6.870   0.516  11.487  0.3513  4.0109 -0.1586
  442MOL0     H59666   7.001   0.185  11.733 -4.1944  2.2398  2.3168
  442MOL0     H59667   7.418   0.612  11.120  0.9072  1.9913 -0.3758
  442MOL0     H59668   7.488   0.692  10.943  0.8947 -0.8042 -0.3141
  442MOL0     H59669   7.596   0.834  10.971 -0.3552  0.5561 -0.0831
  442MOL0     H59670   7.664   0.681  10.910  1.3466  3.6694 -1.0435
  443MOL0     O59671   3.392   1.601   7.244  0.2637 -0.0529 -0.2924
  443MOL0     C59672   3.446   1.627   7.350 -0.5246  0.5732  0.4650
  443MOL0     O59673   3.577   1.668   7.363  0.2996  0.8989 -0.1272
  443MOL0     C59674   3.658   1.701   7.255 -0.5825  0.2352 -0.6004
  443MOL0     C59675   3.627   1.738   7.131  0.0658 -0.1948 -0.6892
  443MOL0     C59676   3.720   1.749   7.032  0.6866 -0.5025 -0.3004
  443MOL0     C59677   3.854   1.723   7.055  0.0242  0.5303  0.3342
  443MOL0     O59678   3.956   1.736   6.960  0.1248 -1.0052 -1.4064
  443MOL0     C59679   3.932   1.759   6.822  0.5280  0.0913 -0.0174
  443MOL0     C59680   4.058   1.764   6.730 -0.4621  0.7259 -0.5202
  443MOL0     C59681   4.155   1.862   6.787 -0.0513 -1.3818 -0.5790
  443MOL0     C59682   4.290   1.853   6.715  0.2923 -0.4714 -0.4012
  443MOL0     C59683   4.410   1.898   6.804  0.4729  0.2249  0.7019
  443MOL0     C59684   4.538   1.944   6.716  0.1555  0.5163 -0.0725
  443MOL0     C59685   4.646   1.998   6.817  0.6269  0.6640 -0.8225
  443MOL0     C59686   4.779   2.032   6.744 -0.3231  0.7135  0.0595
  443MOL0     N59687   4.837   2.165   6.766  0.1568 -0.3863 -0.0564
  443MOL0     C59688   4.869   2.216   6.892  0.4022  0.1531  0.5507
  443MOL0     C59689   4.915   2.334   6.865  1.4535 -0.1205 -0.3646
  443MOL0     C59690   4.978   2.421   6.969 -0.3861  1.0605 -0.0076
  443MOL0     C59691   4.970   2.573   6.929 -0.7051  0.0851 -0.1464
  443MOL0     C59692   5.067   2.601   6.813  0.2210  0.7386 -0.3528
  443MOL0     C59693   5.212   2.562   6.815  0.5411 -0.3524 -0.2391
  443MOL0     O59694   5.288   2.603   6.700 -0.4663  0.0884  0.1712
  443MOL0     C59695   5.416   2.553   6.715 -0.3199  0.2068  0.8208
  443MOL0     C59696   5.464   2.446   6.643 -0.1612 -0.2139 -0.1143
  443MOL0     C59697   5.588   2.402   6.669 -0.6818  0.6455  0.2093
  443MOL0     C59698   5.668   2.464   6.768 -1.2338  0.2033  0.2018
  443MOL0     C59699   5.814   2.422   6.782  0.3813  0.3858 -0.0501
  443MOL0     O59700   5.858   2.412   6.906  0.0961  0.4000 -0.7570
  443MOL0     C59701   5.994   2.372   6.923  0.1389  0.3895 -0.4692
  443MOL0     C59702   6.099   2.467   6.920  0.2109  0.1093  0.2587
  443MOL0     C59703   6.233   2.427   6.939  0.4229 -0.1536  0.4635
  443MOL0     C59704   6.267   2.296   6.948 -0.0035 -0.2319  1.2210
  443MOL0     O59705   6.399   2.249   6.965  0.0560 -1.0450 -0.3159
  443MOL0     C59706   6.505   2.344   6.985  0.8512 -0.0205  0.3027
  443MOL0     C59707   6.637   2.263   6.970  0.4537 -0.2773 -0.1793
  443MOL0     C59708   6.662   2.175   7.091  0.3184  0.5528 -0.5528
  443MOL0     C59709   6.607   2.033   7.059  0.9832 -0.4336 -0.4355
  443MOL0     C59710   6.623   1.935   7.184  0.2807 -0.2693 -0.5913
  443MOL0     C59711   6.517   1.949   7.293  0.0579  0.4840  0.4033
  443MOL0     C59712   6.407   1.840   7.285  0.1718  0.4076 -0.5566
  443MOL0     C59713   6.300   1.867   7.170 -0.1360  0.4653  0.1836
  443MOL0    Cl59714   6.188   2.001   7.220  0.4255 -0.3885 -0.4885
  443MOL0     C59715   6.165   2.199   6.950 -0.8063  0.6618  0.7163
  443MOL0     C59716   6.031   2.244   6.943 -0.6131  0.6901 -0.0474
  443MOL0     O59717   5.882   2.383   6.686 -0.0375 -0.4239  0.3736
  443MOL0     C59718   5.620   2.570   6.839  0.2665  0.2085  1.0185
  443MOL0     C59719   5.492   2.616   6.813 -0.3848 -0.0259  1.1524
  443MOL0     N59720   4.909   2.359   6.735  0.4585  0.9421  0.3326
  443MOL0     N59721   4.856   2.258   6.673 -0.7127 -0.2352 -0.2348
  443MOL0     C59722   3.891   1.692   7.183  0.4467  0.5134 -0.4908
  443MOL0     C59723   3.799   1.671   7.280  0.5173 -0.1197 -0.1210
  443MOL0     C59724   3.366   1.621   7.467 -0.5280  0.9151  0.3861
  443MOL0     C59725   3.413   1.702   7.576 -0.8848  0.4837  0.5272
  443MOL0     C59726   3.342   1.714   7.691  0.9781 -0.0872  0.4747
  443MOL0     C59727   3.213   1.654   7.705 -0.0938  0.2388  0.2009
  443MOL0     O59728   3.153   1.664   7.835  0.2464 -0.1601  0.0286
  443MOL0     C59729   3.004   1.688   7.849  0.4502  0.0858  0.6597
  443MOL0     C59730   2.959   1.821   7.786 -0.1983  0.6027  0.2883
  443MOL0     C59731   2.996   1.946   7.864  0.2319  0.0272  0.0676
  443MOL0     C59732   2.951   2.073   7.795  0.2462  0.5356 -0.0043
  443MOL0     C59733   3.024   2.094   7.664  0.5782  0.4536  0.4746
  443MOL0     C59734   3.073   2.120   7.552  0.0954  0.3952  1.3812
  443MOL0     C59735   3.162   1.570   7.605 -1.3958 -0.7555  0.4992
  443MOL0     C59736   3.245   1.545   7.492  0.4618  0.7962  0.4308
  443MOL0     C59737   3.201   1.431   7.396 -0.1791 -0.3085 -0.8394
  443MOL0     H59738   3.528   1.780   7.117  0.5614  1.1255 -0.3388
  443MOL0     H59739   3.691   1.804   6.942  0.8380 -0.1638 -0.1454
  443MOL0     H59740   3.880   1.671   6.784  1.0070 -1.1338  2.0099
  443MOL0     H59741   3.869   1.843   6.793  1.4714  0.0205 -2.4857
  443MOL0     H59742   4.030   1.775   6.625 -1.1368 -1.5501 -0.6392
  443MOL0     H59743   4.106   1.665   6.729  0.5973  1.2029  0.3369
  443MOL0     H59744   4.168   1.846   6.894 -1.2830  2.9562  0.3919
  443MOL0     H59745   4.115   1.963   6.773  3.4323 -0.0043 -1.7423
  443MOL0     H59746   4.311   1.752   6.680 -0.1172 -0.8847  0.5040
  443MOL0     H59747   4.287   1.911   6.622 -3.2334  0.0487 -0.1171
  443MOL0     H59748   4.392   1.977   6.878  1.4833 -0.5100  1.7643
  443MOL0     H59749   4.437   1.815   6.870  0.6336 -0.7863 -0.6120
  443MOL0     H59750   4.579   1.868   6.648  0.9737  2.8601 -2.3593
  443MOL0     H59751   4.518   2.019   6.639  2.7646  1.6941  0.2755
  443MOL0     H59752   4.656   1.916   6.888 -1.0433  0.4212 -0.8274
  443MOL0     H59753   4.617   2.088   6.873  0.1026  0.7990 -1.2975
  443MOL0     H59754   4.847   1.947   6.753 -2.8395 -1.7837 -2.4558
  443MOL0     H59755   4.757   2.040   6.637 -0.6534  0.8327  0.1350
  443MOL0     H59756   4.872   2.169   6.990  1.9730 -2.1445 -0.5159
  443MOL0     H59757   4.913   2.407   7.056  0.6660 -3.7563  0.2660
  443MOL0     H59758   5.079   2.392   6.999 -0.6962  2.6789  2.8872
  443MOL0     H59759   4.870   2.597   6.891 -0.8298 -0.0558  0.0908
  443MOL0     H59760   4.992   2.642   7.010 -1.8367  2.5740 -1.8318
  443MOL0     H59761   5.068   2.710   6.804  1.6907  0.7929  0.1847
  443MOL0     H59762   5.028   2.565   6.717  0.9879  2.8184 -1.5197
  443MOL0     H59763   5.216   2.454   6.832  3.2361 -0.2551  0.1357
  443MOL0     H59764   5.251   2.618   6.900 -0.1439 -0.2806  0.0363
  443MOL0     H59765   5.420   2.400   6.554  0.6858 -2.7400  0.6849
  443MOL0     H59766   5.629   2.321   6.609 -2.7768 -0.7163  0.5216
  443MOL0     H59767   6.058   2.567   6.911 -2.2190 -0.9349 -1.1845
  443MOL0     H59768   6.300   2.512   6.945 -0.5611  0.7774 -1.0197
  443MOL0     H59769   6.507   2.415   6.902  0.9114  0.7092  0.9246
  443MOL0     H59770   6.512   2.399   7.079  0.7743  0.1050  0.2348
  443MOL0     H59771   6.638   2.210   6.874 -2.2176  2.5921 -2.0040
  443MOL0     H59772   6.710   2.343   6.961  0.0308  0.2843  1.1360
  443MOL0     H59773   6.764   2.148   7.119 -0.3194 -2.5433 -0.8968
  443MOL0     H59774   6.606   2.218   7.175 -0.5203  0.1899 -0.9147
  443MOL0     H59775   6.657   2.005   6.966 -0.1123  1.2502 -1.5655
  443MOL0     H59776   6.502   2.032   7.030  0.8101  5.8515 -1.2470
  443MOL0     H59777   6.719   1.959   7.230 -0.0832 -0.3158  0.2292
  443MOL0     H59778   6.614   1.836   7.138 -3.5358  0.5239 -1.9495
  443MOL0     H59779   6.571   1.951   7.388 -0.0692  1.3541  0.4668
  443MOL0     H59780   6.469   2.046   7.282  0.7346  0.7258 -0.5110
  443MOL0     H59781   6.355   1.840   7.381 -1.3653  1.1928 -1.3447
  443MOL0     H59782   6.459   1.744   7.282 -2.4033 -1.2558  2.4588
  443MOL0     H59783   6.345   1.884   7.072  2.3906 -2.2535  0.7144
  443MOL0     H59784   6.249   1.770   7.166  2.4614 -0.9693 -0.0168
  443MOL0     H59785   6.190   2.094   6.960  0.3512  0.4733 -2.7376
  443MOL0     H59786   5.962   2.163   6.965 -0.4706 -0.0690 -2.1782
  443MOL0     H59787   5.689   2.619   6.907  0.0605 -0.6248  1.8387
  443MOL0     H59788   5.474   2.708   6.867 -0.1555 -0.6335  2.2798
  443MOL0     H59789   3.990   1.657   7.210 -0.9313 -2.9694  0.6523
  443MOL0     H59790   3.830   1.648   7.381  0.7471 -1.0519 -0.3957
  443MOL0     H59791   3.505   1.758   7.559  0.0375 -0.8223  1.0767
  443MOL0     H59792   3.387   1.756   7.781 -0.3796  0.7073  0.8068
  443MOL0     H59793   2.975   1.686   7.955 -1.2146  0.6358  0.2478
  443MOL0     H59794   2.947   1.607   7.803  1.9423 -0.7854  0.2782
  443MOL0     H59795   2.851   1.809   7.775  0.0864 -1.1274 -1.1370
  443MOL0     H59796   3.002   1.827   7.685  1.1830  0.7703  0.8680
  443MOL0     H59797   3.103   1.944   7.887 -0.1210 -0.0738  1.8643
  443MOL0     H59798   2.948   1.935   7.962  0.7489 -3.2292  0.0720
  443MOL0     H59799   2.844   2.069   7.771 -0.0404 -0.7832  1.3470
  443MOL0     H59800   2.969   2.167   7.848  2.2127  0.0958  0.1566
  443MOL0     H59801   3.119   2.145   7.459 -0.0819 -0.4754  1.0495
  443MOL0     H59802   3.073   1.510   7.620 -1.4464 -1.0411 -0.8429
  443MOL0     H59803   3.286   1.385   7.344  1.6186  1.9351 -0.0589
  443MOL0     H59804   3.152   1.349   7.448 -0.6189  0.8705  0.6756
  443MOL0     H59805   3.140   1.475   7.316  2.2337  3.4574 -0.8488
  444MOL0     O59806   3.978   1.158   5.949  0.0330 -0.3752  0.4338
  444MOL0     C59807   4.010   1.267   6.001 -0.2722  0.7236 -0.5704
  444MOL0     O59808   3.924   1.349   6.068  0.3117 -0.0142 -0.6074
  444MOL0     C59809   3.787   1.320   6.067  0.2815 -0.7190 -0.6039
  444MOL0     C59810   3.713   1.338   6.181  0.6303 -0.0710 -1.3938
  444MOL0     C59811   3.573   1.309   6.193 -0.3356 -0.0810  0.1451
  444MOL0     C59812   3.508   1.268   6.084  0.1831  0.6895  0.5653
  444MOL0     O59813   3.369   1.237   6.084 -0.1265 -0.6354 -0.0605
  444MOL0     C59814   3.300   1.257   6.202 -0.0693  0.4177  0.1680
  444MOL0     C59815   3.158   1.248   6.165  0.0320  1.0096 -0.3289
  444MOL0     C59816   3.107   1.108   6.169  0.2381  0.7345  0.4546
  444MOL0     C59817   3.113   1.040   6.031 -0.6054 -0.1931 -0.3991
  444MOL0     C59818   3.043   0.902   6.045  0.2619 -0.5807  0.1673
  444MOL0     C59819   3.045   0.818   5.928 -0.1721 -0.2588  0.3139
  444MOL0     C59820   2.976   0.681   5.943  0.7790 -0.1490 -0.4020
  444MOL0     C59821   2.827   0.695   5.948 -1.1636  0.0015 -0.3782
  444MOL0     N59822   2.769   0.562   5.983  0.1756 -0.4479  0.3918
  444MOL0     C59823   2.747   0.528   6.108  0.6211 -0.3155 -0.2422
  444MOL0     C59824   2.643   0.439   6.098  0.2075  0.0371 -0.7974
  444MOL0     C59825   2.577   0.366   6.212 -0.0951  0.3394  0.0492
  444MOL0     C59826   2.688   0.287   6.268  0.2694  0.0197  0.3434
  444MOL0     C59827   2.707   0.160   6.185  0.8213  1.0155  0.5270
  444MOL0     C59828   2.806   0.067   6.250  0.0270 -0.2090 -0.3814
  444MOL0     O59829   2.839  -0.034   6.157 -0.5415  0.1312  0.4528
  444MOL0     C59830   2.913  -0.143   6.202 -0.2049  0.1944 -0.2374
  444MOL0     C59831   2.946  -0.249   6.109  0.0614 -0.4478 -0.4218
  444MOL0     C59832   3.029  -0.354   6.148  0.3419 -0.1286  0.4894
  444MOL0     C59833   3.079  -0.366   6.277  0.2069  0.0271 -0.6702
  444MOL0     C59834   3.162  -0.478   6.306  0.5340  0.0484  0.5224
  444MOL0     O59835   3.185  -0.503   6.439  0.2022 -0.0593 -0.9182
  444MOL0     C59836   3.249  -0.619   6.468  0.4921  0.3189 -0.6970
  444MOL0     C59837   3.183  -0.743   6.484  1.3970 -0.1729  0.3058
  444MOL0     C59838   3.254  -0.857   6.514  0.4981 -0.1560  0.2551
  444MOL0     C59839   3.388  -0.854   6.512  0.1795 -0.1102  0.4181
  444MOL0     O59840   3.449  -0.978   6.504  0.7036  0.0542 -0.2993
  444MOL0     C59841   3.562  -1.004   6.429 -0.9602 -0.2660 -0.2113
  444MOL0     C59842   3.674  -1.070   6.524 -1.1230 -0.6178 -0.1647
  444MOL0     C59843   3.741  -0.962   6.605  0.0664 -0.2133 -0.3254
  444MOL0     C59844   3.823  -1.022   6.719 -0.3151  0.2405  0.0582
  444MOL0     C59845   3.870  -0.913   6.815 -0.2771 -0.1359  0.7574
  444MOL0     C59846   3.766  -0.859   6.908  0.3465  0.2053 -0.1346
  444MOL0     C59847   3.719  -0.960   7.014  0.4980  0.4558  0.0323
  444MOL0     C59848   3.626  -0.883   7.108  0.6175  0.2496 -0.7773
  444MOL0    Cl59849   3.565  -0.978   7.255  0.1598 -0.0434 -0.0678
  444MOL0     C59850   3.461  -0.732   6.507 -0.4524  0.4108 -0.0593
  444MOL0     C59851   3.385  -0.616   6.478  0.7496  0.0583  0.1415
  444MOL0     O59852   3.202  -0.552   6.220  0.0255  0.3993  0.2110
  444MOL0     C59853   3.048  -0.267   6.371  0.2263 -0.6308 -0.4419
  444MOL0     C59854   2.968  -0.162   6.334 -0.6503 -0.0718 -0.5676
  444MOL0     N59855   2.606   0.419   5.974  0.0527 -0.1645  0.1714
  444MOL0     N59856   2.661   0.513   5.911 -0.1228 -1.3670  0.3460
  444MOL0     C59857   3.569   1.267   5.961  0.5201 -0.5594  0.3613
  444MOL0     C59858   3.710   1.283   5.951 -0.0208  0.6837 -0.0385
  444MOL0     C59859   4.151   1.307   5.993  0.0104  0.0286 -0.1643
  444MOL0     C59860   4.252   1.211   5.964  0.4603 -0.0681 -0.5960
  444MOL0     C59861   4.383   1.249   5.942  0.5018 -0.6863 -0.6570
  444MOL0     C59862   4.426   1.383   5.952  0.0275 -0.5705 -0.6221
  444MOL0     O59863   4.555   1.412   5.923  0.4760  0.5643  0.0597
  444MOL0     C59864   4.608   1.549   5.919  0.9395  0.2233 -0.3569
  444MOL0     C59865   4.756   1.544   5.871  0.0989  0.1882 -0.3023
  444MOL0     C59866   4.855   1.469   5.962  0.6301 -0.4792 -0.2970
  444MOL0     C59867   5.009   1.483   5.920  0.5422  0.3569 -0.1896
  444MOL0     C59868   5.062   1.395   5.815 -0.6904  0.0357  0.0355
  444MOL0     C59869   5.094   1.332   5.717 -0.7555 -1.0010  0.7481
  444MOL0     C59870   4.329   1.478   5.984  0.1904 -0.2898 -0.6603
  444MOL0     C59871   4.195   1.443   6.012  0.0618  0.0703 -0.3347
  444MOL0     C59872   4.117   1.552   6.079  0.1890  0.1462  0.5765
  444MOL0     H59873   3.765   1.379   6.266 -1.4334  1.1228 -0.6251
  444MOL0     H59874   3.527   1.316   6.291 -0.1011  0.6484  0.2143
  444MOL0     H59875   3.319   1.191   6.287  1.9532  0.8939  0.1317
  444MOL0     H59876   3.321   1.357   6.240 -2.0454  1.1955 -0.6842
  444MOL0     H59877   3.136   1.296   6.069 -1.5937 -2.9647 -2.1931
  444MOL0     H59878   3.106   1.301   6.245  0.0819 -1.8886  1.7887
  444MOL0     H59879   3.005   1.105   6.208 -0.4870  1.3951 -1.3135
  444MOL0     H59880   3.162   1.045   6.240 -2.6119 -1.5134  0.8702
  444MOL0     H59881   3.051   1.098   5.961 -0.7192  0.7203  0.4464
  444MOL0     H59882   3.218   1.029   6.003 -1.2474 -1.1067 -2.7510
  444MOL0     H59883   3.086   0.848   6.131  2.3231 -0.0810 -0.4928
  444MOL0     H59884   2.936   0.917   6.061 -0.4350 -4.5100  0.1962
  444MOL0     H59885   2.982   0.862   5.850  0.7398 -1.2559 -1.0352
  444MOL0     H59886   3.146   0.816   5.887 -0.6798  0.1541 -1.0127
  444MOL0     H59887   3.008   0.627   6.033 -0.0662 -3.3288 -1.8821
  444MOL0     H59888   2.990   0.617   5.856  1.3695  1.9076 -1.9029
  444MOL0     H59889   2.799   0.763   6.029  1.4821 -0.0105  0.6435
  444MOL0     H59890   2.783   0.738   5.857  0.0475 -0.3861 -1.1701
  444MOL0     H59891   2.787   0.560   6.203  1.2221 -0.7123 -0.3549
  444MOL0     H59892   2.542   0.442   6.283  0.8230  1.5701 -0.7826
  444MOL0     H59893   2.487   0.322   6.168 -0.0927 -0.9024  1.1894
  444MOL0     H59894   2.772   0.348   6.299  0.3617  0.8496 -1.3848
  444MOL0     H59895   2.644   0.248   6.360 -0.7065 -1.8083 -0.8211
  444MOL0     H59896   2.742   0.187   6.085 -2.7113  3.4618 -0.2219
  444MOL0     H59897   2.611   0.108   6.180  1.9684 -1.5312  2.6834
  444MOL0     H59898   2.750   0.039   6.339  0.8872  1.7721  0.8552
  444MOL0     H59899   2.902   0.113   6.277 -0.1840 -0.6144  1.1557
  444MOL0     H59900   2.920  -0.238   6.004 -1.9568 -0.1087  0.0598
  444MOL0     H59901   3.053  -0.427   6.071 -1.7863  0.0334 -0.3888
  444MOL0     H59902   3.075  -0.745   6.474  1.3697 -0.2616  0.6172
  444MOL0     H59903   3.223  -0.961   6.514  0.5660 -0.1772  0.6649
  444MOL0     H59904   3.542  -1.071   6.345  3.2629 -0.4086 -1.3233
  444MOL0     H59905   3.599  -0.908   6.391  1.0994 -1.2873 -0.9745
  444MOL0     H59906   3.631  -1.140   6.596  0.5867 -2.8267 -1.1826
  444MOL0     H59907   3.747  -1.122   6.462 -0.7040  0.4813 -0.6239
  444MOL0     H59908   3.818  -0.902   6.554  1.3976 -1.8393 -0.3173
  444MOL0     H59909   3.663  -0.900   6.649  0.7016 -2.4616  4.6854
  444MOL0     H59910   3.904  -1.080   6.674 -1.8901 -2.4497  0.4629
  444MOL0     H59911   3.767  -1.097   6.776 -0.5418  1.4916  1.5738
  444MOL0     H59912   3.920  -0.833   6.760 -1.4197  0.3424  0.3678
  444MOL0     H59913   3.954  -0.958   6.869  1.1232  0.6709 -0.6548
  444MOL0     H59914   3.799  -0.768   6.959 -2.1877  0.8923  0.4272
  444MOL0     H59915   3.677  -0.826   6.853 -0.4973 -0.6124  0.7102
  444MOL0     H59916   3.808  -0.975   7.076  0.5071  1.9729  0.4306
  444MOL0     H59917   3.665  -1.047   6.976 -0.2845  0.9990 -0.1056
  444MOL0     H59918   3.671  -0.790   7.145 -2.1179  1.3776 -0.0344
  444MOL0     H59919   3.539  -0.854   7.049  1.4759  2.6553 -0.9766
  444MOL0     H59920   3.566  -0.724   6.535 -0.5362 -0.9105  0.7237
  444MOL0     H59921   3.430  -0.519   6.457 -1.0111  1.0819  0.8299
  444MOL0     H59922   3.083  -0.266   6.474 -1.9357  0.5770  0.3489
  444MOL0     H59923   2.940  -0.089   6.410  0.7885  1.4534 -1.4398
  444MOL0     H59924   3.516   1.224   5.876 -0.5613  0.1612  0.6580
  444MOL0     H59925   3.760   1.254   5.860 -1.7957  0.3792 -0.9646
  444MOL0     H59926   4.217   1.109   5.947 -2.3874  1.0491 -2.0875
  444MOL0     H59927   4.455   1.174   5.910  0.8151 -0.3930 -0.6358
  444MOL0     H59928   4.594   1.600   6.015  1.8690 -1.5991  0.8106
  444MOL0     H59929   4.545   1.606   5.850 -2.5211 -0.2619  2.1288
  444MOL0     H59930   4.788   1.644   5.842  2.0293 -0.5250 -0.7984
  444MOL0     H59931   4.758   1.485   5.779 -0.7862 -1.5659  0.7461
  444MOL0     H59932   4.825   1.365   5.978 -0.8727 -0.0655 -0.2980
  444MOL0     H59933   4.855   1.507   6.065  1.7172 -0.2124 -0.3758
  444MOL0     H59934   5.035   1.587   5.899  0.9809 -0.2055 -2.9116
  444MOL0     H59935   5.066   1.464   6.012  1.3307 -0.1428 -0.7649
  444MOL0     H59936   5.120   1.267   5.636  2.1196  0.4208  0.4208
  444MOL0     H59937   4.358   1.582   5.990 -1.2585  0.2713 -2.3686
  444MOL0     H59938   4.083   1.528   6.180  2.0547  1.0676  1.4862
  444MOL0     H59939   4.176   1.644   6.083 -0.1858  0.3898  0.5303
  444MOL0     H59940   4.033   1.579   6.014  0.7988 -0.2606 -0.4053
  445MOL0     O59941   0.342   0.299   3.798 -0.1462 -0.5796  0.2811
  445MOL0     C59942   0.274   0.270   3.893  0.2695 -0.1587  0.0993
  445MOL0     O59943   0.316   0.219   4.007 -0.0657  0.1438  0.1951
  445MOL0     C59944   0.455   0.220   4.028 -0.3656  0.6283  0.1682
  445MOL0     C59945   0.513   0.343   4.058  0.4552 -0.5846 -0.4938
  445MOL0     C59946   0.651   0.355   4.087 -0.9911 -0.0516 -0.1954
  445MOL0     C59947   0.731   0.241   4.073  0.2653  0.0559  0.7024
  445MOL0     O59948   0.868   0.227   4.106  0.2419  0.5678 -0.2163
  445MOL0     C59949   0.936   0.355   4.119 -0.0250 -0.2369  0.0575
  445MOL0     C59950   1.093   0.329   4.141  0.4648  1.1371  0.4457
  445MOL0     C59951   1.121   0.301   4.282  0.0434  0.7144 -0.5218
  445MOL0     C59952   1.270   0.245   4.279 -0.0415  0.1791 -0.5426
  445MOL0     C59953   1.327   0.220   4.418  0.0244 -0.8805  0.5193
  445MOL0     C59954   1.375   0.351   4.483  0.5006 -0.5063  0.3399
  445MOL0     C59955   1.504   0.410   4.415  0.9473  0.7204 -0.2800
  445MOL0     C59956   1.536   0.551   4.465 -0.8036 -0.1488 -0.1063
  445MOL0     N59957   1.605   0.548   4.591 -0.4798  0.3937  0.1105
  445MOL0     C59958   1.733   0.519   4.616 -0.2464  0.3362 -0.1137
  445MOL0     C59959   1.740   0.510   4.748 -0.6315 -0.2788  0.4342
  445MOL0     C59960   1.874   0.483   4.819  1.0523  0.0084  0.3523
  445MOL0     C59961   1.984   0.409   4.730  0.8023  0.2099  0.0776
  445MOL0     C59962   2.113   0.362   4.808 -0.7658 -1.0979 -0.3370
  445MOL0     C59963   2.215   0.319   4.713  0.1077  0.2046 -0.0142
  445MOL0     O59964   2.335   0.305   4.793 -0.1199 -0.0532 -0.1356
  445MOL0     C59965   2.435   0.379   4.747  0.3756 -0.1942  0.2655
  445MOL0     C59966   2.530   0.320   4.661 -0.0532  0.1158 -0.4985
  445MOL0     C59967   2.642   0.388   4.622  0.5117  0.4801  0.6494
  445MOL0     C59968   2.666   0.523   4.662 -0.2244  0.0234 -0.0719
  445MOL0     C59969   2.802   0.589   4.627 -0.0311  0.7981 -0.4418
  445MOL0     O59970   2.883   0.522   4.548  0.4525  0.5977  0.3597
  445MOL0     C59971   2.989   0.589   4.496  0.1570  0.3386 -0.3684
  445MOL0     C59972   2.974   0.705   4.415  0.2791 -0.0553  0.1306
  445MOL0     C59973   3.090   0.753   4.349  0.3059  0.2554 -0.3945
  445MOL0     C59974   3.214   0.700   4.368 -0.3621 -1.0549 -0.5520
  445MOL0     O59975   3.308   0.749   4.289 -0.1490  0.1887 -0.1268
  445MOL0     C59976   3.316   0.695   4.153  0.4858  0.1873 -0.3728
  445MOL0     C59977   3.457   0.652   4.121 -0.2472 -0.2083  0.9669
  445MOL0     C59978   3.553   0.762   4.157  0.1330 -0.0041  0.6575
  445MOL0     C59979   3.688   0.719   4.098  0.5396 -0.5791 -0.4413
  445MOL0     C59980   3.793   0.832   4.105  0.1670  0.3186 -0.5675
  445MOL0     C59981   3.933   0.769   4.100 -0.2926 -0.1795  0.9370
  445MOL0     C59982   4.035   0.889   4.090 -0.4515  0.1848  0.2893
  445MOL0     C59983   4.185   0.846   4.079  0.1163 -0.6094  0.3264
  445MOL0    Cl59984   4.258   0.814   4.237  0.0348 -0.1805 -0.0717
  445MOL0     C59985   3.230   0.592   4.447 -0.0778 -0.4280 -0.4441
  445MOL0     C59986   3.120   0.539   4.514  0.3348 -0.3047 -0.3796
  445MOL0     O59987   2.830   0.699   4.675  0.2049  0.8317  0.9710
  445MOL0     C59988   2.580   0.576   4.760 -0.0396  0.4446 -0.6154
  445MOL0     C59989   2.465   0.505   4.799 -0.3456 -0.5983  0.2884
  445MOL0     N59990   1.615   0.531   4.803  0.2968  0.1491 -0.7370
  445MOL0     N59991   1.536   0.553   4.711  0.0869 -0.0607 -0.3499
  445MOL0     C59992   0.666   0.122   4.029 -0.4153 -0.2268  0.0905
  445MOL0     C59993   0.530   0.104   4.017 -0.6197 -0.3273  0.4720
  445MOL0     C59994   0.121   0.278   3.879 -0.0835 -0.4820 -0.2625
  445MOL0     C59995   0.077   0.370   3.784  0.7799 -0.0166 -0.0190
  445MOL0     C59996  -0.062   0.396   3.766  0.0507 -0.2475 -0.5380
  445MOL0     C59997  -0.148   0.324   3.844  0.2711  0.2783 -0.6809
  445MOL0     O59998  -0.286   0.347   3.830  0.2430 -0.0171  0.4404
  445MOL0     C59999  -0.342   0.338   3.693  0.3078  0.1947 -0.2177
  445MOL0     C60000  -0.497   0.328   3.686 -0.9747  0.1698 -0.0877
  445MOL0     C60001  -0.565   0.422   3.781  0.3356 -0.0970 -0.3952
  445MOL0     C60002  -0.574   0.573   3.738  0.9181 -0.1924  0.8040
  445MOL0     C60003  -0.620   0.587   3.600  0.4590  0.0252 -0.4384
  445MOL0     C60004  -0.644   0.596   3.488  1.3378 -0.5395 -0.0520
  445MOL0     C60005  -0.106   0.246   3.947 -0.2861  0.5038 -0.3132
  445MOL0     C60006   0.025   0.218   3.968  1.0554 -0.9823 -0.3069
  445MOL0     C60007   0.061   0.116   4.071 -0.5672 -0.4315  0.3110
  445MOL0     H60008   0.456   0.435   4.057  1.4659  0.0544 -1.2794
  445MOL0     H60009   0.699   0.450   4.106  0.6151 -0.2574 -2.7350
  445MOL0     H60010   0.917   0.410   4.027  1.3353 -1.4343 -0.9901
  445MOL0     H60011   0.901   0.415   4.204 -0.1524  0.2146 -0.3117
  445MOL0     H60012   1.149   0.419   4.116  3.4803 -0.0885  2.2362
  445MOL0     H60013   1.120   0.250   4.070 -2.6207  0.3067  0.0464
  445MOL0     H60014   1.049   0.230   4.321 -3.1009  3.2399 -1.2899
  445MOL0     H60015   1.120   0.386   4.351  2.5009  0.8247 -0.5034
  445MOL0     H60016   1.264   0.139   4.251 -1.8206  0.0009  0.3467
  445MOL0     H60017   1.333   0.299   4.208  0.1866  1.7812  0.8359
  445MOL0     H60018   1.262   0.170   4.490 -0.7520 -0.7563 -0.0808
  445MOL0     H60019   1.407   0.146   4.407  0.1484 -0.8502  1.2125
  445MOL0     H60020   1.297   0.428   4.475  1.5543  0.5044 -0.5072
  445MOL0     H60021   1.384   0.326   4.589  0.2921  2.2116  1.0969
  445MOL0     H60022   1.492   0.401   4.307  2.2685  0.2704 -0.4040
  445MOL0     H60023   1.581   0.336   4.440 -0.0670  0.2642  1.7110
  445MOL0     H60024   1.598   0.608   4.396 -0.5243 -0.6910 -0.3046
  445MOL0     H60025   1.441   0.603   4.483 -0.6424 -0.8265  3.5387
  445MOL0     H60026   1.812   0.516   4.542 -0.0783 -2.4144  0.1061
  445MOL0     H60027   1.910   0.578   4.860  0.3979  0.2454  0.3823
  445MOL0     H60028   1.857   0.410   4.899  1.1307  0.0643  0.4205
  445MOL0     H60029   1.948   0.312   4.696  1.4934 -0.3411  0.8835
  445MOL0     H60030   2.006   0.474   4.645 -1.7940  1.7316  0.4671
  445MOL0     H60031   2.095   0.278   4.877 -0.6202  0.1206  1.2460
  445MOL0     H60032   2.155   0.444   4.866  1.8460 -0.5966 -2.7282
  445MOL0     H60033   2.234   0.389   4.631  2.3533 -0.4079 -0.0737
  445MOL0     H60034   2.185   0.224   4.666 -0.4343  0.8822 -1.0981
  445MOL0     H60035   2.502   0.218   4.633 -5.6058  0.7042  1.5057
  445MOL0     H60036   2.713   0.336   4.559  0.3146 -1.0655  1.6513
  445MOL0     H60037   2.873   0.742   4.400  0.2467  0.2138  0.9993
  445MOL0     H60038   3.086   0.834   4.277  2.6954  1.9472  1.1775
  445MOL0     H60039   3.247   0.613   4.131  0.9723 -0.0923 -0.8929
  445MOL0     H60040   3.294   0.784   4.092  0.9133 -0.1235 -0.9897
  445MOL0     H60041   3.487   0.565   4.182  0.3315  0.1792  1.2417
  445MOL0     H60042   3.457   0.629   4.014 -1.2926  1.1685  0.6512
  445MOL0     H60043   3.527   0.854   4.105  2.2146  0.5699  0.5542
  445MOL0     H60044   3.567   0.774   4.265 -1.0451 -0.6044  0.8980
  445MOL0     H60045   3.681   0.678   3.996  1.7201 -1.1412 -0.3107
  445MOL0     H60046   3.720   0.628   4.150 -0.6080 -0.4520  0.5315
  445MOL0     H60047   3.781   0.885   4.200 -1.5896  0.5378 -0.8758
  445MOL0     H60048   3.772   0.916   4.039  0.0583  1.6240  1.0568
  445MOL0     H60049   3.957   0.705   4.186 -0.8698 -1.1161  0.4123
  445MOL0     H60050   3.963   0.708   4.014  1.1971  0.6784  0.8184
  445MOL0     H60051   4.028   0.949   4.181  0.6042  2.4191 -1.0286
  445MOL0     H60052   4.009   0.946   4.001 -1.6462  0.9953  1.1249
  445MOL0     H60053   4.191   0.755   4.019  0.9789 -0.7642  0.6379
  445MOL0     H60054   4.233   0.926   4.022 -1.0258 -0.3637 -0.3388
  445MOL0     H60055   3.328   0.546   4.453  0.0419 -0.0051  2.3258
  445MOL0     H60056   3.133   0.461   4.588 -0.8494 -1.1755 -1.0511
  445MOL0     H60057   2.604   0.668   4.812 -0.8234 -0.4308  1.4012
  445MOL0     H60058   2.398   0.556   4.867  0.1542  0.5804 -0.0739
  445MOL0     H60059   0.732   0.039   4.005  1.9007  2.1484 -2.4361
  445MOL0     H60060   0.477   0.014   3.988 -0.2692 -0.0890 -1.0124
  445MOL0     H60061   0.149   0.416   3.718 -2.7043  1.9673 -2.8214
  445MOL0     H60062  -0.102   0.447   3.679  0.6080 -0.7548 -1.1041
  445MOL0     H60063  -0.300   0.246   3.652  0.5782 -0.1965  0.8878
  445MOL0     H60064  -0.326   0.432   3.639  0.1469  0.9419  0.9823
  445MOL0     H60065  -0.526   0.225   3.708 -1.0104 -0.2354 -1.8449
  445MOL0     H60066  -0.527   0.330   3.581 -1.9295 -0.8700  0.1488
  445MOL0     H60067  -0.509   0.411   3.874  3.0256  0.1740 -1.8740
  445MOL0     H60068  -0.666   0.391   3.810 -0.3106  0.1850 -2.2100
  445MOL0     H60069  -0.649   0.616   3.805  0.8747  1.1077 -0.0307
  445MOL0     H60070  -0.479   0.627   3.749  0.9028 -0.0860  0.4255
  445MOL0     H60071  -0.695   0.632   3.401  1.0820  2.1044  1.0773
  445MOL0     H60072  -0.181   0.206   4.014  1.2021 -1.7444  0.1226
  445MOL0     H60073   0.108   0.160   4.160  2.3871 -0.5580 -1.0743
  445MOL0     H60074  -0.028   0.065   4.109  1.1288 -2.9104  1.1735
  445MOL0     H60075   0.128   0.041   4.029 -0.4124 -1.2464  1.9398
  446MOL0     O60076   2.280  10.684   9.529 -0.4501 -0.1441 -0.4763
  446MOL0     C60077   2.242  10.656   9.642 -1.3400  0.7259  0.5493
  446MOL0     O60078   2.322  10.632   9.752 -0.4770  0.4409  0.8732
  446MOL0     C60079   2.453  10.663   9.744 -0.5624 -0.4380 -0.0936
  446MOL0     C60080   2.496  10.790   9.779  0.4026 -0.6049  0.3167
  446MOL0     C60081   2.630  10.822   9.746  0.0843  0.0389  0.4904
  446MOL0     C60082   2.717  10.735   9.691 -0.5451  0.5064 -0.0307
  446MOL0     O60083   2.844  10.755   9.651 -0.3890 -0.1950  1.0570
  446MOL0     C60084   2.923  10.835   9.738 -1.6641  0.0177  0.0102
  446MOL0     C60085   3.058  10.826   9.666  0.0903  0.3712 -0.4934
  446MOL0     C60086   3.174  10.911   9.725 -0.1752 -0.1675  0.0543
  446MOL0     C60087   3.292  10.895   9.634  0.4420 -0.4230 -0.3724
  446MOL0     C60088   3.407  10.988   9.668 -0.4682  0.2680  0.5292
  446MOL0     C60089   3.526  10.950   9.579 -0.4631  0.2878 -0.2235
  446MOL0     C60090   3.626  11.050   9.584  0.0581  1.0252 -0.8038
  446MOL0     C60091   3.757  10.996   9.533  0.6077 -0.9184 -0.7619
  446MOL0     N60092   3.845  11.115   9.508  0.1267 -0.0050  0.0285
  446MOL0     C60093   3.909  11.174   9.618  0.4596 -0.5178  0.3023
  446MOL0     C60094   3.974  11.273   9.561 -0.1522 -0.2127 -0.3629
  446MOL0     C60095   4.068  11.378   9.628 -0.7563  0.5077 -0.4203
  446MOL0     C60096   4.185  11.314   9.700 -1.1152 -0.2478 -0.3020
  446MOL0     C60097   4.306  11.271   9.612  0.3605 -0.6573  0.0690
  446MOL0     C60098   4.390  11.395   9.573  0.0142 -0.2537  0.3602
  446MOL0     O60099   4.518  11.339   9.547  0.3761  0.1719  0.0346
  446MOL0     C60100   4.617  11.420   9.500 -0.3062  0.8020  0.3390
  446MOL0     C60101   4.606  11.552   9.448 -0.0241  0.0394  0.0501
  446MOL0     C60102   4.724  11.611   9.396  0.2424  0.9236  0.0434
  446MOL0     C60103   4.847  11.544   9.396 -0.0622 -0.1984  1.1099
  446MOL0     C60104   4.964  11.603   9.332 -0.4159  0.2425  0.3367
  446MOL0     O60105   5.085  11.551   9.381  0.7545  0.2638  0.1240
  446MOL0     C60106   5.201  11.587   9.323  0.0790  0.3844 -0.3460
  446MOL0     C60107   5.214  11.617   9.189  0.0095 -0.1727  0.1856
  446MOL0     C60108   5.335  11.651   9.126 -0.2688 -0.4190  0.1312
  446MOL0     C60109   5.455  11.657   9.204  0.2275 -0.4536  0.2439
  446MOL0     O60110   5.577  11.691   9.152  0.1801 -0.3432  0.1155
  446MOL0     C60111   5.682  11.683   9.246 -0.2653 -0.6594  0.6339
  446MOL0     C60112   5.807  11.727   9.163  0.2145 -0.5425  0.3258
  446MOL0     C60113   5.925  11.736   9.254 -0.5829 -0.2285 -0.1898
  446MOL0     C60114   6.049  11.788   9.179  0.3526  0.2353  0.3320
  446MOL0     C60115   6.171  11.810   9.267  0.7058  0.4566  0.0855
  446MOL0     C60116   6.287  11.868   9.181 -0.4756  0.2419  0.6798
  446MOL0     C60117   6.385  11.933   9.276 -0.3112 -0.6870  0.0631
  446MOL0     C60118   6.480  12.015   9.204 -0.3853 -0.0141  0.9217
  446MOL0    Cl60119   6.608  12.065   9.316 -0.1937 -0.3037 -0.1203
  446MOL0     C60120   5.436  11.638   9.340  0.4509 -0.2674 -0.6986
  446MOL0     C60121   5.315  11.599   9.404 -0.6283  0.2692 -0.5464
  446MOL0     O60122   4.953  11.687   9.244  0.6026 -0.4163 -0.5596
  446MOL0     C60123   4.853  11.421   9.441  0.6315  0.4571  0.1014
  446MOL0     C60124   4.742  11.352   9.491  0.0851 -0.5623  0.2367
  446MOL0     N60125   3.954  11.275   9.419  0.1514  0.0874 -0.9684
  446MOL0     N60126   3.865  11.182   9.396  0.0657  0.3237 -0.0663
  446MOL0     C60127   2.670  10.606   9.657 -0.1908  0.2069 -0.0782
  446MOL0     C60128   2.541  10.567   9.688  0.5158 -0.0204  0.4218
  446MOL0     C60129   2.092  10.647   9.638 -0.4723 -0.0013 -0.4188
  446MOL0     C60130   2.008  10.651   9.515  0.2479 -0.2841  0.0999
  446MOL0     C60131   1.868  10.647   9.519 -0.1261 -0.2057  0.5842
  446MOL0     C60132   1.795  10.637   9.636 -0.2549  0.6241  0.4609
  446MOL0     O60133   1.662  10.626   9.621  0.4074  0.6542  1.0166
  446MOL0     C60134   1.577  10.664   9.730  0.8663 -0.2380  0.0451
  446MOL0     C60135   1.558  10.552   9.833 -0.6055  0.6215  0.5984
  446MOL0     C60136   1.502  10.418   9.779  0.5995  0.6358 -0.3895
  446MOL0     C60137   1.512  10.304   9.874 -0.3867  0.4391 -0.4815
  446MOL0     C60138   1.654  10.265   9.904 -0.3791 -0.5564  0.6675
  446MOL0     C60139   1.762  10.221   9.938 -0.8419 -0.1392 -0.2756
  446MOL0     C60140   1.871  10.635   9.752 -0.2977 -0.1882 -0.3657
  446MOL0     C60141   2.011  10.627   9.753 -0.2260 -0.1735  0.4732
  446MOL0     C60142   2.074  10.618   9.884 -0.3542 -1.0421 -0.1571
  446MOL0     H60143   2.427  10.863   9.820  0.2415 -0.3003 -0.4623
  446MOL0     H60144   2.664  10.925   9.761  2.1829 -0.4058 -0.7305
  446MOL0     H60145   2.899  10.942   9.742  0.1109  0.3996  2.7820
  446MOL0     H60146   2.927  10.800   9.841  0.3202 -1.8029 -0.6217
  446MOL0     H60147   3.050  10.866   9.564  1.2803 -2.8682 -2.0127
  446MOL0     H60148   3.081  10.719   9.661  0.5713  0.4422  0.1846
  446MOL0     H60149   3.196  10.872   9.825  0.3007  1.2826  0.5367
  446MOL0     H60150   3.141  11.015   9.726 -0.2420 -0.1581 -1.5971
  446MOL0     H60151   3.330  10.792   9.639 -0.6763 -0.8015  0.9293
  446MOL0     H60152   3.267  10.921   9.531 -1.9690 -3.6484 -0.7411
  446MOL0     H60153   3.376  11.091   9.647 -2.0176  0.1507  2.1326
  446MOL0     H60154   3.443  10.982   9.771 -0.4324  0.5163  0.5334
  446MOL0     H60155   3.575  10.857   9.608 -1.4009  0.5465  2.5082
  446MOL0     H60156   3.494  10.942   9.475  1.4722  2.5960 -1.0881
  446MOL0     H60157   3.644  11.092   9.684  0.7990 -1.9668  0.4363
  446MOL0     H60158   3.586  11.125   9.515 -0.4574  0.0973 -1.5389
  446MOL0     H60159   3.797  10.923   9.604  1.4172  0.5916  0.3995
  446MOL0     H60160   3.746  10.943   9.438  2.8263 -2.9639  0.0259
  446MOL0     H60161   3.910  11.162   9.726 -2.9927  1.7043  0.7191
  446MOL0     H60162   4.109  11.447   9.554  3.3521  0.2615  1.3178
  446MOL0     H60163   4.014  11.438   9.702 -0.6041  2.0627 -1.5351
  446MOL0     H60164   4.228  11.378   9.777 -2.6683 -0.4800  0.8201
  446MOL0     H60165   4.152  11.220   9.745 -0.2088 -1.3592 -1.8518
  446MOL0     H60166   4.254  11.241   9.521 -3.7470 -0.8793  2.2458
  446MOL0     H60167   4.372  11.193   9.651 -1.1598 -1.6162  0.7989
  446MOL0     H60168   4.393  11.463   9.658  0.5959 -3.1518  2.8204
  446MOL0     H60169   4.344  11.448   9.489 -0.0948  0.0505  0.6094
  446MOL0     H60170   4.515  11.611   9.450 -0.8080 -0.8212 -3.3583
  446MOL0     H60171   4.720  11.714   9.361  3.9242  1.2757  0.2053
  446MOL0     H60172   5.131  11.595   9.122  0.2428  0.4608 -0.3235
  446MOL0     H60173   5.336  11.691   9.025  1.9190 -1.0058 -0.1319
  446MOL0     H60174   5.661  11.759   9.322 -1.7846 -0.2372 -0.1725
  446MOL0     H60175   5.693  11.584   9.290  1.1308  0.2375  2.4792
  446MOL0     H60176   5.835  11.650   9.091 -0.4632  0.3981 -0.9743
  446MOL0     H60177   5.791  11.820   9.109 -0.0687 -0.7276  0.0850
  446MOL0     H60178   5.907  11.799   9.342 -1.3520 -1.6901  0.7406
  446MOL0     H60179   5.942  11.636   9.296 -0.3310 -0.0567  0.1271
  446MOL0     H60180   6.027  11.886   9.137  1.0351 -0.1988 -1.0943
  446MOL0     H60181   6.077  11.725   9.094  0.0980 -0.7251  0.9406
  446MOL0     H60182   6.202  11.722   9.324  0.9875 -0.7800 -1.9006
  446MOL0     H60183   6.145  11.880   9.347  0.5959  0.5277 -0.0130
  446MOL0     H60184   6.332  11.794   9.114  0.2064  0.7107  0.5976
  446MOL0     H60185   6.248  11.947   9.116 -1.5441  0.7330  1.8991
  446MOL0     H60186   6.442  11.858   9.331 -2.7471 -0.8996  2.5451
  446MOL0     H60187   6.338  12.005   9.344 -2.4511  0.7592 -2.7190
  446MOL0     H60188   6.512  11.965   9.112  0.8623  2.0752  0.1367
  446MOL0     H60189   6.441  12.110   9.167  2.7776  0.9780 -0.2335
  446MOL0     H60190   5.514  11.634   9.416 -0.7110 -0.8037  0.5137
  446MOL0     H60191   5.311  11.589   9.512  0.7508  0.9280 -0.4000
  446MOL0     H60192   4.942  11.361   9.455  0.0149 -0.8042 -1.0904
  446MOL0     H60193   4.750  11.253   9.535 -2.8909 -0.2606  1.7046
  446MOL0     H60194   2.734  10.529   9.615  0.6201  1.2253 -0.7242
  446MOL0     H60195   2.506  10.470   9.653 -1.4835  0.8086 -0.0130
  446MOL0     H60196   2.048  10.632   9.416  0.0362  0.1755 -0.0765
  446MOL0     H60197   1.809  10.653   9.428  1.3829 -1.0036 -0.4683
  446MOL0     H60198   1.479  10.695   9.692  0.7185 -1.0397 -0.2354
  446MOL0     H60199   1.619  10.750   9.782  1.7112 -0.0205 -0.9434
  446MOL0     H60200   1.476  10.593   9.893 -1.7639  0.2642 -0.6836
  446MOL0     H60201   1.649  10.525   9.887  0.3255 -1.8127 -1.9304
  446MOL0     H60202   1.559  10.389   9.691 -1.0045  0.9476 -1.5722
  446MOL0     H60203   1.399  10.445   9.754  0.6339  1.9564  0.7383
  446MOL0     H60204   1.465  10.333   9.967  0.9378  0.1045  0.3269
  446MOL0     H60205   1.465  10.214   9.833  1.6123  0.1031 -2.2630
  446MOL0     H60206   1.861  10.193   9.969 -0.8320  0.8886  0.6803
  446MOL0     H60207   1.820  10.630   9.848 -0.9078  1.9766 -0.5298
  446MOL0     H60208   2.157  10.547   9.887 -0.1266 -0.8543 -1.4484
  446MOL0     H60209   2.108  10.720   9.907  2.5275 -1.6957 -1.0181
  446MOL0     H60210   2.009  10.583   9.965 -0.0353  0.0191  0.5884
  447MOL0     O60211   4.506   2.949  11.117 -0.2818 -0.0453  0.0140
  447MOL0     C60212   4.472   3.066  11.109 -0.3307 -0.4802 -0.1311
  447MOL0     O60213   4.544   3.166  11.039  0.1089  0.1857 -0.3339
  447MOL0     C60214   4.682   3.181  11.041 -1.0051 -0.8845  0.0534
  447MOL0     C60215   4.747   3.288  10.975 -0.0848 -0.3516  0.3606
  447MOL0     C60216   4.882   3.313  10.986  0.7007  0.3872  0.1987
  447MOL0     C60217   4.956   3.221  11.062  0.5619  0.1605  1.3759
  447MOL0     O60218   5.095   3.232  11.091  0.1539  0.7740 -0.4787
  447MOL0     C60219   5.153   3.368  11.117  0.0396 -0.3926  0.0169
  447MOL0     C60220   5.297   3.357  11.179 -0.2883  0.2882  0.0317
  447MOL0     C60221   5.389   3.287  11.075  0.1580  0.4394  0.3071
  447MOL0     C60222   5.538   3.300  11.108 -0.2977  0.1458 -0.2089
  447MOL0     C60223   5.625   3.219  11.010  0.7050 -0.7522  0.9340
  447MOL0     C60224   5.641   3.066  11.038  0.4886  0.3506 -0.9334
  447MOL0     C60225   5.722   2.994  10.930 -0.0598  0.5217 -0.6284
  447MOL0     C60226   5.700   2.837  10.945  0.5369 -0.3335  0.2124
  447MOL0     N60227   5.777   2.760  10.831 -0.0847 -0.5052 -0.7550
  447MOL0     C60228   5.730   2.756  10.699  0.2587 -0.4668  0.4555
  447MOL0     C60229   5.830   2.693  10.634 -0.2801 -0.5721 -0.1442
  447MOL0     C60230   5.831   2.681  10.478 -0.1535  0.6277 -0.0803
  447MOL0     C60231   5.968   2.699  10.418 -0.5982  0.1637  0.6231
  447MOL0     C60232   5.970   2.688  10.270  0.4492  0.9488  0.2686
  447MOL0     C60233   6.107   2.721  10.210 -0.2207 -0.0873 -0.6611
  447MOL0     O60234   6.151   2.848  10.255  0.2100 -0.3549  0.0182
  447MOL0     C60235   6.247   2.919  10.186 -0.1916 -0.6863  0.4671
  447MOL0     C60236   6.365   2.853  10.156 -0.2185 -0.1420 -0.3418
  447MOL0     C60237   6.468   2.918  10.087  1.1004 -0.3196 -0.0123
  447MOL0     C60238   6.444   3.054  10.031 -0.0714 -0.5030 -0.9310
  447MOL0     C60239   6.554   3.110   9.947  0.3865 -0.6953  0.3416
  447MOL0     O60240   6.657   3.024   9.912 -0.4552 -0.0100  0.3497
  447MOL0     C60241   6.751   3.074   9.830 -0.4655 -0.6369  0.3199
  447MOL0     C60242   6.818   3.195   9.863  0.3754 -0.4586  1.2718
  447MOL0     C60243   6.913   3.253   9.776  0.5837  0.3456 -0.3541
  447MOL0     C60244   6.963   3.182   9.672 -0.9899 -1.2522 -0.1535
  447MOL0     O60245   7.073   3.225   9.602 -0.6079 -0.3072 -0.5550
  447MOL0     C60246   7.146   3.334   9.647  0.0683  0.2494 -0.3140
  447MOL0     C60247   7.294   3.313   9.608 -0.2277  0.1597 -0.2835
  447MOL0     C60248   7.364   3.438   9.653  0.3324 -0.5471  0.8215
  447MOL0     C60249   7.516   3.426   9.625  0.1565 -0.1576 -0.0319
  447MOL0     C60250   7.578   3.565   9.647 -0.0530 -0.1468  0.4335
  447MOL0     C60251   7.730   3.581   9.614  0.1749 -0.3972  0.4762
  447MOL0     C60252   7.739   3.546   9.464 -0.5554  0.6091  0.2358
  447MOL0     C60253   7.889   3.564   9.408  0.1079 -0.4630  0.5262
  447MOL0    Cl60254   8.019   3.491   9.514  0.3523 -0.0803 -0.4875
  447MOL0     C60255   6.898   3.065   9.631  0.3245  0.1958 -0.4766
  447MOL0     C60256   6.804   3.008   9.711 -0.3297 -0.9494  0.1999
  447MOL0     O60257   6.531   3.226   9.904 -0.5306 -0.5327  0.3327
  447MOL0     C60258   6.321   3.122  10.074  0.1597  0.0757 -0.0685
  447MOL0     C60259   6.226   3.054  10.146 -0.5460  0.6221 -0.9195
  447MOL0     N60260   5.933   2.660  10.720  0.2306  0.0886 -0.3322
  447MOL0     N60261   5.901   2.704  10.837 -0.4706  0.5437  0.5574
  447MOL0     C60262   4.901   3.122  11.126 -0.0241 -0.3100 -0.1246
  447MOL0     C60263   4.762   3.103  11.119 -0.5986 -0.8672  0.3799
  447MOL0     C60264   4.343   3.104  11.176  0.1467  0.5744 -0.9996
  447MOL0     C60265   4.332   3.200  11.279  0.7770 -0.0663 -0.0755
  447MOL0     C60266   4.219   3.227  11.360 -0.0800  0.4328  0.3844
  447MOL0     C60267   4.102   3.152  11.345 -1.0570  0.2366  0.4073
  447MOL0     O60268   3.983   3.167  11.406 -0.1902  0.5402  0.3188
  447MOL0     C60269   3.997   3.198  11.550  0.8269 -0.7785  0.7887
  447MOL0     C60270   3.847   3.201  11.604 -0.0970 -0.2036 -0.6529
  447MOL0     C60271   3.778   3.063  11.584 -0.3564  0.3127 -0.6388
  447MOL0     C60272   3.649   3.050  11.669 -0.0732 -0.4809 -1.1443
  447MOL0     C60273   3.546   3.153  11.637 -0.6707  0.1054 -0.6126
  447MOL0     C60274   3.479   3.251  11.609 -0.2095 -0.0343  0.4524
  447MOL0     C60275   4.099   3.053  11.243  0.8937 -0.1538  0.9569
  447MOL0     C60276   4.220   3.030  11.165 -0.1326 -0.7054 -0.2794
  447MOL0     C60277   4.210   2.920  11.069 -0.1641  0.7769 -0.0590
  447MOL0     H60278   4.688   3.362  10.922  0.7583 -0.1553 -0.3200
  447MOL0     H60279   4.934   3.395  10.937  0.0052 -0.7895 -2.6819
  447MOL0     H60280   5.143   3.426  11.024  1.1731 -2.0540 -1.2125
  447MOL0     H60281   5.082   3.421  11.181 -1.0661  1.9757 -2.9115
  447MOL0     H60282   5.292   3.303  11.274 -0.7480  0.4831  0.1230
  447MOL0     H60283   5.327   3.460  11.202  0.4928 -0.3599  2.1402
  447MOL0     H60284   5.384   3.323  10.972  1.2111 -0.1555  0.0400
  447MOL0     H60285   5.360   3.182  11.075  0.1935  0.4084  1.5663
  447MOL0     H60286   5.559   3.407  11.099  2.1144 -0.1986  0.5947
  447MOL0     H60287   5.559   3.281  11.214 -0.0840  1.4004 -0.0060
  447MOL0     H60288   5.566   3.229  10.918 -0.6982  1.5152  1.9852
  447MOL0     H60289   5.720   3.270  10.996  0.8006 -1.5096 -1.5908
  447MOL0     H60290   5.701   3.060  11.130  0.5146  1.5992 -0.8513
  447MOL0     H60291   5.543   3.018  11.049  1.3244 -1.4656 -1.2249
  447MOL0     H60292   5.828   3.022  10.933  0.4997 -1.4251 -1.0101
  447MOL0     H60293   5.682   3.024  10.833 -3.2120  0.4953  0.5497
  447MOL0     H60294   5.746   2.801  11.037 -0.6682  1.8062  1.7385
  447MOL0     H60295   5.595   2.808  10.942 -0.5017  3.0815 -1.2714
  447MOL0     H60296   5.641   2.809  10.667  0.8380  0.7027  0.6944
  447MOL0     H60297   5.787   2.585  10.451  1.0524  0.2138 -0.6491
  447MOL0     H60298   5.771   2.766  10.442  1.9722  2.1354 -0.2728
  447MOL0     H60299   6.006   2.800  10.437 -0.1189 -0.2290  1.8334
  447MOL0     H60300   6.035   2.622  10.457 -0.0339  0.4918  0.3115
  447MOL0     H60301   5.901   2.760  10.223 -4.1780 -3.6814 -0.9098
  447MOL0     H60302   5.945   2.586  10.241 -1.0708  1.7429 -1.4599
  447MOL0     H60303   6.102   2.724  10.101 -0.1325  0.7452 -0.6466
  447MOL0     H60304   6.180   2.646  10.244 -0.6499 -0.9747 -1.6570
  447MOL0     H60305   6.375   2.750  10.189 -2.5239 -0.6681 -1.0551
  447MOL0     H60306   6.560   2.860  10.082  0.4879 -1.2724 -4.3629
  447MOL0     H60307   6.789   3.242   9.956 -1.2368  0.4161  0.3713
  447MOL0     H60308   6.961   3.344   9.810  2.7538 -0.4078 -1.2408
  447MOL0     H60309   7.109   3.424   9.597  1.5597  1.8919  1.3643
  447MOL0     H60310   7.150   3.341   9.756  1.2547  0.8257 -0.3734
  447MOL0     H60311   7.344   3.223   9.646  3.2936  2.0362 -0.0770
  447MOL0     H60312   7.308   3.326   9.500  2.3886 -0.2481 -0.0569
  447MOL0     H60313   7.321   3.527   9.605  2.2794 -0.3115 -0.6047
  447MOL0     H60314   7.346   3.452   9.760  1.7261 -3.6460  1.5534
  447MOL0     H60315   7.523   3.391   9.521  0.8481 -2.0990  0.6286
  447MOL0     H60316   7.560   3.349   9.687  0.6747  0.2392  0.0989
  447MOL0     H60317   7.565   3.597   9.750 -2.3027 -0.5877  0.3314
  447MOL0     H60318   7.518   3.636   9.589 -3.1856 -1.5299  1.7245
  447MOL0     H60319   7.760   3.686   9.623  0.6595 -0.6863  3.1594
  447MOL0     H60320   7.796   3.520   9.676  0.3491 -3.1317 -2.1890
  447MOL0     H60321   7.672   3.613   9.409  0.8870  0.9374 -1.1989
  447MOL0     H60322   7.709   3.442   9.444 -1.8032  1.2980 -1.8187
  447MOL0     H60323   7.902   3.511   9.313  1.0012 -1.1462  1.0198
  447MOL0     H60324   7.906   3.672   9.397 -3.3331  0.0961 -0.7884
  447MOL0     H60325   6.924   3.008   9.542  1.6221  0.4223 -0.2654
  447MOL0     H60326   6.760   2.912   9.687  0.9242 -1.7407  0.9715
  447MOL0     H60327   6.300   3.227  10.056 -1.9976 -0.1442  0.8466
  447MOL0     H60328   6.125   3.090  10.166 -0.2345  2.2148 -2.0927
  447MOL0     H60329   4.963   3.058  11.188 -3.3990 -1.9915  1.8126
  447MOL0     H60330   4.714   3.028  11.182 -2.8025  1.6568  1.8975
  447MOL0     H60331   4.417   3.266  11.294  1.2901 -0.3202 -1.6743
  447MOL0     H60332   4.228   3.308  11.431 -0.8120 -1.0338  2.2105
  447MOL0     H60333   4.045   3.295  11.568  0.0322 -0.9334  4.3393
  447MOL0     H60334   4.063   3.123  11.593  2.6682  0.1652 -0.2937
  447MOL0     H60335   3.791   3.278  11.551  1.7099  2.6299  1.2684
  447MOL0     H60336   3.853   3.218  11.712 -0.5161 -3.6410  0.0450
  447MOL0     H60337   3.841   2.982  11.622  1.0887  1.2636 -0.9134
  447MOL0     H60338   3.745   3.042  11.482 -2.3061 -0.0208  0.0308
  447MOL0     H60339   3.606   2.951  11.656 -4.6177  0.7576  1.8255
  447MOL0     H60340   3.667   3.062  11.777  0.0166 -0.8776 -1.1150
  447MOL0     H60341   3.414   3.334  11.590 -1.5697 -0.9968  0.6473
  447MOL0     H60342   4.011   2.992  11.224  1.8175 -1.1140 -0.4283
  447MOL0     H60343   4.251   2.957  10.975 -0.3891  0.5217 -0.2584
  447MOL0     H60344   4.266   2.830  11.096  0.7913  0.9585 -1.3368
  447MOL0     H60345   4.107   2.885  11.055  0.4333 -1.8895  1.5507
  448MOL0     O60346   3.739   5.910   6.774 -0.3044  0.3645 -0.2511
  448MOL0     C60347   3.763   5.794   6.811  0.3639  0.1425 -0.2907
  448MOL0     O60348   3.885   5.733   6.840 -0.4868 -0.5171 -0.1196
  448MOL0     C60349   4.007   5.783   6.800  1.1182 -0.0589  0.4396
  448MOL0     C60350   4.036   5.915   6.829 -0.5691  0.6819 -0.5700
  448MOL0     C60351   4.155   5.976   6.788  0.0913  0.6550  0.7154
  448MOL0     C60352   4.246   5.897   6.707 -0.9413 -0.5478 -0.7296
  448MOL0     O60353   4.365   5.947   6.648 -0.3541  0.7898 -0.9450
  448MOL0     C60354   4.393   6.092   6.660 -0.0160  1.5168 -0.7682
  448MOL0     C60355   4.453   6.129   6.797 -0.2715  0.3208  0.6434
  448MOL0     C60356   4.584   6.069   6.816 -0.3196 -0.6616 -0.3507
  448MOL0     C60357   4.668   6.182   6.881 -0.5349 -1.2670  1.0400
  448MOL0     C60358   4.813   6.129   6.902 -0.5057  0.0224 -1.2600
  448MOL0     C60359   4.914   6.228   6.961  0.5487  0.3500 -0.1984
  448MOL0     C60360   5.061   6.185   6.943  0.0997 -0.4186 -0.5674
  448MOL0     C60361   5.098   6.174   6.797 -0.4364  1.2265  0.3293
  448MOL0     N60362   5.230   6.240   6.784 -0.0517 -0.6155  0.8012
  448MOL0     C60363   5.338   6.211   6.861  0.2736 -0.5857  0.3934
  448MOL0     C60364   5.424   6.306   6.827  0.6430  0.6094 -0.1171
  448MOL0     C60365   5.559   6.326   6.890 -0.2912 -0.1443  0.3050
  448MOL0     C60366   5.660   6.225   6.842 -0.6405  0.7546 -0.1576
  448MOL0     C60367   5.782   6.225   6.935  1.0907  0.5047 -0.2873
  448MOL0     C60368   5.911   6.167   6.875  0.1540  0.3966 -0.5085
  448MOL0     O60369   5.932   6.210   6.744  0.1052  0.0717  0.0885
  448MOL0     C60370   6.033   6.149   6.669 -0.4690  0.0041  0.4298
  448MOL0     C60371   6.135   6.077   6.722  0.9651  1.3570 -0.2933
  448MOL0     C60372   6.233   6.022   6.636  0.4056 -0.0345  0.1378
  448MOL0     C60373   6.222   6.039   6.495 -0.2623  0.4359 -0.0744
  448MOL0     C60374   6.312   5.963   6.406  0.2531 -0.6977 -0.4059
  448MOL0     O60375   6.414   5.870   6.451  0.8210 -0.4783 -0.1871
  448MOL0     C60376   6.513   5.849   6.354 -0.7527  0.0967 -1.5414
  448MOL0     C60377   6.580   5.944   6.278  0.3420 -0.0241  0.4626
  448MOL0     C60378   6.687   5.922   6.192  0.7213 -0.2633  0.0241
  448MOL0     C60379   6.752   5.788   6.196  0.6635  0.0913  1.0701
  448MOL0     O60380   6.861   5.765   6.118 -0.4027  0.3332 -0.3335
  448MOL0     C60381   6.932   5.643   6.122  0.2982  0.0968 -0.6150
  448MOL0     C60382   7.018   5.627   5.995  0.4078 -0.0011 -1.1232
  448MOL0     C60383   7.138   5.730   6.005  0.4960 -0.1556 -0.4520
  448MOL0     C60384   7.242   5.695   5.909 -0.1212 -0.3554  0.3206
  448MOL0     C60385   7.326   5.584   5.966  0.0291  0.1493  0.6691
  448MOL0     C60386   7.404   5.533   5.846  0.7816 -0.2157  0.0358
  448MOL0     C60387   7.503   5.641   5.800 -0.3642 -0.7702 -0.0137
  448MOL0     C60388   7.650   5.583   5.786  0.2886  0.2626 -0.1942
  448MOL0    Cl60389   7.773   5.699   5.742  0.1486  0.0571  0.0375
  448MOL0     C60390   6.681   5.689   6.266  1.8048 -0.6580 -0.4403
  448MOL0     C60391   6.571   5.720   6.352 -0.1740 -0.1090  0.1563
  448MOL0     O60392   6.286   5.991   6.289 -0.4518  0.0628  0.3976
  448MOL0     C60393   6.112   6.116   6.447  0.1332  0.6955 -0.6558
  448MOL0     C60394   6.017   6.168   6.529 -0.5184  0.2925  0.2606
  448MOL0     N60395   5.380   6.380   6.723  0.5311  0.2504 -0.0217
  448MOL0     N60396   5.259   6.344   6.703 -0.9555 -0.8858 -0.1355
  448MOL0     C60397   4.217   5.766   6.681  0.6595  0.1443  0.5295
  448MOL0     C60398   4.095   5.713   6.728 -0.5698  0.8800  0.3181
  448MOL0     C60399   3.657   5.700   6.815 -0.1440  0.9350  0.2815
  448MOL0     C60400   3.681   5.562   6.802  0.7238 -0.5119  0.4402
  448MOL0     C60401   3.573   5.469   6.803 -0.4220 -0.7803  0.4666
  448MOL0     C60402   3.448   5.514   6.824 -0.1621  0.1712  0.1573
  448MOL0     O60403   3.357   5.413   6.805  0.4993  0.9905  0.1249
  448MOL0     C60404   3.220   5.450   6.788  0.5536 -0.0631  0.9116
  448MOL0     C60405   3.181   5.351   6.676 -0.7969  0.1267 -0.1621
  448MOL0     C60406   3.038   5.382   6.630 -0.4269  0.0656  0.0910
  448MOL0     C60407   2.989   5.264   6.554  0.1477 -0.0543 -0.3835
  448MOL0     C60408   2.844   5.259   6.566  0.3731 -0.5400  0.7064
  448MOL0     C60409   2.719   5.258   6.568  0.3324 -0.0498  0.4342
  448MOL0     C60410   3.419   5.654   6.840 -1.1097  0.2592  0.0023
  448MOL0     C60411   3.533   5.739   6.841 -0.1363  0.1537 -0.3367
  448MOL0     C60412   3.499   5.874   6.896 -0.2813  0.4676 -0.0471
  448MOL0     H60413   3.973   5.982   6.887  0.0842  0.3686  0.5291
  448MOL0     H60414   4.166   6.083   6.799  0.5932  0.7185 -0.2749
  448MOL0     H60415   4.461   6.126   6.581 -0.0604  1.5217 -0.8039
  448MOL0     H60416   4.301   6.150   6.644 -0.2229  0.6364 -3.0946
  448MOL0     H60417   4.396   6.090   6.882  0.1054 -2.0614 -0.1445
  448MOL0     H60418   4.466   6.238   6.797 -0.8717  0.3941  0.6457
  448MOL0     H60419   4.625   6.040   6.719 -0.1034 -0.8373 -0.2097
  448MOL0     H60420   4.580   5.985   6.887 -1.5641  1.3263  2.1065
  448MOL0     H60421   4.671   6.266   6.811 -0.3992 -2.6287 -0.6797
  448MOL0     H60422   4.630   6.224   6.974  0.4460  3.1767 -0.3108
  448MOL0     H60423   4.804   6.032   6.951  1.7299 -0.0917 -0.9914
  448MOL0     H60424   4.852   6.098   6.805 -0.4296 -2.4138 -0.5113
  448MOL0     H60425   4.894   6.323   6.911 -1.9668 -0.4138 -0.7859
  448MOL0     H60426   4.900   6.256   7.066  1.1933  1.4209 -0.3900
  448MOL0     H60427   5.068   6.087   6.992 -1.0066 -0.9382 -1.3837
  448MOL0     H60428   5.134   6.248   6.994  0.3264 -2.2475  1.5641
  448MOL0     H60429   5.101   6.070   6.766 -1.0321  1.0067  1.0083
  448MOL0     H60430   5.033   6.231   6.730 -2.6419 -2.3098 -0.7914
  448MOL0     H60431   5.358   6.135   6.935 -0.3181 -2.5877 -1.4117
  448MOL0     H60432   5.595   6.427   6.868  1.5865 -0.5586  1.2974
  448MOL0     H60433   5.554   6.313   6.999  1.9948  2.1814  0.7711
  448MOL0     H60434   5.611   6.128   6.836  0.4743  0.2265 -1.0401
  448MOL0     H60435   5.694   6.244   6.739  1.6742  0.4327  0.4892
  448MOL0     H60436   5.764   6.157   7.019  1.8055  1.1133  0.3809
  448MOL0     H60437   5.800   6.326   6.974 -1.8180  0.8108  0.4742
  448MOL0     H60438   5.902   6.058   6.877 -0.6659  0.3361 -3.3994
  448MOL0     H60439   5.996   6.199   6.936 -0.2012 -0.0952  0.2569
  448MOL0     H60440   6.132   6.067   6.829 -2.6212 -0.5255 -0.4233
  448MOL0     H60441   6.314   5.958   6.670  1.8852  0.5381 -2.0612
  448MOL0     H60442   6.538   6.045   6.284 -3.5933 -1.0884 -3.3757
  448MOL0     H60443   6.725   6.000   6.128  3.2319 -0.4938  1.0994
  448MOL0     H60444   6.995   5.645   6.211  1.5263  0.5743 -1.4734
  448MOL0     H60445   6.865   5.559   6.140  2.1645 -0.7304  3.4412
  448MOL0     H60446   7.063   5.528   5.991  2.8174  1.0082 -0.6212
  448MOL0     H60447   6.945   5.645   5.915 -1.3885 -0.1523  0.4096
  448MOL0     H60448   7.089   5.822   5.971 -1.4794 -0.1695  2.1188
  448MOL0     H60449   7.186   5.750   6.101  0.9686 -0.2822 -0.6592
  448MOL0     H60450   7.309   5.779   5.889  1.1701 -1.6671 -1.2947
  448MOL0     H60451   7.191   5.665   5.816 -0.0144 -1.2079  0.5314
  448MOL0     H60452   7.261   5.504   6.004 -1.3574  0.7034 -0.4345
  448MOL0     H60453   7.390   5.610   6.050  2.5329 -1.6324 -0.5872
  448MOL0     H60454   7.452   5.438   5.871  3.2573  0.5048 -1.6135
  448MOL0     H60455   7.338   5.513   5.760  1.6854 -1.0439 -0.4867
  448MOL0     H60456   7.518   5.723   5.871  1.0584 -0.7270 -0.3505
  448MOL0     H60457   7.476   5.683   5.703  1.0051  0.8946  0.2859
  448MOL0     H60458   7.681   5.526   5.875 -2.4803 -0.4321  0.4391
  448MOL0     H60459   7.634   5.503   5.713  1.3217 -3.5114  3.2767
  448MOL0     H60460   6.701   5.582   6.269  0.0701 -1.0720  3.7726
  448MOL0     H60461   6.529   5.642   6.414 -0.7674 -0.4959 -0.7029
  448MOL0     H60462   6.087   6.128   6.342  1.2381  1.4601 -0.8461
  448MOL0     H60463   5.936   6.234   6.502  0.7112  2.0954  0.8155
  448MOL0     H60464   4.285   5.708   6.619  0.1757 -1.5324  1.4919
  448MOL0     H60465   4.075   5.607   6.714  1.5745  0.4465  0.2273
  448MOL0     H60466   3.781   5.529   6.776  1.6292  1.2408  1.4867
  448MOL0     H60467   3.594   5.365   6.783  1.6402 -0.1505 -1.0995
  448MOL0     H60468   3.198   5.553   6.758 -1.8908 -0.8345 -0.2865
  448MOL0     H60469   3.157   5.429   6.875 -0.5626 -1.2251 -0.1378
  448MOL0     H60470   3.196   5.250   6.714  1.6285  0.4935  0.0122
  448MOL0     H60471   3.245   5.364   6.588  1.1491 -0.8583  1.0378
  448MOL0     H60472   3.039   5.474   6.571  4.2225  1.0980  1.3851
  448MOL0     H60473   2.974   5.401   6.716  0.2629  3.2195 -0.0011
  448MOL0     H60474   3.013   5.260   6.447 -0.8689 -0.3409 -0.6101
  448MOL0     H60475   3.014   5.172   6.607  0.8927 -0.3026 -1.1436
  448MOL0     H60476   2.615   5.244   6.549  1.2545 -0.9967 -5.8162
  448MOL0     H60477   3.318   5.695   6.849 -0.1966  3.0402 -1.1835
  448MOL0     H60478   3.422   5.856   6.972 -0.0282 -0.8385 -0.0794
  448MOL0     H60479   3.583   5.929   6.941 -1.0615  3.6908 -2.1654
  448MOL0     H60480   3.465   5.942   6.818 -0.5173 -0.6341 -0.9338
  449MOL0     O60481   0.209   7.598   4.324 -0.3716  0.3268  0.0599
  449MOL0     C60482   0.160   7.636   4.425  0.1850 -0.7896 -0.2498
  449MOL0     O60483   0.222   7.673   4.548  0.4102 -1.1447  0.3295
  449MOL0     C60484   0.346   7.634   4.562  0.3099 -1.0856 -0.3931
  449MOL0     C60485   0.440   7.733   4.584  0.6383  0.4358 -0.4857
  449MOL0     C60486   0.575   7.703   4.598 -0.3158  0.5739 -0.5035
  449MOL0     C60487   0.617   7.561   4.587  0.0912 -1.4251 -0.0397
  449MOL0     O60488   0.751   7.541   4.597  0.3298  0.5326  0.1295
  449MOL0     C60489   0.803   7.423   4.538 -0.2313  0.2487  0.3407
  449MOL0     C60490   0.950   7.447   4.582  0.8240 -0.4486 -0.1995
  449MOL0     C60491   1.039   7.359   4.500 -0.1162  0.6809  0.2617
  449MOL0     C60492   1.167   7.437   4.484 -0.7524 -0.3505  0.0272
  449MOL0     C60493   1.283   7.365   4.417 -1.1286  0.7142 -0.8131
  449MOL0     C60494   1.419   7.439   4.436 -0.0716  0.1147 -0.7803
  449MOL0     C60495   1.526   7.363   4.364  0.0068  0.2806  0.0857
  449MOL0     C60496   1.653   7.396   4.439 -2.0154  0.7177  0.0221
  449MOL0     N60497   1.759   7.327   4.376 -0.0172  0.1626 -0.1227
  449MOL0     C60498   1.833   7.384   4.278 -0.4296 -0.1279 -0.2235
  449MOL0     C60499   1.946   7.320   4.280 -0.1635  0.3062  0.0132
  449MOL0     C60500   2.071   7.360   4.208 -0.3983 -0.4816  0.0028
  449MOL0     C60501   2.125   7.489   4.267 -0.3284 -0.1731  0.8212
  449MOL0     C60502   2.109   7.601   4.163 -0.1481 -0.4673  0.5170
  449MOL0     C60503   2.220   7.595   4.060 -0.2498  0.4089 -0.4360
  449MOL0     O60504   2.245   7.711   3.979 -0.0606  0.7804  0.1508
  449MOL0     C60505   2.368   7.754   3.974 -0.0539 -1.2341 -0.3576
  449MOL0     C60506   2.414   7.823   4.084  0.0882 -0.9664  0.3554
  449MOL0     C60507   2.542   7.870   4.092 -0.2882 -0.1156  0.3603
  449MOL0     C60508   2.634   7.845   3.986 -0.1194  0.4252  0.3699
  449MOL0     C60509   2.763   7.912   3.978 -0.2848 -0.4781  0.2698
  449MOL0     O60510   2.851   7.879   3.883 -0.1718 -0.0433 -0.2163
  449MOL0     C60511   2.973   7.941   3.872 -0.5563 -0.8665 -0.8285
  449MOL0     C60512   2.992   8.051   3.786 -0.7250  0.5534  0.4173
  449MOL0     C60513   3.123   8.100   3.757 -0.9101 -0.9867 -1.2175
  449MOL0     C60514   3.235   8.045   3.823  0.0809  0.2120  0.0939
  449MOL0     O60515   3.352   8.112   3.806  0.3148  0.4844 -0.1228
  449MOL0     C60516   3.469   8.040   3.827  0.4521 -0.3164 -0.4923
  449MOL0     C60517   3.583   8.134   3.784 -0.6615 -0.0022  0.2628
  449MOL0     C60518   3.722   8.061   3.792  0.5983  0.1237  0.4647
  449MOL0     C60519   3.819   8.118   3.691  0.3536  0.1206 -0.3260
  449MOL0     C60520   3.866   8.265   3.732  0.2705 -0.1984 -0.7012
  449MOL0     C60521   3.939   8.254   3.863  0.2062 -0.4628  0.6688
  449MOL0     C60522   4.000   8.389   3.904  1.2086  0.0270 -0.0555
  449MOL0     C60523   4.112   8.382   4.004 -0.9315 -1.1535 -0.4458
  449MOL0    Cl60524   4.246   8.288   3.940  0.2974  0.2853 -0.3010
  449MOL0     C60525   3.217   7.930   3.901 -0.2453  0.2091  0.8415
  449MOL0     C60526   3.088   7.878   3.933 -0.2408 -0.1908  0.1505
  449MOL0     O60527   2.780   8.017   4.047  0.4364  0.1251  0.2607
  449MOL0     C60528   2.583   7.777   3.879 -0.0133 -0.0406  0.1051
  449MOL0     C60529   2.449   7.732   3.868  0.1784  0.1392  0.9944
  449MOL0     N60530   1.937   7.210   4.362 -0.2333  0.4312 -1.2851
  449MOL0     N60531   1.824   7.213   4.425 -0.2002 -0.3889 -0.4707
  449MOL0     C60532   0.518   7.468   4.565  0.2482 -0.5718  0.4248
  449MOL0     C60533   0.390   7.506   4.551  0.5782  0.0408 -1.5919
  449MOL0     C60534   0.022   7.676   4.415 -0.2824  0.1929 -0.3948
  449MOL0     C60535   0.002   7.816   4.448  0.1964  0.9551  0.0485
  449MOL0     C60536  -0.117   7.872   4.448  0.0514  0.1182  0.7180
  449MOL0     C60537  -0.226   7.798   4.420  0.6917  0.1332 -0.3701
  449MOL0     O60538  -0.354   7.847   4.408  0.1505  0.8168 -0.0534
  449MOL0     C60539  -0.393   7.963   4.462  0.1696  0.0439 -0.1878
  449MOL0     C60540  -0.543   7.959   4.455  0.2409  0.0241 -0.4594
  449MOL0     C60541  -0.597   7.870   4.555  0.7056  0.6793 -0.4194
  449MOL0     C60542  -0.751   7.851   4.565 -0.2418 -0.6161  0.2228
  449MOL0     C60543  -0.793   7.788   4.445 -0.7603  0.4311 -0.0551
  449MOL0     C60544  -0.829   7.729   4.341 -0.8068 -0.1476 -1.2006
  449MOL0     C60545  -0.213   7.657   4.386  1.7967  0.0525  0.7530
  449MOL0     C60546  -0.090   7.599   4.387  0.5420 -0.5168 -0.7406
  449MOL0     C60547  -0.081   7.446   4.364 -0.2207 -0.2733 -0.2081
  449MOL0     H60548   0.410   7.837   4.580  1.0142  0.5479 -0.4289
  449MOL0     H60549   0.653   7.776   4.620  0.8342 -0.8900  0.4147
  449MOL0     H60550   0.763   7.337   4.591  2.0772 -0.0119  1.8032
  449MOL0     H60551   0.792   7.416   4.429  2.5761  2.9021 -0.2467
  449MOL0     H60552   0.973   7.420   4.685  3.0468 -0.3599 -0.6138
  449MOL0     H60553   0.982   7.552   4.574  1.4928 -0.5721  0.7887
  449MOL0     H60554   1.012   7.331   4.398 -0.2486 -0.7120  0.6632
  449MOL0     H60555   1.047   7.266   4.557 -1.3336  1.0734  1.1222
  449MOL0     H60556   1.146   7.518   4.414 -1.5008 -0.7378 -0.2099
  449MOL0     H60557   1.198   7.477   4.581  0.4298  0.0355 -0.4943
  449MOL0     H60558   1.287   7.268   4.467 -0.4063  1.2005  0.1082
  449MOL0     H60559   1.264   7.352   4.310  0.0127 -0.1400 -0.9408
  449MOL0     H60560   1.400   7.542   4.406 -0.3698 -0.5859 -3.2114
  449MOL0     H60561   1.444   7.438   4.542 -0.4137  0.3679 -0.6928
  449MOL0     H60562   1.531   7.392   4.259 -0.2005  0.8830  0.2364
  449MOL0     H60563   1.506   7.256   4.366  0.0849  0.2670  0.1439
  449MOL0     H60564   1.667   7.504   4.439  0.7981  0.4776  2.4088
  449MOL0     H60565   1.664   7.369   4.545  0.9191  3.2650  0.5109
  449MOL0     H60566   1.820   7.484   4.237 -0.3027 -0.5032 -1.2141
  449MOL0     H60567   2.148   7.284   4.223 -0.0927 -0.0507  0.6623
  449MOL0     H60568   2.052   7.372   4.101 -1.4582 -2.6393 -0.0868
  449MOL0     H60569   2.074   7.522   4.358  2.9978  2.9521  1.8195
  449MOL0     H60570   2.231   7.488   4.296  0.8368 -0.3611 -2.8863
  449MOL0     H60571   2.125   7.692   4.222 -0.5390  1.0828 -1.6186
  449MOL0     H60572   2.011   7.601   4.114  0.6292 -2.3829 -1.1619
  449MOL0     H60573   2.193   7.513   3.993 -1.2801 -0.4548  0.9884
  449MOL0     H60574   2.311   7.561   4.110 -0.2893 -1.2307 -1.4031
  449MOL0     H60575   2.354   7.843   4.173 -0.4144 -0.5183 -0.0744
  449MOL0     H60576   2.554   7.944   4.170 -0.8410  1.8782 -1.3416
  449MOL0     H60577   2.905   8.093   3.738 -0.4980 -0.0308 -0.5379
  449MOL0     H60578   3.151   8.188   3.699  0.7737  0.8976  2.1631
  449MOL0     H60579   3.489   8.021   3.933 -2.4202 -0.2350  0.1454
  449MOL0     H60580   3.457   7.942   3.780 -2.6504 -0.3973  0.2425
  449MOL0     H60581   3.567   8.162   3.680  3.5634  1.9645 -0.1096
  449MOL0     H60582   3.595   8.227   3.840 -0.4230 -0.6909  1.3892
  449MOL0     H60583   3.755   8.059   3.896 -3.8827  0.4823  2.1316
  449MOL0     H60584   3.714   7.955   3.765 -0.1907  0.1082  0.7164
  449MOL0     H60585   3.761   8.131   3.599 -4.9141 -1.4701  2.3620
  449MOL0     H60586   3.901   8.046   3.691 -0.4131 -1.0633  4.1617
  449MOL0     H60587   3.780   8.331   3.750  1.7528  1.5741  0.2222
  449MOL0     H60588   3.933   8.303   3.655  1.8381  0.4281  0.9170
  449MOL0     H60589   3.876   8.219   3.946  0.1150 -2.7994 -0.3194
  449MOL0     H60590   4.022   8.184   3.851 -0.0494 -0.5981 -0.3651
  449MOL0     H60591   3.928   8.455   3.953  3.9330  1.5965  2.1465
  449MOL0     H60592   4.033   8.446   3.817 -1.5674  1.9511  0.0098
  449MOL0     H60593   4.143   8.485   4.024 -2.4075 -0.9856  1.2000
  449MOL0     H60594   4.079   8.346   4.102 -0.4297  0.4682  0.3539
  449MOL0     H60595   3.299   7.873   3.944 -0.3383 -0.1002  0.6108
  449MOL0     H60596   3.075   7.789   3.994  1.2119  1.4880  3.0982
  449MOL0     H60597   2.647   7.739   3.800 -2.0283  0.1614 -1.7212
  449MOL0     H60598   2.422   7.668   3.784 -0.0291  2.6626 -0.9849
  449MOL0     H60599   0.538   7.362   4.559 -3.1675 -1.2556 -2.2940
  449MOL0     H60600   0.319   7.425   4.532 -1.9179  1.2158  1.6712
  449MOL0     H60601   0.094   7.871   4.469  0.3576  0.5666  0.3639
  449MOL0     H60602  -0.123   7.975   4.484 -0.6528 -0.9027  3.8041
  449MOL0     H60603  -0.354   8.048   4.404  1.6853 -0.4824  0.0124
  449MOL0     H60604  -0.363   7.970   4.567  0.2767  3.5594 -0.3202
  449MOL0     H60605  -0.577   7.919   4.359  0.6344 -0.6929 -0.3021
  449MOL0     H60606  -0.582   8.058   4.484 -3.8350 -1.4163 -0.4175
  449MOL0     H60607  -0.562   7.907   4.652 -0.2575 -1.1464  0.6782
  449MOL0     H60608  -0.558   7.770   4.535  0.7299  1.0694 -2.5691
  449MOL0     H60609  -0.777   7.780   4.644 -0.3935 -1.2723 -0.4122
  449MOL0     H60610  -0.781   7.953   4.590  1.5784  0.0518 -0.1307
  449MOL0     H60611  -0.864   7.676   4.256  0.8752 -3.9705  0.2808
  449MOL0     H60612  -0.309   7.615   4.358  3.1910 -2.3842 -0.7849
  449MOL0     H60613   0.015   7.408   4.401  0.6944  2.5030  0.4956
  449MOL0     H60614  -0.165   7.400   4.417 -1.1535  3.2512  1.7009
  449MOL0     H60615  -0.084   7.434   4.255 -0.6611  0.1968 -0.2525
  450MOL0     O60616   7.823   3.028  10.157  0.8284 -0.5052 -0.3717
  450MOL0     C60617   7.767   3.130  10.127 -0.3097 -0.2915 -0.3217
  450MOL0     O60618   7.831   3.249  10.125  0.6687  0.4901  0.3933
  450MOL0     C60619   7.966   3.276  10.142 -0.7017 -0.0148  0.5777
  450MOL0     C60620   8.005   3.388  10.219  0.5996  0.6427  0.2249
  450MOL0     C60621   8.135   3.421  10.239 -0.1171 -0.5518 -0.1762
  450MOL0     C60622   8.237   3.342  10.176 -0.3031 -0.6708 -0.1312
  450MOL0     O60623   8.368   3.397  10.187  0.7449 -0.2876 -0.5936
  450MOL0     C60624   8.474   3.317  10.121 -0.6478  0.7993 -0.4314
  450MOL0     C60625   8.600   3.390  10.173  0.5409 -0.8895  0.0338
  450MOL0     C60626   8.723   3.378  10.084 -0.1520 -0.7330  0.2297
  450MOL0     C60627   8.843   3.463  10.146  0.1811  0.0946  0.0124
  450MOL0     C60628   8.900   3.548  10.029 -0.3512 -0.3596 -0.0035
  450MOL0     C60629   9.019   3.626  10.078  0.5527  0.3683  0.1029
  450MOL0     C60630   9.144   3.533  10.097 -0.0541  0.6715  0.5244
  450MOL0     C60631   9.259   3.615  10.139  0.0840  0.0363  0.3288
  450MOL0     N60632   9.374   3.552  10.202  0.6297 -0.4204  0.2509
  450MOL0     C60633   9.370   3.444  10.285  0.8130 -0.1414  0.4753
  450MOL0     C60634   9.483   3.462  10.365  0.0027 -0.4880  0.2386
  450MOL0     C60635   9.506   3.374  10.488  0.9949 -0.2074  0.2531
  450MOL0     C60636   9.637   3.392  10.555 -0.2374 -0.0399  0.0592
  450MOL0     C60637   9.670   3.276  10.640  0.4001 -0.6245 -0.0331
  450MOL0     C60638   9.793   3.300  10.736  0.5581  0.7659  0.1216
  450MOL0     O60639   9.907   3.358  10.657 -0.2193 -0.1075 -0.0664
  450MOL0     C60640  10.022   3.396  10.712 -0.1517 -1.7408 -0.1627
  450MOL0     C60641  10.128   3.451  10.628  0.1311  0.3154 -0.0637
  450MOL0     C60642  10.249   3.478  10.680  0.4749 -0.5987  0.7423
  450MOL0     C60643  10.279   3.449  10.815  1.1108 -0.3778  0.0263
  450MOL0     C60644  10.418   3.471  10.864 -0.4901  0.5666  0.9240
  450MOL0     O60645  10.509   3.526  10.780 -0.5489 -0.1786  0.2392
  450MOL0     C60646  10.643   3.486  10.791  0.1766 -0.2217 -0.4057
  450MOL0     C60647  10.697   3.401  10.694  0.0484 -0.0156 -0.3134
  450MOL0     C60648  10.827   3.376  10.690 -0.1065  0.6988  0.7601
  450MOL0     C60649  10.924   3.432  10.776 -0.5273 -0.2828 -0.5761
  450MOL0     O60650  11.063   3.408  10.762  0.7203  0.5073 -0.2055
  450MOL0     C60651  11.125   3.392  10.896  0.7230  0.3002  0.3438
  450MOL0     C60652  11.271   3.354  10.898 -1.2209  0.2227  0.2449
  450MOL0     C60653  11.302   3.221  10.824 -0.1588 -0.7915  0.8005
  450MOL0     C60654  11.455   3.195  10.819  0.6421  0.3194 -0.1974
  450MOL0     C60655  11.522   3.255  10.700 -0.6506  0.3035  0.8842
  450MOL0     C60656  11.672   3.238  10.717 -1.1584 -0.0523 -0.6156
  450MOL0     C60657  11.746   3.257  10.589  0.3169 -0.1223  0.1349
  450MOL0     C60658  11.886   3.224  10.616  0.7458 -0.0932 -0.4467
  450MOL0    Cl60659  11.969   3.278  10.476  0.0528  0.6032  0.2773
  450MOL0     C60660  10.869   3.532  10.861 -0.1341 -0.5547  0.1311
  450MOL0     C60661  10.729   3.556  10.874  0.5540  0.1127  0.2289
  450MOL0     O60662  10.450   3.438  10.977  0.0645 -0.1505  0.9662
  450MOL0     C60663  10.168   3.401  10.894 -0.5943 -1.1184  0.0723
  450MOL0     C60664  10.040   3.389  10.843 -0.1722  0.6138 -0.7254
  450MOL0     N60665   9.551   3.574  10.320 -0.0230  0.2497  0.2903
  450MOL0     N60666   9.489   3.623  10.226  0.0809  0.0332 -0.0829
  450MOL0     C60667   8.201   3.220  10.110 -0.6517 -0.8081  0.4369
  450MOL0     C60668   8.064   3.190  10.088 -0.2206 -0.5892 -1.2328
  450MOL0     C60669   7.624   3.126  10.083 -0.2614 -0.7007  0.8042
  450MOL0     C60670   7.550   3.008  10.103  0.8404 -0.1725  0.7707
  450MOL0     C60671   7.414   3.003  10.069 -0.2477 -0.2817  0.7985
  450MOL0     C60672   7.355   3.114  10.009  0.7813 -0.1308  0.3550
  450MOL0     O60673   7.227   3.112   9.956  0.5642  0.1998 -0.1479
  450MOL0     C60674   7.126   3.033  10.024 -0.1908 -0.1047 -1.0105
  450MOL0     C60675   7.099   2.900   9.954 -0.7165 -0.0466  0.6538
  450MOL0     C60676   6.976   2.819  10.014  0.4163 -0.6387 -0.8114
  450MOL0     C60677   6.946   2.694   9.945  0.3493  0.2267  0.2222
  450MOL0     C60678   6.820   2.639  10.002  0.0855 -0.2257 -1.0277
  450MOL0     C60679   6.723   2.593  10.056  0.1052  0.5166  0.1490
  450MOL0     C60680   7.426   3.231   9.984 -0.6012  0.3673 -0.0392
  450MOL0     C60681   7.556   3.237  10.027 -0.5530 -1.0629  0.6064
  450MOL0     C60682   7.625   3.368  10.001 -0.0669 -0.2558  0.2127
  450MOL0     H60683   7.929   3.454  10.260 -0.7809 -1.9893  2.2253
  450MOL0     H60684   8.151   3.517  10.286 -0.7745 -0.5311  0.0217
  450MOL0     H60685   8.487   3.212  10.146 -0.3012 -0.0781 -3.8263
  450MOL0     H60686   8.469   3.328  10.012 -0.0789 -3.1500 -0.9808
  450MOL0     H60687   8.617   3.343  10.270  0.8801 -1.8814 -0.4925
  450MOL0     H60688   8.577   3.497  10.171 -1.1597 -1.1840  1.5536
  450MOL0     H60689   8.689   3.427   9.992 -1.2335 -0.4337  0.7612
  450MOL0     H60690   8.743   3.273  10.059 -5.2134 -2.9521  3.7686
  450MOL0     H60691   8.807   3.533  10.222  0.0744  0.5215 -0.4215
  450MOL0     H60692   8.926   3.402  10.183  0.6680  0.2225 -0.8335
  450MOL0     H60693   8.923   3.495   9.936  0.2167  2.9308 -1.8912
  450MOL0     H60694   8.819   3.615   9.999 -1.3232 -1.0189  1.0757
  450MOL0     H60695   9.042   3.705  10.007 -0.0510  0.1753 -0.3114
  450MOL0     H60696   8.987   3.676  10.170 -0.5928  0.6287 -0.4215
  450MOL0     H60697   9.171   3.480  10.005  3.0204  2.0068  0.5227
  450MOL0     H60698   9.119   3.466  10.179 -2.8363  3.9639  2.6455
  450MOL0     H60699   9.288   3.675  10.051  1.2535 -1.3439 -0.2745
  450MOL0     H60700   9.215   3.680  10.215 -1.2640  1.4697 -1.5816
  450MOL0     H60701   9.292   3.369  10.296 -0.8828  1.3288 -0.9413
  450MOL0     H60702   9.423   3.378  10.559  0.1852 -2.6587 -0.4211
  450MOL0     H60703   9.506   3.273  10.444 -1.1721 -0.4751  0.7504
  450MOL0     H60704   9.711   3.410  10.477  1.7058 -0.4978  1.7242
  450MOL0     H60705   9.614   3.479  10.617  0.5207 -1.9585  3.2457
  450MOL0     H60706   9.694   3.194  10.572 -1.8305  0.8635 -2.8544
  450MOL0     H60707   9.581   3.263  10.703 -2.7723  4.2943 -2.7873
  450MOL0     H60708   9.834   3.207  10.775 -1.6052 -0.3989 -0.2003
  450MOL0     H60709   9.767   3.365  10.821  1.6093  0.9717  0.2970
  450MOL0     H60710  10.114   3.456  10.520 -1.8168 -0.2475  0.1393
  450MOL0     H60711  10.335   3.498  10.616 -0.3815  0.4022 -0.1382
  450MOL0     H60712  10.628   3.350  10.627  1.6999 -3.3400  0.3233
  450MOL0     H60713  10.859   3.298  10.622 -2.1471  1.2248 -0.9023
  450MOL0     H60714  11.123   3.489  10.947 -1.5487  0.9984 -0.9321
  450MOL0     H60715  11.076   3.326  10.967  0.0437 -0.0976 -0.4773
  450MOL0     H60716  11.330   3.431  10.848 -1.4093 -1.3031 -2.5134
  450MOL0     H60717  11.294   3.333  11.003 -2.2742 -1.0264  0.2490
  450MOL0     H60718  11.255   3.139  10.880 -3.1428  0.5475  0.4461
  450MOL0     H60719  11.269   3.216  10.720  1.2665  0.3956  0.2453
  450MOL0     H60720  11.487   3.090  10.828 -0.9466 -0.0085  2.8399
  450MOL0     H60721  11.491   3.250  10.907 -0.6049  0.7174  0.0830
  450MOL0     H60722  11.483   3.357  10.688  1.5282  1.5405  3.2234
  450MOL0     H60723  11.496   3.197  10.611  0.2070  1.1808  0.0367
  450MOL0     H60724  11.710   3.311  10.790 -3.3417  1.3260 -0.7586
  450MOL0     H60725  11.687   3.133  10.742 -1.7624  0.0249  0.0943
  450MOL0     H60726  11.734   3.360  10.555  0.6208 -0.9548 -2.7148
  450MOL0     H60727  11.712   3.199  10.503  1.7328  3.9386 -3.4546
  450MOL0     H60728  11.903   3.296  10.697 -2.8924  1.6945 -1.0931
  450MOL0     H60729  11.918   3.127  10.654  0.7363  0.9084  2.3474
  450MOL0     H60730  10.934   3.597  10.918 -2.0264  0.7554  0.8786
  450MOL0     H60731  10.697   3.627  10.950  2.7870  0.4520  0.9341
  450MOL0     H60732  10.192   3.375  10.997 -0.7750 -1.1220  0.1131
  450MOL0     H60733   9.961   3.363  10.913  1.3610  0.3637  0.9822
  450MOL0     H60734   8.274   3.150  10.072 -2.1964 -0.7048 -3.0765
  450MOL0     H60735   8.032   3.098  10.040  1.3345 -0.9216 -1.6704
  450MOL0     H60736   7.600   2.919  10.138  0.5540 -0.0836  1.4221
  450MOL0     H60737   7.356   2.914  10.094 -1.1482  0.0327 -0.0930
  450MOL0     H60738   7.036   3.095  10.028 -0.2169 -0.2018  1.0637
  450MOL0     H60739   7.159   3.009  10.126  2.0165  0.7331 -1.4624
  450MOL0     H60740   7.188   2.837   9.963 -1.1078 -0.5350  1.1855
  450MOL0     H60741   7.086   2.922   9.848  2.6140 -2.9432 -0.5545
  450MOL0     H60742   6.893   2.889  10.023 -0.7054 -1.8759 -1.1649
  450MOL0     H60743   7.010   2.795  10.115  3.2249  0.6286 -1.3422
  450MOL0     H60744   6.946   2.699   9.836  1.1474 -2.1149  0.0496
  450MOL0     H60745   7.025   2.625   9.975 -0.1486 -0.6334 -0.4017
  450MOL0     H60746   6.635   2.560  10.106  1.3153 -0.6423  1.5819
  450MOL0     H60747   7.370   3.309   9.934 -1.2524 -0.6201 -0.8929
  450MOL0     H60748   7.555   3.424   9.937 -0.4094 -0.7884  0.1156
  450MOL0     H60749   7.642   3.428  10.090  1.0518 -0.0971 -0.0950
  450MOL0     H60750   7.716   3.356   9.941 -0.8577  2.0947 -1.6560
  451MOL0     O60751   1.836   7.956   7.599 -0.8646  0.4907 -0.0830
  451MOL0     C60752   1.785   7.950   7.707  1.1947 -0.3598 -0.5073
  451MOL0     O60753   1.848   7.944   7.826  0.0144 -0.0717 -0.1856
  451MOL0     C60754   1.980   7.978   7.851 -0.3156  0.5424  0.0566
  451MOL0     C60755   2.068   8.030   7.755 -0.1032 -0.4877  0.0588
  451MOL0     C60756   2.199   8.059   7.795  0.2091  1.3911  0.3560
  451MOL0     C60757   2.243   8.035   7.925  0.0892 -0.5647  1.1536
  451MOL0     O60758   2.375   8.049   7.965  0.3109 -0.3978  0.1032
  451MOL0     C60759   2.389   8.146   8.068  0.5727  0.4112 -0.1518
  451MOL0     C60760   2.545   8.159   8.094  0.1566 -0.2756 -0.5289
  451MOL0     C60761   2.571   8.263   8.204  0.1451  0.3740 -0.8514
  451MOL0     C60762   2.610   8.402   8.152  0.0107  0.1033  0.1651
  451MOL0     C60763   2.623   8.493   8.273 -1.1237 -0.6762 -0.1086
  451MOL0     C60764   2.668   8.632   8.240 -0.4621 -0.0982  0.1797
  451MOL0     C60765   2.721   8.705   8.363 -0.0927 -0.8429 -0.1650
  451MOL0     C60766   2.870   8.684   8.377  0.0055  0.0534 -0.0756
  451MOL0     N60767   2.955   8.737   8.274  0.1521  1.0780 -0.3723
  451MOL0     C60768   2.963   8.868   8.234  0.5770  0.9234 -0.3011
  451MOL0     C60769   3.068   8.863   8.149 -0.6096 -0.0049 -0.4191
  451MOL0     C60770   3.129   8.966   8.060 -0.1261 -0.4370  0.3422
  451MOL0     C60771   3.220   9.067   8.124  1.4199  0.8791 -0.2805
  451MOL0     C60772   3.344   9.009   8.184 -0.1493  0.1116 -0.0652
  451MOL0     C60773   3.436   8.961   8.074 -0.6194 -0.3178  0.9577
  451MOL0     O60774   3.547   8.875   8.115  0.0366 -0.2335  0.0232
  451MOL0     C60775   3.673   8.935   8.112  0.1142  0.6862 -0.1307
  451MOL0     C60776   3.695   9.036   8.198 -0.5979 -0.1522  0.4322
  451MOL0     C60777   3.822   9.094   8.202  0.5335  0.2435  0.6253
  451MOL0     C60778   3.934   9.048   8.121 -0.5984 -0.1505 -0.8202
  451MOL0     C60779   4.065   9.106   8.129 -0.8337  0.1413  0.6398
  451MOL0     O60780   4.139   9.096   8.017 -0.0686 -0.4565 -0.1634
  451MOL0     C60781   4.267   9.138   7.996 -0.5742 -0.2638  0.2205
  451MOL0     C60782   4.290   9.219   7.880 -0.6191 -0.4550 -0.9517
  451MOL0     C60783   4.419   9.259   7.835 -0.0756  0.4689 -0.1736
  451MOL0     C60784   4.518   9.230   7.919 -0.8461  0.6129 -0.1114
  451MOL0     O60785   4.640   9.274   7.864 -0.3860  0.5344  0.2163
  451MOL0     C60786   4.760   9.262   7.951 -0.5623  0.8812  1.0493
  451MOL0     C60787   4.885   9.328   7.867  0.0926 -0.1874 -0.0312
  451MOL0     C60788   5.014   9.313   7.953 -0.6334  0.0062  0.5723
  451MOL0     C60789   5.134   9.361   7.876 -0.7834 -0.4661 -0.2498
  451MOL0     C60790   5.229   9.239   7.852 -0.4503 -0.3528  1.3093
  451MOL0     C60791   5.350   9.284   7.771  0.0301 -0.9485 -0.3199
  451MOL0     C60792   5.438   9.155   7.740 -1.0050 -0.3348  0.5420
  451MOL0     C60793   5.555   9.173   7.641 -0.0479 -0.7981 -0.2389
  451MOL0    Cl60794   5.640   9.317   7.698 -0.1496  0.0590 -0.1001
  451MOL0     C60795   4.506   9.153   8.042  0.2749  0.9848  0.0280
  451MOL0     C60796   4.378   9.104   8.074 -0.2292  0.1840  0.2825
  451MOL0     O60797   4.097   9.169   8.231 -0.3155  0.1438 -0.5106
  451MOL0     C60798   3.904   8.934   8.050 -0.6118 -0.4560 -0.7798
  451MOL0     C60799   3.781   8.878   8.043  0.8582 -0.3713 -0.3885
  451MOL0     N60800   3.122   8.734   8.140 -0.2130 -0.1938  0.1733
  451MOL0     N60801   3.042   8.661   8.214 -0.3706 -0.2751 -0.1290
  451MOL0     C60802   2.154   7.982   8.010  0.5127  0.9125 -0.8193
  451MOL0     C60803   2.019   7.959   7.980 -0.2053 -0.5931 -0.5994
  451MOL0     C60804   1.635   7.940   7.728 -0.5615 -0.1751  0.6347
  451MOL0     C60805   1.571   7.878   7.837  0.2170 -0.4592  0.6001
  451MOL0     C60806   1.436   7.879   7.859  0.8584 -0.0429  0.1000
  451MOL0     C60807   1.348   7.943   7.773 -0.2429 -0.2527 -0.5078
  451MOL0     O60808   1.211   7.952   7.801  0.0951 -0.2884 -0.1153
  451MOL0     C60809   1.113   7.897   7.713 -0.6077 -0.2045 -0.3629
  451MOL0     C60810   1.042   8.010   7.629 -0.3181  0.4456  0.2588
  451MOL0     C60811   0.950   7.947   7.523 -0.1508 -1.2402  0.9559
  451MOL0     C60812   1.018   7.944   7.384  0.6275  0.3933 -1.2032
  451MOL0     C60813   0.943   7.853   7.294 -0.5611  0.1288 -0.3842
  451MOL0     C60814   0.895   7.759   7.238 -0.2527 -0.7369  0.2358
  451MOL0     C60815   1.404   8.001   7.658  0.8392 -0.7738 -0.5428
  451MOL0     C60816   1.546   8.003   7.640  0.7301  0.7860  1.3504
  451MOL0     C60817   1.591   8.070   7.509 -0.3951 -0.1783  0.2111
  451MOL0     H60818   2.048   8.063   7.653 -0.4452  0.8680  0.5346
  451MOL0     H60819   2.269   8.105   7.726 -0.6573  1.8166 -0.2608
  451MOL0     H60820   2.332   8.237   8.049  0.8822  1.3671  2.9172
  451MOL0     H60821   2.350   8.100   8.159 -0.5607  1.5281 -0.0478
  451MOL0     H60822   2.601   8.188   8.005  1.5909  2.5259  1.1361
  451MOL0     H60823   2.585   8.060   8.116  0.7497 -0.1799 -1.1488
  451MOL0     H60824   2.650   8.221   8.268 -2.0920 -2.0191  0.5360
  451MOL0     H60825   2.483   8.280   8.267  0.7193 -0.8813  0.3527
  451MOL0     H60826   2.700   8.405   8.091 -0.3046  2.2185 -0.2693
  451MOL0     H60827   2.523   8.428   8.091 -0.8135 -3.3409 -0.3478
  451MOL0     H60828   2.535   8.479   8.337 -0.5716 -0.8953  0.6152
  451MOL0     H60829   2.699   8.458   8.343  1.0268 -0.6539 -2.3373
  451MOL0     H60830   2.747   8.642   8.165 -2.8638  0.6144 -2.4619
  451MOL0     H60831   2.584   8.686   8.195  1.1483  2.4702  0.0760
  451MOL0     H60832   2.666   8.671   8.451  1.0908 -2.8374 -0.1373
  451MOL0     H60833   2.700   8.812   8.351  1.2435 -0.5583 -0.1282
  451MOL0     H60834   2.897   8.726   8.474  0.1329  1.8649 -0.8568
  451MOL0     H60835   2.885   8.575   8.378  1.2835  0.1982 -0.5086
  451MOL0     H60836   2.900   8.952   8.262 -0.3744  1.0178 -2.5160
  451MOL0     H60837   3.189   8.919   7.982  1.5424 -1.1104  1.9590
  451MOL0     H60838   3.056   9.027   8.005  1.3248  0.9064 -0.1549
  451MOL0     H60839   3.241   9.151   8.057  1.4791 -0.0631 -1.4815
  451MOL0     H60840   3.177   9.111   8.214  1.7783 -0.3616  0.5161
  451MOL0     H60841   3.326   8.927   8.254  0.9435  1.7444  2.2394
  451MOL0     H60842   3.403   9.084   8.237  3.1062 -1.0215 -1.8348
  451MOL0     H60843   3.476   9.049   8.022 -0.0873 -1.3720 -0.5223
  451MOL0     H60844   3.380   8.904   7.998 -1.0737  0.8578  0.3860
  451MOL0     H60845   3.615   9.076   8.259 -1.2149 -0.2887 -0.2791
  451MOL0     H60846   3.846   9.179   8.266  1.6944 -0.2368  0.8688
  451MOL0     H60847   4.205   9.253   7.821 -0.2296 -0.0832 -1.3097
  451MOL0     H60848   4.423   9.322   7.746 -3.8063  2.5855  0.9285
  451MOL0     H60849   4.739   9.317   8.043 -0.7068  0.0215  1.5427
  451MOL0     H60850   4.781   9.155   7.966 -0.6651  0.2986 -2.2320
  451MOL0     H60851   4.881   9.289   7.765 -1.3246  0.8520 -0.4027
  451MOL0     H60852   4.876   9.436   7.874 -0.4149 -0.3204  4.1689
  451MOL0     H60853   4.998   9.356   8.052  1.9615 -2.6721  2.3399
  451MOL0     H60854   5.031   9.209   7.983 -0.5841 -0.1686 -0.0564
  451MOL0     H60855   5.182   9.435   7.940 -1.9705 -1.0994  1.4489
  451MOL0     H60856   5.108   9.408   7.780  3.1141  2.4763 -0.1017
  451MOL0     H60857   5.179   9.158   7.799  1.8026 -4.1413  4.4587
  451MOL0     H60858   5.260   9.192   7.945  0.2269  0.5518  1.5634
  451MOL0     H60859   5.323   9.339   7.681  1.4103  0.9239  0.3538
  451MOL0     H60860   5.407   9.354   7.832 -1.5853  0.6559 -0.5642
  451MOL0     H60861   5.373   9.085   7.687 -0.5108 -0.7897  0.5337
  451MOL0     H60862   5.464   9.100   7.831 -1.6847 -3.4779 -1.0485
  451MOL0     H60863   5.618   9.084   7.636  2.1108  0.5209  1.4716
  451MOL0     H60864   5.507   9.193   7.544  0.9302 -0.2027 -0.6106
  451MOL0     H60865   4.592   9.134   8.106 -0.8001 -2.8634  0.6418
  451MOL0     H60866   4.364   9.050   8.167  1.2820  0.7245  0.8596
  451MOL0     H60867   3.988   8.883   8.004  1.1620 -0.1180  1.8703
  451MOL0     H60868   3.774   8.783   7.991 -1.3928 -0.6103  0.2489
  451MOL0     H60869   2.190   7.960   8.111  1.4713  1.0536 -1.1150
  451MOL0     H60870   1.947   7.926   8.054  0.9898 -0.6840  0.5621
  451MOL0     H60871   1.638   7.842   7.914  0.5850  2.6867  1.9153
  451MOL0     H60872   1.402   7.825   7.947  4.2823 -1.4130  0.7516
  451MOL0     H60873   1.033   7.850   7.772  0.2985 -3.2916 -1.3870
  451MOL0     H60874   1.165   7.821   7.654  3.8549  1.2800  1.2284
  451MOL0     H60875   1.106   8.079   7.573 -0.5351  0.6277  0.2313
  451MOL0     H60876   0.988   8.079   7.694  0.2206  2.5491 -1.3931
  451MOL0     H60877   0.853   7.997   7.521 -0.3280 -1.5025 -2.9118
  451MOL0     H60878   0.925   7.843   7.546 -1.9144 -1.1180 -0.2634
  451MOL0     H60879   1.023   8.044   7.341 -0.7068  1.8354  1.6705
  451MOL0     H60880   1.117   7.906   7.411 -0.4198 -0.7955  1.2976
  451MOL0     H60881   0.858   7.671   7.190 -1.3012 -1.0469  1.5457
  451MOL0     H60882   1.345   8.056   7.587  3.2929  1.4494 -1.0149
  451MOL0     H60883   1.597   7.985   7.440 -2.1983 -0.5779  0.5107
  451MOL0     H60884   1.509   8.130   7.470  0.6710  0.1873 -1.6054
  451MOL0     H60885   1.681   8.130   7.522  1.6434 -2.7881 -0.6733
  452MOL0     O60886   8.633   6.735   6.691 -0.5320 -0.4535 -0.2549
  452MOL0     C60887   8.579   6.834   6.652  1.0385  0.5429  0.1855
  452MOL0     O60888   8.634   6.930   6.567 -0.5847  0.3273 -0.5381
  452MOL0     C60889   8.766   6.947   6.546 -0.2577  0.1305 -0.9127
  452MOL0     C60890   8.854   6.974   6.655 -0.5620 -0.4062  0.7792
  452MOL0     C60891   8.993   6.991   6.627  0.8077 -0.1058  0.6350
  452MOL0     C60892   9.045   6.975   6.500  0.3485 -0.1659  0.7579
  452MOL0     O60893   9.186   6.969   6.471 -0.9967  0.2108  0.1098
  452MOL0     C60894   9.270   6.907   6.574 -0.3935  0.7948  0.3662
  452MOL0     C60895   9.417   6.886   6.534 -0.0032  0.2286  0.4059
  452MOL0     C60896   9.487   6.847   6.659 -1.4273 -0.2283 -0.0753
  452MOL0     C60897   9.629   6.788   6.623  0.6452 -0.2831 -0.0728
  452MOL0     C60898   9.722   6.785   6.736  0.4252 -0.0061  0.0490
  452MOL0     C60899   9.784   6.918   6.767  0.7290 -0.0519  0.3358
  452MOL0     C60900   9.844   6.933   6.912  0.7242 -0.0109  0.4561
  452MOL0     C60901   9.964   6.835   6.922 -0.0468 -0.0431 -0.1646
  452MOL0     N60902  10.066   6.849   6.816  0.6837  0.3979 -0.5681
  452MOL0     C60903  10.155   6.944   6.800 -1.5676  0.1670 -0.0682
  452MOL0     C60904  10.219   6.925   6.679  0.3264  0.4136 -0.9789
  452MOL0     C60905  10.337   6.994   6.628  0.5444 -0.4612 -0.4557
  452MOL0     C60906  10.457   6.996   6.722 -0.4214  0.1402 -0.1623
  452MOL0     C60907  10.567   6.895   6.677 -0.2952  0.7044  0.3589
  452MOL0     C60908  10.514   6.750   6.650 -0.2030  0.3117 -0.2081
  452MOL0     O60909  10.622   6.662   6.653 -0.9868  0.2250 -0.4794
  452MOL0     C60910  10.612   6.534   6.701  0.6277 -0.2997  0.8050
  452MOL0     C60911  10.717   6.479   6.778  1.1591  0.0610 -0.3514
  452MOL0     C60912  10.710   6.353   6.840 -0.3317 -0.8674  0.2836
  452MOL0     C60913  10.603   6.270   6.806 -0.2389 -0.8406 -0.6885
  452MOL0     C60914  10.594   6.131   6.844 -0.5959 -0.3411  0.3049
  452MOL0     O60915  10.478   6.059   6.817  0.4737 -0.1437 -0.3517
  452MOL0     C60916  10.484   5.926   6.823  0.4242 -0.5378  0.9632
  452MOL0     C60917  10.572   5.847   6.748 -0.9848 -0.7209  1.3481
  452MOL0     C60918  10.561   5.713   6.737 -0.1750  0.3114  0.3855
  452MOL0     C60919  10.451   5.646   6.794  0.7014 -0.0110  0.9693
  452MOL0     O60920  10.439   5.509   6.776  0.0085 -0.8820  0.7475
  452MOL0     C60921  10.329   5.443   6.811 -0.3952  0.4273  0.4347
  452MOL0     C60922  10.333   5.298   6.760  0.7198  0.0312 -0.3031
  452MOL0     C60923  10.446   5.212   6.829  0.5044  0.0078 -0.9519
  452MOL0     C60924  10.439   5.066   6.783  0.4805  0.2311 -0.9176
  452MOL0     C60925  10.569   4.997   6.824 -0.7574 -0.2839 -0.2279
  452MOL0     C60926  10.586   4.864   6.755 -1.3713 -0.2851  0.7873
  452MOL0     C60927  10.729   4.815   6.789 -0.2580 -0.5584  0.5251
  452MOL0     C60928  10.775   4.673   6.738  0.2929 -0.4150 -0.4753
  452MOL0    Cl60929  10.927   4.625   6.812 -0.2574  0.4464 -0.2797
  452MOL0     C60930  10.362   5.717   6.874  0.5138  0.3697  0.2330
  452MOL0     C60931  10.374   5.853   6.879  0.0270 -0.6127  0.6574
  452MOL0     O60932  10.698   6.090   6.900 -0.1143 -0.2322  1.0463
  452MOL0     C60933  10.495   6.324   6.730 -0.2700  0.9830 -0.0607
  452MOL0     C60934  10.497   6.458   6.680 -0.8969 -0.7150  0.6439
  452MOL0     N60935  10.156   6.817   6.621  0.5289 -0.3793  0.0497
  452MOL0     N60936  10.061   6.779   6.701  0.3097 -0.1339 -0.5071
  452MOL0     C60937   8.953   6.958   6.396  0.3644 -0.6198  0.0819
  452MOL0     C60938   8.812   6.955   6.421 -0.6536 -0.1662 -0.1274
  452MOL0     C60939   8.433   6.854   6.673  0.3161 -0.7577  0.6036
  452MOL0     C60940   8.358   6.933   6.575  0.1042  0.3616  0.1343
  452MOL0     C60941   8.223   6.969   6.602  0.1881 -0.4551 -0.6911
  452MOL0     C60942   8.153   6.915   6.713 -0.4449  0.0826  1.0082
  452MOL0     O60943   8.013   6.922   6.699 -0.6421  0.8167 -0.2125
  452MOL0     C60944   7.928   6.823   6.751 -0.5048 -0.2824 -0.6499
  452MOL0     C60945   7.802   6.884   6.820 -0.3076  0.4332 -0.1700
  452MOL0     C60946   7.719   6.950   6.714  0.8103  0.1202  0.4973
  452MOL0     C60947   7.598   7.013   6.781  0.0663 -0.1292 -0.8387
  452MOL0     C60948   7.646   7.132   6.854  0.0540 -0.7170  0.2867
  452MOL0     C60949   7.680   7.237   6.910 -0.4976 -0.3580 -0.4922
  452MOL0     C60950   8.230   6.845   6.807 -0.2302 -0.3465 -0.3119
  452MOL0     C60951   8.360   6.808   6.785 -0.2200 -0.4014  0.3038
  452MOL0     C60952   8.428   6.732   6.891  0.5021 -0.0319 -0.0265
  452MOL0     H60953   8.800   6.971   6.750 -2.5253  0.9726 -0.2238
  452MOL0     H60954   9.061   6.994   6.712 -1.3718 -0.3538  2.4826
  452MOL0     H60955   9.273   6.977   6.658  1.0145  1.4077 -0.1685
  452MOL0     H60956   9.229   6.808   6.597  2.8345 -0.3757  1.5855
  452MOL0     H60957   9.464   6.974   6.489 -0.3346 -1.0620 -2.6809
  452MOL0     H60958   9.413   6.813   6.453  2.0184  0.7695 -0.2500
  452MOL0     H60959   9.438   6.770   6.720 -0.1631 -1.5701 -0.6900
  452MOL0     H60960   9.497   6.937   6.720 -3.3976 -1.9734  3.1474
  452MOL0     H60961   9.612   6.684   6.593 -1.7220 -0.2654  0.9185
  452MOL0     H60962   9.679   6.837   6.540  0.2583 -1.8174 -1.2668
  452MOL0     H60963   9.666   6.747   6.822  0.9718  0.6580  0.7123
  452MOL0     H60964   9.803   6.714   6.717 -1.6943 -2.1662 -1.4973
  452MOL0     H60965   9.853   6.959   6.692  0.2945  0.4484  0.2017
  452MOL0     H60966   9.703   6.991   6.761  1.0156  0.2032 -0.8159
  452MOL0     H60967   9.767   6.924   6.989  0.4240  0.1668  0.1752
  452MOL0     H60968   9.875   7.037   6.924 -1.4600  0.8618 -0.9525
  452MOL0     H60969  10.004   6.844   7.023 -1.1446 -0.3033  0.3120
  452MOL0     H60970   9.921   6.735   6.911 -0.4120 -0.0477  1.1720
  452MOL0     H60971  10.194   7.013   6.874  3.8871 -2.7774  0.2969
  452MOL0     H60972  10.360   6.972   6.524 -0.9303  0.1132 -0.9239
  452MOL0     H60973  10.295   7.095   6.619 -0.9323 -1.0591 -0.5379
  452MOL0     H60974  10.500   7.096   6.724  0.0540 -0.0315 -1.0072
  452MOL0     H60975  10.424   6.973   6.824 -2.1126 -0.9913 -0.9164
  452MOL0     H60976  10.638   6.873   6.758  0.2840  0.0778 -0.3004
  452MOL0     H60977  10.631   6.922   6.593 -1.3950  2.5876  0.0769
  452MOL0     H60978  10.450   6.747   6.560 -1.2932  1.6248  0.4756
  452MOL0     H60979  10.455   6.723   6.738 -0.1185 -0.4520 -0.3769
  452MOL0     H60980  10.809   6.535   6.780  1.6128 -0.6481 -0.8315
  452MOL0     H60981  10.790   6.318   6.905  1.3814  0.1667 -1.1908
  452MOL0     H60982  10.654   5.891   6.693 -0.6328 -0.7378  1.8488
  452MOL0     H60983  10.628   5.650   6.679 -1.1587  0.4732 -0.9540
  452MOL0     H60984  10.315   5.446   6.920  0.6836  0.6226  0.5803
  452MOL0     H60985  10.243   5.484   6.757 -1.0328 -2.4967 -0.9581
  452MOL0     H60986  10.235   5.249   6.755  1.4884 -1.4240 -2.6309
  452MOL0     H60987  10.357   5.306   6.654  0.0946  0.7692 -0.3897
  452MOL0     H60988  10.537   5.263   6.797  0.2037  2.0706  1.1913
  452MOL0     H60989  10.431   5.232   6.936 -2.2494  0.9069 -1.4348
  452MOL0     H60990  10.424   5.065   6.674 -0.7182  1.1737 -0.7845
  452MOL0     H60991  10.358   5.008   6.827  0.9786 -2.2052 -2.9751
  452MOL0     H60992  10.569   4.973   6.931 -2.9679 -0.1722 -0.1475
  452MOL0     H60993  10.650   5.064   6.796 -0.6594  0.4841  1.7148
  452MOL0     H60994  10.512   4.791   6.788 -0.3749 -2.8511 -2.1722
  452MOL0     H60995  10.571   4.866   6.646 -1.5163 -2.0686  0.7529
  452MOL0     H60996  10.740   4.821   6.898  0.6835  2.1061  0.3671
  452MOL0     H60997  10.798   4.893   6.756 -0.2270  0.0156  1.8613
  452MOL0     H60998  10.695   4.611   6.780 -1.1040  1.2257 -0.5935
  452MOL0     H60999  10.793   4.668   6.630  4.2235 -1.5587  0.0832
  452MOL0     H61000  10.282   5.671   6.932  1.0068 -1.3100 -0.3699
  452MOL0     H61001  10.298   5.901   6.940  0.2927 -1.4456  1.6704
  452MOL0     H61002  10.411   6.263   6.698  0.5996 -1.0758  1.3200
  452MOL0     H61003  10.417   6.497   6.618 -0.1438 -0.9258 -0.4992
  452MOL0     H61004   8.991   6.957   6.295 -1.1843 -4.7752 -0.6723
  452MOL0     H61005   8.744   6.943   6.337  0.6303 -1.4563 -1.0385
  452MOL0     H61006   8.415   6.972   6.491 -1.0904  0.2466 -0.7673
  452MOL0     H61007   8.165   7.019   6.524  1.5002  4.3173  1.0651
  452MOL0     H61008   7.968   6.754   6.827  0.6318 -0.5220 -1.4431
  452MOL0     H61009   7.896   6.764   6.664  0.0146  0.2964 -1.2435
  452MOL0     H61010   7.818   6.957   6.900  1.3398 -0.8210  0.7248
  452MOL0     H61011   7.750   6.797   6.860  2.0999 -3.0857 -3.8696
  452MOL0     H61012   7.683   6.875   6.643  0.2795  0.7626  0.0706
  452MOL0     H61013   7.788   7.024   6.673  0.1881  0.0107 -0.8058
  452MOL0     H61014   7.533   7.054   6.704  0.5424  0.8825 -0.7227
  452MOL0     H61015   7.541   6.942   6.841  0.3450 -0.6674 -1.2041
  452MOL0     H61016   7.707   7.332   6.951 -2.7083  0.3885 -0.6204
  452MOL0     H61017   8.171   6.827   6.897 -0.7939  1.9960 -0.1483
  452MOL0     H61018   8.500   6.801   6.936 -0.9814 -0.5912  3.5740
  452MOL0     H61019   8.357   6.707   6.971  2.3366  0.0198  1.6737
  452MOL0     H61020   8.478   6.637   6.870 -0.2349 -0.4811  0.2039
  453MOL0     O61021  11.065  11.008   9.462  0.0640 -0.2930 -0.0109
  453MOL0     C61022  10.981  11.089   9.428 -0.4534 -0.4617 -0.2836
  453MOL0     O61023  11.012  11.222   9.386 -0.6287  0.6608 -0.6206
  453MOL0     C61024  11.136  11.265   9.416 -0.6188  0.2396 -0.0883
  453MOL0     C61025  11.222  11.275   9.311  0.2946  0.3275  0.3866
  453MOL0     C61026  11.348  11.315   9.330 -0.4610  0.2986 -0.3398
  453MOL0     C61027  11.390  11.351   9.458 -0.0140 -0.4438  0.6236
  453MOL0     O61028  11.520  11.400   9.477 -0.3044  0.5210  0.2323
  453MOL0     C61029  11.557  11.469   9.591 -0.4836  0.1328 -0.4314
  453MOL0     C61030  11.689  11.553   9.564 -0.4598 -0.2624  0.0171
  453MOL0     C61031  11.800  11.447   9.538  0.4855 -0.0828 -0.2572
  453MOL0     C61032  11.929  11.494   9.563 -0.3522  0.1145  0.3809
  453MOL0     C61033  12.034  11.387   9.554 -0.5078  0.2375 -0.1237
  453MOL0     C61034  12.159  11.441   9.617 -0.3024  0.0110 -0.6672
  453MOL0     C61035  12.263  11.332   9.632  0.0640  0.1397  0.2163
  453MOL0     C61036  12.387  11.406   9.686 -0.4926  1.0883 -0.5801
  453MOL0     N61037  12.493  11.305   9.737  0.2819 -0.0829  0.0585
  453MOL0     C61038  12.569  11.216   9.659  0.1335  0.9193  1.1884
  453MOL0     C61039  12.667  11.178   9.744 -0.1186  0.7680  0.6175
  453MOL0     C61040  12.783  11.093   9.704 -0.1908  1.0912  0.8491
  453MOL0     C61041  12.865  11.144   9.594 -1.1036 -0.2132 -0.4228
  453MOL0     C61042  12.974  11.050   9.533  0.1743 -0.2398 -0.1501
  453MOL0     C61043  13.085  11.005   9.631 -0.0883  0.3506 -0.2555
  453MOL0     O61044  13.161  11.116   9.679  0.6660  0.0984 -0.1633
  453MOL0     C61045  13.285  11.124   9.639 -0.8036  0.0679  0.0515
  453MOL0     C61046  13.329  11.216   9.537 -0.8660 -0.1480  1.0894
  453MOL0     C61047  13.464  11.214   9.496 -0.1516 -0.3376 -0.0088
  453MOL0     C61048  13.563  11.128   9.553  0.3321 -0.2248 -0.4297
  453MOL0     C61049  13.701  11.132   9.492  0.0624 -0.5340  0.5812
  453MOL0     O61050  13.799  11.073   9.565 -0.0056 -0.5064  0.1579
  453MOL0     C61051  13.930  11.077   9.520 -0.9169 -0.8485 -0.2494
  453MOL0     C61052  14.029  11.140   9.596  0.5742  0.1448 -0.2150
  453MOL0     C61053  14.160  11.150   9.565  0.2748  1.1486  0.0130
  453MOL0     C61054  14.205  11.090   9.448 -0.5025 -0.9394  0.9216
  453MOL0     O61055  14.344  11.104   9.419 -0.0373 -0.0420 -0.0183
  453MOL0     C61056  14.394  11.036   9.305  0.2403 -0.5643 -0.5084
  453MOL0     C61057  14.538  11.047   9.278  0.2688  0.3411  0.5504
  453MOL0     C61058  14.595  11.193   9.300  0.8174 -0.9296  0.2012
  453MOL0     C61059  14.738  11.208   9.255 -0.2084 -0.2192  0.2069
  453MOL0     C61060  14.764  11.231   9.098 -0.0716 -0.3057 -0.4431
  453MOL0     C61061  14.912  11.268   9.065 -0.5464  0.4963  0.0626
  453MOL0     C61062  14.963  11.398   9.128  0.0576 -0.7907 -0.5517
  453MOL0     C61063  15.102  11.430   9.084 -0.3071 -0.1823 -0.2774
  453MOL0    Cl61064  15.123  11.436   8.910 -0.0554  0.1497  0.1814
  453MOL0     C61065  14.116  11.017   9.365 -0.5832  0.6884  0.0443
  453MOL0     C61066  13.978  11.006   9.406  0.1050  0.2226  0.0911
  453MOL0     O61067  13.712  11.206   9.398 -0.4336 -0.1033  0.4310
  453MOL0     C61068  13.523  11.037   9.644  1.0970 -0.5973  0.0115
  453MOL0     C61069  13.382  11.031   9.682  0.2543 -0.8537 -0.0063
  453MOL0     N61070  12.643  11.236   9.874 -0.6427 -0.2937  0.0341
  453MOL0     N61071  12.536  11.306   9.866  0.3075 -0.7266  0.3841
  453MOL0     C61072  11.296  11.353   9.562 -0.6775  0.3119 -0.0384
  453MOL0     C61073  11.163  11.308   9.542 -0.1125  0.2049 -0.3833
  453MOL0     C61074  10.842  11.044   9.433  0.5774  0.1480 -0.6586
  453MOL0     C61075  10.750  11.151   9.421  0.1560 -0.0092  0.4327
  453MOL0     C61076  10.619  11.116   9.416  0.0636 -0.2698 -0.5761
  453MOL0     C61077  10.570  10.984   9.443  0.4975  0.8752  0.5415
  453MOL0     O61078  10.436  10.948   9.428 -0.3995 -0.2763  0.1314
  453MOL0     C61079  10.342  11.050   9.472  0.2354 -0.0299  0.3612
  453MOL0     C61080  10.277  11.127   9.355 -0.0208  0.0591  0.7650
  453MOL0     C61081  10.196  11.247   9.410  0.0397  0.1291 -0.1554
  453MOL0     C61082  10.228  11.369   9.319  0.4869  0.3747  0.2661
  453MOL0     C61083  10.364  11.412   9.331 -0.8570  0.4477  0.2005
  453MOL0     C61084  10.483  11.438   9.316  0.7120  0.3690 -0.4389
  453MOL0     C61085  10.661  10.874   9.446 -0.3091  0.3653 -0.2110
  453MOL0     C61086  10.796  10.909   9.462  0.3462 -0.9467  0.0409
  453MOL0     C61087  10.885  10.790   9.455 -0.2942 -0.0650  0.0446
  453MOL0     H61088  11.210  11.242   9.208  3.1791  0.3156 -0.0246
  453MOL0     H61089  11.415  11.304   9.245 -2.9273 -2.9998 -2.1143
  453MOL0     H61090  11.481  11.546   9.604 -0.0299  0.4533  0.3808
  453MOL0     H61091  11.564  11.399   9.675  0.4415  0.7654  0.0350
  453MOL0     H61092  11.704  11.604   9.660  1.1711  0.0641 -0.3838
  453MOL0     H61093  11.689  11.625   9.482 -0.3059 -1.6048 -1.2011
  453MOL0     H61094  11.803  11.421   9.432 -0.0115  1.3362 -0.6410
  453MOL0     H61095  11.792  11.347   9.583 -2.9041  0.2424  0.1301
  453MOL0     H61096  11.957  11.573   9.493 -3.8231 -1.7707 -3.5632
  453MOL0     H61097  11.935  11.538   9.663  2.4654 -0.9792  0.7831
  453MOL0     H61098  11.994  11.300   9.607 -1.5184  0.2803 -0.7865
  453MOL0     H61099  12.056  11.353   9.452 -2.9179 -1.5401 -0.1385
  453MOL0     H61100  12.198  11.525   9.558  0.3434  0.0898 -0.1460
  453MOL0     H61101  12.141  11.479   9.718  2.7341  2.9394 -1.0484
  453MOL0     H61102  12.272  11.280   9.536 -0.5159 -0.2578  0.3789
  453MOL0     H61103  12.215  11.263   9.701 -3.0387 -0.5443 -2.3750
  453MOL0     H61104  12.429  11.468   9.606  5.8577  0.0985  1.4224
  453MOL0     H61105  12.363  11.472   9.770  2.9848  0.1699  1.3422
  453MOL0     H61106  12.550  11.173   9.561  0.2721  1.7690  0.7760
  453MOL0     H61107  12.844  11.067   9.792 -0.1697 -1.1276  0.2257
  453MOL0     H61108  12.744  10.997   9.671  1.2414  0.5163  0.7555
  453MOL0     H61109  12.802  11.172   9.508  0.5247  0.5180 -1.4213
  453MOL0     H61110  12.916  11.238   9.617  0.9108 -0.3523 -3.6169
  453MOL0     H61111  13.017  11.095   9.443 -1.0228 -0.3145 -0.7747
  453MOL0     H61112  12.925  10.957   9.505  2.2578 -2.0296  1.7665
  453MOL0     H61113  13.160  10.946   9.576 -0.4719 -1.7472  1.3418
  453MOL0     H61114  13.044  10.950   9.716 -0.3574  0.8834 -0.0384
  453MOL0     H61115  13.256  11.281   9.489  2.1058 -0.1140 -4.2021
  453MOL0     H61116  13.481  11.290   9.421  1.8806 -2.0453 -1.3746
  453MOL0     H61117  13.993  11.182   9.689 -1.2127 -0.3349 -0.6554
  453MOL0     H61118  14.234  11.198   9.628  1.6791 -0.3526 -0.4012
  453MOL0     H61119  14.374  10.930   9.322 -1.1622 -0.0640  1.3092
  453MOL0     H61120  14.333  11.081   9.226  1.9748 -0.3222 -1.7513
  453MOL0     H61121  14.586  10.967   9.334 -3.7971 -2.5647  0.2640
  453MOL0     H61122  14.547  11.029   9.170  1.3147 -2.5172  1.0417
  453MOL0     H61123  14.529  11.268   9.257  2.6572  0.9784  0.5611
  453MOL0     H61124  14.587  11.204   9.409 -0.0039 -2.6272  0.3551
  453MOL0     H61125  14.806  11.137   9.303  0.3610  0.2531  0.1205
  453MOL0     H61126  14.772  11.303   9.296 -0.6086  0.4569 -0.9530
  453MOL0     H61127  14.691  11.305   9.063  1.2583  1.8388  1.0632
  453MOL0     H61128  14.736  11.139   9.046 -1.8926 -0.5625  0.9058
  453MOL0     H61129  14.976  11.185   9.098 -1.1937 -0.4354 -0.9598
  453MOL0     H61130  14.923  11.279   8.957 -2.2225 -3.3778 -0.6595
  453MOL0     H61131  14.958  11.387   9.237 -4.6588  2.2650 -0.1862
  453MOL0     H61132  14.901  11.487   9.111 -0.6539 -0.7073  2.0489
  453MOL0     H61133  15.132  11.525   9.129 -1.0431 -1.0947  2.2900
  453MOL0     H61134  15.170  11.351   9.117  0.4173  0.7763  0.6152
  453MOL0     H61135  14.143  10.948   9.286 -0.7027  0.1110  0.5080
  453MOL0     H61136  13.916  10.931   9.357 -0.9942 -0.8798  2.9400
  453MOL0     H61137  13.588  10.954   9.672  1.1886 -0.9841 -1.2914
  453MOL0     H61138  13.337  10.955   9.744 -2.0824 -0.1812 -0.7891
  453MOL0     H61139  11.330  11.388   9.659  1.5171 -1.6611 -0.0061
  453MOL0     H61140  11.086  11.307   9.619 -0.6502 -0.0094 -0.9094
  453MOL0     H61141  10.779  11.254   9.404  0.5180 -0.2440 -0.3917
  453MOL0     H61142  10.546  11.197   9.417 -0.1012 -0.3721  1.6568
  453MOL0     H61143  10.396  11.116   9.540  3.5080 -2.5320  0.4017
  453MOL0     H61144  10.261  11.009   9.534 -0.1377 -0.2926 -0.2827
  453MOL0     H61145  10.206  11.071   9.293  0.6154 -0.4821  0.5069
  453MOL0     H61146  10.361  11.155   9.289 -0.0194 -1.8970 -0.1323
  453MOL0     H61147  10.221  11.269   9.514 -3.1360 -1.1614  1.0117
  453MOL0     H61148  10.091  11.217   9.407 -0.2987  1.2976 -0.7107
  453MOL0     H61149  10.193  11.344   9.219  0.8594  2.8206 -0.5168
  453MOL0     H61150  10.163  11.451   9.350 -1.5056 -0.9881 -0.0815
  453MOL0     H61151  10.585  11.469   9.304 -0.0489  2.3851 -2.2899
  453MOL0     H61152  10.630  10.772   9.466  0.1973 -0.0997 -1.6283
  453MOL0     H61153  10.828  10.704   9.418  0.4855  0.0378 -1.5009
  453MOL0     H61154  10.968  10.796   9.383 -1.1383  0.1160 -0.9454
  453MOL0     H61155  10.943  10.772   9.545  2.9615  4.2433 -0.8190
  454MOL0     O61156   0.420   0.820   7.921 -0.1030 -0.0155 -0.0985
  454MOL0     C61157   0.379   0.790   7.807 -1.3059 -0.4396 -0.3339
  454MOL0     O61158   0.449   0.753   7.698 -0.6968  0.6377 -0.3503
  454MOL0     C61159   0.578   0.724   7.720  0.4239  0.2943 -0.5257
  454MOL0     C61160   0.665   0.827   7.744 -0.9047  0.3923 -0.0019
  454MOL0     C61161   0.796   0.802   7.767 -1.0470  1.0883  0.3035
  454MOL0     C61162   0.854   0.675   7.766  0.1040 -0.0317  0.5787
  454MOL0     O61163   0.986   0.643   7.777  1.6239  0.2586  0.2170
  454MOL0     C61164   1.065   0.693   7.668  0.0937 -0.0531  0.6931
  454MOL0     C61165   1.209   0.666   7.688  0.3569  1.0097 -1.0392
  454MOL0     C61166   1.282   0.744   7.804 -0.2788 -0.1037  0.4298
  454MOL0     C61167   1.273   0.677   7.938  0.0948  0.5929 -0.5331
  454MOL0     C61168   1.345   0.749   8.058  0.7678  1.1278  0.2550
  454MOL0     C61169   1.488   0.792   8.033 -0.4287 -0.2891 -0.4086
  454MOL0     C61170   1.550   0.817   8.169 -0.5756  0.1887  0.3121
  454MOL0     C61171   1.693   0.873   8.150  0.2136 -0.4111 -1.1095
  454MOL0     N61172   1.753   0.899   8.284  0.5289 -0.0261  0.0748
  454MOL0     C61173   1.857   0.981   8.289 -0.1107  1.2184  0.2236
  454MOL0     C61174   1.893   0.983   8.417  0.3023  0.4566  0.4592
  454MOL0     C61175   2.017   1.040   8.467  0.0219  0.7872 -0.2607
  454MOL0     C61176   2.112   0.938   8.538 -0.7575 -1.6698  1.0401
  454MOL0     C61177   2.158   0.838   8.431  0.4532  0.9068 -0.4150
  454MOL0     C61178   2.273   0.872   8.334 -1.0306 -0.4433  0.2869
  454MOL0     O61179   2.275   0.775   8.223 -0.0153 -0.3991  0.5496
  454MOL0     C61180   2.181   0.781   8.121 -0.4959 -0.4739  0.2796
  454MOL0     C61181   2.169   0.897   8.040  0.2330  0.2391 -0.8816
  454MOL0     C61182   2.080   0.907   7.932  0.1456  0.0430  0.3773
  454MOL0     C61183   1.997   0.790   7.906 -0.2233 -0.2895  0.1367
  454MOL0     C61184   1.899   0.791   7.788 -1.6251 -0.1726 -1.3415
  454MOL0     O61185   1.777   0.763   7.825  0.3445 -0.7443  0.3094
  454MOL0     C61186   1.687   0.776   7.725 -0.3164  0.4611 -0.3684
  454MOL0     C61187   1.675   0.666   7.638 -0.7253 -0.2469  0.0998
  454MOL0     C61188   1.588   0.678   7.524 -0.2481 -0.3589  0.4069
  454MOL0     C61189   1.501   0.796   7.506 -0.3251  0.6550  0.4167
  454MOL0     O61190   1.409   0.804   7.400 -0.3044 -0.2169 -0.6664
  454MOL0     C61191   1.333   0.924   7.376  0.3756  0.1918 -0.3018
  454MOL0     C61192   1.197   0.934   7.456 -0.1455  0.4582  0.5992
  454MOL0     C61193   1.128   1.070   7.461  0.0398  0.5344  0.1664
  454MOL0     C61194   0.989   1.054   7.534  0.5754  0.1907 -0.9963
  454MOL0     C61195   0.889   1.168   7.502  0.0163 -0.0500 -0.3744
  454MOL0     C61196   0.752   1.143   7.566 -0.5301  0.4357 -0.6467
  454MOL0     C61197   0.656   1.270   7.568 -0.1777  0.2297 -0.1466
  454MOL0     C61198   0.524   1.218   7.616  0.7677 -0.2502  0.2218
  454MOL0    Cl61199   0.448   1.140   7.496 -0.1113  0.0752 -0.3530
  454MOL0     C61200   1.529   0.899   7.595  0.5623  0.4068 -0.8413
  454MOL0     C61201   1.614   0.892   7.702 -0.0253 -0.2142 -0.1829
  454MOL0     O61202   1.941   0.834   7.681  0.1142  0.4620 -0.2464
  454MOL0     C61203   2.008   0.673   8.000 -0.1079 -0.2724  0.4218
  454MOL0     C61204   2.100   0.674   8.097  0.3078 -0.1340  0.8293
  454MOL0     N61205   1.797   0.915   8.491 -0.2293 -0.4511  0.5831
  454MOL0     N61206   1.708   0.871   8.412 -1.2655 -0.9867  0.2375
  454MOL0     C61207   0.760   0.574   7.734  0.3002  0.0318  0.5277
  454MOL0     C61208   0.629   0.597   7.712  0.7185  0.1191  0.2319
  454MOL0     C61209   0.251   0.856   7.778 -0.0275 -0.0608  1.2154
  454MOL0     C61210   0.222   0.898   7.645 -0.7024 -0.2202  0.3427
  454MOL0     C61211   0.099   0.953   7.600  0.3400 -0.8782 -0.1603
  454MOL0     C61212  -0.002   0.971   7.694  0.0102 -0.2658 -0.0990
  454MOL0     O61213  -0.123   1.027   7.650  0.0425  0.0032 -0.6925
  454MOL0     C61214  -0.225   1.072   7.743  0.7395  0.4160  0.2486
  454MOL0     C61215  -0.333   1.162   7.674  0.2388 -0.1097  0.0323
  454MOL0     C61216  -0.411   1.082   7.568 -0.0894  0.6717 -0.7524
  454MOL0     C61217  -0.439   1.149   7.435 -0.3165 -0.8695 -0.4523
  454MOL0     C61218  -0.540   1.258   7.443 -0.0483  0.7365 -0.2792
  454MOL0     C61219  -0.616   1.353   7.446 -0.0841 -0.1690  0.0607
  454MOL0     C61220   0.027   0.930   7.826  0.0483 -0.3341  0.5302
  454MOL0     C61221   0.147   0.876   7.875  0.3935  0.9513  0.9732
  454MOL0     C61222   0.152   0.830   8.022  0.4537 -0.4297 -0.3015
  454MOL0     H61223   0.626   0.928   7.753 -0.7878  0.3616  0.9443
  454MOL0     H61224   0.862   0.883   7.796  0.4659 -0.5418  1.6763
  454MOL0     H61225   1.042   0.639   7.576 -1.4868 -0.6125  1.3804
  454MOL0     H61226   1.053   0.801   7.655  1.0493 -0.0078  0.1363
  454MOL0     H61227   1.271   0.692   7.602  1.2818  2.1366 -0.0720
  454MOL0     H61228   1.222   0.558   7.701 -1.8786  0.7716 -0.4867
  454MOL0     H61229   1.245   0.845   7.824  0.7597 -0.1431  2.8367
  454MOL0     H61230   1.387   0.752   7.776 -0.2162  0.8140  0.8998
  454MOL0     H61231   1.170   0.662   7.973  0.5322  0.8569  0.9148
  454MOL0     H61232   1.319   0.578   7.931 -2.5063 -0.9244  1.9440
  454MOL0     H61233   1.286   0.838   8.082 -1.3484 -0.5662  1.8199
  454MOL0     H61234   1.353   0.686   8.147  0.8321  1.7605  0.7082
  454MOL0     H61235   1.558   0.736   7.971  0.9041 -0.0691  0.8371
  454MOL0     H61236   1.484   0.892   7.988  0.8611  0.7507  1.6206
  454MOL0     H61237   1.560   0.718   8.215 -0.2324  0.4453  0.8093
  454MOL0     H61238   1.494   0.876   8.242  0.5208  1.5463  0.1134
  454MOL0     H61239   1.755   0.803   8.092  3.8550  1.3926  0.2587
  454MOL0     H61240   1.695   0.963   8.087  1.9753 -2.5628 -4.4349
  454MOL0     H61241   1.920   1.026   8.212  2.0107 -3.4205 -1.1393
  454MOL0     H61242   2.066   1.090   8.383 -1.4191  0.4875 -1.3295
  454MOL0     H61243   1.994   1.122   8.536 -1.6164  0.8698 -0.8496
  454MOL0     H61244   2.200   0.999   8.557 -1.1449 -0.1544 -1.5309
  454MOL0     H61245   2.061   0.905   8.629 -1.9996  3.1360  2.4108
  454MOL0     H61246   2.070   0.813   8.371 -0.1427 -1.4102  1.3208
  454MOL0     H61247   2.185   0.747   8.484  1.4230  0.7721 -1.0989
  454MOL0     H61248   2.368   0.866   8.387 -0.7470  0.1580 -0.1359
  454MOL0     H61249   2.285   0.972   8.290  1.4259 -0.6306  0.3863
  454MOL0     H61250   2.245   0.972   8.061 -0.8951  1.0499  0.4862
  454MOL0     H61251   2.073   0.996   7.870 -2.0501 -0.0469  0.3982
  454MOL0     H61252   1.742   0.581   7.647 -0.0092  0.4050  1.0847
  454MOL0     H61253   1.575   0.595   7.455  1.3199  2.6007 -3.8170
  454MOL0     H61254   1.396   1.013   7.389  0.3411  0.3954 -1.3657
  454MOL0     H61255   1.309   0.924   7.269  0.1180  0.1885 -0.2435
  454MOL0     H61256   1.136   0.851   7.418  1.8547 -1.0924  0.6036
  454MOL0     H61257   1.211   0.900   7.559 -1.9754 -1.3258  0.3208
  454MOL0     H61258   1.199   1.134   7.514  1.6118  1.1373 -2.4856
  454MOL0     H61259   1.101   1.118   7.366  0.9100  2.0255  0.6278
  454MOL0     H61260   0.997   1.044   7.643 -0.3591  0.2068 -0.9173
  454MOL0     H61261   0.941   0.963   7.498 -0.2551  1.4552 -3.3175
  454MOL0     H61262   0.876   1.171   7.393 -1.9817 -1.8131 -0.2593
  454MOL0     H61263   0.917   1.261   7.551 -3.3266 -0.0117  1.8158
  454MOL0     H61264   0.710   1.064   7.503  2.1565 -0.9356 -0.8407
  454MOL0     H61265   0.764   1.115   7.671 -3.2008  2.0604  0.1935
  454MOL0     H61266   0.662   1.321   7.472  1.1075  0.3806 -0.0038
  454MOL0     H61267   0.688   1.344   7.642 -4.1133 -0.6426  2.8254
  454MOL0     H61268   0.531   1.156   7.706 -0.8396 -2.6192 -1.1895
  454MOL0     H61269   0.463   1.302   7.651  3.3829  0.7269  2.9416
  454MOL0     H61270   1.476   0.993   7.586  0.8083  0.8372  1.6557
  454MOL0     H61271   1.611   0.979   7.767  0.6192  0.3706 -0.9163
  454MOL0     H61272   1.941   0.589   7.986 -0.9650  0.1844  1.6111
  454MOL0     H61273   2.111   0.591   8.166 -0.2742  1.0248  2.3655
  454MOL0     H61274   0.803   0.475   7.728 -1.5115 -0.8099  1.0644
  454MOL0     H61275   0.566   0.511   7.689 -3.9163  2.8860  1.2343
  454MOL0     H61276   0.306   0.894   7.577  0.1181  0.4278  1.2895
  454MOL0     H61277   0.076   0.972   7.495 -0.1172 -0.6815 -0.0281
  454MOL0     H61278  -0.168   1.140   7.807 -1.4262  2.1952  0.4219
  454MOL0     H61279  -0.263   0.985   7.796  0.1344  0.5394  0.0270
  454MOL0     H61280  -0.281   1.244   7.623 -1.3482  0.3124 -1.0181
  454MOL0     H61281  -0.404   1.204   7.746  0.0984 -2.5669  1.4377
  454MOL0     H61282  -0.495   1.038   7.622 -0.0567  0.1442 -1.1333
  454MOL0     H61283  -0.346   1.000   7.536 -2.2581 -0.7109 -1.8178
  454MOL0     H61284  -0.350   1.206   7.407  0.3601 -2.7371 -2.3813
  454MOL0     H61285  -0.465   1.075   7.358 -2.5740  0.3801 -0.9795
  454MOL0     H61286  -0.685   1.435   7.455  0.9983  0.7680  0.0302
  454MOL0     H61287  -0.047   0.947   7.903  1.1036 -1.2060  1.7817
  454MOL0     H61288   0.209   0.899   8.085 -1.6142 -0.0173  1.2349
  454MOL0     H61289   0.049   0.817   8.055  0.3708 -1.9552 -1.0716
  454MOL0     H61290   0.208   0.736   8.028  2.0675  0.3508 -2.0142
  455MOL0     O61291   7.257  11.032   3.849 -0.6044  0.2470 -0.0008
  455MOL0     C61292   7.247  10.919   3.797  0.3031  0.1143 -0.1299
  455MOL0     O61293   7.347  10.829   3.772  1.4505  0.2537  0.1168
  455MOL0     C61294   7.474  10.839   3.805 -0.9626 -0.8397 -0.6263
  455MOL0     C61295   7.560  10.752   3.737  0.0765 -0.3461 -0.7341
  455MOL0     C61296   7.699  10.764   3.742 -0.4400 -0.4086 -0.0915
  455MOL0     C61297   7.759  10.863   3.812 -0.9416 -0.0050  0.2475
  455MOL0     O61298   7.902  10.863   3.817  0.0992 -0.6468  0.5672
  455MOL0     C61299   7.960  10.750   3.876  0.1508  0.0691  0.3219
  455MOL0     C61300   8.109  10.758   3.865  0.3973 -0.5079  0.0360
  455MOL0     C61301   8.183  10.711   3.992 -0.1760  0.4637 -0.4727
  455MOL0     C61302   8.317  10.650   3.972  0.0129 -0.1574 -0.2881
  455MOL0     C61303   8.422  10.748   3.925 -0.3757 -0.8566  0.9243
  455MOL0     C61304   8.552  10.693   3.880  1.3529  0.5300  0.5867
  455MOL0     C61305   8.643  10.796   3.821  0.0360 -0.2360  0.3207
  455MOL0     C61306   8.606  10.872   3.693 -0.0263 -0.6532  0.0541
  455MOL0     N61307   8.579  10.787   3.584 -0.4150 -0.4851  0.4976
  455MOL0     C61308   8.674  10.718   3.521  0.4828 -0.5180 -0.1985
  455MOL0     C61309   8.605  10.664   3.409  0.5061 -0.3135 -0.6082
  455MOL0     C61310   8.656  10.568   3.312  0.1894 -0.2950 -0.1533
  455MOL0     C61311   8.596  10.431   3.332 -0.0574  0.4022  0.1478
  455MOL0     C61312   8.647  10.325   3.230  0.3260  0.2051 -0.8848
  455MOL0     C61313   8.800  10.308   3.236 -0.0652 -0.0841  0.1177
  455MOL0     O61314   8.848  10.298   3.369 -0.1107 -0.0716  0.3736
  455MOL0     C61315   8.988  10.293   3.397  0.5993 -0.6586 -1.1712
  455MOL0     C61316   9.076  10.260   3.298 -0.0822  0.7288 -0.0144
  455MOL0     C61317   9.209  10.242   3.327 -0.0808  0.2098 -0.2907
  455MOL0     C61318   9.256  10.268   3.458  0.5809 -0.0040  0.1482
  455MOL0     C61319   9.399  10.271   3.507 -1.4240 -0.4965 -0.1470
  455MOL0     O61320   9.493  10.297   3.407 -0.4138  0.3088 -0.6950
  455MOL0     C61321   9.617  10.328   3.452 -0.2237  0.0829  0.4933
  455MOL0     C61322   9.672  10.451   3.476 -0.2511  0.0046  0.5240
  455MOL0     C61323   9.810  10.467   3.499  0.2511 -0.0071 -0.1814
  455MOL0     C61324   9.904  10.356   3.503  0.1773  0.1683 -0.8777
  455MOL0     O61325  10.042  10.375   3.524  0.1008 -0.6460  0.1476
  455MOL0     C61326  10.086  10.463   3.622  0.5882 -0.2329  0.3208
  455MOL0     C61327  10.233  10.437   3.645 -0.0304 -0.1790 -0.2834
  455MOL0     C61328  10.307  10.565   3.690 -0.4719  0.4167  0.0464
  455MOL0     C61329  10.452  10.542   3.692  0.3372  0.2757  0.3704
  455MOL0     C61330  10.542  10.661   3.724  0.6836  1.1003 -0.2267
  455MOL0     C61331  10.523  10.790   3.650  0.5298 -0.1579 -0.6509
  455MOL0     C61332  10.604  10.914   3.704 -0.1963  0.7443 -0.5744
  455MOL0     C61333  10.548  11.037   3.650 -0.1112  0.0024 -0.6951
  455MOL0    Cl61334  10.639  11.174   3.697 -0.2045 -0.0577 -0.5219
  455MOL0     C61335   9.841  10.231   3.485  0.6343 -0.1896 -1.5790
  455MOL0     C61336   9.708  10.221   3.464  0.0979 -0.7099  0.0584
  455MOL0     O61337   9.423  10.254   3.631  0.0678  0.5577 -0.3507
  455MOL0     C61338   9.159  10.295   3.561 -0.2087 -1.0634  0.5115
  455MOL0     C61339   9.026  10.303   3.524 -0.8883  0.7109 -0.1561
  455MOL0     N61340   8.477  10.717   3.409 -0.5732 -0.6115  0.0513
  455MOL0     N61341   8.461  10.791   3.509 -0.6917  0.3849 -0.2571
  455MOL0     C61342   7.681  10.953   3.884 -0.2683 -1.2129  0.6381
  455MOL0     C61343   7.536  10.940   3.893 -1.1209 -0.5557  0.2713
  455MOL0     C61344   7.114  10.880   3.749 -0.0154  0.8082 -0.1541
  455MOL0     C61345   7.089  10.745   3.708  0.2367 -0.3241  1.1396
  455MOL0     C61346   6.962  10.702   3.666  0.5169 -0.4261  0.5736
  455MOL0     C61347   6.857  10.790   3.644 -0.4298 -0.7141  0.3453
  455MOL0     O61348   6.739  10.737   3.597  0.7005 -0.0444 -0.5223
  455MOL0     C61349   6.615  10.790   3.655 -0.9832  0.2350  0.4779
  455MOL0     C61350   6.546  10.860   3.547 -0.0740 -0.4722  0.1834
  455MOL0     C61351   6.413  10.920   3.584 -0.1939 -0.8526 -0.3701
  455MOL0     C61352   6.428  11.032   3.684 -0.0354  0.1335  0.4440
  455MOL0     C61353   6.305  11.115   3.693 -0.8333  0.2473 -0.9294
  455MOL0     C61354   6.219  11.193   3.723  0.5824  0.6400 -0.0661
  455MOL0     C61355   6.885  10.922   3.669  0.1708  0.2206 -0.0976
  455MOL0     C61356   7.006  10.962   3.724 -1.0473 -0.8162  0.3493
  455MOL0     C61357   7.010  11.112   3.761  0.3325  0.3052  0.4705
  455MOL0     H61358   7.526  10.677   3.666  0.2879  0.7164 -2.0128
  455MOL0     H61359   7.762  10.689   3.694  1.1304  1.8128 -1.7345
  455MOL0     H61360   7.929  10.749   3.981 -2.3812  0.4317 -0.3531
  455MOL0     H61361   7.921  10.657   3.834  1.0734 -0.8660  1.4454
  455MOL0     H61362   8.139  10.859   3.837 -0.2223  0.5420  2.8324
  455MOL0     H61363   8.134  10.694   3.780 -1.6952 -0.5244 -0.6258
  455MOL0     H61364   8.120  10.641   4.048 -1.2183  2.6565  1.2304
  455MOL0     H61365   8.197  10.799   4.055 -1.7833 -0.2469  0.9585
  455MOL0     H61366   8.348  10.599   4.064  2.3879  0.2653 -0.7782
  455MOL0     H61367   8.308  10.569   3.898 -1.9864  0.5271 -0.8444
  455MOL0     H61368   8.380  10.791   3.834 -0.2800  1.2704  1.8243
  455MOL0     H61369   8.441  10.830   3.994  0.8371 -0.3946  0.0936
  455MOL0     H61370   8.606  10.641   3.959  0.0838 -0.8155  0.6182
  455MOL0     H61371   8.526  10.610   3.814  1.1684 -0.1307  1.4689
  455MOL0     H61372   8.745  10.760   3.805 -0.1653 -0.8460  0.3433
  455MOL0     H61373   8.653  10.865   3.905  2.0802  1.7164 -1.4027
  455MOL0     H61374   8.525  10.945   3.702  0.8176  0.4482 -1.0068
  455MOL0     H61375   8.690  10.932   3.659  2.1360 -3.3544  0.2735
  455MOL0     H61376   8.777  10.693   3.544  2.1480  2.8431 -3.0646
  455MOL0     H61377   8.636  10.597   3.208  1.6201  1.3370 -0.0257
  455MOL0     H61378   8.764  10.566   3.327  0.0756 -1.0290  0.6568
  455MOL0     H61379   8.615  10.398   3.434  0.7042 -2.8207 -0.9111
  455MOL0     H61380   8.487  10.439   3.336 -0.2019 -1.5656  2.6459
  455MOL0     H61381   8.611  10.352   3.130 -2.3896 -0.2009 -0.0819
  455MOL0     H61382   8.609  10.225   3.251  1.0705 -0.2540 -1.6322
  455MOL0     H61383   8.845  10.391   3.181  1.5702 -2.1154 -1.7790
  455MOL0     H61384   8.822  10.213   3.188  1.3203  0.8397 -1.1814
  455MOL0     H61385   9.045  10.244   3.195 -2.9876 -0.2969  0.9138
  455MOL0     H61386   9.274  10.229   3.241 -2.3195  0.8843 -2.1985
  455MOL0     H61387   9.611  10.539   3.492  0.7473  0.4305  2.3182
  455MOL0     H61388   9.846  10.567   3.522 -2.4439  1.4317 -1.7808
  455MOL0     H61389  10.071  10.566   3.589 -0.0197  0.1819  1.8211
  455MOL0     H61390  10.032  10.447   3.716  0.4972 -1.4563  0.0825
  455MOL0     H61391  10.243  10.371   3.732  0.4827  1.5523  1.0563
  455MOL0     H61392  10.275  10.388   3.557  0.9806 -2.7093  1.4849
  455MOL0     H61393  10.274  10.646   3.624 -3.4316 -1.4361 -0.9098
  455MOL0     H61394  10.262  10.597   3.784 -0.8529 -2.8747  1.1204
  455MOL0     H61395  10.479  10.503   3.593  2.0600  0.5001  0.7348
  455MOL0     H61396  10.463  10.467   3.771 -0.7224  1.4824  1.7179
  455MOL0     H61397  10.647  10.632   3.728  0.7880  0.7466 -3.0796
  455MOL0     H61398  10.513  10.695   3.824 -1.5425  2.0198 -1.0976
  455MOL0     H61399  10.542  10.767   3.545 -4.5494 -1.4524 -1.5381
  455MOL0     H61400  10.418  10.814   3.665  0.4729 -1.1585  0.7393
  455MOL0     H61401  10.709  10.912   3.675  0.2998 -2.0116  1.0320
  455MOL0     H61402  10.611  10.922   3.813  0.1619 -1.3989 -0.4098
  455MOL0     H61403  10.535  11.042   3.542 -0.3712  3.4994 -0.6068
  455MOL0     H61404  10.445  11.039   3.686  0.7577 -0.6405  2.0633
  455MOL0     H61405   9.899  10.139   3.490  0.9828  0.0964  0.2772
  455MOL0     H61406   9.656  10.125   3.458 -1.8922  0.2744  0.6967
  455MOL0     H61407   9.188  10.307   3.664  0.4988 -0.1428  0.2202
  455MOL0     H61408   8.954  10.334   3.598 -1.0389  2.7719 -1.0999
  455MOL0     H61409   7.722  11.035   3.943 -1.8180 -1.0482  1.5459
  455MOL0     H61410   7.490  11.016   3.955  0.8998  0.5448  0.5240
  455MOL0     H61411   7.166  10.669   3.701 -0.2346 -0.6341 -1.7988
  455MOL0     H61412   6.949  10.599   3.635  0.8170  0.1201 -1.4992
  455MOL0     H61413   6.627  10.850   3.745  3.2783  0.5555 -0.0879
  455MOL0     H61414   6.556  10.703   3.683 -0.3018  0.2563  2.0474
  455MOL0     H61415   6.524  10.793   3.464  1.6988 -1.5605  0.5436
  455MOL0     H61416   6.601  10.944   3.506  1.1351 -1.0614  0.5485
  455MOL0     H61417   6.344  10.849   3.629 -0.4833 -0.6017 -0.4095
  455MOL0     H61418   6.368  10.963   3.494  0.2345 -0.4034 -0.3763
  455MOL0     H61419   6.469  10.995   3.778 -1.5078  1.1075  1.5195
  455MOL0     H61420   6.506  11.099   3.647 -1.2413  1.5867  0.4318
  455MOL0     H61421   6.134  11.258   3.733 -1.6127 -1.8961 -1.2016
  455MOL0     H61422   6.806  10.996   3.658  0.6916  0.5208 -2.2140
  455MOL0     H61423   7.028  11.127   3.868  2.6068 -1.3332  0.3927
  455MOL0     H61424   7.084  11.159   3.696  1.1155 -0.9075  0.4514
  455MOL0     H61425   6.911  11.152   3.738  0.2518 -0.9237 -1.5237
  456MOL0     O61426  10.924   5.708   3.431  0.0111  0.0490  0.8729
  456MOL0     C61427  10.857   5.640   3.501  0.0406  0.6834  0.2429
  456MOL0     O61428  10.906   5.538   3.577  0.9363 -0.3330 -0.1677
  456MOL0     C61429  11.037   5.507   3.576 -0.0643  0.8295  0.0796
  456MOL0     C61430  11.133   5.591   3.635  0.8431  0.3240 -0.2223
  456MOL0     C61431  11.253   5.543   3.678 -0.0195 -0.4644  0.3159
  456MOL0     C61432  11.286   5.411   3.649  1.0121 -0.6643 -0.9067
  456MOL0     O61433  11.414   5.363   3.681  0.1104 -0.1952  0.0627
  456MOL0     C61434  11.460   5.360   3.810  0.1333  0.1339  0.3855
  456MOL0     C61435  11.556   5.479   3.847  0.1304 -0.0140 -0.2209
  456MOL0     C61436  11.613   5.473   3.989 -0.4943  0.5047  0.2432
  456MOL0     C61437  11.714   5.580   4.020 -0.9232 -0.3936  0.1343
  456MOL0     C61438  11.810   5.548   4.132 -0.6606  0.2508 -0.5129
  456MOL0     C61439  11.931   5.456   4.094 -0.5883  0.9572 -0.1459
  456MOL0     C61440  12.062   5.531   4.124  0.1899 -0.1578 -0.4914
  456MOL0     C61441  12.083   5.528   4.278  0.0861  0.2200 -0.1981
  456MOL0     N61442  12.198   5.610   4.330 -0.5182 -0.2274  0.7349
  456MOL0     C61443  12.274   5.697   4.262 -0.2743 -0.3802  1.1485
  456MOL0     C61444  12.358   5.749   4.352  0.1870 -0.0107  0.2488
  456MOL0     C61445  12.475   5.829   4.312 -0.5896 -0.6299 -0.4028
  456MOL0     C61446  12.595   5.742   4.284 -0.4734  0.3516 -0.4224
  456MOL0     C61447  12.732   5.821   4.288  1.3572 -0.5251  0.4558
  456MOL0     C61448  12.853   5.739   4.282  0.0115 -0.7883 -0.3821
  456MOL0     O61449  12.959   5.824   4.225 -0.3428 -0.2075 -0.9660
  456MOL0     C61450  13.090   5.779   4.233  0.4147 -0.7146  0.1373
  456MOL0     C61451  13.186   5.882   4.239  0.9519  0.0241  0.1413
  456MOL0     C61452  13.319   5.843   4.256 -0.0269 -0.7555  0.0281
  456MOL0     C61453  13.367   5.706   4.252 -0.5160  0.3508  0.8814
  456MOL0     C61454  13.505   5.667   4.269  0.8085 -0.4285  0.8132
  456MOL0     O61455  13.594   5.771   4.267 -0.4610  0.3336 -0.1031
  456MOL0     C61456  13.724   5.751   4.292  0.1115 -1.0167 -0.4126
  456MOL0     C61457  13.771   5.731   4.427 -0.6976 -0.4022 -0.1357
  456MOL0     C61458  13.911   5.698   4.457  0.5401 -0.2081  0.1840
  456MOL0     C61459  13.995   5.683   4.341 -0.9955 -0.1633 -0.3570
  456MOL0     O61460  14.131   5.648   4.335 -0.8134 -0.4962 -0.1192
  456MOL0     C61461  14.196   5.660   4.467 -0.2041  0.1437 -1.0437
  456MOL0     C61462  14.341   5.658   4.453 -0.7771 -0.9098 -0.4243
  456MOL0     C61463  14.395   5.799   4.417  0.7467 -0.2858 -0.3487
  456MOL0     C61464  14.538   5.793   4.459 -0.8039 -0.6870  0.0353
  456MOL0     C61465  14.612   5.919   4.398 -0.4007  0.8792 -0.5811
  456MOL0     C61466  14.567   6.047   4.460  0.1611 -0.3160 -1.0571
  456MOL0     C61467  14.660   6.152   4.417 -1.1411 -0.3073 -0.2084
  456MOL0     C61468  14.653   6.259   4.525  0.5916 -0.2243 -0.3482
  456MOL0    Cl61469  14.734   6.211   4.680 -0.1103  0.0867 -0.1474
  456MOL0     C61470  13.951   5.718   4.217  0.7004  0.4056  0.0578
  456MOL0     C61471  13.818   5.762   4.195 -0.1413  0.3363 -0.2331
  456MOL0     O61472  13.531   5.546   4.291 -0.5100  0.0898  0.3809
  456MOL0     C61473  13.264   5.609   4.239  0.3303 -0.1457 -0.3136
  456MOL0     C61474  13.127   5.648   4.230  0.0005  0.7714  1.0039
  456MOL0     N61475  12.319   5.707   4.477 -0.1200  0.5252  0.0970
  456MOL0     N61476  12.226   5.623   4.464  0.5174  0.2678  0.1000
  456MOL0     C61477  11.195   5.333   3.579  0.5596  0.4818  0.7648
  456MOL0     C61478  11.070   5.375   3.551 -0.3296 -0.0941 -0.0269
  456MOL0     C61479  10.707   5.645   3.490  0.3565 -0.0701  0.1653
  456MOL0     C61480  10.630   5.524   3.510 -0.2940 -0.4745 -0.1996
  456MOL0     C61481  10.494   5.519   3.505 -0.0912 -0.0211  0.8046
  456MOL0     C61482  10.419   5.626   3.475 -0.2692 -0.8896 -0.9341
  456MOL0     O61483  10.285   5.610   3.461  0.4392 -0.1041  0.4563
  456MOL0     C61484  10.192   5.723   3.450 -0.3577 -0.4024 -0.5498
  456MOL0     C61485  10.168   5.761   3.307 -0.5672  0.0154  0.1374
  456MOL0     C61486  10.049   5.868   3.304 -0.0309 -0.1946 -0.2135
  456MOL0     C61487   9.953   5.874   3.180  0.6676 -0.2355 -0.2581
  456MOL0     C61488   9.876   5.745   3.177 -0.2352 -0.4088  0.6054
  456MOL0     C61489   9.829   5.637   3.162  0.2479 -0.5081  0.1223
  456MOL0     C61490  10.490   5.743   3.435  0.6422 -0.3059  1.2468
  456MOL0     C61491  10.632   5.761   3.446  1.2924 -0.4419  0.4285
  456MOL0     C61492  10.687   5.892   3.396  0.2934 -0.4312 -0.3489
  456MOL0     H61493  11.110   5.695   3.657  1.9143  0.5103  0.0961
  456MOL0     H61494  11.330   5.610   3.713 -2.7937  2.4597  1.2668
  456MOL0     H61495  11.382   5.361   3.886  1.0252  2.3146  1.3703
  456MOL0     H61496  11.510   5.263   3.813  0.2357  0.0343 -2.3001
  456MOL0     H61497  11.502   5.573   3.831 -1.9060 -0.7173  1.9453
  456MOL0     H61498  11.631   5.476   3.768 -0.1765 -3.0832 -0.5151
  456MOL0     H61499  11.674   5.382   3.989  4.5450  3.4566  2.0978
  456MOL0     H61500  11.546   5.461   4.074  1.0073 -2.0185  1.1866
  456MOL0     H61501  11.770   5.600   3.928 -1.2065 -2.9685 -0.6963
  456MOL0     H61502  11.658   5.672   4.038 -0.7561 -0.0138 -1.1806
  456MOL0     H61503  11.858   5.637   4.175 -1.4285  0.1438  0.6119
  456MOL0     H61504  11.750   5.506   4.213 -0.3175 -0.2991 -0.5404
  456MOL0     H61505  11.929   5.368   4.159  0.6810 -0.3905 -1.8092
  456MOL0     H61506  11.920   5.412   3.994  0.3391  0.2691  0.0443
  456MOL0     H61507  12.047   5.634   4.092 -1.5406 -0.5813 -1.1349
  456MOL0     H61508  12.145   5.486   4.068  2.0694  1.0463  1.1747
  456MOL0     H61509  11.993   5.553   4.335  0.8852 -1.7781  2.1025
  456MOL0     H61510  12.080   5.425   4.314 -0.5722  1.4604  3.9270
  456MOL0     H61511  12.285   5.711   4.155  0.3207  2.5041  1.4923
  456MOL0     H61512  12.458   5.893   4.224  3.4577  2.1643  0.5308
  456MOL0     H61513  12.494   5.893   4.398 -2.9716  0.6425 -0.7210
  456MOL0     H61514  12.597   5.671   4.367 -0.1048 -0.7329 -1.3348
  456MOL0     H61515  12.570   5.682   4.196 -0.9057  0.0550 -0.0975
  456MOL0     H61516  12.740   5.877   4.381  2.2762 -3.0504  1.9786
  456MOL0     H61517  12.731   5.896   4.208 -1.8227  2.2355  2.8099
  456MOL0     H61518  12.838   5.654   4.215 -1.2222 -1.0335  0.1850
  456MOL0     H61519  12.876   5.713   4.385  0.0880  1.9613  0.3748
  456MOL0     H61520  13.157   5.986   4.243 -1.7736 -0.5655 -1.6878
  456MOL0     H61521  13.376   5.935   4.249 -0.8031 -0.3938 -2.7673
  456MOL0     H61522  13.695   5.725   4.504 -0.5414 -0.3880  0.0184
  456MOL0     H61523  13.945   5.685   4.559 -0.3805 -0.3893  0.4733
  456MOL0     H61524  14.165   5.751   4.520  2.4375  0.1406  0.7443
  456MOL0     H61525  14.168   5.576   4.531  1.6968  0.1220 -0.1601
  456MOL0     H61526  14.384   5.635   4.551  0.9191 -1.9154 -1.3486
  456MOL0     H61527  14.368   5.583   4.379 -1.1837 -0.0075 -1.5173
  456MOL0     H61528  14.383   5.819   4.311 -2.0562 -1.7980 -0.4063
  456MOL0     H61529  14.336   5.879   4.463  0.0706 -0.4959 -0.8457
  456MOL0     H61530  14.588   5.707   4.415 -0.8742 -0.5679 -0.2845
  456MOL0     H61531  14.542   5.811   4.567  0.4275 -1.7012  0.1807
  456MOL0     H61532  14.598   5.928   4.290 -0.6265  4.8745 -0.3620
  456MOL0     H61533  14.718   5.902   4.416 -0.8254  0.4617  1.8789
  456MOL0     H61534  14.465   6.077   4.436  0.7636  1.8808 -1.0653
  456MOL0     H61535  14.579   6.027   4.567 -0.8420 -2.2437 -1.2587
  456MOL0     H61536  14.635   6.176   4.314 -0.5286  1.3869  0.0101
  456MOL0     H61537  14.766   6.124   4.419 -1.0287  0.1335  1.8036
  456MOL0     H61538  14.706   6.348   4.492  1.4541 -1.8562 -3.7650
  456MOL0     H61539  14.549   6.291   4.538  1.4477  2.3207  0.6900
  456MOL0     H61540  14.017   5.716   4.132  0.5963  1.0441 -0.0429
  456MOL0     H61541  13.789   5.802   4.098 -0.3643  0.9793  0.0948
  456MOL0     H61542  13.291   5.503   4.238  2.4165  0.1719  3.2199
  456MOL0     H61543  13.054   5.567   4.224 -0.2546  0.8479  2.5624
  456MOL0     H61544  11.223   5.234   3.544 -1.9995 -0.8704  2.2465
  456MOL0     H61545  11.010   5.319   3.480  1.6967 -1.4303 -0.7964
  456MOL0     H61546  10.681   5.428   3.518 -1.8412 -1.4105 -1.0674
  456MOL0     H61547  10.436   5.434   3.537 -1.3547  0.3369 -0.4279
  456MOL0     H61548  10.221   5.809   3.511  0.5189 -2.3134  1.9137
  456MOL0     H61549  10.098   5.687   3.492 -2.2388  2.2023 -2.2077
  456MOL0     H61550  10.142   5.673   3.247  0.0330 -0.4413  0.5403
  456MOL0     H61551  10.253   5.804   3.252 -0.9806 -4.3203 -4.6710
  456MOL0     H61552  10.092   5.968   3.309  0.6863 -0.5597  2.0809
  456MOL0     H61553   9.982   5.855   3.388 -2.2450  0.9239 -1.7124
  456MOL0     H61554   9.886   5.960   3.186 -0.5007 -1.2056  1.3052
  456MOL0     H61555  10.005   5.889   3.084  0.2777  1.4282 -0.2389
  456MOL0     H61556   9.795   5.536   3.148  2.6920 -1.3819 -0.0167
  456MOL0     H61557  10.432   5.831   3.407  1.1591 -0.3781 -0.1130
  456MOL0     H61558  10.622   5.973   3.363  1.5173 -0.1661 -2.3081
  456MOL0     H61559  10.738   5.936   3.482 -0.4976 -2.1726  1.1046
  456MOL0     H61560  10.745   5.890   3.303 -1.4361 -1.1695 -1.4658
  457MOL0     O61561  10.906   5.880   1.314 -0.5132 -1.5122 -0.5675
  457MOL0     C61562  10.928   5.782   1.248 -0.0736 -0.1746  1.0148
  457MOL0     O61563  11.031   5.708   1.256 -0.1296  0.2434  0.9288
  457MOL0     C61564  11.155   5.759   1.286 -0.0034  0.1865  0.2889
  457MOL0     C61565  11.258   5.737   1.196 -0.1423  0.5375  0.3183
  457MOL0     C61566  11.387   5.780   1.230 -0.2483 -0.7240  0.0182
  457MOL0     C61567  11.402   5.853   1.349  0.0778 -0.9961  0.3237
  457MOL0     O61568  11.530   5.902   1.376 -0.3833  0.7236 -0.2132
  457MOL0     C61569  11.630   5.882   1.273 -0.7333 -0.8125  0.2324
  457MOL0     C61570  11.749   5.967   1.315  0.1696 -0.1148  0.1512
  457MOL0     C61571  11.876   5.963   1.233 -1.1919  0.1786  0.2107
  457MOL0     C61572  11.976   6.062   1.288 -0.0820  0.2488  0.2049
  457MOL0     C61573  12.112   6.036   1.220  0.5770 -0.3386 -0.2190
  457MOL0     C61574  12.117   6.039   1.070  0.4849  0.1032 -0.5018
  457MOL0     C61575  12.263   6.068   1.015 -0.2269  0.2752 -0.2950
  457MOL0     C61576  12.269   6.046   0.860  0.7817  0.1092  0.9531
  457MOL0     N61577  12.402   6.043   0.806 -0.7380  0.3278  0.0708
  457MOL0     C61578  12.481   6.155   0.807  0.2096 -0.2522 -0.1780
  457MOL0     C61579  12.597   6.112   0.758  0.6157  0.2316 -0.7447
  457MOL0     C61580  12.712   6.209   0.746  0.2115 -0.2588  0.5591
  457MOL0     C61581  12.817   6.169   0.642 -0.5343  0.5699 -0.1757
  457MOL0     C61582  12.914   6.049   0.682  0.7843 -0.7022 -0.5065
  457MOL0     C61583  13.046   6.052   0.610 -1.1067  0.5563  0.9276
  457MOL0     O61584  13.119   5.935   0.648  0.3819  0.0642 -0.0822
  457MOL0     C61585  13.252   5.947   0.635 -0.0584 -0.0549  0.4187
  457MOL0     C61586  13.320   5.962   0.513  0.0773 -0.7051  0.2614
  457MOL0     C61587  13.457   5.957   0.515 -0.0095  0.5821  0.3204
  457MOL0     C61588  13.530   5.962   0.626  0.2612  0.2762 -0.4832
  457MOL0     C61589  13.676   5.973   0.612 -0.8001 -0.2630  0.0434
  457MOL0     O61590  13.747   5.934   0.718 -0.3788 -0.4168 -0.2325
  457MOL0     C61591  13.885   5.904   0.714  0.0893  0.0318 -0.7583
  457MOL0     C61592  13.938   5.874   0.844 -0.1455  0.4348 -0.1192
  457MOL0     C61593  14.078   5.845   0.850  0.3819 -0.2131 -0.2152
  457MOL0     C61594  14.153   5.834   0.733 -0.8404 -0.5481  0.3263
  457MOL0     O61595  14.280   5.802   0.755  0.0783  0.3956  0.8061
  457MOL0     C61596  14.362   5.764   0.647  0.4726 -1.2013  0.5878
  457MOL0     C61597  14.476   5.696   0.706  0.3530 -0.2552 -0.1477
  457MOL0     C61598  14.567   5.624   0.612  0.5186 -0.6297  0.2298
  457MOL0     C61599  14.688   5.569   0.689  0.4264 -0.2636 -0.7078
  457MOL0     C61600  14.791   5.513   0.598 -0.7680  0.2181 -0.2197
  457MOL0     C61601  14.908   5.449   0.673 -0.4942 -0.2284  0.2174
  457MOL0     C61602  14.862   5.313   0.740 -0.4496 -0.5282 -0.2839
  457MOL0     C61603  14.988   5.227   0.741 -0.4299  0.4609  0.1395
  457MOL0    Cl61604  15.134   5.324   0.802 -0.1810  0.0505 -0.1583
  457MOL0     C61605  14.100   5.873   0.609 -0.2962  0.3181  0.6419
  457MOL0     C61606  13.974   5.923   0.607  1.0581  0.1598  0.5370
  457MOL0     O61607  13.712   6.018   0.507 -0.1896 -0.0032  0.5654
  457MOL0     C61608  13.463   5.951   0.750 -0.4703  0.2873 -0.0228
  457MOL0     C61609  13.327   5.937   0.755 -0.1384  0.1053 -0.2950
  457MOL0     N61610  12.592   5.969   0.752 -0.1748 -0.0187  0.7500
  457MOL0     N61611  12.472   5.937   0.768  0.1221 -0.3975  0.0073
  457MOL0     C61612  11.302   5.875   1.440  0.2157 -0.2314  0.1748
  457MOL0     C61613  11.173   5.820   1.409  0.1813 -0.2672 -0.0263
  457MOL0     C61614  10.817   5.736   1.162  0.0318 -0.0681  0.8032
  457MOL0     C61615  10.756   5.606   1.184  0.0036  0.0501 -0.0964
  457MOL0     C61616  10.664   5.550   1.097 -0.4921 -0.2561 -0.3102
  457MOL0     C61617  10.612   5.627   0.995 -0.4299  0.3421 -0.4389
  457MOL0     O61618  10.526   5.592   0.902  1.3067  0.3301 -0.0604
  457MOL0     C61619  10.448   5.472   0.911  0.3370  0.3604  0.2669
  457MOL0     C61620  10.372   5.466   0.780  0.0095  0.2694  0.2025
  457MOL0     C61621  10.301   5.327   0.774  0.1523 -0.1923  0.4521
  457MOL0     C61622  10.187   5.326   0.681 -0.4216  0.1513  0.6654
  457MOL0     C61623  10.162   5.186   0.639 -0.6733 -0.1023  0.3893
  457MOL0     C61624  10.132   5.081   0.582  0.0236 -0.5534  0.7229
  457MOL0     C61625  10.654   5.767   0.988  0.1842  0.4724  0.2275
  457MOL0     C61626  10.760   5.814   1.056  0.0972  0.0139 -0.6852
  457MOL0     C61627  10.796   5.956   1.028  1.6649  0.6318  0.4207
  457MOL0     H61628  11.238   5.695   1.098 -0.7665  2.4049 -0.4073
  457MOL0     H61629  11.462   5.764   1.154 -0.8175  1.9347 -1.1974
  457MOL0     H61630  11.672   5.782   1.261  0.5664 -0.3037  0.2722
  457MOL0     H61631  11.596   5.924   1.178 -1.2570 -2.6605 -0.4366
  457MOL0     H61632  11.775   5.942   1.418 -0.9696 -3.0115 -0.1804
  457MOL0     H61633  11.702   6.066   1.303  0.4784 -0.2335 -2.8278
  457MOL0     H61634  11.848   5.980   1.128 -2.7652 -0.6805  0.4557
  457MOL0     H61635  11.922   5.864   1.240 -1.5839 -0.1568 -1.3826
  457MOL0     H61636  11.945   6.166   1.274 -1.5792 -0.1306  0.4309
  457MOL0     H61637  11.989   6.051   1.396 -2.0903  1.2252  0.5944
  457MOL0     H61638  12.185   6.110   1.254 -0.1734  0.5190 -0.4328
  457MOL0     H61639  12.154   5.941   1.255  0.8455 -0.2823 -0.3884
  457MOL0     H61640  12.073   5.951   1.021 -0.2242  0.7503 -1.0374
  457MOL0     H61641  12.058   6.129   1.049  0.0762  0.3102  1.3933
  457MOL0     H61642  12.336   6.009   1.071 -2.0367 -3.0003 -1.1398
  457MOL0     H61643  12.285   6.173   1.036  1.2208  0.3570 -2.0164
  457MOL0     H61644  12.208   5.959   0.834 -2.0856  2.9043 -2.6470
  457MOL0     H61645  12.214   6.128   0.813 -0.4264 -0.6892  0.9212
  457MOL0     H61646  12.454   6.256   0.838 -1.4955 -1.0178  1.0189
  457MOL0     H61647  12.673   6.308   0.719  1.9429  0.1156 -0.7511
  457MOL0     H61648  12.761   6.219   0.844  1.1927 -1.9387  0.2874
  457MOL0     H61649  12.766   6.142   0.549  0.2075 -1.6321 -0.0076
  457MOL0     H61650  12.866   6.266   0.630  1.3232 -0.1703  0.9809
  457MOL0     H61651  12.866   5.953   0.659  0.7599 -1.0895  1.0950
  457MOL0     H61652  12.941   6.056   0.787 -1.5899 -0.8323  0.1812
  457MOL0     H61653  13.100   6.145   0.630  0.3098 -0.4960  2.2476
  457MOL0     H61654  13.022   6.043   0.504 -3.2311 -0.7769  1.4696
  457MOL0     H61655  13.264   5.969   0.420  0.7926 -1.0923 -0.2058
  457MOL0     H61656  13.504   5.964   0.417 -0.5818  2.6244  0.1469
  457MOL0     H61657  13.878   5.864   0.934 -0.5478 -2.4076 -0.5874
  457MOL0     H61658  14.112   5.829   0.952  0.2719 -1.0211 -0.2980
  457MOL0     H61659  14.316   5.697   0.575 -1.0772  1.1817 -0.7781
  457MOL0     H61660  14.382   5.858   0.595  1.9010 -1.3034  0.9028
  457MOL0     H61661  14.532   5.771   0.762  1.1106 -0.6450 -0.3676
  457MOL0     H61662  14.440   5.625   0.781  2.2861 -1.0439  0.1165
  457MOL0     H61663  14.510   5.548   0.558  0.1795 -0.0743 -0.2144
  457MOL0     H61664  14.606   5.699   0.542  1.1008 -1.3949 -0.2831
  457MOL0     H61665  14.642   5.492   0.752 -1.5478 -1.3323 -3.2260
  457MOL0     H61666  14.734   5.646   0.750  0.8010  1.0448 -2.5370
  457MOL0     H61667  14.838   5.595   0.543  1.1729 -1.4621 -1.2177
  457MOL0     H61668  14.747   5.445   0.523 -1.1974  0.7651 -0.4674
  457MOL0     H61669  14.994   5.433   0.607  0.2333  0.9910  0.8270
  457MOL0     H61670  14.942   5.508   0.759  0.4482 -1.2776  0.6028
  457MOL0     H61671  14.783   5.270   0.677 -0.7801 -0.1209 -0.1484
  457MOL0     H61672  14.827   5.325   0.843 -1.1930 -1.2947 -0.4363
  457MOL0     H61673  14.978   5.138   0.803  1.5943 -1.7066 -2.3853
  457MOL0     H61674  15.010   5.189   0.641  0.7770  0.7900  0.2657
  457MOL0     H61675  14.154   5.855   0.517  2.0957 -0.6983  2.1282
  457MOL0     H61676  13.938   5.956   0.510 -0.8028 -0.6223  0.9158
  457MOL0     H61677  13.515   5.972   0.842  1.9773 -0.1870 -1.2240
  457MOL0     H61678  13.266   5.940   0.845  0.3337  1.0453  0.0105
  457MOL0     H61679  11.316   5.927   1.535 -2.3000 -0.4751  0.7390
  457MOL0     H61680  11.095   5.828   1.484  0.6926  1.6252  0.3703
  457MOL0     H61681  10.790   5.536   1.260 -0.8290 -0.7144 -0.4191
  457MOL0     H61682  10.628   5.450   1.121 -0.6944  0.1873  1.3433
  457MOL0     H61683  10.379   5.478   0.996 -1.9098 -1.7114 -1.2628
  457MOL0     H61684  10.513   5.383   0.909 -2.3635 -1.7904  1.5955
  457MOL0     H61685  10.437   5.465   0.692 -1.4091 -1.3556 -0.8929
  457MOL0     H61686  10.305   5.552   0.782 -0.6868 -0.2706  0.6763
  457MOL0     H61687  10.267   5.280   0.867 -2.8168 -1.9730 -1.3695
  457MOL0     H61688  10.373   5.256   0.733 -0.5291 -0.5867 -0.0744
  457MOL0     H61689  10.099   5.373   0.727 -0.7293  1.5084 -1.1963
  457MOL0     H61690  10.216   5.380   0.590 -1.5227  1.8734  1.2814
  457MOL0     H61691  10.075   5.000   0.540  3.0015 -1.4341 -2.0736
  457MOL0     H61692  10.617   5.832   0.909  0.0803 -0.7854 -0.8009
  457MOL0     H61693  10.901   5.983   1.043  2.6489 -1.9344 -1.2420
  457MOL0     H61694  10.781   5.986   0.924  3.0097 -1.7854 -0.5351
  457MOL0     H61695  10.728   6.007   1.097  1.3179 -1.1328  1.4500
  458MOL0     O61696   9.745  10.844   8.584 -0.0380  0.1222 -0.2718
  458MOL0     C61697   9.634  10.895   8.616 -0.0607  0.4931 -0.3812
  458MOL0     O61698   9.601  10.927   8.743 -0.2962  0.3564  0.9175
  458MOL0     C61699   9.686  10.905   8.846 -1.1267 -0.3996 -0.5447
  458MOL0     C61700   9.800  10.987   8.859  0.1252  0.2302  0.6447
  458MOL0     C61701   9.895  10.950   8.950 -0.6648  0.5878 -0.8425
  458MOL0     C61702   9.884  10.834   9.021  0.2210  0.0863  0.5892
  458MOL0     O61703   9.988  10.810   9.110  0.1760  0.0379 -0.2633
  458MOL0     C61704   9.969  10.702   9.200  0.4826 -0.2321  0.3144
  458MOL0     C61705  10.064  10.706   9.316  0.2527  0.3661  0.3509
  458MOL0     C61706  10.157  10.577   9.315 -0.3742  0.3483 -0.4415
  458MOL0     C61707  10.278  10.595   9.406  0.3756  0.3574  0.7917
  458MOL0     C61708  10.360  10.467   9.406 -0.2543 -0.7543  0.0248
  458MOL0     C61709  10.486  10.485   9.483 -0.1733 -0.6199 -0.0011
  458MOL0     C61710  10.547  10.357   9.529 -0.5114 -1.0003 -0.5629
  458MOL0     C61711  10.594  10.260   9.414  0.2022  0.8164 -0.4605
  458MOL0     N61712  10.704  10.324   9.346  0.1563 -0.5039 -0.1821
  458MOL0     C61713  10.839  10.334   9.392 -0.0642 -0.0165  0.7424
  458MOL0     C61714  10.908  10.375   9.276 -0.6899  0.3051 -0.7154
  458MOL0     C61715  11.064  10.399   9.272 -0.5425 -0.0460 -0.1854
  458MOL0     C61716  11.094  10.536   9.335  0.3332  1.0193 -0.1472
  458MOL0     C61717  11.247  10.568   9.346  0.3895  0.5517 -0.2722
  458MOL0     C61718  11.269  10.679   9.450 -0.2897  0.1380  0.0956
  458MOL0     O61719  11.410  10.721   9.444  0.5743  0.2437 -0.1600
  458MOL0     C61720  11.515  10.625   9.473 -0.4320  0.3752  0.0038
  458MOL0     C61721  11.640  10.653   9.412 -0.1607 -0.2486 -0.2972
  458MOL0     C61722  11.750  10.566   9.437  0.2706 -0.1571 -0.2021
  458MOL0     C61723  11.743  10.449   9.522  0.3447 -1.2724  0.2874
  458MOL0     C61724  11.853  10.360   9.564  0.6482  0.0690 -0.6093
  458MOL0     O61725  11.811  10.247   9.644 -0.1484 -0.2572  0.0943
  458MOL0     C61726  11.887  10.139   9.670 -0.3777 -0.0075  0.5389
  458MOL0     C61727  12.014  10.108   9.617  0.2727  0.0311  0.1814
  458MOL0     C61728  12.084   9.997   9.645  0.6086  0.3116  1.7543
  458MOL0     C61729  12.035   9.906   9.742  0.6607 -0.5320 -0.5535
  458MOL0     O61730  12.114   9.795   9.765  0.0163 -0.2235  0.6758
  458MOL0     C61731  12.089   9.722   9.883  0.1517 -0.1655  0.1690
  458MOL0     C61732  12.178   9.595   9.896  0.4329  0.1233  0.5053
  458MOL0     C61733  12.333   9.622   9.902  0.3984  0.5303  0.1203
  458MOL0     C61734  12.410   9.500   9.896 -0.0981  0.1714 -1.1278
  458MOL0     C61735  12.557   9.537   9.866  0.2348  0.4403  0.2556
  458MOL0     C61736  12.631   9.408   9.827 -0.7214  0.0928 -0.0991
  458MOL0     C61737  12.783   9.435   9.838  0.2129 -0.0964  0.1722
  458MOL0     C61738  12.865   9.318   9.797 -0.0070 -0.9221  0.1345
  458MOL0    Cl61739  13.047   9.359   9.789  0.2683  0.1216 -0.3614
  458MOL0     C61740  11.906   9.942   9.803 -0.3645  0.5274 -0.2975
  458MOL0     C61741  11.843  10.061   9.771  0.6679  0.1331  0.1785
  458MOL0     O61742  11.970  10.394   9.541 -0.3571  0.0527 -0.2721
  458MOL0     C61743  11.618  10.431   9.581 -0.0015  1.5650  0.5432
  458MOL0     C61744  11.503  10.511   9.552 -0.4305 -1.0180 -0.4593
  458MOL0     N61745  10.822  10.374   9.172 -0.4989  0.5078  0.4110
  458MOL0     N61746  10.703  10.345   9.213  0.0158  0.6157  0.3802
  458MOL0     C61747   9.764  10.763   9.013 -0.0851  0.4671 -0.3266
  458MOL0     C61748   9.670  10.790   8.918 -0.6915  0.9100 -0.7859
  458MOL0     C61749   9.550  10.936   8.508  0.4374 -0.5072 -0.1309
  458MOL0     C61750   9.452  11.041   8.539 -0.4353  0.0729 -0.3053
  458MOL0     C61751   9.368  11.084   8.440 -0.5922 -0.0202  0.8788
  458MOL0     C61752   9.379  11.032   8.308 -0.1736 -0.7876 -0.6570
  458MOL0     O61753   9.307  11.089   8.205  0.2591 -0.2105 -0.3530
  458MOL0     C61754   9.174  11.144   8.227 -0.6810  0.6958 -0.5638
  458MOL0     C61755   9.113  11.186   8.100  0.2838  0.9910 -0.5185
  458MOL0     C61756   9.196  11.292   8.024 -0.3918  0.3101  0.4791
  458MOL0     C61757   9.122  11.345   7.896 -0.1959 -0.7168 -0.3791
  458MOL0     C61758   9.136  11.249   7.786 -0.3093 -0.5229  0.2346
  458MOL0     C61759   9.158  11.162   7.707 -0.1348 -0.7248 -0.4309
  458MOL0     C61760   9.473  10.933   8.281  0.3701 -1.0509  0.6452
  458MOL0     C61761   9.562  10.887   8.374 -0.0365 -0.1679 -0.1238
  458MOL0     C61762   9.659  10.780   8.327 -0.5743  0.0262  0.8404
  458MOL0     H61763   9.806  11.067   8.786 -2.0047  0.5086  0.7222
  458MOL0     H61764   9.984  11.012   8.952 -0.1358 -0.1519 -1.1612
  458MOL0     H61765   9.868  10.702   9.243  0.2365 -1.8722 -0.2028
  458MOL0     H61766   9.967  10.609   9.142 -2.5383 -0.6735  0.9547
  458MOL0     H61767  10.014  10.715   9.413 -0.8572  1.8487 -0.3198
  458MOL0     H61768  10.126  10.796   9.307  0.6074  0.1654  0.7851
  458MOL0     H61769  10.202  10.558   9.216  2.9309  1.8684  0.6127
  458MOL0     H61770  10.092  10.493   9.342 -0.0549  0.6442  1.3153
  458MOL0     H61771  10.328  10.676   9.353 -1.2818  0.6136 -0.4431
  458MOL0     H61772  10.242  10.615   9.507  0.1074 -1.8085  1.1806
  458MOL0     H61773  10.302  10.394   9.463 -1.5249 -2.5492 -3.2926
  458MOL0     H61774  10.374  10.427   9.305 -2.7634 -1.7384  0.0042
  458MOL0     H61775  10.560  10.532   9.417  1.5420 -2.7232  0.3353
  458MOL0     H61776  10.476  10.552   9.569  0.7184 -1.1413  0.5118
  458MOL0     H61777  10.487  10.313   9.609 -0.5187 -1.7471 -0.9713
  458MOL0     H61778  10.633  10.396   9.585 -0.9589  1.7705 -1.6338
  458MOL0     H61779  10.619  10.165   9.463 -0.5213  1.7047  1.7479
  458MOL0     H61780  10.511  10.235   9.347  1.1988 -0.6654 -1.1859
  458MOL0     H61781  10.882  10.322   9.491  0.5404 -0.0862  0.4778
  458MOL0     H61782  11.124  10.328   9.329 -0.1493  1.9185  2.0259
  458MOL0     H61783  11.100  10.404   9.168 -2.5284  2.5789 -0.8687
  458MOL0     H61784  11.050  10.614   9.271  0.2534 -0.9056 -2.5749
  458MOL0     H61785  11.048  10.534   9.434  1.9414  1.3940  0.6474
  458MOL0     H61786  11.273  10.599   9.244 -3.5632  1.3661 -1.1860
  458MOL0     H61787  11.303  10.477   9.370  0.4937  0.2009 -1.7373
  458MOL0     H61788  11.252  10.644   9.552 -1.0671  2.0805  0.6878
  458MOL0     H61789  11.202  10.764   9.435 -0.8892 -0.3247  0.1233
  458MOL0     H61790  11.649  10.745   9.355  0.0590  0.3054  0.6135
  458MOL0     H61791  11.850  10.597   9.406 -0.7737  2.4662 -1.2455
  458MOL0     H61792  12.067  10.173   9.547 -1.0914  0.2226 -0.7117
  458MOL0     H61793  12.175   9.984   9.588 -0.4698 -0.6627  0.1673
  458MOL0     H61794  12.086   9.796   9.964 -3.5001  1.3187 -1.1232
  458MOL0     H61795  11.990   9.678   9.889 -0.9778  1.5988 -3.1878
  458MOL0     H61796  12.150   9.518   9.968 -1.4716 -0.9423 -1.2416
  458MOL0     H61797  12.172   9.553   9.795  0.6720  1.0037  0.1188
  458MOL0     H61798  12.359   9.692   9.822  0.8958 -0.2946 -0.4646
  458MOL0     H61799  12.358   9.688   9.985  0.2471  0.9575 -0.1694
  458MOL0     H61800  12.371   9.437   9.815 -0.6686 -2.2133  0.8724
  458MOL0     H61801  12.407   9.444   9.990  2.4213  2.0450  0.2036
  458MOL0     H61802  12.605   9.580   9.954  0.4205  1.3926 -0.2938
  458MOL0     H61803  12.581   9.598   9.778  1.8416  0.2763  0.5371
  458MOL0     H61804  12.597   9.319   9.880 -1.4336 -1.1323 -2.4971
  458MOL0     H61805  12.609   9.389   9.722  0.4680  1.3641 -0.6215
  458MOL0     H61806  12.809   9.453   9.943  0.9625  0.2232 -0.0614
  458MOL0     H61807  12.810   9.525   9.781 -0.7120  0.3905  0.4765
  458MOL0     H61808  12.845   9.248   9.879  1.1373  1.1119  2.2679
  458MOL0     H61809  12.824   9.277   9.704 -2.2895  0.6707  0.3695
  458MOL0     H61810  11.857   9.879   9.877  0.2297 -0.2450 -0.5491
  458MOL0     H61811  11.745  10.088   9.808  0.5278  2.1618 -1.4895
  458MOL0     H61812  11.601  10.344   9.642  0.6618 -0.2731 -1.7200
  458MOL0     H61813  11.405  10.497   9.597 -2.1309  1.0136 -3.1933
  458MOL0     H61814   9.755  10.670   9.068 -0.0810 -0.5388 -1.9429
  458MOL0     H61815   9.583  10.725   8.914 -0.6087  0.7668 -0.2624
  458MOL0     H61816   9.433  11.083   8.638  3.7320  0.2103  0.6481
  458MOL0     H61817   9.296  11.160   8.471  0.9180  1.3071  1.2906
  458MOL0     H61818   9.178  11.233   8.290 -1.4310  1.1845 -1.1837
  458MOL0     H61819   9.124  11.062   8.280 -0.3110 -0.0237 -1.3069
  458MOL0     H61820   9.009  11.218   8.113 -0.3045 -0.9981  0.0225
  458MOL0     H61821   9.104  11.091   8.047  2.1825  2.1089 -3.0629
  458MOL0     H61822   9.298  11.264   7.997 -0.6006  1.4257 -1.6102
  458MOL0     H61823   9.201  11.374   8.097  0.2271 -1.2496  2.2711
  458MOL0     H61824   9.014  11.356   7.906 -0.3895 -0.7235 -2.1759
  458MOL0     H61825   9.160  11.441   7.860 -1.9845 -0.2167 -1.0361
  458MOL0     H61826   9.175  11.081   7.638 -1.7026  1.1747 -3.2718
  458MOL0     H61827   9.471  10.891   8.181  0.0059  1.4554 -0.4545
  458MOL0     H61828   9.625  10.681   8.358 -0.2487  0.1400  1.6060
  458MOL0     H61829   9.661  10.787   8.218  1.9214 -0.3118  0.7903
  458MOL0     H61830   9.762  10.801   8.361 -0.5699  2.9022 -0.6184
  459MOL0     O61831   7.623   6.726  10.485  0.2362 -0.3338 -0.0194
  459MOL0     C61832   7.577   6.838  10.485 -0.2353 -0.2834 -0.1651
  459MOL0     O61833   7.639   6.945  10.546  0.0351  1.1144 -0.5170
  459MOL0     C61834   7.773   6.927  10.593 -0.6049  0.8858 -0.6833
  459MOL0     C61835   7.787   6.899  10.723 -0.2768 -0.1697 -0.4694
  459MOL0     C61836   7.915   6.886  10.781  1.3065 -0.4885  0.3026
  459MOL0     C61837   8.028   6.905  10.704 -0.6545  0.6476 -0.1429
  459MOL0     O61838   8.160   6.901  10.740  0.4440  0.0275 -0.1376
  459MOL0     C61839   8.187   6.883  10.879  0.3264 -0.5467 -0.8720
  459MOL0     C61840   8.342   6.888  10.899 -0.0343 -0.3926 -0.2810
  459MOL0     C61841   8.421   6.775  10.833 -0.2707  1.1363  0.5275
  459MOL0     C61842   8.563   6.756  10.896 -0.0138 -1.3828 -0.8932
  459MOL0     C61843   8.644   6.640  10.843  0.1446  0.0005  0.6762
  459MOL0     C61844   8.727   6.668  10.714  0.3019 -0.3370 -0.2265
  459MOL0     C61845   8.828   6.560  10.674  0.4343 -0.1788 -0.4022
  459MOL0     C61846   8.909   6.589  10.540 -0.6877 -0.7810 -1.0078
  459MOL0     N61847   8.993   6.703  10.574 -0.3746  0.1010 -1.0294
  459MOL0     C61848   9.102   6.702  10.648 -0.5170 -0.7986 -0.5276
  459MOL0     C61849   9.146   6.827  10.667 -0.2449 -0.2368 -0.7118
  459MOL0     C61850   9.281   6.858  10.738  0.6038 -0.0709 -0.1095
  459MOL0     C61851   9.281   6.985  10.833 -0.1440  0.9143 -0.2228
  459MOL0     C61852   9.212   7.118  10.768  0.2647 -0.9982 -0.4184
  459MOL0     C61853   9.236   7.242  10.849  0.8027  0.5043  0.4693
  459MOL0     O61854   9.379   7.260  10.876 -0.2540  0.9126  0.0597
  459MOL0     C61855   9.432   7.385  10.882  0.4706 -0.0446 -0.1678
  459MOL0     C61856   9.572   7.389  10.870  0.4245  0.2208 -1.0288
  459MOL0     C61857   9.638   7.511  10.872 -0.0559  0.0049  0.4398
  459MOL0     C61858   9.578   7.636  10.888  0.7671 -0.7431 -0.9588
  459MOL0     C61859   9.640   7.763  10.898 -0.7292 -0.8378 -0.2690
  459MOL0     O61860   9.771   7.763  10.938 -0.4573 -0.4829  0.1789
  459MOL0     C61861   9.865   7.859  10.900  0.7291 -0.4475 -0.0736
  459MOL0     C61862   9.835   7.988  10.864  0.3481  0.3736 -0.7929
  459MOL0     C61863   9.935   8.061  10.802 -0.3745  0.4184 -0.1498
  459MOL0     C61864  10.068   8.013  10.784 -0.1771  0.6211 -0.1971
  459MOL0     O61865  10.167   8.093  10.727 -0.3588  0.9951  0.1148
  459MOL0     C61866  10.305   8.053  10.742 -0.1337 -0.0165 -0.1154
  459MOL0     C61867  10.395   8.158  10.671 -0.9670  0.1256 -0.7385
  459MOL0     C61868  10.528   8.098  10.634  0.0403  0.7954 -0.2436
  459MOL0     C61869  10.633   8.193  10.594  0.1511 -0.4174  0.2987
  459MOL0     C61870  10.768   8.130  10.562  0.2223  0.0900  0.6825
  459MOL0     C61871  10.878   8.226  10.502 -0.4153 -0.6815 -1.3755
  459MOL0     C61872  10.959   8.286  10.626 -1.0072 -0.0855  0.1709
  459MOL0     C61873  11.034   8.179  10.705 -0.0801  1.0328 -0.1896
  459MOL0    Cl61874  11.165   8.255  10.817 -0.0870 -0.0694 -0.2440
  459MOL0     C61875  10.094   7.877  10.830 -0.5638  0.5593  0.4458
  459MOL0     C61876   9.989   7.811  10.883  0.0063  0.6826 -0.9419
  459MOL0     O61877   9.572   7.855  10.856 -0.1154 -0.1672 -0.1596
  459MOL0     C61878   9.435   7.626  10.904 -0.1749  0.0019 -0.0176
  459MOL0     C61879   9.363   7.504  10.907 -0.1021 -0.7783  0.5101
  459MOL0     N61880   9.061   6.910  10.605  0.1355 -0.1647  0.3385
  459MOL0     N61881   8.966   6.834  10.550 -0.2193  0.4043  0.1862
  459MOL0     C61882   8.007   6.918  10.565 -0.1553 -0.2034 -0.3119
  459MOL0     C61883   7.887   6.932  10.512  0.6109 -0.2548 -0.8546
  459MOL0     C61884   7.457   6.869  10.413 -0.2037 -0.4959 -0.3490
  459MOL0     C61885   7.378   6.967  10.479 -0.2823 -0.5440 -0.9036
  459MOL0     C61886   7.258   7.018  10.430  0.0037 -0.2034  1.0541
  459MOL0     C61887   7.209   6.969  10.310 -0.5515  0.0533  0.0149
  459MOL0     O61888   7.091   7.027  10.264 -0.0637  0.2831 -0.0953
  459MOL0     C61889   7.115   7.155  10.207 -1.0956 -0.2393  0.1266
  459MOL0     C61890   6.986   7.196  10.119 -0.3276 -0.5354 -0.5646
  459MOL0     C61891   6.986   7.129   9.980 -0.5077 -0.3529  0.0387
  459MOL0     C61892   6.855   7.154   9.905  0.1095 -0.4138  0.0622
  459MOL0     C61893   6.832   7.035   9.830  0.4060  0.2592 -0.6184
  459MOL0     C61894   6.806   6.932   9.775 -0.6391 -0.2100  0.8338
  459MOL0     C61895   7.286   6.867  10.244 -0.7170 -0.0250  1.3377
  459MOL0     C61896   7.397   6.812  10.301 -0.0284 -0.3315 -0.4127
  459MOL0     C61897   7.436   6.668  10.250  0.2364  0.4016 -0.5571
  459MOL0     H61898   7.689   6.908  10.769 -0.2370  0.8321 -0.5608
  459MOL0     H61899   7.912   6.864  10.887  1.9895 -0.4438  0.3344
  459MOL0     H61900   8.145   6.964  10.940  0.2257 -0.5730 -0.9064
  459MOL0     H61901   8.155   6.787  10.920  2.0278 -0.1044  1.7591
  459MOL0     H61902   8.378   6.896  11.002  0.8250  2.1207 -0.7085
  459MOL0     H61903   8.373   6.987  10.866 -1.9336  0.9652  1.7101
  459MOL0     H61904   8.438   6.810  10.731 -2.4413  0.6614 -0.0594
  459MOL0     H61905   8.372   6.678  10.824 -0.6911  1.0511  2.9469
  459MOL0     H61906   8.624   6.847  10.902  1.1241 -1.9997 -2.3782
  459MOL0     H61907   8.549   6.726  11.001 -0.0809  1.7437  0.1027
  459MOL0     H61908   8.727   6.623  10.913  0.5272  2.5006  0.9214
  459MOL0     H61909   8.585   6.548  10.837 -0.5840  0.4757  0.5364
  459MOL0     H61910   8.652   6.680  10.635  0.5581  1.4132 -0.2433
  459MOL0     H61911   8.783   6.762  10.717 -0.0794 -0.1294  0.4545
  459MOL0     H61912   8.784   6.461  10.661 -1.4709  0.2725  1.8122
  459MOL0     H61913   8.893   6.547  10.761  1.1771 -0.9666 -1.0597
  459MOL0     H61914   8.977   6.506  10.519 -0.5346 -0.0598 -3.7759
  459MOL0     H61915   8.842   6.611  10.457  1.9846  0.8921 -2.8760
  459MOL0     H61916   9.151   6.613  10.685 -0.7573 -0.8869 -0.4163
  459MOL0     H61917   9.317   6.771  10.792 -1.8464 -1.5322 -0.6984
  459MOL0     H61918   9.360   6.872  10.662 -0.0598  1.4402 -0.5736
  459MOL0     H61919   9.228   6.958  10.924  2.1666 -0.9376  0.6632
  459MOL0     H61920   9.384   7.005  10.863 -0.4464  1.8288  0.2417
  459MOL0     H61921   9.103   7.110  10.763  0.1501  0.7920 -1.8495
  459MOL0     H61922   9.235   7.124  10.661 -2.5994 -1.3299 -1.1176
  459MOL0     H61923   9.186   7.227  10.945  1.1099 -0.4421  0.4955
  459MOL0     H61924   9.179   7.322  10.800 -1.5139 -2.0140 -1.3357
  459MOL0     H61925   9.618   7.292  10.860 -0.7010 -0.8020  2.5519
  459MOL0     H61926   9.746   7.512  10.862  0.2952 -0.2612  3.4235
  459MOL0     H61927   9.733   8.026  10.871 -1.3383 -3.4518 -1.9985
  459MOL0     H61928   9.922   8.161  10.763  2.0789 -0.2118 -2.9706
  459MOL0     H61929  10.343   8.028  10.841  0.1968  0.2557 -0.1723
  459MOL0     H61930  10.310   7.960  10.683 -0.1554 -0.5399  0.6938
  459MOL0     H61931  10.344   8.182  10.577  0.3764 -1.5902 -1.9841
  459MOL0     H61932  10.406   8.255  10.720 -3.5168  0.5551 -0.8485
  459MOL0     H61933  10.566   8.055  10.727  2.5190  2.3245 -0.4348
  459MOL0     H61934  10.515   8.024  10.555  2.2316  1.2185 -1.0793
  459MOL0     H61935  10.644   8.265  10.675 -0.8422 -1.2737  1.2122
  459MOL0     H61936  10.607   8.244  10.501 -1.6242 -1.2551  0.3017
  459MOL0     H61937  10.743   8.053  10.489 -2.6945  0.4398  1.2064
  459MOL0     H61938  10.800   8.095  10.661 -2.1958  2.6709  2.5495
  459MOL0     H61939  10.950   8.173  10.438 -1.5861  0.4019 -3.6793
  459MOL0     H61940  10.835   8.308  10.445 -0.4941 -0.7435 -1.4042
  459MOL0     H61941  10.876   8.322  10.688  0.4855 -1.2357  3.0252
  459MOL0     H61942  11.027   8.367  10.597  0.4862 -0.5238  2.1829
  459MOL0     H61943  10.962   8.125  10.767  0.5982 -1.8556 -1.7401
  459MOL0     H61944  11.084   8.109  10.638  0.4388  1.7381 -0.5623
  459MOL0     H61945  10.185   7.818  10.827  0.4537  2.0974 -0.2286
  459MOL0     H61946  10.006   7.709  10.916 -1.9507 -0.3110 -2.7818
  459MOL0     H61947   9.379   7.717  10.922  2.8727  1.6897  1.8416
  459MOL0     H61948   9.261   7.514  10.942 -0.7569 -0.1675 -1.4235
  459MOL0     H61949   8.099   6.929  10.508  0.1801 -1.0818  0.0490
  459MOL0     H61950   7.884   6.937  10.404 -0.1569 -2.2685 -0.9762
  459MOL0     H61951   7.400   6.997  10.581 -1.1318 -1.9299 -0.2894
  459MOL0     H61952   7.205   7.095  10.486 -2.2113 -0.1840 -0.9300
  459MOL0     H61953   7.201   7.134  10.144 -1.4313 -3.6206  0.6307
  459MOL0     H61954   7.132   7.222  10.293  0.4574 -1.4577  0.8081
  459MOL0     H61955   6.994   7.304  10.105  1.0496 -0.5837 -0.2415
  459MOL0     H61956   6.890   7.178  10.168  0.0801 -0.2945  0.3416
  459MOL0     H61957   6.990   7.025  10.014  1.3762 -0.5996 -0.8162
  459MOL0     H61958   7.073   7.147   9.916 -1.9979 -2.8362 -2.9642
  459MOL0     H61959   6.779   7.168   9.982  0.5421 -1.5446  0.7151
  459MOL0     H61960   6.851   7.248   9.850 -0.9737 -0.1469  0.5764
  459MOL0     H61961   6.789   6.836   9.732  0.5312 -0.1669  0.2263
  459MOL0     H61962   7.245   6.823  10.154 -0.3899  0.4452  0.9549
  459MOL0     H61963   7.361   6.627  10.183 -0.7173 -1.5319  1.5586
  459MOL0     H61964   7.533   6.663  10.200  0.2552 -1.6156 -0.4119
  459MOL0     H61965   7.447   6.603  10.338 -0.0435  0.1703 -0.6951
  460MOL0     O61966   3.462   3.387  10.368 -0.4802 -0.1516  0.2593
  460MOL0     C61967   3.385   3.440  10.288  0.2427  0.4545  0.2701
  460MOL0     O61968   3.390   3.434  10.153 -0.1898  0.7475 -0.3344
  460MOL0     C61969   3.472   3.345  10.094  0.1869 -0.7743 -0.8185
  460MOL0     C61970   3.557   3.397  10.003 -0.8842 -0.2417 -0.7984
  460MOL0     C61971   3.644   3.311   9.929  0.7230 -0.3129 -0.5919
  460MOL0     C61972   3.637   3.172   9.957 -0.3353 -1.2965 -0.1960
  460MOL0     O61973   3.707   3.090   9.877 -0.3574  0.5490  0.0226
  460MOL0     C61974   3.731   2.956   9.904  0.3826  0.9401 -0.2353
  460MOL0     C61975   3.837   2.904   9.802  0.0421  0.0456  0.1618
  460MOL0     C61976   3.970   2.968   9.834 -1.1731  1.2904 -0.3022
  460MOL0     C61977   4.074   2.922   9.732 -0.0565 -0.8147 -0.6395
  460MOL0     C61978   4.173   2.829   9.815  0.0804 -0.0621 -0.2778
  460MOL0     C61979   4.288   2.782   9.725 -1.1365 -0.2222  0.1537
  460MOL0     C61980   4.246   2.694   9.607 -0.3497 -0.2028 -0.3614
  460MOL0     C61981   4.379   2.662   9.518 -0.7479 -0.8134 -0.8896
  460MOL0     N61982   4.417   2.771   9.425  0.5941  0.3783 -0.3987
  460MOL0     C61983   4.518   2.865   9.443  0.3358  0.7723 -0.3220
  460MOL0     C61984   4.505   2.948   9.338 -0.0805  0.8044  0.3427
  460MOL0     C61985   4.613   3.035   9.295  0.0950  0.2036 -0.7630
  460MOL0     C61986   4.724   2.944   9.238 -0.0192 -0.3708  0.2060
  460MOL0     C61987   4.846   3.030   9.208  0.3037 -1.2856  0.1272
  460MOL0     C61988   4.829   3.156   9.111 -0.0331  0.3416  0.2051
  460MOL0     O61989   4.952   3.193   9.053 -0.5339 -0.1033 -0.5998
  460MOL0     C61990   4.947   3.289   8.949 -0.6411  0.3297  0.2350
  460MOL0     C61991   5.072   3.332   8.906  0.3106  0.0540 -0.0392
  460MOL0     C61992   5.086   3.426   8.800  0.5669  0.0762  0.6355
  460MOL0     C61993   4.964   3.464   8.733 -0.4439  0.3489 -0.3103
  460MOL0     C61994   4.969   3.560   8.621  0.6645  0.4760  0.1828
  460MOL0     O61995   5.090   3.583   8.552  0.1825 -0.2829 -0.5017
  460MOL0     C61996   5.098   3.677   8.454 -0.5366 -0.2977  0.1703
  460MOL0     C61997   5.049   3.809   8.456 -1.1424  0.1291 -0.1513
  460MOL0     C61998   5.083   3.891   8.348 -0.9629  0.9220  0.0679
  460MOL0     C61999   5.173   3.842   8.248 -0.8609 -0.3585  0.5356
  460MOL0     O62000   5.211   3.947   8.160 -0.4580  0.6888 -0.1250
  460MOL0     C62001   5.303   3.910   8.055 -0.0936  0.0994  0.1625
  460MOL0     C62002   5.381   4.033   8.009  0.7304  0.1677 -0.3032
  460MOL0     C62003   5.497   3.998   7.912 -1.4490 -0.3759 -0.1029
  460MOL0     C62004   5.605   3.906   7.959 -0.2152  1.2214  0.9172
  460MOL0     C62005   5.720   3.897   7.853  0.2916 -0.3509 -0.1069
  460MOL0     C62006   5.812   3.769   7.886 -0.0649  0.0331 -0.1028
  460MOL0     C62007   5.873   3.778   8.024  0.5321  0.0014  0.5116
  460MOL0     C62008   5.903   3.641   8.085 -0.1802 -0.3088  0.2235
  460MOL0    Cl62009   6.020   3.539   8.000  0.0664  0.0573  0.3476
  460MOL0     C62010   5.219   3.714   8.241  0.8397  0.5821 -0.6905
  460MOL0     C62011   5.177   3.627   8.347  0.1205  0.2606 -0.3570
  460MOL0     O62012   4.860   3.612   8.593  0.2520 -0.3095  0.3123
  460MOL0     C62013   4.840   3.415   8.778 -0.0242 -0.8482  0.0449
  460MOL0     C62014   4.831   3.335   8.886 -0.7235 -0.3057 -0.4053
  460MOL0     N62015   4.390   2.908   9.268 -0.0569  0.6902 -0.3778
  460MOL0     N62016   4.333   2.813   9.326 -0.0985 -0.1024  0.9159
  460MOL0     C62017   3.554   3.127  10.066 -0.1413 -0.1892  0.3610
  460MOL0     C62018   3.477   3.212  10.132  0.1084  1.2372  0.0637
  460MOL0     C62019   3.268   3.514  10.348  0.0728  0.5978 -0.1480
  460MOL0     C62020   3.197   3.464  10.458 -0.2090 -0.3137 -0.5949
  460MOL0     C62021   3.089   3.544  10.508  0.1896 -0.0226  0.7156
  460MOL0     C62022   3.048   3.664  10.452 -0.5884 -0.1020 -0.8839
  460MOL0     O62023   2.953   3.738  10.515 -0.1743  0.7068  0.4250
  460MOL0     C62024   2.840   3.786  10.437 -0.3462  0.3541 -0.2609
  460MOL0     C62025   2.730   3.771  10.543 -0.4219  1.0035  0.2498
  460MOL0     C62026   2.720   3.639  10.627 -1.2182 -0.4857  0.8426
  460MOL0     C62027   2.577   3.590  10.624 -0.6796  0.3433 -0.1229
  460MOL0     C62028   2.583   3.460  10.678 -0.7512  0.3080  0.5000
  460MOL0     C62029   2.581   3.342  10.707 -0.7821  0.2189  0.3484
  460MOL0     C62030   3.119   3.707  10.343 -0.3179 -0.0801 -0.0146
  460MOL0     C62031   3.231   3.642  10.292 -0.1806 -0.2034 -0.0215
  460MOL0     C62032   3.309   3.708  10.181  0.2514 -0.2891  1.1491
  460MOL0     H62033   3.548   3.502   9.977  0.3533  0.3060  0.8220
  460MOL0     H62034   3.711   3.344   9.851  0.4481  1.2660 -0.2058
  460MOL0     H62035   3.772   2.941  10.005  1.6667 -4.2578 -1.2494
  460MOL0     H62036   3.645   2.890   9.897  1.0884 -0.0226 -0.0230
  460MOL0     H62037   3.805   2.937   9.702  1.2257  1.8724  0.3338
  460MOL0     H62038   3.856   2.797   9.804 -1.4314 -0.2439 -0.2746
  460MOL0     H62039   3.996   2.936   9.935  1.4378  0.7999 -1.0466
  460MOL0     H62040   3.974   3.076   9.844  2.1431  1.1433  1.3021
  460MOL0     H62041   4.033   2.867   9.646  2.2975 -1.5699 -1.3506
  460MOL0     H62042   4.126   3.011   9.696 -0.3716 -0.2587  0.2548
  460MOL0     H62043   4.215   2.877   9.903  0.0728 -3.8071  2.0023
  460MOL0     H62044   4.112   2.740   9.834  2.2681 -1.6676 -0.3136
  460MOL0     H62045   4.335   2.866   9.674  0.2091 -1.3935 -0.6106
  460MOL0     H62046   4.372   2.737   9.779 -0.0616 -0.9532 -1.9869
  460MOL0     H62047   4.171   2.748   9.548  1.4682  1.9290 -0.8494
  460MOL0     H62048   4.205   2.601   9.647  0.4558 -0.2426  0.3929
  460MOL0     H62049   4.466   2.646   9.583 -0.7210  0.8826 -0.4468
  460MOL0     H62050   4.350   2.571   9.466  0.3476 -1.5359 -0.2924
  460MOL0     H62051   4.584   2.869   9.529  0.7201 -1.2966 -0.4809
  460MOL0     H62052   4.585   3.102   9.213  2.1021  0.1182 -1.5950
  460MOL0     H62053   4.651   3.091   9.381  0.9848 -2.7862  0.9644
  460MOL0     H62054   4.752   2.859   9.301  1.6061  0.9471  1.3283
  460MOL0     H62055   4.674   2.919   9.143  0.8981  1.3862 -0.7818
  460MOL0     H62056   4.913   2.962   9.155  0.0465 -0.5838 -1.1520
  460MOL0     H62057   4.881   3.055   9.308  0.2338 -1.4139  0.1845
  460MOL0     H62058   4.780   3.234   9.170  0.1029 -0.1154  0.9241
  460MOL0     H62059   4.758   3.125   9.033 -1.3541  0.9977  1.0969
  460MOL0     H62060   5.161   3.302   8.962 -1.3088 -4.6311  0.4440
  460MOL0     H62061   5.184   3.462   8.769 -0.5110  0.1241 -3.2056
  460MOL0     H62062   4.984   3.837   8.538  0.3254  1.1939  0.6833
  460MOL0     H62063   5.066   3.998   8.340  2.2744  1.7534  2.2321
  460MOL0     H62064   5.381   3.839   8.083 -1.8543 -1.4978  1.3476
  460MOL0     H62065   5.244   3.864   7.975 -1.8621  2.9922 -0.3300
  460MOL0     H62066   5.309   4.104   7.967  0.9297  0.9999  0.7393
  460MOL0     H62067   5.412   4.095   8.093 -3.4697  4.3380 -1.3737
  460MOL0     H62068   5.451   3.965   7.818 -1.6044  3.2595 -1.4421
  460MOL0     H62069   5.552   4.091   7.896 -0.2499 -1.5891 -4.5179
  460MOL0     H62070   5.564   3.804   7.965 -0.2451  1.1424 -0.3046
  460MOL0     H62071   5.645   3.931   8.057  1.6775  0.4897  0.3683
  460MOL0     H62072   5.779   3.988   7.839 -0.2111 -0.3429 -2.6383
  460MOL0     H62073   5.676   3.890   7.753  3.4400 -0.0737 -1.6239
  460MOL0     H62074   5.751   3.681   7.866  2.1788 -1.6435  0.0851
  460MOL0     H62075   5.895   3.766   7.815 -0.5385 -0.9671 -0.6336
  460MOL0     H62076   5.807   3.823   8.099 -1.1762 -0.1492 -0.8625
  460MOL0     H62077   5.959   3.846   8.028 -0.0094  1.2170 -3.7415
  460MOL0     H62078   5.927   3.650   8.191  1.7705 -4.2778  0.2973
  460MOL0     H62079   5.816   3.574   8.080  0.6515 -1.3821 -0.4387
  460MOL0     H62080   5.275   3.673   8.158  2.1231 -3.1299  1.7694
  460MOL0     H62081   5.226   3.530   8.349 -1.3620 -0.5175  0.4972
  460MOL0     H62082   4.745   3.436   8.731  0.1871 -2.2521 -1.0856
  460MOL0     H62083   4.735   3.295   8.919 -1.9137  1.5260 -1.4767
  460MOL0     H62084   3.546   3.024  10.099  0.8721 -1.1103 -2.0858
  460MOL0     H62085   3.420   3.166  10.212  0.8453  1.3483  0.6621
  460MOL0     H62086   3.222   3.364  10.491 -0.6040  0.0855  0.9790
  460MOL0     H62087   3.038   3.517  10.599  2.7670  1.1823  2.6532
  460MOL0     H62088   2.811   3.722  10.354 -0.8538 -0.5210  0.5716
  460MOL0     H62089   2.855   3.889  10.403  1.2636  0.3124  0.2264
  460MOL0     H62090   2.637   3.786  10.488 -0.0532 -0.4444 -0.8369
  460MOL0     H62091   2.749   3.858  10.607  1.8059  2.3609 -2.0699
  460MOL0     H62092   2.746   3.660  10.731 -2.5952 -2.8482  1.7409
  460MOL0     H62093   2.792   3.562  10.597 -1.0421 -0.3279  0.8576
  460MOL0     H62094   2.514   3.654  10.687  0.9744  1.1358  0.7859
  460MOL0     H62095   2.534   3.591  10.523 -1.5066  0.2893  0.2204
  460MOL0     H62096   2.568   3.237  10.723 -1.8387 -0.1702 -2.4754
  460MOL0     H62097   3.091   3.804  10.303 -1.5153 -0.9299 -1.3577
  460MOL0     H62098   3.416   3.713  10.205  0.7406 -0.3675 -0.8303
  460MOL0     H62099   3.288   3.665  10.083 -2.2449  0.3352  1.3477
  460MOL0     H62100   3.273   3.811  10.188 -1.7087 -1.0289  3.5449
  461MOL0     O62101   1.483   8.260   8.535 -0.3056 -0.7845  0.1800
  461MOL0     C62102   1.534   8.373   8.516 -0.1547  0.1906 -0.0787
  461MOL0     O62103   1.645   8.416   8.583 -0.2400 -0.6563 -0.1683
  461MOL0     C62104   1.703   8.322   8.657 -0.6416  0.7382  0.3093
  461MOL0     C62105   1.757   8.213   8.593  0.4797  0.9380  0.0361
  461MOL0     C62106   1.830   8.113   8.664 -0.8360 -0.0481  0.0880
  461MOL0     C62107   1.854   8.124   8.799 -0.2919  0.4840 -0.1344
  461MOL0     O62108   1.931   8.023   8.861  0.6497 -0.2125 -0.2815
  461MOL0     C62109   1.978   8.028   8.995 -0.1739  0.1230 -0.2186
  461MOL0     C62110   2.110   7.944   9.005 -0.4021  0.1775  0.5044
  461MOL0     C62111   2.232   8.008   8.941  0.1987  0.1919  0.6100
  461MOL0     C62112   2.360   7.961   9.021  0.0019  0.3028  0.3318
  461MOL0     C62113   2.489   8.023   8.954  0.2818 -0.4091  1.1707
  461MOL0     C62114   2.615   7.984   9.033  0.7109 -0.2766 -0.7402
  461MOL0     C62115   2.745   8.027   8.954  0.3211 -0.2303 -0.9012
  461MOL0     C62116   2.869   7.980   9.039  0.4187  0.3837  0.0180
  461MOL0     N62117   3.000   8.007   8.973  0.1997  0.1271  0.3740
  461MOL0     C62118   3.062   8.126   8.970  0.0531  0.0948  0.0229
  461MOL0     C62119   3.160   8.107   8.881 -1.3588  0.0256 -0.0070
  461MOL0     C62120   3.241   8.226   8.827  0.5064  0.3266 -0.2314
  461MOL0     C62121   3.380   8.173   8.782 -0.4827  0.3277  0.2938
  461MOL0     C62122   3.472   8.285   8.736  0.1497  0.1090  0.5271
  461MOL0     C62123   3.487   8.410   8.818 -0.1094  0.4676 -0.2255
  461MOL0     O62124   3.564   8.504   8.734  0.3647 -0.3253  0.4743
  461MOL0     C62125   3.701   8.516   8.740  0.6263 -0.0525  0.3011
  461MOL0     C62126   3.788   8.448   8.828 -0.5480 -0.2996  0.8403
  461MOL0     C62127   3.932   8.458   8.817  0.2327 -0.7168 -0.5068
  461MOL0     C62128   3.987   8.541   8.715  0.1794  0.7855 -0.5432
  461MOL0     C62129   4.129   8.559   8.717  0.0857  0.1490  0.4028
  461MOL0     O62130   4.183   8.660   8.632 -0.2029 -0.2875 -0.1055
  461MOL0     C62131   4.316   8.683   8.634 -0.4428 -0.2493 -0.4286
  461MOL0     C62132   4.398   8.640   8.536 -0.1514  0.2034  0.2144
  461MOL0     C62133   4.533   8.664   8.529  0.6642 -0.4997  0.8384
  461MOL0     C62134   4.587   8.741   8.633 -0.1258  1.2735 -0.3192
  461MOL0     O62135   4.712   8.792   8.632 -0.9885 -1.0546 -0.0317
  461MOL0     C62136   4.808   8.711   8.558  0.5202  0.5105 -0.5381
  461MOL0     C62137   4.952   8.727   8.612 -0.5212  1.2391 -0.1388
  461MOL0     C62138   4.958   8.744   8.764  0.3395 -1.0441  0.0600
  461MOL0     C62139   5.103   8.740   8.831  0.4617  0.7449  0.0327
  461MOL0     C62140   5.188   8.847   8.774 -0.3447 -0.1691  0.3775
  461MOL0     C62141   5.327   8.866   8.859  0.4344  0.6045  1.2886
  461MOL0     C62142   5.397   8.986   8.796  0.7537 -0.1785 -0.0514
  461MOL0     C62143   5.514   9.011   8.886 -0.2494  0.4118 -0.4994
  461MOL0    Cl62144   5.584   9.178   8.890 -0.4706  0.0809  0.0060
  461MOL0     C62145   4.509   8.786   8.743 -0.2870 -0.2317  0.0210
  461MOL0     C62146   4.373   8.757   8.740  0.6599 -0.2298 -0.1587
  461MOL0     O62147   4.199   8.485   8.789  0.7483 -0.5051 -0.3753
  461MOL0     C62148   3.898   8.602   8.627  0.5044  0.3111 -0.0796
  461MOL0     C62149   3.761   8.593   8.642  0.4075 -0.0244  0.4901
  461MOL0     N62150   3.170   7.973   8.847  0.5616 -0.5873  0.4903
  461MOL0     N62151   3.078   7.912   8.912 -0.4221  0.1115 -0.5788
  461MOL0     C62152   1.805   8.238   8.860  0.4311  0.1481 -0.3634
  461MOL0     C62153   1.727   8.339   8.794  0.5835 -0.2744  0.7796
  461MOL0     C62154   1.444   8.459   8.430  0.5598 -0.2582  0.0234
  461MOL0     C62155   1.305   8.433   8.421 -0.3422  0.3493  0.1775
  461MOL0     C62156   1.223   8.519   8.355  0.4831  0.8837  0.5157
  461MOL0     C62157   1.265   8.637   8.289  0.2124 -0.5080 -0.6608
  461MOL0     O62158   1.186   8.719   8.211 -0.0342 -0.1986 -0.2103
  461MOL0     C62159   1.043   8.701   8.190  0.5577  0.0222 -0.0588
  461MOL0     C62160   0.978   8.831   8.136 -0.8921  0.1899  0.4450
  461MOL0     C62161   0.830   8.823   8.102 -0.1430 -0.2430 -1.0240
  461MOL0     C62162   0.742   8.834   8.224  0.8892 -0.2811  0.4292
  461MOL0     C62163   0.599   8.816   8.182 -0.4752  0.1807 -0.0167
  461MOL0     C62164   0.487   8.800   8.149 -0.0258  0.0997  0.9047
  461MOL0     C62165   1.404   8.665   8.301  0.1798 -0.4361 -0.1183
  461MOL0     C62166   1.490   8.576   8.368 -0.6311  0.3330  0.2860
  461MOL0     C62167   1.635   8.610   8.367 -0.1270  0.0958 -0.2061
  461MOL0     H62168   1.721   8.188   8.493  1.0623 -1.5214  0.3627
  461MOL0     H62169   1.875   8.031   8.609 -0.5656  0.5039 -0.5409
  461MOL0     H62170   2.004   8.133   9.012  1.0317  0.1295 -1.8645
  461MOL0     H62171   1.898   7.989   9.060  0.1015  1.0707  0.7085
  461MOL0     H62172   2.089   7.853   8.948 -0.0432  1.0292 -1.0344
  461MOL0     H62173   2.133   7.915   9.108  2.2232 -1.9355 -0.5615
  461MOL0     H62174   2.225   8.117   8.935  1.9946  0.3035 -0.0919
  461MOL0     H62175   2.237   7.966   8.840 -0.7163 -2.7896  1.7033
  461MOL0     H62176   2.364   7.991   9.126  1.0243 -0.2045  0.4459
  461MOL0     H62177   2.360   7.853   9.005 -0.4936  0.5117 -1.2912
  461MOL0     H62178   2.508   7.975   8.858  1.5729  0.6279  0.8721
  461MOL0     H62179   2.474   8.131   8.942 -0.3948 -0.5312  0.8568
  461MOL0     H62180   2.606   8.025   9.134 -1.2698  1.4322 -1.5301
  461MOL0     H62181   2.620   7.874   9.039  4.3311 -0.1420  0.7790
  461MOL0     H62182   2.736   8.136   8.949 -0.7083 -0.3277 -1.3571
  461MOL0     H62183   2.756   7.987   8.853  0.7905 -3.9536  0.4588
  461MOL0     H62184   2.869   8.013   9.143  0.5386  0.3478  0.0304
  461MOL0     H62185   2.862   7.871   9.045  0.9753  0.1943 -1.8768
  461MOL0     H62186   3.040   8.221   9.017  1.4684 -0.8166  2.7068
  461MOL0     H62187   3.189   8.269   8.741  0.4079 -0.3095 -0.4977
  461MOL0     H62188   3.251   8.296   8.911  0.0902  1.1672 -0.8748
  461MOL0     H62189   3.429   8.122   8.866 -0.2141 -0.8320 -0.5450
  461MOL0     H62190   3.368   8.101   8.701 -2.9106  2.4602 -1.3854
  461MOL0     H62191   3.418   8.318   8.647 -0.6354  0.3865  1.0899
  461MOL0     H62192   3.570   8.248   8.706 -0.1557  0.4816 -0.9869
  461MOL0     H62193   3.547   8.393   8.908  0.9565 -0.1104 -1.0265
  461MOL0     H62194   3.387   8.443   8.848  0.0259 -1.1096  2.3403
  461MOL0     H62195   3.758   8.383   8.909  1.9763 -1.0496  1.2632
  461MOL0     H62196   3.997   8.412   8.891  1.2449  0.3462 -0.7103
  461MOL0     H62197   4.362   8.557   8.476  0.9872 -2.2405  2.6948
  461MOL0     H62198   4.596   8.638   8.444 -2.1897  2.0176 -2.3040
  461MOL0     H62199   4.772   8.610   8.577  2.2372 -0.0618 -0.0808
  461MOL0     H62200   4.803   8.730   8.451  0.7075  0.5780 -0.5363
  461MOL0     H62201   5.005   8.635   8.587  1.8408  2.1184  1.3223
  461MOL0     H62202   4.999   8.817   8.572  0.0444 -0.2201 -3.0291
  461MOL0     H62203   4.917   8.845   8.777 -1.2233 -1.5447 -0.6792
  461MOL0     H62204   4.886   8.682   8.818 -0.3532 -1.6157 -1.4573
  461MOL0     H62205   5.143   8.640   8.812  2.4634  1.5403 -0.2084
  461MOL0     H62206   5.098   8.760   8.939  2.1037  1.6924 -0.0340
  461MOL0     H62207   5.124   8.935   8.767 -0.6079 -0.4929 -2.1818
  461MOL0     H62208   5.226   8.809   8.679  0.7629 -0.2063  0.8168
  461MOL0     H62209   5.301   8.886   8.963 -3.1106 -1.5406  0.9852
  461MOL0     H62210   5.395   8.780   8.859  1.1563  1.1618  0.7377
  461MOL0     H62211   5.323   9.067   8.804  0.9159  0.1785 -1.8106
  461MOL0     H62212   5.422   8.970   8.691  1.9928  0.5801  0.1136
  461MOL0     H62213   5.482   8.990   8.988 -0.1586  2.6480  0.0373
  461MOL0     H62214   5.586   8.931   8.865 -0.5782 -0.6459  2.0124
  461MOL0     H62215   4.562   8.846   8.816 -0.4418 -0.1031  0.0278
  461MOL0     H62216   4.304   8.784   8.819  0.0326 -2.8211  0.2545
  461MOL0     H62217   3.927   8.672   8.550 -1.6797 -0.4517 -1.7043
  461MOL0     H62218   3.685   8.628   8.572 -0.9475 -2.4481  0.6425
  461MOL0     H62219   1.814   8.242   8.968 -0.1248  0.6271 -0.3249
  461MOL0     H62220   1.670   8.413   8.848 -0.7491  1.2164 -2.4073
  461MOL0     H62221   1.262   8.346   8.470 -1.9379  1.0514  0.0758
  461MOL0     H62222   1.125   8.475   8.338  1.5160 -1.6480  0.6333
  461MOL0     H62223   0.991   8.667   8.280 -0.4597  0.0428 -0.6249
  461MOL0     H62224   1.036   8.620   8.116  0.5132  1.0491 -1.2134
  461MOL0     H62225   1.032   8.845   8.042  0.0235 -1.4956  0.6868
  461MOL0     H62226   0.991   8.915   8.205  0.8792  0.1012  0.2603
  461MOL0     H62227   0.810   8.729   8.048  0.7376  0.8475 -3.4149
  461MOL0     H62228   0.813   8.909   8.036  2.8880  2.9471  1.9356
  461MOL0     H62229   0.770   8.757   8.298  0.2532  0.2047  1.1887
  461MOL0     H62230   0.753   8.933   8.269 -0.2761  0.9102 -1.7433
  461MOL0     H62231   0.388   8.782   8.111  0.7404  1.4398 -2.0099
  461MOL0     H62232   1.428   8.760   8.255 -1.4046 -0.6140 -1.4128
  461MOL0     H62233   1.696   8.521   8.347 -0.5107 -0.3059  0.3863
  461MOL0     H62234   1.653   8.684   8.289 -0.1336  0.7178  0.3732
  461MOL0     H62235   1.660   8.654   8.464 -4.2303 -0.3896  1.2822
  462MOL0     O62236  11.143   1.706  10.757  0.1994 -0.1149  0.0908
  462MOL0     C62237  11.167   1.697  10.639  0.7836  0.4701 -0.0953
  462MOL0     O62238  11.291   1.683  10.592  0.5622  0.2556 -0.7964
  462MOL0     C62239  11.400   1.688  10.678  0.2047 -0.4553  0.3399
  462MOL0     C62240  11.431   1.583  10.760 -0.1199 -0.1458  0.4102
  462MOL0     C62241  11.540   1.586  10.852 -0.1166 -0.0070 -0.0707
  462MOL0     C62242  11.639   1.691  10.837  0.9337  1.1089  0.2362
  462MOL0     O62243  11.744   1.684  10.919 -0.5185 -0.6820 -0.3262
  462MOL0     C62244  11.798   1.808  10.963 -0.3632 -0.3112 -0.5573
  462MOL0     C62245  11.901   1.776  11.068  0.2599 -0.1270 -0.3657
  462MOL0     C62246  12.012   1.694  11.008 -0.8083 -0.7051  0.0003
  462MOL0     C62247  12.141   1.701  11.090  0.2242 -0.6206  0.0147
  462MOL0     C62248  12.261   1.611  11.049  0.0134  0.8699  0.5454
  462MOL0     C62249  12.359   1.600  11.165 -0.8651 -0.0228  0.4066
  462MOL0     C62250  12.477   1.512  11.125  0.1409 -0.3906 -0.6862
  462MOL0     C62251  12.564   1.562  11.009 -0.2323  0.1201  0.3973
  462MOL0     N62252  12.623   1.694  11.042  0.0103  0.2437  0.1157
  462MOL0     C62253  12.724   1.699  11.140  1.1101 -0.0344  0.5387
  462MOL0     C62254  12.720   1.829  11.169 -0.3788 -0.1398  0.2915
  462MOL0     C62255  12.774   1.903  11.294  0.1751  0.7996 -1.1805
  462MOL0     C62256  12.834   2.037  11.265 -0.4001  0.9081  0.1195
  462MOL0     C62257  12.888   2.106  11.391 -0.2561 -0.3273  0.3586
  462MOL0     C62258  13.033   2.064  11.412 -0.3058  0.5686  0.4686
  462MOL0     O62259  13.112   2.091  11.296 -0.4328 -0.1436 -0.3932
  462MOL0     C62260  13.248   2.096  11.300 -0.8154  0.3511  0.7556
  462MOL0     C62261  13.314   2.139  11.180  0.2883 -1.0767  0.0886
  462MOL0     C62262  13.451   2.134  11.174  0.3855  0.6243 -0.5941
  462MOL0     C62263  13.537   2.095  11.280  0.1027  0.3807  0.3514
  462MOL0     C62264  13.680   2.081  11.259 -0.8105 -1.1757 -0.0710
  462MOL0     O62265  13.751   2.054  11.378 -0.0961  0.0743  0.4295
  462MOL0     C62266  13.887   2.038  11.381  0.3839 -0.6178  0.2630
  462MOL0     C62267  13.974   2.144  11.338 -0.1097  0.0936 -0.0695
  462MOL0     C62268  14.109   2.124  11.351 -0.7799 -0.2115 -0.6945
  462MOL0     C62269  14.165   2.009  11.403  0.3904 -0.5475  0.2580
  462MOL0     O62270  14.298   2.003  11.422  0.1973  0.0648 -0.1222
  462MOL0     C62271  14.394   1.971  11.311  0.8581  0.3878  0.1780
  462MOL0     C62272  14.519   1.919  11.367  0.1803 -0.5391  0.3706
  462MOL0     C62273  14.627   1.907  11.257 -0.1870  0.2472 -0.0732
  462MOL0     C62274  14.752   1.861  11.326  0.5454 -0.0242  0.2764
  462MOL0     C62275  14.870   1.860  11.233 -0.1226  1.0256  0.1076
  462MOL0     C62276  14.993   1.827  11.325 -0.4318  0.2386 -0.3011
  462MOL0     C62277  15.133   1.802  11.260 -0.4718 -0.2237  0.6097
  462MOL0     C62278  15.249   1.799  11.360 -0.5085 -0.0130  0.8730
  462MOL0    Cl62279  15.214   1.683  11.497 -0.4035 -0.6086 -0.1847
  462MOL0     C62280  14.082   1.907  11.447 -0.6703 -0.1932 -0.4326
  462MOL0     C62281  13.942   1.924  11.444 -0.5111 -0.5813 -0.0930
  462MOL0     O62282  13.730   2.104  11.151  0.0423 -0.3771  0.0667
  462MOL0     C62283  13.475   2.064  11.404  0.6773 -0.5166 -0.4691
  462MOL0     C62284  13.332   2.066  11.418 -0.3947  0.1536  0.0743
  462MOL0     N62285  12.639   1.902  11.079  0.0310 -0.0801 -1.0184
  462MOL0     N62286  12.586   1.815  11.004 -0.7963 -0.7556 -0.3414
  462MOL0     C62287  11.607   1.795  10.748 -0.5034 -0.3264  0.1953
  462MOL0     C62288  11.485   1.797  10.677  0.0411  0.6436  0.7926
  462MOL0     C62289  11.056   1.677  10.541  0.6089  0.0710 -0.7869
  462MOL0     C62290  11.097   1.717  10.414  0.3929 -0.1564 -1.0702
  462MOL0     C62291  11.007   1.744  10.312  0.3011  0.3032  0.5846
  462MOL0     C62292  10.870   1.697  10.334 -0.6447 -0.1392 -0.2192
  462MOL0     O62293  10.779   1.709  10.232 -0.4794  0.7506  0.3380
  462MOL0     C62294  10.718   1.844  10.234  0.6561  0.4993 -0.4834
  462MOL0     C62295  10.582   1.854  10.164 -0.1582 -0.1691  0.3233
  462MOL0     C62296  10.474   1.759  10.218  0.0030 -0.1134 -0.4197
  462MOL0     C62297  10.506   1.610  10.192  0.5373  0.0053  0.1597
  462MOL0     C62298  10.382   1.538  10.204 -0.2195 -0.1926  0.0766
  462MOL0     C62299  10.276   1.483  10.236  0.1355 -0.3934 -0.8010
  462MOL0     C62300  10.837   1.636  10.461  0.1757  0.7307  0.1635
  462MOL0     C62301  10.927   1.633  10.569 -0.8374  0.3241 -0.0557
  462MOL0     C62302  10.873   1.585  10.702 -0.1214 -0.2751 -0.4489
  462MOL0     H62303  11.363   1.499  10.753  0.7093 -0.6742 -2.9008
  462MOL0     H62304  11.551   1.503  10.922 -0.3404  1.2440  1.5111
  462MOL0     H62305  11.841   1.870  10.884  0.3631 -1.5063 -1.1373
  462MOL0     H62306  11.715   1.860  11.011  1.1777  1.5799  0.2035
  462MOL0     H62307  11.859   1.710  11.144 -1.3807  1.2570 -0.0055
  462MOL0     H62308  11.941   1.867  11.116  1.4438 -1.7091  1.8416
  462MOL0     H62309  12.042   1.741  10.914  2.6282 -1.2543  0.6785
  462MOL0     H62310  11.985   1.588  10.994 -1.3182 -0.7095  0.8805
  462MOL0     H62311  12.167   1.806  11.105 -0.1096 -0.6503  0.8252
  462MOL0     H62312  12.119   1.674  11.194  0.9951 -1.7290 -0.0896
  462MOL0     H62313  12.225   1.512  11.018  0.0779  1.0073  0.0153
  462MOL0     H62314  12.316   1.651  10.964  2.4899  0.3875  1.8177
  462MOL0     H62315  12.392   1.699  11.199 -1.4682  0.6031 -0.7704
  462MOL0     H62316  12.307   1.550  11.248 -0.7514  2.0644  1.8225
  462MOL0     H62317  12.435   1.414  11.106 -2.5430 -0.2302  3.3282
  462MOL0     H62318  12.541   1.502  11.213 -1.4498 -0.2966  0.5255
  462MOL0     H62319  12.636   1.485  10.981 -2.5484 -1.6767 -0.9301
  462MOL0     H62320  12.502   1.563  10.920 -1.8992  0.1073  1.5081
  462MOL0     H62321  12.776   1.618  11.189 -1.1621 -0.6360  2.1244
  462MOL0     H62322  12.693   1.914  11.366  0.1214 -2.4539 -0.5775
  462MOL0     H62323  12.841   1.832  11.343 -1.1677  0.5881  0.4052
  462MOL0     H62324  12.907   2.044  11.185 -0.1918  1.2354  0.3362
  462MOL0     H62325  12.741   2.088  11.239 -1.5598 -1.4075 -0.5844
  462MOL0     H62326  12.833   2.079  11.481 -2.1437 -0.5148 -0.8026
  462MOL0     H62327  12.872   2.215  11.390  0.3929 -0.2066  1.1030
  462MOL0     H62328  13.027   1.958  11.439 -0.4808  0.3436 -0.4098
  462MOL0     H62329  13.072   2.127  11.493  1.1679  0.8253 -0.4006
  462MOL0     H62330  13.248   2.169  11.099  2.0434  2.0849 -0.2883
  462MOL0     H62331  13.504   2.144  11.081  2.3090  0.9895  0.4845
  462MOL0     H62332  13.940   2.241  11.303  2.2409  1.8357  2.1081
  462MOL0     H62333  14.182   2.204  11.340 -0.9898  0.2249  0.8899
  462MOL0     H62334  14.354   1.885  11.256  2.6329 -1.1511  1.1868
  462MOL0     H62335  14.408   2.057  11.245 -0.3235  1.8397  1.7414
  462MOL0     H62336  14.557   1.990  11.442  0.0730  2.0291 -1.8365
  462MOL0     H62337  14.508   1.828  11.426  1.2181 -0.5275  0.6090
  462MOL0     H62338  14.600   1.839  11.176 -0.3779 -2.2090  1.9473
  462MOL0     H62339  14.650   2.004  11.213  2.1804  0.9158  2.4044
  462MOL0     H62340  14.733   1.763  11.371 -0.9071  1.6158  3.5556
  462MOL0     H62341  14.758   1.944  11.398 -0.7209  1.2982 -1.0682
  462MOL0     H62342  14.893   1.959  11.193  1.2368  1.0902  0.9680
  462MOL0     H62343  14.865   1.792  11.148 -1.6124 -0.6444  1.4404
  462MOL0     H62344  15.010   1.917  11.385  3.3426 -1.2046  1.0873
  462MOL0     H62345  14.965   1.750  11.397 -2.7024  1.2328 -0.0286
  462MOL0     H62346  15.150   1.876  11.182 -2.2039 -2.2388 -1.8296
  462MOL0     H62347  15.119   1.710  11.203 -2.8400  1.5387 -1.9233
  462MOL0     H62348  15.345   1.787  11.310 -0.7485 -0.1172  0.4415
  462MOL0     H62349  15.267   1.899  11.403  1.8065 -0.3816  0.8961
  462MOL0     H62350  14.125   1.815  11.484 -0.9863 -0.5918 -1.0306
  462MOL0     H62351  13.862   1.854  11.466 -1.4760  0.6785  0.4946
  462MOL0     H62352  13.526   2.032  11.494 -1.0806  2.2367  1.6733
  462MOL0     H62353  13.287   2.029  11.510  0.5573 -1.6971 -0.1642
  462MOL0     H62354  11.663   1.887  10.750 -0.6763 -0.2018  2.9715
  462MOL0     H62355  11.449   1.873  10.609 -0.5887 -1.1082 -0.9154
  462MOL0     H62356  11.201   1.740  10.394  0.6118 -1.4779 -1.5128
  462MOL0     H62357  11.027   1.788  10.214 -0.0757 -0.2665  0.2466
  462MOL0     H62358  10.785   1.918  10.190  1.1418 -0.1929 -0.9238
  462MOL0     H62359  10.706   1.880  10.337 -1.9917 -0.0504 -0.5447
  462MOL0     H62360  10.592   1.837  10.057 -1.1603 -1.6125  0.4247
  462MOL0     H62361  10.551   1.958  10.176  2.4260  0.9284 -1.5712
  462MOL0     H62362  10.378   1.788  10.174  0.5545  2.0344 -0.2995
  462MOL0     H62363  10.445   1.775  10.323  1.1129  1.2397 -0.2920
  462MOL0     H62364  10.564   1.602  10.100  0.2964 -0.8858  0.0794
  462MOL0     H62365  10.568   1.575  10.274  0.3296  0.9859  0.7601
  462MOL0     H62366  10.182   1.437  10.258  0.1934  0.4933  1.6201
  462MOL0     H62367  10.734   1.605  10.475 -0.2970  1.7011 -0.9872
  462MOL0     H62368  10.844   1.674  10.760 -1.7542  0.4036 -2.1832
  462MOL0     H62369  10.782   1.524  10.699 -0.0490 -0.3624 -0.9084
  462MOL0     H62370  10.956   1.532  10.750  0.2836  1.7227  1.2191
  463MOL0     O62371   1.476   1.626   4.538  0.4340  0.1122  0.0213
  463MOL0     C62372   1.370   1.651   4.598 -1.0205  0.2686 -0.6752
  463MOL0     O62373   1.363   1.748   4.702 -0.4194 -0.2698  0.0531
  463MOL0     C62374   1.479   1.779   4.775 -0.6079  0.1120  0.2183
  463MOL0     C62375   1.499   1.901   4.831 -0.8173 -0.2933  0.5863
  463MOL0     C62376   1.611   1.929   4.903 -0.8512  0.9905  0.4328
  463MOL0     C62377   1.711   1.831   4.920 -0.2011 -0.2135 -0.1217
  463MOL0     O62378   1.824   1.870   4.982 -0.7165  0.5540  0.5661
  463MOL0     C62379   1.884   1.754   5.058  0.3709  0.0479  0.3197
  463MOL0     C62380   1.984   1.813   5.157  0.1275  1.0791  0.9969
  463MOL0     C62381   2.054   1.690   5.227 -0.5987 -0.0378 -0.2517
  463MOL0     C62382   2.196   1.677   5.187 -0.8880  0.2464  0.1421
  463MOL0     C62383   2.257   1.540   5.247  0.3254 -0.7468 -0.8966
  463MOL0     C62384   2.397   1.531   5.182  0.2791 -0.7512  0.0162
  463MOL0     C62385   2.457   1.398   5.190  0.0538 -0.6166  0.1724
  463MOL0     C62386   2.615   1.404   5.164 -0.4723 -0.6185  0.0862
  463MOL0     N62387   2.677   1.275   5.152 -0.1011 -0.1075 -0.1661
  463MOL0     C62388   2.708   1.206   5.037  0.0538 -0.2946  0.1292
  463MOL0     C62389   2.780   1.100   5.079  0.5341  0.3334  0.2436
  463MOL0     C62390   2.832   0.987   4.992 -0.6539 -0.3707  0.2365
  463MOL0     C62391   2.974   1.013   4.932  0.1745  0.1002  0.4054
  463MOL0     C62392   3.036   0.876   4.898  0.2180 -0.0248 -0.0868
  463MOL0     C62393   3.144   0.888   4.789  0.0428 -0.5549 -0.1835
  463MOL0     O62394   3.246   0.975   4.832 -0.7605 -0.6217  0.1846
  463MOL0     C62395   3.351   1.006   4.750 -0.4062  0.6286 -0.1664
  463MOL0     C62396   3.431   1.106   4.799 -0.0544  0.0746 -0.2501
  463MOL0     C62397   3.541   1.156   4.736  0.1922  0.0586 -0.2370
  463MOL0     C62398   3.580   1.107   4.609  0.1014 -0.5220  0.0492
  463MOL0     C62399   3.699   1.152   4.531 -0.3625 -0.9385  0.0714
  463MOL0     O62400   3.797   1.220   4.596  0.3142 -0.0999 -0.2254
  463MOL0     C62401   3.910   1.265   4.526  0.3570 -1.0424 -0.5958
  463MOL0     C62402   4.012   1.183   4.480  0.7886 -0.2360 -0.2711
  463MOL0     C62403   4.135   1.227   4.428  0.1089  0.0508  0.6743
  463MOL0     C62404   4.163   1.369   4.435  0.5215 -0.5857 -0.0253
  463MOL0     O62405   4.272   1.443   4.396 -0.1439  0.5123  0.2338
  463MOL0     C62406   4.386   1.370   4.353  0.3868  0.1440 -0.1137
  463MOL0     C62407   4.508   1.450   4.388 -0.0872 -0.1135  0.6630
  463MOL0     C62408   4.503   1.491   4.531 -0.1462 -0.3102 -0.6397
  463MOL0     C62409   4.643   1.505   4.582 -0.4128  1.1922  0.4415
  463MOL0     C62410   4.710   1.627   4.519 -0.1209 -0.0952 -0.1688
  463MOL0     C62411   4.857   1.652   4.565 -0.2242 -0.5249 -0.0165
  463MOL0     C62412   4.955   1.645   4.450 -0.3230  0.5654 -0.1270
  463MOL0     C62413   5.101   1.679   4.491  0.1369  0.3945  0.1083
  463MOL0    Cl62414   5.156   1.605   4.649  0.1338  0.2123 -0.0755
  463MOL0     C62415   4.058   1.454   4.474  0.2952  0.3739  0.5293
  463MOL0     C62416   3.936   1.402   4.517 -0.3366  0.0988  0.1986
  463MOL0     O62417   3.712   1.117   4.413  0.3161 -0.6025  0.3976
  463MOL0     C62418   3.503   1.003   4.553 -0.1731 -0.2822 -0.0074
  463MOL0     C62419   3.383   0.955   4.621 -0.0900 -0.1487 -0.7416
  463MOL0     N62420   2.800   1.103   5.216  0.2107  0.5994 -0.4136
  463MOL0     N62421   2.727   1.205   5.260 -0.4067 -0.3939 -0.4120
  463MOL0     C62422   1.696   1.706   4.859 -0.2610  0.0585  0.1989
  463MOL0     C62423   1.570   1.675   4.798  0.0164 -0.0510 -0.3002
  463MOL0     C62424   1.241   1.616   4.533 -0.6043  0.9833  0.1777
  463MOL0     C62425   1.132   1.696   4.551  0.8399  1.3592  0.0103
  463MOL0     C62426   1.006   1.655   4.505  0.0608 -0.2818 -0.8467
  463MOL0     C62427   0.988   1.538   4.431 -0.0268  0.8724 -0.8253
  463MOL0     O62428   0.869   1.477   4.394 -0.3105  0.2006  0.5883
  463MOL0     C62429   0.751   1.544   4.434 -0.0299  0.4921  0.3176
  463MOL0     C62430   0.627   1.457   4.417 -0.1777  0.0504  0.4388
  463MOL0     C62431   0.581   1.465   4.271 -0.4366 -0.2019 -0.0986
  463MOL0     C62432   0.467   1.369   4.250  0.2706 -0.7978 -0.1714
  463MOL0     C62433   0.342   1.442   4.296  0.2024 -0.3015  0.2811
  463MOL0     C62434   0.246   1.506   4.326  0.6434  0.2305  0.5499
  463MOL0     C62435   1.103   1.454   4.419 -0.2129  0.4728 -0.1912
  463MOL0     C62436   1.228   1.493   4.463  0.4620  0.2833  0.8349
  463MOL0     C62437   1.341   1.387   4.448  0.2686 -0.8878 -0.2355
  463MOL0     H62438   1.425   1.976   4.806 -0.6407 -1.0373 -2.4694
  463MOL0     H62439   1.632   2.027   4.945  0.0345  3.2530 -4.5433
  463MOL0     H62440   1.798   1.704   5.105 -0.3254  0.6964 -0.2382
  463MOL0     H62441   1.941   1.689   4.991 -1.2517 -0.9549 -0.1481
  463MOL0     H62442   1.923   1.874   5.224  0.2815  2.2257  0.1219
  463MOL0     H62443   2.060   1.875   5.109 -0.5027  1.2211  0.1519
  463MOL0     H62444   1.988   1.603   5.217 -0.6473 -0.5102  2.8938
  463MOL0     H62445   2.054   1.719   5.333  0.0924  0.4539 -0.3820
  463MOL0     H62446   2.201   1.674   5.077  1.8336 -2.6719  0.2151
  463MOL0     H62447   2.251   1.763   5.225  1.0728 -2.1319  3.1459
  463MOL0     H62448   2.255   1.554   5.355 -1.0699  3.2635 -1.2857
  463MOL0     H62449   2.196   1.451   5.227  0.2539 -1.1706  1.0797
  463MOL0     H62450   2.402   1.566   5.078 -0.2290  2.1008  0.8739
  463MOL0     H62451   2.463   1.598   5.237  0.4301 -1.3325  0.5555
  463MOL0     H62452   2.399   1.343   5.115 -2.6947  3.4679 -1.0085
  463MOL0     H62453   2.419   1.361   5.286 -4.4960  1.7364 -0.4472
  463MOL0     H62454   2.636   1.454   5.069  1.6797 -0.8654  0.3800
  463MOL0     H62455   2.662   1.464   5.243  1.6677  0.3902 -1.8638
  463MOL0     H62456   2.677   1.216   4.933 -1.0161 -1.8768  0.2734
  463MOL0     H62457   2.837   0.898   5.056  0.7940  0.3430  1.1668
  463MOL0     H62458   2.761   0.961   4.912  2.1476 -1.2787 -2.1356
  463MOL0     H62459   2.959   1.073   4.842  1.5470 -0.9144 -0.5531
  463MOL0     H62460   3.048   1.049   5.005 -1.1691 -2.1808  3.0886
  463MOL0     H62461   2.953   0.823   4.850 -1.4454  0.7792  1.7205
  463MOL0     H62462   3.067   0.827   4.990  1.6528  0.2963 -0.3825
  463MOL0     H62463   3.091   0.930   4.703  0.6067  1.8005  0.5699
  463MOL0     H62464   3.201   0.802   4.752  1.6104  1.3584 -2.5270
  463MOL0     H62465   3.393   1.158   4.887 -1.3463  0.6645 -1.1210
  463MOL0     H62466   3.608   1.225   4.786 -0.6160  0.8797 -0.2566
  463MOL0     H62467   3.985   1.078   4.482  0.3089 -0.1331 -1.0316
  463MOL0     H62468   4.202   1.156   4.383  0.8771  1.3927 -0.3628
  463MOL0     H62469   4.396   1.267   4.386  0.4140  0.4642  0.9013
  463MOL0     H62470   4.378   1.359   4.244 -0.4048 -2.2224  0.1383
  463MOL0     H62471   4.595   1.386   4.373  1.0054  1.6050 -0.6539
  463MOL0     H62472   4.514   1.534   4.318 -1.8841 -0.8413 -0.4293
  463MOL0     H62473   4.446   1.585   4.534 -3.1730 -1.9978 -0.8292
  463MOL0     H62474   4.449   1.413   4.586  1.1565 -0.8820 -0.1389
  463MOL0     H62475   4.697   1.411   4.567  0.5589  1.6592  0.9862
  463MOL0     H62476   4.635   1.519   4.690 -0.5273 -3.3710  1.2116
  463MOL0     H62477   4.644   1.711   4.544 -0.9686 -0.5356 -0.8665
  463MOL0     H62478   4.708   1.612   4.411  0.4562 -0.3055 -0.1519
  463MOL0     H62479   4.863   1.753   4.606  1.1279  0.4090 -2.3364
  463MOL0     H62480   4.895   1.578   4.636  1.3351 -0.0482 -0.3260
  463MOL0     H62481   4.925   1.719   4.375 -3.0086 -2.1822 -2.0229
  463MOL0     H62482   4.939   1.546   4.405 -3.5783  2.1385 -2.8773
  463MOL0     H62483   5.176   1.644   4.420  0.2675 -1.1787  0.9862
  463MOL0     H62484   5.113   1.788   4.486  1.4625  0.2185 -1.2397
  463MOL0     H62485   4.072   1.561   4.474 -1.8643  0.8332 -3.2709
  463MOL0     H62486   3.849   1.463   4.539 -2.0931 -1.7571 -1.1547
  463MOL0     H62487   3.524   0.966   4.453 -1.8189 -3.6374  0.7468
  463MOL0     H62488   3.337   0.871   4.570 -3.0418  0.4455  0.6754
  463MOL0     H62489   1.768   1.625   4.854 -0.2763  0.1219 -1.8874
  463MOL0     H62490   1.549   1.578   4.754 -0.6995 -1.5752  3.0844
  463MOL0     H62491   1.152   1.792   4.596  0.6583  0.3973  2.3314
  463MOL0     H62492   0.925   1.727   4.508 -1.3531 -1.7959 -0.4459
  463MOL0     H62493   0.733   1.638   4.381 -2.6669  0.9155  1.7974
  463MOL0     H62494   0.762   1.571   4.539 -2.4057  4.4414 -0.2782
  463MOL0     H62495   0.545   1.484   4.484 -1.3775 -1.2514 -0.4574
  463MOL0     H62496   0.672   1.359   4.437  1.4403  0.8605  0.9893
  463MOL0     H62497   0.661   1.428   4.206 -1.6194 -2.3558 -0.4451
  463MOL0     H62498   0.558   1.561   4.224 -1.0614 -1.4570 -2.5490
  463MOL0     H62499   0.459   1.347   4.143 -2.3202  1.8756 -0.6712
  463MOL0     H62500   0.473   1.274   4.304 -1.9489 -0.0692  1.5358
  463MOL0     H62501   0.158   1.567   4.334  1.6068  1.9529 -1.1648
  463MOL0     H62502   1.079   1.363   4.365 -0.6982  0.2561  0.3735
  463MOL0     H62503   1.388   1.375   4.546  0.5406 -2.0605 -0.4881
  463MOL0     H62504   1.286   1.296   4.423 -1.3774  0.3458 -1.3393
  463MOL0     H62505   1.404   1.412   4.362  0.5194  1.1975  0.5094
  464MOL0     O62506   5.717   2.683   8.141  0.0676 -0.1220  0.1578
  464MOL0     C62507   5.624   2.599   8.138  0.5925  0.1513 -0.5372
  464MOL0     O62508   5.620   2.474   8.200 -0.1171 -0.1741  0.1042
  464MOL0     C62509   5.716   2.440   8.291  0.7068 -0.4419  0.2123
  464MOL0     C62510   5.688   2.446   8.428 -0.3384  0.1554 -0.9046
  464MOL0     C62511   5.784   2.427   8.523 -0.1939 -0.5585  0.8079
  464MOL0     C62512   5.918   2.394   8.481  0.5679  0.3070  0.3322
  464MOL0     O62513   6.023   2.384   8.561  0.0375  0.0197 -0.1378
  464MOL0     C62514   6.010   2.312   8.684 -0.2609  0.2315  1.0911
  464MOL0     C62515   6.149   2.284   8.735 -0.5670  0.2762  0.3152
  464MOL0     C62516   6.143   2.191   8.865  0.3822 -0.2052 -0.2846
  464MOL0     C62517   6.249   2.228   8.970 -0.4120 -0.5572  0.5790
  464MOL0     C62518   6.304   2.104   9.037 -0.1083  0.4720 -0.6619
  464MOL0     C62519   6.396   2.152   9.154 -0.8496  0.7636 -0.4170
  464MOL0     C62520   6.499   2.051   9.197 -0.3148 -0.4336 -0.3201
  464MOL0     C62521   6.576   2.105   9.325  0.8360 -1.0059  0.6193
  464MOL0     N62522   6.718   2.077   9.330  0.1225 -0.2828  0.3200
  464MOL0     C62523   6.787   1.971   9.277  0.3630  0.5471  0.1039
  464MOL0     C62524   6.914   2.012   9.256  0.3172  0.2449  0.3779
  464MOL0     C62525   7.014   1.933   9.168 -0.6393 -0.4686  0.1305
  464MOL0     C62526   7.141   1.913   9.244  0.4575 -0.3069  0.4084
  464MOL0     C62527   7.214   1.797   9.182  0.2456 -0.1431 -0.9200
  464MOL0     C62528   7.369   1.811   9.205  0.4268  1.0499 -0.3275
  464MOL0     O62529   7.409   1.913   9.116  0.2508  0.1626  0.3528
  464MOL0     C62530   7.527   1.897   9.054  0.4786 -0.6717  0.0439
  464MOL0     C62531   7.532   1.872   8.913 -0.5598  1.0341 -0.3597
  464MOL0     C62532   7.666   1.869   8.854 -0.1239  0.0769 -0.0292
  464MOL0     C62533   7.791   1.881   8.928  0.3913  0.8669 -0.0837
  464MOL0     C62534   7.910   1.883   8.851 -0.5805 -0.5431 -0.9183
  464MOL0     O62535   7.906   1.882   8.716 -0.2842  0.2344 -0.1288
  464MOL0     C62536   8.025   1.910   8.659 -0.1775  1.0093  0.9157
  464MOL0     C62537   8.102   2.023   8.687  0.7105  0.2201 -0.4137
  464MOL0     C62538   8.222   2.047   8.622  0.3120  0.0883 -0.2141
  464MOL0     C62539   8.262   1.958   8.528  1.1321  0.3157  0.7174
  464MOL0     O62540   8.383   1.967   8.465 -0.2176  0.1433 -0.0939
  464MOL0     C62541   8.474   2.072   8.501 -0.5745  0.5404  0.2429
  464MOL0     C62542   8.606   2.030   8.442  0.2748 -0.0223  0.6035
  464MOL0     C62543   8.694   2.154   8.397  0.1012  0.2983 -0.3955
  464MOL0     C62544   8.794   2.090   8.300 -0.2394 -0.1066  0.0918
  464MOL0     C62545   8.907   2.183   8.268 -0.0202  0.5199 -0.1329
  464MOL0     C62546   8.982   2.132   8.144  0.1319  0.2286  0.3682
  464MOL0     C62547   9.025   1.981   8.162  0.2046  0.1847 -0.1289
  464MOL0     C62548   9.130   1.938   8.053  0.2782  0.7939  0.0086
  464MOL0    Cl62549   9.091   2.014   7.888  0.2932  0.0903 -0.1745
  464MOL0     C62550   8.187   1.845   8.497  0.2592 -0.7429 -0.8210
  464MOL0     C62551   8.068   1.816   8.562 -0.4608  0.6160 -0.6085
  464MOL0     O62552   8.011   1.880   8.921  0.0152 -0.6859  0.3814
  464MOL0     C62553   7.774   1.891   9.070  1.0091 -0.2553 -0.3467
  464MOL0     C62554   7.646   1.908   9.123 -0.5785  0.2104  0.2760
  464MOL0     N62555   6.926   2.140   9.311 -0.4853 -0.2220  0.4710
  464MOL0     N62556   6.812   2.179   9.348  0.6573 -0.1051  1.0431
  464MOL0     C62557   5.943   2.394   8.345 -0.0843 -0.0573 -0.0455
  464MOL0     C62558   5.846   2.414   8.248 -0.5419  0.3752  0.0532
  464MOL0     C62559   5.499   2.648   8.069 -0.1622 -1.6028  0.1780
  464MOL0     C62560   5.370   2.589   8.103 -1.1013  0.7784  0.5065
  464MOL0     C62561   5.248   2.643   8.051  0.0050  0.4976 -0.2986
  464MOL0     C62562   5.249   2.756   7.971 -0.4355 -1.2342  0.3342
  464MOL0     O62563   5.133   2.813   7.921 -0.4755  0.0773  0.0241
  464MOL0     C62564   5.003   2.766   7.944  0.6750 -0.8676  0.3782
  464MOL0     C62565   4.893   2.870   7.902 -0.3206  0.0013  0.0769
  464MOL0     C62566   4.901   3.005   7.985  0.1008 -0.7412 -1.1951
  464MOL0     C62567   4.763   3.070   7.988 -0.2876 -0.7887  0.1648
  464MOL0     C62568   4.661   2.997   8.060  0.5554  0.5682 -0.8890
  464MOL0     C62569   4.586   2.929   8.119  0.0513 -0.0062 -0.3245
  464MOL0     C62570   5.371   2.806   7.933 -0.5439 -0.2868  0.1882
  464MOL0     C62571   5.497   2.757   7.974  0.2969 -0.0254 -0.3134
  464MOL0     C62572   5.625   2.810   7.899 -0.0278  0.0027  0.0750
  464MOL0     H62573   5.591   2.474   8.468 -1.3911 -0.7549 -2.6908
  464MOL0     H62574   5.754   2.431   8.628 -0.0593 -0.7236  0.8523
  464MOL0     H62575   5.942   2.366   8.752 -0.4622  1.2635  0.0985
  464MOL0     H62576   5.971   2.217   8.648  3.3012 -0.4318 -1.6004
  464MOL0     H62577   6.202   2.375   8.765  0.1166  1.1271 -3.0923
  464MOL0     H62578   6.207   2.231   8.659 -1.0992  1.3131 -0.8374
  464MOL0     H62579   6.157   2.091   8.822  0.2217  0.5897 -2.2963
  464MOL0     H62580   6.042   2.187   8.906 -0.0689 -0.2960 -1.3598
  464MOL0     H62581   6.330   2.289   8.928 -0.0817 -0.9353  0.6699
  464MOL0     H62582   6.206   2.290   9.049 -0.4396  0.8995 -0.5241
  464MOL0     H62583   6.224   2.049   9.087  1.2495 -1.4610 -0.4904
  464MOL0     H62584   6.353   2.052   8.955  1.6547  0.9000  0.0632
  464MOL0     H62585   6.441   2.250   9.142  0.1483  0.4538  0.6642
  464MOL0     H62586   6.327   2.165   9.239  1.3551  1.3694  1.3704
  464MOL0     H62587   6.567   2.032   9.114  1.5399  1.3964  0.6906
  464MOL0     H62588   6.457   1.955   9.229  1.0000  0.4819  5.4457
  464MOL0     H62589   6.553   2.211   9.339 -0.4153 -1.1523 -0.1427
  464MOL0     H62590   6.535   2.060   9.417  1.3426 -1.4557  0.6283
  464MOL0     H62591   6.766   1.867   9.253 -0.3035  0.7850 -0.3745
  464MOL0     H62592   6.976   1.836   9.135  0.9073 -0.5039 -1.7314
  464MOL0     H62593   7.031   1.986   9.073 -4.3852 -2.2414 -1.7591
  464MOL0     H62594   7.206   2.001   9.239  1.9166 -1.2857  1.3593
  464MOL0     H62595   7.119   1.898   9.350  3.0368  2.9150  1.5827
  464MOL0     H62596   7.199   1.787   9.074  2.1263  2.4404 -1.5187
  464MOL0     H62597   7.177   1.708   9.233 -0.8475  1.6993  1.7175
  464MOL0     H62598   7.411   1.711   9.184  1.8729  1.2774  1.2803
  464MOL0     H62599   7.391   1.829   9.311  2.9425 -2.8557  0.0483
  464MOL0     H62600   7.450   1.878   8.842 -0.7328  0.5060 -0.2095
  464MOL0     H62601   7.659   1.856   8.746  0.1433 -0.8476  0.0556
  464MOL0     H62602   8.068   2.089   8.767 -1.8753 -0.7495 -0.6116
  464MOL0     H62603   8.283   2.132   8.652  0.8515 -0.1660 -0.5775
  464MOL0     H62604   8.442   2.175   8.481 -1.8644  0.3923  1.3702
  464MOL0     H62605   8.484   2.085   8.609 -5.2850  5.5387  0.5524
  464MOL0     H62606   8.660   1.962   8.508  3.0675  0.7982 -0.6678
  464MOL0     H62607   8.584   1.978   8.348  1.7212  1.6319 -0.7151
  464MOL0     H62608   8.619   2.223   8.358 -0.0037  1.4608  1.7045
  464MOL0     H62609   8.747   2.200   8.481  1.0332 -0.2147 -0.6880
  464MOL0     H62610   8.746   2.062   8.205  1.0666 -0.8335 -0.3886
  464MOL0     H62611   8.835   2.006   8.357  1.0258  1.3512  1.4079
  464MOL0     H62612   8.982   2.192   8.347  0.8866 -1.2421 -0.7546
  464MOL0     H62613   8.868   2.284   8.249  1.9629  1.0126 -2.0868
  464MOL0     H62614   8.923   2.150   8.054  3.7934  2.1994 -1.8885
  464MOL0     H62615   9.069   2.197   8.128 -2.6206  3.8501 -1.4498
  464MOL0     H62616   8.939   1.916   8.140 -0.4951  1.0250  0.0958
  464MOL0     H62617   9.054   1.965   8.266 -3.0205  3.2541  1.4445
  464MOL0     H62618   9.235   1.958   8.078  0.4251 -1.0255  1.0170
  464MOL0     H62619   9.114   1.830   8.045 -0.5928  1.0164 -1.6380
  464MOL0     H62620   8.219   1.765   8.432 -1.3136 -1.6881 -0.4845
  464MOL0     H62621   8.005   1.728   8.550 -1.8684  1.6529 -1.0546
  464MOL0     H62622   7.858   1.906   9.137  1.1055 -1.1372 -0.2533
  464MOL0     H62623   7.641   1.931   9.229  0.6869 -1.7739  0.8271
  464MOL0     H62624   6.048   2.386   8.319 -0.1985  3.4344 -2.2872
  464MOL0     H62625   5.868   2.399   8.142 -2.3039 -0.2422 -0.2607
  464MOL0     H62626   5.375   2.497   8.161 -1.7646  0.8650  0.7175
  464MOL0     H62627   5.155   2.591   8.072 -0.8132  1.6194 -1.0949
  464MOL0     H62628   4.984   2.742   8.049 -3.1927 -3.3930 -0.6646
  464MOL0     H62629   4.982   2.677   7.884  0.3810 -1.6700  1.6319
  464MOL0     H62630   4.794   2.827   7.921  0.0108  0.4157  3.3309
  464MOL0     H62631   4.911   2.885   7.795  0.6561 -2.7595 -0.2225
  464MOL0     H62632   4.961   3.080   7.931 -0.3088 -1.0698 -2.1253
  464MOL0     H62633   4.953   2.987   8.079  1.6530 -2.4846 -2.3214
  464MOL0     H62634   4.770   3.171   8.027 -1.5969  0.3952 -2.4082
  464MOL0     H62635   4.724   3.080   7.886 -2.0766 -2.8127  0.5960
  464MOL0     H62636   4.515   2.867   8.172 -0.9142  3.4878  2.9156
  464MOL0     H62637   5.360   2.901   7.882 -2.0756  0.1054  1.1587
  464MOL0     H62638   5.655   2.900   7.953 -0.5759  0.4278 -0.3152
  464MOL0     H62639   5.717   2.751   7.912  0.4754  0.6054 -0.7030
  464MOL0     H62640   5.609   2.839   7.795  2.4792 -0.2796 -0.4502
  465MOL0     O62641   0.287  10.236   7.455  0.3639  0.1100  0.2626
  465MOL0     C62642   0.215  10.320   7.395 -0.7815  1.0572  0.0485
  465MOL0     O62643   0.260  10.432   7.330 -0.0252 -0.2541 -0.0914
  465MOL0     C62644   0.394  10.438   7.287  0.2895 -0.7556  0.0435
  465MOL0     C62645   0.414  10.450   7.147 -0.1584 -0.1968 -0.8322
  465MOL0     C62646   0.537  10.474   7.088 -0.4482  0.2518  0.9733
  465MOL0     C62647   0.650  10.476   7.172 -0.8840 -0.0985  0.3364
  465MOL0     O62648   0.780  10.486   7.123  0.8642  0.4613  0.3885
  465MOL0     C62649   0.809  10.460   6.979 -0.3579 -0.1113  0.2191
  465MOL0     C62650   0.959  10.437   6.963  0.3117  0.0470 -0.8509
  465MOL0     C62651   1.011  10.391   6.821  0.6487  0.1308  0.5754
  465MOL0     C62652   1.007  10.241   6.781 -0.0430 -0.1586  0.4978
  465MOL0     C62653   1.134  10.201   6.697  0.3697 -0.3243 -0.5154
  465MOL0     C62654   1.142  10.247   6.549  0.9973  0.8250 -0.2290
  465MOL0     C62655   1.257  10.163   6.488  0.3200  0.2181  0.8056
  465MOL0     C62656   1.252  10.181   6.339  0.2294 -0.3114 -0.8383
  465MOL0     N62657   1.368  10.131   6.259 -0.2247 -0.4537 -0.4861
  465MOL0     C62658   1.432  10.211   6.166 -0.2357 -0.0868  0.3635
  465MOL0     C62659   1.531  10.136   6.123 -0.8092 -0.9143  0.4600
  465MOL0     C62660   1.618  10.179   6.002  0.1906 -0.1110  0.6737
  465MOL0     C62661   1.766  10.229   6.043  0.3047 -0.4572  0.7356
  465MOL0     C62662   1.839  10.136   6.137 -0.0516 -0.3234  0.0091
  465MOL0     C62663   1.883   9.995   6.071  0.2059 -0.0222 -0.4210
  465MOL0     O62664   1.964   9.908   6.147 -0.2673 -0.3788 -0.0565
  465MOL0     C62665   2.092   9.938   6.197 -1.2710  0.5585 -0.0481
  465MOL0     C62666   2.154  10.064   6.161 -0.6695 -0.3959  0.8924
  465MOL0     C62667   2.282  10.098   6.194  0.2069  0.3216 -0.3398
  465MOL0     C62668   2.365  10.008   6.253 -0.4629  0.7735  0.4409
  465MOL0     C62669   2.510  10.049   6.281  0.8003 -0.2055  0.0457
  465MOL0     O62670   2.587   9.954   6.345  0.2456  0.1213 -0.7183
  465MOL0     C62671   2.702   9.998   6.404  0.0955  0.3584 -0.5268
  465MOL0     C62672   2.812   9.917   6.405  0.5834 -0.2329  0.8127
  465MOL0     C62673   2.931   9.936   6.475  0.3133  1.8629 -0.5908
  465MOL0     C62674   2.918  10.034   6.574 -0.9409  0.3017 -0.7354
  465MOL0     O62675   3.034  10.083   6.641 -0.7740  0.3204 -0.1520
  465MOL0     C62676   3.173  10.068   6.592  0.5354 -0.4014 -0.3741
  465MOL0     C62677   3.277  10.100   6.709  0.2931  0.3931  0.6122
  465MOL0     C62678   3.300   9.986   6.804 -0.0909 -1.0148 -1.4252
  465MOL0     C62679   3.410  10.030   6.899 -0.2771 -0.5577  0.3656
  465MOL0     C62680   3.436   9.924   7.003 -1.0863 -0.4357  0.1473
  465MOL0     C62681   3.562   9.961   7.079 -0.1884  0.3600 -0.0112
  465MOL0     C62682   3.696   9.957   7.010  0.0037  0.3198  0.4680
  465MOL0     C62683   3.803  10.005   7.102 -0.5787 -0.6391 -0.2278
  465MOL0    Cl62684   3.831   9.900   7.242 -0.2228  0.5984 -0.0307
  465MOL0     C62685   2.815  10.122   6.587  0.0938  0.8980 -0.7841
  465MOL0     C62686   2.705  10.102   6.502  0.0861  0.5111  0.2626
  465MOL0     O62687   2.539  10.167   6.271 -0.3616 -0.0132  0.1881
  465MOL0     C62688   2.311   9.882   6.294 -0.1135  0.6887  0.4933
  465MOL0     C62689   2.182   9.848   6.266  0.1806  0.2999 -0.5826
  465MOL0     N62690   1.542  10.019   6.200  1.0621  0.3171 -0.1758
  465MOL0     N62691   1.426  10.013   6.276 -0.9261  0.5656 -0.2967
  465MOL0     C62692   0.637  10.468   7.309 -0.7057 -0.7867 -0.6460
  465MOL0     C62693   0.507  10.445   7.366  0.4497 -0.3838  0.7443
  465MOL0     C62694   0.077  10.273   7.366  0.6791  0.3547 -0.5779
  465MOL0     C62695  -0.018  10.299   7.469 -0.0560 -0.0996  0.0576
  465MOL0     C62696  -0.152  10.264   7.448 -1.2000  0.1992 -0.3631
  465MOL0     C62697  -0.195  10.202   7.330 -0.2382  0.7005 -0.1322
  465MOL0     O62698  -0.324  10.159   7.301  0.5580  0.4716 -0.2559
  465MOL0     C62699  -0.423  10.134   7.399 -0.7577 -0.1456 -0.0254
  465MOL0     C62700  -0.564  10.121   7.332  0.3117  1.0668 -1.0303
  465MOL0     C62701  -0.660  10.109   7.462  0.0594 -0.3720  0.7940
  465MOL0     C62702  -0.673   9.966   7.514 -0.5740 -0.4940 -0.2115
  465MOL0     C62703  -0.642   9.940   7.651  0.6583 -0.2134 -0.2901
  465MOL0     C62704  -0.624   9.933   7.773  1.0564 -0.4605 -0.4980
  465MOL0     C62705  -0.101  10.181   7.226  0.0568 -0.4436  0.0001
  465MOL0     C62706   0.034  10.213   7.244  0.0868  0.5074  0.4381
  465MOL0     C62707   0.121  10.194   7.116 -0.0591  0.0673 -0.4415
  465MOL0     H62708   0.325  10.442   7.085  0.5041  0.7932 -1.9771
  465MOL0     H62709   0.540  10.489   6.980 -1.0071 -1.7019  0.6377
  465MOL0     H62710   0.757  10.370   6.945 -2.2310  0.2458  1.9299
  465MOL0     H62711   0.779  10.550   6.925 -0.6873  0.3300  1.1129
  465MOL0     H62712   0.990  10.364   7.039  2.1766  0.9435 -0.6920
  465MOL0     H62713   1.004  10.531   6.996 -1.1836  0.2843  0.6814
  465MOL0     H62714   1.115  10.424   6.816  0.8516 -0.6834 -1.9985
  465MOL0     H62715   0.952  10.456   6.756  0.7345  0.8813  1.2299
  465MOL0     H62716   1.002  10.191   6.878  0.3513 -1.0412  0.0660
  465MOL0     H62717   0.913  10.231   6.725  1.0974  2.0654 -2.0673
  465MOL0     H62718   1.221  10.250   6.742  1.0796 -2.8445  1.0980
  465MOL0     H62719   1.134  10.093   6.712  1.2748 -0.3239 -0.4830
  465MOL0     H62720   1.051  10.211   6.501  1.9890 -0.7390 -1.0321
  465MOL0     H62721   1.148  10.356   6.540  3.4213  0.8471  0.7890
  465MOL0     H62722   1.247  10.054   6.502 -0.6093  0.2882  0.8041
  465MOL0     H62723   1.350  10.204   6.527  1.1217  1.2730 -1.9970
  465MOL0     H62724   1.157  10.148   6.294  1.2673 -0.9476 -2.6981
  465MOL0     H62725   1.245  10.290   6.335 -3.5271 -0.4025 -0.9919
  465MOL0     H62726   1.397  10.305   6.123  2.3522  1.2341  0.9589
  465MOL0     H62727   1.622  10.093   5.935 -1.4247  1.0179 -0.9923
  465MOL0     H62728   1.560  10.255   5.947 -2.0019 -1.9546  0.2752
  465MOL0     H62729   1.824  10.243   5.951  2.2890  0.3636  2.0427
  465MOL0     H62730   1.760  10.329   6.088  2.5038  0.3489 -0.6360
  465MOL0     H62731   1.782  10.114   6.227 -0.8313  0.1222 -0.3679
  465MOL0     H62732   1.925  10.190   6.175 -0.3328 -0.0558  0.2614
  465MOL0     H62733   1.931  10.012   5.974 -1.3296 -0.6691 -1.3218
  465MOL0     H62734   1.795   9.935   6.046 -1.0692  2.0035 -1.0010
  465MOL0     H62735   2.116  10.141   6.094 -1.6818 -1.8964 -0.3284
  465MOL0     H62736   2.318  10.198   6.175 -3.2775  1.5993 -0.9749
  465MOL0     H62737   2.805   9.822   6.353  0.2718  1.0759 -1.7050
  465MOL0     H62738   3.012   9.871   6.445 -0.6841  0.3431 -0.1326
  465MOL0     H62739   3.186   9.968   6.549  1.0108  0.3864 -2.1453
  465MOL0     H62740   3.188  10.137   6.509  1.4277 -0.8625 -0.6082
  465MOL0     H62741   3.375  10.126   6.667 -0.3633 -1.5338 -2.4703
  465MOL0     H62742   3.252  10.189   6.767  0.3582  1.4597 -0.9414
  465MOL0     H62743   3.217   9.982   6.875  2.0381  2.0767  1.6166
  465MOL0     H62744   3.325   9.893   6.753  2.1166  0.0384 -2.3905
  465MOL0     H62745   3.388  10.123   6.953 -1.9137  0.5916 -2.0942
  465MOL0     H62746   3.500  10.040   6.838 -1.2808 -0.6159 -1.2027
  465MOL0     H62747   3.442   9.830   6.946 -3.7161  0.1485 -1.2754
  465MOL0     H62748   3.342   9.916   7.059 -0.5693 -4.5556  0.7869
  465MOL0     H62749   3.547  10.064   7.112 -1.9484  1.0115 -2.5171
  465MOL0     H62750   3.574   9.887   7.158  0.7679  1.1175  0.5749
  465MOL0     H62751   3.694  10.029   6.927 -1.4410  1.8297  1.7661
  465MOL0     H62752   3.712   9.859   6.963 -1.6122  0.0814  0.3732
  465MOL0     H62753   3.894  10.014   7.042  0.6202 -2.2789  1.2360
  465MOL0     H62754   3.776  10.100   7.149  0.1255 -0.8425  0.6169
  465MOL0     H62755   2.813  10.194   6.667 -2.2640 -0.6486  0.6492
  465MOL0     H62756   2.620  10.169   6.506 -0.9606 -0.6088 -1.5216
  465MOL0     H62757   2.372   9.802   6.336  1.5852 -0.2044 -3.2874
  465MOL0     H62758   2.150   9.746   6.279 -0.5398  0.0842 -3.4534
  465MOL0     H62759   0.722  10.461   7.377  0.0936 -3.2777 -1.7947
  465MOL0     H62760   0.488  10.437   7.473  2.7527 -0.1228  1.2161
  465MOL0     H62761   0.002  10.351   7.562 -1.4791  2.4683 -0.9845
  465MOL0     H62762  -0.229  10.275   7.524 -1.2963  1.2513 -0.5912
  465MOL0     H62763  -0.426  10.221   7.465 -4.1202  2.0469 -2.7596
  465MOL0     H62764  -0.408  10.041   7.455 -1.0154  1.2779  2.5572
  465MOL0     H62765  -0.560  10.040   7.259  0.9882  2.6056 -2.7670
  465MOL0     H62766  -0.588  10.207   7.268 -1.4546 -0.6229 -2.7899
  465MOL0     H62767  -0.753  10.151   7.421  1.3062  0.1779 -1.7301
  465MOL0     H62768  -0.615  10.181   7.530 -2.4239  2.6488 -0.4711
  465MOL0     H62769  -0.779   9.940   7.500 -0.6788 -1.1171  1.4839
  465MOL0     H62770  -0.609   9.901   7.454 -1.8760 -0.7616 -1.3791
  465MOL0     H62771  -0.607   9.911   7.876  0.4467  0.6875 -0.1299
  465MOL0     H62772  -0.162  10.161   7.138 -2.6464  1.6567  1.2456
  465MOL0     H62773   0.184  10.105   7.123  0.5978  0.2202 -3.3750
  465MOL0     H62774   0.053  10.174   7.033 -0.0511 -1.4616 -0.1160
  465MOL0     H62775   0.172  10.288   7.094 -1.3577  0.3719 -2.3119
  466MOL0     O62776  10.922   7.441  10.958 -0.8429  0.0642  0.2597
  466MOL0     C62777  10.838   7.464  10.873  0.4552 -0.2272 -0.1908
  466MOL0     O62778  10.851   7.565  10.782 -0.0922 -0.2923  0.3463
  466MOL0     C62779  10.972   7.633  10.770 -0.0672 -0.5788  0.3678
  466MOL0     C62780  11.075   7.586  10.692 -0.6112 -0.2725  0.2852
  466MOL0     C62781  11.195   7.669  10.685  0.2809  0.4119 -0.2575
  466MOL0     C62782  11.212   7.797  10.748 -1.0079  0.6834  0.3985
  466MOL0     O62783  11.324   7.878  10.727  0.0240  0.1179 -0.5867
  466MOL0     C62784  11.376   7.941  10.850 -0.1255  0.0661 -0.4047
  466MOL0     C62785  11.531   7.962  10.851 -0.4054  0.6773 -0.8698
  466MOL0     C62786  11.584   8.042  10.978  0.5041  0.6103  0.3409
  466MOL0     C62787  11.720   8.093  10.958 -0.0178 -0.5221 -0.6073
  466MOL0     C62788  11.788   8.155  11.082  0.0314 -0.2609  0.3975
  466MOL0     C62789  11.919   8.230  11.043  0.0779 -0.2808  0.6052
  466MOL0     C62790  12.005   8.277  11.165 -0.9071 -0.5126 -0.7757
  466MOL0     C62791  11.920   8.338  11.279 -0.1903 -0.3874 -0.0444
  466MOL0     N62792  12.007   8.415  11.371 -0.9283  0.0396  0.7677
  466MOL0     C62793  12.135   8.377  11.410  0.2753 -0.0299 -0.2026
  466MOL0     C62794  12.176   8.489  11.479 -0.3945  0.2142  0.4689
  466MOL0     C62795  12.315   8.486  11.536  0.6005 -0.1141  0.4752
  466MOL0     C62796  12.409   8.539  11.434 -0.5428 -1.1870 -0.0728
  466MOL0     C62797  12.544   8.573  11.499  0.7057 -0.2497  0.7842
  466MOL0     C62798  12.638   8.663  11.405  0.3541 -0.6404  0.5616
  466MOL0     O62799  12.765   8.659  11.468  0.3772  0.7047 -0.2489
  466MOL0     C62800  12.876   8.681  11.384  0.4642 -0.3984 -0.8774
  466MOL0     C62801  13.007   8.667  11.439 -0.9461  0.9277  0.8173
  466MOL0     C62802  13.116   8.674  11.359 -0.3768 -0.2264 -0.5392
  466MOL0     C62803  13.110   8.708  11.222 -0.7973  0.5961  0.3797
  466MOL0     C62804  13.223   8.729  11.140 -0.0843  0.0695 -0.5011
  466MOL0     O62805  13.219   8.702  10.998  0.7047  0.1857 -1.1318
  466MOL0     C62806  13.325   8.745  10.926 -0.2911 -0.2372  0.3857
  466MOL0     C62807  13.455   8.712  10.959 -0.8118 -0.6908 -0.1794
  466MOL0     C62808  13.566   8.743  10.876  0.6204 -0.4570  0.1593
  466MOL0     C62809  13.539   8.813  10.760 -0.0966 -0.2691  0.7431
  466MOL0     O62810  13.634   8.867  10.676 -0.1170  0.4588 -0.0047
  466MOL0     C62811  13.770   8.876  10.722 -0.7235 -0.0218 -0.1266
  466MOL0     C62812  13.862   8.950  10.616 -0.8024 -0.2310 -0.6860
  466MOL0     C62813  13.875   8.882  10.479 -0.5237  0.1911 -0.0842
  466MOL0     C62814  13.919   8.735  10.488  0.3534 -0.3740 -0.8734
  466MOL0     C62815  14.024   8.693  10.588 -0.0361 -0.1526  0.0176
  466MOL0     C62816  14.164   8.740  10.539  0.4342  0.7403  0.5101
  466MOL0     C62817  14.280   8.689  10.633 -0.0054  0.3322  0.5574
  466MOL0     C62818  14.420   8.721  10.578  0.6512  0.7053 -0.0970
  466MOL0    Cl62819  14.450   8.897  10.550  0.2951 -0.2875  0.0618
  466MOL0     C62820  13.407   8.844  10.722 -0.5159 -0.1883 -0.4447
  466MOL0     C62821  13.292   8.801  10.800 -0.2849  0.7538 -0.6327
  466MOL0     O62822  13.315   8.790  11.199  0.3332  0.2526 -0.6588
  466MOL0     C62823  12.979   8.722  11.169  0.2118 -0.5267  0.1903
  466MOL0     C62824  12.863   8.719  11.249  0.5841  0.0231  0.2245
  466MOL0     N62825  12.074   8.585  11.485 -0.2526 -0.5373 -0.1337
  466MOL0     N62826  11.975   8.540  11.414  0.3248  0.0568 -0.6436
  466MOL0     C62827  11.093   7.838  10.822 -0.8138  0.3551  0.2559
  466MOL0     C62828  10.977   7.753  10.832  0.9372 -0.4620 -0.7706
  466MOL0     C62829  10.716   7.380  10.851 -0.4581 -0.3655  0.3167
  466MOL0     C62830  10.665   7.373  10.722 -0.1904  0.5075  0.9660
  466MOL0     C62831  10.556   7.290  10.691 -0.1213 -0.2101  0.0454
  466MOL0     C62832  10.503   7.211  10.789 -0.6686 -0.1997  0.5757
  466MOL0     O62833  10.396   7.130  10.770 -0.8141 -0.7443  0.6011
  466MOL0     C62834  10.381   7.069  10.642 -0.2047  0.7309 -0.5827
  466MOL0     C62835  10.486   6.952  10.621 -0.7361  0.2324 -0.5653
  466MOL0     C62836  10.488   6.881  10.481  0.1694  0.4887 -0.7159
  466MOL0     C62837  10.580   6.757  10.503  0.1794  0.0820 -0.0916
  466MOL0     C62838  10.559   6.662  10.395  0.2469  0.2715 -0.7789
  466MOL0     C62839  10.526   6.577  10.313  0.0851 -0.0448  0.5709
  466MOL0     C62840  10.544   7.228  10.920 -0.0759 -0.1809  0.7095
  466MOL0     C62841  10.648   7.316  10.956 -0.4409 -0.5634  0.5412
  466MOL0     C62842  10.681   7.344  11.096 -1.0882  0.0337  0.2509
  466MOL0     H62843  11.062   7.490  10.644  1.1821 -0.4932  0.1717
  466MOL0     H62844  11.271   7.660  10.608 -1.0122 -0.5406 -1.4751
  466MOL0     H62845  11.320   8.034  10.867  1.5219  0.8385  1.1900
  466MOL0     H62846  11.362   7.873  10.934  1.7675 -0.0714 -0.1661
  466MOL0     H62847  11.560   8.021  10.763  0.7352  0.6233 -0.5468
  466MOL0     H62848  11.590   7.870  10.847  1.6647  1.8721  0.1830
  466MOL0     H62849  11.572   7.989  11.072  2.1073 -2.0012 -0.8165
  466MOL0     H62850  11.530   8.137  10.992  0.2902  0.1905  2.5843
  466MOL0     H62851  11.779   8.007  10.927  2.0407  1.1628 -1.5934
  466MOL0     H62852  11.715   8.180  10.892  0.3688  1.8149  2.2239
  466MOL0     H62853  11.715   8.213  11.139 -3.9285 -2.9312 -1.4882
  466MOL0     H62854  11.805   8.065  11.142  0.3762 -0.5226 -0.0867
  466MOL0     H62855  11.989   8.166  10.988 -0.3238 -0.1721 -0.0458
  466MOL0     H62856  11.895   8.319  10.984 -2.4514 -2.2358 -1.5630
  466MOL0     H62857  12.083   8.343  11.126  0.0612  0.9392  3.0822
  466MOL0     H62858  12.068   8.198  11.208  0.7524  1.5820  0.8876
  466MOL0     H62859  11.845   8.403  11.234  0.4692 -0.0832 -0.7406
  466MOL0     H62860  11.869   8.258  11.334  1.5285 -1.6518 -0.1735
  466MOL0     H62861  12.185   8.282  11.393 -0.6177 -0.6240  0.4192
  466MOL0     H62862  12.313   8.538  11.632 -2.8330 -0.2459  0.5923
  466MOL0     H62863  12.339   8.382  11.557  3.1575  0.4303  0.5820
  466MOL0     H62864  12.421   8.471  11.349  1.1082 -0.2410 -0.6510
  466MOL0     H62865  12.364   8.631  11.395 -1.7858 -1.5383  0.5202
  466MOL0     H62866  12.589   8.474  11.511 -1.5100 -1.6340 -1.4472
  466MOL0     H62867  12.509   8.609  11.596 -1.8129 -0.2357 -0.0699
  466MOL0     H62868  12.591   8.761  11.393  1.4590  0.1994  2.5464
  466MOL0     H62869  12.638   8.619  11.305  0.7522  1.6148 -0.4895
  466MOL0     H62870  13.014   8.657  11.547  0.2065  1.0972  0.7719
  466MOL0     H62871  13.214   8.673  11.406  1.8644 -0.5035 -4.6818
  466MOL0     H62872  13.486   8.667  11.053 -3.0451 -3.8145 -0.7792
  466MOL0     H62873  13.667   8.728  10.914 -0.7254 -1.4385  3.7881
  466MOL0     H62874  13.762   8.934  10.815 -2.2674 -0.9874  0.3800
  466MOL0     H62875  13.804   8.775  10.746 -1.7685  0.3085  3.2544
  466MOL0     H62876  13.834   9.054  10.602  0.9529  0.1866 -1.3184
  466MOL0     H62877  13.959   8.954  10.667 -2.2081 -0.2886  2.1772
  466MOL0     H62878  13.782   8.896  10.424 -0.7726  0.3569  0.3741
  466MOL0     H62879  13.952   8.918  10.410  2.1733 -3.3074  0.8241
  466MOL0     H62880  13.946   8.709  10.385 -0.0700  1.0049 -1.3691
  466MOL0     H62881  13.830   8.683  10.524  2.0243 -2.0793  0.9780
  466MOL0     H62882  14.019   8.584  10.586 -1.4635 -0.0815 -1.2933
  466MOL0     H62883  14.001   8.720  10.692 -0.9083  2.0984 -0.6940
  466MOL0     H62884  14.180   8.709  10.435 -2.2938 -2.2977  0.8212
  466MOL0     H62885  14.161   8.850  10.540  0.0537  0.8434 -2.2873
  466MOL0     H62886  14.282   8.580  10.637  4.5795  0.2458  0.8743
  466MOL0     H62887  14.278   8.723  10.737  0.6807 -0.9681  1.0134
  466MOL0     H62888  14.493   8.678  10.646  1.2443 -0.9800 -1.7226
  466MOL0     H62889  14.422   8.668  10.482 -3.1829  0.9241 -0.4898
  466MOL0     H62890  13.393   8.897  10.629 -1.5780  1.3032  0.5268
  466MOL0     H62891  13.193   8.821  10.761  0.1071  1.3880 -1.3423
  466MOL0     H62892  12.962   8.742  11.064 -0.6739 -0.7243  0.2830
  466MOL0     H62893  12.768   8.751  11.206 -0.5638 -1.2238  1.7020
  466MOL0     H62894  11.090   7.931  10.877  1.7519 -0.4109  1.8642
  466MOL0     H62895  10.895   7.781  10.898 -0.5046 -4.1072 -0.8013
  466MOL0     H62896  10.702   7.422  10.633 -0.5739 -0.1924  0.4126
  466MOL0     H62897  10.541   7.277  10.584 -2.0259  0.8370  0.1373
  466MOL0     H62898  10.396   7.135  10.556  0.4187  2.1456  0.5745
  466MOL0     H62899  10.281   7.024  10.642 -0.3514  1.0502  0.1852
  466MOL0     H62900  10.479   6.879  10.701 -1.7226 -0.7360 -1.4990
  466MOL0     H62901  10.584   6.995  10.643 -2.0024  1.6897  2.9333
  466MOL0     H62902  10.519   6.945  10.398  0.0857  3.2699  1.2776
  466MOL0     H62903  10.384   6.845  10.474 -0.6824  2.8765 -1.3250
  466MOL0     H62904  10.685   6.787  10.505  0.3286 -0.4579  0.7141
  466MOL0     H62905  10.568   6.713  10.602 -2.4210 -1.6006 -1.0611
  466MOL0     H62906  10.491   6.517  10.232 -1.7682  1.8693 -0.1326
  466MOL0     H62907  10.479   7.186  10.995  1.2083  0.4155  2.2200
  466MOL0     H62908  10.762   7.277  11.125 -0.1416  0.3029 -1.6231
  466MOL0     H62909  10.705   7.449  11.114 -1.0303  0.4570 -2.0215
  466MOL0     H62910  10.598   7.305  11.155  0.2781 -0.5166  1.8830
  467MOL0     O62911   4.279  10.696   2.463 -0.3289 -0.2718  0.2240
  467MOL0     C62912   4.263  10.623   2.560 -0.8153 -0.1254 -0.1535
  467MOL0     O62913   4.358  10.606   2.662 -0.5081  0.1427 -0.1753
  467MOL0     C62914   4.488  10.623   2.619  0.1189  0.3017  0.0649
  467MOL0     C62915   4.569  10.514   2.628 -0.5811  0.3390 -0.1720
  467MOL0     C62916   4.711  10.527   2.614  0.1459  0.3441 -0.0416
  467MOL0     C62917   4.770  10.657   2.620  0.3947 -0.6828  0.7595
  467MOL0     O62918   4.906  10.668   2.599 -1.0654 -0.9789 -0.4077
  467MOL0     C62919   4.974  10.616   2.714 -0.1757 -0.5639  0.1737
  467MOL0     C62920   5.122  10.616   2.678  0.5431  0.3696  0.9888
  467MOL0     C62921   5.170  10.478   2.628  0.0265  0.2543  0.8895
  467MOL0     C62922   5.315  10.493   2.576 -0.2683 -0.2468 -0.4490
  467MOL0     C62923   5.314  10.574   2.437  0.8702 -1.2371 -1.0077
  467MOL0     C62924   5.454  10.617   2.401  0.2995 -0.4211  0.0661
  467MOL0     C62925   5.449  10.713   2.281  0.0264  0.0742 -0.1853
  467MOL0     C62926   5.449  10.641   2.139 -0.6083  1.2427  0.5308
  467MOL0     N62927   5.579  10.579   2.103 -0.8185 -0.0567  0.2814
  467MOL0     C62928   5.686  10.652   2.057  0.9612 -0.3354 -0.5281
  467MOL0     C62929   5.767  10.560   2.012 -0.4789 -0.1310 -0.7292
  467MOL0     C62930   5.906  10.588   1.964 -0.2712 -0.0394 -0.5053
  467MOL0     C62931   6.014  10.628   2.063  0.3168  0.6551 -0.0422
  467MOL0     C62932   6.148  10.625   1.991 -0.1486  0.0965 -0.7418
  467MOL0     C62933   6.266  10.658   2.077  0.4751 -0.3894 -0.2300
  467MOL0     O62934   6.378  10.649   1.993  0.1917 -0.5384  0.2218
  467MOL0     C62935   6.496  10.684   2.041 -0.9929  0.0547 -0.1596
  467MOL0     C62936   6.583  10.746   1.942  0.0883 -0.0574  0.1952
  467MOL0     C62937   6.713  10.774   1.981  0.1423  0.0947  0.9334
  467MOL0     C62938   6.764  10.746   2.105 -0.2331  0.4590 -0.0139
  467MOL0     C62939   6.906  10.766   2.136 -0.7093 -1.1076  0.7766
  467MOL0     O62940   6.929  10.767   2.279  0.7675 -0.2877  0.5828
  467MOL0     C62941   7.059  10.742   2.323 -0.7241 -0.5400  0.3089
  467MOL0     C62942   7.094  10.628   2.401 -0.0001  0.0013  0.4901
  467MOL0     C62943   7.229  10.611   2.441  0.5579 -0.2690 -0.5772
  467MOL0     C62944   7.327  10.704   2.405 -0.2825 -0.0126  0.3293
  467MOL0     O62945   7.462  10.726   2.452  0.0378  0.0155 -0.4396
  467MOL0     C62946   7.526  10.598   2.473  0.2501 -0.7441 -1.4499
  467MOL0     C62947   7.679  10.620   2.475  0.0458  1.7423  0.7862
  467MOL0     C62948   7.753  10.490   2.510  0.2564 -0.4645 -0.1622
  467MOL0     C62949   7.904  10.513   2.492 -0.3324 -0.6604  0.4531
  467MOL0     C62950   7.985  10.386   2.503 -0.1365 -0.4450  0.2510
  467MOL0     C62951   8.136  10.421   2.464 -0.1302  0.1813 -0.4152
  467MOL0     C62952   8.225  10.293   2.453 -0.7092 -0.5164 -0.2320
  467MOL0     C62953   8.365  10.318   2.398  0.0391 -0.3723 -0.4480
  467MOL0    Cl62954   8.450  10.173   2.447 -0.0535  0.2091 -0.0321
  467MOL0     C62955   7.285  10.813   2.317 -0.5775 -0.4113 -0.4607
  467MOL0     C62956   7.153  10.835   2.290  1.3730  0.1070  0.4357
  467MOL0     O62957   6.991  10.755   2.046 -0.0767  0.2235  0.1444
  467MOL0     C62958   6.688  10.682   2.196  0.6840 -0.4692 -0.4414
  467MOL0     C62959   6.557  10.650   2.164 -0.6026  0.5637  0.1304
  467MOL0     N62960   5.712  10.430   2.032  1.2584 -0.9922  0.2084
  467MOL0     N62961   5.594  10.442   2.094  0.3194  0.3070  0.5927
  467MOL0     C62962   4.682  10.767   2.603  0.1569  0.6323  0.0100
  467MOL0     C62963   4.546  10.751   2.604  0.1921  0.2335  0.8804
  467MOL0     C62964   4.130  10.560   2.579  0.1953 -0.3110 -0.2341
  467MOL0     C62965   4.108  10.474   2.689 -0.3251  0.2845 -0.8747
  467MOL0     C62966   3.990  10.406   2.714 -0.4876  0.5769  0.5614
  467MOL0     C62967   3.880  10.434   2.632  0.4636  0.2279 -0.2589
  467MOL0     O62968   3.758  10.376   2.644 -0.2254 -1.0922  0.2786
  467MOL0     C62969   3.749  10.236   2.658 -1.1468  0.3913 -0.6116
  467MOL0     C62970   3.600  10.206   2.658  0.3891  1.2392  0.1582
  467MOL0     C62971   3.516  10.295   2.749  0.2058 -0.4643 -0.0118
  467MOL0     C62972   3.366  10.281   2.713 -0.4983  1.0241  0.1834
  467MOL0     C62973   3.274  10.289   2.824  0.1022  0.2942  0.1106
  467MOL0     C62974   3.194  10.307   2.921 -0.0882  0.0435  0.9333
  467MOL0     C62975   3.891  10.530   2.528 -0.5806  0.5348 -0.8064
  467MOL0     C62976   4.014  10.598   2.499  0.1422  0.8848  0.7396
  467MOL0     C62977   4.018  10.686   2.369  0.3706  0.3471  0.4613
  467MOL0     H62978   4.520  10.420   2.651 -2.5635  0.8380 -1.9972
  467MOL0     H62979   4.772  10.437   2.609 -1.2634 -0.5939 -0.7720
  467MOL0     H62980   4.973  10.693   2.792 -1.1570  2.8053 -2.8831
  467MOL0     H62981   4.934  10.524   2.758 -1.6600  1.0763  2.4218
  467MOL0     H62982   5.178  10.634   2.770  0.9804 -0.9440  1.0053
  467MOL0     H62983   5.151  10.690   2.603  4.0505 -0.4266  1.3776
  467MOL0     H62984   5.101  10.429   2.559 -1.0009 -0.8484  2.6100
  467MOL0     H62985   5.159  10.399   2.704  1.9173 -1.5742 -0.5955
  467MOL0     H62986   5.380  10.547   2.645 -0.9117  1.4381 -1.1022
  467MOL0     H62987   5.358  10.394   2.556 -1.6614 -1.3367  1.5963
  467MOL0     H62988   5.287  10.504   2.357 -0.3555 -0.6180 -1.1587
  467MOL0     H62989   5.245  10.659   2.442  1.0377 -1.1886  2.5540
  467MOL0     H62990   5.495  10.671   2.486  1.7886  0.2410 -1.0303
  467MOL0     H62991   5.508  10.525   2.376  0.6430  0.0486 -0.9914
  467MOL0     H62992   5.531  10.785   2.287 -0.1529  0.1503  2.7125
  467MOL0     H62993   5.357  10.771   2.294  1.5808  2.1126  2.7792
  467MOL0     H62994   5.378  10.558   2.143 -1.2817  1.6878 -1.2212
  467MOL0     H62995   5.418  10.700   2.052  0.0552 -0.0962 -0.6490
  467MOL0     H62996   5.690  10.761   2.058 -3.3690  0.0120 -0.7197
  467MOL0     H62997   5.942  10.493   1.923 -0.5694 -1.6273  2.6175
  467MOL0     H62998   5.887  10.667   1.891 -2.3014 -1.0678 -1.1606
  467MOL0     H62999   6.000  10.718   2.123  0.1445 -0.8103  2.2103
  467MOL0     H63000   6.009  10.553   2.142  0.9068  1.5549  0.8676
  467MOL0     H63001   6.142  10.687   1.902 -1.7141  0.2399 -0.5589
  467MOL0     H63002   6.165  10.525   1.949  3.1841  1.1140 -2.1980
  467MOL0     H63003   6.273  10.590   2.163 -0.7210  1.0177  1.0422
  467MOL0     H63004   6.260  10.763   2.104  3.6567  1.9983 -6.7372
  467MOL0     H63005   6.547  10.794   1.852 -0.1314  2.8731  1.7127
  467MOL0     H63006   6.770  10.840   1.916 -3.0633 -0.1695 -2.5396
  467MOL0     H63007   7.020  10.554   2.431  0.4902  0.6605  3.6919
  467MOL0     H63008   7.258  10.537   2.515  1.6639  2.2842  1.6967
  467MOL0     H63009   7.493  10.569   2.573 -0.8210  1.6811 -1.0127
  467MOL0     H63010   7.503  10.527   2.394 -1.8441  1.9119 -3.4480
  467MOL0     H63011   7.702  10.652   2.373  0.2043 -0.9796 -0.1043
  467MOL0     H63012   7.710  10.703   2.540  0.3710  3.6171 -1.6238
  467MOL0     H63013   7.733  10.465   2.615 -1.7617  1.8438  0.0725
  467MOL0     H63014   7.714  10.408   2.449 -1.0636 -0.5212  0.7206
  467MOL0     H63015   7.938  10.580   2.571 -0.7970 -2.1767  2.0066
  467MOL0     H63016   7.930  10.555   2.395  0.8716 -0.2537  0.9319
  467MOL0     H63017   7.952  10.319   2.423 -0.5221 -0.4902  0.4477
  467MOL0     H63018   7.978  10.339   2.601 -1.1755  0.2022  0.4959
  467MOL0     H63019   8.131  10.463   2.364  2.9019 -0.4482 -0.9461
  467MOL0     H63020   8.179  10.491   2.537 -1.5126 -0.8451  1.4591
  467MOL0     H63021   8.174  10.228   2.380 -1.6037 -0.4280  0.2938
  467MOL0     H63022   8.223  10.236   2.546  0.3302  0.2294  0.2619
  467MOL0     H63023   8.372  10.349   2.294  0.5187 -0.6941 -0.5159
  467MOL0     H63024   8.425  10.392   2.453  0.4688  0.2248 -1.6844
  467MOL0     H63025   7.359  10.889   2.291 -0.5792 -0.4581 -0.6017
  467MOL0     H63026   7.114  10.914   2.227 -1.3940  0.3143  2.2408
  467MOL0     H63027   6.710  10.655   2.299 -4.7178 -1.7691  0.6876
  467MOL0     H63028   6.487  10.618   2.241 -1.9012  2.3575 -0.2305
  467MOL0     H63029   4.731  10.861   2.579  1.1525 -0.3846 -2.1852
  467MOL0     H63030   4.475  10.833   2.591 -0.3312 -0.5066 -1.4372
  467MOL0     H63031   4.185  10.434   2.754 -1.4893 -0.0029  0.3754
  467MOL0     H63032   3.993  10.326   2.787  0.5337 -0.4792 -0.5903
  467MOL0     H63033   3.799  10.200   2.748  0.1753 -1.2745 -1.9337
  467MOL0     H63034   3.801  10.180   2.579  1.3716  0.1277  1.1149
  467MOL0     H63035   3.589  10.106   2.702  0.8437 -0.5128 -3.3968
  467MOL0     H63036   3.567  10.204   2.554  3.4289 -3.6021 -0.9980
  467MOL0     H63037   3.537  10.402   2.737 -0.9938  0.0751  2.2128
  467MOL0     H63038   3.538  10.252   2.847  0.7477 -2.7820 -1.0789
  467MOL0     H63039   3.351  10.351   2.631  2.4226 -0.7692 -2.0752
  467MOL0     H63040   3.350  10.178   2.681  1.8840 -0.4355  3.1667
  467MOL0     H63041   3.126  10.327   3.002  2.6444  1.0307  3.1654
  467MOL0     H63042   3.802  10.541   2.466 -1.4249  0.8396  0.4317
  467MOL0     H63043   3.921  10.686   2.318  1.0381  3.4135 -1.0700
  467MOL0     H63044   4.030  10.793   2.387  1.8559  0.3065 -0.1276
  467MOL0     H63045   4.094  10.658   2.295 -0.0529  1.2237 -0.3283
  468MOL0     O63046   3.643   2.313   4.163 -0.4293  0.5533 -0.4249
  468MOL0     C63047   3.641   2.207   4.227 -0.1857 -0.3053  0.1423
  468MOL0     O63048   3.746   2.135   4.254 -0.3172 -0.0659  0.3317
  468MOL0     C63049   3.871   2.154   4.189 -0.3026 -0.6159 -0.3253
  468MOL0     C63050   3.932   2.282   4.163  0.4389  0.0859 -0.3345
  468MOL0     C63051   4.067   2.296   4.117 -0.4202 -0.4020 -0.3657
  468MOL0     C63052   4.146   2.174   4.092 -0.0305 -0.7005 -0.7207
  468MOL0     O63053   4.277   2.168   4.054 -0.0732  0.0969  0.1523
  468MOL0     C63054   4.361   2.283   4.085 -0.0553 -0.6158  0.2551
  468MOL0     C63055   4.485   2.210   4.120 -0.6214 -0.9834 -0.1263
  468MOL0     C63056   4.578   2.339   4.145 -0.7712 -0.4894 -0.3893
  468MOL0     C63057   4.717   2.274   4.155  0.1091  0.3368  0.1299
  468MOL0     C63058   4.837   2.362   4.205 -0.1921  0.3440 -0.0760
  468MOL0     C63059   4.876   2.461   4.098  0.3731 -1.1046  0.3682
  468MOL0     C63060   5.005   2.547   4.137  0.4177 -1.2853  1.4955
  468MOL0     C63061   4.986   2.644   4.249  0.2426 -0.2352 -0.8868
  468MOL0     N63062   5.105   2.722   4.282 -0.3027 -0.2583  0.3747
  468MOL0     C63063   5.210   2.674   4.359 -1.1005 -0.1953  0.1046
  468MOL0     C63064   5.277   2.784   4.387  0.2168 -1.2421 -0.4217
  468MOL0     C63065   5.421   2.792   4.431 -0.2475 -0.8489  0.1039
  468MOL0     C63066   5.423   2.792   4.577 -0.0894  0.7455  0.6165
  468MOL0     C63067   5.546   2.854   4.652  0.0864 -0.8014  0.0099
  468MOL0     C63068   5.534   3.007   4.638  0.0544 -0.4941 -1.0016
  468MOL0     O63069   5.637   3.071   4.717 -0.3825 -0.0750 -0.5458
  468MOL0     C63070   5.765   3.064   4.673 -0.1461 -0.8733  0.4756
  468MOL0     C63071   5.797   3.030   4.543  0.4876 -0.2732 -0.1832
  468MOL0     C63072   5.922   3.046   4.484  0.1139  0.1521  0.2762
  468MOL0     C63073   6.032   3.090   4.556 -0.2327 -0.1600  0.1754
  468MOL0     C63074   6.164   3.101   4.479  0.4241  0.1303 -0.2526
  468MOL0     O63075   6.279   3.140   4.547 -1.1297  0.4128 -1.0265
  468MOL0     C63076   6.399   3.160   4.490 -1.1150  0.0927 -0.1094
  468MOL0     C63077   6.457   3.063   4.410 -1.0093  0.6679 -0.0540
  468MOL0     C63078   6.584   3.077   4.356 -0.1504 -0.8585  0.5360
  468MOL0     C63079   6.658   3.195   4.372 -0.9682  0.2765  0.4553
  468MOL0     O63080   6.771   3.199   4.297  0.0058 -0.5353  0.8228
  468MOL0     C63081   6.848   3.320   4.299  0.1216 -0.3815 -1.1594
  468MOL0     C63082   6.975   3.320   4.212  0.0493  0.3170  0.8579
  468MOL0     C63083   7.068   3.216   4.271  0.3212 -0.1147 -0.8544
  468MOL0     C63084   7.212   3.249   4.238 -0.4064  0.5146  0.0887
  468MOL0     C63085   7.309   3.134   4.273  0.8837  0.0658  0.4072
  468MOL0     C63086   7.442   3.181   4.311 -0.1183 -0.1558  0.5548
  468MOL0     C63087   7.557   3.128   4.228 -0.0758  0.0153 -0.7535
  468MOL0     C63088   7.615   3.240   4.139 -0.5990 -0.1243  0.3710
  468MOL0    Cl63089   7.775   3.186   4.079  0.2880 -0.0131  0.1800
  468MOL0     C63090   6.603   3.292   4.460 -0.9516  0.5348  0.0993
  468MOL0     C63091   6.476   3.277   4.521  0.1723  0.0821  0.4186
  468MOL0     O63092   6.161   3.085   4.357  0.3124  0.0218 -0.2367
  468MOL0     C63093   6.008   3.122   4.685  0.3273 -0.4557  0.0648
  468MOL0     C63094   5.876   3.111   4.745  0.1294 -0.3942 -0.1509
  468MOL0     N63095   5.213   2.902   4.341 -0.2218 -0.4649 -0.0470
  468MOL0     N63096   5.109   2.860   4.276 -0.2044  0.4005  0.0834
  468MOL0     C63097   4.081   2.051   4.119 -0.1221 -0.3281 -0.8900
  468MOL0     C63098   3.949   2.042   4.158 -0.0377 -0.5346 -0.2347
  468MOL0     C63099   3.507   2.162   4.269  0.2483 -0.5789  0.0351
  468MOL0     C63100   3.396   2.249   4.236 -0.4913 -0.1268 -0.5513
  468MOL0     C63101   3.261   2.220   4.272  0.1535  0.6795  0.6270
  468MOL0     C63102   3.238   2.097   4.340 -0.1041 -0.5621 -0.1369
  468MOL0     O63103   3.106   2.074   4.375  0.5537 -0.7806 -0.0056
  468MOL0     C63104   3.068   1.951   4.435  1.1219 -0.2350  0.4712
  468MOL0     C63105   2.915   1.935   4.408  1.4868 -0.0818 -0.2617
  468MOL0     C63106   2.857   1.813   4.484 -0.6192 -0.5970  0.0688
  468MOL0     C63107   2.706   1.794   4.486  1.5307 -0.0578 -0.1402
  468MOL0     C63108   2.646   1.842   4.357 -0.9686  0.4612 -0.2056
  468MOL0     C63109   2.618   1.855   4.240 -0.0632  0.2104 -0.1084
  468MOL0     C63110   3.350   2.013   4.372  0.1230 -0.4041 -0.2842
  468MOL0     C63111   3.480   2.037   4.332  0.0353 -0.3884 -0.6088
  468MOL0     C63112   3.576   1.924   4.361  0.5334  1.2040  0.4246
  468MOL0     H63113   3.883   2.378   4.173  0.3331 -0.0016  0.0081
  468MOL0     H63114   4.113   2.393   4.101 -0.7065  0.2329  2.1614
  468MOL0     H63115   4.369   2.346   3.996 -1.3877 -1.3863 -0.4516
  468MOL0     H63116   4.330   2.340   4.173 -1.4060 -1.2145  0.1971
  468MOL0     H63117   4.520   2.148   4.037  0.7158 -1.7883  0.9972
  468MOL0     H63118   4.476   2.152   4.212 -1.1726 -2.1220 -0.8815
  468MOL0     H63119   4.544   2.384   4.240  0.7732 -0.9757  0.4257
  468MOL0     H63120   4.574   2.416   4.068  0.6407 -0.7026 -0.6958
  468MOL0     H63121   4.719   2.187   4.222  1.3262  1.6991  1.9564
  468MOL0     H63122   4.736   2.245   4.051 -1.1568  3.4391 -1.0774
  468MOL0     H63123   4.805   2.416   4.295  0.6308  1.4560 -0.4289
  468MOL0     H63124   4.923   2.299   4.228 -0.5913 -0.3200 -0.3704
  468MOL0     H63125   4.898   2.403   4.007  0.7403  0.4900 -0.5918
  468MOL0     H63126   4.796   2.529   4.067  2.3928  0.6272 -1.3669
  468MOL0     H63127   5.029   2.604   4.047  2.5503 -0.3144  2.5969
  468MOL0     H63128   5.090   2.483   4.163 -0.3563 -1.9422  2.5213
  468MOL0     H63129   4.904   2.715   4.233 -0.8759 -0.9139  1.3791
  468MOL0     H63130   4.958   2.596   4.343  0.9632  1.2117  0.1105
  468MOL0     H63131   5.245   2.573   4.380 -0.7005 -0.0324  0.2318
  468MOL0     H63132   5.484   2.714   4.388 -1.3680 -0.7154 -1.9431
  468MOL0     H63133   5.461   2.880   4.380 -0.3164 -0.6217  0.4392
  468MOL0     H63134   5.326   2.816   4.622 -0.9245 -1.0385 -0.1422
  468MOL0     H63135   5.447   2.686   4.592  3.4017  1.1563 -1.0024
  468MOL0     H63136   5.638   2.820   4.602 -0.0048 -0.3763 -0.4511
  468MOL0     H63137   5.555   2.817   4.755 -2.3661 -0.5285  0.3843
  468MOL0     H63138   5.442   3.050   4.679  0.4214 -0.1593 -0.5154
  468MOL0     H63139   5.530   3.036   4.533 -1.6549  2.2118 -0.2854
  468MOL0     H63140   5.721   3.018   4.467  0.5961 -2.3901 -0.0248
  468MOL0     H63141   5.926   3.035   4.376  3.5138 -0.1639  0.3215
  468MOL0     H63142   6.415   2.964   4.398  1.8904 -0.7170  0.5832
  468MOL0     H63143   6.626   3.007   4.284  0.6953 -0.0990  0.2632
  468MOL0     H63144   6.778   3.399   4.271  2.3303  0.7382 -3.9820
  468MOL0     H63145   6.873   3.345   4.403 -2.6249  0.4268 -0.6068
  468MOL0     H63146   6.955   3.302   4.106  0.0896  1.4268  0.6553
  468MOL0     H63147   7.017   3.420   4.225  0.0857  0.6427 -1.3214
  468MOL0     H63148   7.055   3.209   4.379  3.1641 -2.6180 -0.5387
  468MOL0     H63149   7.040   3.117   4.233 -1.0755  0.5290 -1.5551
  468MOL0     H63150   7.240   3.346   4.281  3.4620  1.1366 -3.2244
  468MOL0     H63151   7.221   3.262   4.130  2.3787  1.6910  0.3631
  468MOL0     H63152   7.305   3.069   4.186  2.1585 -0.6697  0.8660
  468MOL0     H63153   7.272   3.079   4.361 -3.2139  3.5284  1.1626
  468MOL0     H63154   7.434   3.290   4.317  0.2558 -0.1522  1.0928
  468MOL0     H63155   7.462   3.152   4.415  0.2335  2.0042  1.1405
  468MOL0     H63156   7.533   3.047   4.159  0.1701 -0.4785 -0.2720
  468MOL0     H63157   7.635   3.086   4.292  1.6238 -1.3691 -3.5660
  468MOL0     H63158   7.550   3.258   4.053  3.0103  0.0550 -2.5724
  468MOL0     H63159   7.631   3.335   4.192 -1.0957 -0.7792  1.7397
  468MOL0     H63160   6.652   3.388   4.473 -2.8517  1.5305  0.2551
  468MOL0     H63161   6.455   3.348   4.600  0.5290  3.0390 -1.9672
  468MOL0     H63162   6.085   3.148   4.758 -1.1613  1.0300  1.2055
  468MOL0     H63163   5.849   3.145   4.845  0.3475  1.0636 -0.5624
  468MOL0     H63164   4.124   1.953   4.101 -0.3742 -0.4360 -0.9176
  468MOL0     H63165   3.895   1.951   4.184 -2.6188  0.7197 -0.9176
  468MOL0     H63166   3.412   2.341   4.181 -0.8615  0.4495  0.2772
  468MOL0     H63167   3.175   2.284   4.257  0.3759  0.6232 -1.0968
  468MOL0     H63168   3.081   1.942   4.543 -0.6551 -1.7030  0.6157
  468MOL0     H63169   3.126   1.872   4.386 -1.0107 -1.2108 -0.6607
  468MOL0     H63170   2.891   1.913   4.303 -0.1395  0.9806 -0.1482
  468MOL0     H63171   2.874   2.030   4.444  1.1554  0.0708 -1.0127
  468MOL0     H63172   2.890   1.813   4.588 -0.3184 -6.4396  0.3188
  468MOL0     H63173   2.905   1.728   4.433 -0.2146 -1.3799  1.6931
  468MOL0     H63174   2.684   1.687   4.483 -0.4468  0.2975 -2.8719
  468MOL0     H63175   2.655   1.835   4.573  0.0926 -0.8471 -0.5785
  468MOL0     H63176   2.580   1.860   4.140  0.0823  3.9618 -0.0928
  468MOL0     H63177   3.338   1.923   4.430  2.4199 -0.7982 -0.3423
  468MOL0     H63178   3.671   1.920   4.308 -0.1787 -0.6821 -0.8176
  468MOL0     H63179   3.597   1.923   4.468 -2.3465  3.0816  1.1435
  468MOL0     H63180   3.532   1.826   4.338  0.3886  0.9282  1.7860
  469MOL0     O63181   3.997   4.628   4.210 -0.1082  0.3208  0.1392
  469MOL0     C63182   4.034   4.551   4.119 -0.3430 -0.0471  0.1997
  469MOL0     O63183   4.161   4.551   4.056 -0.5151  0.0923 -0.5427
  469MOL0     C63184   4.251   4.643   4.097 -0.2805 -0.1124 -0.7690
  469MOL0     C63185   4.301   4.639   4.227 -0.2997  0.2454  0.4176
  469MOL0     C63186   4.389   4.738   4.270 -0.5521 -0.4346  0.0858
  469MOL0     C63187   4.431   4.841   4.194  0.4669 -0.1064 -0.6562
  469MOL0     O63188   4.506   4.929   4.260 -0.3483 -0.4883 -0.4602
  469MOL0     C63189   4.601   5.003   4.182 -0.4723 -0.0791  0.2012
  469MOL0     C63190   4.704   5.083   4.256  0.6920 -0.0802 -0.3108
  469MOL0     C63191   4.642   5.223   4.289 -0.3397 -0.1195 -1.3161
  469MOL0     C63192   4.739   5.309   4.376 -0.3597 -0.4739  0.3284
  469MOL0     C63193   4.713   5.456   4.376 -0.0992  0.1658 -0.2412
  469MOL0     C63194   4.571   5.486   4.410  0.0539 -0.0313 -0.0090
  469MOL0     C63195   4.558   5.636   4.450  0.7493  0.8209  0.0064
  469MOL0     C63196   4.531   5.726   4.334  0.3028 -0.3476 -0.1222
  469MOL0     N63197   4.578   5.861   4.370  0.3504  0.8488 -0.7350
  469MOL0     C63198   4.497   5.980   4.400 -0.8504 -0.0103 -0.4684
  469MOL0     C63199   4.583   6.077   4.397  0.5618  0.0033  1.3588
  469MOL0     C63200   4.554   6.213   4.436 -0.4018 -0.3114 -0.0346
  469MOL0     C63201   4.607   6.242   4.577 -0.1029  0.1342  0.2883
  469MOL0     C63202   4.602   6.388   4.617 -0.7061  0.3333  1.0471
  469MOL0     C63203   4.728   6.465   4.574 -0.2726 -0.2890  0.8467
  469MOL0     O63204   4.769   6.559   4.674 -0.8518  0.1421 -0.2632
  469MOL0     C63205   4.885   6.635   4.667 -0.2210  0.8315  0.1999
  469MOL0     C63206   4.919   6.730   4.765 -0.7399  0.1763  0.5754
  469MOL0     C63207   5.036   6.802   4.759 -0.0309 -0.3796 -0.6053
  469MOL0     C63208   5.128   6.802   4.655  0.1896  0.3129 -0.0389
  469MOL0     C63209   5.254   6.896   4.655 -0.5260  0.9972  0.0401
  469MOL0     O63210   5.346   6.881   4.554 -0.9478  0.5871 -0.2755
  469MOL0     C63211   5.440   6.982   4.527 -0.5058  0.2359 -0.2325
  469MOL0     C63212   5.523   7.025   4.629  0.6254 -1.1860 -0.8687
  469MOL0     C63213   5.625   7.118   4.601 -0.0629  0.1189  0.0665
  469MOL0     C63214   5.645   7.156   4.467 -0.4312 -0.1037 -0.7219
  469MOL0     O63215   5.739   7.248   4.437  0.0051  0.1475 -0.5148
  469MOL0     C63216   5.726   7.380   4.501  0.6369  0.0375  0.4491
  469MOL0     C63217   5.765   7.490   4.402 -0.6534 -0.2009  0.1080
  469MOL0     C63218   5.923   7.489   4.384 -0.3152 -0.1162 -0.1312
  469MOL0     C63219   6.001   7.548   4.498  0.4999  0.0302  0.0472
  469MOL0     C63220   6.144   7.560   4.466 -0.0043  0.5494  0.2701
  469MOL0     C63221   6.208   7.635   4.579 -0.6206 -1.0182 -0.3332
  469MOL0     C63222   6.356   7.616   4.565 -0.0497 -0.7126  0.0426
  469MOL0     C63223   6.424   7.670   4.689 -0.0399 -0.3030  0.1456
  469MOL0    Cl63224   6.404   7.537   4.812 -0.2829 -0.2912  0.1225
  469MOL0     C63225   5.560   7.111   4.364 -0.4365 -0.0837  0.2189
  469MOL0     C63226   5.464   7.016   4.395 -0.1270 -0.3770  0.5258
  469MOL0     O63227   5.238   6.991   4.730 -0.1850  0.5909 -0.3133
  469MOL0     C63228   5.082   6.721   4.546 -0.3495 -0.5240 -0.2150
  469MOL0     C63229   4.964   6.651   4.552 -0.2967  0.2810 -0.1569
  469MOL0     N63230   4.709   6.031   4.364 -0.0995 -0.1919 -0.0276
  469MOL0     N63231   4.710   5.902   4.360  0.2356  1.0206  0.1725
  469MOL0     C63232   4.383   4.843   4.054  0.1361  0.0562 -0.2424
  469MOL0     C63233   4.291   4.748   4.008 -0.2877 -0.3104 -0.2410
  469MOL0     C63234   3.942   4.450   4.066  0.2256 -0.7084 -0.1642
  469MOL0     C63235   3.977   4.397   3.944  0.1263 -0.6245  0.1870
  469MOL0     C63236   3.896   4.296   3.880 -0.7405  1.3881  0.1267
  469MOL0     C63237   3.788   4.242   3.950 -0.9870 -0.1295 -0.2250
  469MOL0     O63238   3.718   4.140   3.884  0.7995 -0.9814 -0.0917
  469MOL0     C63239   3.584   4.107   3.934 -0.1190  0.0796 -0.0676
  469MOL0     C63240   3.476   4.209   3.888 -0.3930  0.1131  0.4342
  469MOL0     C63241   3.333   4.164   3.911 -0.1100  0.0601  0.0478
  469MOL0     C63242   3.254   4.238   4.026 -0.4856 -0.4021 -0.0617
  469MOL0     C63243   3.331   4.231   4.155 -0.1299  1.1880 -0.4140
  469MOL0     C63244   3.417   4.224   4.250  0.8081 -0.3364 -0.6141
  469MOL0     C63245   3.748   4.299   4.070 -0.7694 -0.6009  0.0933
  469MOL0     C63246   3.828   4.404   4.132  0.7344 -0.4131  0.0545
  469MOL0     C63247   3.778   4.459   4.254  0.5704 -0.0197  1.2702
  469MOL0     H63248   4.282   4.554   4.292  1.0881 -0.4570 -0.0650
  469MOL0     H63249   4.426   4.731   4.372 -2.1983 -2.5502  0.6266
  469MOL0     H63250   4.656   4.929   4.124  1.8898  2.2817 -0.7986
  469MOL0     H63251   4.554   5.070   4.110 -1.0621 -0.4068  0.2831
  469MOL0     H63252   4.794   5.111   4.200  0.8101 -0.4894 -0.3283
  469MOL0     H63253   4.737   5.028   4.344 -2.4930  0.4116  1.3334
  469MOL0     H63254   4.561   5.192   4.357  0.6084  0.6476  0.2068
  469MOL0     H63255   4.606   5.272   4.198  0.9044  0.8629 -1.3039
  469MOL0     H63256   4.744   5.268   4.478 -1.0510 -2.1400 -0.2785
  469MOL0     H63257   4.842   5.297   4.339  0.4912  0.3419  2.2621
  469MOL0     H63258   4.784   5.501   4.447 -0.4575 -3.6480  2.8383
  469MOL0     H63259   4.738   5.483   4.273  0.6339  1.0493  0.1523
  469MOL0     H63260   4.496   5.447   4.340 -0.0554  0.2350 -0.0393
  469MOL0     H63261   4.545   5.422   4.495 -5.3943  0.3285 -1.0547
  469MOL0     H63262   4.651   5.657   4.502  1.0887  0.0952 -0.2881
  469MOL0     H63263   4.473   5.643   4.519 -1.4544 -1.4580 -2.2145
  469MOL0     H63264   4.580   5.698   4.240  0.7660  2.3252 -0.7612
  469MOL0     H63265   4.422   5.725   4.326  0.2710 -0.2462  0.3060
  469MOL0     H63266   4.395   5.988   4.436 -0.4007 -4.2206  2.4780
  469MOL0     H63267   4.606   6.273   4.360  2.2799 -2.8240 -0.3648
  469MOL0     H63268   4.448   6.237   4.428 -0.6382 -0.0555  2.9498
  469MOL0     H63269   4.550   6.176   4.643  3.2629 -3.0586  0.3299
  469MOL0     H63270   4.709   6.202   4.583 -0.5258 -0.9445  0.6716
  469MOL0     H63271   4.597   6.395   4.726  1.7330  0.5958  1.1934
  469MOL0     H63272   4.515   6.421   4.559 -1.4613 -3.9117 -0.6097
  469MOL0     H63273   4.696   6.514   4.482 -0.0132 -1.1319  0.2924
  469MOL0     H63274   4.811   6.398   4.549 -0.0824  0.8598 -1.9823
  469MOL0     H63275   4.863   6.745   4.857 -1.2804 -0.2303  0.3196
  469MOL0     H63276   5.072   6.867   4.838 -1.5374  1.6294 -1.4747
  469MOL0     H63277   5.508   7.013   4.736  4.3668  1.5334  0.1803
  469MOL0     H63278   5.679   7.172   4.678 -2.1145  0.6074  1.2493
  469MOL0     H63279   5.624   7.385   4.541  1.5905  0.1095  3.0953
  469MOL0     H63280   5.795   7.382   4.586  1.0096  1.9489  0.1487
  469MOL0     H63281   5.709   7.479   4.308 -2.7467  2.4416  0.8958
  469MOL0     H63282   5.733   7.589   4.437 -4.1808 -0.5995 -1.4895
  469MOL0     H63283   5.951   7.383   4.375  0.6976  0.1213  0.1457
  469MOL0     H63284   5.953   7.542   4.293  0.0154  1.0913  0.6624
  469MOL0     H63285   5.990   7.498   4.595  0.7418  0.4678  0.3028
  469MOL0     H63286   5.964   7.648   4.525 -0.5028 -0.9345  2.5621
  469MOL0     H63287   6.164   7.607   4.369 -2.5643 -2.2107 -1.7627
  469MOL0     H63288   6.179   7.457   4.471 -2.2938 -0.3206 -0.5093
  469MOL0     H63289   6.181   7.741   4.577 -1.8817 -1.3076  0.1671
  469MOL0     H63290   6.173   7.597   4.676 -1.5807 -0.7752 -0.5704
  469MOL0     H63291   6.382   7.685   4.485  0.6286  2.8568  3.0674
  469MOL0     H63292   6.387   7.512   4.550  2.6160 -0.1549  1.0527
  469MOL0     H63293   6.527   7.700   4.666 -0.8566  2.1157 -0.6478
  469MOL0     H63294   6.373   7.757   4.730 -0.2032  1.0353 -2.6645
  469MOL0     H63295   5.564   7.152   4.263  0.7933 -0.8585 -0.0760
  469MOL0     H63296   5.402   6.962   4.324  1.1542  1.6955 -2.3873
  469MOL0     H63297   5.137   6.719   4.452 -2.7814 -0.4945 -1.7093
  469MOL0     H63298   4.938   6.598   4.460  2.0957  2.0732 -2.0247
  469MOL0     H63299   4.405   4.926   3.987 -1.6334  0.5754 -0.2243
  469MOL0     H63300   4.262   4.754   3.904 -0.0502 -3.5090 -0.6111
  469MOL0     H63301   4.066   4.415   3.883 -0.6507  0.0250 -0.7826
  469MOL0     H63302   3.919   4.255   3.782  0.7339 -0.6411  1.2300
  469MOL0     H63303   3.584   4.093   4.043  4.2270  1.0953  0.2228
  469MOL0     H63304   3.572   4.009   3.888  1.6179  0.6539 -1.8799
  469MOL0     H63305   3.492   4.223   3.781  0.6792  3.5116  0.8956
  469MOL0     H63306   3.495   4.306   3.937  3.7508  1.6742 -3.5297
  469MOL0     H63307   3.336   4.055   3.923 -0.6877  0.0852  0.4272
  469MOL0     H63308   3.279   4.176   3.816  1.0850  1.6807 -0.4841
  469MOL0     H63309   3.249   4.344   4.002  3.5323 -0.2480 -0.8597
  469MOL0     H63310   3.149   4.210   4.041 -0.8555  1.1405  0.3610
  469MOL0     H63311   3.491   4.208   4.326  0.3642  2.5753  0.5591
  469MOL0     H63312   3.654   4.272   4.118  0.1974  0.5908  2.9157
  469MOL0     H63313   3.785   4.568   4.248  0.7318 -0.1129 -1.5175
  469MOL0     H63314   3.670   4.441   4.257  0.2336  0.6992 -2.0758
  469MOL0     H63315   3.828   4.413   4.339  3.5039 -1.8673 -1.2475
  470MOL0     O63316   5.033  10.486   4.620 -0.4981  0.4565  0.2762
  470MOL0     C63317   5.065  10.545   4.515 -0.6616  0.0620  0.1649
  470MOL0     O63318   4.983  10.626   4.447 -0.2723  0.2736 -0.6245
  470MOL0     C63319   4.877  10.659   4.516  0.5073 -0.4359 -0.0362
  470MOL0     C63320   4.755  10.599   4.494 -0.6635 -0.3522  0.8794
  470MOL0     C63321   4.641  10.637   4.550  0.6779  0.1085 -0.1067
  470MOL0     C63322   4.636  10.747   4.636 -0.0006 -0.5887  0.5724
  470MOL0     O63323   4.524  10.790   4.703  0.1289  0.4321 -0.2879
  470MOL0     C63324   4.426  10.688   4.749 -0.3931  0.6393  0.5474
  470MOL0     C63325   4.334  10.752   4.849 -0.8419 -0.2057  1.1327
  470MOL0     C63326   4.239  10.659   4.910  0.1812 -0.0577 -0.4058
  470MOL0     C63327   4.138  10.726   5.004 -0.3833 -0.0401 -0.0218
  470MOL0     C63328   4.031  10.619   5.043  0.1646 -0.4076 -0.6515
  470MOL0     C63329   3.901  10.676   5.097  0.4703  0.3040 -0.0757
  470MOL0     C63330   3.829  10.560   5.159  0.4585  0.1201  0.5795
  470MOL0     C63331   3.682  10.601   5.175 -0.4432  1.0287 -0.2608
  470MOL0     N63332   3.608  10.503   5.255 -0.1978 -0.2038  0.0539
  470MOL0     C63333   3.628  10.459   5.379  0.9141 -0.5781 -0.1228
  470MOL0     C63334   3.539  10.360   5.408 -0.6152  0.7180 -0.3459
  470MOL0     C63335   3.566  10.254   5.509  0.9066 -0.4641 -0.5978
  470MOL0     C63336   3.649  10.136   5.463  0.8567 -0.4608  0.6214
  470MOL0     C63337   3.802  10.163   5.448  0.0862 -0.9949  0.5864
  470MOL0     C63338   3.876  10.219   5.577  0.1168 -0.0393  1.0664
  470MOL0     O63339   3.882  10.352   5.608 -0.8119  0.6660  0.4517
  470MOL0     C63340   3.949  10.452   5.547 -0.5799  0.4035  0.2054
  470MOL0     C63341   4.052  10.424   5.446  0.5686  0.5134  0.3606
  470MOL0     C63342   4.117  10.535   5.396 -0.3341  0.4420  0.2399
  470MOL0     C63343   4.093  10.671   5.428  0.2513  0.5979 -1.2738
  470MOL0     C63344   4.199  10.761   5.406  0.0845 -0.1661  0.3984
  470MOL0     O63345   4.331  10.706   5.386 -0.1029 -0.0852  0.1333
  470MOL0     C63346   4.426  10.788   5.345 -0.0895 -0.5255  0.0474
  470MOL0     C63347   4.467  10.911   5.408  0.6131 -0.2748 -0.0298
  470MOL0     C63348   4.571  10.984   5.358 -0.1648 -0.1012 -0.0183
  470MOL0     C63349   4.647  10.933   5.252  0.1080 -0.1421  0.5995
  470MOL0     O63350   4.755  11.015   5.218 -0.0696  0.7040  0.4226
  470MOL0     C63351   4.820  10.983   5.094 -0.0062  0.0165  0.3093
  470MOL0     C63352   4.944  11.063   5.080  0.0930 -0.0413 -0.3647
  470MOL0     C63353   5.042  11.045   5.193 -0.4205 -0.5986  0.7585
  470MOL0     C63354   5.180  11.089   5.147  0.1050  0.2069  0.1983
  470MOL0     C63355   5.292  11.033   5.235 -0.1039  1.2271 -0.2402
  470MOL0     C63356   5.311  11.105   5.374  0.8751  0.8304  0.3974
  470MOL0     C63357   5.440  11.067   5.448 -0.2565  1.1775 -0.6487
  470MOL0     C63358   5.462  10.916   5.460  0.1807 -0.4057  1.1019
  470MOL0    Cl63359   5.327  10.857   5.550  0.2092  0.1237 -0.0153
  470MOL0     C63360   4.607  10.815   5.182 -0.2927  0.2496  0.5009
  470MOL0     C63361   4.490  10.748   5.220 -0.2550 -0.3921 -0.0885
  470MOL0     O63362   4.180  10.886   5.423  0.4961 -0.2770  0.9817
  470MOL0     C63363   3.992  10.692   5.522  0.4946 -0.0322  0.5182
  470MOL0     C63364   3.927  10.583   5.583  0.2601 -0.6667 -0.3535
  470MOL0     N63365   3.450  10.348   5.304 -0.0061 -0.0418  0.1130
  470MOL0     N63366   3.492  10.434   5.206 -0.2491 -0.5626  0.3449
  470MOL0     C63367   4.750  10.824   4.643 -0.3608 -0.4697  0.0030
  470MOL0     C63368   4.871  10.771   4.598 -0.1842  0.5421  0.1734
  470MOL0     C63369   5.203  10.515   4.472  0.3259  0.1869  0.2246
  470MOL0     C63370   5.242  10.383   4.468  0.5549  0.2835  0.2022
  470MOL0     C63371   5.367  10.346   4.422  0.0879 -0.7854 -0.4759
  470MOL0     C63372   5.459  10.446   4.386 -0.3555 -0.1719 -0.5111
  470MOL0     O63373   5.584  10.423   4.343  0.3764  0.2349 -0.2161
  470MOL0     C63374   5.636  10.288   4.323  0.9575 -0.4374  0.2799
  470MOL0     C63375   5.785  10.294   4.279 -0.3297  0.0922  0.0376
  470MOL0     C63376   5.865  10.384   4.375 -0.0102 -0.0053 -0.5432
  470MOL0     C63377   6.016  10.387   4.343  0.7043  0.6145 -0.1395
  470MOL0     C63378   6.083  10.267   4.383 -0.3815  0.0445  0.4089
  470MOL0     C63379   6.145  10.179   4.432 -0.8896 -0.1361 -0.2047
  470MOL0     C63380   5.417  10.578   4.395 -0.2563 -0.0581  0.4552
  470MOL0     C63381   5.295  10.614   4.439 -0.5161  0.5652  0.0859
  470MOL0     C63382   5.255  10.753   4.441 -0.0472 -0.3066 -0.1147
  470MOL0     H63383   4.754  10.515   4.425 -2.2639 -0.3928  0.9174
  470MOL0     H63384   4.548  10.587   4.525 -1.7877  3.5540  1.3235
  470MOL0     H63385   4.367  10.662   4.660  2.5887 -0.0556 -1.3693
  470MOL0     H63386   4.478  10.599   4.786 -0.3843  1.2145  1.9626
  470MOL0     H63387   4.280  10.832   4.799 -0.4142  1.2403  2.8924
  470MOL0     H63388   4.397  10.798   4.925  1.1735  1.5399 -1.4322
  470MOL0     H63389   4.294  10.577   4.957 -2.4865 -2.1619 -0.6759
  470MOL0     H63390   4.180  10.604   4.835 -1.0456 -1.3181  1.3914
  470MOL0     H63391   4.199  10.774   5.081 -0.2533 -0.2883  0.0318
  470MOL0     H63392   4.094  10.809   4.948  0.2491  1.7053  1.9589
  470MOL0     H63393   4.010  10.557   4.956 -0.6847 -0.7766 -0.2042
  470MOL0     H63394   4.068  10.556   5.125  1.1660 -1.1586 -1.6566
  470MOL0     H63395   3.904  10.765   5.162 -0.0049  0.7625 -0.6661
  470MOL0     H63396   3.841  10.715   5.015 -1.1343  0.0190  0.9125
  470MOL0     H63397   3.876  10.543   5.256  0.6003  0.8285  0.6428
  470MOL0     H63398   3.830  10.475   5.090 -0.9488  1.8285 -1.6775
  470MOL0     H63399   3.670  10.701   5.216  3.3554  0.7871  1.8783
  470MOL0     H63400   3.634  10.606   5.077 -0.5047  4.4373 -0.1562
  470MOL0     H63401   3.707  10.492   5.446 -1.0193  1.6220  1.2705
  470MOL0     H63402   3.615  10.303   5.593  0.7441 -1.4330  0.0724
  470MOL0     H63403   3.470  10.215   5.542  0.0363  0.9851 -1.2728
  470MOL0     H63404   3.649  10.059   5.541  3.7729  2.4858  3.8939
  470MOL0     H63405   3.607  10.095   5.371  2.9013  1.3936 -1.2832
  470MOL0     H63406   3.837  10.234   5.372  2.5145 -0.7490  1.8110
  470MOL0     H63407   3.851  10.065   5.448  0.2668 -1.0673  4.3059
  470MOL0     H63408   3.977  10.177   5.584 -1.1637 -3.6002  0.1994
  470MOL0     H63409   3.828  10.161   5.656 -4.3993 -0.2008 -1.4430
  470MOL0     H63410   4.070  10.327   5.403 -0.0164  0.8111 -0.5720
  470MOL0     H63411   4.189  10.502   5.322 -1.8077 -1.9721 -0.2667
  470MOL0     H63412   4.407  10.938   5.494  1.0464 -1.4983  0.6737
  470MOL0     H63413   4.593  11.085   5.389 -3.5694  3.0731 -5.9259
  470MOL0     H63414   4.851  10.878   5.103 -0.1556 -0.0624 -0.0672
  470MOL0     H63415   4.760  10.986   5.002 -0.2837  0.3700  0.5010
  470MOL0     H63416   4.992  11.042   4.984 -1.1558  0.3125 -1.0886
  470MOL0     H63417   4.902  11.164   5.085 -2.0093 -0.8600 -0.1879
  470MOL0     H63418   5.005  11.094   5.283  0.0593 -0.2982  0.7954
  470MOL0     H63419   5.051  10.938   5.216 -0.6496 -0.8985 -0.4726
  470MOL0     H63420   5.184  11.197   5.135  1.6611  0.0707 -0.7358
  470MOL0     H63421   5.195  11.047   5.047  1.2110 -4.0007  1.9127
  470MOL0     H63422   5.386  11.046   5.179  1.8943  1.5233  2.9357
  470MOL0     H63423   5.272  10.928   5.257 -0.0139  1.1309 -0.6082
  470MOL0     H63424   5.314  11.210   5.345 -4.6814  0.7451 -1.7563
  470MOL0     H63425   5.217  11.087   5.427  0.9211  2.2896  1.0080
  470MOL0     H63426   5.440  11.105   5.551 -0.9200  0.7503 -0.4868
  470MOL0     H63427   5.528  11.118   5.407 -0.3283  2.3533  0.5789
  470MOL0     H63428   5.462  10.880   5.356 -3.0600  0.5898  0.6329
  470MOL0     H63429   5.556  10.894   5.511  1.0650 -1.1393 -0.7502
  470MOL0     H63430   4.664  10.773   5.100  1.1605 -0.1571  1.6777
  470MOL0     H63431   4.447  10.663   5.168 -0.8960 -0.5640  0.7154
  470MOL0     H63432   3.971  10.794   5.552  1.7825  0.6076 -0.6725
  470MOL0     H63433   3.854  10.608   5.660 -0.3982 -1.8860 -0.5483
  470MOL0     H63434   4.755  10.917   4.699 -1.9398  0.5977 -1.5431
  470MOL0     H63435   4.962  10.829   4.611 -0.7276  1.9261 -1.7254
  470MOL0     H63436   5.165  10.309   4.489 -0.2564  0.4756 -1.8430
  470MOL0     H63437   5.401  10.242   4.425  2.2464 -0.1211  1.7893
  470MOL0     H63438   5.574  10.241   4.245 -0.2893  0.9539  0.3961
  470MOL0     H63439   5.623  10.230   4.415  0.9100  0.2729  0.7262
  470MOL0     H63440   5.790  10.337   4.179  1.2370  1.0004  0.4785
  470MOL0     H63441   5.825  10.192   4.280 -0.7995 -0.1358  2.2019
  470MOL0     H63442   5.842  10.359   4.479  1.9037 -3.0809 -0.7438
  470MOL0     H63443   5.829  10.488   4.375 -2.8558 -0.8872 -1.9847
  470MOL0     H63444   6.026  10.402   4.235 -0.0471  2.7210  0.0398
  470MOL0     H63445   6.055  10.477   4.392  2.7879  0.0938 -0.7487
  470MOL0     H63446   6.208  10.097   4.460  0.0344  0.4938 -0.3930
  470MOL0     H63447   5.478  10.663   4.366  0.5635 -0.7364  0.1525
  470MOL0     H63448   5.224  10.786   4.540 -2.2220 -1.4829 -0.3384
  470MOL0     H63449   5.339  10.822   4.425 -1.7858  2.1932  1.0299
  470MOL0     H63450   5.171  10.770   4.373 -1.7502  0.4192  2.0773
  471MOL0     O63451   1.544   7.266   0.078 -0.1919  0.2825  0.1885
  471MOL0     C63452   1.507   7.331  -0.022 -0.2148 -0.7324  0.2234
  471MOL0     O63453   1.578   7.341  -0.144  0.8726  0.4799 -0.2555
  471MOL0     C63454   1.699   7.283  -0.149  0.4583 -0.5976 -0.7931
  471MOL0     C63455   1.802   7.372  -0.142 -0.2357  0.1555  0.3123
  471MOL0     C63456   1.932   7.323  -0.163 -0.0936  0.5809 -0.3905
  471MOL0     C63457   1.959   7.188  -0.183  0.3541  0.1727  0.3143
  471MOL0     O63458   2.082   7.127  -0.192 -0.3560 -0.5443  0.4935
  471MOL0     C63459   2.191   7.196  -0.138 -0.6680 -1.0380 -0.7621
  471MOL0     C63460   2.314   7.109  -0.156 -0.7221  0.1181 -0.3353
  471MOL0     C63461   2.445   7.172  -0.113 -0.1319 -0.1590  0.0560
  471MOL0     C63462   2.558   7.074  -0.156  0.1381  0.3024  0.6425
  471MOL0     C63463   2.684   7.129  -0.102 -0.0782  0.3466  0.0652
  471MOL0     C63464   2.805   7.044  -0.136 -0.2231 -0.6318 -0.6618
  471MOL0     C63465   2.934   7.084  -0.057  0.1354 -0.0258 -0.7859
  471MOL0     C63466   3.031   6.972  -0.061  0.4916 -0.0822 -0.4113
  471MOL0     N63467   3.167   7.017  -0.029 -0.0511 -0.7600 -0.3933
  471MOL0     C63468   3.214   7.148  -0.010  0.2859  1.0123 -0.4750
  471MOL0     C63469   3.345   7.135  -0.003 -0.2139  0.6776  0.1142
  471MOL0     C63470   3.440   7.248   0.019  0.2462 -0.3322  0.2193
  471MOL0     C63471   3.572   7.237  -0.055  0.6411  0.7402  0.4376
  471MOL0     C63472   3.668   7.354  -0.023  0.5144  0.4557  0.4731
  471MOL0     C63473   3.803   7.322   0.038  0.4336 -1.2908  0.8273
  471MOL0     O63474   3.872   7.442   0.089  0.1756  0.4216  0.0306
  471MOL0     C63475   3.986   7.491   0.031  0.9281 -0.3321  0.2247
  471MOL0     C63476   4.004   7.498  -0.102 -0.3483  0.8124  0.2969
  471MOL0     C63477   4.125   7.544  -0.165 -0.6284  0.0046 -0.2037
  471MOL0     C63478   4.226   7.593  -0.081 -0.5992 -0.0861 -0.0702
  471MOL0     C63479   4.358   7.637  -0.146  0.3598  0.1762  0.2354
  471MOL0     O63480   4.381   7.598  -0.269  0.1624  0.5931 -0.0814
  471MOL0     C63481   4.508   7.628  -0.315  0.2243  0.1085  0.4382
  471MOL0     C63482   4.624   7.573  -0.263 -0.1394  0.2557  0.4645
  471MOL0     C63483   4.745   7.609  -0.315  0.3625  0.0335 -0.0476
  471MOL0     C63484   4.758   7.698  -0.424 -0.7163 -0.1151  0.0896
  471MOL0     O63485   4.869   7.747  -0.486  0.5093 -0.8482 -0.3810
  471MOL0     C63486   4.995   7.692  -0.444 -0.9076 -0.5739  0.9223
  471MOL0     C63487   5.103   7.700  -0.551  0.0261 -0.2320  0.1959
  471MOL0     C63488   5.237   7.643  -0.513 -0.4819  0.1888  0.4129
  471MOL0     C63489   5.340   7.656  -0.630 -0.7568  0.3759  0.1379
  471MOL0     C63490   5.480   7.603  -0.580 -0.6564  0.8459 -0.2520
  471MOL0     C63491   5.596   7.636  -0.674 -0.3762  0.3959 -0.3085
  471MOL0     C63492   5.730   7.576  -0.631  0.2110  0.1679  0.5163
  471MOL0     C63493   5.839   7.642  -0.725 -0.4426  0.5425  0.0222
  471MOL0    Cl63494   5.823   7.577  -0.889  0.5740 -0.0340 -0.1079
  471MOL0     C63495   4.645   7.745  -0.473  0.5626 -0.0792 -0.1031
  471MOL0     C63496   4.518   7.724  -0.421 -0.0469  0.4130 -0.9041
  471MOL0     O63497   4.434   7.704  -0.078 -0.1469  0.1279  0.4057
  471MOL0     C63498   4.212   7.576   0.058 -0.0214  0.8133  0.4408
  471MOL0     C63499   4.092   7.531   0.109  0.9575 -0.1270  1.4348
  471MOL0     N63500   3.382   7.002  -0.013 -0.2019 -0.2631  0.0261
  471MOL0     N63501   3.275   6.931  -0.032  0.2345  0.1298 -0.0971
  471MOL0     C63502   1.855   7.097  -0.194  0.1201  0.2771 -0.2790
  471MOL0     C63503   1.722   7.145  -0.186  0.4561 -0.5758 -0.0461
  471MOL0     C63504   1.383   7.399  -0.016  0.1108  0.1399  0.3673
  471MOL0     C63505   1.361   7.516  -0.089  0.3365 -0.1660 -0.0958
  471MOL0     C63506   1.238   7.588  -0.081  0.7527  0.0753  0.3796
  471MOL0     C63507   1.131   7.546   0.004  0.8430  0.3783 -0.0862
  471MOL0     O63508   1.015   7.613   0.014 -0.0050 -0.4264 -0.3102
  471MOL0     C63509   0.901   7.596   0.102  0.5256  0.0276  0.2148
  471MOL0     C63510   0.802   7.492   0.055 -0.3878 -0.8142  1.3414
  471MOL0     C63511   0.755   7.540  -0.078  0.0297 -0.2094  0.0424
  471MOL0     C63512   0.672   7.431  -0.150 -0.4776 -0.5949 -0.1453
  471MOL0     C63513   0.545   7.433  -0.083  0.8665  0.5854  1.1020
  471MOL0     C63514   0.441   7.433  -0.027 -0.2800  0.5800  0.2169
  471MOL0     C63515   1.161   7.434   0.081 -0.1590 -0.3783 -0.2975
  471MOL0     C63516   1.282   7.353   0.070  0.7809 -0.5555  0.3475
  471MOL0     C63517   1.279   7.227   0.152  0.1328 -0.5107  0.3692
  471MOL0     H63518   1.778   7.476  -0.123  0.9381  0.6849 -0.9157
  471MOL0     H63519   2.011   7.395  -0.179 -0.7602  1.1509 -1.2765
  471MOL0     H63520   2.215   7.291  -0.187  0.0436  0.0937  1.6374
  471MOL0     H63521   2.163   7.226  -0.036 -1.4742 -1.3304 -0.8908
  471MOL0     H63522   2.315   7.075  -0.260  0.4151  1.3656 -0.7553
  471MOL0     H63523   2.301   7.022  -0.091  0.1621 -0.2031 -0.5627
  471MOL0     H63524   2.441   7.187  -0.005  0.3521 -0.2007  0.0835
  471MOL0     H63525   2.464   7.272  -0.154  0.8808  0.4240  1.8620
  471MOL0     H63526   2.531   6.977  -0.113 -0.8735  1.3660  2.5294
  471MOL0     H63527   2.560   7.044  -0.261 -0.2817 -1.4777  1.1167
  471MOL0     H63528   2.711   7.228  -0.140  1.7763 -0.2769 -0.3729
  471MOL0     H63529   2.675   7.130   0.007 -0.4148  0.5262  0.0368
  471MOL0     H63530   2.783   6.939  -0.113  0.1811 -0.9820 -1.8240
  471MOL0     H63531   2.815   7.050  -0.245 -0.9806 -0.4988 -0.7339
  471MOL0     H63532   2.922   7.095   0.051  1.3429  1.9675 -0.8149
  471MOL0     H63533   2.969   7.182  -0.090  2.1024  0.7954  3.0748
  471MOL0     H63534   2.989   6.892   0.000 -3.9562  2.6957  0.6463
  471MOL0     H63535   3.036   6.926  -0.161 -2.3615  1.3267 -1.3107
  471MOL0     H63536   3.156   7.239   0.004 -1.4212 -0.4454  3.3695
  471MOL0     H63537   3.390   7.339  -0.016 -1.8633 -2.5075 -2.9248
  471MOL0     H63538   3.457   7.263   0.126 -0.1748  2.9362 -0.0667
  471MOL0     H63539   3.614   7.137  -0.039 -0.4502 -0.0086 -1.1040
  471MOL0     H63540   3.562   7.250  -0.163  2.9276 -1.7304 -0.1844
  471MOL0     H63541   3.620   7.421   0.049  1.4435  0.7809  0.8022
  471MOL0     H63542   3.684   7.412  -0.114 -1.0649 -0.0571 -0.1720
  471MOL0     H63543   3.869   7.282  -0.039 -1.1316 -0.9329 -0.7616
  471MOL0     H63544   3.808   7.245   0.115 -1.1514 -0.2719  2.0087
  471MOL0     H63545   3.929   7.457  -0.169  0.4858 -0.6260  0.1983
  471MOL0     H63546   4.130   7.545  -0.273  1.9956  0.4824 -0.1267
  471MOL0     H63547   4.629   7.503  -0.181  1.2306  0.8630  0.9225
  471MOL0     H63548   4.838   7.577  -0.270  0.4891 -0.5025 -0.6696
  471MOL0     H63549   5.026   7.747  -0.355 -0.8546  0.0865  0.5027
  471MOL0     H63550   4.987   7.586  -0.418 -1.1708 -1.0299 -0.8762
  471MOL0     H63551   5.065   7.656  -0.643 -0.1540  0.0867  0.1164
  471MOL0     H63552   5.128   7.805  -0.568  3.2670 -0.8072  0.7784
  471MOL0     H63553   5.276   7.702  -0.429 -2.5283  1.4507  0.5588
  471MOL0     H63554   5.226   7.540  -0.479  0.4456 -0.7220 -1.8426
  471MOL0     H63555   5.352   7.760  -0.661 -4.1562  0.5574 -0.9631
  471MOL0     H63556   5.311   7.595  -0.716  0.3590 -0.4509  0.3293
  471MOL0     H63557   5.477   7.494  -0.565  0.1488  0.7541 -0.6838
  471MOL0     H63558   5.499   7.642  -0.480  0.9883  0.8546 -0.5400
  471MOL0     H63559   5.571   7.604  -0.775  0.6625  0.0446 -0.4651
  471MOL0     H63560   5.620   7.743  -0.674  1.9899 -0.0713  0.8606
  471MOL0     H63561   5.724   7.467  -0.625  0.3933  0.0023 -1.4261
  471MOL0     H63562   5.746   7.609  -0.528 -0.7921 -0.5154  0.9158
  471MOL0     H63563   5.832   7.751  -0.732  1.2832  0.6082 -1.5320
  471MOL0     H63564   5.935   7.621  -0.676  0.4085  0.1137 -1.7684
  471MOL0     H63565   4.648   7.824  -0.548 -1.8693 -0.1564 -0.3944
  471MOL0     H63566   4.428   7.776  -0.454 -0.3285  1.9079  1.9283
  471MOL0     H63567   4.288   7.600   0.132 -0.2912 -1.7366  1.6726
  471MOL0     H63568   4.085   7.526   0.217  0.4029 -2.6646  1.3306
  471MOL0     H63569   1.882   6.995  -0.221  2.7396  0.4775  1.2102
  471MOL0     H63570   1.637   7.079  -0.197 -1.2559  1.2479  1.4188
  471MOL0     H63571   1.432   7.554  -0.161  1.0535  2.5827  1.9071
  471MOL0     H63572   1.215   7.675  -0.141  2.7222 -0.5631 -1.4267
  471MOL0     H63573   0.843   7.688   0.110  3.0302  1.8846 -1.5134
  471MOL0     H63574   0.935   7.573   0.204 -1.2569  2.6586  1.5353
  471MOL0     H63575   0.726   7.477   0.132 -2.2554  3.9242  0.7146
  471MOL0     H63576   0.847   7.395   0.031 -0.5139 -0.6476  0.4024
  471MOL0     H63577   0.843   7.558  -0.141 -0.7916 -1.0310 -1.3949
  471MOL0     H63578   0.698   7.633  -0.062  1.3175  0.4004  1.3501
  471MOL0     H63579   0.659   7.455  -0.256  0.9538  1.9069  0.1763
  471MOL0     H63580   0.706   7.327  -0.148 -1.1652 -0.8270 -0.2556
  471MOL0     H63581   0.351   7.426   0.030  1.1149 -0.2683  2.4497
  471MOL0     H63582   1.088   7.393   0.150  0.2533  2.5291  2.0742
  471MOL0     H63583   1.340   7.237   0.241 -1.4443  0.9894  1.3334
  471MOL0     H63584   1.176   7.198   0.177 -0.8204  0.7333 -1.8184
  471MOL0     H63585   1.334   7.152   0.093  0.2253 -0.1760  0.0312
  472MOL0     O63586   0.100   4.958  10.877 -0.5163 -0.3485  0.0269
  472MOL0     C63587   0.003   5.025  10.880  0.5929 -0.0239 -0.5464
  472MOL0     O63588   0.005   5.161  10.912 -0.2491 -0.2247 -0.5712
  472MOL0     C63589   0.119   5.240  10.935 -0.0951  0.5407 -0.3792
  472MOL0     C63590   0.091   5.363  11.000 -0.1310 -0.1484  0.8065
  472MOL0     C63591   0.196   5.442  11.047  0.5734 -0.1060 -0.3321
  472MOL0     C63592   0.324   5.409  11.014 -0.7716  0.3322 -0.2094
  472MOL0     O63593   0.418   5.509  11.047  0.2829  0.2786  0.2056
  472MOL0     C63594   0.546   5.479  10.994 -0.4458 -0.4131 -0.7191
  472MOL0     C63595   0.641   5.589  10.995  0.6035 -1.5369 -0.3247
  472MOL0     C63596   0.613   5.703  10.888 -0.1737 -0.1228 -0.1861
  472MOL0     C63597   0.689   5.685  10.752  0.1935  0.0605  0.6771
  472MOL0     C63598   0.654   5.781  10.641  0.3434 -0.0259  0.4205
  472MOL0     C63599   0.729   5.759  10.509  0.5134  0.1105 -0.4405
  472MOL0     C63600   0.872   5.737  10.535 -0.0245  0.6228  0.2505
  472MOL0     C63601   0.954   5.726  10.406  0.1883  0.8643  0.1313
  472MOL0     N63602   1.088   5.664  10.429 -0.2819 -0.2527  0.4303
  472MOL0     C63603   1.111   5.540  10.491  0.4892  0.7985  0.2007
  472MOL0     C63604   1.240   5.521  10.500 -0.7594 -0.0996  0.8943
  472MOL0     C63605   1.299   5.405  10.577  0.0477 -0.4131  0.7973
  472MOL0     C63606   1.446   5.388  10.538  0.5532 -0.5665  0.4934
  472MOL0     C63607   1.503   5.272  10.619  0.5405  0.0487 -0.0170
  472MOL0     C63608   1.643   5.243  10.566 -0.2411 -0.6807  0.0307
  472MOL0     O63609   1.737   5.321  10.636  0.0267  0.0698 -0.7481
  472MOL0     C63610   1.873   5.317  10.615 -0.8862 -1.0800 -0.3821
  472MOL0     C63611   1.924   5.202  10.554 -0.6690 -0.2657 -0.3421
  472MOL0     C63612   2.066   5.192  10.535  0.8012 -0.3122  1.0244
  472MOL0     C63613   2.154   5.290  10.589 -0.2973 -0.6099 -0.0557
  472MOL0     C63614   2.305   5.287  10.579 -0.1007 -0.0966 -0.0245
  472MOL0     O63615   2.374   5.378  10.645 -1.1766  0.7683 -0.9201
  472MOL0     C63616   2.510   5.360  10.650 -0.7160  0.3333 -0.3360
  472MOL0     C63617   2.571   5.325  10.773  0.2297 -0.7222  0.5419
  472MOL0     C63618   2.710   5.314  10.782  0.5924  0.1367  0.0505
  472MOL0     C63619   2.795   5.325  10.673 -1.1818 -0.8057 -0.3701
  472MOL0     O63620   2.929   5.303  10.687  0.4443 -0.4257 -0.3515
  472MOL0     C63621   3.013   5.268  10.578  0.7343 -0.6688 -0.0335
  472MOL0     C63622   2.978   5.131  10.517 -0.8703 -0.3354  0.2222
  472MOL0     C63623   3.046   5.117  10.379 -0.0535  0.1848  0.1441
  472MOL0     C63624   3.208   5.135  10.380 -0.5435 -0.4358 -0.1909
  472MOL0     C63625   3.275   5.071  10.254 -0.7819 -0.1259 -0.1171
  472MOL0     C63626   3.291   4.917  10.277  0.2064 -0.2411  0.7052
  472MOL0     C63627   3.318   4.846  10.148 -0.3557  0.8185  0.0640
  472MOL0     C63628   3.430   4.907  10.058 -0.2706  0.3445 -0.1879
  472MOL0    Cl63629   3.580   4.932  10.149 -0.1667  0.0005  0.4568
  472MOL0     C63630   2.739   5.343  10.551  0.8377  0.6965 -0.3034
  472MOL0     C63631   2.595   5.362  10.542  0.6653 -0.3012  0.0023
  472MOL0     O63632   2.353   5.195  10.519 -0.0675  0.3448  0.0407
  472MOL0     C63633   2.101   5.404  10.649 -0.7483 -0.3068 -0.5493
  472MOL0     C63634   1.962   5.420  10.657 -0.0370 -0.1921 -0.0447
  472MOL0     N63635   1.303   5.645  10.472  0.2784  0.4013  0.4031
  472MOL0     N63636   1.201   5.732  10.449  1.2740  0.0133 -0.6801
  472MOL0     C63637   0.351   5.285  10.953 -0.7457 -0.3153 -0.5631
  472MOL0     C63638   0.253   5.203  10.919  0.3565 -0.1372 -0.5393
  472MOL0     C63639  -0.133   4.964  10.853  0.6558 -0.3458 -0.8978
  472MOL0     C63640  -0.252   5.028  10.890 -0.3145 -0.0773 -0.8134
  472MOL0     C63641  -0.376   4.969  10.854 -0.0946  0.2669 -0.1498
  472MOL0     C63642  -0.388   4.845  10.790 -0.4873 -0.1098 -0.4910
  472MOL0     O63643  -0.517   4.820  10.755 -0.0015  0.4861  0.1824
  472MOL0     C63644  -0.523   4.705  10.669 -0.3655  0.3800 -0.2517
  472MOL0     C63645  -0.656   4.717  10.599  0.3539  0.7131  0.8267
  472MOL0     C63646  -0.675   4.622  10.478 -0.1411 -0.4930  0.4242
  472MOL0     C63647  -0.807   4.659  10.404 -0.2962 -0.2525 -0.2146
  472MOL0     C63648  -0.929   4.627  10.484 -0.4310  0.0318 -0.1070
  472MOL0     C63649  -1.027   4.591  10.552 -0.2005 -0.6203 -0.7890
  472MOL0     C63650  -0.265   4.775  10.753  0.3964 -0.6094  0.2588
  472MOL0     C63651  -0.147   4.843  10.774 -0.0393 -0.3750  0.4573
  472MOL0     C63652  -0.026   4.763  10.736  0.6653 -0.5436  0.4599
  472MOL0     H63653  -0.005   5.398  11.038  0.9541  1.0842  2.5091
  472MOL0     H63654   0.171   5.537  11.093 -0.6122 -0.0073 -1.1401
  472MOL0     H63655   0.598   5.399  11.048 -0.1806 -1.0615 -1.9217
  472MOL0     H63656   0.533   5.437  10.894 -0.4439 -0.3282 -0.7557
  472MOL0     H63657   0.741   5.548  10.974  1.5165  0.7177 -0.7238
  472MOL0     H63658   0.645   5.630  11.096 -2.0457  2.0454 -1.4847
  472MOL0     H63659   0.651   5.799  10.924 -1.5474  0.8999 -1.3378
  472MOL0     H63660   0.505   5.708  10.870 -0.3462 -3.5842 -0.7666
  472MOL0     H63661   0.797   5.680  10.770  0.0298  2.1809  2.5902
  472MOL0     H63662   0.657   5.593  10.702  4.8926  0.1386 -3.1842
  472MOL0     H63663   0.545   5.775  10.628  0.6452 -2.9558 -1.9025
  472MOL0     H63664   0.680   5.880  10.679  0.6998 -0.0847  0.3299
  472MOL0     H63665   0.696   5.668  10.456 -0.7240  0.5907 -0.5353
  472MOL0     H63666   0.710   5.843  10.441 -1.8020 -0.7391 -0.9571
  472MOL0     H63667   0.892   5.641  10.582 -1.4050  0.7758  1.2359
  472MOL0     H63668   0.916   5.819  10.593  1.2144  1.0753 -1.2861
  472MOL0     H63669   0.906   5.656  10.337  0.6536  1.8888 -1.2704
  472MOL0     H63670   0.967   5.822  10.356 -2.1324  1.4108  0.4534
  472MOL0     H63671   1.034   5.468  10.515 -1.4087  2.2614 -1.2233
  472MOL0     H63672   1.290   5.427  10.684 -1.0815  1.7889  0.2962
  472MOL0     H63673   1.244   5.314  10.552  0.7107 -0.8003  0.7088
  472MOL0     H63674   1.440   5.366  10.431 -1.3180  3.5457 -0.4182
  472MOL0     H63675   1.503   5.479  10.558 -0.3137  0.5990 -1.8771
  472MOL0     H63676   1.449   5.177  10.617  0.0022  0.3414  0.4470
  472MOL0     H63677   1.510   5.311  10.720  2.7522  0.2229 -0.1872
  472MOL0     H63678   1.663   5.251  10.459 -1.6007  4.0376 -0.0677
  472MOL0     H63679   1.670   5.140  10.593  0.3036 -0.9440 -1.4161
  472MOL0     H63680   1.862   5.122  10.515 -0.0653 -0.9702  0.1134
  472MOL0     H63681   2.103   5.105  10.483  0.1223 -1.8117  2.9177
  472MOL0     H63682   2.499   5.325  10.854 -2.6775 -0.6603 -1.8478
  472MOL0     H63683   2.760   5.294  10.876  2.5495 -0.4742 -1.0683
  472MOL0     H63684   3.005   5.345  10.501  0.1303 -2.0916 -1.4515
  472MOL0     H63685   3.117   5.270  10.612  0.3700  3.2231  1.2979
  472MOL0     H63686   3.011   5.045  10.577 -2.0415 -1.9665 -1.3637
  472MOL0     H63687   2.869   5.134  10.525 -0.8168  3.0824  1.5796
  472MOL0     H63688   3.020   5.015  10.349  2.0529 -0.2847 -0.2726
  472MOL0     H63689   3.004   5.187  10.307  0.6794  1.6863  1.1372
  472MOL0     H63690   3.243   5.082  10.469 -0.7232 -1.6425 -0.8110
  472MOL0     H63691   3.221   5.243  10.391  4.1874 -0.9499  1.2327
  472MOL0     H63692   3.371   5.122  10.241 -1.1610  0.1737 -2.2038
  472MOL0     H63693   3.215   5.089  10.164 -3.3208 -4.0758  0.5454
  472MOL0     H63694   3.371   4.901  10.351  1.4543 -0.5339 -0.6452
  472MOL0     H63695   3.197   4.877  10.317 -1.0021 -0.0537 -1.7768
  472MOL0     H63696   3.224   4.826  10.095  0.7914 -1.2127 -1.3778
  472MOL0     H63697   3.360   4.747  10.169  0.4606  0.4023 -2.9988
  472MOL0     H63698   3.449   4.852   9.966  0.9761  1.2850 -0.5155
  472MOL0     H63699   3.393   5.007  10.033 -0.2170  1.0627  2.2613
  472MOL0     H63700   2.796   5.346  10.459  0.5868 -1.0641 -0.5534
  472MOL0     H63701   2.562   5.379  10.440  1.4597 -3.2426 -0.8441
  472MOL0     H63702   2.162   5.476  10.702 -2.3190  0.9715 -0.4053
  472MOL0     H63703   1.918   5.508  10.701  1.4228 -1.2773  4.0886
  472MOL0     H63704   0.452   5.245  10.944 -0.3800  1.0690 -4.6667
  472MOL0     H63705   0.271   5.105  10.877  0.4789 -0.4800  0.2947
  472MOL0     H63706  -0.253   5.129  10.930 -0.5701  0.2384 -1.5928
  472MOL0     H63707  -0.472   5.013  10.880 -1.0688 -2.2558  0.8243
  472MOL0     H63708  -0.521   4.618  10.735 -2.4217  0.1190 -0.4660
  472MOL0     H63709  -0.439   4.699  10.599 -0.2649  0.0846 -0.1065
  472MOL0     H63710  -0.667   4.819  10.563 -0.7846 -0.3889 -2.2816
  472MOL0     H63711  -0.731   4.680  10.670 -1.0695 -2.0412 -1.8619
  472MOL0     H63712  -0.674   4.520  10.516  1.9432  0.3395  2.9115
  472MOL0     H63713  -0.595   4.628  10.403 -2.2622  3.1579 -1.8606
  472MOL0     H63714  -0.810   4.767  10.391 -0.3543 -0.0831  1.1012
  472MOL0     H63715  -0.823   4.609  10.308 -0.9245  0.2812 -0.3918
  472MOL0     H63716  -1.101   4.539  10.609  2.3199 -4.4774 -0.6630
  472MOL0     H63717  -0.263   4.683  10.695  1.6936  1.1661 -2.7735
  472MOL0     H63718   0.051   4.823  10.687  2.0081 -2.3792  0.2085
  472MOL0     H63719   0.034   4.725  10.819  1.8603 -2.0186 -1.0154
  472MOL0     H63720  -0.048   4.691  10.656 -2.8726  2.0365 -1.1647
  473MOL0     O63721   1.344   3.724   5.321  0.2538  0.2293 -0.0866
  473MOL0     C63722   1.228   3.708   5.314  0.0975 -0.2089  0.1886
  473MOL0     O63723   1.160   3.618   5.394  0.4011 -0.0487  0.5523
  473MOL0     C63724   1.199   3.559   5.509 -0.3895  0.2344 -0.6245
  473MOL0     C63725   1.104   3.498   5.585  0.3010  0.1099 -0.6616
  473MOL0     C63726   1.122   3.444   5.706 -0.5031 -0.1225  0.1656
  473MOL0     C63727   1.240   3.457   5.767 -0.0790  0.8468 -0.1360
  473MOL0     O63728   1.263   3.395   5.883  0.1418 -0.1131  0.0324
  473MOL0     C63729   1.316   3.480   5.988 -0.4964  0.3122 -1.2141
  473MOL0     C63730   1.218   3.513   6.094 -0.4108  0.2757 -0.2675
  473MOL0     C63731   1.184   3.667   6.092 -0.0904  0.1676 -0.3152
  473MOL0     C63732   1.084   3.704   6.208 -0.4189 -0.2732  0.0948
  473MOL0     C63733   1.118   3.836   6.274 -0.5473 -0.3600  0.4369
  473MOL0     C63734   1.058   3.859   6.414  0.1646 -0.0438  0.4734
  473MOL0     C63735   0.900   3.846   6.423 -0.1148  0.7977  0.9534
  473MOL0     C63736   0.851   3.880   6.555  0.3650  0.1675 -0.2177
  473MOL0     N63737   0.896   4.007   6.610  0.6552  0.0994 -0.0837
  473MOL0     C63738   0.831   4.123   6.601  0.7876  0.4875  0.7597
  473MOL0     C63739   0.905   4.215   6.677  0.0915 -0.0615  0.7627
  473MOL0     C63740   0.892   4.364   6.686 -0.0119  0.1258  0.3235
  473MOL0     C63741   0.790   4.416   6.790 -0.4466  0.3932  0.5548
  473MOL0     C63742   0.792   4.573   6.808  0.8768  0.2429 -0.0508
  473MOL0     C63743   0.657   4.634   6.830 -0.7929  0.9790  0.5930
  473MOL0     O63744   0.603   4.578   6.954  0.0392 -0.3498  0.3918
  473MOL0     C63745   0.468   4.608   6.977  0.1128  0.2774  0.0632
  473MOL0     C63746   0.399   4.525   7.067  0.0450 -0.3390 -0.0250
  473MOL0     C63747   0.265   4.535   7.088  0.0023 -0.5451  0.3647
  473MOL0     C63748   0.194   4.632   7.016 -1.1996 -0.0038 -0.1850
  473MOL0     C63749   0.049   4.636   7.031 -1.1690  0.2116 -0.7347
  473MOL0     O63750  -0.006   4.552   7.124 -0.0515 -0.3518 -0.2428
  473MOL0     C63751  -0.148   4.540   7.142  0.1256 -0.2414  0.0454
  473MOL0     C63752  -0.236   4.645   7.147 -0.5298  0.0102 -0.7347
  473MOL0     C63753  -0.377   4.628   7.161 -0.4754 -0.3416  0.2980
  473MOL0     C63754  -0.432   4.502   7.158  0.0318 -0.1711 -1.0919
  473MOL0     O63755  -0.565   4.476   7.157  0.1544 -0.2725 -0.3375
  473MOL0     C63756  -0.664   4.576   7.118 -0.0957 -0.1759  0.3786
  473MOL0     C63757  -0.773   4.473   7.068 -0.1309  0.5191 -0.1563
  473MOL0     C63758  -0.896   4.561   7.031  0.0025  0.3620 -0.7132
  473MOL0     C63759  -1.018   4.474   6.996  0.2845  0.1140 -0.4100
  473MOL0     C63760  -1.155   4.543   6.979 -0.2803 -0.1685 -0.2936
  473MOL0     C63761  -1.275   4.444   6.950 -0.1181  0.1550 -0.6693
  473MOL0     C63762  -1.411   4.520   6.976  0.7801  0.0781 -0.6176
  473MOL0     C63763  -1.534   4.424   6.968 -0.5307 -0.3369 -0.4603
  473MOL0    Cl63764  -1.579   4.365   6.804 -0.1061 -0.2251  0.2509
  473MOL0     C63765  -0.342   4.392   7.158 -0.2991 -0.8049  0.6570
  473MOL0     C63766  -0.202   4.413   7.156 -0.2052 -0.5250  0.0019
  473MOL0     O63767  -0.012   4.723   6.960 -0.2724  0.6665 -0.2830
  473MOL0     C63768   0.257   4.722   6.941 -0.3785 -0.1225 -0.1693
  473MOL0     C63769   0.398   4.716   6.920  0.4173  0.9324  0.7024
  473MOL0     N63770   0.991   4.144   6.750 -0.1573 -0.1611  0.4033
  473MOL0     N63771   0.998   4.019   6.699 -0.0855  0.2934  0.6913
  473MOL0     C63772   1.348   3.522   5.703  1.1546  0.3956  0.3381
  473MOL0     C63773   1.324   3.571   5.571  0.2272 -0.6128  0.2120
  473MOL0     C63774   1.156   3.768   5.202 -0.1463  0.8430  0.0208
  473MOL0     C63775   1.048   3.699   5.150  0.2202 -0.1217  0.2476
  473MOL0     C63776   0.972   3.756   5.051 -1.0908 -0.0725  0.1762
  473MOL0     C63777   1.009   3.878   4.992 -1.1264  0.4349  0.5588
  473MOL0     O63778   0.938   3.926   4.889  0.2805 -0.1460  0.0752
  473MOL0     C63779   0.821   4.000   4.937 -0.3370  0.2248 -0.1851
  473MOL0     C63780   0.703   3.963   4.853 -0.1325  0.1146  0.6561
  473MOL0     C63781   0.626   3.847   4.895  0.2800  0.5798 -0.1273
  473MOL0     C63782   0.495   3.830   4.821  0.3073  0.1373 -0.3888
  473MOL0     C63783   0.406   3.945   4.842 -0.1767 -0.4361  0.7980
  473MOL0     C63784   0.348   4.054   4.845 -0.0846  0.5671  0.3618
  473MOL0     C63785   1.114   3.952   5.051  0.1329 -0.4986 -0.2332
  473MOL0     C63786   1.184   3.905   5.161  0.8297 -0.3087 -0.0289
  473MOL0     C63787   1.279   3.991   5.240 -0.2762  0.2096  0.5727
  473MOL0     H63788   0.998   3.499   5.559 -1.1190 -3.2384  3.7577
  473MOL0     H63789   1.050   3.388   5.764  0.2956  0.0928  1.3887
  473MOL0     H63790   1.397   3.420   6.032 -0.1978  1.0226 -0.7702
  473MOL0     H63791   1.366   3.571   5.954 -1.9942  3.3097  3.5700
  473MOL0     H63792   1.259   3.485   6.191 -0.8425  1.0965  0.1632
  473MOL0     H63793   1.130   3.449   6.083 -1.5102  1.4882  1.0437
  473MOL0     H63794   1.137   3.688   5.995 -0.9820 -2.4175 -0.5166
  473MOL0     H63795   1.276   3.726   6.095 -1.9261  3.1775  0.7575
  473MOL0     H63796   0.978   3.694   6.182 -0.4894  0.5850  0.0060
  473MOL0     H63797   1.091   3.626   6.284 -1.4705 -1.6862 -1.2153
  473MOL0     H63798   1.227   3.836   6.283 -0.5775 -0.4159  0.8093
  473MOL0     H63799   1.097   3.917   6.203 -2.1348 -1.0949  0.0170
  473MOL0     H63800   1.097   3.788   6.487 -2.0028 -1.9595 -0.1320
  473MOL0     H63801   1.081   3.963   6.441  3.8300 -0.6295  0.1796
  473MOL0     H63802   0.864   3.745   6.399 -2.3706  1.7316  0.1942
  473MOL0     H63803   0.862   3.917   6.349  1.0701 -0.2137 -0.7100
  473MOL0     H63804   0.742   3.892   6.547  0.6764  2.3660 -2.4756
  473MOL0     H63805   0.873   3.794   6.619 -1.0533 -1.9338 -2.3811
  473MOL0     H63806   0.747   4.159   6.543  1.1967  1.0449  0.4961
  473MOL0     H63807   0.988   4.411   6.706 -0.6717  1.3886  0.6678
  473MOL0     H63808   0.862   4.402   6.588  0.7775 -0.0957 -0.0067
  473MOL0     H63809   0.692   4.390   6.749 -0.1963 -0.6766  0.5874
  473MOL0     H63810   0.804   4.371   6.888  4.1060  1.3892  0.5752
  473MOL0     H63811   0.831   4.629   6.723  0.2086  1.8199  0.6415
  473MOL0     H63812   0.852   4.598   6.896  2.1879  0.9068 -1.0994
  473MOL0     H63813   0.586   4.605   6.752  0.1677 -0.5922  0.2603
  473MOL0     H63814   0.659   4.744   6.831 -0.7810  0.9785  0.6547
  473MOL0     H63815   0.460   4.448   7.113  0.2950 -0.5614 -0.7149
  473MOL0     H63816   0.214   4.471   7.159 -2.8400  0.5590 -0.5086
  473MOL0     H63817  -0.193   4.745   7.142  1.5309 -0.8619 -1.6440
  473MOL0     H63818  -0.437   4.718   7.148  0.7980  0.3493 -1.2512
  473MOL0     H63819  -0.693   4.633   7.207  2.0865 -1.0709  1.7302
  473MOL0     H63820  -0.631   4.638   7.035  2.7619 -1.7836  0.1930
  473MOL0     H63821  -0.729   4.426   6.980  0.4048 -0.0630  0.4130
  473MOL0     H63822  -0.781   4.398   7.148  0.6372  1.7307  1.0949
  473MOL0     H63823  -0.920   4.623   7.118  1.3448  1.0635 -0.8147
  473MOL0     H63824  -0.874   4.629   6.947 -1.7079 -1.5081 -2.8027
  473MOL0     H63825  -1.029   4.398   7.073 -2.8142  2.2004  1.4226
  473MOL0     H63826  -0.997   4.423   6.901  2.3755  0.8545 -0.4056
  473MOL0     H63827  -1.152   4.621   6.903 -0.5122  2.3847  2.1627
  473MOL0     H63828  -1.184   4.602   7.066 -1.5293 -0.0272 -0.7852
  473MOL0     H63829  -1.276   4.409   6.846 -1.4616  0.0496 -0.6449
  473MOL0     H63830  -1.276   4.356   7.016  1.7383  0.4887 -0.1504
  473MOL0     H63831  -1.415   4.604   6.905  3.1652 -1.5696 -2.8734
  473MOL0     H63832  -1.409   4.557   7.080  2.7431  1.5363 -1.1086
  473MOL0     H63833  -1.497   4.340   7.027 -0.6714 -0.9445 -1.2222
  473MOL0     H63834  -1.625   4.469   7.009 -0.1644 -0.3697  0.4134
  473MOL0     H63835  -0.385   4.293   7.174  2.2116 -2.1675 -0.3165
  473MOL0     H63836  -0.140   4.325   7.166 -2.3661 -2.3850 -1.7150
  473MOL0     H63837   0.203   4.799   6.887  1.5195  1.6443  0.3227
  473MOL0     H63838   0.449   4.787   6.856 -3.8535  3.1373 -0.6092
  473MOL0     H63839   1.449   3.525   5.742  2.0915  3.5299 -1.8969
  473MOL0     H63840   1.410   3.614   5.520  0.6276  0.3809  1.6583
  473MOL0     H63841   1.022   3.606   5.199 -0.3793 -2.5627 -4.1461
  473MOL0     H63842   0.888   3.696   5.021 -1.1868  0.3283 -0.3593
  473MOL0     H63843   0.842   4.106   4.930  1.8407 -0.0622  1.1271
  473MOL0     H63844   0.806   3.977   5.043  0.4235  0.7524  0.0397
  473MOL0     H63845   0.738   3.935   4.753 -0.5440 -0.3558  0.6382
  473MOL0     H63846   0.635   4.049   4.847 -2.1021 -1.2336  2.2470
  473MOL0     H63847   0.605   3.845   5.003  1.3058 -0.9666  0.0718
  473MOL0     H63848   0.696   3.764   4.881 -0.6758 -0.4012  0.6567
  473MOL0     H63849   0.515   3.823   4.714  0.8099 -1.8812 -0.1994
  473MOL0     H63850   0.438   3.743   4.853  0.8345 -1.2411 -2.9361
  473MOL0     H63851   0.305   4.153   4.848 -0.8290  0.4155 -2.6159
  473MOL0     H63852   1.137   4.047   5.004  3.9768 -0.5582  1.2002
  473MOL0     H63853   1.377   3.942   5.240  0.2227  1.2014  1.2904
  473MOL0     H63854   1.288   4.089   5.193  1.8462 -0.2427 -0.0550
  473MOL0     H63855   1.245   3.988   5.344 -2.9992  1.1873 -0.1875
  474MOL0     O63856   8.995   0.140   0.887  0.6618 -0.6625 -1.2421
  474MOL0     C63857   8.994   0.251   0.839  1.2179  0.0328 -0.2906
  474MOL0     O63858   9.105   0.331   0.822  0.6431  0.4187  0.0032
  474MOL0     C63859   9.227   0.268   0.796  0.6956 -0.5477  0.1536
  474MOL0     C63860   9.341   0.334   0.835  0.7318 -0.3641 -0.3495
  474MOL0     C63861   9.466   0.280   0.830  0.0178  0.1874  0.2319
  474MOL0     C63862   9.479   0.151   0.771 -0.5274 -0.0940  0.5288
  474MOL0     O63863   9.611   0.101   0.776 -0.4761 -0.0712  0.0839
  474MOL0     C63864   9.637  -0.038   0.772 -0.5957 -0.2792 -0.0870
  474MOL0     C63865   9.742  -0.066   0.666 -0.8506 -0.3269  0.0689
  474MOL0     C63866   9.877  -0.022   0.717 -0.0351  0.4691  0.1636
  474MOL0     C63867   9.984  -0.049   0.605 -0.0587 -0.0150 -0.4128
  474MOL0     C63868  10.100   0.051   0.626  0.3859  0.1966  0.0880
  474MOL0     C63869  10.189   0.020   0.515 -0.5610  0.6191  0.8965
  474MOL0     C63870  10.315   0.108   0.503  0.8757 -0.0792  0.3152
  474MOL0     C63871  10.397   0.042   0.388  0.1704 -0.5161  0.5901
  474MOL0     N63872  10.519   0.131   0.349 -0.0939 -0.2979  0.3193
  474MOL0     C63873  10.525   0.229   0.237 -0.8156  0.6673  0.6328
  474MOL0     C63874  10.656   0.249   0.229  0.4317 -0.5508  0.0951
  474MOL0     C63875  10.722   0.339   0.133 -0.7591 -0.0154  0.4903
  474MOL0     C63876  10.858   0.294   0.100 -0.3975 -0.5145 -0.1422
  474MOL0     C63877  10.929   0.386  -0.001 -0.9335  0.7348 -0.3558
  474MOL0     C63878  11.072   0.321  -0.025  0.7983  0.5356 -0.5490
  474MOL0     O63879  11.164   0.397  -0.099  0.0553 -1.1328 -0.5176
  474MOL0     C63880  11.293   0.352  -0.112  0.3824  0.8265 -0.6927
  474MOL0     C63881  11.336   0.215  -0.093  0.0793  0.2436  0.5052
  474MOL0     C63882  11.472   0.189  -0.116  0.3866  0.1336  0.4881
  474MOL0     C63883  11.575   0.284  -0.141 -0.6356 -0.4581  0.8112
  474MOL0     C63884  11.717   0.237  -0.170 -0.8593 -0.0775  0.5849
  474MOL0     O63885  11.738   0.117  -0.245 -0.0189  0.5314 -0.8720
  474MOL0     C63886  11.863   0.092  -0.285 -0.2669  0.0414  0.5727
  474MOL0     C63887  11.971   0.099  -0.204  0.2845  0.1746  0.2837
  474MOL0     C63888  12.102   0.078  -0.256 -0.3461 -1.0210 -0.1746
  474MOL0     C63889  12.116   0.037  -0.389  0.1080  0.1455  0.6340
  474MOL0     O63890  12.235   0.004  -0.444 -0.4404 -0.1433 -0.5869
  474MOL0     C63891  12.362   0.005  -0.365  0.5440 -0.3366 -0.2298
  474MOL0     C63892  12.480  -0.033  -0.453  0.9221 -0.6390  0.6253
  474MOL0     C63893  12.486   0.054  -0.585 -0.1267  0.6931  0.6940
  474MOL0     C63894  12.394   0.002  -0.701  0.2368 -1.2206 -0.4812
  474MOL0     C63895  12.434   0.059  -0.832  0.4010 -0.4584 -0.2371
  474MOL0     C63896  12.518  -0.039  -0.901 -0.0419  0.0672  0.1929
  474MOL0     C63897  12.576   0.021  -1.035 -0.8286 -0.3935 -0.7591
  474MOL0     C63898  12.655  -0.092  -1.109 -0.0334  0.1533  0.2654
  474MOL0    Cl63899  12.795  -0.151  -1.019 -0.5636  0.1457 -0.1919
  474MOL0     C63900  12.006   0.010  -0.459 -0.5011  0.3521  0.4996
  474MOL0     C63901  11.882   0.055  -0.414 -0.2621  0.0991  0.6464
  474MOL0     O63902  11.809   0.315  -0.136  0.0456 -0.0525  0.5854
  474MOL0     C63903  11.534   0.418  -0.133 -0.5759  0.5060 -0.8095
  474MOL0     C63904  11.396   0.449  -0.136 -0.2276  0.1370  0.4007
  474MOL0     N63905  10.728   0.191   0.334  0.0860 -0.6724 -0.1594
  474MOL0     N63906  10.639   0.125   0.405  0.5023 -0.4388  0.0273
  474MOL0     C63907   9.366   0.086   0.719  1.2475 -0.1455 -0.2828
  474MOL0     C63908   9.241   0.144   0.734 -0.6838 -0.5945  1.1028
  474MOL0     C63909   8.869   0.316   0.797 -0.5061 -0.0668 -0.2438
  474MOL0     C63910   8.882   0.413   0.693 -0.2733  0.2114  0.3960
  474MOL0     C63911   8.776   0.462   0.629 -0.4542 -0.9489 -0.2363
  474MOL0     C63912   8.645   0.417   0.654  0.3276  0.0964  0.0906
  474MOL0     O63913   8.534   0.464   0.587 -0.0380  0.0673  0.9501
  474MOL0     C63914   8.472   0.580   0.643 -0.6808 -0.6180 -0.5033
  474MOL0     C63915   8.367   0.635   0.547  0.4927 -0.5811 -0.1511
  474MOL0     C63916   8.225   0.658   0.601 -1.0145  0.6081  0.2957
  474MOL0     C63917   8.174   0.540   0.693  0.4682  0.4879 -1.0029
  474MOL0     C63918   8.033   0.557   0.731 -0.1140 -0.1833  0.3725
  474MOL0     C63919   7.919   0.579   0.763  0.2649  0.6540 -1.0663
  474MOL0     C63920   8.630   0.325   0.755  0.4749  0.5745 -0.4478
  474MOL0     C63921   8.737   0.282   0.836 -0.5648 -0.1313  0.3552
  474MOL0     C63922   8.705   0.196   0.956 -0.1520  0.2529  0.1601
  474MOL0     H63923   9.327   0.435   0.873 -0.6417 -0.8498  0.4918
  474MOL0     H63924   9.555   0.335   0.860  1.4427 -0.4719 -2.4136
  474MOL0     H63925   9.665  -0.074   0.871 -1.3735 -3.3473 -0.8730
  474MOL0     H63926   9.549  -0.099   0.747  0.8465 -3.6685  2.3683
  474MOL0     H63927   9.718   0.000   0.583 -5.8192 -0.3936  1.1779
  474MOL0     H63928   9.751  -0.171   0.635 -2.6958 -1.0456  1.8098
  474MOL0     H63929   9.908  -0.075   0.808 -2.4797 -2.0177 -0.3070
  474MOL0     H63930   9.872   0.085   0.739  0.1146  0.4905  0.0972
  474MOL0     H63931  10.014  -0.152   0.622 -0.0332  0.4718  3.4605
  474MOL0     H63932   9.941  -0.026   0.507  0.6659  5.9075  0.2988
  474MOL0     H63933  10.056   0.151   0.626  0.1676  0.1027 -0.4761
  474MOL0     H63934  10.153   0.026   0.719  0.8066 -0.2615 -0.2697
  474MOL0     H63935  10.229  -0.082   0.519  1.0661  1.2492  1.8252
  474MOL0     H63936  10.128   0.019   0.424 -2.3739  0.7352  2.0697
  474MOL0     H63937  10.377   0.096   0.592  2.1113  0.2733 -0.4741
  474MOL0     H63938  10.295   0.214   0.483  0.0543 -0.1420  0.7768
  474MOL0     H63939  10.444  -0.052   0.417  2.1130  0.4158  0.6240
  474MOL0     H63940  10.338   0.024   0.297 -0.2508  1.2325  0.4854
  474MOL0     H63941  10.451   0.272   0.171 -0.9092  2.6663  1.9706
  474MOL0     H63942  10.654   0.361   0.051 -1.4870  1.9342  1.5499
  474MOL0     H63943  10.737   0.432   0.188  1.8633  0.0456 -0.2335
  474MOL0     H63944  10.915   0.290   0.193  0.5652 -0.6492 -0.7314
  474MOL0     H63945  10.857   0.200   0.043 -0.7535 -0.9028  0.4880
  474MOL0     H63946  10.937   0.491   0.030  0.2366  0.2541  1.0720
  474MOL0     H63947  10.878   0.379  -0.097 -1.4433  0.3046 -0.0551
  474MOL0     H63948  11.067   0.223  -0.072 -0.8172  0.2170  0.2272
  474MOL0     H63949  11.113   0.310   0.076 -0.5902  2.7408  0.3411
  474MOL0     H63950  11.255   0.150  -0.060 -0.4050  1.3112  1.4948
  474MOL0     H63951  11.496   0.084  -0.116 -0.6753 -0.1193  0.6292
  474MOL0     H63952  11.961   0.121  -0.098  1.3051  3.3474 -0.1838
  474MOL0     H63953  12.186   0.101  -0.192  0.2380  1.7690 -1.7600
  474MOL0     H63954  12.363   0.103  -0.316  1.4478  1.1113 -2.9380
  474MOL0     H63955  12.370  -0.070  -0.286 -0.4729 -0.1524  0.0655
  474MOL0     H63956  12.569  -0.025  -0.389 -1.0009 -2.2453  3.7436
  474MOL0     H63957  12.463  -0.138  -0.476 -1.9371  0.1643 -1.5031
  474MOL0     H63958  12.461   0.160  -0.577  1.3709  1.1801 -0.5388
  474MOL0     H63959  12.586   0.046  -0.629 -0.8791 -0.7746 -0.8646
  474MOL0     H63960  12.291   0.029  -0.678 -0.2798 -3.2241 -0.2948
  474MOL0     H63961  12.392  -0.107  -0.697  2.3021 -1.3522 -1.3454
  474MOL0     H63962  12.489   0.153  -0.819  0.2991 -0.3975 -0.2396
  474MOL0     H63963  12.361   0.083  -0.910  2.5437  2.8976 -1.4259
  474MOL0     H63964  12.601  -0.081  -0.843 -2.0682 -0.7177  2.6497
  474MOL0     H63965  12.454  -0.120  -0.936 -1.0207  2.1559 -3.4610
  474MOL0     H63966  12.639   0.110  -1.027 -2.5966  0.8246  0.2031
  474MOL0     H63967  12.494   0.045  -1.103 -0.5127 -1.3547 -1.5162
  474MOL0     H63968  12.583  -0.171  -1.133  0.5059 -0.8992  1.9431
  474MOL0     H63969  12.696  -0.067  -1.207 -0.3705 -0.0147  0.0760
  474MOL0     H63970  12.023  -0.024  -0.561 -0.6459 -0.7810  0.8352
  474MOL0     H63971  11.793   0.034  -0.472 -0.1041 -0.2414  0.5277
  474MOL0     H63972  11.609   0.495  -0.141 -0.5556  0.8191  1.6046
  474MOL0     H63973  11.357   0.550  -0.127  2.9780  1.7692 -2.0638
  474MOL0     H63974   9.354  -0.016   0.682 -0.2260 -0.6604  1.4547
  474MOL0     H63975   9.155   0.088   0.697  0.7859 -1.0496 -1.9516
  474MOL0     H63976   8.974   0.456   0.653  0.6948 -1.4171  0.7533
  474MOL0     H63977   8.781   0.537   0.551  1.7796 -1.6180 -0.8068
  474MOL0     H63978   8.542   0.663   0.654 -2.4016  0.8267  0.2118
  474MOL0     H63979   8.434   0.559   0.744  1.1900 -1.2047  0.1082
  474MOL0     H63980   8.363   0.593   0.446  1.8005  1.8117 -1.2870
  474MOL0     H63981   8.402   0.739   0.541  3.2826 -1.2854  1.6691
  474MOL0     H63982   8.158   0.667   0.515 -1.5767  0.1207  0.6859
  474MOL0     H63983   8.227   0.748   0.663  1.5574  0.4493  0.5737
  474MOL0     H63984   8.189   0.450   0.632 -1.6031  0.4042 -1.4410
  474MOL0     H63985   8.236   0.529   0.783  0.9829  0.3125 -1.3730
  474MOL0     H63986   7.821   0.608   0.796  1.2678 -0.3840  3.5097
  474MOL0     H63987   8.536   0.270   0.760  1.1404 -0.9060 -2.6748
  474MOL0     H63988   8.708   0.088   0.943  3.4355  0.4290 -1.4434
  474MOL0     H63989   8.784   0.219   1.027  0.6471  1.5910 -1.1117
  474MOL0     H63990   8.608   0.223   1.000 -0.2458  0.3999 -0.1298
  475MOL0     O63991   3.494   0.030   5.537  0.6696 -0.2341 -0.1210
  475MOL0     C63992   3.479  -0.015   5.652  0.0157 -0.8952 -0.0478
  475MOL0     O63993   3.563   0.028   5.754  0.4717  0.3856  0.4486
  475MOL0     C63994   3.631   0.148   5.740  0.3333 -0.0174  1.4500
  475MOL0     C63995   3.580   0.256   5.805  0.6367  0.1068  0.0352
  475MOL0     C63996   3.651   0.374   5.808  0.9915 -0.1801  1.0579
  475MOL0     C63997   3.762   0.385   5.727 -0.8260 -0.2550  0.3579
  475MOL0     O63998   3.841   0.501   5.721  0.6762  0.3541  0.4332
  475MOL0     C63999   3.818   0.604   5.817  0.7552 -0.2186  0.5728
  475MOL0     C64000   3.884   0.733   5.758 -1.4442  0.3051 -0.4026
  475MOL0     C64001   4.035   0.721   5.789 -0.5556  0.4105 -0.4464
  475MOL0     C64002   4.103   0.848   5.769  0.0974 -0.3798  0.0177
  475MOL0     C64003   4.260   0.831   5.763 -0.6156 -0.4423 -0.0178
  475MOL0     C64004   4.302   0.759   5.636  0.7541  0.4380  0.1229
  475MOL0     C64005   4.453   0.724   5.631 -0.6350 -1.3138 -0.2687
  475MOL0     C64006   4.487   0.676   5.489  0.7328  0.1117  0.0396
  475MOL0     N64007   4.628   0.637   5.481 -0.5554 -0.1588  0.1330
  475MOL0     C64008   4.692   0.560   5.580  0.2879  0.1363 -0.2564
  475MOL0     C64009   4.822   0.577   5.553 -0.8548  0.1755 -0.4189
  475MOL0     C64010   4.924   0.507   5.632  0.0500  0.3290 -0.4227
  475MOL0     C64011   5.023   0.455   5.535 -1.7544 -0.1027 -0.6900
  475MOL0     C64012   5.123   0.361   5.598 -1.0106  0.1178  0.2075
  475MOL0     C64013   5.235   0.306   5.507  0.4285 -0.6005 -0.0174
  475MOL0     O64014   5.302   0.417   5.451 -0.6676  0.4560  0.7393
  475MOL0     C64015   5.373   0.405   5.335 -0.6895 -0.0999 -0.4822
  475MOL0     C64016   5.407   0.290   5.263 -0.7939 -0.1429  0.3383
  475MOL0     C64017   5.512   0.285   5.163  0.0895 -0.2698  0.2097
  475MOL0     C64018   5.567   0.404   5.110 -0.5535  0.3320 -0.0619
  475MOL0     C64019   5.650   0.402   4.988  0.7266  0.2193  0.4938
  475MOL0     O64020   5.691   0.526   4.940 -0.7974 -0.1092 -0.1037
  475MOL0     C64021   5.734   0.539   4.808 -1.2659  0.9618  0.6085
  475MOL0     C64022   5.660   0.491   4.696 -0.0157 -1.0862 -0.3996
  475MOL0     C64023   5.692   0.526   4.571 -0.4396 -0.5632 -0.3761
  475MOL0     C64024   5.812   0.597   4.547 -0.2804  1.0925  0.5250
  475MOL0     O64025   5.847   0.626   4.416  0.3848 -0.2343 -0.3336
  475MOL0     C64026   5.959   0.713   4.392 -0.4860 -1.2088 -0.0274
  475MOL0     C64027   5.995   0.728   4.244  0.1747  0.8440  0.0401
  475MOL0     C64028   6.078   0.841   4.191 -0.0043  0.5611 -0.4619
  475MOL0     C64029   6.214   0.852   4.258  0.6474 -0.3604  0.2224
  475MOL0     C64030   6.312   0.934   4.175  0.0846 -0.1612 -0.1480
  475MOL0     C64031   6.454   0.935   4.231  0.0672 -1.1770 -0.4994
  475MOL0     C64032   6.537   1.051   4.178  0.1444  0.9935  0.6674
  475MOL0     C64033   6.690   1.045   4.205  0.5565 -0.0752 -0.9297
  475MOL0    Cl64034   6.775   0.909   4.136 -0.1022 -0.1426 -0.1225
  475MOL0     C64035   5.887   0.638   4.659  0.1413  0.8493 -0.4868
  475MOL0     C64036   5.847   0.611   4.788 -0.6177 -0.0510 -0.3658
  475MOL0     O64037   5.685   0.294   4.941 -0.0523 -0.4615 -0.4024
  475MOL0     C64038   5.534   0.516   5.186  0.1082 -0.3432  0.2187
  475MOL0     C64039   5.448   0.516   5.296  0.9915  0.3368 -0.1941
  475MOL0     N64040   4.840   0.656   5.442  0.0878  0.3151  0.1541
  475MOL0     N64041   4.727   0.693   5.401 -0.6434  0.7314 -0.1473
  475MOL0     C64042   3.815   0.282   5.652  0.4292 -0.0279  0.1814
  475MOL0     C64043   3.746   0.157   5.655 -0.3849 -0.5466 -0.0770
  475MOL0     C64044   3.382  -0.119   5.686  0.4987 -0.2031  0.0638
  475MOL0     C64045   3.415  -0.203   5.795  1.3821 -0.8866  0.8847
  475MOL0     C64046   3.329  -0.304   5.835 -0.3338  0.0226 -0.2964
  475MOL0     C64047   3.210  -0.332   5.772  0.2488  0.4165  0.1101
  475MOL0     O64048   3.124  -0.434   5.789  0.0445  0.6664  0.4265
  475MOL0     C64049   3.173  -0.554   5.833  0.3800 -0.2599 -0.1878
  475MOL0     C64050   3.064  -0.664   5.831  0.4551 -0.7579 -0.1746
  475MOL0     C64051   2.931  -0.624   5.883  0.2812  0.5367  0.2468
  475MOL0     C64052   2.829  -0.736   5.861 -0.4886 -0.5637  0.4133
  475MOL0     C64053   2.697  -0.690   5.901  0.2510 -0.1659 -0.9514
  475MOL0     C64054   2.586  -0.644   5.897 -0.5152 -0.3087 -0.4755
  475MOL0     C64055   3.184  -0.254   5.664  0.6665  0.2152  0.0277
  475MOL0     C64056   3.258  -0.141   5.619  0.6858  0.0352 -0.3965
  475MOL0     C64057   3.216  -0.049   5.509 -0.6213  0.2824  0.9852
  475MOL0     H64058   3.502   0.240   5.879  4.8119 -2.1590  4.4893
  475MOL0     H64059   3.607   0.453   5.868 -0.8182 -1.6459  1.7717
  475MOL0     H64060   3.710   0.622   5.821  0.6157  1.6999 -4.5206
  475MOL0     H64061   3.863   0.577   5.913  1.6564 -3.2717 -0.5817
  475MOL0     H64062   3.849   0.826   5.804 -0.0092  0.0148  1.4163
  475MOL0     H64063   3.866   0.739   5.651  0.0168 -1.6210 -0.8112
  475MOL0     H64064   4.073   0.641   5.724 -2.9716  0.2349 -1.7685
  475MOL0     H64065   4.040   0.691   5.894 -1.7455  3.6808  0.6620
  475MOL0     H64066   4.064   0.892   5.677 -1.2047  2.3591  1.7772
  475MOL0     H64067   4.068   0.916   5.847 -0.5169 -2.7457  1.9617
  475MOL0     H64068   4.303   0.931   5.769 -2.5967  0.4905 -0.5591
  475MOL0     H64069   4.302   0.779   5.850 -2.8031 -2.2509  0.0540
  475MOL0     H64070   4.251   0.662   5.629 -1.4165  1.6300 -1.8204
  475MOL0     H64071   4.273   0.819   5.549  2.4086 -1.0135 -1.5205
  475MOL0     H64072   4.486   0.653   5.707  1.5253 -1.0635 -0.9156
  475MOL0     H64073   4.505   0.819   5.640 -3.1206  0.3444 -2.1409
  475MOL0     H64074   4.427   0.591   5.453  0.0700  0.4402  0.3482
  475MOL0     H64075   4.476   0.753   5.412 -0.3910 -0.8468 -0.7924
  475MOL0     H64076   4.645   0.509   5.664 -1.5367  2.3074  0.1577
  475MOL0     H64077   4.980   0.568   5.703 -0.1128  1.5344 -1.3099
  475MOL0     H64078   4.891   0.420   5.689  1.8919 -0.2128 -0.1196
  475MOL0     H64079   4.971   0.402   5.455 -2.0165 -2.4069  0.9066
  475MOL0     H64080   5.080   0.539   5.495  1.9578 -1.8708  0.4746
  475MOL0     H64081   5.064   0.277   5.638 -3.5854  1.5971 -0.2673
  475MOL0     H64082   5.177   0.416   5.676 -2.0698 -0.2161  1.2095
  475MOL0     H64083   5.193   0.237   5.433  1.5870 -1.1535 -0.1823
  475MOL0     H64084   5.304   0.248   5.569  0.2449  0.5922  1.3614
  475MOL0     H64085   5.371   0.191   5.288  0.4435 -2.3726 -5.2381
  475MOL0     H64086   5.542   0.194   5.112 -0.2252 -0.8069  0.9759
  475MOL0     H64087   5.567   0.438   4.712 -1.6484  1.7177  0.0180
  475MOL0     H64088   5.640   0.480   4.488  0.7010 -0.3099 -1.2567
  475MOL0     H64089   5.935   0.810   4.435 -0.0623 -0.0371 -2.2930
  475MOL0     H64090   6.054   0.684   4.437  0.2102  0.2991 -0.4790
  475MOL0     H64091   6.043   0.632   4.223 -1.1096 -0.7172  3.4907
  475MOL0     H64092   5.903   0.720   4.184 -0.5117  3.5322  0.5980
  475MOL0     H64093   6.111   0.818   4.090  1.2162  1.3376 -0.2588
  475MOL0     H64094   6.015   0.930   4.198 -1.5156 -0.4556 -0.6338
  475MOL0     H64095   6.256   0.756   4.285  1.7151 -0.0186 -0.1898
  475MOL0     H64096   6.196   0.911   4.349 -1.5514 -0.7238  0.0862
  475MOL0     H64097   6.276   1.037   4.178 -1.6013 -0.7318  0.3329
  475MOL0     H64098   6.306   0.907   4.069 -1.6986  1.3840 -0.4920
  475MOL0     H64099   6.438   0.961   4.336  1.1130  0.2228 -0.6607
  475MOL0     H64100   6.508   0.842   4.212  0.0988 -0.9797 -1.3842
  475MOL0     H64101   6.501   1.146   4.219 -3.8688 -0.0802  0.0935
  475MOL0     H64102   6.513   1.060   4.072 -1.4370 -0.0396  0.8848
  475MOL0     H64103   6.739   1.138   4.173 -0.6207  0.4215 -1.3360
  475MOL0     H64104   6.696   1.049   4.314 -2.7814 -2.4299 -0.4955
  475MOL0     H64105   5.975   0.701   4.657  0.6790  0.3210  2.3674
  475MOL0     H64106   5.903   0.658   4.867 -1.5746  1.7868 -0.7304
  475MOL0     H64107   5.575   0.614   5.166  1.5694 -1.1067 -0.6782
  475MOL0     H64108   5.426   0.606   5.352 -2.2983 -0.6307  0.2560
  475MOL0     H64109   3.909   0.294   5.599  0.3871 -2.4794 -0.5837
  475MOL0     H64110   3.773   0.058   5.622 -4.2734 -1.9272  0.3826
  475MOL0     H64111   3.514  -0.209   5.841  0.9589  1.0765  2.1951
  475MOL0     H64112   3.362  -0.362   5.921 -0.5229  0.6151  0.1873
  475MOL0     H64113   3.211  -0.545   5.936  3.2615  1.7716 -1.2964
  475MOL0     H64114   3.266  -0.575   5.778  1.2415  1.6135  0.4718
  475MOL0     H64115   3.094  -0.756   5.880  1.6633  0.8395  2.2659
  475MOL0     H64116   3.038  -0.681   5.726 -0.8258 -0.4927  0.0798
  475MOL0     H64117   2.889  -0.539   5.829 -1.3858 -0.2117  0.2911
  475MOL0     H64118   2.948  -0.595   5.987  0.5018  0.8155  0.1319
  475MOL0     H64119   2.827  -0.783   5.761  2.0803  0.9074 -0.4049
  475MOL0     H64120   2.851  -0.807   5.942  2.6033  0.4660  0.6020
  475MOL0     H64121   2.492  -0.593   5.899  0.3551  1.3774  2.4524
  475MOL0     H64122   3.092  -0.273   5.610  2.1610 -2.2501 -1.8757
  475MOL0     H64123   3.224   0.053   5.548 -1.1799 -0.2191  2.4539
  475MOL0     H64124   3.282  -0.053   5.422  1.1597  1.9838  2.1857
  475MOL0     H64125   3.111  -0.059   5.478 -0.1756 -1.3915 -0.1161
  476MOL0     O64126  10.305   4.479   5.841 -0.4848 -0.2552 -0.0855
  476MOL0     C64127  10.238   4.416   5.913 -0.4841  0.6843  0.0911
  476MOL0     O64128  10.280   4.311   5.989 -0.0910  0.2629  0.4964
  476MOL0     C64129  10.414   4.270   5.984 -0.8510  0.0201 -0.1107
  476MOL0     C64130  10.525   4.355   6.003  0.4455  0.3681  0.2192
  476MOL0     C64131  10.654   4.303   6.002  0.0274 -0.4740  0.2031
  476MOL0     C64132  10.679   4.164   6.004  0.8077 -0.6760  0.6228
  476MOL0     O64133  10.794   4.095   6.036  0.4737 -0.2110  0.8579
  476MOL0     C64134  10.908   4.148   5.975 -0.2607 -0.4636  1.1075
  476MOL0     C64135  11.026   4.047   5.983  0.0302 -1.3749 -0.2546
  476MOL0     C64136  11.054   3.997   6.124 -0.3420  1.0601  0.1096
  476MOL0     C64137  11.195   3.941   6.128 -0.3055  0.1509 -0.4534
  476MOL0     C64138  11.218   3.852   6.257 -0.3276 -0.1890  0.3409
  476MOL0     C64139  11.342   3.779   6.247 -0.4738 -0.1489 -0.4792
  476MOL0     C64140  11.356   3.663   6.345  0.1465  0.2649 -0.8415
  476MOL0     C64141  11.364   3.711   6.489  0.2383 -0.3406 -0.1430
  476MOL0     N64142  11.405   3.602   6.582  1.0102  0.4763 -0.1996
  476MOL0     C64143  11.375   3.470   6.568 -0.1334  0.3723 -0.8364
  476MOL0     C64144  11.436   3.419   6.681 -0.1951  0.2977  0.1267
  476MOL0     C64145  11.447   3.270   6.713 -0.4030  0.0025 -0.8349
  476MOL0     C64146  11.587   3.230   6.758 -0.7511 -0.1668  0.2075
  476MOL0     C64147  11.693   3.236   6.642 -0.6871  0.0272 -0.0869
  476MOL0     C64148  11.831   3.192   6.702 -0.1243 -1.1073 -0.4292
  476MOL0     O64149  11.845   3.051   6.717  0.3346  0.0298 -0.0892
  476MOL0     C64150  11.964   2.996   6.757  1.3218  0.4072 -0.3894
  476MOL0     C64151  11.962   2.859   6.779 -0.5881 -0.0652  0.1862
  476MOL0     C64152  12.077   2.793   6.837 -0.0873  0.2539 -0.9284
  476MOL0     C64153  12.190   2.866   6.865 -0.0806 -0.4814  0.2826
  476MOL0     C64154  12.305   2.798   6.931 -0.1649 -0.1752  0.3287
  476MOL0     O64155  12.428   2.869   6.945  0.1505  0.1655 -0.2911
  476MOL0     C64156  12.521   2.811   7.026 -0.2879 -0.9193  0.2543
  476MOL0     C64157  12.637   2.781   6.963 -0.1266  0.4135  0.4002
  476MOL0     C64158  12.743   2.727   7.029 -0.0744  0.5325  0.0053
  476MOL0     C64159  12.727   2.690   7.161 -0.3191  0.0038 -0.4059
  476MOL0     O64160  12.832   2.626   7.222  0.3269  1.6017  0.0048
  476MOL0     C64161  12.890   2.680   7.344 -0.2109 -0.3433 -0.7314
  476MOL0     C64162  13.043   2.693   7.333  0.1941 -0.6518 -0.4473
  476MOL0     C64163  13.091   2.820   7.260 -0.0908  0.8938 -0.3078
  476MOL0     C64164  13.201   2.782   7.155 -0.1771 -0.2060  0.6886
  476MOL0     C64165  13.231   2.879   7.034  0.2250 -0.4316  0.0778
  476MOL0     C64166  13.110   2.908   6.950  0.1424 -0.2280  0.0074
  476MOL0     C64167  13.137   2.910   6.800  0.2057 -0.5146 -0.1368
  476MOL0     C64168  13.195   3.042   6.755 -0.4978  0.1359  0.1846
  476MOL0    Cl64169  13.343   3.068   6.829  0.5920 -0.6151 -0.2493
  476MOL0     C64170  12.606   2.705   7.227  0.5282 -0.3833 -0.3631
  476MOL0     C64171  12.495   2.771   7.158  0.3443 -0.3219  1.0055
  476MOL0     O64172  12.288   2.684   6.962  0.2284  0.6157  0.5222
  476MOL0     C64173  12.196   3.003   6.838  0.3227  0.9134 -0.1047
  476MOL0     C64174  12.075   3.069   6.797  0.0545  0.2266 -0.5076
  476MOL0     N64175  11.514   3.511   6.742  0.2954  0.8003 -0.1642
  476MOL0     N64176  11.506   3.614   6.673 -0.3856 -0.9649 -0.7407
  476MOL0     C64177  10.565   4.091   6.004 -0.7160 -0.3827  0.5071
  476MOL0     C64178  10.435   4.131   5.993  0.6595 -0.2938 -0.2251
  476MOL0     C64179  10.095   4.446   5.937  0.2007 -0.2214  0.3643
  476MOL0     C64180  10.031   4.381   6.045  0.1856  0.8553 -0.6654
  476MOL0     C64181   9.894   4.400   6.077 -0.2305 -0.2861  0.0950
  476MOL0     C64182   9.812   4.483   6.001  0.7157  0.1711 -0.0008
  476MOL0     O64183   9.674   4.500   6.029 -0.3254  0.4794 -0.1562
  476MOL0     C64184   9.605   4.594   5.950  0.0175  0.2550  1.1943
  476MOL0     C64185   9.568   4.523   5.813  0.2909 -0.9134  0.7884
  476MOL0     C64186   9.528   4.637   5.720  0.0342  0.8218  0.0006
  476MOL0     C64187   9.516   4.599   5.571 -0.2793  0.8526  0.0229
  476MOL0     C64188   9.653   4.587   5.502 -0.4171 -0.5549  0.3162
  476MOL0     C64189   9.758   4.587   5.459 -0.3342 -0.2236  0.0472
  476MOL0     C64190   9.872   4.546   5.888  0.5736 -0.5404  0.4602
  476MOL0     C64191  10.008   4.531   5.857 -0.1988  0.4477 -0.6270
  476MOL0     C64192  10.072   4.621   5.752 -0.2361  0.2105 -1.0432
  476MOL0     H64193  10.515   4.462   5.990 -0.2012  0.0688 -2.3829
  476MOL0     H64194  10.733   4.377   6.004  0.5481 -1.0071 -0.0353
  476MOL0     H64195  10.892   4.181   5.873  1.7451 -2.8126 -0.0785
  476MOL0     H64196  10.941   4.234   6.035  2.3031 -1.6761  1.5847
  476MOL0     H64197  11.110   4.110   5.952  0.5666 -0.9824  1.7960
  476MOL0     H64198  11.013   3.962   5.916  0.1965 -3.8831  2.6895
  476MOL0     H64199  10.984   3.915   6.143 -0.3260  1.6246  3.1585
  476MOL0     H64200  11.041   4.072   6.203  2.1409  0.4992  1.1190
  476MOL0     H64201  11.226   3.887   6.038  1.4602  2.4578 -1.3217
  476MOL0     H64202  11.259   4.029   6.139 -0.1462 -0.2383  2.7281
  476MOL0     H64203  11.226   3.916   6.345  0.7356  2.6037 -1.6345
  476MOL0     H64204  11.132   3.785   6.266 -3.6671  3.4077 -1.2792
  476MOL0     H64205  11.356   3.735   6.148  0.4072  2.3028 -1.5096
  476MOL0     H64206  11.416   3.856   6.271  1.2330 -1.2455 -1.9540
  476MOL0     H64207  11.453   3.613   6.341  1.4416  2.6666 -1.0064
  476MOL0     H64208  11.269   3.602   6.318 -0.6253  1.3163 -0.7531
  476MOL0     H64209  11.437   3.793   6.489  0.5889 -0.5792 -2.7073
  476MOL0     H64210  11.267   3.750   6.521  0.2058 -0.9019  0.4645
  476MOL0     H64211  11.329   3.423   6.481 -1.3005  0.4844 -0.3036
  476MOL0     H64212  11.375   3.250   6.793  0.7980 -1.4744 -0.0694
  476MOL0     H64213  11.405   3.208   6.632 -0.0616 -3.4001  1.3912
  476MOL0     H64214  11.618   3.294   6.841  2.4254 -2.1965  0.7606
  476MOL0     H64215  11.568   3.131   6.801 -2.2004 -0.4914 -1.0814
  476MOL0     H64216  11.704   3.339   6.607  2.0102 -0.5468 -1.2292
  476MOL0     H64217  11.661   3.173   6.558 -2.6797  1.7365 -0.6673
  476MOL0     H64218  11.843   3.240   6.799 -2.4708 -0.7573 -0.2585
  476MOL0     H64219  11.902   3.242   6.635  0.8509 -0.6138  0.9175
  476MOL0     H64220  11.876   2.793   6.791 -1.9323  1.4617 -0.6193
  476MOL0     H64221  12.068   2.694   6.880  2.5646  1.4912  3.0813
  476MOL0     H64222  12.636   2.796   6.856 -0.5307 -1.2293  0.1433
  476MOL0     H64223  12.839   2.702   6.985 -0.8461 -0.4243 -1.1881
  476MOL0     H64224  12.834   2.769   7.374  0.5822  0.0568 -0.4156
  476MOL0     H64225  12.868   2.602   7.418  2.8705  0.9815  1.7857
  476MOL0     H64226  13.084   2.696   7.434 -0.9246 -1.1550  0.0316
  476MOL0     H64227  13.082   2.602   7.287 -0.0263 -1.1914  0.4155
  476MOL0     H64228  13.004   2.858   7.206 -0.7852  1.5469  1.2062
  476MOL0     H64229  13.117   2.907   7.321 -0.1891  0.8595 -0.2174
  476MOL0     H64230  13.161   2.690   7.111  3.1280 -1.1234 -0.6632
  476MOL0     H64231  13.291   2.754   7.210  0.7509  0.9415 -0.2104
  476MOL0     H64232  13.301   2.829   6.967 -0.8620 -1.0914 -0.5940
  476MOL0     H64233  13.285   2.967   7.070  2.4626 -1.5631 -0.3443
  476MOL0     H64234  13.034   2.832   6.967 -1.5053  1.5432  0.9685
  476MOL0     H64235  13.072   3.005   6.985 -0.5658 -1.1042  1.7935
  476MOL0     H64236  13.043   2.898   6.745  0.6238 -1.2365 -0.7183
  476MOL0     H64237  13.195   2.823   6.769  0.7035 -0.4464  0.5841
  476MOL0     H64238  13.218   3.034   6.649  1.3558 -4.2436  0.7090
  476MOL0     H64239  13.131   3.128   6.776  0.3348  0.9799 -0.6490
  476MOL0     H64240  12.595   2.678   7.332  3.9020 -0.2969  0.1296
  476MOL0     H64241  12.398   2.792   7.202  1.1001 -0.6655  2.9440
  476MOL0     H64242  12.279   3.066   6.867  1.5731  0.3035 -2.1315
  476MOL0     H64243  12.065   3.176   6.813  1.0536  0.2421  0.1262
  476MOL0     H64244  10.572   3.990   6.045  1.0304  0.3714  2.2451
  476MOL0     H64245  10.350   4.064   6.002 -0.4883  1.2161  0.8261
  476MOL0     H64246  10.085   4.310   6.106  0.4634  1.9015  0.3356
  476MOL0     H64247   9.861   4.346   6.165 -0.1988 -1.8843 -0.8364
  476MOL0     H64248   9.666   4.685   5.944 -0.0996  0.2423 -0.6982
  476MOL0     H64249   9.510   4.619   6.000 -0.6407 -1.2163  0.7368
  476MOL0     H64250   9.486   4.454   5.837  0.4703 -3.1850 -4.0267
  476MOL0     H64251   9.649   4.463   5.771  1.7920  1.0100  0.7678
  476MOL0     H64252   9.598   4.721   5.728 -0.1546  0.9657  0.1282
  476MOL0     H64253   9.436   4.682   5.758 -0.6067 -3.2107  4.1817
  476MOL0     H64254   9.455   4.510   5.553  0.6422 -0.0368  1.1944
  476MOL0     H64255   9.455   4.676   5.522 -2.3949  0.8531  2.4563
  476MOL0     H64256   9.860   4.581   5.425 -0.1861 -4.9476  0.6063
  476MOL0     H64257   9.813   4.605   5.819  1.0180  1.1806  1.4737
  476MOL0     H64258  10.006   4.697   5.710  0.8490  0.6595 -2.0073
  476MOL0     H64259  10.150   4.681   5.799 -1.2540  1.2834 -0.7111
  476MOL0     H64260  10.117   4.556   5.676  1.5203 -0.9360  0.8760
  477MOL0     O64261  11.259   6.758   7.495 -0.2071 -0.2197  0.6786
  477MOL0     C64262  11.166   6.827   7.538  0.1920  1.1189  0.8896
  477MOL0     O64263  11.176   6.901   7.654  0.3578  0.1523  0.1892
  477MOL0     C64264  11.276   6.883   7.744  0.3660  0.2889 -0.4391
  477MOL0     C64265  11.332   6.754   7.789 -0.5309 -0.3024 -0.2750
  477MOL0     C64266  11.429   6.753   7.887 -0.4757  0.2160 -0.0216
  477MOL0     C64267  11.469   6.872   7.937 -0.9975  0.1920 -0.6530
  477MOL0     O64268  11.568   6.890   8.032 -0.3935  0.1820 -0.2526
  477MOL0     C64269  11.668   6.794   8.061  0.0171 -0.6128  0.1692
  477MOL0     C64270  11.804   6.839   8.105  0.5134 -0.0972  0.6984
  477MOL0     C64271  11.894   6.746   8.177  0.8619  0.2472  1.3235
  477MOL0     C64272  12.040   6.790   8.177 -0.0397 -0.2921  0.2060
  477MOL0     C64273  12.076   6.928   8.239  0.0042 -0.2746  0.0462
  477MOL0     C64274  12.226   6.941   8.261  0.0143  0.3974 -0.1687
  477MOL0     C64275  12.250   7.086   8.298  0.5172  0.4495 -0.6704
  477MOL0     C64276  12.182   7.121   8.431  0.6825  0.1650 -0.8320
  477MOL0     N64277  12.234   7.250   8.488  0.2474 -0.1411  0.3055
  477MOL0     C64278  12.360   7.267   8.536 -0.6770 -0.4902 -0.1447
  477MOL0     C64279  12.365   7.396   8.577 -0.6181 -0.7979 -0.1938
  477MOL0     C64280  12.483   7.476   8.627 -1.4249  0.1311 -0.2914
  477MOL0     C64281  12.614   7.391   8.650  0.3510 -0.2465  0.1836
  477MOL0     C64282  12.677   7.359   8.510 -0.1767 -0.1721  0.3692
  477MOL0     C64283  12.781   7.252   8.527 -0.4910  0.3532  0.0701
  477MOL0     O64284  12.908   7.318   8.544  0.4176 -0.2422  0.6042
  477MOL0     C64285  13.015   7.258   8.610  0.8451  0.2392  0.0645
  477MOL0     C64286  13.134   7.329   8.628  0.0825 -0.1363  0.2663
  477MOL0     C64287  13.249   7.263   8.669  0.0391  0.0477 -0.0886
  477MOL0     C64288  13.247   7.121   8.696 -0.6893 -0.0194 -0.3876
  477MOL0     C64289  13.376   7.059   8.711  0.0957  0.4836  0.4410
  477MOL0     O64290  13.489   7.135   8.697 -0.2548  0.5114 -0.7112
  477MOL0     C64291  13.603   7.070   8.717 -0.2174 -0.8290  0.2582
  477MOL0     C64292  13.662   7.054   8.842  0.1877 -1.6107  0.4238
  477MOL0     C64293  13.783   6.990   8.868 -0.0882 -0.4810  0.7274
  477MOL0     C64294  13.841   6.927   8.763 -0.4472  0.4833 -0.3165
  477MOL0     O64295  13.955   6.862   8.795  0.2883 -0.3397  0.0613
  477MOL0     C64296  14.005   6.770   8.701  0.0542 -1.0106 -0.2664
  477MOL0     C64297  14.138   6.704   8.747 -0.7248 -0.4622 -0.2487
  477MOL0     C64298  14.167   6.572   8.671  0.7131 -0.1669  0.0428
  477MOL0     C64299  14.285   6.484   8.729  0.0919  0.3589  0.6303
  477MOL0     C64300  14.306   6.357   8.651  0.2248 -0.0392 -0.6556
  477MOL0     C64301  14.387   6.367   8.511 -0.2693  0.2161 -0.3415
  477MOL0     C64302  14.411   6.223   8.441 -0.3347  0.6387 -0.2087
  477MOL0     C64303  14.478   6.251   8.303  0.0755 -0.0187  0.2567
  477MOL0    Cl64304  14.621   6.347   8.321  0.4835 -0.1002  0.1624
  477MOL0     C64305  13.796   6.951   8.634 -0.1769  0.2355 -0.5332
  477MOL0     C64306  13.671   7.016   8.611 -0.0621 -0.2216  0.4429
  477MOL0     O64307  13.363   6.940   8.738  0.3418  0.8900  0.4617
  477MOL0     C64308  13.124   7.047   8.683  0.5056 -0.2325 -0.0753
  477MOL0     C64309  13.008   7.120   8.643  0.8077  0.0657 -0.1394
  477MOL0     N64310  12.242   7.453   8.550 -0.8268 -0.4984 -0.0895
  477MOL0     N64311  12.165   7.369   8.499  0.9623 -0.5676  0.0003
  477MOL0     C64312  11.405   6.991   7.914  0.4745  0.3850 -0.4816
  477MOL0     C64313  11.308   6.997   7.821 -0.5622  0.4223  0.0665
  477MOL0     C64314  11.036   6.814   7.474  0.1434  0.9091  1.0612
  477MOL0     C64315  10.933   6.883   7.544  0.2559  0.0130  0.2660
  477MOL0     C64316  10.807   6.879   7.484 -0.3107  0.3594 -0.3254
  477MOL0     C64317  10.770   6.814   7.370 -0.1686 -0.0946 -0.2382
  477MOL0     O64318  10.638   6.802   7.341  0.1495 -0.5008 -0.4526
  477MOL0     C64319  10.582   6.903   7.242 -0.5585  0.7093 -1.2509
  477MOL0     C64320  10.590   6.841   7.100 -0.0532 -0.2698 -0.4599
  477MOL0     C64321  10.518   6.711   7.067 -0.1410 -0.0144 -0.6134
  477MOL0     C64322  10.357   6.720   7.062  0.1023 -0.1171  0.4146
  477MOL0     C64323  10.300   6.711   7.203 -0.4919 -0.9929 -0.5577
  477MOL0     C64324  10.267   6.724   7.320  0.1016 -0.5283 -0.7364
  477MOL0     C64325  10.870   6.742   7.298 -0.0405  0.8022 -0.8830
  477MOL0     C64326  11.006   6.746   7.349 -0.4398  0.1301 -1.0900
  477MOL0     C64327  11.103   6.657   7.271  0.7495  0.0517 -0.4478
  477MOL0     H64328  11.292   6.657   7.761  0.3020 -1.3308  1.9226
  477MOL0     H64329  11.471   6.657   7.915 -1.9250 -0.0872  1.2521
  477MOL0     H64330  11.632   6.735   8.146  1.0460 -2.3020 -0.5079
  477MOL0     H64331  11.691   6.732   7.974  2.0350 -1.3229  1.1317
  477MOL0     H64332  11.781   6.917   8.178 -0.9423 -0.1616  0.3318
  477MOL0     H64333  11.850   6.881   8.014  1.1763  1.0122  1.5241
  477MOL0     H64334  11.880   6.644   8.140 -0.0806  1.3926 -1.8575
  477MOL0     H64335  11.852   6.741   8.278 -0.0324 -1.1622  0.9091
  477MOL0     H64336  12.095   6.708   8.223 -0.5301 -0.1117  1.1311
  477MOL0     H64337  12.083   6.781   8.076  1.0373  1.1177  0.5035
  477MOL0     H64338  12.033   7.000   8.169  1.6118  0.6690 -0.0209
  477MOL0     H64339  12.021   6.941   8.333  1.8469  0.5863  1.0547
  477MOL0     H64340  12.245   6.876   8.346 -1.7629  0.7626  0.5496
  477MOL0     H64341  12.278   6.919   8.167 -0.6124 -1.7730 -0.0531
  477MOL0     H64342  12.210   7.157   8.224  1.1861  1.4410 -0.1130
  477MOL0     H64343  12.356   7.110   8.308  0.6416 -0.0886 -0.6970
  477MOL0     H64344  12.073   7.130   8.422  0.1048 -0.5716  3.2558
  477MOL0     H64345  12.194   7.035   8.498 -4.3531 -0.9267 -0.9650
  477MOL0     H64346  12.430   7.184   8.540 -2.2770 -1.8414  1.1379
  477MOL0     H64347  12.506   7.571   8.576  0.8665 -0.0440  0.3083
  477MOL0     H64348  12.452   7.514   8.725  0.4593  1.5582 -0.1719
  477MOL0     H64349  12.688   7.438   8.715 -1.5315 -0.9032  2.9457
  477MOL0     H64350  12.595   7.300   8.708 -2.7031  2.0787  3.2268
  477MOL0     H64351  12.717   7.450   8.463  1.0517 -0.3285  1.0547
  477MOL0     H64352  12.603   7.319   8.440  1.8976 -2.0688 -0.8870
  477MOL0     H64353  12.788   7.206   8.428 -0.4064 -4.4707  2.0333
  477MOL0     H64354  12.757   7.175   8.601 -0.9743  1.4740  1.1108
  477MOL0     H64355  13.142   7.432   8.594 -2.2677  0.5344  1.4772
  477MOL0     H64356  13.347   7.309   8.658  0.6013 -0.6018  1.8456
  477MOL0     H64357  13.628   7.116   8.924  1.8468 -0.4362  0.2674
  477MOL0     H64358  13.829   6.986   8.966  0.8519  2.0920  0.4736
  477MOL0     H64359  13.932   6.696   8.669  0.4707 -2.3740  1.7748
  477MOL0     H64360  14.033   6.819   8.607  0.5774  0.3628  0.5727
  477MOL0     H64361  14.223   6.771   8.732  0.9129 -1.9373  1.8471
  477MOL0     H64362  14.132   6.688   8.855 -0.3150  2.5150  0.3063
  477MOL0     H64363  14.077   6.510   8.673  0.3466  0.2439 -2.1238
  477MOL0     H64364  14.177   6.590   8.564 -0.8219  0.2199 -0.0616
  477MOL0     H64365  14.273   6.467   8.837 -1.9093  0.8515  0.5245
  477MOL0     H64366  14.378   6.541   8.717 -0.3713  1.0381  0.1823
  477MOL0     H64367  14.211   6.305   8.638  0.1217 -0.2740  0.8519
  477MOL0     H64368  14.366   6.286   8.710  0.4451  0.0105 -0.8175
  477MOL0     H64369  14.328   6.432   8.446 -2.3008  0.7448  1.8574
  477MOL0     H64370  14.487   6.409   8.525  0.4651 -1.4049 -0.6233
  477MOL0     H64371  14.323   6.160   8.432 -0.1211  0.3853 -0.5777
  477MOL0     H64372  14.481   6.154   8.489 -0.0662 -0.5262 -2.1939
  477MOL0     H64373  14.494   6.167   8.235  0.5931  0.6665 -0.4811
  477MOL0     H64374  14.410   6.312   8.244 -0.0480 -1.2351 -0.9042
  477MOL0     H64375  13.844   6.905   8.548 -0.8616 -1.2406 -0.1534
  477MOL0     H64376  13.626   7.022   8.512 -2.5984  3.3405  1.6068
  477MOL0     H64377  13.136   6.940   8.687 -0.6857 -0.3811 -0.2382
  477MOL0     H64378  12.917   7.061   8.634  1.0435 -0.8699  2.6013
  477MOL0     H64379  11.435   7.088   7.952 -0.6880  0.7753 -0.5238
  477MOL0     H64380  11.269   7.092   7.785  3.4241  1.2138 -2.8520
  477MOL0     H64381  10.938   6.925   7.644 -0.4796 -1.6805  1.0731
  477MOL0     H64382  10.725   6.927   7.536  1.5101  1.3785  1.8086
  477MOL0     H64383  10.648   6.990   7.239 -0.2238  0.4407 -2.4498
  477MOL0     H64384  10.481   6.938   7.262 -2.2581 -4.0969 -0.0573
  477MOL0     H64385  10.698   6.827   7.088  0.3016 -0.6141  2.4086
  477MOL0     H64386  10.556   6.917   7.029 -1.1685 -0.1280  0.2079
  477MOL0     H64387  10.545   6.630   7.135 -1.1977 -1.2998 -1.6777
  477MOL0     H64388  10.552   6.667   6.972 -1.0639 -3.6043  0.5487
  477MOL0     H64389  10.314   6.801   7.002 -2.9371  0.3748  3.0190
  477MOL0     H64390  10.331   6.629   7.007 -0.2217 -0.6027  1.3544
  477MOL0     H64391  10.252   6.735   7.425  0.5259 -0.1994 -0.7116
  477MOL0     H64392  10.845   6.672   7.219  3.0182 -3.0897  1.2297
  477MOL0     H64393  11.150   6.578   7.329 -0.3259 -0.2666  0.0221
  477MOL0     H64394  11.046   6.604   7.193 -0.7437  0.9525 -0.0132
  477MOL0     H64395  11.178   6.720   7.223 -0.0372 -1.7909 -4.5858
  478MOL0     O64396   3.204   8.069   4.930 -0.0897 -0.6870  0.7340
  478MOL0     C64397   3.127   8.147   4.874  0.5234 -1.2372  0.4539
  478MOL0     O64398   3.168   8.254   4.798 -0.3204  0.7487  0.0754
  478MOL0     C64399   3.295   8.258   4.741 -0.3841  0.0776 -0.7325
  478MOL0     C64400   3.387   8.352   4.775 -0.2117  0.3313  0.0725
  478MOL0     C64401   3.521   8.338   4.729 -0.7053  0.9412 -0.1966
  478MOL0     C64402   3.555   8.226   4.641 -0.5775  0.3599 -0.2165
  478MOL0     O64403   3.684   8.229   4.588 -0.1718  0.1715  0.0130
  478MOL0     C64404   3.687   8.236   4.449  0.3295 -0.1445  1.1786
  478MOL0     C64405   3.812   8.324   4.416 -0.0842 -0.5895  0.4681
  478MOL0     C64406   3.850   8.445   4.496 -0.1379 -0.4858  0.1903
  478MOL0     C64407   3.748   8.561   4.480 -0.0364  0.7011 -0.7330
  478MOL0     C64408   3.775   8.684   4.579  2.2804  0.2495 -0.3364
  478MOL0     C64409   3.700   8.665   4.720  0.0872 -0.3847 -0.7568
  478MOL0     C64410   3.709   8.790   4.798 -0.3942 -0.9108 -0.5092
  478MOL0     C64411   3.672   8.770   4.951  0.0315  0.1011 -0.1100
  478MOL0     N64412   3.529   8.797   4.977 -0.4348  0.7951 -0.4377
  478MOL0     C64413   3.476   8.815   5.094 -0.5583 -0.9215  0.4701
  478MOL0     C64414   3.347   8.857   5.067 -0.0264 -0.4849  0.0675
  478MOL0     C64415   3.255   8.904   5.177 -0.2232 -0.0454 -0.0400
  478MOL0     C64416   3.106   8.882   5.140  0.2163  1.2350 -0.6106
  478MOL0     C64417   3.018   8.928   5.263  0.8312 -0.0645  0.4537
  478MOL0     C64418   2.863   8.928   5.240 -0.3317  0.2302  0.1796
  478MOL0     O64419   2.817   8.815   5.172  0.0181 -0.4404 -0.3514
  478MOL0     C64420   2.685   8.795   5.140 -0.2801 -0.5143 -0.2891
  478MOL0     C64421   2.582   8.895   5.140 -0.6993  0.1615  0.1580
  478MOL0     C64422   2.447   8.864   5.102 -0.3338  0.4603  0.5662
  478MOL0     C64423   2.414   8.729   5.075 -0.2063 -0.6316 -0.3764
  478MOL0     C64424   2.269   8.693   5.055 -0.2153 -0.6477  0.2279
  478MOL0     O64425   2.179   8.782   5.100  0.3913  0.2861  0.3353
  478MOL0     C64426   2.045   8.779   5.057 -0.3932 -0.2180 -0.0528
  478MOL0     C64427   1.939   8.805   5.151 -0.6915  1.0949 -0.3033
  478MOL0     C64428   1.806   8.809   5.110  1.0257 -0.3110  0.0845
  478MOL0     C64429   1.770   8.791   4.974 -0.0887 -0.7230  1.1708
  478MOL0     O64430   1.643   8.801   4.923  0.6577 -0.0398 -0.0544
  478MOL0     C64431   1.566   8.682   4.952  0.3521 -0.1672 -0.2824
  478MOL0     C64432   1.421   8.694   4.919 -0.7138  1.2206 -1.0616
  478MOL0     C64433   1.364   8.798   5.009 -0.2525 -0.4412 -0.5036
  478MOL0     C64434   1.211   8.823   5.008  0.1984  0.2931 -0.1661
  478MOL0     C64435   1.154   8.897   5.131 -0.3149 -0.2641  0.3424
  478MOL0     C64436   1.004   8.867   5.142  0.3342  1.4462  0.3480
  478MOL0     C64437   0.928   8.984   5.211  0.2205 -0.2603 -0.7243
  478MOL0     C64438   0.786   9.005   5.163 -0.2197  0.0476 -0.5028
  478MOL0    Cl64439   0.813   9.085   5.007  0.6075 -0.1896 -0.2797
  478MOL0     C64440   1.870   8.757   4.880 -0.4999  0.7787  0.3600
  478MOL0     C64441   2.005   8.757   4.923  0.4926  0.0994 -0.3603
  478MOL0     O64442   2.241   8.595   4.990 -1.1860 -0.2169  0.0449
  478MOL0     C64443   2.516   8.629   5.073  0.5563  0.2387 -0.4469
  478MOL0     C64444   2.648   8.665   5.115 -0.6679 -0.0760 -0.4323
  478MOL0     N64445   3.332   8.857   4.928 -0.2623  0.4195 -0.1924
  478MOL0     N64446   3.440   8.808   4.878  0.3575  0.4187  0.5195
  478MOL0     C64447   3.461   8.134   4.603  0.4207 -0.7578 -0.0719
  478MOL0     C64448   3.326   8.154   4.646 -1.4187  0.0077 -0.2856
  478MOL0     C64449   2.986   8.162   4.918  0.2065  0.8856 -0.2639
  478MOL0     C64450   2.933   8.295   4.928 -0.3425 -0.0634  0.0792
  478MOL0     C64451   2.796   8.310   4.946 -0.4602 -0.3636  0.6497
  478MOL0     C64452   2.705   8.201   4.942 -0.4763 -0.7113 -0.5311
  478MOL0     O64453   2.574   8.227   4.973 -0.1226 -0.7792  0.1325
  478MOL0     C64454   2.478   8.121   4.975 -0.3928  0.2404 -0.5345
  478MOL0     C64455   2.343   8.184   4.979  0.1627 -0.1445  0.0023
  478MOL0     C64456   2.319   8.264   4.846 -0.4566 -0.5255  0.0371
  478MOL0     C64457   2.177   8.260   4.790 -0.1793  0.4321  0.7818
  478MOL0     C64458   2.125   8.119   4.779 -0.5476  0.3524 -0.6533
  478MOL0     C64459   2.082   8.006   4.790 -0.3956  0.1834 -0.5624
  478MOL0     C64460   2.761   8.073   4.943  0.1454  0.0759  0.2867
  478MOL0     C64461   2.898   8.048   4.938  0.2650  0.0420 -0.1446
  478MOL0     C64462   2.946   7.906   4.962 -0.3757  0.1566  0.2060
  478MOL0     H64463   3.355   8.434   4.839 -0.9390 -0.7580  1.1534
  478MOL0     H64464   3.601   8.407   4.757  0.7590 -1.4295  1.8160
  478MOL0     H64465   3.693   8.140   4.396  3.8045  0.3897  0.3573
  478MOL0     H64466   3.598   8.276   4.400 -0.5843 -2.0412  1.2005
  478MOL0     H64467   3.788   8.348   4.312  2.1383 -0.7809 -0.1469
  478MOL0     H64468   3.898   8.256   4.418  0.3962  0.0133  0.5981
  478MOL0     H64469   3.942   8.489   4.457  1.2312 -0.9498  2.7079
  478MOL0     H64470   3.864   8.427   4.603 -1.1883  1.8022  0.7845
  478MOL0     H64471   3.766   8.599   4.379  0.0613  0.7088 -0.7123
  478MOL0     H64472   3.645   8.524   4.485 -0.5548  2.1911  0.4039
  478MOL0     H64473   3.881   8.711   4.591  2.1708 -0.2578  2.1351
  478MOL0     H64474   3.735   8.772   4.529 -1.4448 -0.4532  1.1153
  478MOL0     H64475   3.597   8.633   4.704 -0.4282  0.6720  0.2664
  478MOL0     H64476   3.756   8.589   4.774 -1.5816  1.8300  4.8526
  478MOL0     H64477   3.650   8.865   4.744 -0.4437  0.1787  1.0120
  478MOL0     H64478   3.814   8.819   4.804 -0.8614  0.6197  0.7482
  478MOL0     H64479   3.695   8.669   4.988  1.1169  0.1988 -0.4822
  478MOL0     H64480   3.724   8.844   5.012 -0.3487 -1.8485  2.8349
  478MOL0     H64481   3.516   8.802   5.195  2.1643  3.3481  0.2147
  478MOL0     H64482   3.286   8.862   5.273 -1.9166  2.5741  1.8139
  478MOL0     H64483   3.258   9.013   5.191 -2.8647  0.0328  0.4683
  478MOL0     H64484   3.074   8.934   5.050 -0.1602  1.3852 -0.3939
  478MOL0     H64485   3.086   8.775   5.142  4.3822  0.3135  0.2562
  478MOL0     H64486   3.047   9.032   5.281 -1.1435  1.0389 -2.0200
  478MOL0     H64487   3.046   8.868   5.350  1.5884 -1.1049 -0.4832
  478MOL0     H64488   2.842   9.016   5.177  1.7279 -1.3191 -2.9658
  478MOL0     H64489   2.811   8.922   5.336  0.6671 -1.4721  0.6483
  478MOL0     H64490   2.608   8.998   5.162 -0.7930 -0.2695  2.5119
  478MOL0     H64491   2.371   8.940   5.116  0.9276  1.5579  1.9240
  478MOL0     H64492   1.960   8.837   5.253  0.1443  0.3872 -0.2424
  478MOL0     H64493   1.722   8.842   5.171  2.5706 -0.3567  2.3232
  478MOL0     H64494   1.604   8.599   4.891  0.5173 -0.7631  0.6068
  478MOL0     H64495   1.586   8.643   5.052 -0.6521 -2.8471 -1.0272
  478MOL0     H64496   1.420   8.716   4.811  2.3571  0.6353 -1.2860
  478MOL0     H64497   1.377   8.595   4.933  1.6603  0.3561  0.9725
  478MOL0     H64498   1.395   8.778   5.112 -2.8348 -1.0441  0.2498
  478MOL0     H64499   1.411   8.893   4.981 -0.9245 -0.2805 -1.1262
  478MOL0     H64500   1.158   8.727   4.998  1.4367 -0.1747 -5.0542
  478MOL0     H64501   1.189   8.880   4.917 -1.6395  0.3647  0.2810
  478MOL0     H64502   1.182   9.002   5.116  1.8641 -0.3856  2.7807
  478MOL0     H64503   1.194   8.868   5.229  0.6042  0.5570  0.2311
  478MOL0     H64504   0.959   8.840   5.045  2.8660  1.4234 -0.8942
  478MOL0     H64505   0.994   8.781   5.209  2.0122  0.2480 -0.8496
  478MOL0     H64506   0.991   9.073   5.202  0.6470 -0.4661  0.1364
  478MOL0     H64507   0.923   8.962   5.319  1.9281 -0.9582 -0.7618
  478MOL0     H64508   0.731   8.911   5.150 -1.8436  0.9478 -0.3759
  478MOL0     H64509   0.726   9.061   5.235  1.8598 -0.1813  1.5180
  478MOL0     H64510   1.859   8.724   4.777  1.3781 -1.6813  0.8541
  478MOL0     H64511   2.082   8.747   4.847  3.2714  0.6816  2.1902
  478MOL0     H64512   2.495   8.525   5.055 -2.4460  0.1978  2.3639
  478MOL0     H64513   2.723   8.587   5.100 -0.5014 -0.0745  0.3183
  478MOL0     H64514   3.480   8.059   4.527 -1.2432  1.2088 -2.5815
  478MOL0     H64515   3.244   8.088   4.619 -1.8813  0.1506  0.6900
  478MOL0     H64516   2.989   8.385   4.906 -0.9465  0.0429 -1.1025
  478MOL0     H64517   2.749   8.408   4.945  0.3382  0.0270 -0.1407
  478MOL0     H64518   2.476   8.065   5.070 -4.8677  1.4678  0.3383
  478MOL0     H64519   2.481   8.054   4.889 -1.8368 -0.7678  0.1499
  478MOL0     H64520   2.347   8.249   5.067  1.4622 -0.4494  0.1846
  478MOL0     H64521   2.264   8.109   4.989  0.8152 -0.7370  0.8457
  478MOL0     H64522   2.388   8.241   4.763 -3.2208 -0.8284 -2.3188
  478MOL0     H64523   2.332   8.372   4.862 -1.3772 -0.0862 -1.8511
  478MOL0     H64524   2.105   8.317   4.849 -0.7621  1.0709 -0.5073
  478MOL0     H64525   2.167   8.297   4.687  0.3108 -2.4618 -0.4122
  478MOL0     H64526   2.029   7.916   4.810 -1.3098  1.1840  1.8950
  478MOL0     H64527   2.696   7.992   4.973 -0.9093  1.2061  1.1639
  478MOL0     H64528   3.048   7.894   4.998 -0.6430 -0.1444  0.8781
  478MOL0     H64529   2.888   7.866   5.046 -0.7225 -0.3639 -0.2742
  478MOL0     H64530   2.933   7.847   4.871  1.8343  0.1803 -0.1724
  479MOL0     O64531   3.837   7.325   1.406  0.3808 -0.1473  0.4053
  479MOL0     C64532   3.758   7.345   1.498 -0.7304  0.3926  0.2120
  479MOL0     O64533   3.792   7.334   1.627 -0.1975 -0.0255 -0.2685
  479MOL0     C64534   3.926   7.299   1.653  0.0431 -0.4822  0.4905
  479MOL0     C64535   3.973   7.169   1.641 -0.0096  0.0833 -0.0735
  479MOL0     C64536   4.108   7.137   1.632 -0.3784  0.2567 -0.3488
  479MOL0     C64537   4.201   7.236   1.656 -0.1088 -0.1293  0.3457
  479MOL0     O64538   4.336   7.209   1.682  0.0019 -0.4135  0.0907
  479MOL0     C64539   4.400   7.111   1.593 -0.7247 -0.8478  0.2449
  479MOL0     C64540   4.419   6.984   1.666  0.2033 -0.2643  0.5323
  479MOL0     C64541   4.507   6.893   1.573 -0.1333 -0.2151  0.8448
  479MOL0     C64542   4.561   6.765   1.644  0.4111  0.7563 -0.2965
  479MOL0     C64543   4.669   6.691   1.568  0.3679 -0.3017  0.4458
  479MOL0     C64544   4.776   6.644   1.659  0.1760  0.0382 -0.9182
  479MOL0     C64545   4.879   6.753   1.701  0.1974  0.2369 -0.9420
  479MOL0     C64546   4.987   6.717   1.807  0.0905 -0.1653  0.2340
  479MOL0     N64547   5.086   6.826   1.811 -0.3422 -0.2436  0.3747
  479MOL0     C64548   5.083   6.923   1.909  0.5338 -0.7032  0.2634
  479MOL0     C64549   5.210   6.959   1.917  0.3102  0.9769  0.0859
  479MOL0     C64550   5.271   7.062   2.002 -0.0059 -0.4041  0.3828
  479MOL0     C64551   5.346   6.995   2.118  0.1732 -0.0164 -0.5761
  479MOL0     C64552   5.480   6.938   2.073 -0.4919 -0.7385  0.3089
  479MOL0     C64553   5.580   7.043   2.056 -0.7090  0.2137  0.3573
  479MOL0     O64554   5.630   7.080   2.182 -0.3179  0.6768 -0.1301
  479MOL0     C64555   5.732   7.167   2.189 -0.8613 -0.7220 -0.1309
  479MOL0     C64556   5.765   7.265   2.093  0.1424 -0.1111  0.3525
  479MOL0     C64557   5.877   7.335   2.104 -0.2006 -0.6773  0.7123
  479MOL0     C64558   5.974   7.315   2.208  0.8258 -0.3362 -0.6408
  479MOL0     C64559   6.100   7.386   2.189  1.0175  0.0986 -0.4122
  479MOL0     O64560   6.148   7.413   2.065 -0.5375 -0.8062 -0.4618
  479MOL0     C64561   6.280   7.461   2.047  0.5882 -0.0844 -0.7777
  479MOL0     C64562   6.336   7.559   2.129  1.2138  0.8925 -0.6988
  479MOL0     C64563   6.470   7.596   2.128 -0.1061  1.0557  0.2879
  479MOL0     C64564   6.545   7.569   2.015 -0.0588  0.0751 -0.4328
  479MOL0     O64565   6.667   7.624   2.019 -0.2592  0.3814  0.7845
  479MOL0     C64566   6.750   7.628   1.902 -0.2921  0.7014  0.0879
  479MOL0     C64567   6.888   7.573   1.932  0.0476  0.2259  0.4859
  479MOL0     C64568   6.981   7.607   1.815  0.2555 -0.1162  0.3326
  479MOL0     C64569   7.116   7.553   1.863 -0.3078  0.9060 -0.2954
  479MOL0     C64570   7.238   7.585   1.766  0.1620  0.6218  0.2789
  479MOL0     C64571   7.367   7.561   1.827 -0.7582  0.5464  0.0680
  479MOL0     C64572   7.481   7.604   1.738  0.2290 -0.4460 -0.2761
  479MOL0     C64573   7.619   7.578   1.781  0.3300 -0.5969 -0.1004
  479MOL0    Cl64574   7.646   7.404   1.817  0.1183  0.1554 -0.0144
  479MOL0     C64575   6.494   7.474   1.927  0.1720  1.0767 -0.0954
  479MOL0     C64576   6.361   7.420   1.942  0.5375  0.0058  0.3657
  479MOL0     O64577   6.156   7.398   2.293  0.0620  0.1171  0.3466
  479MOL0     C64578   5.945   7.213   2.308 -0.0561  0.7932  0.4004
  479MOL0     C64579   5.817   7.143   2.299  0.3897 -0.3077 -0.7000
  479MOL0     N64580   5.279   6.899   1.812  0.2435  0.5681 -0.2542
  479MOL0     N64581   5.204   6.825   1.748 -0.0312  0.2387  0.4110
  479MOL0     C64582   4.156   7.363   1.680  0.1331  0.6080  0.2327
  479MOL0     C64583   4.016   7.400   1.672 -0.5337  0.8216  0.3163
  479MOL0     C64584   3.627   7.400   1.482 -0.1324  0.1931 -0.0929
  479MOL0     C64585   3.552   7.422   1.594  0.2323  0.2174 -0.2036
  479MOL0     C64586   3.416   7.465   1.582  0.3881  0.2610 -0.1430
  479MOL0     C64587   3.368   7.498   1.453  0.1787 -0.0657  0.7701
  479MOL0     O64588   3.235   7.530   1.433 -0.6405 -0.3938 -0.7367
  479MOL0     C64589   3.203   7.668   1.457 -0.1170  0.5164  0.9390
  479MOL0     C64590   3.050   7.675   1.493 -0.5576 -0.4932  0.4049
  479MOL0     C64591   3.008   7.591   1.617 -1.0501  0.2906  0.8076
  479MOL0     C64592   2.862   7.608   1.655 -0.1846 -0.3552 -0.5930
  479MOL0     C64593   2.798   7.522   1.555  0.9211  0.4433 -0.4259
  479MOL0     C64594   2.744   7.455   1.480 -0.2465  0.3965 -0.3890
  479MOL0     C64595   3.451   7.482   1.342  0.0161  0.4020  0.5650
  479MOL0     C64596   3.581   7.437   1.351 -0.1082 -0.4050  0.8762
  479MOL0     C64597   3.671   7.444   1.223 -0.4592 -0.1650 -0.2056
  479MOL0     H64598   3.899   7.092   1.619 -1.5296  1.2113  0.9133
  479MOL0     H64599   4.144   7.036   1.621 -0.5708  0.2289 -0.7576
  479MOL0     H64600   4.343   7.096   1.501  3.6159 -1.2903 -2.6181
  479MOL0     H64601   4.496   7.151   1.560 -1.4297 -1.1102 -2.3613
  479MOL0     H64602   4.320   6.936   1.675  0.0868 -0.4066 -1.2875
  479MOL0     H64603   4.471   7.006   1.760 -0.3025  0.8972  0.5482
  479MOL0     H64604   4.598   6.952   1.556  1.5819 -2.5631  1.3474
  479MOL0     H64605   4.457   6.880   1.476 -1.3926  0.8231  1.3265
  479MOL0     H64606   4.596   6.794   1.743 -1.5013  4.5677 -0.5526
  479MOL0     H64607   4.478   6.697   1.664  1.9055 -0.2102  3.2448
  479MOL0     H64608   4.618   6.609   1.517  2.2001 -1.8597  0.9985
  479MOL0     H64609   4.714   6.758   1.495  1.4856 -0.7566  0.6906
  479MOL0     H64610   4.727   6.607   1.749 -1.7826  2.3704 -0.9146
  479MOL0     H64611   4.830   6.560   1.614  1.6237 -0.6542  1.8714
  479MOL0     H64612   4.821   6.835   1.743 -1.2349 -0.6270 -1.1489
  479MOL0     H64613   4.929   6.785   1.609  2.1539 -0.4183 -0.1493
  479MOL0     H64614   4.949   6.719   1.909  4.2563  0.5883  2.0125
  479MOL0     H64615   5.036   6.621   1.786 -0.1148 -0.1674 -0.2298
  479MOL0     H64616   4.993   6.954   1.963  1.1331 -1.1934  1.5836
  479MOL0     H64617   5.344   7.116   1.941  0.2025 -0.8897  0.1927
  479MOL0     H64618   5.194   7.133   2.033  1.1498  1.3544 -0.5903
  479MOL0     H64619   5.357   7.070   2.198  0.6493 -1.4804  0.7785
  479MOL0     H64620   5.286   6.921   2.172  1.0262 -1.1834 -1.1902
  479MOL0     H64621   5.468   6.877   1.983  0.1911  1.2128 -1.1715
  479MOL0     H64622   5.519   6.876   2.155  2.6590  0.0609 -0.4694
  479MOL0     H64623   5.527   7.125   2.006 -3.0365  0.1493  2.5002
  479MOL0     H64624   5.661   7.005   1.993 -1.4502  1.7059 -1.5947
  479MOL0     H64625   5.694   7.280   2.012 -1.3198  5.0317  2.1938
  479MOL0     H64626   5.885   7.401   2.018 -1.9388 -0.3538  0.7603
  479MOL0     H64627   6.276   7.593   2.213  0.7443 -2.4525  0.5062
  479MOL0     H64628   6.522   7.660   2.198  3.1433 -0.4965 -0.5120
  479MOL0     H64629   6.712   7.572   1.816 -1.9837  0.9803  0.6231
  479MOL0     H64630   6.765   7.732   1.873 -2.4066  0.4580 -2.1404
  479MOL0     H64631   6.926   7.614   2.026 -0.7836  0.2638  0.8108
  479MOL0     H64632   6.877   7.465   1.941  1.6310 -0.0354 -0.3206
  479MOL0     H64633   6.942   7.555   1.727  0.7773  1.0418 -0.6038
  479MOL0     H64634   6.981   7.712   1.784 -2.1513  0.6465  2.4947
  479MOL0     H64635   7.114   7.449   1.896 -0.1153  1.0922  0.3213
  479MOL0     H64636   7.134   7.609   1.955  0.9629 -2.4684  1.6940
  479MOL0     H64637   7.237   7.687   1.728  5.6489 -0.0267 -2.6798
  479MOL0     H64638   7.229   7.527   1.674 -0.9619  0.8714  0.2192
  479MOL0     H64639   7.376   7.618   1.920 -0.8535 -1.2648  1.2424
  479MOL0     H64640   7.373   7.452   1.839  2.1932  0.7685  1.3669
  479MOL0     H64641   7.482   7.712   1.726 -0.1250 -0.4156 -0.0414
  479MOL0     H64642   7.460   7.560   1.640 -0.3619  0.0609 -0.3835
  479MOL0     H64643   7.696   7.609   1.709  2.1791  2.8080  3.0086
  479MOL0     H64644   7.654   7.634   1.868 -0.4540  2.3345 -1.5588
  479MOL0     H64645   6.549   7.458   1.835 -1.3029  1.2077 -1.0410
  479MOL0     H64646   6.326   7.347   1.870  2.5640  0.4593 -1.1854
  479MOL0     H64647   6.026   7.187   2.375  1.6922 -0.6490 -2.0516
  479MOL0     H64648   5.792   7.069   2.374  1.5665  1.2405  1.3205
  479MOL0     H64649   4.220   7.447   1.706  0.3483  0.2338  0.9522
  479MOL0     H64650   3.983   7.502   1.691 -0.4383  0.8066  0.5677
  479MOL0     H64651   3.574   7.400   1.698 -1.8488 -0.2690  0.1944
  479MOL0     H64652   3.337   7.480   1.654  1.3869  3.8720  0.3902
  479MOL0     H64653   3.220   7.726   1.366 -1.7388 -0.0331  0.2413
  479MOL0     H64654   3.263   7.718   1.533  0.6502 -0.4355  0.9751
  479MOL0     H64655   3.004   7.634   1.402  2.8957 -0.0253 -1.7775
  479MOL0     H64656   3.020   7.779   1.505  0.1999  0.0389 -1.7293
  479MOL0     H64657   3.057   7.636   1.703 -3.3715  1.8424  1.4287
  479MOL0     H64658   3.035   7.486   1.612 -2.2028 -0.2109  3.3954
  479MOL0     H64659   2.855   7.560   1.753 -1.8897 -3.1163 -1.9553
  479MOL0     H64660   2.843   7.716   1.662 -1.1362 -0.4223 -1.8527
  479MOL0     H64661   2.709   7.391   1.402 -0.7419  0.8831 -0.5778
  479MOL0     H64662   3.413   7.508   1.244  0.2272  0.7456  0.5746
  479MOL0     H64663   3.750   7.518   1.240  0.1761  0.0149 -3.3043
  479MOL0     H64664   3.708   7.345   1.194 -1.4683  0.0928 -2.6439
  479MOL0     H64665   3.616   7.491   1.141  1.1573 -3.6791 -3.6432
  480MOL0     O64666   1.281   6.549   9.095 -0.1633  0.6256  0.1252
  480MOL0     C64667   1.284   6.426   9.118 -0.5868  0.8960  0.3074
  480MOL0     O64668   1.185   6.353   9.159  0.1215 -0.7953 -0.0411
  480MOL0     C64669   1.068   6.415   9.196 -0.5632 -0.0785  0.2235
  480MOL0     C64670   0.994   6.485   9.100  0.4254 -0.6542 -0.5688
  480MOL0     C64671   0.871   6.544   9.135 -0.2760 -0.3456 -0.1269
  480MOL0     C64672   0.814   6.529   9.259 -0.1468  0.0602  0.2859
  480MOL0     O64673   0.695   6.591   9.286 -0.0721  0.3441 -0.5054
  480MOL0     C64674   0.646   6.600   9.424  0.0760 -0.1717  0.1955
  480MOL0     C64675   0.522   6.689   9.435  0.0085 -0.6514  0.0255
  480MOL0     C64676   0.510   6.779   9.565  0.2746  0.2128  1.0241
  480MOL0     C64677   0.481   6.678   9.673 -0.4666 -0.2941 -0.2531
  480MOL0     C64678   0.469   6.750   9.810 -0.2914 -0.0551 -0.2070
  480MOL0     C64679   0.464   6.661   9.925 -0.2141 -0.6222 -0.3979
  480MOL0     C64680   0.464   6.738  10.054 -0.3939 -0.3085 -0.1729
  480MOL0     C64681   0.355   6.839  10.068  0.5190 -0.5028 -0.1084
  480MOL0     N64682   0.373   6.921  10.189 -0.5609 -0.3533  0.2878
  480MOL0     C64683   0.268   6.976  10.262 -0.6920  0.7823 -0.7441
  480MOL0     C64684   0.333   7.050  10.352 -0.6414 -0.8293  0.7109
  480MOL0     C64685   0.283   7.136  10.460  0.0022  0.1177 -0.6021
  480MOL0     C64686   0.259   7.286  10.411  0.8565 -0.1451 -0.1938
  480MOL0     C64687   0.234   7.360  10.543  0.6389 -0.0384  0.5573
  480MOL0     C64688   0.368   7.416  10.597 -0.3053 -0.5081 -0.0997
  480MOL0     O64689   0.346   7.488  10.714  0.3323 -0.2946 -0.2259
  480MOL0     C64690   0.441   7.554  10.779 -0.3187 -0.0644  0.3914
  480MOL0     C64691   0.407   7.634  10.887 -0.4055  0.4030 -0.1479
  480MOL0     C64692   0.499   7.715  10.955 -0.0628  0.1456  0.4589
  480MOL0     C64693   0.633   7.715  10.921  0.2730  0.2756  0.9860
  480MOL0     C64694   0.725   7.811  10.996 -0.2745  0.5699  0.2600
  480MOL0     O64695   0.848   7.817  10.940  1.1121 -0.3988  0.5384
  480MOL0     C64696   0.945   7.907  10.988 -0.0702  0.5575 -0.7528
  480MOL0     C64697   0.985   7.921  11.132  0.6259 -0.0973  0.9090
  480MOL0     C64698   1.082   8.014  11.164 -0.3210 -0.2133 -0.0292
  480MOL0     C64699   1.153   8.089  11.070 -0.6169 -0.0649  0.5019
  480MOL0     O64700   1.254   8.181  11.091  0.2427 -0.0334  0.2386
  480MOL0     C64701   1.325   8.194  11.210 -0.5492  0.1958  0.1224
  480MOL0     C64702   1.391   8.333  11.218  1.3431  1.0879 -0.0785
  480MOL0     C64703   1.537   8.343  11.257  0.2884  0.6282  0.0701
  480MOL0     C64704   1.634   8.323  11.137  0.6683  0.1518 -0.4704
  480MOL0     C64705   1.782   8.311  11.186  0.4687  0.6147  0.3855
  480MOL0     C64706   1.867   8.282  11.061  0.3597 -0.6740 -0.0768
  480MOL0     C64707   2.014   8.298  11.090  0.5140  0.1712  0.6736
  480MOL0     C64708   2.092   8.258  10.965 -0.7138  0.1739  0.3417
  480MOL0    Cl64709   2.255   8.198  11.007  0.7225 -0.0264  0.1528
  480MOL0     C64710   1.119   8.064  10.933 -0.1844 -0.8267 -0.5728
  480MOL0     C64711   1.017   7.974  10.894  0.4188  0.0978 -0.1011
  480MOL0     O64712   0.689   7.883  11.086 -0.5008 -0.0792 -0.4074
  480MOL0     C64713   0.673   7.630  10.805  0.7796 -0.1937  0.8155
  480MOL0     C64714   0.576   7.550  10.739  0.1012  0.5199 -0.9049
  480MOL0     N64715   0.465   7.031  10.347 -0.2644  0.2398 -0.0551
  480MOL0     N64716   0.494   6.955  10.250  0.2253 -0.2337 -0.6445
  480MOL0     C64717   0.884   6.454   9.358  0.0093  0.2666  0.7261
  480MOL0     C64718   1.010   6.397   9.324 -0.3369 -0.7131 -0.4106
  480MOL0     C64719   1.407   6.352   9.081 -0.3229  0.7139 -0.4609
  480MOL0     C64720   1.402   6.224   9.023 -0.3001 -0.8183 -0.2934
  480MOL0     C64721   1.514   6.147   8.988 -0.0428  0.2778  0.3055
  480MOL0     C64722   1.639   6.192   9.035  0.8976 -0.3290  0.0149
  480MOL0     O64723   1.740   6.113   8.993 -0.1364 -0.2078  0.1275
  480MOL0     C64724   1.868   6.117   9.049 -0.7700  0.1503  0.0425
  480MOL0     C64725   1.861   6.079   9.194 -0.2649 -0.5606  0.1769
  480MOL0     C64726   1.804   5.936   9.210  0.0840  0.5938 -0.4989
  480MOL0     C64727   1.672   5.938   9.291  0.2443 -0.9004  0.8367
  480MOL0     C64728   1.694   5.959   9.429  0.3820 -0.5640 -0.5789
  480MOL0     C64729   1.720   5.978   9.548 -0.1523 -0.3934  1.2281
  480MOL0     C64730   1.649   6.323   9.095  0.2203  0.6508 -0.3271
  480MOL0     C64731   1.531   6.394   9.126  0.6009  0.1386 -0.5159
  480MOL0     C64732   1.549   6.530   9.197  0.3002 -0.6164 -0.3673
  480MOL0     H64733   1.033   6.480   8.999 -1.3838 -1.5933 -1.2728
  480MOL0     H64734   0.807   6.608   9.076  0.0505  0.1777  0.0761
  480MOL0     H64735   0.625   6.497   9.454  1.3831 -0.6153 -0.3684
  480MOL0     H64736   0.723   6.649   9.485 -0.8717  2.1634 -0.3734
  480MOL0     H64737   0.443   6.613   9.440  0.4047 -0.9892  2.1829
  480MOL0     H64738   0.504   6.748   9.344 -2.0514 -3.3597 -1.4894
  480MOL0     H64739   0.435   6.858   9.556  1.0919  0.8709 -0.4275
  480MOL0     H64740   0.593   6.843   9.597  0.3776 -1.6125  5.0416
  480MOL0     H64741   0.392   6.620   9.649  0.0962 -0.6031 -1.6849
  480MOL0     H64742   0.574   6.620   9.672  2.3154  3.6553 -2.4018
  480MOL0     H64743   0.556   6.814   9.819 -0.1931 -0.3282  0.9472
  480MOL0     H64744   0.384   6.818   9.804 -0.0305  0.2585 -0.3520
  480MOL0     H64745   0.376   6.596   9.936  0.4475 -1.2964  1.3754
  480MOL0     H64746   0.549   6.591   9.923 -0.7436 -1.3650  1.2488
  480MOL0     H64747   0.559   6.792  10.053 -0.9941  0.9498  2.6261
  480MOL0     H64748   0.463   6.675  10.143 -2.3289 -2.1295 -1.3975
  480MOL0     H64749   0.345   6.904   9.981  1.1802 -0.1607  0.0639
  480MOL0     H64750   0.262   6.784  10.086 -0.3163  0.2782 -1.7838
  480MOL0     H64751   0.162   6.986  10.241 -1.4396 -0.0030  2.1805
  480MOL0     H64752   0.193   7.087  10.498  1.5269 -2.1312  0.3012
  480MOL0     H64753   0.355   7.141  10.542 -0.0032  3.3528 -0.6655
  480MOL0     H64754   0.342   7.328  10.353 -0.7621  1.0723 -1.7350
  480MOL0     H64755   0.164   7.284  10.357 -0.4530 -1.3682  2.0304
  480MOL0     H64756   0.186   7.307  10.625 -0.6862  0.7816  0.3553
  480MOL0     H64757   0.175   7.450  10.522  2.3843  1.2703  1.0802
  480MOL0     H64758   0.414   7.480  10.522  2.3974 -2.2712 -0.1073
  480MOL0     H64759   0.432   7.330  10.619 -1.5986 -0.9272  2.4378
  480MOL0     H64760   0.304   7.654  10.914 -0.4844  0.0487 -0.1943
  480MOL0     H64761   0.466   7.774  11.040  2.2026 -0.5336  1.8912
  480MOL0     H64762   0.941   7.860  11.210  0.0048  1.1403  1.5511
  480MOL0     H64763   1.119   8.020  11.266 -1.0809 -1.8062  0.3552
  480MOL0     H64764   1.270   8.179  11.303 -3.4296  1.3208 -1.2757
  480MOL0     H64765   1.415   8.132  11.205  0.5209  1.5129  1.8933
  480MOL0     H64766   1.383   8.384  11.122  1.3456  0.5930 -0.3470
  480MOL0     H64767   1.339   8.400  11.288  2.3581 -0.9556  2.8300
  480MOL0     H64768   1.562   8.427  11.321  0.9681  1.0017 -0.6685
  480MOL0     H64769   1.557   8.260  11.326 -2.0646 -0.7162 -0.7392
  480MOL0     H64770   1.628   8.418  11.082  2.4493  0.5009 -0.1373
  480MOL0     H64771   1.598   8.232  11.089  0.6460 -0.6404  1.0036
  480MOL0     H64772   1.782   8.231  11.260 -0.4983  0.1500 -0.1042
  480MOL0     H64773   1.825   8.400  11.233  0.7635  1.0384 -0.6590
  480MOL0     H64774   1.850   8.176  11.037 -2.2157 -0.0424 -1.3962
  480MOL0     H64775   1.838   8.337  10.971  0.7834 -0.4880 -0.0969
  480MOL0     H64776   2.043   8.241  11.178 -1.3939  0.2243  1.3890
  480MOL0     H64777   2.033   8.401  11.122  1.5473  0.8828 -1.9643
  480MOL0     H64778   2.037   8.179  10.913  1.7541 -1.3659 -0.0669
  480MOL0     H64779   2.103   8.349  10.905  1.6916 -0.7377 -0.7013
  480MOL0     H64780   1.169   8.104  10.845  2.3573 -3.1980 -0.3662
  480MOL0     H64781   1.000   7.942  10.792  0.4218 -0.3892  0.0488
  480MOL0     H64782   0.779   7.615  10.787 -0.0269 -1.6894 -4.0495
  480MOL0     H64783   0.594   7.478  10.660 -7.1652  0.6245 -3.4722
  480MOL0     H64784   0.851   6.416   9.454  2.2672 -1.5225  0.8978
  480MOL0     H64785   1.063   6.350   9.406  1.2286  1.8188  0.1267
  480MOL0     H64786   1.303   6.196   8.989  0.4645 -1.9374 -1.7336
  480MOL0     H64787   1.499   6.052   8.936 -2.9791 -1.2390  3.5108
  480MOL0     H64788   1.916   6.215   9.036 -0.0146 -0.1987  0.1512
  480MOL0     H64789   1.930   6.038   9.006 -1.6637 -1.5368  1.6917
  480MOL0     H64790   1.797   6.151   9.246  1.6488 -0.3893  2.4274
  480MOL0     H64791   1.961   6.083   9.237  0.8775 -1.8456 -2.1578
  480MOL0     H64792   1.879   5.869   9.253  0.1339  0.5528 -0.6483
  480MOL0     H64793   1.779   5.893   9.113  1.0476 -1.0348 -0.0768
  480MOL0     H64794   1.614   6.019   9.245  1.2389  0.4650  1.8742
  480MOL0     H64795   1.622   5.842   9.276  0.1754 -0.4704 -2.4583
  480MOL0     H64796   1.734   5.988   9.654 -0.2506  0.1508  1.1923
  480MOL0     H64797   1.747   6.352   9.131  0.7648 -0.6626 -0.7006
  480MOL0     H64798   1.537   6.616   9.130  1.9815  0.6548  0.8947
  480MOL0     H64799   1.491   6.535   9.289 -0.2415  1.3207 -0.7744
  480MOL0     H64800   1.652   6.542   9.232 -1.0749  2.3690  3.3829
  481MOL0     O64801   5.435   4.163  10.028  0.5286  0.0362  0.0102
  481MOL0     C64802   5.401   4.179   9.910  0.6777  0.0210 -0.2546
  481MOL0     O64803   5.485   4.167   9.804  0.7136  0.2975  0.2843
  481MOL0     C64804   5.603   4.107   9.825 -0.4688 -0.2216  1.2420
  481MOL0     C64805   5.716   4.168   9.760 -0.1478 -0.0726  0.6059
  481MOL0     C64806   5.841   4.111   9.780  0.1796  0.2447  0.2543
  481MOL0     C64807   5.867   4.000   9.857  0.4834 -1.1330 -0.3066
  481MOL0     O64808   5.992   3.954   9.888  0.9892 -0.4370  0.8163
  481MOL0     C64809   6.071   3.924   9.771  1.0215 -0.5942  0.5622
  481MOL0     C64810   6.223   3.973   9.787  0.1873  0.6229 -0.4161
  481MOL0     C64811   6.308   3.882   9.871 -0.8745  0.3635  0.2093
  481MOL0     C64812   6.454   3.934   9.895 -0.3759 -0.2332  0.1973
  481MOL0     C64813   6.468   4.048   9.984  0.0465 -0.1375  0.5413
  481MOL0     C64814   6.607   4.105  10.011  0.1356 -0.8173 -0.3439
  481MOL0     C64815   6.680   4.134   9.874  0.1667  0.2585 -0.1986
  481MOL0     C64816   6.774   4.258   9.897 -0.0191 -0.5341 -0.5425
  481MOL0     N64817   6.867   4.280   9.783  0.2373 -0.2989  0.0630
  481MOL0     C64818   6.961   4.204   9.728 -0.6903 -0.7812  0.3759
  481MOL0     C64819   7.013   4.284   9.626 -0.1622  0.1771  0.2947
  481MOL0     C64820   7.136   4.251   9.546 -0.0949 -0.3589 -0.4800
  481MOL0     C64821   7.131   4.307   9.409  0.3412  0.5447 -0.0285
  481MOL0     C64822   7.252   4.264   9.318  0.2049  0.7502  0.3790
  481MOL0     C64823   7.378   4.336   9.365 -0.7332 -0.3341 -0.5645
  481MOL0     O64824   7.468   4.298   9.263 -0.5501 -0.0348  0.2223
  481MOL0     C64825   7.601   4.340   9.265  0.5876 -0.1756  0.1854
  481MOL0     C64826   7.658   4.405   9.374 -0.1224  0.7114  0.0589
  481MOL0     C64827   7.801   4.419   9.380  0.6610  0.1060 -0.3508
  481MOL0     C64828   7.889   4.379   9.275 -0.2072 -0.4347  0.0274
  481MOL0     C64829   8.034   4.401   9.294 -0.8258  0.4454  0.2869
  481MOL0     O64830   8.071   4.434   9.419  0.6236  0.4033  0.1225
  481MOL0     C64831   8.201   4.455   9.444 -0.7201 -0.6652 -0.2428
  481MOL0     C64832   8.253   4.580   9.394 -0.3659  0.9014  0.0224
  481MOL0     C64833   8.377   4.622   9.436  0.6770 -0.2851  0.0142
  481MOL0     C64834   8.455   4.539   9.516 -0.6637  0.6389  0.3871
  481MOL0     O64835   8.564   4.597   9.562  0.3148 -0.4753 -0.6870
  481MOL0     C64836   8.678   4.513   9.566 -0.6917 -0.1123  0.1869
  481MOL0     C64837   8.797   4.597   9.555  0.0066  0.0090 -0.5493
  481MOL0     C64838   8.837   4.683   9.679 -0.0367  0.2400  0.4696
  481MOL0     C64839   8.974   4.750   9.647 -0.6539 -0.3748 -0.4120
  481MOL0     C64840   9.022   4.827   9.769 -0.0177  0.0755  0.4141
  481MOL0     C64841   9.121   4.933   9.721 -0.1831  0.7691 -1.0936
  481MOL0     C64842   9.170   4.995   9.854 -0.2960 -0.1956 -0.2695
  481MOL0     C64843   9.312   5.052   9.822 -0.5412 -0.2111 -0.4657
  481MOL0    Cl64844   9.339   5.157   9.958  0.4035  0.0963 -0.2062
  481MOL0     C64845   8.409   4.403   9.554 -0.5462 -0.1842 -0.2547
  481MOL0     C64846   8.279   4.372   9.517  0.7404 -0.4912  0.0899
  481MOL0     O64847   8.107   4.379   9.193  0.3644  0.4224 -0.0860
  481MOL0     C64848   7.822   4.311   9.163  0.0295  0.2270 -0.0509
  481MOL0     C64849   7.677   4.293   9.162 -0.7414  0.2020  0.3134
  481MOL0     N64850   6.935   4.397   9.618 -0.2134 -0.4657  0.3492
  481MOL0     N64851   6.849   4.389   9.713 -0.2098  0.0817 -0.4145
  481MOL0     C64852   5.759   3.937   9.909  0.1547  0.2632  0.3893
  481MOL0     C64853   5.620   3.984   9.896 -0.2317  0.4957 -0.5950
  481MOL0     C64854   5.259   4.229   9.880  0.2676  0.4385  0.5256
  481MOL0     C64855   5.235   4.273   9.749 -0.8149  0.0636 -0.0687
  481MOL0     C64856   5.108   4.314   9.715 -0.3657  0.2949 -1.2016
  481MOL0     C64857   5.006   4.315   9.810  0.1181  0.0561 -0.4126
  481MOL0     O64858   4.877   4.364   9.815 -0.2008  0.5709  0.5538
  481MOL0     C64859   4.819   4.420   9.686 -0.3149  0.2063 -0.6344
  481MOL0     C64860   4.688   4.496   9.711  0.3547 -0.4210  0.1618
  481MOL0     C64861   4.587   4.428   9.794  1.2953 -0.3374  0.1387
  481MOL0     C64862   4.442   4.480   9.776 -0.4356  0.1204  0.2001
  481MOL0     C64863   4.356   4.364   9.789  0.2718  0.7660 -0.3734
  481MOL0     C64864   4.293   4.265   9.802 -0.2711 -0.3710 -0.2474
  481MOL0     C64865   5.028   4.257   9.935  0.3855  0.6323  0.7831
  481MOL0     C64866   5.150   4.212   9.972 -0.1678 -0.5329 -0.0214
  481MOL0     C64867   5.166   4.170  10.121 -0.1772 -0.2118 -0.5280
  481MOL0     H64868   5.718   4.256   9.697 -1.2645 -0.1495  0.4513
  481MOL0     H64869   5.927   4.162   9.737 -0.2277  0.6521 -0.0886
  481MOL0     H64870   6.063   3.816   9.753 -0.5079 -0.1061 -2.2956
  481MOL0     H64871   6.037   3.976   9.681  3.4331  0.0839 -0.0466
  481MOL0     H64872   6.231   4.073   9.829 -0.2771  0.0761  1.0163
  481MOL0     H64873   6.262   3.972   9.685  0.9395 -1.9720 -0.1854
  481MOL0     H64874   6.315   3.788   9.816  0.5080  0.6137 -0.0731
  481MOL0     H64875   6.264   3.865   9.970  0.0580  0.3501  0.6284
  481MOL0     H64876   6.514   3.855   9.941 -2.8910 -2.8280 -0.6322
  481MOL0     H64877   6.488   3.960   9.795 -4.0779  5.9047  0.0065
  481MOL0     H64878   6.422   4.131   9.930 -0.0460 -1.9949 -2.4817
  481MOL0     H64879   6.418   4.022  10.078 -2.0272  1.6325  0.0089
  481MOL0     H64880   6.592   4.191  10.078 -0.6803 -0.3369 -1.1152
  481MOL0     H64881   6.673   4.035  10.061  2.1558  0.0131 -1.7044
  481MOL0     H64882   6.607   4.159   9.797 -3.7842  2.3405  3.7404
  481MOL0     H64883   6.736   4.047   9.838 -1.3594  0.1498 -2.4565
  481MOL0     H64884   6.708   4.342   9.916  0.3474 -0.1556 -0.9243
  481MOL0     H64885   6.830   4.248   9.991  0.0293  0.2001 -0.4916
  481MOL0     H64886   6.994   4.103   9.753 -0.3512 -0.2575  2.1463
  481MOL0     H64887   7.225   4.285   9.599 -1.5364 -0.9783  2.5651
  481MOL0     H64888   7.145   4.143   9.541  4.2787 -0.2224  0.4864
  481MOL0     H64889   7.039   4.267   9.366 -0.0442 -1.5286  2.4908
  481MOL0     H64890   7.130   4.416   9.409  2.9425  0.6516 -1.5891
  481MOL0     H64891   7.226   4.293   9.216  2.2198  1.8029  0.1313
  481MOL0     H64892   7.269   4.156   9.323 -1.8552  0.3489 -0.2106
  481MOL0     H64893   7.414   4.307   9.464 -1.0679 -3.5036 -1.2713
  481MOL0     H64894   7.367   4.444   9.352  1.4076 -0.1423 -1.2085
  481MOL0     H64895   7.600   4.439   9.459  1.0649 -1.5203  1.8748
  481MOL0     H64896   7.835   4.466   9.472 -1.4355 -0.2373  0.6538
  481MOL0     H64897   8.184   4.654   9.355 -1.6588  1.0108  2.3506
  481MOL0     H64898   8.411   4.723   9.415  4.0159 -1.6571 -2.0289
  481MOL0     H64899   8.670   4.460   9.661 -2.3733  0.6924  0.5243
  481MOL0     H64900   8.686   4.441   9.485 -0.4528 -0.5954  0.6329
  481MOL0     H64901   8.872   4.521   9.532 -1.8528 -1.9096 -0.6469
  481MOL0     H64902   8.796   4.655   9.462 -0.2152  0.7503 -0.0860
  481MOL0     H64903   8.763   4.759   9.704  1.2682  2.1120 -1.0608
  481MOL0     H64904   8.839   4.615   9.765  2.2418  0.6210  0.7800
  481MOL0     H64905   8.968   4.811   9.556 -1.1182  2.0969  1.1946
  481MOL0     H64906   9.048   4.671   9.626 -0.9337 -1.1674  1.4477
  481MOL0     H64907   9.064   4.749   9.832  0.6417 -1.0901 -1.3948
  481MOL0     H64908   8.936   4.877   9.816 -0.2126  1.0116 -0.8671
  481MOL0     H64909   9.201   4.890   9.660 -0.6624 -1.1810 -0.4056
  481MOL0     H64910   9.068   5.011   9.667 -0.7512  1.2704  0.1551
  481MOL0     H64911   9.174   4.928   9.940  0.9772  1.5149  1.0808
  481MOL0     H64912   9.099   5.069   9.892 -1.6606 -0.3942 -2.3016
  481MOL0     H64913   9.382   4.968   9.824 -2.3797 -1.8189  1.7557
  481MOL0     H64914   9.330   5.114   9.734 -0.0608 -0.8414 -0.8251
  481MOL0     H64915   8.470   4.337   9.615 -3.5883  0.7960  4.3738
  481MOL0     H64916   8.238   4.272   9.531  0.5630 -0.2964  1.0216
  481MOL0     H64917   7.886   4.264   9.089 -1.6385 -0.0840 -1.3341
  481MOL0     H64918   7.632   4.241   9.078 -1.0481  3.7521 -1.9086
  481MOL0     H64919   5.772   3.854   9.977 -1.7172 -0.5667 -0.1964
  481MOL0     H64920   5.547   3.919   9.943  1.0395 -0.2777  0.3828
  481MOL0     H64921   5.313   4.283   9.674  0.0365 -1.4918  0.5567
  481MOL0     H64922   5.093   4.360   9.618  0.6847  1.1403 -0.9723
  481MOL0     H64923   4.810   4.337   9.615  1.0138 -0.7897  0.3120
  481MOL0     H64924   4.892   4.492   9.649  1.1323 -0.3981  0.8914
  481MOL0     H64925   4.637   4.529   9.619 -0.7702 -1.4323  0.4009
  481MOL0     H64926   4.721   4.581   9.771  0.3484 -0.0044 -0.4102
  481MOL0     H64927   4.608   4.441   9.900 -2.5153 -1.0212  1.1384
  481MOL0     H64928   4.591   4.319   9.786  0.8112 -0.4041  0.7252
  481MOL0     H64929   4.429   4.565   9.843  1.7120  0.7720 -0.1234
  481MOL0     H64930   4.417   4.511   9.674 -1.4072 -4.2661 -1.1343
  481MOL0     H64931   4.235   4.175   9.802 -1.8460  0.5539 -2.7298
  481MOL0     H64932   4.948   4.249  10.008 -1.8795  1.3723 -1.4491
  481MOL0     H64933   5.065   4.160  10.162  0.5387 -0.7731  1.1691
  481MOL0     H64934   5.216   4.074  10.133  3.6075  1.5282 -0.9555
  481MOL0     H64935   5.206   4.253  10.180 -1.6122  1.4643 -1.8131
  482MOL0     O64936   2.717   3.065  10.847  0.4445 -0.0964  0.6574
  482MOL0     C64937   2.666   2.977  10.920  0.3041  0.3679  0.4968
  482MOL0     O64938   2.733   2.878  10.980  0.5641  0.0789  0.2581
  482MOL0     C64939   2.864   2.868  10.941  0.7189  0.1679  1.1269
  482MOL0     C64940   2.970   2.891  11.028 -0.4094  0.2356 -0.5493
  482MOL0     C64941   3.104   2.883  10.990 -0.6096  0.3638  0.3272
  482MOL0     C64942   3.139   2.818  10.874 -0.4701 -0.9047 -0.4133
  482MOL0     O64943   3.278   2.803  10.858 -0.0545 -0.4401 -0.5557
  482MOL0     C64944   3.335   2.674  10.814  0.3274  0.1598 -0.2037
  482MOL0     C64945   3.418   2.612  10.928  0.0104  0.6082  0.2461
  482MOL0     C64946   3.469   2.466  10.916 -0.6097  0.2401  0.0914
  482MOL0     C64947   3.575   2.431  11.026  1.3165 -1.0867  0.6691
  482MOL0     C64948   3.607   2.286  11.021  0.0878 -0.2013  0.5973
  482MOL0     C64949   3.684   2.234  10.899  0.3193 -0.3113  0.0781
  482MOL0     C64950   3.780   2.123  10.944 -0.5329  0.6020 -0.4661
  482MOL0     C64951   3.887   2.093  10.834  0.7828 -0.5794 -0.9272
  482MOL0     N64952   3.989   1.999  10.867 -0.0121  0.2902  0.0871
  482MOL0     C64953   3.974   1.864  10.911 -0.4737 -0.3983  0.5759
  482MOL0     C64954   4.081   1.801  10.886 -0.2553  0.3216  0.2171
  482MOL0     C64955   4.116   1.656  10.910 -0.3581 -0.1783 -0.0173
  482MOL0     C64956   4.195   1.653  11.050 -0.2392 -0.2586 -0.0640
  482MOL0     C64957   4.250   1.509  11.068 -0.1286  0.3610  0.2070
  482MOL0     C64958   4.366   1.480  11.175 -0.4382 -0.5948 -1.0324
  482MOL0     O64959   4.489   1.548  11.145 -0.0928  0.4012 -0.1030
  482MOL0     C64960   4.610   1.510  11.202 -0.7976 -0.0962  0.5142
  482MOL0     C64961   4.716   1.596  11.171  0.3000  0.9127  0.0602
  482MOL0     C64962   4.850   1.557  11.194  0.1675 -0.9220  0.5801
  482MOL0     C64963   4.882   1.432  11.259  0.3817 -0.1236  0.4667
  482MOL0     C64964   5.024   1.397  11.285  0.4152  1.3946 -0.2893
  482MOL0     O64965   5.122   1.471  11.224 -0.3655 -0.4168  0.1656
  482MOL0     C64966   5.254   1.448  11.256 -0.2495  0.1619 -0.0702
  482MOL0     C64967   5.311   1.318  11.246 -0.4524 -0.2861 -0.0805
  482MOL0     C64968   5.452   1.304  11.267  0.0696 -0.5192 -0.5212
  482MOL0     C64969   5.529   1.416  11.306 -0.3034  0.1439  0.2244
  482MOL0     O64970   5.664   1.401  11.326 -0.4135 -0.0377 -0.1753
  482MOL0     C64971   5.745   1.413  11.210  0.0979 -0.8203  0.8134
  482MOL0     C64972   5.840   1.291  11.179  0.3249 -0.1639 -0.6897
  482MOL0     C64973   5.918   1.249  11.309  0.8979  0.8390 -0.2088
  482MOL0     C64974   6.071   1.233  11.268 -0.6433  1.1057 -0.4044
  482MOL0     C64975   6.142   1.139  11.351  0.1610 -1.1937 -0.6284
  482MOL0     C64976   6.272   1.090  11.277  0.1032 -0.4846 -0.5245
  482MOL0     C64977   6.367   1.213  11.255 -1.1092  0.1560  0.2789
  482MOL0     C64978   6.495   1.175  11.196 -0.1295  0.2816 -0.8334
  482MOL0    Cl64979   6.600   1.320  11.210  0.2147  0.0976  0.2450
  482MOL0     C64980   5.467   1.539  11.328 -0.3572  0.1934 -0.4692
  482MOL0     C64981   5.327   1.555  11.301 -0.3061  0.3683 -0.2133
  482MOL0     O64982   5.042   1.288  11.344 -0.1263  0.8262  0.1906
  482MOL0     C64983   4.770   1.360  11.303 -0.2376 -0.2418 -0.3445
  482MOL0     C64984   4.636   1.388  11.266 -0.0018  0.2992 -0.4149
  482MOL0     N64985   4.173   1.890  10.842 -0.2114  0.0153  0.1573
  482MOL0     N64986   4.117   2.010  10.827  0.2141 -0.0929  0.1192
  482MOL0     C64987   3.037   2.782  10.789 -0.2250 -0.0461 -0.7484
  482MOL0     C64988   2.900   2.810  10.818  0.1129 -1.1511  0.8653
  482MOL0     C64989   2.516   2.973  10.923  0.2898  0.2620  0.1156
  482MOL0     C64990   2.451   3.071  11.001  0.6374  0.2729  0.0372
  482MOL0     C64991   2.316   3.084  11.014  0.0645  0.3027 -0.4694
  482MOL0     C64992   2.236   2.991  10.943 -0.2655 -0.3206  0.9403
  482MOL0     O64993   2.095   3.006  10.952  0.6476  0.5766 -0.0629
  482MOL0     C64994   2.012   2.899  10.910  0.1444  0.4264 -0.3236
  482MOL0     C64995   1.867   2.919  10.955 -0.2786 -0.8756 -1.3784
  482MOL0     C64996   1.776   2.811  10.903 -0.4464 -0.0222  0.6045
  482MOL0     C64997   1.640   2.847  10.971  1.2909  0.0937  0.1319
  482MOL0     C64998   1.558   2.728  10.947  0.2667 -0.4156 -0.3386
  482MOL0     C64999   1.478   2.636  10.938 -0.5759 -0.6096  0.0575
  482MOL0     C65000   2.293   2.895  10.866 -0.0920 -0.2427 -0.3807
  482MOL0     C65001   2.437   2.879  10.851  0.7618  0.3508  0.1359
  482MOL0     C65002   2.491   2.775  10.766 -0.3804 -0.4833  0.2971
  482MOL0     H65003   2.956   2.929  11.129  2.6872  0.2690 -0.0333
  482MOL0     H65004   3.183   2.909  11.060  0.3773  0.0210 -0.6301
  482MOL0     H65005   3.254   2.606  10.786  0.4152  0.7165 -1.8888
  482MOL0     H65006   3.395   2.676  10.723 -2.2949 -1.1965 -2.0882
  482MOL0     H65007   3.355   2.630  11.015  1.5559 -1.7694  2.0039
  482MOL0     H65008   3.511   2.670  10.938  1.1245 -0.5435 -2.4395
  482MOL0     H65009   3.517   2.450  10.819  3.8350  1.9762  1.7462
  482MOL0     H65010   3.388   2.393  10.928  0.1236 -0.5091  0.5508
  482MOL0     H65011   3.669   2.484  11.007  2.2466 -2.4211  1.3639
  482MOL0     H65012   3.534   2.467  11.120 -1.8020  2.1974 -1.6678
  482MOL0     H65013   3.672   2.283  11.109  0.3804 -2.4005  0.3681
  482MOL0     H65014   3.520   2.223  11.044  2.0572 -2.9498  1.0034
  482MOL0     H65015   3.610   2.202  10.825  1.1406 -1.0738 -0.4327
  482MOL0     H65016   3.737   2.312  10.844 -1.7189 -2.3002 -5.3376
  482MOL0     H65017   3.715   2.038  10.967  0.4767  0.7507  3.7529
  482MOL0     H65018   3.825   2.152  11.039 -3.4829 -1.2068  1.6535
  482MOL0     H65019   3.830   2.057  10.748  0.7989  0.5831 -1.4525
  482MOL0     H65020   3.937   2.187  10.806 -1.5003  0.5370 -1.5030
  482MOL0     H65021   3.880   1.829  10.953 -0.2799  1.8745  3.1596
  482MOL0     H65022   4.041   1.579  10.892  1.7000 -1.8579 -2.0300
  482MOL0     H65023   4.198   1.635  10.840  1.7933  1.9445  1.6824
  482MOL0     H65024   4.277   1.723  11.068 -0.0336 -0.5067 -0.0254
  482MOL0     H65025   4.133   1.656  11.141  1.8445 -1.7135  1.5169
  482MOL0     H65026   4.302   1.494  10.973 -2.7471  1.2519 -1.4877
  482MOL0     H65027   4.166   1.439  11.076  0.8599 -0.8426  0.1984
  482MOL0     H65028   4.383   1.373  11.186  0.5241 -0.4286 -0.7841
  482MOL0     H65029   4.336   1.506  11.277 -1.7853 -0.5779 -1.4212
  482MOL0     H65030   4.696   1.693  11.126 -0.9714 -0.0189 -1.4993
  482MOL0     H65031   4.930   1.622  11.161  0.7483 -2.0369 -0.2740
  482MOL0     H65032   5.249   1.233  11.218 -0.0170 -0.5893 -0.1377
  482MOL0     H65033   5.500   1.206  11.262  2.9819  0.8657 -2.5766
  482MOL0     H65034   5.687   1.428  11.119  0.3899  2.3308  1.0169
  482MOL0     H65035   5.810   1.500  11.227  1.5825 -1.6681 -0.2797
  482MOL0     H65036   5.778   1.204  11.156  0.5577  0.1921 -2.9116
  482MOL0     H65037   5.912   1.312  11.099 -0.0464 -0.0282 -0.9872
  482MOL0     H65038   5.906   1.321  11.390 -0.4571 -2.6232  2.9464
  482MOL0     H65039   5.867   1.163  11.353 -2.2148  2.0769 -1.1301
  482MOL0     H65040   6.116   1.333  11.275 -1.1314  1.2300  1.7753
  482MOL0     H65041   6.082   1.200  11.165  0.9719  1.1373 -0.2636
  482MOL0     H65042   6.072   1.058  11.369 -1.6476  0.5599  0.7333
  482MOL0     H65043   6.180   1.186  11.442  0.8419  0.2437 -1.6059
  482MOL0     H65044   6.316   1.023  11.351 -3.5298  1.0229  3.3934
  482MOL0     H65045   6.250   1.043  11.181 -2.7967  0.9916 -0.6969
  482MOL0     H65046   6.388   1.258  11.352 -0.7287 -1.8772  1.1778
  482MOL0     H65047   6.330   1.287  11.183 -0.5746 -0.0487 -0.2129
  482MOL0     H65048   6.545   1.106  11.264 -1.1682  1.6350  1.4530
  482MOL0     H65049   6.489   1.124  11.099  4.4984  0.3907 -1.3611
  482MOL0     H65050   5.515   1.631  11.361 -1.5481  0.5675  0.2865
  482MOL0     H65051   5.285   1.654  11.318  2.5936  1.6718 -0.0433
  482MOL0     H65052   4.784   1.264  11.353  1.4135  1.3035  2.4294
  482MOL0     H65053   4.552   1.326  11.294  0.8472 -0.3477  0.8126
  482MOL0     H65054   3.065   2.729  10.698  1.8634  0.2942 -0.3364
  482MOL0     H65055   2.823   2.772  10.751 -0.1189 -2.6287  1.9242
  482MOL0     H65056   2.509   3.143  11.058 -0.5520  0.6584  0.8022
  482MOL0     H65057   2.264   3.151  11.081 -1.6290  1.2956 -2.6221
  482MOL0     H65058   2.056   2.804  10.942  0.6184  0.5237 -0.6598
  482MOL0     H65059   2.015   2.875  10.803  1.5777 -2.4117  0.2339
  482MOL0     H65060   1.828   3.016  10.924  2.4384  1.2574  1.2091
  482MOL0     H65061   1.869   2.923  11.064  2.6703  0.0847 -1.3797
  482MOL0     H65062   1.819   2.721  10.947 -0.5209  0.5883  2.0109
  482MOL0     H65063   1.758   2.803  10.796  0.7285  0.5822  0.3494
  482MOL0     H65064   1.648   2.878  11.075 -2.6042  2.3073 -0.0450
  482MOL0     H65065   1.601   2.938  10.924 -2.4360 -1.7623 -0.8223
  482MOL0     H65066   1.402   2.559  10.938 -3.2226  1.7522 -2.3779
  482MOL0     H65067   2.228   2.831  10.806 -0.6726 -0.8640  0.8735
  482MOL0     H65068   2.425   2.690  10.747 -3.1511  1.4883  0.5842
  482MOL0     H65069   2.508   2.812  10.664 -2.7551 -0.4934 -0.1526
  482MOL0     H65070   2.585   2.741  10.811  0.2247  0.9226  0.1452
  483MOL0     O65071  10.150   9.423   2.034 -0.5631 -0.0630 -0.1339
  483MOL0     C65072  10.049   9.457   1.984 -0.2645 -0.8788 -0.0064
  483MOL0     O65073  10.037   9.534   1.870 -0.4204  0.0331  0.4951
  483MOL0     C65074  10.148   9.578   1.802  0.1462  0.3596  0.2264
  483MOL0     C65075  10.167   9.714   1.788  0.0993  0.0548  0.3595
  483MOL0     C65076  10.289   9.761   1.733  0.6776 -0.3740 -0.2621
  483MOL0     C65077  10.391   9.674   1.688  0.4709  0.0932  0.7132
  483MOL0     O65078  10.519   9.720   1.654 -0.3870 -0.2513 -0.0275
  483MOL0     C65079  10.536   9.855   1.597  0.1464 -0.2508  0.6708
  483MOL0     C65080  10.680   9.876   1.572 -0.1946  0.3271 -0.0875
  483MOL0     C65081  10.767   9.830   1.691  0.3889 -0.2895  0.9061
  483MOL0     C65082  10.897   9.907   1.706 -1.0618 -0.0901 -0.1229
  483MOL0     C65083  10.980   9.860   1.830 -0.1116 -0.0981 -0.1660
  483MOL0     C65084  11.092   9.961   1.853  0.6893 -0.2632  0.7889
  483MOL0     C65085  11.155   9.947   1.991 -0.4377 -0.5071  0.1501
  483MOL0     C65086  11.262  10.056   2.016  0.3594 -0.2091 -0.5448
  483MOL0     N65087  11.382  10.019   1.939 -0.4918  0.6848  0.2812
  483MOL0     C65088  11.503  10.095   1.959  0.5823  0.1297 -0.6080
  483MOL0     C65089  11.599  10.036   1.892 -1.0512  0.4189  0.1774
  483MOL0     C65090  11.738  10.085   1.877 -1.4596  0.7527 -1.2731
  483MOL0     C65091  11.734  10.198   1.777  1.0800  0.3528  0.2852
  483MOL0     C65092  11.856  10.207   1.696 -0.8863  0.1045  0.4373
  483MOL0     C65093  11.870  10.351   1.633 -1.0157 -0.4717 -0.0138
  483MOL0     O65094  11.988  10.353   1.545  0.1996 -0.2302 -1.2806
  483MOL0     C65095  12.117  10.338   1.590  0.4265 -0.3259 -0.7661
  483MOL0     C65096  12.149  10.354   1.724  0.3861  0.4187 -0.1045
  483MOL0     C65097  12.284  10.347   1.765 -0.2450 -0.4250 -0.6478
  483MOL0     C65098  12.391  10.347   1.672 -0.7867  0.8807 -0.4397
  483MOL0     C65099  12.538  10.361   1.708 -0.1565 -0.1883  0.7553
  483MOL0     O65100  12.630  10.352   1.611 -0.5956  0.6237  0.8638
  483MOL0     C65101  12.757  10.401   1.627 -0.8433  0.2472  0.4681
  483MOL0     C65102  12.785  10.537   1.594  0.9705  0.6481 -0.5005
  483MOL0     C65103  12.908  10.591   1.611 -0.2598 -0.4122 -0.6416
  483MOL0     C65104  13.012  10.522   1.674  0.2472  0.3610 -0.9408
  483MOL0     O65105  13.135  10.586   1.671 -0.0914  0.6715  0.3549
  483MOL0     C65106  13.241  10.543   1.752 -0.9415  0.4323 -0.5868
  483MOL0     C65107  13.351  10.660   1.774  0.2679 -0.4466  0.3899
  483MOL0     C65108  13.476  10.602   1.852  1.0914  0.1581  0.3070
  483MOL0     C65109  13.590  10.701   1.815  0.1152  0.2015 -0.8936
  483MOL0     C65110  13.720  10.675   1.883 -0.2370  0.6518  0.5661
  483MOL0     C65111  13.788  10.808   1.939  0.1339 -0.2837  0.0436
  483MOL0     C65112  13.912  10.776   2.016 -0.8490  0.0519 -0.5110
  483MOL0     C65113  14.028  10.714   1.941 -0.0663  0.7156 -0.2611
  483MOL0    Cl65114  14.059  10.801   1.790  0.1799 -0.2619  0.3559
  483MOL0     C65115  12.979  10.393   1.719 -0.1495  0.2976  0.4525
  483MOL0     C65116  12.853  10.333   1.695  0.4741  0.2906  0.4403
  483MOL0     O65117  12.563  10.367   1.827  0.2834  0.1745  0.5092
  483MOL0     C65118  12.355  10.332   1.539  0.5814  0.7150  0.1268
  483MOL0     C65119  12.220  10.317   1.497 -0.2343 -0.1555 -0.3189
  483MOL0     N65120  11.542   9.919   1.839  1.0754  0.5883 -0.1519
  483MOL0     N65121  11.413   9.916   1.857  0.5458 -0.6755  0.2606
  483MOL0     C65122  10.367   9.535   1.702 -0.1492  0.2273 -0.2834
  483MOL0     C65123  10.245   9.491   1.753  0.3936  0.6105  0.5758
  483MOL0     C65124   9.912   9.455   2.051  0.4091  1.2636 -0.9949
  483MOL0     C65125   9.810   9.531   2.001  0.0268  1.0517 -0.3635
  483MOL0     C65126   9.684   9.533   2.052  0.2116 -0.4362  0.9034
  483MOL0     C65127   9.653   9.463   2.167  0.4090  0.0559 -0.0994
  483MOL0     O65128   9.519   9.467   2.211  0.4848 -0.1674 -0.4600
  483MOL0     C65129   9.469   9.399   2.324  0.2423  0.5714 -0.0590
  483MOL0     C65130   9.481   9.476   2.455  0.4220 -0.2931 -0.0696
  483MOL0     C65131   9.614   9.463   2.536  1.3886  0.1664  0.6801
  483MOL0     C65132   9.625   9.328   2.601 -0.5463 -0.5371 -0.9898
  483MOL0     C65133   9.763   9.281   2.637 -0.1867  0.5276 -0.9780
  483MOL0     C65134   9.871   9.236   2.670  0.4167  0.1701 -0.0487
  483MOL0     C65135   9.759   9.385   2.232  0.0878  0.1728  0.1651
  483MOL0     C65136   9.886   9.381   2.174 -0.5768 -0.9068  0.0974
  483MOL0     C65137   9.993   9.297   2.238 -0.7641  0.1654  0.5565
  483MOL0     H65138  10.084   9.771   1.828  0.6026  0.2673  1.1349
  483MOL0     H65139  10.290   9.869   1.744 -0.3846 -0.4044  0.2914
  483MOL0     H65140  10.495   9.882   1.499  3.0177 -1.9535 -1.1644
  483MOL0     H65141  10.516   9.934   1.670 -0.2354  0.2653  0.0208
  483MOL0     H65142  10.712   9.980   1.558  1.0239  0.1035  0.8566
  483MOL0     H65143  10.719   9.820   1.487 -0.4136  2.7356 -1.8840
  483MOL0     H65144  10.782   9.722   1.683  0.7818 -0.2860  1.5404
  483MOL0     H65145  10.711   9.848   1.783 -2.1576  0.9121 -0.7652
  483MOL0     H65146  10.957   9.883   1.618  0.7689 -2.6405  1.6824
  483MOL0     H65147  10.871  10.013   1.720  3.4960  1.1709  0.6587
  483MOL0     H65148  10.926   9.835   1.923  2.2590  0.0613  1.3474
  483MOL0     H65149  11.038   9.775   1.794 -1.3486 -1.1676  0.2600
  483MOL0     H65150  11.160   9.951   1.767  1.7135  0.0852  1.5326
  483MOL0     H65151  11.038  10.056   1.846 -2.2965 -1.7871  1.5281
  483MOL0     H65152  11.205   9.850   1.984 -3.7157 -2.2211 -2.7744
  483MOL0     H65153  11.083   9.947   2.073  1.2616  0.3537  1.7125
  483MOL0     H65154  11.211  10.143   1.974  0.1325 -0.5893 -1.0866
  483MOL0     H65155  11.273  10.076   2.123  0.8619  1.2060 -0.8477
  483MOL0     H65156  11.508  10.186   2.016 -0.1836 -1.4241  2.1239
  483MOL0     H65157  11.782  10.117   1.972 -1.0773 -0.9137 -0.8597
  483MOL0     H65158  11.803  10.005   1.839  0.0263  1.5604 -0.5235
  483MOL0     H65159  11.651  10.186   1.706  0.2368  0.5608  1.2032
  483MOL0     H65160  11.719  10.289   1.835  1.0013  1.1644 -0.9683
  483MOL0     H65161  11.864  10.135   1.614  2.1351 -2.0703  2.4167
  483MOL0     H65162  11.946  10.193   1.757 -1.2682 -1.3385  0.7193
  483MOL0     H65163  11.879  10.421   1.716  1.4713 -1.3584  0.5439
  483MOL0     H65164  11.785  10.376   1.570 -2.5694 -1.2972  1.6520
  483MOL0     H65165  12.078  10.375   1.804 -0.1057 -0.7908 -0.1982
  483MOL0     H65166  12.314  10.355   1.869  0.5788 -1.0675 -0.8253
  483MOL0     H65167  12.704  10.600   1.558  0.5997 -0.2169 -1.2075
  483MOL0     H65168  12.925  10.688   1.564 -2.3970  0.9870  1.2442
  483MOL0     H65169  13.202  10.504   1.847 -2.1759 -1.5497 -1.8300
  483MOL0     H65170  13.299  10.461   1.708  0.0365 -0.8896  2.8429
  483MOL0     H65171  13.379  10.701   1.676 -4.8916  0.8899 -0.8657
  483MOL0     H65172  13.314  10.752   1.820  2.9531  2.2544 -2.3528
  483MOL0     H65173  13.462  10.600   1.960  1.3473  2.4482  0.4309
  483MOL0     H65174  13.502  10.504   1.810 -2.0970 -0.0547 -1.5218
  483MOL0     H65175  13.558  10.802   1.842 -1.3741 -0.0085 -1.7688
  483MOL0     H65176  13.612  10.710   1.708 -0.9141  0.4377 -1.0996
  483MOL0     H65177  13.793  10.632   1.814  2.3308  4.1534  0.8116
  483MOL0     H65178  13.716  10.607   1.968  2.2870  1.4679  1.4492
  483MOL0     H65179  13.807  10.875   1.854 -0.8142  0.0532  0.0850
  483MOL0     H65180  13.718  10.864   2.002  0.9528  0.0953  0.6412
  483MOL0     H65181  13.888  10.706   2.097 -3.4948  1.5633  0.1356
  483MOL0     H65182  13.951  10.870   2.054 -0.4825 -0.2058 -0.2419
  483MOL0     H65183  14.115  10.720   2.006  0.6665 -2.0960 -0.8528
  483MOL0     H65184  13.997  10.612   1.913  0.6539  0.8284 -1.5866
  483MOL0     H65185  13.060  10.331   1.757  0.8099  1.2127 -0.0368
  483MOL0     H65186  12.840  10.226   1.710  0.6048  0.2458  0.2298
  483MOL0     H65187  12.425  10.322   1.456  0.6019  0.5831  0.1592
  483MOL0     H65188  12.191  10.302   1.393  2.1533 -1.0785 -0.9345
  483MOL0     H65189  10.437   9.458   1.673 -1.3333 -1.3062  0.7368
  483MOL0     H65190  10.223   9.385   1.748  0.9456  0.5418 -1.0733
  483MOL0     H65191   9.813   9.582   1.906 -1.9708  0.1578 -0.9540
  483MOL0     H65192   9.604   9.582   1.998  0.2585 -1.6238 -0.2827
  483MOL0     H65193   9.514   9.299   2.333 -0.3699  0.4122  1.8221
  483MOL0     H65194   9.362   9.382   2.305  0.0835  1.5904 -0.0950
  483MOL0     H65195   9.396   9.458   2.522 -0.7908  2.5402 -0.6862
  483MOL0     H65196   9.473   9.581   2.425  2.9759 -0.3678 -1.3258
  483MOL0     H65197   9.626   9.546   2.607  1.2843 -0.4663  1.4488
  483MOL0     H65198   9.694   9.474   2.462 -1.2023  1.8815 -2.1254
  483MOL0     H65199   9.580   9.321   2.700  2.7251 -2.3880  0.5545
  483MOL0     H65200   9.590   9.244   2.540 -3.2304 -0.1954 -0.0292
  483MOL0     H65201   9.968   9.195   2.689  1.0686  1.1624 -1.1242
  483MOL0     H65202   9.738   9.326   2.321  0.5763 -0.0783  0.1163
  483MOL0     H65203  10.068   9.362   2.284 -0.2141  0.3111 -0.5192
  483MOL0     H65204   9.944   9.233   2.312 -1.9626  0.7003  0.2516
  483MOL0     H65205  10.037   9.238   2.157  0.5368  0.4447  1.0438
  484MOL0     O65206   9.440   1.937   1.950  0.2894  0.1359 -0.1823
  484MOL0     C65207   9.370   1.987   2.039  0.2545 -0.1837 -0.8071
  484MOL0     O65208   9.410   2.019   2.161 -0.4895  0.0455 -0.2018
  484MOL0     C65209   9.530   1.972   2.214 -0.8214  0.2567 -0.6517
  484MOL0     C65210   9.608   2.069   2.284 -0.3820  0.6134 -0.1088
  484MOL0     C65211   9.736   2.040   2.334 -0.3306 -0.0074  0.1599
  484MOL0     C65212   9.777   1.909   2.324  0.2450  0.1327 -0.4649
  484MOL0     O65213   9.896   1.865   2.371 -0.1456  0.0101  0.1336
  484MOL0     C65214   9.937   1.899   2.506 -0.3365  0.3011 -0.3930
  484MOL0     C65215  10.010   1.782   2.570  0.6402  0.5100 -0.3860
  484MOL0     C65216  10.023   1.787   2.727  0.4827 -0.2323  0.4146
  484MOL0     C65217  10.119   1.907   2.768  0.5231  0.8340  0.1523
  484MOL0     C65218  10.164   1.924   2.913 -0.9141  0.5800 -0.6237
  484MOL0     C65219  10.256   1.819   2.972  0.5055 -0.0335  0.4999
  484MOL0     C65220  10.276   1.829   3.124  0.2690 -0.4570 -0.4584
  484MOL0     C65221  10.146   1.799   3.209  1.3238  0.3030 -0.0036
  484MOL0     N65222  10.181   1.764   3.343 -0.3728  0.3033 -0.5152
  484MOL0     C65223  10.235   1.645   3.392  0.5170  0.6121 -0.4841
  484MOL0     C65224  10.266   1.666   3.526  1.0813 -0.3790  0.7387
  484MOL0     C65225  10.329   1.577   3.628 -0.7676  0.2070  0.4185
  484MOL0     C65226  10.485   1.604   3.637  0.4227  0.2954  0.2368
  484MOL0     C65227  10.544   1.530   3.761  0.4763 -0.3517 -0.0493
  484MOL0     C65228  10.694   1.508   3.755 -0.2347 -0.5837  0.4466
  484MOL0     O65229  10.752   1.643   3.775  0.4367  0.0804  0.0804
  484MOL0     C65230  10.874   1.663   3.727 -0.8957 -0.2768  0.4354
  484MOL0     C65231  10.941   1.589   3.623  0.7823 -0.3572 -0.1513
  484MOL0     C65232  11.062   1.641   3.584  0.2981  0.0922  0.5167
  484MOL0     C65233  11.117   1.757   3.627  0.1237 -0.6682  0.8909
  484MOL0     C65234  11.256   1.800   3.583  0.7290  0.5695  0.3257
  484MOL0     O65235  11.319   1.896   3.655  0.3716 -0.0549 -0.3997
  484MOL0     C65236  11.453   1.920   3.625 -0.5395 -0.1071  0.6095
  484MOL0     C65237  11.541   1.932   3.740  0.0233 -0.3614 -0.3413
  484MOL0     C65238  11.680   1.942   3.719 -0.3945 -0.1485  1.0806
  484MOL0     C65239  11.727   1.956   3.585 -0.2999 -0.0446 -0.8059
  484MOL0     O65240  11.855   1.985   3.556 -0.0289  0.1294 -0.0146
  484MOL0     C65241  11.952   1.891   3.604 -0.2386  0.0112 -0.7394
  484MOL0     C65242  11.980   1.777   3.503  0.7336 -0.6367 -0.1181
  484MOL0     C65243  12.094   1.689   3.544  0.7420  0.7477 -0.1377
  484MOL0     C65244  12.232   1.728   3.503 -0.6721 -0.1263 -0.5527
  484MOL0     C65245  12.351   1.640   3.542 -0.5220  0.5404 -0.5376
  484MOL0     C65246  12.494   1.704   3.551 -0.0034 -0.5299  0.8309
  484MOL0     C65247  12.596   1.602   3.598  0.3681  0.8133  0.4960
  484MOL0     C65248  12.727   1.668   3.628 -0.2451  0.1530 -0.3630
  484MOL0    Cl65249  12.862   1.577   3.562 -0.2299 -0.3480  0.1966
  484MOL0     C65250  11.646   1.948   3.472  0.2221 -0.5637  0.1115
  484MOL0     C65251  11.508   1.929   3.496  0.1276  0.8448 -0.1699
  484MOL0     O65252  11.295   1.745   3.479 -0.5303 -0.1518  0.3078
  484MOL0     C65253  11.053   1.831   3.719 -0.0822  0.1402 -0.1242
  484MOL0     C65254  10.936   1.783   3.769  0.7205  0.5465  0.6588
  484MOL0     N65255  10.212   1.802   3.554 -0.8758  0.3902  0.3328
  484MOL0     N65256  10.167   1.852   3.442  0.4384 -0.0012 -0.1665
  484MOL0     C65257   9.699   1.813   2.252  0.2012 -0.0153  0.0294
  484MOL0     C65258   9.572   1.841   2.205  0.2252 -1.0828  0.2962
  484MOL0     C65259   9.227   2.019   2.011  1.0884 -0.4062 -0.1983
  484MOL0     C65260   9.144   2.052   2.125  0.6490  0.9737  0.4916
  484MOL0     C65261   9.008   2.078   2.106 -0.4752 -0.0349 -0.5067
  484MOL0     C65262   8.946   2.087   1.976 -0.7424 -0.4214  0.3670
  484MOL0     O65263   8.819   2.145   1.954 -0.0537 -0.0252 -0.0222
  484MOL0     C65264   8.715   2.112   2.036 -0.1289  0.1323 -0.9345
  484MOL0     C65265   8.609   2.075   1.944  0.0298 -0.0572  0.4197
  484MOL0     C65266   8.476   2.129   1.990  0.3159  0.0455  0.1172
  484MOL0     C65267   8.363   2.108   1.887 -0.3305  0.5588 -0.0964
  484MOL0     C65268   8.239   2.115   1.964  0.9042 -0.3902 -0.0985
  484MOL0     C65269   8.136   2.123   2.018 -0.0764  0.1134 -0.7537
  484MOL0     C65270   9.031   2.045   1.869  0.5872  0.3338 -0.2850
  484MOL0     C65271   9.163   2.022   1.881 -0.4278 -0.2248  0.0609
  484MOL0     C65272   9.233   2.010   1.746  0.2908  0.5001  0.3622
  484MOL0     H65273   9.577   2.172   2.273  3.2715  2.1668  2.2120
  484MOL0     H65274   9.800   2.111   2.387 -3.3328  0.3949  3.7294
  484MOL0     H65275  10.006   1.982   2.490 -1.5139  1.1284 -1.2997
  484MOL0     H65276   9.847   1.926   2.562  0.4418  3.0561 -0.3497
  484MOL0     H65277  10.111   1.767   2.530 -0.1265 -2.2384 -1.5164
  484MOL0     H65278   9.942   1.700   2.545  1.6008 -0.4165 -0.0341
  484MOL0     H65279  10.064   1.693   2.765 -3.7740 -2.6109 -0.2133
  484MOL0     H65280   9.920   1.804   2.758 -0.9241 -3.2616 -2.0016
  484MOL0     H65281  10.206   1.883   2.705 -0.7166 -3.5070 -0.2799
  484MOL0     H65282  10.084   2.004   2.733 -1.3098  0.4100  0.7147
  484MOL0     H65283  10.225   2.015   2.919  0.7451 -0.5885  1.9349
  484MOL0     H65284  10.080   1.933   2.982 -0.8342 -1.2498 -0.2308
  484MOL0     H65285  10.215   1.721   2.948  0.8331  0.4848 -2.5317
  484MOL0     H65286  10.354   1.820   2.922  0.8254  0.2394  1.1176
  484MOL0     H65287  10.308   1.931   3.152 -1.4339 -0.0406  0.0835
  484MOL0     H65288  10.348   1.751   3.150  0.9115 -0.2231 -1.4610
  484MOL0     H65289  10.077   1.883   3.209  1.8280  0.7306  0.8273
  484MOL0     H65290  10.094   1.711   3.170  2.4733  0.5658 -2.2675
  484MOL0     H65291  10.263   1.553   3.342 -3.0428 -1.1137  0.4112
  484MOL0     H65292  10.280   1.581   3.726 -4.0567 -0.9842 -1.0294
  484MOL0     H65293  10.323   1.471   3.603  1.3992  0.3415 -0.8936
  484MOL0     H65294  10.523   1.569   3.540 -1.7448 -1.1103 -0.1550
  484MOL0     H65295  10.507   1.711   3.647 -2.3405  0.8859  0.7293
  484MOL0     H65296  10.500   1.431   3.767 -0.1106 -0.0205  1.7026
  484MOL0     H65297  10.506   1.577   3.852  0.0939 -1.7329  0.5250
  484MOL0     H65298  10.717   1.461   3.659 -0.6836  2.3354 -1.2069
  484MOL0     H65299  10.734   1.445   3.835  1.9311  1.3968  1.0465
  484MOL0     H65300  10.904   1.507   3.562 -2.0403  0.4035  0.3841
  484MOL0     H65301  11.115   1.585   3.509  0.9040  1.8670 -0.4219
  484MOL0     H65302  11.503   1.921   3.841  0.2059 -2.8264 -0.4719
  484MOL0     H65303  11.752   1.948   3.800  0.4094  0.6573  0.3391
  484MOL0     H65304  12.043   1.951   3.616 -0.3384 -0.0403  0.3746
  484MOL0     H65305  11.919   1.848   3.699 -0.2534 -0.4148 -0.9341
  484MOL0     H65306  11.891   1.713   3.502 -1.3935  2.0055  2.1471
  484MOL0     H65307  12.005   1.808   3.401 -1.7163  0.1080 -0.5806
  484MOL0     H65308  12.089   1.699   3.653  1.2746  1.2369 -0.1519
  484MOL0     H65309  12.075   1.586   3.513  4.1743  0.1386 -0.7053
  484MOL0     H65310  12.248   1.830   3.541  3.7374 -0.6708 -0.4467
  484MOL0     H65311  12.245   1.732   3.395  4.1039  0.1695 -0.1609
  484MOL0     H65312  12.356   1.559   3.469  0.6753 -0.6314  0.7831
  484MOL0     H65313  12.321   1.601   3.639 -0.0444  1.4864  0.0179
  484MOL0     H65314  12.524   1.743   3.453 -0.3125 -0.7788  0.6346
  484MOL0     H65315  12.485   1.789   3.619 -1.6393  0.7744 -0.8942
  484MOL0     H65316  12.621   1.523   3.527 -0.1349  2.5808 -1.7774
  484MOL0     H65317  12.567   1.556   3.692 -3.7068 -1.3329 -1.5694
  484MOL0     H65318  12.723   1.772   3.596  1.3194  0.0022 -1.1333
  484MOL0     H65319  12.736   1.679   3.737  0.6115 -2.4474 -0.1054
  484MOL0     H65320  11.685   1.959   3.372  2.1183  0.3369  0.9071
  484MOL0     H65321  11.447   1.922   3.407  2.0858 -0.6882 -1.4756
  484MOL0     H65322  11.095   1.928   3.746 -0.8368  1.0029 -1.8954
  484MOL0     H65323  10.890   1.834   3.853  0.6550  0.5304  0.6329
  484MOL0     H65324   9.735   1.711   2.250  1.5781  0.4699 -1.1470
  484MOL0     H65325   9.523   1.764   2.146  0.3879 -0.3918 -0.7722
  484MOL0     H65326   9.178   2.043   2.227  2.1661 -1.6317 -0.1557
  484MOL0     H65327   8.943   2.103   2.189  1.3405 -1.2579  1.3671
  484MOL0     H65328   8.681   2.192   2.102  0.0826 -0.2715 -0.3221
  484MOL0     H65329   8.738   2.025   2.099  3.9366  0.8231 -1.2183
  484MOL0     H65330   8.609   1.967   1.926  1.9936  0.0051 -0.1303
  484MOL0     H65331   8.617   2.101   1.838  0.2215 -3.4411 -0.5045
  484MOL0     H65332   8.490   2.232   2.023  0.0751  0.7779 -1.9260
  484MOL0     H65333   8.434   2.076   2.076  0.2063 -1.2894 -0.7357
  484MOL0     H65334   8.372   2.193   1.818  1.8320  2.4749  2.3399
  484MOL0     H65335   8.378   2.018   1.827 -0.1548  0.2947  0.3409
  484MOL0     H65336   8.050   2.117   2.082  0.6647  0.0021  0.2495
  484MOL0     H65337   8.987   2.048   1.769 -3.5003  3.7355  1.2968
  484MOL0     H65338   9.257   1.907   1.719 -3.5107  0.4971 -4.3936
  484MOL0     H65339   9.181   2.046   1.657 -1.3566 -0.2999  0.9681
  484MOL0     H65340   9.320   2.075   1.757  0.0331  0.4266  3.6589
  485MOL0     O65341   8.124   8.282   2.830  0.1810 -0.1321 -0.6782
  485MOL0     C65342   8.119   8.189   2.754 -0.0164  0.5150 -0.7723
  485MOL0     O65343   8.227   8.126   2.706 -0.2993  0.6043  1.0069
  485MOL0     C65344   8.358   8.182   2.718 -0.5012  0.1595 -0.1946
  485MOL0     C65345   8.460   8.095   2.671 -0.3524  0.2157  0.0587
  485MOL0     C65346   8.601   8.124   2.680  0.9378 -0.4479 -0.8004
  485MOL0     C65347   8.633   8.248   2.737  0.5816 -0.0510 -0.2861
  485MOL0     O65348   8.768   8.284   2.751  0.2795 -0.4450  0.0699
  485MOL0     C65349   8.818   8.304   2.884  1.1605  0.2095  0.3402
  485MOL0     C65350   8.972   8.331   2.869 -0.2540 -0.0471  0.2030
  485MOL0     C65351   9.050   8.201   2.851  0.1675  0.0123 -0.2992
  485MOL0     C65352   9.195   8.236   2.876  0.3024  0.2345  0.6060
  485MOL0     C65353   9.271   8.102   2.860  0.4127  0.4726 -0.0589
  485MOL0     C65354   9.398   8.126   2.785  0.0040  0.6698 -0.2384
  485MOL0     C65355   9.504   8.019   2.816  0.0416  0.5086  0.0407
  485MOL0     C65356   9.456   7.867   2.768  0.4946  0.2599  0.1601
  485MOL0     N65357   9.454   7.843   2.626  0.0564 -0.3658  0.3190
  485MOL0     C65358   9.357   7.766   2.562 -0.3881  0.8000 -0.4253
  485MOL0     C65359   9.383   7.767   2.434 -0.1890  0.0805  0.6289
  485MOL0     C65360   9.302   7.716   2.322  0.6007 -0.0316 -0.4107
  485MOL0     C65361   9.174   7.808   2.290 -0.7809  0.2510  0.0154
  485MOL0     C65362   9.073   7.816   2.400 -0.0890  0.0318 -0.2140
  485MOL0     C65363   8.992   7.687   2.421  0.3662  0.2634 -0.6323
  485MOL0     O65364   8.875   7.717   2.503 -0.1900 -0.3011  0.5726
  485MOL0     C65365   8.763   7.751   2.431 -0.3961 -0.7708 -0.0965
  485MOL0     C65366   8.755   7.789   2.296  0.1110  0.9717  0.8089
  485MOL0     C65367   8.623   7.809   2.238  0.0894 -0.8840  0.3840
  485MOL0     C65368   8.510   7.802   2.329 -0.2799  0.7909  0.5755
  485MOL0     C65369   8.371   7.835   2.280  0.2179  0.0446 -0.3749
  485MOL0     O65370   8.348   7.884   2.150  0.6246 -0.6858 -0.1448
  485MOL0     C65371   8.211   7.908   2.126  0.3740  0.7353 -0.1326
  485MOL0     C65372   8.140   8.017   2.184  1.0110 -0.4972 -0.0556
  485MOL0     C65373   8.008   8.046   2.133 -0.0406 -0.1197  0.0006
  485MOL0     C65374   7.942   7.959   2.048  0.8435 -0.2402 -0.3510
  485MOL0     O65375   7.818   7.994   2.002  0.3829  0.1346 -0.3240
  485MOL0     C65376   7.768   7.926   1.891  0.8576 -0.7880  0.1242
  485MOL0     C65377   7.655   8.007   1.819 -0.5706 -0.3348 -0.2796
  485MOL0     C65378   7.540   8.066   1.898  0.1670 -0.5223 -0.3226
  485MOL0     C65379   7.424   7.975   1.931 -0.6511  0.9151  0.2799
  485MOL0     C65380   7.314   8.040   1.996  0.8072 -0.4035 -0.4038
  485MOL0     C65381   7.202   7.952   2.052 -0.0471 -0.1327 -0.2886
  485MOL0     C65382   7.096   8.044   2.128  0.9303  0.1156  0.0559
  485MOL0     C65383   6.983   7.960   2.182  0.1323 -0.7136 -0.4618
  485MOL0    Cl65384   7.033   7.793   2.245  0.1034 -0.3951 -0.2823
  485MOL0     C65385   8.012   7.839   2.012  0.0559 -0.5960  0.1458
  485MOL0     C65386   8.152   7.818   2.043  0.9116  0.6700  0.1485
  485MOL0     O65387   8.283   7.792   2.348  0.2164  0.1629  0.4407
  485MOL0     C65388   8.524   7.749   2.457  0.1694  0.6957  1.2207
  485MOL0     C65389   8.646   7.727   2.506 -0.2604 -0.5762 -0.1422
  485MOL0     N65390   9.489   7.855   2.419  0.9705 -0.1999  0.3375
  485MOL0     N65391   9.538   7.886   2.531 -0.1040  0.4255  1.1412
  485MOL0     C65392   8.536   8.335   2.775 -0.8515  0.7317 -0.5589
  485MOL0     C65393   8.402   8.299   2.787 -0.3465  0.1964 -0.4507
  485MOL0     C65394   7.990   8.152   2.692  0.7840 -0.4092  0.4248
  485MOL0     C65395   7.987   8.039   2.602 -0.1639  0.5297 -0.4732
  485MOL0     C65396   7.874   7.996   2.538 -0.4158  0.3412  0.2411
  485MOL0     C65397   7.750   8.065   2.546  0.5381 -0.5369 -0.4985
  485MOL0     O65398   7.644   8.028   2.476  0.5398 -0.5092  0.7745
  485MOL0     C65399   7.655   7.943   2.363 -0.0690  0.1816  0.6166
  485MOL0     C65400   7.520   7.943   2.293 -0.2647  1.1966  0.4936
  485MOL0     C65401   7.414   7.866   2.376  0.0286  0.2184 -0.0857
  485MOL0     C65402   7.450   7.730   2.430 -0.2472 -0.4091 -0.2115
  485MOL0     C65403   7.355   7.665   2.521 -0.1605  0.3251  0.3044
  485MOL0     C65404   7.279   7.603   2.595 -0.1765  0.0868 -0.0751
  485MOL0     C65405   7.740   8.168   2.641  0.0719  0.6698 -0.5684
  485MOL0     C65406   7.857   8.209   2.715 -0.1922 -0.4793 -0.4658
  485MOL0     C65407   7.833   8.320   2.820  0.6130  0.3673  1.2548
  485MOL0     H65408   8.421   8.000   2.637  0.1754 -0.7422  1.9970
  485MOL0     H65409   8.669   8.055   2.631 -1.6370 -1.7172 -2.8579
  485MOL0     H65410   8.771   8.393   2.926 -0.3836  1.2160 -3.1731
  485MOL0     H65411   8.799   8.224   2.957  0.3559 -0.9850 -1.1315
  485MOL0     H65412   8.996   8.382   2.963 -0.3835  0.5979 -0.1060
  485MOL0     H65413   8.997   8.394   2.784  0.7676  1.2249  1.3920
  485MOL0     H65414   9.034   8.160   2.750  1.2962 -2.7223  0.5249
  485MOL0     H65415   9.011   8.127   2.922 -0.9579  1.2414  0.4042
  485MOL0     H65416   9.222   8.313   2.803 -2.1598 -0.3608 -1.0567
  485MOL0     H65417   9.228   8.280   2.971  4.5432  1.1559 -1.0783
  485MOL0     H65418   9.302   8.062   2.957  1.0501  0.8564 -0.1047
  485MOL0     H65419   9.217   8.021   2.809  2.5217 -1.0080 -0.0437
  485MOL0     H65420   9.362   8.117   2.681 -2.2470 -0.4135  0.5543
  485MOL0     H65421   9.441   8.226   2.795 -0.1701  0.6480  0.8375
  485MOL0     H65422   9.543   8.018   2.918  2.8394  0.1809 -0.9274
  485MOL0     H65423   9.590   8.052   2.757 -0.7700  0.4773 -1.1940
  485MOL0     H65424   9.528   7.806   2.822 -1.4407 -1.0764  1.3705
  485MOL0     H65425   9.362   7.849   2.821  0.3970  1.5835  0.4867
  485MOL0     H65426   9.275   7.712   2.607  0.9442 -1.6842 -0.7665
  485MOL0     H65427   9.367   7.711   2.234  0.0222 -0.2655 -0.8350
  485MOL0     H65428   9.259   7.616   2.338 -0.6098  0.5202 -0.0688
  485MOL0     H65429   9.216   7.906   2.267  0.2712  0.0372  0.8797
  485MOL0     H65430   9.124   7.766   2.202 -0.6481 -0.9817  0.5011
  485MOL0     H65431   9.004   7.894   2.364  1.1027  0.3644 -1.9205
  485MOL0     H65432   9.114   7.854   2.494 -0.1960 -0.1415 -0.0963
  485MOL0     H65433   9.043   7.610   2.480 -2.0546  2.5130  5.1572
  485MOL0     H65434   8.959   7.635   2.331 -0.3151 -1.8218  0.7475
  485MOL0     H65435   8.842   7.832   2.249  0.0037  1.1723  0.7910
  485MOL0     H65436   8.629   7.847   2.137 -4.6704 -0.2373  0.1217
  485MOL0     H65437   8.194   8.088   2.246 -0.1329 -0.4139  0.8774
  485MOL0     H65438   7.963   8.139   2.168  2.0471  1.8275 -2.1259
  485MOL0     H65439   7.848   7.906   1.820  0.7414 -1.2646  0.1224
  485MOL0     H65440   7.725   7.833   1.930  2.4512 -0.6428  2.4672
  485MOL0     H65441   7.700   8.095   1.774  0.3285  0.9206  2.8061
  485MOL0     H65442   7.612   7.945   1.740 -1.7286  1.8596 -1.4267
  485MOL0     H65443   7.583   8.111   1.988 -1.8523  0.9303 -0.0106
  485MOL0     H65444   7.502   8.155   1.847 -0.0868  0.0989  0.9003
  485MOL0     H65445   7.468   7.890   1.984  1.1610  1.8482  0.3246
  485MOL0     H65446   7.370   7.943   1.841 -0.8323 -1.5220  1.1609
  485MOL0     H65447   7.271   8.122   1.937  2.8752 -0.6430 -2.3758
  485MOL0     H65448   7.363   8.093   2.078 -0.5375  0.0858  0.1189
  485MOL0     H65449   7.142   7.903   1.975 -0.7379 -0.9216  0.7256
  485MOL0     H65450   7.242   7.872   2.115 -2.8178 -0.9978  0.4903
  485MOL0     H65451   7.059   8.129   2.070  1.9073 -1.0532 -2.4375
  485MOL0     H65452   7.148   8.087   2.214 -0.6629  0.8130  0.7124
  485MOL0     H65453   6.945   8.016   2.268  0.8725  3.6401 -2.6567
  485MOL0     H65454   6.911   7.944   2.101 -1.8791  0.0490  1.0706
  485MOL0     H65455   7.960   7.759   1.959  0.3946 -0.6013 -0.1814
  485MOL0     H65456   8.190   7.719   2.018 -1.5564 -1.0779  2.6298
  485MOL0     H65457   8.440   7.726   2.521  0.0839 -2.3936  0.1900
  485MOL0     H65458   8.659   7.701   2.611 -1.1222  2.6576  0.8794
  485MOL0     H65459   8.559   8.437   2.806  1.8666 -0.1269  0.4774
  485MOL0     H65460   8.328   8.369   2.826 -0.7337 -0.6478  0.3611
  485MOL0     H65461   8.080   7.984   2.596 -0.6883 -0.4008 -0.2197
  485MOL0     H65462   7.895   7.920   2.464  1.6052  0.8392  0.2561
  485MOL0     H65463   7.694   7.846   2.398  2.8202  1.2149  0.5377
  485MOL0     H65464   7.731   7.971   2.290  1.2081 -2.4495  0.8206
  485MOL0     H65465   7.534   7.902   2.192  1.3690  3.0596 -0.0946
  485MOL0     H65466   7.493   8.047   2.273  0.0387  1.3396  0.8160
  485MOL0     H65467   7.315   7.855   2.331 -0.6970 -1.0862  1.7111
  485MOL0     H65468   7.412   7.932   2.463  1.8866 -0.8266  0.8082
  485MOL0     H65469   7.461   7.658   2.349 -1.0962 -0.9402  0.1246
  485MOL0     H65470   7.540   7.726   2.492 -0.5180 -0.6069  0.1790
  485MOL0     H65471   7.212   7.544   2.655  2.2530 -2.5200  0.3088
  485MOL0     H65472   7.648   8.224   2.656 -0.5817  0.7371 -3.9825
  485MOL0     H65473   7.732   8.301   2.860  0.3649 -0.3974  0.3114
  485MOL0     H65474   7.906   8.311   2.901  0.9283 -1.8655  0.7899
  485MOL0     H65475   7.826   8.420   2.776 -3.0147 -0.3362 -0.1275
  486MOL0     O65476   6.909   9.343   0.243 -0.1477  0.3913  0.1019
  486MOL0     C65477   6.904   9.372   0.363 -0.4521  0.4775  0.5366
  486MOL0     O65478   7.019   9.385   0.442  0.1774  0.4188  0.1135
  486MOL0     C65479   7.136   9.355   0.373 -0.3218 -0.1072 -0.8285
  486MOL0     C65480   7.183   9.224   0.394 -0.0909  0.4123 -0.0306
  486MOL0     C65481   7.312   9.183   0.362  0.3225  0.2461 -0.4080
  486MOL0     C65482   7.391   9.266   0.283 -0.3823  1.6391  0.4321
  486MOL0     O65483   7.515   9.214   0.241 -0.2847  0.2239 -0.2350
  486MOL0     C65484   7.619   9.304   0.222  0.5269 -0.2889  0.3535
  486MOL0     C65485   7.742   9.225   0.258 -0.0809 -0.3212  0.7245
  486MOL0     C65486   7.865   9.303   0.295  0.2727  0.1108  0.3137
  486MOL0     C65487   7.970   9.204   0.340  0.1886 -0.2370  0.2960
  486MOL0     C65488   8.021   9.103   0.244 -0.3707 -0.3317  0.2352
  486MOL0     C65489   8.055   9.149   0.103  0.0878 -0.9270  0.1075
  486MOL0     C65490   8.165   9.262   0.095 -0.2528  0.1001 -0.0917
  486MOL0     C65491   8.296   9.198   0.040  0.3975  0.8035  0.1640
  486MOL0     N65492   8.405   9.289   0.047 -0.1025  0.8106  0.0060
  486MOL0     C65493   8.517   9.257   0.128  0.9754 -0.1836  0.0815
  486MOL0     C65494   8.592   9.370   0.129 -0.6032 -0.3787  0.0883
  486MOL0     C65495   8.726   9.388   0.204  0.9835  0.9609  0.0179
  486MOL0     C65496   8.756   9.537   0.203 -0.5083  0.6282  0.9206
  486MOL0     C65497   8.891   9.559   0.276  0.0235  0.4994  0.8581
  486MOL0     C65498   8.940   9.701   0.291  0.4708  0.0736  0.2134
  486MOL0     O65499   9.082   9.709   0.305 -0.2898  0.4894  0.3039
  486MOL0     C65500   9.145   9.813   0.371 -0.7202 -0.1648 -0.0418
  486MOL0     C65501   9.271   9.800   0.424  0.3083  0.4552 -0.3841
  486MOL0     C65502   9.348   9.903   0.468 -0.3418 -0.6462 -0.0620
  486MOL0     C65503   9.297  10.034   0.450 -0.0028 -0.5753  0.6303
  486MOL0     C65504   9.381  10.161   0.487 -0.0610  0.3114 -1.0211
  486MOL0     O65505   9.504  10.152   0.542  0.2542  0.3905  0.4173
  486MOL0     C65506   9.581  10.265   0.575 -0.3488  0.6123  0.0928
  486MOL0     C65507   9.543  10.384   0.626 -0.5511 -0.4475  0.2510
  486MOL0     C65508   9.645  10.487   0.653  0.0879 -0.0335 -0.4060
  486MOL0     C65509   9.783  10.471   0.624 -0.2557  0.6605 -0.1233
  486MOL0     O65510   9.859  10.577   0.666 -0.1856 -0.0507 -0.8071
  486MOL0     C65511   9.999  10.573   0.627 -0.6265  0.4618 -0.4461
  486MOL0     C65512  10.062  10.713   0.661  0.2104  0.0175 -0.5137
  486MOL0     C65513  10.206  10.722   0.601  0.1581  0.0433 -0.4257
  486MOL0     C65514  10.269  10.857   0.615  0.3684  0.7195  0.2130
  486MOL0     C65515  10.409  10.867   0.571  1.0868 -0.3008 -0.5277
  486MOL0     C65516  10.505  10.820   0.681  0.8147 -0.4679 -0.4349
  486MOL0     C65517  10.648  10.850   0.642  0.2093 -0.1322 -0.3148
  486MOL0     C65518  10.737  10.825   0.763  0.0594  0.0617  0.0120
  486MOL0    Cl65519  10.909  10.843   0.702 -0.2217 -0.0327 -0.4723
  486MOL0     C65520   9.822  10.349   0.571  0.0610 -0.3512 -0.0069
  486MOL0     C65521   9.722  10.248   0.553  0.3424 -0.4431  0.9958
  486MOL0     O65522   9.327  10.271   0.464 -0.3646 -0.3534 -0.1386
  486MOL0     C65523   9.170  10.054   0.391 -0.4697 -1.5610 -0.4826
  486MOL0     C65524   9.096   9.940   0.360  0.4996 -0.0219  0.1530
  486MOL0     N65525   8.523   9.463   0.057 -0.1417 -0.3368  0.5727
  486MOL0     N65526   8.420   9.420   0.002  0.4793 -0.0118 -0.5153
  486MOL0     C65527   7.343   9.395   0.244 -0.4527 -0.1143  0.2765
  486MOL0     C65528   7.221   9.441   0.302 -0.2884 -0.6178 -0.1061
  486MOL0     C65529   6.769   9.396   0.418  0.0065  0.5158  0.6336
  486MOL0     C65530   6.661   9.338   0.351 -0.2815 -0.5445 -0.3248
  486MOL0     C65531   6.524   9.341   0.408 -0.3015  0.1652 -0.0413
  486MOL0     C65532   6.506   9.410   0.530 -0.4900  0.2488  0.4379
  486MOL0     O65533   6.372   9.416   0.563  0.2133 -0.4748  0.5348
  486MOL0     C65534   6.322   9.486   0.683 -0.0138 -0.4737 -0.2271
  486MOL0     C65535   6.169   9.498   0.683  0.0055  0.4594 -0.6005
  486MOL0     C65536   6.093   9.364   0.660  0.4506 -0.6287  0.5568
  486MOL0     C65537   5.948   9.396   0.621  0.9307 -0.5399 -0.2992
  486MOL0     C65538   5.873   9.415   0.749  0.6544 -0.2444  0.4048
  486MOL0     C65539   5.821   9.436   0.854 -0.4649  0.8857 -0.1496
  486MOL0     C65540   6.617   9.456   0.598  0.2731 -0.2051  0.2404
  486MOL0     C65541   6.744   9.461   0.540 -0.7926 -0.1333  0.4617
  486MOL0     C65542   6.851   9.533   0.617 -0.1381 -0.0071  0.0881
  486MOL0     H65543   7.113   9.169   0.457 -1.2985 -0.8687 -2.3651
  486MOL0     H65544   7.347   9.087   0.398  2.7507  0.4896 -1.8744
  486MOL0     H65545   7.618   9.351   0.123 -0.0646  0.4877  0.7213
  486MOL0     H65546   7.604   9.383   0.296 -0.6622 -0.7261  0.5950
  486MOL0     H65547   7.770   9.162   0.174  1.4187  1.3377 -0.0960
  486MOL0     H65548   7.720   9.160   0.343  2.7782 -0.8861  1.1405
  486MOL0     H65549   7.832   9.362   0.380  0.0001 -0.8299  0.8770
  486MOL0     H65550   7.903   9.372   0.218 -3.0732  1.1355 -0.5577
  486MOL0     H65551   8.048   9.262   0.391 -0.9140  0.6177  1.0605
  486MOL0     H65552   7.923   9.151   0.423 -0.1131  1.9259  1.5857
  486MOL0     H65553   8.116   9.061   0.277  0.0460 -0.4189 -1.0439
  486MOL0     H65554   7.953   9.017   0.241 -0.3775 -0.3230  0.1530
  486MOL0     H65555   8.075   9.068   0.033 -1.5092 -0.2277 -1.2164
  486MOL0     H65556   7.968   9.193   0.054  2.2647  2.5310 -1.0651
  486MOL0     H65557   8.184   9.304   0.195  3.8657  0.6374 -0.9231
  486MOL0     H65558   8.122   9.331   0.022 -1.6019  0.3992  0.9494
  486MOL0     H65559   8.321   9.107   0.095 -2.3167 -2.2404 -3.0845
  486MOL0     H65560   8.276   9.174  -0.065 -1.9470  0.4598  0.6289
  486MOL0     H65561   8.549   9.164   0.173  1.6807  0.6594  1.4092
  486MOL0     H65562   8.715   9.343   0.303  1.4136 -1.1052 -0.8185
  486MOL0     H65563   8.811   9.345   0.151  1.4374  2.0514 -0.1750
  486MOL0     H65564   8.767   9.570   0.099 -0.4033 -2.2101 -0.0578
  486MOL0     H65565   8.671   9.593   0.245 -2.0148 -0.3327 -0.7184
  486MOL0     H65566   8.963   9.501   0.217 -2.5853 -2.5894  0.4486
  486MOL0     H65567   8.886   9.524   0.379  0.2519  1.5389  1.2353
  486MOL0     H65568   8.881   9.752   0.369 -0.8874 -0.2894 -0.5384
  486MOL0     H65569   8.912   9.767   0.208 -0.1412 -0.2762  0.1322
  486MOL0     H65570   9.312   9.700   0.420 -0.8436 -0.0408 -5.0539
  486MOL0     H65571   9.451   9.898   0.500 -1.3487  0.6463  3.8943
  486MOL0     H65572   9.442  10.396   0.665  0.5198  0.4392  2.9521
  486MOL0     H65573   9.619  10.580   0.702  1.4321 -0.0990  0.5114
  486MOL0     H65574  10.042  10.495   0.691  2.3074  1.5205 -0.9672
  486MOL0     H65575  10.011  10.549   0.521  0.0563 -1.5359  0.0376
  486MOL0     H65576  10.002  10.792   0.615  0.7069  1.6685  1.5053
  486MOL0     H65577  10.063  10.727   0.769 -2.9030  1.2285 -0.5386
  486MOL0     H65578  10.269  10.647   0.651  0.4035  0.1611 -0.5577
  486MOL0     H65579  10.196  10.695   0.495  0.3889  1.2206 -0.7554
  486MOL0     H65580  10.254  10.878   0.721 -4.0232  2.9129 -0.6274
  486MOL0     H65581  10.208  10.931   0.562 -0.5586 -0.0558  0.1592
  486MOL0     H65582  10.431  10.970   0.542  0.6235 -0.8528 -3.0376
  486MOL0     H65583  10.430  10.805   0.483 -0.0639  0.5825 -1.4490
  486MOL0     H65584  10.479  10.879   0.769 -2.2116  1.8954 -2.6788
  486MOL0     H65585  10.485  10.713   0.697  1.4076 -0.8202 -1.9209
  486MOL0     H65586  10.656  10.952   0.605  1.7662 -1.3876 -3.8762
  486MOL0     H65587  10.678  10.793   0.553 -3.4243  0.7857 -2.2967
  486MOL0     H65588  10.706  10.902   0.834  0.2583 -0.4249  0.6456
  486MOL0     H65589  10.717  10.725   0.805 -1.5504 -0.0374 -0.9130
  486MOL0     H65590   9.922  10.317   0.545  0.2881  0.5014 -0.2354
  486MOL0     H65591   9.768  10.162   0.505  2.2121  0.8041  0.4108
  486MOL0     H65592   9.136  10.154   0.367  1.6168 -0.7081 -0.0908
  486MOL0     H65593   8.998   9.955   0.317  0.3413 -0.0730  0.4937
  486MOL0     H65594   7.401   9.474   0.198 -2.7833  2.1489  0.9298
  486MOL0     H65595   7.191   9.544   0.284 -0.9758 -0.9065 -0.6422
  486MOL0     H65596   6.675   9.276   0.263  0.8205 -2.9726  1.4560
  486MOL0     H65597   6.446   9.283   0.360  0.9193 -1.9174  0.3476
  486MOL0     H65598   6.362   9.588   0.685 -0.1167 -0.4410  1.0562
  486MOL0     H65599   6.361   9.436   0.772  1.8892 -0.4067 -0.9753
  486MOL0     H65600   6.138   9.556   0.595 -0.8759 -0.3645 -0.8608
  486MOL0     H65601   6.126   9.545   0.772  1.5003 -0.8826  0.9038
  486MOL0     H65602   6.093   9.292   0.742 -1.7367 -2.0317 -0.5967
  486MOL0     H65603   6.141   9.320   0.572  0.2556 -2.3750  1.2955
  486MOL0     H65604   5.933   9.471   0.542 -2.4357 -1.4381 -0.7025
  486MOL0     H65605   5.904   9.301   0.590 -0.1687 -1.6549  4.0081
  486MOL0     H65606   5.774   9.430   0.951 -0.1149 -0.0906 -0.0285
  486MOL0     H65607   6.614   9.513   0.690  2.8556  1.0210 -0.3535
  486MOL0     H65608   6.922   9.584   0.551  1.0253 -1.4008  0.2112
  486MOL0     H65609   6.813   9.610   0.684  0.1149  0.2986 -0.1222
  486MOL0     H65610   6.911   9.461   0.673  1.0748 -0.0937 -1.2763
  487MOL0     O65611   8.039   0.012  10.997  0.3346 -0.1859  0.6310
  487MOL0     C65612   7.961   0.090  11.058  0.3049  0.7901  0.0461
  487MOL0     O65613   7.987   0.216  11.108 -0.1180 -0.4837 -0.8336
  487MOL0     C65614   8.110   0.273  11.094  0.3068  0.8330  1.2257
  487MOL0     C65615   8.190   0.256  10.981  1.2495  0.1346  0.3705
  487MOL0     C65616   8.322   0.322  10.974  0.0004 -0.2358  0.0193
  487MOL0     C65617   8.353   0.426  11.079  0.0853 -0.3832  0.5090
  487MOL0     O65618   8.460   0.509  11.094  0.5418  0.3297  0.3344
  487MOL0     C65619   8.552   0.537  10.986 -0.0580  0.2966 -1.0838
  487MOL0     C65620   8.660   0.637  11.043  0.0630 -0.0556 -0.3617
  487MOL0     C65621   8.779   0.674  10.941  0.2525 -0.5594  0.2740
  487MOL0     C65622   8.868   0.791  10.991  0.8514 -0.3524 -0.0159
  487MOL0     C65623   8.962   0.848  10.888 -0.0148  0.1947  0.4804
  487MOL0     C65624   9.038   0.972  10.939  1.1725 -0.6837 -0.2625
  487MOL0     C65625   9.111   1.058  10.833 -0.0780 -0.4158  0.7902
  487MOL0     C65626   9.187   0.982  10.728  0.0469 -0.0209  0.3872
  487MOL0     N65627   9.306   0.911  10.778  0.0523 -0.7691 -0.9658
  487MOL0     C65628   9.418   0.973  10.819  0.2262 -0.0209  0.2930
  487MOL0     C65629   9.494   0.884  10.875 -0.2439  0.2509  0.0633
  487MOL0     C65630   9.632   0.888  10.949 -0.4953 -0.2367  0.5309
  487MOL0     C65631   9.654   0.772  11.056  0.4044  0.6248  0.4326
  487MOL0     C65632   9.748   0.807  11.171  0.8031  0.4917  0.0089
  487MOL0     C65633   9.895   0.787  11.122  0.8504 -0.6191  0.1956
  487MOL0     O65634   9.917   0.821  10.983  0.5110  0.3982 -0.0816
  487MOL0     C65635  10.039   0.789  10.928 -0.2269  0.4403 -0.0815
  487MOL0     C65636  10.151   0.741  11.003 -0.3671 -0.4431  0.6434
  487MOL0     C65637  10.273   0.726  10.943  0.5534  0.1911  0.8696
  487MOL0     C65638  10.290   0.765  10.806 -0.1014  0.1596 -1.0444
  487MOL0     C65639  10.427   0.769  10.746 -0.4447 -0.0272 -1.3150
  487MOL0     O65640  10.530   0.794  10.837  0.1215  0.3236 -0.4528
  487MOL0     C65641  10.663   0.803  10.799  0.6689 -0.2247 -0.5984
  487MOL0     C65642  10.738   0.896  10.865 -0.9312  0.2031  0.4569
  487MOL0     C65643  10.875   0.916  10.834  0.0584 -0.8595 -0.1198
  487MOL0     C65644  10.940   0.844  10.733  0.5545 -0.7488 -0.4295
  487MOL0     O65645  11.080   0.840  10.727  0.3470  0.0010  0.9637
  487MOL0     C65646  11.144   0.932  10.795 -0.4056 -0.5990 -0.1060
  487MOL0     C65647  11.292   0.916  10.756 -0.6454  0.2681 -0.0888
  487MOL0     C65648  11.373   1.017  10.835  0.5457  0.2520  0.4932
  487MOL0     C65649  11.457   1.098  10.735  0.1267 -0.3599 -0.4264
  487MOL0     C65650  11.567   1.191  10.800  0.0405  0.2459  0.3782
  487MOL0     C65651  11.707   1.129  10.797 -1.0747  0.7774  0.3817
  487MOL0     C65652  11.815   1.218  10.855  0.3851 -0.8230 -0.1625
  487MOL0     C65653  11.942   1.158  10.899  0.1944 -0.4203  0.1123
  487MOL0    Cl65654  12.018   1.267  11.019 -0.4793 -0.0026  0.3502
  487MOL0     C65655  10.866   0.737  10.672  0.3405 -0.2858 -0.7580
  487MOL0     C65656  10.725   0.718  10.704 -0.1795 -0.6710 -0.3498
  487MOL0     O65657  10.435   0.750  10.626 -1.0440 -0.4432  0.2641
  487MOL0     C65658  10.176   0.799  10.736 -0.4380  0.7345 -0.2615
  487MOL0     C65659  10.051   0.813  10.795  0.7643  0.9026  0.6146
  487MOL0     N65660   9.436   0.763  10.866  0.2080  0.0305  0.0555
  487MOL0     N65661   9.321   0.780  10.812  0.4863 -0.4525 -0.2282
  487MOL0     C65662   8.261   0.441  11.180  0.0258  0.8576 -0.8293
  487MOL0     C65663   8.139   0.374  11.186 -0.3194 -0.0273  0.0911
  487MOL0     C65664   7.823   0.026  11.077 -0.1667  0.0490  0.0922
  487MOL0     C65665   7.793  -0.096  11.012 -0.4391 -0.2137  0.1528
  487MOL0     C65666   7.672  -0.160  11.029  0.7050  0.2918 -1.3123
  487MOL0     C65667   7.562  -0.096  11.089  0.3451 -0.5476  0.4368
  487MOL0     O65668   7.442  -0.159  11.089 -0.0358  0.1810 -0.3737
  487MOL0     C65669   7.360  -0.123  11.200 -0.3796  0.0269  0.3257
  487MOL0     C65670   7.210  -0.126  11.167  0.9802  0.3302 -0.6690
  487MOL0     C65671   7.171  -0.044  11.046  0.3642  0.5322  0.2116
  487MOL0     C65672   7.190   0.102  11.074  0.0324 -0.0142 -0.6609
  487MOL0     C65673   7.076   0.148  11.149 -0.5232 -0.7538 -0.4237
  487MOL0     C65674   6.981   0.181  11.217 -0.3692 -0.0795  0.0721
  487MOL0     C65675   7.591   0.038  11.123 -0.1776 -0.7313  0.0856
  487MOL0     C65676   7.715   0.098  11.127  0.2473  1.2349  0.2644
  487MOL0     C65677   7.719   0.237  11.181  0.4112 -0.5016  0.4059
  487MOL0     H65678   8.160   0.208  10.888 -0.8572  3.3253 -0.7598
  487MOL0     H65679   8.388   0.310  10.888 -1.7780 -2.6911 -1.1331
  487MOL0     H65680   8.579   0.437  10.952 -3.8533 -1.1718 -0.3412
  487MOL0     H65681   8.498   0.582  10.902  0.7799  0.9671 -1.2789
  487MOL0     H65682   8.707   0.595  11.133 -0.6655 -0.0582  0.0235
  487MOL0     H65683   8.604   0.727  11.067  1.0340  0.2838  0.7545
  487MOL0     H65684   8.729   0.711  10.851 -1.7194 -0.3503  1.3929
  487MOL0     H65685   8.848   0.593  10.917  1.0497 -0.0742  0.8695
  487MOL0     H65686   8.810   0.872  11.035  1.8808 -0.8824  2.4780
  487MOL0     H65687   8.920   0.752  11.079  0.1884  1.5347  1.2832
  487MOL0     H65688   9.038   0.779  10.851 -1.9680 -0.6293 -2.3618
  487MOL0     H65689   8.912   0.881  10.797 -1.4230 -1.7194  0.4891
  487MOL0     H65690   8.970   1.027  11.004  3.3101 -1.1408  2.5071
  487MOL0     H65691   9.109   0.935  11.013  3.3419 -1.1275 -2.4221
  487MOL0     H65692   9.184   1.120  10.886  0.2675 -0.5424  0.4709
  487MOL0     H65693   9.036   1.124  10.790  1.7284  0.4496 -1.2492
  487MOL0     H65694   9.126   0.900  10.689  2.6877 -2.5677  1.1971
  487MOL0     H65695   9.221   1.044  10.645 -1.3166  0.5053  0.1991
  487MOL0     H65696   9.437   1.079  10.809  0.0669  0.0260  0.4941
  487MOL0     H65697   9.697   0.886  10.861 -3.7694 -0.2651 -2.1044
  487MOL0     H65698   9.641   0.974  11.016 -1.0053 -0.3197  0.7081
  487MOL0     H65699   9.557   0.750  11.102  1.0396 -0.5471  1.2474
  487MOL0     H65700   9.680   0.681  11.003 -0.3190  0.5818  0.1323
  487MOL0     H65701   9.729   0.743  11.258 -2.1976 -2.0473 -2.3165
  487MOL0     H65702   9.720   0.906  11.207 -1.7963 -0.1821  0.0173
  487MOL0     H65703   9.917   0.682  11.144  0.1707 -0.2327  3.1552
  487MOL0     H65704   9.965   0.846  11.184  1.5280 -0.0653 -1.0604
  487MOL0     H65705  10.140   0.722  11.109 -0.7445  1.0527  0.8888
  487MOL0     H65706  10.354   0.691  11.007  2.1388  0.5171 -0.8581
  487MOL0     H65707  10.681   0.954  10.937 -0.6030  2.6478 -1.1229
  487MOL0     H65708  10.911   1.001  10.892 -0.6357  0.5205 -1.6529
  487MOL0     H65709  11.110   1.034  10.774  0.7386  0.0430  0.9940
  487MOL0     H65710  11.124   0.914  10.902  1.8096 -1.7505  0.1795
  487MOL0     H65711  11.330   0.816  10.779 -1.0179  0.2764  0.5773
  487MOL0     H65712  11.294   0.931  10.648  1.0223  2.5722  0.1878
  487MOL0     H65713  11.311   1.090  10.888  1.7555  1.6377  0.0698
  487MOL0     H65714  11.442   0.970  10.906  0.7256  0.1914  0.2801
  487MOL0     H65715  11.390   1.159  10.673 -0.3039 -1.2119 -0.8224
  487MOL0     H65716  11.513   1.038  10.662  0.3160  0.4924 -1.0073
  487MOL0     H65717  11.533   1.203  10.903 -1.7992 -0.5386 -0.1048
  487MOL0     H65718  11.564   1.284  10.743  1.8955 -0.1956 -0.5466
  487MOL0     H65719  11.710   1.027  10.836  1.5723  0.0901 -1.3631
  487MOL0     H65720  11.740   1.099  10.697 -2.0590  1.0653 -0.0327
  487MOL0     H65721  11.781   1.273  10.943  1.1554  1.8260 -1.3960
  487MOL0     H65722  11.836   1.302  10.787 -3.0260  1.6426  1.5226
  487MOL0     H65723  11.919   1.070  10.961  0.0568  1.0507  2.2373
  487MOL0     H65724  12.006   1.135  10.814 -0.6883  0.3846 -0.7929
  487MOL0     H65725  10.921   0.671  10.606 -1.3066 -0.2694 -2.2064
  487MOL0     H65726  10.655   0.651  10.656 -1.8125  1.0822 -0.5233
  487MOL0     H65727  10.180   0.809  10.628 -0.8235  2.1819 -0.1652
  487MOL0     H65728   9.965   0.849  10.740 -0.5610 -0.0896  1.9475
  487MOL0     H65729   8.297   0.515  11.251 -0.8221  0.3516  0.1588
  487MOL0     H65730   8.066   0.398  11.262  0.4536  0.8931  0.5625
  487MOL0     H65731   7.878  -0.146  10.965 -1.0868 -0.4481 -0.8032
  487MOL0     H65732   7.656  -0.266  11.012 -0.7037 -0.1381  2.0065
  487MOL0     H65733   7.377  -0.025  11.243  1.9589  0.3539 -1.1939
  487MOL0     H65734   7.368  -0.198  11.280 -3.6088 -2.0384 -1.0450
  487MOL0     H65735   7.152  -0.093  11.254  0.1761 -0.7703 -0.7534
  487MOL0     H65736   7.177  -0.230  11.156  0.7536  0.0187  2.1783
  487MOL0     H65737   7.069  -0.067  11.014  0.6353  0.4219 -0.5901
  487MOL0     H65738   7.231  -0.061  10.957 -0.3840  1.5326 -0.4981
  487MOL0     H65739   7.276   0.133  11.133  0.7059 -0.9880 -1.0897
  487MOL0     H65740   7.198   0.154  10.978 -0.1801  1.0277 -0.1161
  487MOL0     H65741   6.896   0.214  11.274 -0.4481  0.0930 -0.1435
  487MOL0     H65742   7.517   0.107  11.162  2.1210  2.1012 -0.2487
  487MOL0     H65743   7.747   0.314  11.108 -1.4432  1.3421  1.5386
  487MOL0     H65744   7.632   0.271  11.238 -0.2939  0.8465 -1.3848
  487MOL0     H65745   7.793   0.226  11.261  1.0866  0.8746  0.0017
  488MOL0     O65746   8.550   3.896   5.531  0.2724  0.3718 -0.0075
  488MOL0     C65747   8.605   3.794   5.580  0.2794 -0.2438  0.0471
  488MOL0     O65748   8.741   3.766   5.554  0.6110 -0.0264 -0.2133
  488MOL0     C65749   8.803   3.870   5.483  0.3061  0.1793  0.1187
  488MOL0     C65750   8.810   4.001   5.540  0.1276 -0.0571  0.2089
  488MOL0     C65751   8.857   4.100   5.458  0.6425 -0.4741  0.3883
  488MOL0     C65752   8.898   4.079   5.326  0.5288  0.2172  0.6681
  488MOL0     O65753   8.925   4.204   5.261  0.0710 -0.2618  0.5236
  488MOL0     C65754   8.981   4.211   5.128 -0.8663  0.4159 -0.8498
  488MOL0     C65755   9.137   4.198   5.144  0.3003 -0.2646 -0.3367
  488MOL0     C65756   9.212   4.240   5.009 -0.1539 -0.3491 -0.1563
  488MOL0     C65757   9.361   4.249   5.041 -0.3381  0.7858 -0.2027
  488MOL0     C65758   9.458   4.265   4.921 -0.2083  1.0176 -0.7796
  488MOL0     C65759   9.601   4.244   4.967  1.0257  0.0142  0.0548
  488MOL0     C65760   9.694   4.251   4.851  0.9345  0.9492 -0.3196
  488MOL0     C65761   9.839   4.207   4.879 -0.6395 -0.4247 -0.2174
  488MOL0     N65762   9.889   4.269   5.006 -0.1460  1.0840 -0.3586
  488MOL0     C65763   9.905   4.207   5.129 -0.4049 -0.1842  0.2885
  488MOL0     C65764   9.926   4.310   5.216  0.6535  0.5960  0.2289
  488MOL0     C65765   9.934   4.301   5.365 -0.4359  0.2421 -0.6449
  488MOL0     C65766  10.059   4.367   5.423  0.7256 -0.6076  0.5827
  488MOL0     C65767  10.192   4.289   5.413 -0.0470 -0.0770 -0.3799
  488MOL0     C65768  10.299   4.353   5.499 -0.2800 -0.2368 -0.2005
  488MOL0     O65769  10.425   4.272   5.506 -0.2439  0.1517  0.3757
  488MOL0     C65770  10.542   4.332   5.557  0.0326  0.0834  0.0483
  488MOL0     C65771  10.655   4.249   5.545  0.5736 -0.2693 -0.3738
  488MOL0     C65772  10.779   4.283   5.588 -0.3167 -0.2504  0.3409
  488MOL0     C65773  10.801   4.411   5.649 -0.0692  0.0944 -0.3328
  488MOL0     C65774  10.921   4.438   5.727 -0.8567  0.0215  0.5442
  488MOL0     O65775  11.026   4.355   5.690  0.4989  0.2418 -0.5391
  488MOL0     C65776  11.153   4.369   5.739  0.6040 -1.0863  1.8761
  488MOL0     C65777  11.193   4.402   5.872  0.0589  0.8203  0.0154
  488MOL0     C65778  11.330   4.402   5.901 -0.0826  0.7425 -0.0361
  488MOL0     C65779  11.426   4.396   5.803 -0.5761 -0.2787 -0.9563
  488MOL0     O65780  11.550   4.417   5.860  0.3281 -0.0564  0.5480
  488MOL0     C65781  11.640   4.503   5.792  1.0992  0.0815 -0.2647
  488MOL0     C65782  11.772   4.439   5.789 -0.4739 -0.8779 -0.3173
  488MOL0     C65783  11.847   4.441   5.917 -0.6901  0.1935 -0.1476
  488MOL0     C65784  11.962   4.332   5.922  0.2715  0.4769  0.2763
  488MOL0     C65785  12.076   4.372   6.013 -0.1072  0.2940 -0.8226
  488MOL0     C65786  12.169   4.260   6.061  1.1566 -0.3095 -0.0569
  488MOL0     C65787  12.298   4.315   6.120  0.4384  0.2513  0.2488
  488MOL0     C65788  12.288   4.428   6.230 -0.4015 -0.4620  0.0213
  488MOL0    Cl65789  12.160   4.393   6.352  0.1137 -0.1603  0.3155
  488MOL0     C65790  11.386   4.385   5.671 -0.5035  1.1139  0.3696
  488MOL0     C65791  11.248   4.366   5.635 -0.1177  0.4182  0.5970
  488MOL0     O65792  10.930   4.524   5.812  0.5433  0.0155  0.1481
  488MOL0     C65793  10.690   4.488   5.671 -0.0080 -0.4679 -0.1321
  488MOL0     C65794  10.558   4.456   5.629 -0.2253 -0.4048 -0.0151
  488MOL0     N65795   9.930   4.427   5.141  0.5412 -0.0942 -0.7908
  488MOL0     N65796   9.898   4.400   5.024  0.2854 -0.3844 -0.0763
  488MOL0     C65797   8.916   3.945   5.281 -0.2700 -0.2734  0.3738
  488MOL0     C65798   8.866   3.843   5.364 -1.2442 -0.1747  0.1634
  488MOL0     C65799   8.522   3.692   5.662 -0.8922 -0.5848 -0.6680
  488MOL0     C65800   8.599   3.607   5.747  0.4444 -1.5010  0.7926
  488MOL0     C65801   8.536   3.508   5.827  0.4188 -0.3445  0.4618
  488MOL0     C65802   8.403   3.509   5.842 -0.8752 -0.3022  0.9728
  488MOL0     O65803   8.352   3.430   5.948  0.6904  0.1585  0.2920
  488MOL0     C65804   8.314   3.297   5.930 -0.0252 -1.0109  0.5161
  488MOL0     C65805   8.287   3.255   6.076 -0.4208  0.4775  0.5004
  488MOL0     C65806   8.144   3.262   6.093  0.0652 -0.1359  0.4615
  488MOL0     C65807   8.094   3.219   6.236  0.1985 -0.1903 -0.2740
  488MOL0     C65808   8.130   3.313   6.348 -0.1892 -0.1286 -0.3041
  488MOL0     C65809   8.150   3.389   6.442 -0.0691  0.2192 -1.0540
  488MOL0     C65810   8.323   3.585   5.759  0.5211 -0.2989 -0.5071
  488MOL0     C65811   8.378   3.678   5.663  0.2986 -0.5907 -0.1625
  488MOL0     C65812   8.285   3.756   5.569 -0.4734  0.2857  0.1851
  488MOL0     H65813   8.771   4.029   5.638 -0.4003  0.2322 -0.0771
  488MOL0     H65814   8.879   4.201   5.491  0.9107 -0.4123  0.0352
  488MOL0     H65815   8.955   4.133   5.055  3.8455 -2.4029  0.0584
  488MOL0     H65816   8.959   4.313   5.095 -2.0812  0.4045 -0.1170
  488MOL0     H65817   9.175   4.105   5.188 -1.9632 -1.5355 -0.8824
  488MOL0     H65818   9.146   4.277   5.219 -0.8623 -2.1055  1.8583
  488MOL0     H65819   9.179   4.339   4.978  0.4759 -0.3717 -0.9329
  488MOL0     H65820   9.186   4.163   4.935 -0.3898 -2.9174  2.3963
  488MOL0     H65821   9.384   4.334   5.105 -0.7175  0.4387  0.4018
  488MOL0     H65822   9.402   4.162   5.093 -3.1894  0.1363  1.1436
  488MOL0     H65823   9.437   4.187   4.846 -1.3345 -0.1249  0.6683
  488MOL0     H65824   9.446   4.363   4.872  0.1710  0.4427 -2.0704
  488MOL0     H65825   9.632   4.320   5.038  1.9559  0.6617 -1.0228
  488MOL0     H65826   9.596   4.143   5.010  0.7024 -1.0308 -2.3007
  488MOL0     H65827   9.691   4.353   4.812  1.0464  0.2346 -2.2925
  488MOL0     H65828   9.656   4.192   4.767 -2.2853  2.1373  0.1608
  488MOL0     H65829   9.842   4.098   4.884  1.1764 -0.3600  1.9375
  488MOL0     H65830   9.906   4.237   4.798  0.4276 -1.8574  0.0980
  488MOL0     H65831   9.906   4.102   5.159  1.9113 -0.3558 -0.2460
  488MOL0     H65832   9.846   4.342   5.415 -0.3540 -3.4922  3.0902
  488MOL0     H65833   9.933   4.198   5.401 -0.6930  0.5757  0.3164
  488MOL0     H65834  10.070   4.453   5.358 -0.5392 -1.7701 -1.2647
  488MOL0     H65835  10.029   4.392   5.525  0.2243 -2.7402  1.0083
  488MOL0     H65836  10.228   4.290   5.309  1.8956 -0.4171  0.2379
  488MOL0     H65837  10.188   4.182   5.434  4.5278  0.0059  2.2657
  488MOL0     H65838  10.260   4.371   5.599 -0.1607 -1.1326  0.0144
  488MOL0     H65839  10.331   4.450   5.459  3.1988 -1.6249 -1.1708
  488MOL0     H65840  10.630   4.149   5.512 -2.2610 -1.2008  3.7777
  488MOL0     H65841  10.855   4.205   5.596  0.8647  0.9429  1.1425
  488MOL0     H65842  11.118   4.408   5.950  1.3701 -0.7498  1.5071
  488MOL0     H65843  11.354   4.424   6.005  1.8610  0.8443 -0.4748
  488MOL0     H65844  11.603   4.517   5.690 -5.3969  1.0447  1.7577
  488MOL0     H65845  11.657   4.601   5.837  0.6480 -0.1726  0.4788
  488MOL0     H65846  11.749   4.339   5.750 -0.9293  0.4944 -3.9227
  488MOL0     H65847  11.833   4.497   5.719  3.8541 -1.5277  2.5011
  488MOL0     H65848  11.894   4.539   5.933 -1.3234  0.7240 -1.4011
  488MOL0     H65849  11.777   4.428   6.000 -2.6798  4.0145 -0.9460
  488MOL0     H65850  12.013   4.310   5.827  1.2991 -2.3109  1.3614
  488MOL0     H65851  11.906   4.244   5.955 -0.5183  0.3470 -1.3024
  488MOL0     H65852  12.035   4.413   6.106  0.0138 -2.7215  0.6780
  488MOL0     H65853  12.137   4.446   5.962  1.0526  0.4109  0.6615
  488MOL0     H65854  12.122   4.189   6.129  1.2474  2.0315  2.6276
  488MOL0     H65855  12.192   4.205   5.969  1.7164 -1.0954  0.5455
  488MOL0     H65856  12.354   4.352   6.033 -0.9142 -3.1438 -2.2803
  488MOL0     H65857  12.360   4.239   6.169  0.7753  1.5001  1.8557
  488MOL0     H65858  12.382   4.452   6.282 -0.5188  1.7611 -0.6836
  488MOL0     H65859  12.262   4.512   6.165  0.1298  0.8488  1.4528
  488MOL0     H65860  11.464   4.370   5.598  0.0968  2.9154  0.5876
  488MOL0     H65861  11.216   4.347   5.533 -0.1049  0.2812  0.6179
  488MOL0     H65862  10.701   4.582   5.726  2.0939 -1.0676  0.5582
  488MOL0     H65863  10.475   4.523   5.647  0.1082  1.2245 -3.6406
  488MOL0     H65864   8.954   3.925   5.181 -2.6321 -0.3606 -0.5558
  488MOL0     H65865   8.862   3.747   5.314 -1.3990 -1.1383  1.9321
  488MOL0     H65866   8.707   3.604   5.745  0.6745  2.1641  1.5947
  488MOL0     H65867   8.604   3.448   5.886  0.7467 -0.4000  0.0335
  488MOL0     H65868   8.398   3.253   5.876 -0.3978 -2.2194  0.8823
  488MOL0     H65869   8.225   3.291   5.866 -0.8605 -2.6122  1.7575
  488MOL0     H65870   8.332   3.311   6.157  1.2456 -0.1659  0.0527
  488MOL0     H65871   8.322   3.152   6.089 -1.1909 -0.0934 -1.4226
  488MOL0     H65872   8.097   3.204   6.014 -1.5676  1.0959  0.4847
  488MOL0     H65873   8.120   3.368   6.080  4.5335  1.0007 -0.0209
  488MOL0     H65874   7.986   3.226   6.221  0.4456  1.8455 -1.3640
  488MOL0     H65875   8.119   3.115   6.260  1.0694  0.4326  1.7803
  488MOL0     H65876   8.179   3.450   6.524 -1.4184 -1.3136  0.6500
  488MOL0     H65877   8.217   3.571   5.781  0.9229 -1.4329  0.8057
  488MOL0     H65878   8.294   3.746   5.461 -2.5913  0.0164 -0.0017
  488MOL0     H65879   8.184   3.725   5.596 -0.3866  0.0477  0.2402
  488MOL0     H65880   8.299   3.862   5.592  0.1238  0.8488 -2.4679
  489MOL0     O65881   9.273   2.144   5.456  0.6082 -0.4634 -0.8325
  489MOL0     C65882   9.283   2.204   5.560  0.2489  0.0221 -0.1381
  489MOL0     O65883   9.395   2.260   5.612  0.2268  0.6591 -0.5592
  489MOL0     C65884   9.500   2.298   5.535 -0.2075  0.1361  0.4503
  489MOL0     C65885   9.561   2.218   5.435  0.4163 -0.1754 -0.2572
  489MOL0     C65886   9.675   2.270   5.366 -0.0488  0.2223 -0.2286
  489MOL0     C65887   9.724   2.400   5.387  0.3133 -0.3835  0.4772
  489MOL0     O65888   9.836   2.450   5.331  0.2092  0.3251  0.4847
  489MOL0     C65889   9.885   2.402   5.206  0.6546  0.1424 -0.3340
  489MOL0     C65890  10.001   2.478   5.154  0.2039 -0.2770  0.4647
  489MOL0     C65891  10.131   2.465   5.246  0.0544  0.4719 -0.4664
  489MOL0     C65892  10.254   2.525   5.182 -0.1791 -0.4339 -1.2358
  489MOL0     C65893  10.390   2.475   5.249 -0.3784 -0.0004  1.1237
  489MOL0     C65894  10.501   2.498   5.140 -0.6732  0.3868  0.3218
  489MOL0     C65895  10.651   2.466   5.199 -0.1953 -0.4834  0.9394
  489MOL0     C65896  10.656   2.317   5.231  0.3775  0.2064  1.3459
  489MOL0     N65897  10.787   2.260   5.263  0.2635 -0.4298  0.5701
  489MOL0     C65898  10.857   2.277   5.378 -0.0066  0.1217  0.5035
  489MOL0     C65899  10.951   2.185   5.374 -0.1014 -0.9690 -0.1339
  489MOL0     C65900  11.044   2.156   5.491  0.6788 -0.8989  0.2088
  489MOL0     C65901  11.143   2.260   5.525  0.0114  0.0686  0.2121
  489MOL0     C65902  11.239   2.278   5.410 -0.2867  0.0374  0.2661
  489MOL0     C65903  11.359   2.360   5.448  0.0747  0.1426 -0.0617
  489MOL0     O65904  11.441   2.293   5.542 -0.0736  0.0617 -0.1144
  489MOL0     C65905  11.562   2.347   5.567  0.2791  0.6315  0.7670
  489MOL0     C65906  11.614   2.333   5.692 -0.2468  0.5412 -0.0416
  489MOL0     C65907  11.741   2.373   5.725  0.2300 -0.6552 -0.2547
  489MOL0     C65908  11.822   2.443   5.635 -0.5606 -0.0114 -0.0129
  489MOL0     C65909  11.951   2.503   5.668  0.4672  0.5600  0.2653
  489MOL0     O65910  11.962   2.514   5.805 -0.7783  0.2622 -0.1526
  489MOL0     C65911  12.078   2.560   5.860  0.1433 -0.0581 -0.0134
  489MOL0     C65912  12.073   2.632   5.979  0.1394 -0.3421  0.0159
  489MOL0     C65913  12.189   2.681   6.046 -0.1282  0.0396 -0.7490
  489MOL0     C65914  12.315   2.639   6.002 -0.2012 -1.3532  0.0275
  489MOL0     O65915  12.418   2.675   6.088  0.4007 -0.0918 -0.1665
  489MOL0     C65916  12.555   2.692   6.047  0.0286 -0.4529 -0.5211
  489MOL0     C65917  12.579   2.825   5.971  0.0702  0.6724 -0.6986
  489MOL0     C65918  12.515   2.942   6.053 -0.2014  0.3557 -0.3752
  489MOL0     C65919  12.503   3.062   5.954 -0.0735  0.0677 -0.2562
  489MOL0     C65920  12.412   3.041   5.825 -0.0680 -0.5404  0.2178
  489MOL0     C65921  12.263   3.063   5.859 -0.5844  0.1976 -0.1898
  489MOL0     C65922  12.168   3.050   5.736  0.7616  0.0707  0.5115
  489MOL0     C65923  12.159   2.909   5.670  0.0913 -0.4564  0.0301
  489MOL0    Cl65924  12.264   2.896   5.526 -0.0428  0.4864  0.2878
  489MOL0     C65925  12.324   2.569   5.880 -0.4382  1.2726  0.0756
  489MOL0     C65926  12.204   2.533   5.808 -0.0615  0.3141  0.6463
  489MOL0     O65927  12.014   2.566   5.583 -0.3734  0.7558 -0.1644
  489MOL0     C65928  11.765   2.458   5.504 -0.9188  0.4759 -0.3900
  489MOL0     C65929  11.642   2.411   5.468 -0.4515  0.9424  0.7079
  489MOL0     N65930  10.957   2.121   5.248  1.0710  0.7839 -0.0104
  489MOL0     N65931  10.858   2.168   5.187 -0.2348  0.0969 -0.2264
  489MOL0     C65932   9.658   2.482   5.481 -0.3582 -1.1179  0.9181
  489MOL0     C65933   9.546   2.426   5.554  0.1100  0.3350 -0.7058
  489MOL0     C65934   9.162   2.191   5.655  0.1777 -0.2892  0.0519
  489MOL0     C65935   9.172   2.221   5.792 -0.6132 -0.4753  0.0854
  489MOL0     C65936   9.068   2.225   5.881 -0.4089 -0.0289  0.2062
  489MOL0     C65937   8.942   2.192   5.836 -0.2284 -0.2700  0.2500
  489MOL0     O65938   8.828   2.189   5.913 -0.2043  0.7289  0.3651
  489MOL0     C65939   8.837   2.209   6.050  0.2496 -0.0227 -0.6387
  489MOL0     C65940   8.829   2.356   6.100  0.3216  0.0839 -1.2925
  489MOL0     C65941   8.725   2.436   6.033  1.2649 -0.2800  1.1142
  489MOL0     C65942   8.770   2.543   5.925 -0.2398 -0.1346  0.7856
  489MOL0     C65943   8.824   2.666   5.987 -0.4530 -0.5447  0.3882
  489MOL0     C65944   8.875   2.766   6.026  0.2915 -0.4975 -0.4355
  489MOL0     C65945   8.926   2.163   5.702 -0.2011  0.7399  0.1727
  489MOL0     C65946   9.028   2.162   5.606  0.8672 -0.1167 -0.4903
  489MOL0     C65947   8.992   2.128   5.463 -0.0234  0.2857  0.2663
  489MOL0     H65948   9.540   2.114   5.413 -0.0430 -0.4872  1.4680
  489MOL0     H65949   9.726   2.199   5.300 -1.8462 -1.5479  0.1709
  489MOL0     H65950   9.912   2.297   5.221 -1.9599 -0.9080 -2.2043
  489MOL0     H65951   9.808   2.403   5.129 -0.9674 -1.2912  1.1508
  489MOL0     H65952   9.977   2.585   5.153  3.2522  0.5143  0.1410
  489MOL0     H65953  10.024   2.456   5.049  0.1948  0.1391  0.3744
  489MOL0     H65954  10.150   2.358   5.247 -0.8026  0.2996 -1.0635
  489MOL0     H65955  10.125   2.506   5.347  2.1007 -0.5498  0.1060
  489MOL0     H65956  10.257   2.495   5.076  3.1310 -1.6550 -0.9245
  489MOL0     H65957  10.244   2.634   5.185  0.9821 -0.3249  2.1332
  489MOL0     H65958  10.401   2.540   5.337 -1.7472 -0.7104  1.8592
  489MOL0     H65959  10.395   2.372   5.285  0.6956  0.0040  1.0264
  489MOL0     H65960  10.476   2.434   5.055 -0.3344  3.0817 -1.9538
  489MOL0     H65961  10.509   2.601   5.104 -2.3555 -0.1124 -1.6234
  489MOL0     H65962  10.668   2.523   5.290  3.3617 -0.4385  0.3639
  489MOL0     H65963  10.721   2.506   5.126 -2.9460  2.7016 -0.2366
  489MOL0     H65964  10.601   2.297   5.323  1.3254 -1.3009  1.6256
  489MOL0     H65965  10.616   2.260   5.146  1.4225 -1.1913  1.7641
  489MOL0     H65966  10.833   2.338   5.465  0.0305  0.4048  0.3132
  489MOL0     H65967  10.981   2.136   5.578 -2.4249  4.7520 -0.2729
  489MOL0     H65968  11.103   2.066   5.472  0.9087 -0.4063 -1.6043
  489MOL0     H65969  11.080   2.348   5.540 -0.7739 -0.4874  0.3011
  489MOL0     H65970  11.194   2.226   5.616 -1.3309 -2.1407  0.2296
  489MOL0     H65971  11.194   2.343   5.333  2.2981  0.6586 -0.8273
  489MOL0     H65972  11.268   2.186   5.358  1.2927 -0.1422  1.4031
  489MOL0     H65973  11.331   2.456   5.493 -2.5028 -0.8053  0.5623
  489MOL0     H65974  11.410   2.374   5.352 -0.4081 -0.3824 -0.3975
  489MOL0     H65975  11.555   2.284   5.769 -1.6607  2.8768  0.4934
  489MOL0     H65976  11.775   2.363   5.827  1.8542  1.4318 -0.5061
  489MOL0     H65977  11.979   2.659   6.026 -0.9999 -2.7121 -0.6974
  489MOL0     H65978  12.193   2.750   6.129  1.4516  0.6742 -1.3003
  489MOL0     H65979  12.612   2.706   6.139 -1.0026 -0.3855  0.1308
  489MOL0     H65980  12.597   2.605   5.994  0.3528  0.3689 -1.6623
  489MOL0     H65981  12.687   2.838   5.970  0.4382 -1.7583  0.6431
  489MOL0     H65982  12.532   2.805   5.874 -0.5468 -1.0619 -0.0916
  489MOL0     H65983  12.420   2.915   6.100  1.0815 -1.8759  1.1015
  489MOL0     H65984  12.576   2.974   6.139 -1.8628 -0.0034  0.9831
  489MOL0     H65985  12.601   3.091   5.916  0.5675  3.0605  3.1423
  489MOL0     H65986  12.458   3.145   6.009 -0.9453 -1.1595  0.9468
  489MOL0     H65987  12.419   2.949   5.767  3.7773 -1.5971  1.9927
  489MOL0     H65988  12.441   3.119   5.754 -1.7553  1.9901  2.1365
  489MOL0     H65989  12.223   2.997   5.937 -0.8843  0.1465 -0.3850
  489MOL0     H65990  12.264   3.160   5.909 -0.0905 -0.5706  1.3681
  489MOL0     H65991  12.187   3.131   5.666 -0.3126 -0.1076 -0.0008
  489MOL0     H65992  12.069   3.082   5.769  0.3991 -0.9123  0.4043
  489MOL0     H65993  12.178   2.825   5.738  1.2250  1.1367  1.7760
  489MOL0     H65994  12.059   2.889   5.631  0.5179 -0.9300 -0.8477
  489MOL0     H65995  12.419   2.535   5.839  0.0500  0.1394  2.0402
  489MOL0     H65996  12.216   2.483   5.712 -5.5785 -0.7173  0.1458
  489MOL0     H65997  11.817   2.518   5.430  0.8733 -0.1664  0.2952
  489MOL0     H65998  11.622   2.431   5.364  3.4104 -0.9791 -0.6149
  489MOL0     H65999   9.682   2.588   5.480  0.3883 -1.2876 -0.2829
  489MOL0     H66000   9.501   2.500   5.619 -1.4020  1.1586 -2.5876
  489MOL0     H66001   9.269   2.243   5.835 -0.0498  0.0602 -1.3783
  489MOL0     H66002   9.091   2.255   5.983 -1.1507 -0.1943  0.4290
  489MOL0     H66003   8.925   2.161   6.093 -1.2855 -0.3897  2.3585
  489MOL0     H66004   8.754   2.157   6.098 -0.2523  0.9671 -0.4018
  489MOL0     H66005   8.928   2.402   6.092  0.8133 -0.7014 -0.0283
  489MOL0     H66006   8.808   2.342   6.206  0.1974  0.2455 -1.2968
  489MOL0     H66007   8.656   2.481   6.105 -1.3835  0.0269 -1.4339
  489MOL0     H66008   8.661   2.370   5.974  2.6430 -0.7013  0.0286
  489MOL0     H66009   8.853   2.497   5.871 -2.4536 -2.3365 -1.0239
  489MOL0     H66010   8.691   2.578   5.858 -1.9748  0.2283  2.9074
  489MOL0     H66011   8.929   2.855   6.053 -2.7559  1.8469 -1.5447
  489MOL0     H66012   8.828   2.153   5.658  0.0080  1.6465 -0.5127
  489MOL0     H66013   9.046   2.038   5.431  0.3993  1.3811 -2.3317
  489MOL0     H66014   8.885   2.129   5.440 -0.0773  1.7457  0.4877
  489MOL0     H66015   9.029   2.210   5.400 -0.7409 -1.2994 -2.4117
  490MOL0     O66016   8.676   2.192   3.098 -0.4361  0.8319  0.2723
  490MOL0     C66017   8.654   2.273   3.008 -0.3054 -0.2899 -0.5280
  490MOL0     O66018   8.749   2.366   2.961 -0.9338 -0.1864  0.4531
  490MOL0     C66019   8.880   2.368   3.005 -0.2706 -0.5133  0.1182
  490MOL0     C66020   8.970   2.271   2.964  0.1808  0.3662  0.0275
  490MOL0     C66021   9.094   2.259   3.021 -0.2457  0.1721  0.2457
  490MOL0     C66022   9.148   2.362   3.100  0.8830 -0.2149 -0.7231
  490MOL0     O66023   9.275   2.363   3.149 -0.4582 -0.0728  0.9609
  490MOL0     C66024   9.297   2.255   3.239 -0.0238 -0.0867 -0.0670
  490MOL0     C66025   9.415   2.291   3.325  0.9732 -0.2201 -0.3015
  490MOL0     C66026   9.458   2.171   3.412  0.1813 -0.9207  0.5157
  490MOL0     C66027   9.594   2.220   3.475  0.2478 -0.6302 -0.7129
  490MOL0     C66028   9.639   2.127   3.580  0.4311  0.3127 -0.0753
  490MOL0     C66029   9.661   1.974   3.542  0.3012 -0.6075  0.3907
  490MOL0     C66030   9.731   1.949   3.408  0.5330  0.3172 -0.4201
  490MOL0     C66031   9.711   1.801   3.363 -0.8293 -0.6995  0.0400
  490MOL0     N66032   9.736   1.791   3.222 -0.1402  0.1010  0.3417
  490MOL0     C66033   9.638   1.830   3.130 -0.3800  0.5163 -0.4628
  490MOL0     C66034   9.697   1.800   3.012  0.7331 -0.7066  0.0209
  490MOL0     C66035   9.627   1.828   2.882  0.0953 -0.2185  0.7372
  490MOL0     C66036   9.477   1.783   2.899  0.9696  0.4682 -0.1945
  490MOL0     C66037   9.387   1.802   2.770  0.7230 -0.3964 -0.1377
  490MOL0     C66038   9.417   1.700   2.663  0.2659  0.3483 -0.4932
  490MOL0     O66039   9.367   1.734   2.538  0.3645  0.6805  0.2126
  490MOL0     C66040   9.241   1.729   2.494 -0.1411  0.5992 -0.0587
  490MOL0     C66041   9.128   1.733   2.572  0.5850 -0.2510  0.5006
  490MOL0     C66042   9.006   1.737   2.513  0.6870  0.3550  0.6802
  490MOL0     C66043   8.983   1.745   2.365 -0.6407  0.6021 -0.5338
  490MOL0     C66044   8.854   1.737   2.296  0.5199  0.5323  0.9318
  490MOL0     O66045   8.745   1.742   2.381  0.2742 -0.2510  0.0139
  490MOL0     C66046   8.610   1.730   2.345 -0.0581  0.5651  0.4142
  490MOL0     C66047   8.556   1.774   2.225  0.4661 -0.3536  1.0937
  490MOL0     C66048   8.420   1.769   2.201 -0.4615 -0.8366  0.5940
  490MOL0     C66049   8.328   1.706   2.289 -0.4867 -1.5682 -0.3511
  490MOL0     O66050   8.195   1.697   2.277  0.3573  0.2306 -0.7593
  490MOL0     C66051   8.125   1.716   2.148 -0.3445  0.4246 -0.0463
  490MOL0     C66052   7.985   1.669   2.161 -0.1160 -0.0326  0.0504
  490MOL0     C66053   7.895   1.684   2.037  0.0554  0.0185 -0.1017
  490MOL0     C66054   7.871   1.826   1.982 -0.1808  0.1415 -0.2470
  490MOL0     C66055   7.761   1.857   1.880  0.5594  0.2333 -1.0148
  490MOL0     C66056   7.618   1.814   1.935  0.7565 -0.5581  0.2145
  490MOL0     C66057   7.513   1.855   1.828  0.7993 -0.5546 -0.3462
  490MOL0     C66058   7.373   1.889   1.882 -0.0116  0.3922 -0.0753
  490MOL0    Cl66059   7.380   2.020   1.993  0.2768 -0.9069 -0.6197
  490MOL0     C66060   8.390   1.665   2.409  0.0567 -0.6210  0.5029
  490MOL0     C66061   8.524   1.674   2.439 -0.3013 -0.5482  0.4973
  490MOL0     O66062   8.848   1.717   2.177 -0.3318  0.2732  0.0963
  490MOL0     C66063   9.105   1.734   2.295  0.5111  0.0117  0.2175
  490MOL0     C66064   9.228   1.731   2.355  0.3987  0.7401  0.0379
  490MOL0     N66065   9.831   1.766   3.035  0.3930 -0.7210  0.1910
  490MOL0     N66066   9.848   1.753   3.160  0.0461  0.7497  0.3302
  490MOL0     C66067   9.071   2.472   3.116  0.4572 -0.2349  0.1319
  490MOL0     C66068   8.936   2.475   3.084 -0.1461  1.3006  0.0581
  490MOL0     C66069   8.515   2.289   2.947 -0.5114  0.1028 -0.4968
  490MOL0     C66070   8.496   2.347   2.820 -0.3779  1.6472 -0.3922
  490MOL0     C66071   8.368   2.371   2.763  1.3156 -0.4956 -0.2883
  490MOL0     C66072   8.257   2.342   2.835 -0.8852  0.1495 -0.3495
  490MOL0     O66073   8.139   2.337   2.771 -0.2527 -0.1497  0.1786
  490MOL0     C66074   8.059   2.465   2.766 -0.4931  0.1414 -0.9387
  490MOL0     C66075   8.040   2.527   2.909 -0.0093 -0.4471  0.3487
  490MOL0     C66076   7.929   2.629   2.902 -0.2092 -0.2470 -0.1714
  490MOL0     C66077   7.789   2.570   2.913  0.0550  0.4729 -0.5051
  490MOL0     C66078   7.717   2.517   2.793  0.3689  0.0074  0.5136
  490MOL0     C66079   7.667   2.480   2.692  0.0984 -0.1007  0.6488
  490MOL0     C66080   8.269   2.278   2.952 -0.0509  0.4262 -0.8300
  490MOL0     C66081   8.398   2.257   3.019  0.4313 -0.1913 -0.7619
  490MOL0     C66082   8.403   2.218   3.165 -0.0922 -0.3981  0.7398
  490MOL0     H66083   8.944   2.192   2.894 -2.1165  2.7975 -2.0922
  490MOL0     H66084   9.157   2.172   3.007 -2.3385 -1.5190  0.6536
  490MOL0     H66085   9.222   2.226   3.314  2.0185 -0.3710  1.9787
  490MOL0     H66086   9.318   2.169   3.175  1.7765  2.5366 -3.3416
  490MOL0     H66087   9.395   2.381   3.384 -0.2527 -0.5394 -0.1969
  490MOL0     H66088   9.501   2.306   3.259  1.0503 -1.4814 -0.5198
  490MOL0     H66089   9.473   2.074   3.363 -1.5014 -0.7894 -0.3291
  490MOL0     H66090   9.393   2.158   3.500 -0.0065  3.6129  1.2948
  490MOL0     H66091   9.679   2.230   3.407  0.7602 -0.1677 -0.0088
  490MOL0     H66092   9.580   2.323   3.508 -1.1331 -0.3521 -2.0039
  490MOL0     H66093   9.742   2.148   3.609 -0.0277  1.8634  0.4988
  490MOL0     H66094   9.578   2.137   3.671  0.8845 -1.7458  0.5189
  490MOL0     H66095   9.715   1.928   3.626 -1.0873  0.8220  2.1638
  490MOL0     H66096   9.559   1.933   3.537  0.3997 -0.9974  1.3638
  490MOL0     H66097   9.838   1.968   3.414  0.6765 -0.8522  1.8523
  490MOL0     H66098   9.691   2.013   3.329 -0.8924  2.8120  2.1234
  490MOL0     H66099   9.781   1.737   3.418 -0.1864  0.9847  1.2888
  490MOL0     H66100   9.609   1.766   3.379 -1.9084  1.4995 -1.5781
  490MOL0     H66101   9.546   1.875   3.166  0.5360  0.0752  2.6785
  490MOL0     H66102   9.633   1.933   2.853 -0.8202  0.2432  2.1247
  490MOL0     H66103   9.661   1.765   2.799  0.0082  1.7926 -0.9043
  490MOL0     H66104   9.481   1.677   2.924 -1.6156 -0.2688 -2.3588
  490MOL0     H66105   9.420   1.842   2.971 -0.8116  1.8933 -2.6116
  490MOL0     H66106   9.406   1.903   2.734  0.0900 -0.7364 -1.4906
  490MOL0     H66107   9.285   1.808   2.807  0.2244  0.6102 -1.5765
  490MOL0     H66108   9.383   1.601   2.695  0.0816 -0.2751 -2.4530
  490MOL0     H66109   9.526   1.702   2.653  0.5316 -4.0029 -0.4277
  490MOL0     H66110   9.133   1.721   2.679 -1.5266  0.9180  0.7890
  490MOL0     H66111   8.920   1.746   2.578 -0.9364 -2.2249 -0.9521
  490MOL0     H66112   8.613   1.818   2.144  1.6406 -2.0849  0.9204
  490MOL0     H66113   8.365   1.798   2.112  0.2905  0.2760  0.4756
  490MOL0     H66114   8.124   1.823   2.126 -1.5628  1.2926  3.5526
  490MOL0     H66115   8.167   1.670   2.058 -1.1683  1.5219 -1.0311
  490MOL0     H66116   7.994   1.562   2.182 -0.6834  0.0427  0.7385
  490MOL0     H66117   7.939   1.712   2.251 -1.2525  0.9269 -0.9531
  490MOL0     H66118   7.906   1.602   1.966 -2.2217  0.4861 -1.0805
  490MOL0     H66119   7.801   1.656   2.085  0.9572 -0.1086  1.6523
  490MOL0     H66120   7.964   1.853   1.930  0.6532 -0.1433  1.0426
  490MOL0     H66121   7.861   1.907   2.055 -4.3060  0.5893 -1.0613
  490MOL0     H66122   7.785   1.795   1.793  1.3530 -1.7012  0.4996
  490MOL0     H66123   7.769   1.961   1.847  0.1703  0.4684 -0.3710
  490MOL0     H66124   7.609   1.707   1.958  0.6954 -0.8670 -1.1565
  490MOL0     H66125   7.599   1.875   2.025  0.9403  1.1945 -0.8905
  490MOL0     H66126   7.509   1.780   1.748 -0.3538 -0.1815 -0.6559
  490MOL0     H66127   7.536   1.948   1.776 -1.7952 -0.6461 -1.7979
  490MOL0     H66128   7.311   1.926   1.800  0.6493  1.5365 -0.0759
  490MOL0     H66129   7.341   1.799   1.936  3.1480 -1.8232 -1.6054
  490MOL0     H66130   8.324   1.628   2.487 -0.2265  1.3719  1.2587
  490MOL0     H66131   8.571   1.649   2.534  1.8619  1.2569  0.0016
  490MOL0     H66132   9.107   1.726   2.187 -0.7364 -1.3192  0.2785
  490MOL0     H66133   9.313   1.742   2.288 -1.2920 -0.6147 -2.4899
  490MOL0     H66134   9.110   2.559   3.168 -0.4039  0.0479  0.3122
  490MOL0     H66135   8.876   2.564   3.105  0.1428  0.8668  3.1507
  490MOL0     H66136   8.582   2.376   2.760  0.2953 -1.3188 -1.0225
  490MOL0     H66137   8.371   2.401   2.659  0.9826  0.8002  0.0590
  490MOL0     H66138   7.962   2.439   2.723  0.0435  0.0215 -2.1255
  490MOL0     H66139   8.116   2.530   2.699 -4.1323  0.5000 -4.0500
  490MOL0     H66140   8.129   2.581   2.942  1.4434 -1.8687 -1.0508
  490MOL0     H66141   8.016   2.454   2.987  0.1692  0.4339  1.2461
  490MOL0     H66142   7.949   2.689   2.812  3.7804 -0.5390  0.3091
  490MOL0     H66143   7.935   2.694   2.989 -0.8799 -0.2266 -0.1382
  490MOL0     H66144   7.793   2.486   2.983 -1.7773 -0.5991 -1.6008
  490MOL0     H66145   7.731   2.649   2.960 -0.8170 -0.5211  0.1281
  490MOL0     H66146   7.609   2.453   2.606  1.6886  2.3261 -1.3190
  490MOL0     H66147   8.176   2.244   2.998 -0.1036  0.3614 -0.9836
  490MOL0     H66148   8.299   2.239   3.192 -1.1546  1.2560 -3.8434
  490MOL0     H66149   8.435   2.113   3.164  0.8540 -0.2133 -3.0719
  490MOL0     H66150   8.467   2.281   3.227 -2.4938  0.9741  1.9627
  491MOL0     O66151   2.629   8.466   5.547  0.6394 -0.4981  0.6039
  491MOL0     C66152   2.577   8.418   5.442 -0.6051 -0.0458  1.3336
  491MOL0     O66153   2.650   8.388   5.326  0.2003 -0.1459 -0.1421
  491MOL0     C66154   2.789   8.403   5.322 -0.7709  0.5214  0.7361
  491MOL0     C66155   2.861   8.514   5.370 -0.0411  0.4985  0.0099
  491MOL0     C66156   2.999   8.506   5.373  0.4251 -0.4237  0.5084
  491MOL0     C66157   3.067   8.390   5.325  0.7254  0.1064 -0.4751
  491MOL0     O66158   3.196   8.384   5.333 -0.3310  0.2784 -0.0652
  491MOL0     C66159   3.257   8.482   5.253  0.3826  0.1174  0.2972
  491MOL0     C66160   3.406   8.457   5.228 -1.0082 -0.8846  0.3292
  491MOL0     C66161   3.441   8.333   5.150  0.1459  0.5794 -0.1130
  491MOL0     C66162   3.590   8.342   5.104  0.0849 -0.0496  0.8028
  491MOL0     C66163   3.642   8.207   5.048  0.8399 -0.4659  0.3592
  491MOL0     C66164   3.669   8.097   5.145 -0.8089 -0.1467  0.4352
  491MOL0     C66165   3.642   7.962   5.089  0.1648 -0.5396  0.1852
  491MOL0     C66166   3.495   7.919   5.120 -0.4095  0.4696 -0.5159
  491MOL0     N66167   3.476   7.901   5.268  0.0734 -0.8584 -0.5924
  491MOL0     C66168   3.396   7.972   5.358 -0.0271 -0.5120  1.0917
  491MOL0     C66169   3.421   7.922   5.485 -0.4355 -0.3229  0.0235
  491MOL0     C66170   3.351   7.981   5.607 -0.5517 -0.2896  0.0008
  491MOL0     C66171   3.384   7.902   5.736  0.3133 -0.3395 -0.7103
  491MOL0     C66172   3.295   7.776   5.758  0.1211 -0.3355 -0.6849
  491MOL0     C66173   3.355   7.654   5.699  0.7129  0.9426  0.8420
  491MOL0     O66174   3.291   7.526   5.746 -0.4830  0.0724 -0.5327
  491MOL0     C66175   3.158   7.508   5.725  0.0519 -0.7608  0.1446
  491MOL0     C66176   3.074   7.528   5.834 -0.9817 -0.2299  0.1289
  491MOL0     C66177   2.932   7.533   5.816 -1.0509  0.0527  0.2249
  491MOL0     C66178   2.880   7.502   5.691 -0.9488 -0.4350 -0.4986
  491MOL0     C66179   2.735   7.487   5.669 -0.4542  0.8159  0.7182
  491MOL0     O66180   2.658   7.492   5.782  0.3595 -0.3597 -0.1615
  491MOL0     C66181   2.522   7.483   5.764  0.3752  1.3158 -0.4197
  491MOL0     C66182   2.453   7.602   5.774 -0.7055 -0.7645 -0.1802
  491MOL0     C66183   2.314   7.603   5.752  0.7539 -0.3079 -0.1331
  491MOL0     C66184   2.244   7.482   5.730 -0.1732 -0.4637  0.3136
  491MOL0     O66185   2.106   7.466   5.718  0.6703  0.0289  0.5815
  491MOL0     C66186   2.022   7.561   5.789 -0.5184 -0.1980  0.1899
  491MOL0     C66187   1.883   7.515   5.774 -0.3222  0.2215  0.2627
  491MOL0     C66188   1.792   7.604   5.853  0.0178  0.0518  0.7335
  491MOL0     C66189   1.655   7.634   5.786 -0.7287 -0.2944 -0.2325
  491MOL0     C66190   1.588   7.746   5.878  0.0733  1.3041  0.9419
  491MOL0     C66191   1.449   7.783   5.828  1.5594 -0.5853  0.5098
  491MOL0     C66192   1.454   7.847   5.688  0.1057 -0.2608  0.2878
  491MOL0     C66193   1.313   7.904   5.655  0.3723 -0.2448 -0.2030
  491MOL0    Cl66194   1.258   8.032   5.777 -0.1675 -0.3651 -0.1782
  491MOL0     C66195   2.314   7.360   5.731  0.6240  0.4653  0.1936
  491MOL0     C66196   2.452   7.360   5.752  0.6913 -0.8151  0.1753
  491MOL0     O66197   2.701   7.451   5.558 -0.0030  0.4329  0.1273
  491MOL0     C66198   2.968   7.491   5.577 -0.0919 -0.1805 -1.1374
  491MOL0     C66199   3.109   7.498   5.596  0.1729  0.4249 -0.1114
  491MOL0     N66200   3.518   7.820   5.475  0.2023  0.5461 -0.7285
  491MOL0     N66201   3.557   7.823   5.350 -0.3356 -0.4030  0.2654
  491MOL0     C66202   2.997   8.290   5.256  0.6233  0.5750 -0.4271
  491MOL0     C66203   2.859   8.298   5.256  0.0592  1.0131  0.6007
  491MOL0     C66204   2.425   8.407   5.439  0.5983  0.0137 -0.8403
  491MOL0     C66205   2.355   8.414   5.322  0.3392  0.2318 -0.1994
  491MOL0     C66206   2.218   8.436   5.327  0.1229 -0.5230 -1.1533
  491MOL0     C66207   2.145   8.440   5.446 -0.2750 -0.1095  0.2417
  491MOL0     O66208   2.012   8.483   5.455  0.2991 -0.6149 -0.3335
  491MOL0     C66209   1.942   8.527   5.339 -0.1950  0.2119 -0.1964
  491MOL0     C66210   1.800   8.568   5.374 -0.6377 -0.2474  0.8728
  491MOL0     C66211   1.784   8.681   5.484  0.8898  0.3881  0.0059
  491MOL0     C66212   1.647   8.687   5.548  0.1854 -0.6356 -0.4630
  491MOL0     C66213   1.557   8.794   5.489  0.0874  0.4082  0.6847
  491MOL0     C66214   1.469   8.854   5.427  0.5887 -0.4081  0.4053
  491MOL0     C66215   2.204   8.405   5.561  0.8255  0.0629 -0.5634
  491MOL0     C66216   2.340   8.390   5.560 -0.6465 -0.4026 -0.0461
  491MOL0     C66217   2.404   8.347   5.690  1.0304  0.5278 -0.3021
  491MOL0     H66218   2.824   8.606   5.414  0.4530  0.0831  1.3546
  491MOL0     H66219   3.050   8.589   5.419 -1.5493  1.2063 -0.0978
  491MOL0     H66220   3.212   8.485   5.153  2.8126  2.7096 -0.8640
  491MOL0     H66221   3.247   8.579   5.302  1.2267 -1.6369  4.3358
  491MOL0     H66222   3.450   8.467   5.328  0.4241 -0.3470 -0.3325
  491MOL0     H66223   3.442   8.543   5.172  3.0686 -0.7580  2.7549
  491MOL0     H66224   3.368   8.305   5.074  1.6713 -0.9535 -1.0909
  491MOL0     H66225   3.437   8.248   5.220 -1.2633  0.1219 -0.7166
  491MOL0     H66226   3.591   8.409   5.017 -2.1205 -1.6982 -0.6102
  491MOL0     H66227   3.662   8.383   5.175 -0.7559  0.1244  1.5621
  491MOL0     H66228   3.577   8.176   4.965  0.4515 -0.8593  0.8033
  491MOL0     H66229   3.744   8.229   5.014  0.4138 -0.0395 -0.6707
  491MOL0     H66230   3.771   8.109   5.182 -1.0324  1.7946  0.5184
  491MOL0     H66231   3.614   8.115   5.237 -3.2441 -0.8759 -0.7883
  491MOL0     H66232   3.714   7.892   5.133  1.0838  0.0617 -0.3453
  491MOL0     H66233   3.670   7.960   4.984  1.0533  1.6217  0.3289
  491MOL0     H66234   3.425   7.996   5.087 -0.5094  2.2254  3.2379
  491MOL0     H66235   3.471   7.827   5.067 -3.0267  0.5904  0.2755
  491MOL0     H66236   3.323   8.045   5.327  0.7775 -0.3534 -0.5187
  491MOL0     H66237   3.394   8.077   5.636  0.9404 -1.5462  2.2662
  491MOL0     H66238   3.250   7.976   5.565 -0.5454  0.3761 -0.1031
  491MOL0     H66239   3.487   7.872   5.714  1.6625  3.3897 -0.1169
  491MOL0     H66240   3.376   7.965   5.825 -0.9568 -0.0059 -1.0360
  491MOL0     H66241   3.194   7.794   5.721  1.2989  1.8848 -3.1470
  491MOL0     H66242   3.289   7.758   5.866 -0.7528 -0.2928 -0.7164
  491MOL0     H66243   3.459   7.657   5.734  0.3471  0.6926  2.0037
  491MOL0     H66244   3.349   7.660   5.590  2.0451  2.2867  0.8044
  491MOL0     H66245   3.122   7.548   5.929 -0.1282  2.1075 -0.7078
  491MOL0     H66246   2.863   7.558   5.895  0.3904  1.3138  1.1319
  491MOL0     H66247   2.512   7.692   5.787 -0.8542 -0.6334 -0.3979
  491MOL0     H66248   2.252   7.692   5.750  1.5408  0.2361 -1.3998
  491MOL0     H66249   2.044   7.576   5.895  3.8584  0.9026 -0.6809
  491MOL0     H66250   2.037   7.662   5.748 -0.5499  0.6723  2.2087
  491MOL0     H66251   1.869   7.520   5.666  1.1757  1.4963  0.0828
  491MOL0     H66252   1.868   7.413   5.810  2.4215  0.0715  1.2318
  491MOL0     H66253   1.767   7.551   5.945 -2.4206 -1.3557 -0.6235
  491MOL0     H66254   1.834   7.702   5.877  0.0996  0.3454 -0.5346
  491MOL0     H66255   1.598   7.540   5.779 -2.4046  0.7438 -1.3457
  491MOL0     H66256   1.674   7.669   5.684  0.0555  1.1900  0.4004
  491MOL0     H66257   1.649   7.837   5.873 -0.4931  1.7935  2.2962
  491MOL0     H66258   1.567   7.699   5.975 -2.1386 -0.8068 -0.4565
  491MOL0     H66259   1.393   7.690   5.818  2.4788 -0.9861 -1.5143
  491MOL0     H66260   1.399   7.854   5.894 -2.1032 -2.6525  0.2017
  491MOL0     H66261   1.484   7.766   5.621 -0.3899 -0.3651  0.1823
  491MOL0     H66262   1.520   7.932   5.673  1.6402 -1.4559  0.0417
  491MOL0     H66263   1.322   7.961   5.561 -0.8691  2.6670  1.3117
  491MOL0     H66264   1.233   7.831   5.642  0.4337 -0.8279  2.2382
  491MOL0     H66265   2.270   7.267   5.695  3.2040  0.2252 -2.7741
  491MOL0     H66266   2.499   7.262   5.748 -0.1732 -1.2750  0.8878
  491MOL0     H66267   2.916   7.494   5.482 -1.7437 -1.7849 -0.3571
  491MOL0     H66268   3.180   7.483   5.516  2.4929 -1.8477  2.1723
  491MOL0     H66269   3.051   8.213   5.203 -0.6477  0.7533 -2.0663
  491MOL0     H66270   2.809   8.222   5.198 -0.2591  0.8945  1.0286
  491MOL0     H66271   2.401   8.422   5.224  2.7620 -2.1812  0.6201
  491MOL0     H66272   2.156   8.449   5.239 -2.9535  3.0143  1.2372
  491MOL0     H66273   1.948   8.451   5.260  0.7820  0.3147 -0.2315
  491MOL0     H66274   1.996   8.617   5.307  1.4626 -0.5529  0.3015
  491MOL0     H66275   1.752   8.476   5.412  2.5322 -2.6032 -0.3843
  491MOL0     H66276   1.759   8.605   5.279  1.8316  1.2978  0.3169
  491MOL0     H66277   1.813   8.782   5.455 -1.2293  1.3184  0.9572
  491MOL0     H66278   1.854   8.644   5.560  1.5855  0.7404 -0.4479
  491MOL0     H66279   1.585   8.598   5.538 -0.5261 -0.7290  3.2455
  491MOL0     H66280   1.648   8.711   5.655  2.8038  1.4701 -0.8571
  491MOL0     H66281   1.401   8.924   5.383 -0.0025 -0.0389  1.8489
  491MOL0     H66282   2.141   8.391   5.647 -0.6708 -1.2569 -1.8074
  491MOL0     H66283   2.327   8.296   5.749  1.3183 -2.6848 -2.4264
  491MOL0     H66284   2.483   8.273   5.672 -1.1862 -2.8812  2.4331
  491MOL0     H66285   2.441   8.435   5.744  1.7439  0.3323 -0.4604
  492MOL0     O66286   0.112  11.243   2.318  0.3566 -0.0162 -0.4204
  492MOL0     C66287   0.162  11.349   2.359  0.2030  0.0526 -0.0208
  492MOL0     O66288   0.095  11.442   2.433 -0.6041 -0.3479 -0.2088
  492MOL0     C66289  -0.037  11.407   2.457 -0.6405  0.2188  0.5184
  492MOL0     C66290  -0.078  11.341   2.568 -0.4993  0.3646 -0.3452
  492MOL0     C66291  -0.201  11.298   2.591  0.4549 -1.7600  0.1880
  492MOL0     C66292  -0.301  11.334   2.502  0.2006 -0.1583  0.3889
  492MOL0     O66293  -0.436  11.314   2.512  0.1461  0.3047 -0.4651
  492MOL0     C66294  -0.488  11.212   2.605 -1.0284 -0.4325  0.2956
  492MOL0     C66295  -0.635  11.215   2.615 -0.6643 -1.2475 -0.4975
  492MOL0     C66296  -0.704  11.169   2.495  0.7169 -0.6280  0.0953
  492MOL0     C66297  -0.858  11.169   2.498 -0.1292 -0.5068 -0.1446
  492MOL0     C66298  -0.924  11.191   2.359 -0.0808  0.0276 -0.5045
  492MOL0     C66299  -1.078  11.167   2.368  0.5074  0.0037  0.2125
  492MOL0     C66300  -1.152  11.181   2.236 -0.6332  0.2544 -0.2253
  492MOL0     C66301  -1.299  11.170   2.271 -0.1188 -0.9384  0.1008
  492MOL0     N66302  -1.367  11.192   2.134 -0.0602  0.2770  0.2683
  492MOL0     C66303  -1.359  11.304   2.051 -0.1202  0.5457 -0.4012
  492MOL0     C66304  -1.427  11.263   1.938 -1.2443  0.4720  0.0858
  492MOL0     C66305  -1.469  11.347   1.815 -0.4853 -0.4506  0.2529
  492MOL0     C66306  -1.346  11.338   1.723 -0.4789 -0.4791  0.4108
  492MOL0     C66307  -1.392  11.387   1.587  0.6338  0.3458  0.8624
  492MOL0     C66308  -1.276  11.390   1.481  0.1262  0.3383 -0.8346
  492MOL0     O66309  -1.156  11.333   1.529 -0.2727  0.4822 -0.0009
  492MOL0     C66310  -1.038  11.339   1.460 -0.5937  0.2417 -0.8765
  492MOL0     C66311  -1.007  11.395   1.339  0.4951 -0.0025  1.0116
  492MOL0     C66312  -0.870  11.411   1.298 -0.1226 -0.1239  0.1751
  492MOL0     C66313  -0.767  11.366   1.376  0.7122  0.1547  0.5282
  492MOL0     C66314  -0.628  11.396   1.324 -0.0327  1.0696  0.1846
  492MOL0     O66315  -0.530  11.358   1.410 -0.1679 -0.0845 -0.0986
  492MOL0     C66316  -0.402  11.371   1.362 -1.2441  0.8046  0.6179
  492MOL0     C66317  -0.334  11.492   1.377  0.8526  0.2116 -0.0903
  492MOL0     C66318  -0.204  11.507   1.334 -0.6946  0.2439  1.0258
  492MOL0     C66319  -0.135  11.407   1.261  0.2815  0.1426 -0.4388
  492MOL0     O66320  -0.003  11.417   1.222 -0.1269  0.3534  0.6022
  492MOL0     C66321   0.030  11.362   1.092  0.3884  0.6693  1.2049
  492MOL0     C66322   0.171  11.400   1.051  0.5898  0.3149  0.8561
  492MOL0     C66323   0.218  11.336   0.921 -0.4670 -0.3416 -0.6657
  492MOL0     C66324   0.133  11.367   0.795  0.8432 -0.1334  0.3324
  492MOL0     C66325   0.204  11.323   0.670  0.3322 -0.0358  0.5657
  492MOL0     C66326   0.151  11.398   0.540 -0.1647 -0.9157 -0.5900
  492MOL0     C66327   0.222  11.346   0.417  0.0153  1.1460  0.5023
  492MOL0     C66328   0.167  11.398   0.278 -0.1926  0.8191  0.4418
  492MOL0    Cl66329   0.258  11.345   0.145  0.0614 -0.0339 -0.0740
  492MOL0     C66330  -0.200  11.283   1.253 -0.0530  0.0955 -0.8095
  492MOL0     C66331  -0.329  11.268   1.302 -0.0234 -0.5574 -0.3318
  492MOL0     O66332  -0.607  11.454   1.214 -0.4132 -0.2684 -0.5676
  492MOL0     C66333  -0.796  11.296   1.496 -0.8100 -0.1466  0.1036
  492MOL0     C66334  -0.933  11.288   1.536 -0.0500  0.2004  0.3540
  492MOL0     N66335  -1.458  11.132   1.961 -0.5802  0.2309 -0.5758
  492MOL0     N66336  -1.428  11.088   2.078 -0.0965  0.2956 -0.4124
  492MOL0     C66337  -0.262  11.413   2.393  0.0550 -0.1168 -0.3465
  492MOL0     C66338  -0.134  11.451   2.364  0.2337  0.0784  0.5255
  492MOL0     C66339   0.304  11.365   2.318 -0.4036 -0.2877 -0.3647
  492MOL0     C66340   0.338  11.342   2.181 -0.9980 -0.0581 -0.1704
  492MOL0     C66341   0.476  11.362   2.142  0.2910  0.4122 -0.0479
  492MOL0     C66342   0.570  11.400   2.231 -0.2427 -0.2178  0.0491
  492MOL0     O66343   0.695  11.407   2.191  0.1349  1.0861  0.6424
  492MOL0     C66344   0.734  11.498   2.091 -0.0806  0.3349  0.8885
  492MOL0     C66345   0.872  11.472   2.035 -0.3637 -0.4356  0.4412
  492MOL0     C66346   0.907  11.583   1.926 -0.1813  0.1926 -0.4396
  492MOL0     C66347   0.884  11.513   1.792 -0.5095  0.4477  0.1397
  492MOL0     C66348   0.966  11.401   1.758 -1.0023  0.3304 -0.0640
  492MOL0     C66349   1.026  11.302   1.722  0.2921 -0.1531 -0.4305
  492MOL0     C66350   0.537  11.420   2.368  0.2801 -0.1298 -0.4913
  492MOL0     C66351   0.405  11.401   2.411  0.0602 -0.2643  0.7726
  492MOL0     C66352   0.381  11.437   2.558  0.0550 -0.0801  0.2447
  492MOL0     H66353  -0.003  11.318   2.644 -1.4562 -3.5999 -0.3478
  492MOL0     H66354  -0.213  11.247   2.685  0.3644  0.1703  1.2736
  492MOL0     H66355  -0.458  11.112   2.571  1.5976  0.5725 -0.6277
  492MOL0     H66356  -0.452  11.240   2.704 -0.3075  0.6351 -0.2541
  492MOL0     H66357  -0.672  11.313   2.646 -1.2846 -0.3165 -3.7417
  492MOL0     H66358  -0.650  11.144   2.696  0.6129 -3.2316 -1.9150
  492MOL0     H66359  -0.680  11.064   2.479 -0.9523 -0.8967 -0.8249
  492MOL0     H66360  -0.668  11.227   2.409  2.6116  0.9870  1.8588
  492MOL0     H66361  -0.885  11.071   2.538 -0.0079 -0.7045 -0.5386
  492MOL0     H66362  -0.905  11.247   2.558  0.2221 -1.5428  1.5408
  492MOL0     H66363  -0.920  11.297   2.331  0.8294  0.4016  0.9378
  492MOL0     H66364  -0.875  11.129   2.284  0.9180  1.5365 -1.1576
  492MOL0     H66365  -1.086  11.067   2.412 -2.3651  0.6342  1.3618
  492MOL0     H66366  -1.125  11.228   2.445 -2.6880 -1.3177 -0.5352
  492MOL0     H66367  -1.124  11.101   2.167  0.4173 -2.4584  3.0705
  492MOL0     H66368  -1.130  11.279   2.191 -0.3745  0.1357 -0.3590
  492MOL0     H66369  -1.317  11.075   2.323 -2.8966  0.2349  1.4762
  492MOL0     H66370  -1.339  11.248   2.335  1.7449  0.7785 -0.7225
  492MOL0     H66371  -1.292  11.388   2.067  0.1852  0.4530 -1.1305
  492MOL0     H66372  -1.554  11.301   1.763  0.0526  0.5544 -1.6080
  492MOL0     H66373  -1.491  11.451   1.840  0.4392 -0.5521  1.5945
  492MOL0     H66374  -1.263  11.401   1.757 -1.3351  3.3106 -3.5806
  492MOL0     H66375  -1.295  11.242   1.713  1.7121  0.6927 -0.4440
  492MOL0     H66376  -1.437  11.486   1.599  1.3815  0.6122  1.5288
  492MOL0     H66377  -1.459  11.311   1.548  1.2170  0.5338 -0.5891
  492MOL0     H66378  -1.258  11.495   1.457  0.9919  0.1431 -1.0820
  492MOL0     H66379  -1.305  11.331   1.393  3.5901 -1.0778 -1.1729
  492MOL0     H66380  -1.086  11.424   1.271  0.3813  2.1786  2.0081
  492MOL0     H66381  -0.857  11.441   1.194 -4.0306 -2.3312 -1.1867
  492MOL0     H66382  -0.385  11.577   1.423 -1.6771  0.7227 -3.4211
  492MOL0     H66383  -0.150  11.600   1.344 -1.2513  0.3386  7.7812
  492MOL0     H66384   0.023  11.254   1.078  0.9915  0.6379  1.1066
  492MOL0     H66385  -0.031  11.419   1.021  3.2997  1.7534 -0.6382
  492MOL0     H66386   0.177  11.507   1.028  2.4384  0.0596 -0.0435
  492MOL0     H66387   0.233  11.372   1.136  0.5374  0.9654  1.1122
  492MOL0     H66388   0.322  11.367   0.907 -0.1754  0.3241  2.2370
  492MOL0     H66389   0.226  11.227   0.927  1.9676 -0.2226 -0.4462
  492MOL0     H66390   0.112  11.474   0.793  0.4053 -0.2171  0.4750
  492MOL0     H66391   0.041  11.309   0.806  0.6402  0.2017  0.4301
  492MOL0     H66392   0.189  11.214   0.663 -2.0335  0.3370 -2.0284
  492MOL0     H66393   0.312  11.333   0.685 -0.0313  2.3582  2.0143
  492MOL0     H66394   0.042  11.392   0.532 -0.5784  2.6592  0.9471
  492MOL0     H66395   0.172  11.503   0.561  0.6710 -1.6138  2.6765
  492MOL0     H66396   0.205  11.238   0.414  1.2387  0.9500 -0.2087
  492MOL0     H66397   0.328  11.373   0.417  0.3315 -0.0183 -0.0446
  492MOL0     H66398   0.059  11.384   0.269 -0.3531  1.7430  0.7573
  492MOL0     H66399   0.167  11.507   0.270  1.0795  0.7565 -0.8962
  492MOL0     H66400  -0.146  11.198   1.212 -0.8659  0.0838 -1.9194
  492MOL0     H66401  -0.367  11.166   1.301  0.9777 -0.9818 -2.5755
  492MOL0     H66402  -0.715  11.252   1.553 -1.9514 -2.5007  0.0121
  492MOL0     H66403  -0.966  11.255   1.634 -1.3223  1.7446  0.4778
  492MOL0     H66404  -0.347  11.443   2.332 -0.7474  0.4641  1.0019
  492MOL0     H66405  -0.112  11.517   2.280  0.2652  1.1339  1.3322
  492MOL0     H66406   0.260  11.315   2.110 -0.0464 -0.2496 -1.1884
  492MOL0     H66407   0.493  11.350   2.036  1.1915  1.3522 -0.0248
  492MOL0     H66408   0.748  11.594   2.140  2.9076 -0.7195  2.3343
  492MOL0     H66409   0.652  11.511   2.019  1.3521 -0.1065 -0.9044
  492MOL0     H66410   0.863  11.368   2.001 -1.6928 -0.2978  0.3367
  492MOL0     H66411   0.953  11.463   2.108 -2.2260 -1.4944  2.5053
  492MOL0     H66412   1.011  11.606   1.951  0.0753 -1.8852  0.6294
  492MOL0     H66413   0.838  11.667   1.926 -3.3090 -2.1714 -2.2717
  492MOL0     H66414   0.778  11.487   1.781 -0.0937 -0.6755 -1.5894
  492MOL0     H66415   0.907  11.596   1.725  1.1261  1.5916  1.9932
  492MOL0     H66416   1.075  11.215   1.684  1.8361  0.2795  0.4603
  492MOL0     H66417   0.615  11.433   2.443 -1.0460 -1.4206  1.1983
  492MOL0     H66418   0.325  11.356   2.606  2.1100  0.4837  3.9323
  492MOL0     H66419   0.473  11.447   2.616  0.8314 -3.4613 -0.2015
  492MOL0     H66420   0.311  11.520   2.574 -1.2952 -1.5958  2.9990
  493MOL0     O66421   4.295   9.340   6.772  0.4319  0.0290 -0.3792
  493MOL0     C66422   4.284   9.222   6.751  0.7929  0.0324  0.0747
  493MOL0     O66423   4.382   9.148   6.689 -0.5999 -0.1261  0.0090
  493MOL0     C66424   4.499   9.195   6.646  0.7383  0.5972 -0.1189
  493MOL0     C66425   4.623   9.127   6.670  0.6808 -0.0489  1.5417
  493MOL0     C66426   4.736   9.162   6.601 -0.0660  0.2005  0.0843
  493MOL0     C66427   4.741   9.263   6.509 -0.6259  0.5387 -0.6703
  493MOL0     O66428   4.850   9.310   6.440 -0.1392  0.1228  0.5235
  493MOL0     C66429   4.981   9.281   6.480  0.0117  0.3503 -0.0454
  493MOL0     C66430   5.063   9.389   6.419 -0.2629  0.9058  0.7078
  493MOL0     C66431   5.209   9.377   6.461  0.0288 -0.8899 -0.2932
  493MOL0     C66432   5.276   9.518   6.431  0.1289 -0.5331 -0.0611
  493MOL0     C66433   5.433   9.525   6.431  0.7799 -0.2259 -0.6051
  493MOL0     C66434   5.501   9.655   6.393  0.9089 -0.0032 -0.2568
  493MOL0     C66435   5.652   9.631   6.393  0.0795  0.5598 -0.5553
  493MOL0     C66436   5.732   9.761   6.385  0.1089 -0.4206  0.9629
  493MOL0     N66437   5.873   9.726   6.373 -0.6582  0.3863 -0.3728
  493MOL0     C66438   5.952   9.744   6.263  0.0972  0.1641 -0.9247
  493MOL0     C66439   6.072   9.708   6.307 -0.1088  0.4788  0.6902
  493MOL0     C66440   6.200   9.717   6.231 -0.2342 -0.7647  0.2230
  493MOL0     C66441   6.318   9.792   6.300  0.0025  0.1581 -0.6647
  493MOL0     C66442   6.450   9.801   6.239  0.1135 -0.0216  0.9790
  493MOL0     C66443   6.559   9.866   6.321  0.0421  0.7824  0.0612
  493MOL0     O66444   6.540   9.998   6.355  0.3475  0.0834  0.0845
  493MOL0     C66445   6.651  10.078   6.390  0.2814  0.4080  0.6067
  493MOL0     C66446   6.619  10.209   6.415  0.6109  0.5533  0.3898
  493MOL0     C66447   6.716  10.299   6.449 -0.3457  0.5781  0.5970
  493MOL0     C66448   6.851  10.269   6.443 -0.3570 -0.2740 -0.5577
  493MOL0     C66449   6.946  10.381   6.464 -1.1256  0.8601  0.0173
  493MOL0     O66450   7.070  10.338   6.508  0.0138 -0.3080 -0.6554
  493MOL0     C66451   7.165  10.435   6.522  0.0794  0.1950 -0.6626
  493MOL0     C66452   7.156  10.549   6.599 -0.1662  0.5601 -0.0776
  493MOL0     C66453   7.261  10.638   6.613  0.3963  0.3881  0.0127
  493MOL0     C66454   7.388  10.605   6.555 -0.1259  0.1526  0.1948
  493MOL0     O66455   7.502  10.675   6.575 -0.3015  0.2081 -0.3666
  493MOL0     C66456   7.509  10.787   6.662  0.0233  0.0975  0.1884
  493MOL0     C66457   7.655  10.812   6.702  0.2171  0.0654  0.1815
  493MOL0     C66458   7.687  10.960   6.750  0.3473 -0.0316  0.2802
  493MOL0     C66459   7.641  10.975   6.898  0.2472  0.0127 -0.3486
  493MOL0     C66460   7.678  11.105   6.970  0.2251 -0.8412 -0.3911
  493MOL0     C66461   7.830  11.108   6.989  0.5721 -0.1424  0.0227
  493MOL0     C66462   7.848  11.217   7.095 -0.7564  0.3050  0.0003
  493MOL0     C66463   7.993  11.196   7.149  0.2195 -0.2475  0.7752
  493MOL0    Cl66464   8.123  11.213   7.015 -0.8444  0.1045  0.1083
  493MOL0     C66465   7.392  10.489   6.475 -0.7631 -0.4726 -0.3437
  493MOL0     C66466   7.279  10.406   6.457 -0.5322 -0.0026 -0.0461
  493MOL0     O66467   6.911  10.496   6.440  0.3267 -0.0792 -0.4354
  493MOL0     C66468   6.884  10.137   6.420 -0.2009 -0.3322 -0.0935
  493MOL0     C66469   6.790  10.039   6.402  0.3849 -0.4957  0.6568
  493MOL0     N66470   6.064   9.679   6.445  0.0208 -0.3169 -0.1756
  493MOL0     N66471   5.949   9.690   6.482 -0.0738  0.2184  0.1459
  493MOL0     C66472   4.616   9.333   6.483 -0.0081  0.1366 -0.4031
  493MOL0     C66473   4.497   9.294   6.548 -0.2280  0.0469 -0.1128
  493MOL0     C66474   4.157   9.156   6.772  0.0108  0.2232 -0.4914
  493MOL0     C66475   4.052   9.234   6.806 -0.1605 -0.1545 -1.1125
  493MOL0     C66476   3.923   9.179   6.816 -0.5244  0.1975  0.1464
  493MOL0     C66477   3.894   9.040   6.802 -0.6936 -0.2395 -0.0077
  493MOL0     O66478   3.776   8.974   6.815  0.1583 -0.2414  0.6656
  493MOL0     C66479   3.714   9.001   6.944 -0.4473 -0.3274  0.2271
  493MOL0     C66480   3.620   8.888   6.971  0.4893  0.1899  0.5672
  493MOL0     C66481   3.494   8.955   7.009 -0.1977 -0.4345 -0.4643
  493MOL0     C66482   3.401   8.865   7.091 -0.2686  0.3180 -0.4246
  493MOL0     C66483   3.452   8.837   7.224 -0.2565 -0.5108  0.4191
  493MOL0     C66484   3.506   8.839   7.334 -0.3588 -1.0520 -0.2705
  493MOL0     C66485   4.005   8.962   6.765  0.0588 -0.3685  1.1183
  493MOL0     C66486   4.142   9.015   6.756 -0.2462 -0.7165 -0.3361
  493MOL0     C66487   4.251   8.912   6.733 -1.0927  0.3593 -0.2778
  493MOL0     H66488   4.617   9.057   6.752  0.0961  1.9423  3.2881
  493MOL0     H66489   4.830   9.109   6.617  1.3625  2.3626 -0.7270
  493MOL0     H66490   4.993   9.273   6.589  2.1354 -1.3424 -0.3401
  493MOL0     H66491   5.009   9.184   6.438 -2.0102 -1.4342  2.3918
  493MOL0     H66492   5.020   9.480   6.463 -0.0288  0.1904  2.5125
  493MOL0     H66493   5.055   9.388   6.310  3.9029  1.0458  0.2550
  493MOL0     H66494   5.257   9.300   6.398  2.4664  1.7310 -1.9185
  493MOL0     H66495   5.205   9.347   6.566  0.2920 -2.0316 -0.5923
  493MOL0     H66496   5.247   9.534   6.327  1.1662 -2.4656 -0.6952
  493MOL0     H66497   5.253   9.597   6.503  0.8935  1.5897 -2.0322
  493MOL0     H66498   5.456   9.503   6.535  3.4555 -1.4106 -1.3528
  493MOL0     H66499   5.470   9.438   6.375 -0.8324 -1.8293  0.6842
  493MOL0     H66500   5.469   9.667   6.289  2.5307  1.8818 -0.6032
  493MOL0     H66501   5.470   9.743   6.450 -0.8805  0.7858 -2.2863
  493MOL0     H66502   5.666   9.562   6.309 -1.2891  1.7550 -1.8324
  493MOL0     H66503   5.675   9.588   6.491 -2.2394  1.6873  0.5670
  493MOL0     H66504   5.709   9.802   6.286  0.1186 -2.1610  0.2027
  493MOL0     H66505   5.711   9.832   6.465  1.1429 -0.6614  1.4718
  493MOL0     H66506   5.930   9.793   6.169 -0.5974  0.5677 -0.5631
  493MOL0     H66507   6.225   9.612   6.210  0.6375 -0.4194 -0.5368
  493MOL0     H66508   6.181   9.766   6.135 -0.5244  1.4689  1.3697
  493MOL0     H66509   6.289   9.896   6.321  1.5886  0.5587 -0.2896
  493MOL0     H66510   6.334   9.747   6.399  1.6619 -3.4210 -2.4103
  493MOL0     H66511   6.453   9.857   6.145  0.8422 -0.6378  0.6196
  493MOL0     H66512   6.468   9.697   6.209 -0.5786  0.0849  0.1682
  493MOL0     H66513   6.653   9.853   6.266  0.1671  2.0866 -0.0605
  493MOL0     H66514   6.572   9.801   6.408  0.3891  1.5939  0.6274
  493MOL0     H66515   6.512  10.224   6.424 -0.0022 -2.2815 -1.0508
  493MOL0     H66516   6.688  10.398   6.483  1.4254  1.2271  0.2803
  493MOL0     H66517   7.073  10.553   6.669  0.8388  0.8155  1.1319
  493MOL0     H66518   7.267  10.726   6.676  3.5545  1.6438 -1.8130
  493MOL0     H66519   7.467  10.880   6.621 -0.8188  0.3079  1.4762
  493MOL0     H66520   7.459  10.769   6.757  1.5300 -0.7301  0.8380
  493MOL0     H66521   7.690  10.744   6.781  0.2301  2.8435  2.7747
  493MOL0     H66522   7.721  10.802   6.616  3.0214  0.2553  2.1598
  493MOL0     H66523   7.795  10.973   6.746  0.2639  0.6961  0.2538
  493MOL0     H66524   7.630  11.032   6.691  0.8632 -1.9241 -2.7340
  493MOL0     H66525   7.677  10.893   6.960  2.0623  0.0655 -1.2592
  493MOL0     H66526   7.533  10.959   6.891  0.3884 -1.2918  0.3158
  493MOL0     H66527   7.624  11.119   7.064 -1.3919  2.7074 -1.6642
  493MOL0     H66528   7.648  11.186   6.903  2.5963  1.2507  0.9135
  493MOL0     H66529   7.844  11.008   7.031 -1.0352 -0.2572  0.3665
  493MOL0     H66530   7.878  11.128   6.893 -0.9170 -0.5815 -0.8532
  493MOL0     H66531   7.787  11.206   7.185  1.4919  0.5821  1.6355
  493MOL0     H66532   7.829  11.319   7.058  0.2690  1.8397  3.3068
  493MOL0     H66533   8.012  11.272   7.225 -1.2254  1.3565 -0.4053
  493MOL0     H66534   7.995  11.092   7.183  0.5645 -1.1611 -1.7917
  493MOL0     H66535   7.477  10.474   6.409 -0.9851 -0.7769 -0.5670
  493MOL0     H66536   7.299  10.335   6.377 -1.7824  1.6641 -1.9559
  493MOL0     H66537   6.987  10.101   6.418 -0.2997 -0.6993 -3.2149
  493MOL0     H66538   6.827   9.937   6.392  2.1000  0.2174 -0.9281
  493MOL0     H66539   4.606   9.416   6.414 -2.9578 -0.8090 -1.2554
  493MOL0     H66540   4.401   9.343   6.532 -1.2601 -1.7178  0.2995
  493MOL0     H66541   4.059   9.341   6.827 -0.4993  0.0302 -1.9213
  493MOL0     H66542   3.843   9.247   6.843 -0.3698  0.8061 -0.8683
  493MOL0     H66543   3.658   9.094   6.931 -0.9803 -0.7136 -0.3004
  493MOL0     H66544   3.784   9.020   7.025  1.4783 -1.7302 -1.0317
  493MOL0     H66545   3.670   8.818   7.039  1.9352  1.3085  0.6851
  493MOL0     H66546   3.615   8.837   6.874 -0.1496  2.2148 -0.5194
  493MOL0     H66547   3.436   8.990   6.923 -2.1615 -4.0604 -0.7916
  493MOL0     H66548   3.525   9.035   7.077  1.3392 -3.0761  2.1967
  493MOL0     H66549   3.301   8.907   7.106 -0.4523 -0.8331  2.0785
  493MOL0     H66550   3.387   8.776   7.030 -2.8770  0.8617 -0.7285
  493MOL0     H66551   3.558   8.846   7.428 -1.6492 -2.8530  0.6361
  493MOL0     H66552   3.993   8.857   6.742  3.2270 -1.1641  2.6074
  493MOL0     H66553   4.342   8.935   6.789 -0.8026 -1.8449  0.2335
  493MOL0     H66554   4.217   8.810   6.749  0.1469 -0.0639 -0.2280
  493MOL0     H66555   4.288   8.903   6.630 -2.1624 -1.7372 -0.5380
  494MOL0     O66556   2.611   3.490   5.402  0.5337 -0.0038  0.6910
  494MOL0     C66557   2.512   3.428   5.367  0.1570 -0.1083  0.8992
  494MOL0     O66558   2.515   3.289   5.350  1.3500  0.1889  0.1188
  494MOL0     C66559   2.629   3.222   5.377 -0.4659 -0.1307  0.3347
  494MOL0     C66560   2.642   3.127   5.477  0.2773  0.7783  0.2013
  494MOL0     C66561   2.756   3.050   5.490  0.4861  0.1976 -0.1522
  494MOL0     C66562   2.864   3.067   5.404  0.5310 -0.0145  0.3672
  494MOL0     O66563   2.987   3.005   5.407 -0.1715  0.2133  0.2123
  494MOL0     C66564   2.994   2.895   5.497  0.8410 -0.1726 -0.0145
  494MOL0     C66565   3.122   2.820   5.494 -0.5491 -0.7689 -0.1245
  494MOL0     C66566   3.230   2.917   5.532  0.2023 -0.4404  0.3500
  494MOL0     C66567   3.355   2.833   5.572  0.1234  0.0533  0.2039
  494MOL0     C66568   3.476   2.915   5.549 -0.7754 -0.8733  0.1022
  494MOL0     C66569   3.603   2.828   5.559 -0.3901  0.3179 -0.1876
  494MOL0     C66570   3.642   2.762   5.420 -0.0026 -0.1229  0.1779
  494MOL0     C66571   3.707   2.853   5.315  0.2678  0.5030 -0.2094
  494MOL0     N66572   3.851   2.876   5.342  0.4819  0.3168 -0.5205
  494MOL0     C66573   3.945   2.819   5.260  0.0723 -0.4544  0.5995
  494MOL0     C66574   4.062   2.868   5.309  0.8731 -0.5062 -0.2177
  494MOL0     C66575   4.194   2.821   5.275 -0.7511  0.1718  0.3480
  494MOL0     C66576   4.248   2.914   5.167 -0.8583  0.2599 -0.5023
  494MOL0     C66577   4.391   2.885   5.130  0.4972  0.3293  0.1778
  494MOL0     C66578   4.494   2.949   5.222 -1.0069 -0.2393  0.1023
  494MOL0     O66579   4.507   3.089   5.205  0.1509 -0.2703 -0.0039
  494MOL0     C66580   4.605   3.139   5.120 -0.5469 -0.9538 -0.8343
  494MOL0     C66581   4.603   3.282   5.105 -0.4877  0.2512  0.3299
  494MOL0     C66582   4.706   3.337   5.040 -0.6146 -0.7722 -0.3382
  494MOL0     C66583   4.815   3.270   4.983  0.0116  0.1352  1.4846
  494MOL0     C66584   4.929   3.333   4.917 -0.0627  0.8066  0.2112
  494MOL0     O66585   4.945   3.466   4.948  0.1539  0.5302 -0.2382
  494MOL0     C66586   5.055   3.524   4.887  0.2808 -0.9589  0.3640
  494MOL0     C66587   5.041   3.593   4.764  0.1522 -0.5881  0.1474
  494MOL0     C66588   5.158   3.663   4.699 -0.9303  0.1102 -1.1664
  494MOL0     C66589   5.280   3.660   4.764  0.4410  0.5392  0.1436
  494MOL0     O66590   5.384   3.732   4.707  0.3166 -0.2844  0.6374
  494MOL0     C66591   5.512   3.722   4.773  0.2980  0.9613  0.5655
  494MOL0     C66592   5.613   3.779   4.676  0.1598 -0.4933  0.2526
  494MOL0     C66593   5.756   3.744   4.714  0.2817 -0.6647 -0.1643
  494MOL0     C66594   5.864   3.797   4.618  0.7566 -0.8812  0.9538
  494MOL0     C66595   6.007   3.737   4.648  0.9005 -0.2337  0.3996
  494MOL0     C66596   6.134   3.829   4.647  0.3876  0.1664  0.4785
  494MOL0     C66597   6.128   3.917   4.770 -0.5243 -0.2556 -0.0714
  494MOL0     C66598   6.258   3.976   4.820 -0.2123 -0.5975 -0.5002
  494MOL0    Cl66599   6.328   4.081   4.688  0.1046  0.1862  0.0350
  494MOL0     C66600   5.288   3.581   4.881 -0.0938  0.0863  0.3334
  494MOL0     C66601   5.186   3.519   4.943 -0.2219 -0.4400  0.0612
  494MOL0     O66602   5.001   3.267   4.839 -0.1279 -0.2182  0.1069
  494MOL0     C66603   4.806   3.135   4.987 -0.1609 -0.2654 -0.3107
  494MOL0     C66604   4.709   3.072   5.059  0.4199  0.1101  0.7718
  494MOL0     N66605   4.037   2.961   5.403 -0.0700  0.0096  0.0770
  494MOL0     N66606   3.909   2.973   5.414 -0.1704  0.5453 -0.1486
  494MOL0     C66607   2.855   3.170   5.315  0.2107 -0.2722  0.0898
  494MOL0     C66608   2.736   3.245   5.299 -0.3590 -0.1419 -0.2746
  494MOL0     C66609   2.380   3.500   5.337  0.2940 -0.1767 -0.4832
  494MOL0     C66610   2.268   3.418   5.335 -1.2618 -0.2441  0.2499
  494MOL0     C66611   2.140   3.467   5.327  0.7541 -0.7035  0.3111
  494MOL0     C66612   2.119   3.604   5.325 -0.3964  0.2114  0.0319
  494MOL0     O66613   1.989   3.641   5.309 -0.0629  0.9139 -0.1821
  494MOL0     C66614   1.944   3.743   5.216 -0.1939  0.6840 -0.2618
  494MOL0     C66615   1.787   3.728   5.186 -0.2229 -0.6613 -0.1315
  494MOL0     C66616   1.710   3.767   5.309  0.0773 -0.0654 -0.1629
  494MOL0     C66617   1.719   3.916   5.342 -0.3914 -0.5283 -0.2610
  494MOL0     C66618   1.634   3.959   5.459 -0.6806  0.0540 -0.0854
  494MOL0     C66619   1.560   3.969   5.554  0.0547 -0.3793 -0.9032
  494MOL0     C66620   2.226   3.693   5.322 -0.8266  0.5981  0.9520
  494MOL0     C66621   2.359   3.639   5.333  0.9988 -0.5785  0.1801
  494MOL0     C66622   2.462   3.746   5.338 -0.5816  0.1475  0.1318
  494MOL0     H66623   2.557   3.106   5.541  0.2764  0.0705 -0.0236
  494MOL0     H66624   2.754   2.972   5.566  1.2740 -1.6381 -1.9305
  494MOL0     H66625   2.975   2.942   5.594  4.2674 -0.1390  0.7952
  494MOL0     H66626   2.911   2.827   5.475 -1.3183  2.2594  0.2334
  494MOL0     H66627   3.136   2.772   5.397 -0.9924 -0.5925 -0.2779
  494MOL0     H66628   3.110   2.746   5.574  0.6542  1.2157  2.0246
  494MOL0     H66629   3.198   2.982   5.613  0.3492  0.1114 -0.0343
  494MOL0     H66630   3.259   2.978   5.446  1.1728 -0.5372  0.5981
  494MOL0     H66631   3.351   2.796   5.675  2.8779 -1.3003 -0.0799
  494MOL0     H66632   3.367   2.745   5.508  0.3787 -0.6956  1.2566
  494MOL0     H66633   3.478   2.970   5.454 -0.1464 -0.9324  0.0783
  494MOL0     H66634   3.481   2.988   5.630 -0.1513 -2.6342  1.7146
  494MOL0     H66635   3.686   2.876   5.613  0.8839 -1.1187 -0.8076
  494MOL0     H66636   3.579   2.742   5.623 -0.1353 -0.8037 -1.5644
  494MOL0     H66637   3.546   2.739   5.372 -1.1155  2.5720  0.9214
  494MOL0     H66638   3.691   2.665   5.431 -1.3893 -0.8796 -0.0228
  494MOL0     H66639   3.697   2.814   5.214 -0.6345  3.1188 -1.2240
  494MOL0     H66640   3.652   2.948   5.315 -2.6347 -1.0672 -1.5424
  494MOL0     H66641   3.934   2.743   5.183  1.9069  0.7084 -0.9008
  494MOL0     H66642   4.255   2.830   5.365 -1.7934  0.7296  1.0192
  494MOL0     H66643   4.186   2.714   5.250 -0.1069 -0.4044  2.4233
  494MOL0     H66644   4.188   2.904   5.076 -0.5059  0.8721 -0.8097
  494MOL0     H66645   4.231   3.017   5.197 -3.6628 -0.4419  0.6408
  494MOL0     H66646   4.399   2.927   5.030 -2.9038  3.9637  1.1952
  494MOL0     H66647   4.416   2.778   5.128  1.0782  0.4660  0.0686
  494MOL0     H66648   4.589   2.896   5.214  0.9067  2.7828  1.2800
  494MOL0     H66649   4.465   2.930   5.326  2.6244  0.3736  1.3408
  494MOL0     H66650   4.522   3.334   5.155 -2.0121 -0.1766 -1.5888
  494MOL0     H66651   4.721   3.445   5.034 -0.5561 -0.7851 -0.4283
  494MOL0     H66652   4.947   3.583   4.710  0.3430  0.3134 -0.3792
  494MOL0     H66653   5.141   3.717   4.606 -0.3587  3.0284  0.3123
  494MOL0     H66654   5.516   3.777   4.868  0.4692  0.9660  0.5567
  494MOL0     H66655   5.532   3.615   4.781 -1.3246  0.4896 -1.0034
  494MOL0     H66656   5.584   3.741   4.577  0.0431 -0.5347  0.3026
  494MOL0     H66657   5.600   3.887   4.676  0.5779 -0.4186 -1.0821
  494MOL0     H66658   5.787   3.792   4.807 -3.3225  1.0344  0.3235
  494MOL0     H66659   5.759   3.635   4.707  1.0899 -0.5634 -2.3948
  494MOL0     H66660   5.863   3.906   4.624  2.1506 -0.9061  2.2897
  494MOL0     H66661   5.834   3.774   4.516  0.2486  0.1810  0.8508
  494MOL0     H66662   6.029   3.663   4.571  0.3879  1.6785 -1.6545
  494MOL0     H66663   5.981   3.676   4.736 -4.0011  1.7398  0.6006
  494MOL0     H66664   6.227   3.771   4.651  0.7133  0.6151 -0.4349
  494MOL0     H66665   6.153   3.890   4.559 -0.2422  1.2621  1.0694
  494MOL0     H66666   6.075   3.876   4.857 -0.4103  1.9589  1.1038
  494MOL0     H66667   6.072   4.009   4.749 -1.5807 -0.2002  2.5810
  494MOL0     H66668   6.247   4.030   4.914  0.7211  0.8589 -1.1885
  494MOL0     H66669   6.334   3.900   4.843  0.8109  0.4195 -0.4131
  494MOL0     H66670   5.377   3.584   4.942 -0.6970  0.3216  1.2229
  494MOL0     H66671   5.195   3.460   5.033 -1.9670  0.2664  0.7603
  494MOL0     H66672   4.889   3.077   4.947  0.7724  1.2804 -0.7174
  494MOL0     H66673   4.718   2.964   5.063  0.5068  0.1382  1.3032
  494MOL0     H66674   2.944   3.177   5.254  1.5809 -1.6731  1.7766
  494MOL0     H66675   2.715   3.314   5.218 -3.4191 -1.3381 -0.6608
  494MOL0     H66676   2.277   3.310   5.331 -1.1182 -0.4894  3.9042
  494MOL0     H66677   2.057   3.397   5.324 -1.3466  1.6248  1.0447
  494MOL0     H66678   2.004   3.731   5.126 -1.5773 -0.3724 -1.0902
  494MOL0     H66679   1.971   3.843   5.249  0.3307  0.2327  0.7249
  494MOL0     H66680   1.760   3.627   5.153 -2.4339 -1.2550  2.9581
  494MOL0     H66681   1.757   3.791   5.102  1.6371 -0.8362 -0.9594
  494MOL0     H66682   1.745   3.713   5.397 -0.8787 -0.3349  0.0677
  494MOL0     H66683   1.607   3.737   5.289  0.6838 -1.3369 -1.5639
  494MOL0     H66684   1.823   3.933   5.370 -0.4402 -0.6115 -0.0289
  494MOL0     H66685   1.685   3.975   5.256 -0.2975  1.0676  0.7482
  494MOL0     H66686   1.493   3.994   5.633 -1.0994 -2.6937 -1.0985
  494MOL0     H66687   2.215   3.797   5.293  0.1464  0.0020 -1.8779
  494MOL0     H66688   2.518   3.733   5.431 -1.1365  0.3827  0.5023
  494MOL0     H66689   2.530   3.730   5.254 -2.7638 -2.5854 -1.3027
  494MOL0     H66690   2.411   3.842   5.332 -0.7857  0.0225 -0.1516
  495MOL0     O66691   0.808   4.773   1.569  0.2177 -0.3780  0.8207
  495MOL0     C66692   0.747   4.805   1.466 -0.3947 -0.5389  0.2456
  495MOL0     O66693   0.803   4.816   1.335 -0.2689  0.3013  0.7167
  495MOL0     C66694   0.943   4.825   1.323  0.6847  0.5579 -0.4366
  495MOL0     C66695   1.010   4.933   1.256  0.2440 -0.7562 -0.2855
  495MOL0     C66696   1.147   4.932   1.244 -0.0694  0.0022 -0.9658
  495MOL0     C66697   1.225   4.831   1.311  0.3087  0.3145 -0.7518
  495MOL0     O66698   1.359   4.839   1.300 -0.3402 -0.0888  0.4367
  495MOL0     C66699   1.453   4.743   1.359 -0.1437 -0.4172 -0.8788
  495MOL0     C66700   1.591   4.814   1.365 -0.0948  0.2128  0.2426
  495MOL0     C66701   1.589   4.953   1.434 -0.0152 -0.3003  0.1830
  495MOL0     C66702   1.709   5.037   1.408  0.6623 -0.1942  0.3942
  495MOL0     C66703   1.785   5.061   1.540 -0.1376  0.1598  0.5354
  495MOL0     C66704   1.902   5.166   1.527  0.2862 -0.1100  0.2753
  495MOL0     C66705   2.017   5.105   1.432 -0.1848 -0.3611 -0.5658
  495MOL0     C66706   2.121   5.211   1.402  0.5991  0.5380 -0.9472
  495MOL0     N66707   2.220   5.225   1.511 -0.6122  0.4021  0.4631
  495MOL0     C66708   2.329   5.140   1.524 -0.1202  0.3547  0.4776
  495MOL0     C66709   2.384   5.176   1.640 -0.0106 -0.7387 -0.5350
  495MOL0     C66710   2.494   5.127   1.729  0.7281 -0.1046 -0.3554
  495MOL0     C66711   2.563   4.992   1.693 -0.3125 -0.0637 -0.5796
  495MOL0     C66712   2.633   4.999   1.548  0.4283 -0.0054 -0.5724
  495MOL0     C66713   2.674   4.862   1.507  0.1497 -1.8581 -0.3740
  495MOL0     O66714   2.791   4.826   1.589 -0.2549 -0.5532  0.4456
  495MOL0     C66715   2.861   4.717   1.552  0.3350 -0.1868  0.2903
  495MOL0     C66716   2.916   4.640   1.664  0.7913  0.0685  0.4065
  495MOL0     C66717   2.996   4.528   1.640 -0.6363 -0.5899 -0.0843
  495MOL0     C66718   3.034   4.493   1.513 -0.7860  0.7733 -0.0670
  495MOL0     C66719   3.124   4.377   1.485 -0.5644  0.0615  0.3956
  495MOL0     O66720   3.182   4.361   1.363 -0.6301 -0.2772  0.2100
  495MOL0     C66721   3.246   4.239   1.327 -0.0883  0.2314  1.1017
  495MOL0     C66722   3.220   4.112   1.384  0.8074  0.1057 -0.4819
  495MOL0     C66723   3.282   3.994   1.350  1.2845  0.8061  0.5082
  495MOL0     C66724   3.363   3.990   1.233 -0.1325  0.0470  0.4070
  495MOL0     O66725   3.426   3.877   1.183  0.6863  0.3522  0.1154
  495MOL0     C66726   3.566   3.876   1.203  0.8239 -0.0528  0.2075
  495MOL0     C66727   3.620   3.807   1.335  0.5333 -0.7476  0.6179
  495MOL0     C66728   3.763   3.830   1.356 -0.5020 -0.2558  0.3702
  495MOL0     C66729   3.831   3.758   1.474 -0.0971 -0.6221 -0.4809
  495MOL0     C66730   3.984   3.776   1.464  0.3097  0.4343 -0.0599
  495MOL0     C66731   4.036   3.715   1.593 -0.3052  0.0735 -0.8217
  495MOL0     C66732   4.187   3.722   1.595  0.5812  0.4453 -0.2136
  495MOL0     C66733   4.238   3.862   1.613  0.6174  0.3623  0.8263
  495MOL0    Cl66734   4.407   3.847   1.570  0.2546 -0.5998  0.9056
  495MOL0     C66735   3.384   4.113   1.166  0.7172  0.2925 -0.1148
  495MOL0     C66736   3.327   4.232   1.212  0.0175  0.7083 -0.4410
  495MOL0     O66737   3.141   4.297   1.585 -0.2502  0.1938  0.0392
  495MOL0     C66738   2.982   4.568   1.404  0.2275 -0.8932  0.2881
  495MOL0     C66739   2.889   4.674   1.426 -1.0152  0.5690 -0.7960
  495MOL0     N66740   2.308   5.285   1.693 -0.1787  0.1842 -0.5143
  495MOL0     N66741   2.204   5.305   1.620 -0.6032 -0.5595  0.3011
  495MOL0     C66742   1.158   4.729   1.386  0.9567 -0.5696 -0.0358
  495MOL0     C66743   1.019   4.725   1.380 -0.2009 -0.5229  0.7192
  495MOL0     C66744   0.597   4.833   1.471  0.4743  0.1735  0.2820
  495MOL0     C66745   0.542   4.870   1.349 -0.0310 -0.3147  0.0563
  495MOL0     C66746   0.402   4.901   1.343  0.8856  0.3699  0.3326
  495MOL0     C66747   0.322   4.893   1.453  0.3533  0.6794 -0.0803
  495MOL0     O66748   0.188   4.907   1.457 -0.0113 -0.1543 -0.6904
  495MOL0     C66749   0.130   5.010   1.380 -0.8425  0.1435  0.9792
  495MOL0     C66750   0.067   4.934   1.259 -0.0091  0.1288 -0.1709
  495MOL0     C66751  -0.074   4.878   1.287 -0.1801 -0.2769  0.5559
  495MOL0     C66752  -0.184   4.986   1.275 -0.0503  0.2069 -0.1471
  495MOL0     C66753  -0.310   4.915   1.317  0.2809  0.4078  0.0263
  495MOL0     C66754  -0.410   4.857   1.334 -0.8904 -0.0390  0.4041
  495MOL0     C66755   0.374   4.849   1.568 -0.8972  0.3409 -0.8301
  495MOL0     C66756   0.515   4.821   1.583 -0.0130 -0.5452 -0.0664
  495MOL0     C66757   0.562   4.784   1.722  0.2506 -0.0422 -0.1203
  495MOL0     H66758   0.943   4.998   1.200  2.6201 -0.7566 -3.3349
  495MOL0     H66759   1.191   5.010   1.184 -1.7906  0.7419 -1.3292
  495MOL0     H66760   1.419   4.712   1.458  1.9531  1.3833  0.5012
  495MOL0     H66761   1.471   4.656   1.295  1.9881 -0.5410 -0.1939
  495MOL0     H66762   1.639   4.823   1.268 -0.1738 -3.2431 -0.2352
  495MOL0     H66763   1.653   4.745   1.424  2.8834  1.2463 -1.4789
  495MOL0     H66764   1.568   4.933   1.540  0.3461 -3.0399 -0.1845
  495MOL0     H66765   1.509   5.014   1.390  1.3383  2.1893  0.9774
  495MOL0     H66766   1.773   4.990   1.332  0.5253  0.7403 -0.3074
  495MOL0     H66767   1.672   5.130   1.365 -0.0897  0.1991  1.8339
  495MOL0     H66768   1.715   5.101   1.614 -0.6761  0.0457  0.0897
  495MOL0     H66769   1.830   4.970   1.582  0.0718  0.7253  1.5756
  495MOL0     H66770   1.859   5.257   1.483  0.0325  0.6079  1.9521
  495MOL0     H66771   1.946   5.189   1.624  0.6879 -2.6009  0.7510
  495MOL0     H66772   1.972   5.092   1.333  0.9929  0.5723 -1.2593
  495MOL0     H66773   2.056   5.011   1.470  0.1594  0.4315  1.1652
  495MOL0     H66774   2.179   5.177   1.316  1.3698  0.4770 -0.4179
  495MOL0     H66775   2.073   5.307   1.385 -2.1892 -0.5640  0.1019
  495MOL0     H66776   2.355   5.060   1.455  0.3152 -1.0811  2.2345
  495MOL0     H66777   2.572   5.203   1.722 -2.1648  3.0896 -0.4774
  495MOL0     H66778   2.461   5.120   1.834  2.7655 -2.0460  0.2198
  495MOL0     H66779   2.644   4.982   1.765  1.0393  0.2914 -1.9937
  495MOL0     H66780   2.491   4.911   1.702  1.3319 -1.5664 -0.5018
  495MOL0     H66781   2.727   5.052   1.566  1.4491 -2.7125  3.1439
  495MOL0     H66782   2.571   5.053   1.475  1.7519  2.9146  0.2974
  495MOL0     H66783   2.697   4.856   1.401  0.5947 -0.1996 -0.3997
  495MOL0     H66784   2.588   4.799   1.530 -2.4072  1.5451  0.1784
  495MOL0     H66785   2.876   4.665   1.762  1.2660 -2.4437  1.3212
  495MOL0     H66786   3.036   4.474   1.726 -0.2241  0.5041  0.4450
  495MOL0     H66787   3.153   4.095   1.468 -2.8605 -1.5214 -3.4257
  495MOL0     H66788   3.261   3.899   1.397  2.5693  0.0938 -0.3178
  495MOL0     H66789   3.605   3.824   1.116 -0.3939 -3.1789  1.4031
  495MOL0     H66790   3.594   3.982   1.203 -2.8043  1.1023  2.3668
  495MOL0     H66791   3.564   3.834   1.425 -0.2370 -2.1327  0.5905
  495MOL0     H66792   3.599   3.702   1.310 -4.6915  0.2023 -0.2027
  495MOL0     H66793   3.813   3.821   1.260 -2.8082  1.6075 -1.1230
  495MOL0     H66794   3.776   3.934   1.389  0.6707  0.2458 -1.5468
  495MOL0     H66795   3.798   3.653   1.472 -0.1419 -0.6216  0.1910
  495MOL0     H66796   3.807   3.803   1.570  0.8543  0.8723 -0.9166
  495MOL0     H66797   4.017   3.879   1.447  1.1072  0.2813  0.5199
  495MOL0     H66798   4.028   3.717   1.383  2.5013 -1.7296  2.5285
  495MOL0     H66799   3.997   3.762   1.684  0.1404  0.8228 -1.0071
  495MOL0     H66800   4.006   3.610   1.599 -2.3403  0.7011  1.7499
  495MOL0     H66801   4.217   3.651   1.518 -0.6822 -0.0154 -0.3040
  495MOL0     H66802   4.226   3.669   1.682  0.8627 -1.5039 -1.4662
  495MOL0     H66803   4.180   3.932   1.552  0.1636  0.4116  1.3061
  495MOL0     H66804   4.220   3.893   1.716  2.1667 -0.3523  1.3510
  495MOL0     H66805   3.431   4.106   1.068 -1.9003 -0.7358 -1.4120
  495MOL0     H66806   3.351   4.324   1.158  1.2937  0.0189 -1.1046
  495MOL0     H66807   3.021   4.546   1.305 -0.2565 -0.5275  0.0105
  495MOL0     H66808   2.875   4.747   1.347 -0.0334  0.5876 -0.9637
  495MOL0     H66809   1.209   4.645   1.433 -2.1829 -2.3656  0.4429
  495MOL0     H66810   0.977   4.633   1.419  1.5596 -1.9559 -0.5813
  495MOL0     H66811   0.592   4.887   1.254  1.2787  0.4229  0.8445
  495MOL0     H66812   0.369   4.939   1.247  1.0413  2.1693  0.9535
  495MOL0     H66813   0.200   5.091   1.356  0.6274 -0.4655  2.9175
  495MOL0     H66814   0.061   5.075   1.434 -0.3553  0.1359  1.6266
  495MOL0     H66815   0.144   4.861   1.232 -2.4813 -2.3461 -1.0370
  495MOL0     H66816   0.062   5.005   1.175 -3.0019  2.2231  1.5636
  495MOL0     H66817  -0.070   4.815   1.376 -0.7166  0.6295  1.2366
  495MOL0     H66818  -0.097   4.806   1.207  0.3540  1.8182 -1.5781
  495MOL0     H66819  -0.176   5.068   1.347  1.0626  0.2047 -0.2490
  495MOL0     H66820  -0.185   5.019   1.170  0.1832 -2.0834 -0.9349
  495MOL0     H66821  -0.502   4.809   1.361  0.6722 -2.8917  1.0416
  495MOL0     H66822   0.319   4.830   1.660 -1.2726  1.2504 -0.8599
  495MOL0     H66823   0.638   4.705   1.730  0.2436  0.1399  2.3627
  495MOL0     H66824   0.590   4.879   1.768  0.7241  0.0786 -0.6454
  495MOL0     H66825   0.477   4.738   1.773  1.3808 -1.6990  0.3645
  496MOL0     O66826   1.904   8.814   6.671  0.6562  0.2405  0.3868
  496MOL0     C66827   1.939   8.736   6.762  1.4075  0.0007 -1.2165
  496MOL0     O66828   1.842   8.655   6.828  0.0059  0.4189 -0.6070
  496MOL0     C66829   1.702   8.671   6.809 -0.2320 -0.1173  0.2930
  496MOL0     C66830   1.650   8.799   6.818  0.7686 -0.4454  1.0013
  496MOL0     C66831   1.507   8.815   6.800  0.1063  0.2570 -0.4502
  496MOL0     C66832   1.422   8.696   6.781 -1.3084 -0.3550  0.8763
  496MOL0     O66833   1.284   8.700   6.761  0.6020  0.7602  0.5451
  496MOL0     C66834   1.214   8.824   6.751 -0.2459 -1.2681 -0.4112
  496MOL0     C66835   1.057   8.812   6.765 -0.6575 -0.0863  0.3828
  496MOL0     C66836   0.988   8.709   6.672  0.0360  0.2109  0.0536
  496MOL0     C66837   0.847   8.757   6.653  0.0973  0.2156  0.4937
  496MOL0     C66838   0.759   8.643   6.594 -0.8848 -0.2571 -0.1487
  496MOL0     C66839   0.712   8.546   6.704  0.4206 -0.3610 -0.0844
  496MOL0     C66840   0.678   8.419   6.630  0.6488  0.3685 -0.8341
  496MOL0     C66841   0.616   8.307   6.713 -0.1762 -0.7094 -0.5527
  496MOL0     N66842   0.662   8.176   6.666  1.4829  1.1100  0.3096
  496MOL0     C66843   0.725   8.074   6.740  0.8772 -0.4483  0.2344
  496MOL0     C66844   0.747   7.986   6.647  0.3736  0.1498  0.1597
  496MOL0     C66845   0.816   7.852   6.657  0.6475  0.5410  0.5318
  496MOL0     C66846   0.957   7.847   6.736 -0.0038  0.8262  0.3704
  496MOL0     C66847   0.993   7.698   6.778 -0.0462  0.5809  0.2032
  496MOL0     C66848   1.091   7.680   6.892  0.0278 -0.0606 -0.3767
  496MOL0     O66849   1.203   7.770   6.874  0.0046 -0.4961  0.8624
  496MOL0     C66850   1.329   7.721   6.917  0.1855 -0.5667  0.1393
  496MOL0     C66851   1.330   7.694   7.049 -0.5106 -0.3390  0.1499
  496MOL0     C66852   1.460   7.677   7.101 -0.9465  0.0770 -0.1173
  496MOL0     C66853   1.581   7.694   7.017  0.6355  0.8866 -0.2952
  496MOL0     C66854   1.715   7.688   7.073 -0.7984  0.3394 -0.5640
  496MOL0     O66855   1.727   7.691   7.212 -0.0649 -0.7974  0.0201
  496MOL0     C66856   1.849   7.684   7.269 -0.4361  0.0770  0.7481
  496MOL0     C66857   1.872   7.767   7.378 -0.1378  0.4721  0.4051
  496MOL0     C66858   1.999   7.761   7.449  0.0498 -0.4936 -0.9533
  496MOL0     C66859   2.105   7.677   7.411  0.4728 -0.4632  0.9406
  496MOL0     O66860   2.230   7.659   7.474 -0.1088 -0.5750 -0.1099
  496MOL0     C66861   2.274   7.754   7.575  0.4942 -0.4169 -0.1219
  496MOL0     C66862   2.395   7.696   7.644 -0.4863  0.1328 -0.1800
  496MOL0     C66863   2.519   7.714   7.550  0.4996  0.3335 -0.1260
  496MOL0     C66864   2.650   7.676   7.612  0.1096  0.1051 -0.9778
  496MOL0     C66865   2.758   7.677   7.505  0.1866  0.6354 -0.1769
  496MOL0     C66866   2.887   7.625   7.571 -0.7201  0.4667 -0.0840
  496MOL0     C66867   2.880   7.482   7.610 -1.0123  1.4149  0.0375
  496MOL0     C66868   3.014   7.431   7.662  0.0088  0.3028  0.1928
  496MOL0    Cl66869   3.011   7.261   7.690  0.0154 -0.4880 -0.0502
  496MOL0     C66870   2.082   7.596   7.293 -0.7324  0.1476 -0.3172
  496MOL0     C66871   1.956   7.597   7.228 -0.1550 -0.0603  0.5049
  496MOL0     O66872   1.806   7.687   6.993  0.5526  0.2276  0.7960
  496MOL0     C66873   1.560   7.730   6.879  0.0158 -0.1154 -0.7703
  496MOL0     C66874   1.432   7.736   6.828  0.2916 -0.3286  0.5107
  496MOL0     N66875   0.699   8.023   6.517 -0.0294 -0.4953 -0.2942
  496MOL0     N66876   0.637   8.133   6.537  0.4695  0.6716  0.0129
  496MOL0     C66877   1.483   8.572   6.780  0.7546  0.2170  0.3828
  496MOL0     C66878   1.621   8.560   6.792  0.5871  0.2298  0.3478
  496MOL0     C66879   2.085   8.730   6.804 -0.0073  0.2696  0.7703
  496MOL0     C66880   2.175   8.802   6.729  0.6865 -0.6326 -0.8060
  496MOL0     C66881   2.307   8.811   6.765 -0.3855 -0.5261 -0.4769
  496MOL0     C66882   2.350   8.729   6.871 -0.5120 -0.0326 -0.0313
  496MOL0     O66883   2.479   8.731   6.925 -0.5680 -0.3480 -0.0149
  496MOL0     C66884   2.554   8.847   6.894  0.1711  0.5921  0.1512
  496MOL0     C66885   2.664   8.870   6.996 -0.0869  0.5444 -0.4812
  496MOL0     C66886   2.765   8.758   7.000 -0.2249  0.9136 -0.0672
  496MOL0     C66887   2.894   8.796   7.065  0.2205  0.1378 -0.2202
  496MOL0     C66888   2.971   8.673   7.070  0.4680  1.0270  0.3629
  496MOL0     C66889   3.021   8.560   7.074 -0.2687  0.5122 -0.0134
  496MOL0     C66890   2.257   8.643   6.940 -0.2144 -0.5831  0.0297
  496MOL0     C66891   2.129   8.651   6.909  0.0622 -0.0000 -1.0263
  496MOL0     C66892   2.045   8.565   6.991 -0.4531 -0.6115  0.3192
  496MOL0     H66893   1.722   8.879   6.834 -0.2299  0.4850  1.0157
  496MOL0     H66894   1.469   8.916   6.801  0.0656  0.2827  2.5367
  496MOL0     H66895   1.249   8.900   6.822 -0.6748 -0.9896 -0.4954
  496MOL0     H66896   1.226   8.865   6.650 -0.4674 -3.3790 -1.3368
  496MOL0     H66897   1.023   8.914   6.744  0.5410  0.3198  0.3216
  496MOL0     H66898   1.041   8.786   6.870  0.9865  0.7347  0.8765
  496MOL0     H66899   0.994   8.610   6.718  1.6007 -0.9852 -2.4871
  496MOL0     H66900   1.031   8.713   6.572 -0.6207  2.6754 -0.1951
  496MOL0     H66901   0.820   8.775   6.758 -1.6211 -2.0979  0.5264
  496MOL0     H66902   0.828   8.840   6.584  0.7762 -1.7441 -2.1892
  496MOL0     H66903   0.673   8.690   6.547 -0.7311 -0.9451 -1.1615
  496MOL0     H66904   0.817   8.592   6.516 -3.1601 -1.2924 -1.2389
  496MOL0     H66905   0.800   8.523   6.765  1.6723  1.8300 -0.9658
  496MOL0     H66906   0.628   8.587   6.760 -0.6031 -2.5317  0.0821
  496MOL0     H66907   0.771   8.382   6.586  1.4347  0.4532  0.6664
  496MOL0     H66908   0.617   8.439   6.542 -0.6351 -1.2096 -0.3535
  496MOL0     H66909   0.633   8.323   6.820 -1.3679 -0.7607 -0.3394
  496MOL0     H66910   0.508   8.319   6.698 -0.2677  1.6378  1.3042
  496MOL0     H66911   0.754   8.059   6.843  0.0024 -1.8077  0.3058
  496MOL0     H66912   0.741   7.785   6.700 -2.7612  0.9266 -4.0604
  496MOL0     H66913   0.846   7.821   6.557  1.1138  1.4319  0.3885
  496MOL0     H66914   1.039   7.882   6.672 -0.8464  1.3338 -0.4605
  496MOL0     H66915   0.953   7.912   6.824 -2.6721  0.5521  0.5397
  496MOL0     H66916   1.035   7.652   6.688 -1.4360 -1.3593  0.4859
  496MOL0     H66917   0.900   7.643   6.792  0.5222  0.1582  2.7242
  496MOL0     H66918   1.118   7.575   6.908  0.6901  0.3066  1.0808
  496MOL0     H66919   1.042   7.713   6.984  2.0367  0.7520  0.4677
  496MOL0     H66920   1.244   7.690   7.114 -0.5706  0.8676  0.1549
  496MOL0     H66921   1.472   7.649   7.205 -0.0705  0.7595 -0.0194
  496MOL0     H66922   1.784   7.818   7.416 -3.0130 -3.7330  0.1026
  496MOL0     H66923   2.029   7.828   7.528  3.5781 -2.1704 -0.6645
  496MOL0     H66924   2.296   7.851   7.529  0.5664 -1.4927 -2.5470
  496MOL0     H66925   2.197   7.759   7.651  1.5315  0.0267  0.9285
  496MOL0     H66926   2.410   7.745   7.741 -1.8402  2.0165 -0.8705
  496MOL0     H66927   2.361   7.594   7.661 -1.0934 -0.2506 -3.2733
  496MOL0     H66928   2.508   7.656   7.458 -0.5058 -1.3775  1.0273
  496MOL0     H66929   2.520   7.820   7.522 -0.8201  0.3756 -0.0845
  496MOL0     H66930   2.632   7.585   7.670 -1.7760  0.4708 -0.9110
  496MOL0     H66931   2.676   7.751   7.686  2.3578 -1.4140 -0.1200
  496MOL0     H66932   2.779   7.777   7.465  0.4889  1.4112  1.7854
  496MOL0     H66933   2.728   7.603   7.431 -3.5383  0.6957  1.0729
  496MOL0     H66934   2.967   7.623   7.496 -1.7721 -3.1499 -1.2820
  496MOL0     H66935   2.916   7.702   7.643 -1.1874  2.4801 -1.9195
  496MOL0     H66936   2.856   7.416   7.526 -0.4180 -1.5541  2.0577
  496MOL0     H66937   2.807   7.464   7.689 -2.4668 -2.7897 -1.9547
  496MOL0     H66938   3.095   7.452   7.592 -1.7794 -3.9465 -3.6467
  496MOL0     H66939   3.035   7.485   7.755  2.2235  0.1440 -0.1440
  496MOL0     H66940   2.153   7.520   7.264 -2.3847 -1.6836  0.2419
  496MOL0     H66941   1.942   7.539   7.137 -0.1116  3.3632 -1.8751
  496MOL0     H66942   1.642   7.741   6.809 -2.1460 -0.4976 -3.5522
  496MOL0     H66943   1.410   7.759   6.724 -1.0239 -2.3399  0.2784
  496MOL0     H66944   1.423   8.486   6.751 -1.0634  1.7897 -0.7137
  496MOL0     H66945   1.667   8.462   6.785 -1.8111 -1.0859  1.7402
  496MOL0     H66946   2.141   8.870   6.652  0.3809  1.1941  0.8538
  496MOL0     H66947   2.373   8.886   6.723 -0.4904 -0.1337  0.0534
  496MOL0     H66948   2.483   8.930   6.896 -0.3512  0.1592  2.1810
  496MOL0     H66949   2.604   8.836   6.798 -1.0986 -0.4179 -0.4278
  496MOL0     H66950   2.615   8.873   7.094 -3.1596  1.8586 -1.9353
  496MOL0     H66951   2.700   8.970   6.967 -1.9619  1.8216  1.2955
  496MOL0     H66952   2.796   8.722   6.901 -0.5416 -2.4607  0.9360
  496MOL0     H66953   2.725   8.672   7.054  2.4799 -0.4226 -0.0422
  496MOL0     H66954   2.939   8.864   6.992  1.0605 -0.8009 -0.5975
  496MOL0     H66955   2.877   8.826   7.169  1.8982 -3.0074  1.1078
  496MOL0     H66956   3.051   8.457   7.077 -0.8446  0.3646  1.3057
  496MOL0     H66957   2.298   8.578   7.017 -2.0391  1.9639  3.4141
  496MOL0     H66958   2.099   8.515   7.071  1.2853 -1.4862 -1.3197
  496MOL0     H66959   1.964   8.616   7.044 -0.2555 -0.4346  0.4454
  496MOL0     H66960   2.006   8.486   6.926 -0.1421 -1.8787  1.6107
  497MOL0     O66961   2.567  10.733   1.050  1.1707  0.7916  0.4284
  497MOL0     C66962   2.538  10.758   0.932  0.2700 -0.8250  0.9576
  497MOL0     O66963   2.633  10.768   0.830  0.0584 -0.5615  0.4200
  497MOL0     C66964   2.768  10.765   0.868 -0.3222 -0.8647  0.2434
  497MOL0     C66965   2.852  10.672   0.800  0.0539  0.0574 -0.3359
  497MOL0     C66966   2.981  10.653   0.832 -0.1108 -0.0564  0.3752
  497MOL0     C66967   3.034  10.729   0.926 -0.7281 -1.2505 -0.5019
  497MOL0     O66968   3.172  10.726   0.929  0.1886 -0.7687 -0.1152
  497MOL0     C66969   3.243  10.801   1.041  0.1162 -0.8681  0.0684
  497MOL0     C66970   3.390  10.786   1.048  0.0581  1.0742 -0.5608
  497MOL0     C66971   3.470  10.835   0.919 -0.4033 -0.3070 -0.5097
  497MOL0     C66972   3.615  10.836   0.959  0.5740 -0.1249 -0.6973
  497MOL0     C66973   3.661  10.965   1.029  0.5409 -0.1556 -0.3055
  497MOL0     C66974   3.637  11.086   0.944 -0.0330  0.1143  0.0178
  497MOL0     C66975   3.697  11.091   0.795  0.4973 -0.7589 -0.2756
  497MOL0     C66976   3.854  11.076   0.792  0.2511  0.2237 -0.5298
  497MOL0     N66977   3.901  11.124   0.659  1.1240  0.5725 -0.4214
  497MOL0     C66978   3.871  11.066   0.540  0.5716 -0.0009 -0.8202
  497MOL0     C66979   3.891  11.158   0.444  0.2543 -0.1672  0.2860
  497MOL0     C66980   3.863  11.130   0.303 -0.4150  0.0728  0.2747
  497MOL0     C66981   3.968  11.064   0.220  0.1301 -0.1763 -0.2325
  497MOL0     C66982   3.935  11.103   0.073 -0.0706 -0.9579 -0.5591
  497MOL0     C66983   4.044  11.067  -0.027  0.1011 -0.0951 -0.5229
  497MOL0     O66984   4.171  11.133   0.001  0.3179  0.5852  0.4585
  497MOL0     C66985   4.286  11.075  -0.057 -0.1002  0.0852 -0.8259
  497MOL0     C66986   4.400  11.058   0.023 -0.3935  0.1871 -0.8985
  497MOL0     C66987   4.514  11.019  -0.043 -1.2835 -0.6057  0.1555
  497MOL0     C66988   4.515  10.983  -0.177 -0.4045  1.3619 -0.3635
  497MOL0     C66989   4.639  10.927  -0.222 -0.3862  0.3832 -0.2246
  497MOL0     O66990   4.754  10.974  -0.158  0.8282  0.0206  0.7561
  497MOL0     C66991   4.870  10.945  -0.229  0.3465  0.0827 -0.7020
  497MOL0     C66992   4.933  11.041  -0.310 -1.4549 -0.3009 -0.3336
  497MOL0     C66993   5.053  11.001  -0.378 -0.7641  0.1850 -0.4731
  497MOL0     C66994   5.117  10.874  -0.357 -0.1392  0.0320 -0.9245
  497MOL0     O66995   5.229  10.838  -0.426 -0.5258 -0.4890  0.6474
  497MOL0     C66996   5.343  10.802  -0.344 -0.0280 -0.3813  0.0341
  497MOL0     C66997   5.460  10.802  -0.433  0.2226  0.1951 -0.3650
  497MOL0     C66998   5.580  10.732  -0.380 -0.8979  0.3989  0.2372
  497MOL0     C66999   5.711  10.743  -0.467  1.4104 -0.4443  0.4204
  497MOL0     C67000   5.798  10.876  -0.433  0.2949 -0.0740  0.3969
  497MOL0     C67001   5.910  10.903  -0.533  0.2571  0.1749 -0.1884
  497MOL0     C67002   5.999  11.009  -0.479 -0.0639 -0.1451  0.2192
  497MOL0     C67003   6.103  11.065  -0.573 -0.0265 -0.3661  1.0193
  497MOL0    Cl67004   6.227  10.945  -0.618 -0.0875 -0.6794  0.4263
  497MOL0     C67005   5.050  10.780  -0.271 -0.2386 -0.3081 -0.0426
  497MOL0     C67006   4.937  10.818  -0.203 -0.8956 -0.1513 -0.4008
  497MOL0     O67007   4.644  10.864  -0.326  0.4602 -0.9294  0.4044
  497MOL0     C67008   4.400  10.985  -0.251  0.6418  0.6353  0.6624
  497MOL0     C67009   4.286  11.032  -0.196 -0.2768 -0.1342 -0.0478
  497MOL0     N67010   3.928  11.278   0.497  0.4908 -0.2404  0.2217
  497MOL0     N67011   3.933  11.253   0.624 -0.7165 -0.1582 -0.2077
  497MOL0     C67012   2.956  10.820   1.008 -0.7175  0.7097  0.0507
  497MOL0     C67013   2.823  10.840   0.973 -0.1762 -0.1495 -0.4301
  497MOL0     C67014   2.402  10.781   0.898  1.1166 -0.3284  0.8988
  497MOL0     C67015   2.362  10.730   0.772  0.1069 -0.4505  0.3461
  497MOL0     C67016   2.231  10.747   0.726  0.5300  0.8139  0.1284
  497MOL0     C67017   2.134  10.811   0.795 -0.2763  0.1542 -0.1468
  497MOL0     O67018   2.020  10.822   0.726 -0.5769 -0.7212  0.2629
  497MOL0     C67019   1.922  10.917   0.772  0.2584 -0.4321 -0.2717
  497MOL0     C67020   1.779  10.868   0.744  0.1708  0.3679  0.2469
  497MOL0     C67021   1.677  10.961   0.814 -0.2244 -0.5124  0.4556
  497MOL0     C67022   1.533  10.913   0.783  0.0303 -0.1304  0.7516
  497MOL0     C67023   1.442  10.987   0.871 -0.2123  0.8039 -0.5517
  497MOL0     C67024   1.367  11.050   0.941  1.0141  0.1435 -0.7324
  497MOL0     C67025   2.173  10.852   0.927  0.1326 -0.1786  0.4175
  497MOL0     C67026   2.302  10.843   0.974  0.7708  0.8133 -0.0573
  497MOL0     C67027   2.337  10.909   1.101 -0.1032 -0.1137  0.1664
  497MOL0     H67028   2.805  10.599   0.734 -1.2673 -0.4478  1.0916
  497MOL0     H67029   3.042  10.580   0.780  0.8372  1.3396 -0.5316
  497MOL0     H67030   3.229  10.909   1.034  0.3298 -0.9419 -2.1209
  497MOL0     H67031   3.190  10.777   1.133 -1.2206  0.5308 -0.2904
  497MOL0     H67032   3.405  10.680   1.072 -0.6935  0.9624 -0.5809
  497MOL0     H67033   3.424  10.838   1.138 -1.2443 -1.3450  1.4229
  497MOL0     H67034   3.426  10.930   0.886 -1.5798 -0.2128  1.2070
  497MOL0     H67035   3.458  10.770   0.831  2.4630 -0.2772 -1.0190
  497MOL0     H67036   3.643  10.758   1.030 -0.9999 -0.3943 -0.3439
  497MOL0     H67037   3.685  10.835   0.874  0.4699  1.5524 -0.8418
  497MOL0     H67038   3.605  10.970   1.123 -1.8536 -0.5077 -1.6524
  497MOL0     H67039   3.768  10.947   1.044  0.6344 -0.5131 -1.2947
  497MOL0     H67040   3.528  11.091   0.935 -0.1380 -3.2807 -3.0460
  497MOL0     H67041   3.681  11.180   0.978  2.6542 -0.6819 -1.0005
  497MOL0     H67042   3.657  11.183   0.751 -0.0089  0.6522  2.8956
  497MOL0     H67043   3.652  11.009   0.738  1.4957 -2.2692  1.0242
  497MOL0     H67044   3.910  11.131   0.869  0.4926 -2.0681  1.0269
  497MOL0     H67045   3.874  10.970   0.808 -0.6765  0.0838 -0.2519
  497MOL0     H67046   3.842  10.962   0.532  2.5665 -0.5494 -1.4104
  497MOL0     H67047   3.774  11.067   0.292  0.1761 -0.4765 -1.8061
  497MOL0     H67048   3.842  11.229   0.262  1.5517 -0.1906 -1.4993
  497MOL0     H67049   4.051  11.122   0.261  0.3363  1.0907 -2.2415
  497MOL0     H67050   3.975  10.957   0.240 -1.0999  0.2437  2.9927
  497MOL0     H67051   3.928  11.212   0.063 -3.5762 -1.0213  0.0511
  497MOL0     H67052   3.836  11.065   0.044  0.3487 -1.5896 -1.1953
  497MOL0     H67053   3.999  11.092  -0.124  0.4735 -1.3865 -1.0445
  497MOL0     H67054   4.053  10.958  -0.018  0.3901  0.0986  2.5712
  497MOL0     H67055   4.412  11.093   0.125 -2.0648 -1.5903 -0.0501
  497MOL0     H67056   4.608  11.021   0.012 -0.1040  1.4375 -1.7692
  497MOL0     H67057   4.896  11.138  -0.344 -0.1969 -0.2289 -1.6049
  497MOL0     H67058   5.109  11.069  -0.442 -1.7316  0.4605 -1.0500
  497MOL0     H67059   5.362  10.866  -0.258 -1.9542  0.0693  0.1673
  497MOL0     H67060   5.320  10.700  -0.309  3.5125 -1.6250 -0.8654
  497MOL0     H67061   5.437  10.745  -0.523  2.1544 -0.6539 -0.3606
  497MOL0     H67062   5.483  10.904  -0.464  1.3831  0.0522 -0.0244
  497MOL0     H67063   5.608  10.781  -0.286  1.7565 -1.3113  0.4164
  497MOL0     H67064   5.549  10.628  -0.370 -0.5918  0.4221  1.6490
  497MOL0     H67065   5.678  10.736  -0.571 -0.3224  0.5559  0.8725
  497MOL0     H67066   5.785  10.665  -0.442  0.1116 -1.8386  0.0436
  497MOL0     H67067   5.845  10.853  -0.337  0.4640 -1.2058  0.0507
  497MOL0     H67068   5.736  10.965  -0.424  0.9412  0.2789  1.6526
  497MOL0     H67069   5.964  10.813  -0.563  3.2569  1.9660 -0.5877
  497MOL0     H67070   5.860  10.942  -0.622  0.0787  0.3723 -0.0053
  497MOL0     H67071   6.048  10.970  -0.390  1.5242 -0.1867 -0.6406
  497MOL0     H67072   5.933  11.089  -0.443 -0.9172 -1.6102  2.0952
  497MOL0     H67073   6.041  11.093  -0.659 -2.6192  2.0543  3.4526
  497MOL0     H67074   6.142  11.155  -0.526  0.7413 -0.5973  0.8466
  497MOL0     H67075   5.105  10.688  -0.254 -2.4483 -1.6879 -0.0857
  497MOL0     H67076   4.895  10.768  -0.116 -0.1091  2.1477  1.3892
  497MOL0     H67077   4.391  10.943  -0.351 -1.4925  0.0596  1.0503
  497MOL0     H67078   4.206  11.060  -0.263  1.9798 -1.3368 -3.5081
  497MOL0     H67079   3.008  10.879   1.082 -0.5525  0.2558  0.2956
  497MOL0     H67080   2.767  10.913   1.032 -1.1580 -0.7945 -0.5408
  497MOL0     H67081   2.432  10.672   0.713 -0.5597 -0.3532 -0.5499
  497MOL0     H67082   2.200  10.709   0.629 -0.0842 -0.5224  0.8187
  497MOL0     H67083   1.941  11.016   0.727  2.0697 -0.9435 -0.7345
  497MOL0     H67084   1.929  10.925   0.881  1.3235 -0.6322 -0.3151
  497MOL0     H67085   1.759  10.770   0.787  0.3540 -0.2711 -1.0809
  497MOL0     H67086   1.760  10.858   0.636  2.9070  1.7215 -0.4706
  497MOL0     H67087   1.690  11.062   0.774  3.7305 -2.6224 -4.6265
  497MOL0     H67088   1.705  10.956   0.920  3.2279  0.3676 -0.3047
  497MOL0     H67089   1.504  10.923   0.678 -1.8135  2.4025  1.4045
  497MOL0     H67090   1.522  10.808   0.810  1.1403 -0.6691 -0.8314
  497MOL0     H67091   1.286  11.095   0.996  0.8294 -1.2441  0.1984
  497MOL0     H67092   2.093  10.888   0.991 -0.2352 -2.0292  1.0610
  497MOL0     H67093   2.349  10.835   1.180 -2.7325  0.6079  1.3696
  497MOL0     H67094   2.424  10.973   1.089 -0.3632  0.0226 -1.1745
  497MOL0     H67095   2.253  10.975   1.127 -0.0319  0.1107 -0.1663
  498MOL0     O67096   1.411   4.304   8.452  0.0843  0.0997  0.2945
  498MOL0     C67097   1.365   4.208   8.402 -0.5196 -0.0438  0.5119
  498MOL0     O67098   1.428   4.080   8.400  0.3493  0.2733  0.1508
  498MOL0     C67099   1.563   4.068   8.433  1.3133  0.0268  0.6450
  498MOL0     C67100   1.609   3.965   8.516  0.1530 -0.2927 -0.2145
  498MOL0     C67101   1.748   3.948   8.546 -0.4231 -0.1059  1.4949
  498MOL0     C67102   1.844   4.036   8.498 -0.4896 -0.2807 -0.3533
  498MOL0     O67103   1.981   4.041   8.527  0.2130 -0.1150 -0.4652
  498MOL0     C67104   2.034   3.909   8.560 -0.1117  0.3307  0.0074
  498MOL0     C67105   2.186   3.911   8.541  0.4076 -0.3866 -0.2233
  498MOL0     C67106   2.249   3.779   8.589  0.3768  0.6758 -0.2725
  498MOL0     C67107   2.402   3.774   8.598  0.2861  0.2358 -1.0073
  498MOL0     C67108   2.444   3.637   8.664 -0.3134  0.0040  0.8109
  498MOL0     C67109   2.604   3.630   8.668  0.2695 -0.3749 -0.2218
  498MOL0     C67110   2.663   3.497   8.712 -0.0272  0.9197  0.2843
  498MOL0     C67111   2.632   3.471   8.869  0.0442 -0.4521  1.2353
  498MOL0     N67112   2.710   3.374   8.929  0.3216  0.5305  0.3783
  498MOL0     C67113   2.847   3.363   8.920  0.4055  0.2516  0.4969
  498MOL0     C67114   2.887   3.275   9.008  0.5578 -0.9557 -0.2592
  498MOL0     C67115   3.032   3.240   9.035 -0.3483  0.1655 -0.9260
  498MOL0     C67116   3.120   3.236   8.909  0.5673  0.1605  0.8507
  498MOL0     C67117   3.262   3.192   8.920 -0.7356  0.1552 -0.8410
  498MOL0     C67118   3.327   3.283   9.017  0.5737  0.2147  0.4999
  498MOL0     O67119   3.468   3.262   9.004  0.5739 -0.4107 -0.2993
  498MOL0     C67120   3.549   3.368   9.032  0.5888 -0.6485 -0.1600
  498MOL0     C67121   3.510   3.449   9.146 -0.7390 -0.6107 -0.6511
  498MOL0     C67122   3.584   3.566   9.172 -0.2467 -0.2441 -0.3428
  498MOL0     C67123   3.686   3.603   9.081 -0.2230 -0.2709  0.8860
  498MOL0     C67124   3.754   3.728   9.099 -0.9649  0.3833  0.1978
  498MOL0     O67125   3.688   3.823   9.155  0.1140 -0.5694 -0.2668
  498MOL0     C67126   3.722   3.956   9.133 -0.0726  0.0377 -0.6508
  498MOL0     C67127   3.697   4.049   9.231  0.2960  0.0265 -0.4191
  498MOL0     C67128   3.739   4.176   9.220  0.4820  0.4701  0.6675
  498MOL0     C67129   3.797   4.223   9.101  0.1753  0.0005  0.1709
  498MOL0     O67130   3.833   4.361   9.098 -0.0032 -0.1971  0.0699
  498MOL0     C67131   3.913   4.409   8.990  0.5581 -0.0122 -0.0636
  498MOL0     C67132   3.965   4.550   9.024 -0.4495 -0.3062  0.7357
  498MOL0     C67133   4.080   4.598   8.930  0.3026  0.9943  0.4856
  498MOL0     C67134   4.071   4.572   8.779  0.1363 -0.0884  0.0563
  498MOL0     C67135   4.187   4.656   8.721 -0.0138  0.1340  0.0111
  498MOL0     C67136   4.223   4.612   8.580 -0.6817  1.2198  0.4071
  498MOL0     C67137   4.354   4.675   8.525  0.8379 -0.8527  0.6979
  498MOL0     C67138   4.399   4.590   8.408 -0.1871 -0.0463 -0.0048
  498MOL0    Cl67139   4.536   4.666   8.307  0.0281  0.1359  0.1254
  498MOL0     C67140   3.810   4.137   8.989 -0.1864 -0.2227  0.5755
  498MOL0     C67141   3.771   4.004   9.010 -0.7241 -0.5710  0.8807
  498MOL0     O67142   3.872   3.741   9.067  0.0103  0.1953  0.1898
  498MOL0     C67143   3.718   3.523   8.973  0.0237 -0.4140  0.5122
  498MOL0     C67144   3.649   3.406   8.953  0.2921  0.2243 -0.1494
  498MOL0     N67145   2.775   3.230   9.075  0.4855  0.2088  0.1509
  498MOL0     N67146   2.673   3.300   9.031 -0.0786 -0.0456 -0.6637
  498MOL0     C67147   1.794   4.130   8.405 -0.0531 -0.3982 -0.1085
  498MOL0     C67148   1.656   4.139   8.371 -1.0039  0.1379 -0.0069
  498MOL0     C67149   1.232   4.218   8.334 -0.5490  0.6726  0.2079
  498MOL0     C67150   1.206   4.124   8.230  0.0026 -0.1941  0.4967
  498MOL0     C67151   1.083   4.110   8.168  0.4951  0.5754  0.0482
  498MOL0     C67152   0.980   4.202   8.197  0.7701  0.1489  0.2201
  498MOL0     O67153   0.845   4.184   8.158 -0.0827  0.6530  0.3833
  498MOL0     C67154   0.812   4.080   8.066 -0.6019  0.5796 -0.8652
  498MOL0     C67155   0.664   4.084   8.056  0.0507 -0.3335 -0.2879
  498MOL0     C67156   0.593   4.003   8.168 -0.1310  0.1686 -0.2686
  498MOL0     C67157   0.455   4.047   8.196  0.4357  1.1329 -0.7059
  498MOL0     C67158   0.365   4.006   8.091  0.5107 -0.3269 -0.7218
  498MOL0     C67159   0.279   3.990   8.006  0.2106  0.0644  0.1435
  498MOL0     C67160   1.010   4.304   8.287  1.3764 -0.1469  0.1579
  498MOL0     C67161   1.129   4.312   8.359  0.7461  0.5653 -0.4297
  498MOL0     C67162   1.124   4.411   8.465 -0.5530  0.0335 -0.0338
  498MOL0     H67163   1.543   3.886   8.550  0.3974 -0.2750  0.3255
  498MOL0     H67164   1.782   3.864   8.604 -0.5819  0.1245  1.9265
  498MOL0     H67165   2.003   3.872   8.658 -3.0435 -1.4868 -1.4392
  498MOL0     H67166   2.004   3.837   8.483 -1.4288 -0.4108  1.1648
  498MOL0     H67167   2.232   3.994   8.595  2.4198 -0.5106 -1.6363
  498MOL0     H67168   2.213   3.927   8.437  1.4781 -1.0640 -0.0688
  498MOL0     H67169   2.215   3.693   8.531  0.0557 -0.1939  1.1589
  498MOL0     H67170   2.214   3.761   8.692  2.3331 -0.6782  0.1995
  498MOL0     H67171   2.453   3.776   8.501  0.2765 -3.7983 -1.2726
  498MOL0     H67172   2.440   3.861   8.651 -0.0506  1.0133 -2.0098
  498MOL0     H67173   2.386   3.614   8.754 -0.0496  1.0499  1.2624
  498MOL0     H67174   2.422   3.560   8.590 -1.4571 -0.0715  1.2022
  498MOL0     H67175   2.642   3.643   8.566  0.4556 -1.2658 -0.2736
  498MOL0     H67176   2.649   3.697   8.742  0.3675  0.5645 -1.1159
  498MOL0     H67177   2.769   3.491   8.688  0.0350  1.6827  0.3368
  498MOL0     H67178   2.624   3.415   8.651 -0.1260  0.0632  1.4542
  498MOL0     H67179   2.651   3.565   8.922 -0.3935  0.3490  0.0169
  498MOL0     H67180   2.527   3.442   8.882  0.5500 -1.3137  3.9282
  498MOL0     H67181   2.912   3.419   8.853 -0.5983 -0.0444 -0.7382
  498MOL0     H67182   3.068   3.306   9.114  1.4919 -0.8144 -0.8763
  498MOL0     H67183   3.028   3.142   9.084  1.8092 -0.2712 -1.5176
  498MOL0     H67184   3.062   3.176   8.839 -2.9023  1.6107  2.2580
  498MOL0     H67185   3.127   3.332   8.857 -0.3126 -0.2000  0.0259
  498MOL0     H67186   3.313   3.203   8.824  2.8947 -0.3587  0.8748
  498MOL0     H67187   3.249   3.087   8.949 -0.5510 -0.4595 -2.8537
  498MOL0     H67188   3.291   3.263   9.118  0.1983 -2.8479 -0.1236
  498MOL0     H67189   3.303   3.387   8.993 -0.1781 -0.0373  0.1329
  498MOL0     H67190   3.433   3.411   9.213  0.5496 -2.0578  0.0778
  498MOL0     H67191   3.579   3.617   9.268  2.3926 -1.0677  0.3284
  498MOL0     H67192   3.657   4.027   9.329 -0.1662  1.0776 -0.3624
  498MOL0     H67193   3.733   4.241   9.307  2.8808 -1.0764  2.0981
  498MOL0     H67194   4.003   4.348   8.981  2.0600  2.0337  0.3235
  498MOL0     H67195   3.855   4.419   8.898  1.6347  0.1649 -0.7430
  498MOL0     H67196   3.880   4.619   9.012 -1.2479 -1.3689  0.0899
  498MOL0     H67197   4.007   4.558   9.125 -2.5508 -0.7686  1.7025
  498MOL0     H67198   4.081   4.707   8.946 -1.5203  0.9580  1.1175
  498MOL0     H67199   4.172   4.550   8.962  0.6735 -1.5930 -3.7273
  498MOL0     H67200   3.980   4.609   8.731  0.3420  1.8864  1.0858
  498MOL0     H67201   4.079   4.465   8.756  0.7297  0.2862 -1.6250
  498MOL0     H67202   4.272   4.641   8.787  0.6601 -0.1366 -0.8984
  498MOL0     H67203   4.155   4.761   8.713 -0.5246  0.0474  0.7889
  498MOL0     H67204   4.229   4.503   8.586 -1.8396  1.1914  1.6448
  498MOL0     H67205   4.143   4.631   8.507 -0.9651 -0.1894  0.3171
  498MOL0     H67206   4.434   4.670   8.601  2.2024  2.6436 -0.2724
  498MOL0     H67207   4.333   4.780   8.501 -2.0822 -1.8280 -1.5197
  498MOL0     H67208   4.442   4.495   8.443  0.1523  0.1625  0.1509
  498MOL0     H67209   4.316   4.573   8.338 -0.4669 -0.6716  0.4727
  498MOL0     H67210   3.836   4.166   8.888 -2.1994 -0.7911 -0.1612
  498MOL0     H67211   3.767   3.932   8.929  1.0065 -0.0058  0.2565
  498MOL0     H67212   3.787   3.560   8.897  1.7403 -3.9449  0.1540
  498MOL0     H67213   3.679   3.336   8.875  3.1590 -1.0029  1.8945
  498MOL0     H67214   1.863   4.199   8.358 -1.8020  0.6391 -1.2404
  498MOL0     H67215   1.634   4.218   8.299  1.9623  0.5583 -0.5580
  498MOL0     H67216   1.285   4.051   8.215  1.7271  0.8870  3.2989
  498MOL0     H67217   1.062   4.027   8.100  2.1746  0.3563 -0.2469
  498MOL0     H67218   0.833   3.981   8.107 -1.6527  1.4297  1.9640
  498MOL0     H67219   0.867   4.097   7.973  2.0505 -0.2886  0.4359
  498MOL0     H67220   0.633   4.042   7.960 -1.1027 -1.4932  0.5446
  498MOL0     H67221   0.618   4.183   8.059 -0.4907 -0.5785 -0.3819
  498MOL0     H67222   0.651   4.019   8.259  2.9964  3.6192 -2.5701
  498MOL0     H67223   0.596   3.896   8.149  0.2847  0.2603 -0.7540
  498MOL0     H67224   0.428   4.013   8.296 -0.6487  3.4656 -0.1498
  498MOL0     H67225   0.457   4.155   8.209 -0.4457  1.0913 -0.1293
  498MOL0     H67226   0.203   3.988   7.931 -1.8997 -0.6071  2.1888
  498MOL0     H67227   0.925   4.366   8.313 -1.4492 -3.8801  0.7673
  498MOL0     H67228   1.126   4.514   8.429  1.1325  0.5115  1.3121
  498MOL0     H67229   1.039   4.394   8.532 -0.8129  0.1752 -0.3244
  498MOL0     H67230   1.208   4.402   8.533 -1.6283 -1.9064  1.1459
  499MOL0     O67231   4.478   5.896   8.312 -0.0784 -0.1890 -0.1554
  499MOL0     C67232   4.423   5.853   8.215  0.1127  0.2215 -0.1776
  499MOL0     O67233   4.473   5.864   8.086 -0.1667  0.3414 -0.4648
  499MOL0     C67234   4.580   5.945   8.040  0.6639  0.1838  0.2029
  499MOL0     C67235   4.641   6.050   8.110  0.2583 -0.4875  0.7017
  499MOL0     C67236   4.762   6.113   8.077 -0.7569  0.0204  0.1231
  499MOL0     C67237   4.828   6.056   7.958 -0.3699 -0.0286 -0.7433
  499MOL0     O67238   4.937   6.117   7.902 -0.1483  0.3247 -0.3977
  499MOL0     C67239   4.985   6.241   7.956 -0.4914  0.4233 -0.0021
  499MOL0     C67240   5.105   6.288   7.880  0.2046  0.1221 -0.5030
  499MOL0     C67241   5.162   6.424   7.930 -0.0522 -0.9331  0.3749
  499MOL0     C67242   5.303   6.459   7.873  0.1507  0.1429  0.2173
  499MOL0     C67243   5.362   6.584   7.938  0.1080  0.4243  0.2530
  499MOL0     C67244   5.512   6.581   7.897  1.1934 -0.2212  0.0681
  499MOL0     C67245   5.579   6.691   7.972 -0.4628 -1.3049  0.0122
  499MOL0     C67246   5.684   6.767   7.884 -0.3051 -0.1824 -0.6028
  499MOL0     N67247   5.816   6.719   7.919  0.1302  1.4040  0.7173
  499MOL0     C67248   5.881   6.730   8.041 -0.4120  0.5355  0.9765
  499MOL0     C67249   5.990   6.648   8.021  0.0987  0.3498 -0.6222
  499MOL0     C67250   6.096   6.615   8.135  0.5329 -0.3373  0.0994
  499MOL0     C67251   6.203   6.722   8.147  0.1021 -0.3702 -0.5111
  499MOL0     C67252   6.293   6.719   8.276 -0.4664 -0.5353 -0.0508
  499MOL0     C67253   6.330   6.575   8.323 -0.2171 -0.0450 -0.0519
  499MOL0     O67254   6.436   6.577   8.424 -0.0654 -0.4084  0.1559
  499MOL0     C67255   6.567   6.595   8.378  1.0536  0.4806 -0.4939
  499MOL0     C67256   6.625   6.492   8.305  0.9462  0.2900 -0.1930
  499MOL0     C67257   6.754   6.502   8.276 -1.0093  0.7909 -0.3643
  499MOL0     C67258   6.852   6.599   8.331 -0.1463  0.2646 -0.0888
  499MOL0     C67259   6.996   6.597   8.305  0.6839  0.2532 -0.0597
  499MOL0     O67260   7.056   6.481   8.261  0.5932  0.5506  0.3873
  499MOL0     C67261   7.188   6.487   8.230 -0.9493  0.1205 -0.0019
  499MOL0     C67262   7.289   6.431   8.322 -0.1333  0.0622 -0.6258
  499MOL0     C67263   7.425   6.445   8.285  0.1700 -0.9090 -0.3944
  499MOL0     C67264   7.463   6.503   8.164 -0.5792 -0.5023 -0.2799
  499MOL0     O67265   7.595   6.526   8.129  0.1403 -0.0124  0.0872
  499MOL0     C67266   7.638   6.494   7.993  0.9781  0.3624  0.4234
  499MOL0     C67267   7.793   6.521   7.989  0.7205 -0.1500 -0.4098
  499MOL0     C67268   7.868   6.399   8.047  0.6931  0.1040 -0.1641
  499MOL0     C67269   8.014   6.430   8.012 -0.1378  0.1105  0.6406
  499MOL0     C67270   8.117   6.337   8.083  0.4114  0.9248  0.8813
  499MOL0     C67271   8.247   6.388   8.055 -0.6504  0.0362  0.1208
  499MOL0     C67272   8.284   6.399   7.912 -0.4201  0.2389 -0.3763
  499MOL0     C67273   8.430   6.377   7.873 -0.5027 -0.4511  0.0072
  499MOL0    Cl67274   8.494   6.218   7.900  0.5006 -0.5625 -0.4132
  499MOL0     C67275   7.362   6.542   8.076 -1.0739 -0.1073  0.7585
  499MOL0     C67276   7.232   6.531   8.108  0.1353 -0.8187 -0.3112
  499MOL0     O67277   7.046   6.710   8.303 -0.2863 -0.4088  0.3199
  499MOL0     C67278   6.786   6.706   8.406 -0.6430 -0.1586  0.0687
  499MOL0     C67279   6.648   6.695   8.431  0.6498  0.4170  0.6964
  499MOL0     N67280   5.986   6.592   7.892  0.1080 -0.1792 -0.0457
  499MOL0     N67281   5.883   6.636   7.834 -0.2177 -0.5216 -0.1283
  499MOL0     C67282   4.779   5.942   7.901  0.0899 -0.4428  0.1009
  499MOL0     C67283   4.655   5.889   7.935 -0.9469 -0.1632  0.3950
  499MOL0     C67284   4.295   5.771   8.238 -0.2910 -0.6160  0.4790
  499MOL0     C67285   4.222   5.790   8.355  0.6199 -0.6941 -0.2968
  499MOL0     C67286   4.096   5.725   8.384  0.5658 -0.7817  0.2315
  499MOL0     C67287   4.049   5.633   8.294 -0.2490  0.0868 -0.5829
  499MOL0     O67288   3.923   5.594   8.297 -0.1441 -0.0766  0.0941
  499MOL0     C67289   3.914   5.479   8.376 -0.3030  0.5104 -0.2233
  499MOL0     C67290   3.761   5.454   8.408 -0.3000  0.5118  0.3143
  499MOL0     C67291   3.688   5.389   8.293  0.1781  0.1742 -0.3060
  499MOL0     C67292   3.530   5.388   8.313 -0.1044 -0.4710 -0.1279
  499MOL0     C67293   3.485   5.320   8.431 -0.3021 -0.1952  0.4418
  499MOL0     C67294   3.452   5.258   8.529  0.4652 -0.0979 -0.2302
  499MOL0     C67295   4.120   5.616   8.179  0.0611 -0.5692 -0.3436
  499MOL0     C67296   4.243   5.675   8.146  0.5391 -0.0625  0.0831
  499MOL0     C67297   4.304   5.664   8.012  0.3407 -0.0508 -0.0965
  499MOL0     H67298   4.584   6.086   8.195 -0.5025  0.0642 -0.0223
  499MOL0     H67299   4.799   6.192   8.141 -2.1500 -1.3016  2.7079
  499MOL0     H67300   4.915   6.325   7.956  1.0776  1.8867  3.0997
  499MOL0     H67301   5.022   6.222   8.057  0.2369  2.8276  0.2403
  499MOL0     H67302   5.068   6.291   7.777 -1.4736 -0.4862  0.0487
  499MOL0     H67303   5.183   6.212   7.884  0.6624  0.6180  0.1865
  499MOL0     H67304   5.179   6.419   8.038  1.3356  0.8906  0.3022
  499MOL0     H67305   5.082   6.494   7.903 -0.8732 -2.7014 -2.0640
  499MOL0     H67306   5.370   6.374   7.890 -0.6039 -0.2350  1.3689
  499MOL0     H67307   5.305   6.471   7.764  0.0553  3.9814  0.4966
  499MOL0     H67308   5.315   6.666   7.884  1.0247 -0.1576 -1.5009
  499MOL0     H67309   5.353   6.577   8.047  1.6400 -1.4864  0.3197
  499MOL0     H67310   5.558   6.486   7.927  0.4994 -0.9022 -0.9368
  499MOL0     H67311   5.518   6.590   7.788  0.0827  1.3734  0.1094
  499MOL0     H67312   5.622   6.650   8.064  0.0771 -3.2873 -1.0640
  499MOL0     H67313   5.509   6.770   8.001  0.2522 -0.9090  0.7158
  499MOL0     H67314   5.662   6.754   7.778 -0.8294  1.4314 -0.7152
  499MOL0     H67315   5.683   6.874   7.905  1.0967 -0.0684 -0.9833
  499MOL0     H67316   5.859   6.784   8.132  1.9784  2.4519  0.5119
  499MOL0     H67317   6.038   6.607   8.228  1.9040  0.5992  1.0620
  499MOL0     H67318   6.142   6.518   8.114  2.7717  1.3213 -3.7959
  499MOL0     H67319   6.266   6.703   8.060 -0.4119 -4.2273 -0.2191
  499MOL0     H67320   6.161   6.823   8.154  0.8192 -0.1582  1.3858
  499MOL0     H67321   6.251   6.778   8.357  0.1389 -0.5118  0.2556
  499MOL0     H67322   6.382   6.778   8.251  0.1922 -1.1431  0.7852
  499MOL0     H67323   6.364   6.520   8.235  0.1096  0.2755 -0.1280
  499MOL0     H67324   6.247   6.518   8.367 -0.0414 -1.3538 -1.3601
  499MOL0     H67325   6.560   6.416   8.264 -0.0899  0.9758  0.1440
  499MOL0     H67326   6.796   6.422   8.216 -0.8379  0.3718  0.3123
  499MOL0     H67327   7.258   6.382   8.413  0.7250  1.6850  0.5960
  499MOL0     H67328   7.506   6.412   8.349 -0.1074 -0.5397  0.1577
  499MOL0     H67329   7.615   6.391   7.963 -0.6943  1.5109 -2.7586
  499MOL0     H67330   7.580   6.560   7.928  0.4592 -1.9055 -1.5438
  499MOL0     H67331   7.827   6.542   7.887 -3.7742  2.3233 -1.6993
  499MOL0     H67332   7.818   6.611   8.046  1.0057  0.8983 -2.1127
  499MOL0     H67333   7.864   6.406   8.156  3.2049  0.0514 -0.0152
  499MOL0     H67334   7.827   6.306   8.006 -2.6585  0.0037  2.8717
  499MOL0     H67335   8.041   6.534   8.032 -0.8506  0.5568 -0.6027
  499MOL0     H67336   8.014   6.430   7.902  1.5392 -0.0839  0.6155
  499MOL0     H67337   8.110   6.234   8.047  0.4272  1.6420 -1.3332
  499MOL0     H67338   8.091   6.345   8.189 -2.9567 -0.8928  0.3307
  499MOL0     H67339   8.244   6.485   8.107  1.3344  2.0199 -3.1052
  499MOL0     H67340   8.316   6.322   8.107 -0.7171 -0.8166 -0.8627
  499MOL0     H67341   8.267   6.503   7.885 -1.1121  0.4630  0.8635
  499MOL0     H67342   8.229   6.329   7.848  1.2830  0.0494 -1.7223
  499MOL0     H67343   8.439   6.409   7.768 -1.6473  0.6526  0.2312
  499MOL0     H67344   8.492   6.450   7.925  1.7351 -2.0610 -0.2749
  499MOL0     H67345   7.386   6.594   7.984 -0.3125  1.7459  1.9508
  499MOL0     H67346   7.159   6.567   8.036 -2.3666  0.4525  2.5971
  499MOL0     H67347   6.851   6.781   8.448  0.1928 -1.4308  1.1425
  499MOL0     H67348   6.588   6.769   8.483 -0.3364  1.8704 -2.3051
  499MOL0     H67349   4.816   5.903   7.807 -0.7532  1.7474 -1.2100
  499MOL0     H67350   4.623   5.803   7.877 -0.1125  0.2200 -0.6618
  499MOL0     H67351   4.248   5.863   8.432 -0.4871 -1.7987  1.2018
  499MOL0     H67352   4.040   5.762   8.469  1.6641  1.4487  0.0692
  499MOL0     H67353   3.964   5.488   8.472  1.2334 -1.2551 -0.8146
  499MOL0     H67354   3.960   5.400   8.317  0.4559  0.3917  0.5126
  499MOL0     H67355   3.712   5.543   8.449 -0.2426  0.3911  0.6495
  499MOL0     H67356   3.752   5.382   8.490 -0.7403  0.2088  0.0029
  499MOL0     H67357   3.724   5.287   8.274  2.3083  0.0802  3.3642
  499MOL0     H67358   3.702   5.455   8.207 -0.8757  0.5882 -0.1654
  499MOL0     H67359   3.490   5.490   8.321  1.7248  0.1645  1.9029
  499MOL0     H67360   3.486   5.336   8.227  4.0532 -2.6930 -1.1508
  499MOL0     H67361   3.420   5.206   8.617  1.0130 -0.9510 -0.5220
  499MOL0     H67362   4.063   5.552   8.113  0.7362 -1.6822  0.1230
  499MOL0     H67363   4.273   5.579   7.951 -1.3602  1.3294 -1.2603
  499MOL0     H67364   4.279   5.752   7.952  0.1863  2.5799  3.4820
  499MOL0     H67365   4.413   5.653   8.014  0.2019 -2.0848 -1.3495
  500MOL0     O67366   4.892   6.484   3.041 -0.0732  0.1763  0.0423
  500MOL0     C67367   4.883   6.400   2.949 -0.3702 -0.4500  0.3025
  500MOL0     O67368   4.988   6.337   2.890 -0.2545 -0.1858  0.6009
  500MOL0     C67369   5.115   6.373   2.932  0.2994 -1.4168 -0.1387
  500MOL0     C67370   5.174   6.304   3.032  0.0012 -0.1121  0.2687
  500MOL0     C67371   5.302   6.349   3.072  0.3337  0.3681 -0.1624
  500MOL0     C67372   5.366   6.461   3.020  0.1893  1.0331 -0.2903
  500MOL0     O67373   5.498   6.500   3.046  0.4264 -0.0842 -0.0851
  500MOL0     C67374   5.602   6.405   3.035  0.2498  0.3816  0.2404
  500MOL0     C67375   5.592   6.338   2.903 -0.2037  0.1594  0.0251
  500MOL0     C67376   5.715   6.246   2.875  0.1179  0.1495 -0.6399
  500MOL0     C67377   5.740   6.206   2.726  0.7843 -0.3981 -0.2645
  500MOL0     C67378   5.847   6.295   2.655 -0.1640  0.1918  0.9524
  500MOL0     C67379   5.980   6.218   2.629  0.6383 -0.8334 -0.0025
  500MOL0     C67380   6.070   6.295   2.527 -0.4241 -0.0629 -1.0555
  500MOL0     C67381   6.102   6.441   2.573 -0.5256  0.6080 -0.4080
  500MOL0     N67382   6.208   6.502   2.494  0.0418  0.3776 -0.7992
  500MOL0     C67383   6.237   6.491   2.354  0.4339 -0.1012 -0.4719
  500MOL0     C67384   6.351   6.563   2.346 -0.8050  0.5511  0.3829
  500MOL0     C67385   6.443   6.592   2.224 -1.1539 -0.0187 -0.2653
  500MOL0     C67386   6.559   6.483   2.203  0.2195 -0.1250 -0.0472
  500MOL0     C67387   6.623   6.469   2.062 -0.4156 -0.3837 -0.3306
  500MOL0     C67388   6.669   6.608   2.017  0.7820  0.5891  0.2682
  500MOL0     O67389   6.761   6.676   2.105 -0.8972  0.0077 -0.4530
  500MOL0     C67390   6.894   6.631   2.101  0.7794 -0.9582 -0.3332
  500MOL0     C67391   6.963   6.570   1.995  0.4300  0.3873 -0.3327
  500MOL0     C67392   7.101   6.551   1.992  0.3766  0.1414  0.4524
  500MOL0     C67393   7.174   6.580   2.105 -0.4177  0.7226  0.0557
  500MOL0     C67394   7.325   6.577   2.104 -0.1208  0.9482  0.5633
  500MOL0     O67395   7.387   6.508   1.997  0.2535 -0.6737 -0.0994
  500MOL0     C67396   7.523   6.525   1.968  0.2252 -0.3140  0.4369
  500MOL0     C67397   7.571   6.423   1.892 -0.3766 -1.0067 -1.3142
  500MOL0     C67398   7.706   6.425   1.856  1.1575  0.4533 -0.3635
  500MOL0     C67399   7.778   6.541   1.878 -0.4619 -0.1113  0.3285
  500MOL0     O67400   7.905   6.555   1.834 -0.1371 -0.3119  0.6885
  500MOL0     C67401   7.941   6.520   1.700  1.3996 -0.5239  0.3121
  500MOL0     C67402   8.028   6.395   1.669  0.7061  0.0650  0.3778
  500MOL0     C67403   8.181   6.404   1.720 -0.3140  0.5220  0.3316
  500MOL0     C67404   8.285   6.475   1.631  0.5545 -0.2212  0.4695
  500MOL0     C67405   8.423   6.458   1.694 -0.0691 -0.7118 -1.3723
  500MOL0     C67406   8.546   6.492   1.612  0.0303 -0.7274  0.0086
  500MOL0     C67407   8.556   6.400   1.490 -0.7004 -0.2142  0.2236
  500MOL0     C67408   8.668   6.428   1.388 -0.2545  0.3437  0.9866
  500MOL0    Cl67409   8.822   6.366   1.440  0.0795 -0.4947  0.4783
  500MOL0     C67410   7.729   6.654   1.950 -0.1119 -0.2163  0.3972
  500MOL0     C67411   7.599   6.642   1.994  0.3778  0.2280  0.3659
  500MOL0     O67412   7.384   6.614   2.208 -0.0634  0.7697  0.3668
  500MOL0     C67413   7.106   6.628   2.213  0.3127 -0.5397  0.1886
  500MOL0     C67414   6.971   6.654   2.217 -0.0292  0.6088 -0.9164
  500MOL0     N67415   6.378   6.613   2.473  0.0760 -0.3136  0.6923
  500MOL0     N67416   6.301   6.571   2.566 -0.0576  0.0975  0.0638
  500MOL0     C67417   5.302   6.535   2.919  1.1926  0.5661  0.0463
  500MOL0     C67418   5.181   6.481   2.869 -0.4075  0.6877  0.9975
  500MOL0     C67419   4.743   6.373   2.897 -0.3271 -0.6400 -0.3734
  500MOL0     C67420   4.710   6.243   2.873 -0.4384  0.0631 -0.4301
  500MOL0     C67421   4.583   6.206   2.841  0.6219 -0.1363 -0.2391
  500MOL0     C67422   4.479   6.301   2.821  0.1286  0.1618  0.5915
  500MOL0     O67423   4.351   6.251   2.798 -0.6047  0.7664 -0.1765
  500MOL0     C67424   4.241   6.338   2.776  1.2984 -0.7637  0.6970
  500MOL0     C67425   4.192   6.420   2.902  0.2294 -0.2575  0.3953
  500MOL0     C67426   4.080   6.518   2.865  0.6325 -0.1040  0.2603
  500MOL0     C67427   4.003   6.584   2.979 -0.8512  0.7998  0.0889
  500MOL0     C67428   3.877   6.641   2.947 -0.2543 -0.0776 -0.7962
  500MOL0     C67429   3.773   6.684   2.910 -0.1202  0.1585 -0.0374
  500MOL0     C67430   4.512   6.438   2.840 -0.4596  0.4191  0.0520
  500MOL0     C67431   4.645   6.475   2.870 -0.1962  0.3075  0.3241
  500MOL0     C67432   4.674   6.630   2.887  0.3152 -0.0625  1.2563
  500MOL0     H67433   5.129   6.214   3.073 -1.8717 -0.2550 -1.8997
  500MOL0     H67434   5.359   6.290   3.143  0.0253  1.8987  1.4137
  500MOL0     H67435   5.701   6.451   3.047 -0.8044  2.5146  1.3696
  500MOL0     H67436   5.592   6.334   3.118  1.4238 -0.4686 -0.3174
  500MOL0     H67437   5.594   6.421   2.832 -0.1790 -1.9076 -2.5463
  500MOL0     H67438   5.499   6.286   2.882 -0.3993  0.2880  0.5640
  500MOL0     H67439   5.706   6.148   2.924 -3.2240 -0.7067 -2.6475
  500MOL0     H67440   5.807   6.288   2.917 -0.5226 -1.0883  2.3339
  500MOL0     H67441   5.776   6.103   2.731  2.7204  0.2610  0.2298
  500MOL0     H67442   5.643   6.205   2.676 -1.1051 -1.6869  3.0839
  500MOL0     H67443   5.803   6.323   2.558  0.0880 -4.1266 -0.6019
  500MOL0     H67444   5.864   6.387   2.711 -0.3295  0.2588  0.8950
  500MOL0     H67445   6.023   6.207   2.729  1.1152 -0.3072 -0.1458
  500MOL0     H67446   5.962   6.113   2.602  1.1336 -1.4088  1.7336
  500MOL0     H67447   6.014   6.296   2.434 -2.5587 -1.2866  0.1429
  500MOL0     H67448   6.169   6.252   2.509  0.1445  0.4178  0.6935
  500MOL0     H67449   6.011   6.502   2.572  0.5377  2.2643  0.5665
  500MOL0     H67450   6.143   6.434   2.674 -0.8385  2.3746 -0.1288
  500MOL0     H67451   6.190   6.432   2.276 -0.1098  2.9084 -2.6165
  500MOL0     H67452   6.388   6.604   2.131 -0.9261  0.8848 -0.2928
  500MOL0     H67453   6.497   6.686   2.242  0.8797 -0.8566 -1.6050
  500MOL0     H67454   6.639   6.519   2.268  1.1694  0.5960 -1.5509
  500MOL0     H67455   6.520   6.384   2.230  0.9289 -0.8421 -1.5229
  500MOL0     H67456   6.559   6.424   1.985 -1.8065  1.2895 -0.2171
  500MOL0     H67457   6.708   6.402   2.079 -1.8620 -1.8930  1.4902
  500MOL0     H67458   6.584   6.677   2.009  1.3965  1.2604 -0.6397
  500MOL0     H67459   6.705   6.608   1.914  3.6148  0.1918  1.1714
  500MOL0     H67460   6.902   6.539   1.911  2.3611 -3.1164 -0.6174
  500MOL0     H67461   7.150   6.510   1.904 -0.4947  2.4010 -1.1726
  500MOL0     H67462   7.502   6.339   1.893 -1.9394  0.1898  0.8776
  500MOL0     H67463   7.743   6.336   1.805  0.4372 -0.0996  0.0692
  500MOL0     H67464   7.849   6.519   1.641  2.1668  2.8337 -1.2446
  500MOL0     H67465   7.980   6.614   1.659 -1.5040  0.2388 -0.9700
  500MOL0     H67466   7.977   6.307   1.709 -0.7529  1.7041  2.3628
  500MOL0     H67467   8.033   6.383   1.561 -0.2566 -2.3717  0.5636
  500MOL0     H67468   8.179   6.452   1.819  0.2475 -1.7175  1.5022
  500MOL0     H67469   8.206   6.298   1.726 -0.2926  0.5860  1.7766
  500MOL0     H67470   8.260   6.581   1.625 -1.0239 -0.5976 -0.3059
  500MOL0     H67471   8.281   6.431   1.531 -2.8248 -0.1525  0.4485
  500MOL0     H67472   8.432   6.357   1.734 -1.1434 -0.8019 -1.3126
  500MOL0     H67473   8.434   6.529   1.776 -0.0149 -1.4178 -0.7567
  500MOL0     H67474   8.539   6.593   1.571  4.4359  1.0614  2.9015
  500MOL0     H67475   8.640   6.473   1.666  1.1454 -2.2564 -2.2799
  500MOL0     H67476   8.465   6.398   1.430 -0.3208 -0.7545 -0.3482
  500MOL0     H67477   8.559   6.298   1.530 -1.2153 -0.5344 -0.5241
  500MOL0     H67478   8.637   6.378   1.296 -2.5611 -2.8169  3.2945
  500MOL0     H67479   8.683   6.535   1.369  0.3867 -0.1980 -2.0882
  500MOL0     H67480   7.785   6.744   1.972 -1.7005  0.3748  2.3553
  500MOL0     H67481   7.568   6.728   2.052 -1.6833  1.2417 -2.0557
  500MOL0     H67482   7.155   6.671   2.299 -3.0871 -1.1191  2.6502
  500MOL0     H67483   6.928   6.697   2.307  1.2247 -0.1782  0.0929
  500MOL0     H67484   5.344   6.623   2.872  0.2607 -0.3632 -2.7367
  500MOL0     H67485   5.129   6.533   2.789  0.5582  1.0011  0.5602
  500MOL0     H67486   4.787   6.166   2.878 -1.9885 -1.4949  0.7115
  500MOL0     H67487   4.573   6.100   2.820 -0.9218 -0.4039  1.6085
  500MOL0     H67488   4.156   6.277   2.742  1.0519 -0.6826  1.1640
  500MOL0     H67489   4.264   6.395   2.686  0.5680 -2.7571 -0.8367
  500MOL0     H67490   4.277   6.471   2.949  2.3691 -3.5378  0.4657
  500MOL0     H67491   4.162   6.346   2.977  1.9120  1.0256  2.4849
  500MOL0     H67492   4.004   6.462   2.809  1.6855 -0.3033 -1.0120
  500MOL0     H67493   4.116   6.586   2.787 -1.5303  1.5224  0.5681
  500MOL0     H67494   3.996   6.503   3.053  0.4509 -0.0236 -0.6342
  500MOL0     H67495   4.071   6.654   3.028 -1.5975  0.8053  1.1453
  500MOL0     H67496   3.690   6.733   2.863  2.0502 -0.1452 -4.7222
  500MOL0     H67497   4.438   6.518   2.840 -2.4972 -1.3503  1.6822
  500MOL0     H67498   4.775   6.650   2.851 -0.7525 -1.6356 -3.2707
  500MOL0     H67499   4.607   6.679   2.816  2.1007  1.9391  0.8640
  500MOL0     H67500   4.656   6.654   2.992  0.2657  1.6559  0.8803
  501MOL0     O67501  10.975   9.376   6.801  0.6477 -1.1140  0.2503
  501MOL0     C67502  11.052   9.452   6.749 -0.0399  0.1500 -0.0735
  501MOL0     O67503  11.022   9.536   6.645  0.3974 -0.2790  0.3893
  501MOL0     C67504  10.889   9.550   6.623  0.1694  0.2457  0.5218
  501MOL0     C67505  10.795   9.616   6.706 -0.5721 -0.7188 -1.1674
  501MOL0     C67506  10.669   9.640   6.651 -0.5278  0.5542  0.2716
  501MOL0     C67507  10.634   9.586   6.529 -0.5391 -1.3553  0.0401
  501MOL0     O67508  10.520   9.627   6.463  0.1238 -0.0582 -0.1361
  501MOL0     C67509  10.402   9.548   6.492  0.0902 -0.7879  0.3217
  501MOL0     C67510  10.285   9.652   6.514 -0.2687 -0.6175  0.2593
  501MOL0     C67511  10.158   9.566   6.501  0.2877  0.2594 -0.1881
  501MOL0     C67512  10.036   9.651   6.532 -0.2126  0.0616  0.4789
  501MOL0     C67513   9.910   9.568   6.526  0.0729 -0.1276  0.5534
  501MOL0     C67514   9.797   9.652   6.571 -0.2224 -0.5005 -0.0509
  501MOL0     C67515   9.669   9.569   6.585  0.3693  0.1997  0.3885
  501MOL0     C67516   9.532   9.648   6.626 -0.2100 -0.2247  0.5419
  501MOL0     N67517   9.422   9.552   6.654 -0.4696  0.4528  0.2694
  501MOL0     C67518   9.407   9.483   6.770  0.4710  0.5916 -0.5632
  501MOL0     C67519   9.315   9.388   6.746 -0.0839  0.6540  0.4501
  501MOL0     C67520   9.286   9.271   6.837  0.1001 -0.2358  0.5531
  501MOL0     C67521   9.394   9.217   6.932 -0.6579  0.5597  0.1234
  501MOL0     C67522   9.479   9.108   6.874 -0.3935  0.3723 -0.1380
  501MOL0     C67523   9.591   9.168   6.779 -0.2451 -0.0017  0.3260
  501MOL0     O67524   9.681   9.254   6.859  0.1096  0.5882  0.4542
  501MOL0     C67525   9.813   9.226   6.848 -0.3944 -0.4496  0.6815
  501MOL0     C67526   9.896   9.204   6.958 -0.9846  0.9580  0.5824
  501MOL0     C67527  10.031   9.182   6.950  0.6766 -0.1150 -0.0399
  501MOL0     C67528  10.091   9.193   6.818 -0.2297  0.2528 -0.4633
  501MOL0     C67529  10.237   9.190   6.798  0.4256  0.1324 -0.0764
  501MOL0     O67530  10.272   9.219   6.669  0.1907  0.9173 -0.3262
  501MOL0     C67531  10.404   9.200   6.647 -0.7781  0.7681  0.8635
  501MOL0     C67532  10.431   9.121   6.531  0.7395 -0.8473 -0.3041
  501MOL0     C67533  10.565   9.086   6.501 -0.3476  1.0466 -0.3630
  501MOL0     C67534  10.672   9.143   6.576  0.0652  0.1010  0.3669
  501MOL0     O67535  10.802   9.099   6.538  0.8660  0.5819  0.3785
  501MOL0     C67536  10.901   9.082   6.635 -1.0804  0.1677 -0.0029
  501MOL0     C67537  11.009   8.984   6.598 -0.2781  0.4204  0.7474
  501MOL0     C67538  11.100   8.952   6.723  0.0742  0.3985  0.8346
  501MOL0     C67539  11.216   8.857   6.707 -0.0334 -0.2746  1.0806
  501MOL0     C67540  11.301   8.852   6.827  0.3705 -0.3902  0.8142
  501MOL0     C67541  11.398   8.728   6.818 -0.2993  0.0233 -0.1225
  501MOL0     C67542  11.516   8.742   6.718  0.2075  0.2378 -0.9604
  501MOL0     C67543  11.626   8.832   6.774 -0.1407 -0.4320 -0.6584
  501MOL0    Cl67544  11.785   8.804   6.685  0.1626  0.3273 -0.1658
  501MOL0     C67545  10.640   9.234   6.674  1.2525  0.4275 -0.8968
  501MOL0     C67546  10.513   9.256   6.717  0.7885  0.6490 -0.4199
  501MOL0     O67547  10.307   9.161   6.886  0.5011  0.3473  0.6944
  501MOL0     C67548  10.003   9.194   6.706 -0.1155  0.0394  0.6540
  501MOL0     C67549   9.863   9.223   6.715 -0.4613 -0.3358 -1.1511
  501MOL0     N67550   9.274   9.405   6.614 -0.5801  0.0933 -0.3062
  501MOL0     N67551   9.348   9.500   6.555  0.1265  0.0963 -0.6234
  501MOL0     C67552  10.724   9.510   6.452  0.3720 -0.3364 -0.6215
  501MOL0     C67553  10.848   9.476   6.506  0.3419 -0.7588 -0.2451
  501MOL0     C67554  11.202   9.445   6.785 -0.5255  0.3621 -0.9039
  501MOL0     C67555  11.240   9.338   6.872 -0.2495 -0.2180  0.5085
  501MOL0     C67556  11.370   9.328   6.923  1.0383 -0.7829 -1.5320
  501MOL0     C67557  11.458   9.434   6.891 -0.1301  0.6058  0.0761
  501MOL0     O67558  11.588   9.437   6.942  0.4387 -0.9131 -0.3869
  501MOL0     C67559  11.625   9.323   7.022  0.3815 -0.4073  0.3725
  501MOL0     C67560  11.777   9.320   7.047  0.7985  0.3837 -0.3296
  501MOL0     C67561  11.815   9.236   7.172  0.0522  0.6782 -0.5756
  501MOL0     C67562  11.953   9.176   7.155 -1.5547 -0.6529  0.1691
  501MOL0     C67563  11.956   9.054   7.077 -0.1489 -0.4514 -0.7870
  501MOL0     C67564  11.961   8.942   7.028  0.2953  0.3347 -0.0442
  501MOL0     C67565  11.421   9.544   6.817 -0.2682  0.1541  0.3310
  501MOL0     C67566  11.299   9.546   6.750  0.8318 -0.4696 -0.2131
  501MOL0     C67567  11.262   9.664   6.670 -0.7793  0.3638  0.0051
  501MOL0     H67568  10.835   9.653   6.799 -0.5714 -4.7517  0.6705
  501MOL0     H67569  10.597   9.699   6.706 -0.8503 -0.5708  1.0972
  501MOL0     H67570  10.373   9.484   6.408 -0.9285  0.2007 -0.1043
  501MOL0     H67571  10.414   9.496   6.587 -0.2159 -2.2218 -0.3979
  501MOL0     H67572  10.296   9.727   6.435  0.4528 -2.6366 -1.6700
  501MOL0     H67573  10.298   9.707   6.607  0.3847  1.9520 -1.2734
  501MOL0     H67574  10.176   9.481   6.567  0.7096 -0.4651 -1.2075
  501MOL0     H67575  10.142   9.525   6.400 -0.8456  2.1583 -0.8399
  501MOL0     H67576  10.042   9.695   6.632 -1.5006 -0.4303  0.7889
  501MOL0     H67577  10.022   9.738   6.467  0.9118  2.1639  2.8877
  501MOL0     H67578   9.891   9.543   6.421 -1.7221  1.0854  0.5275
  501MOL0     H67579   9.926   9.484   6.594  0.8046 -0.7951 -0.4286
  501MOL0     H67580   9.817   9.704   6.665  0.9395  0.1710 -0.6504
  501MOL0     H67581   9.782   9.731   6.496  1.9817 -1.4560 -1.6025
  501MOL0     H67582   9.689   9.499   6.666  2.6996 -0.7859 -0.9415
  501MOL0     H67583   9.647   9.518   6.491 -2.2779 -0.0883  1.0850
  501MOL0     H67584   9.556   9.707   6.715  3.6230  0.0484 -0.4820
  501MOL0     H67585   9.512   9.713   6.541  0.3609  1.0836  1.3592
  501MOL0     H67586   9.458   9.497   6.864  2.1176 -0.5209 -1.2397
  501MOL0     H67587   9.199   9.296   6.899  0.1353  0.4161  0.3413
  501MOL0     H67588   9.253   9.189   6.772  1.8678 -1.3055  0.9258
  501MOL0     H67589   9.456   9.301   6.966  1.7352 -0.1152 -2.2641
  501MOL0     H67590   9.335   9.181   7.017  0.1576 -0.5157  0.2492
  501MOL0     H67591   9.422   9.030   6.823  1.1657 -1.3033  0.5593
  501MOL0     H67592   9.534   9.064   6.957  0.3795  2.0693  0.3023
  501MOL0     H67593   9.549   9.229   6.699  0.6422 -0.1759 -0.2844
  501MOL0     H67594   9.643   9.085   6.730  0.4655  0.3883  0.4179
  501MOL0     H67595   9.840   9.196   7.051  0.9016  2.8788  1.9844
  501MOL0     H67596  10.085   9.178   7.043  0.2508 -0.7066  0.1862
  501MOL0     H67597  10.355   9.092   6.459 -1.8915 -0.9163  2.2819
  501MOL0     H67598  10.585   9.024   6.414  2.1305  1.9810 -0.5648
  501MOL0     H67599  10.940   9.184   6.648  1.1620 -0.4284 -1.4223
  501MOL0     H67600  10.864   9.045   6.731 -1.3551 -4.3097 -1.5908
  501MOL0     H67601  10.954   8.899   6.559  0.3383 -0.0787  0.9563
  501MOL0     H67602  11.061   9.033   6.515 -1.6268  0.8789  0.1359
  501MOL0     H67603  11.135   9.047   6.764 -3.7256  1.3678  2.2774
  501MOL0     H67604  11.035   8.909   6.800 -0.8466  1.3330  0.5959
  501MOL0     H67605  11.276   8.897   6.624 -1.0806 -2.9762 -1.1544
  501MOL0     H67606  11.167   8.763   6.679 -1.2310 -0.2079  2.8162
  501MOL0     H67607  11.249   8.840   6.923  1.6325  3.1848  2.1333
  501MOL0     H67608  11.364   8.941   6.837 -0.9961  0.4370  2.6279
  501MOL0     H67609  11.452   8.718   6.912  1.5492  0.1434 -1.1276
  501MOL0     H67610  11.331   8.645   6.795 -1.3197  0.5022  1.0120
  501MOL0     H67611  11.478   8.791   6.628 -0.6753  0.8374 -0.2718
  501MOL0     H67612  11.558   8.644   6.694 -1.9520 -0.7580 -0.8854
  501MOL0     H67613  11.589   8.932   6.750 -0.6375  0.5808  3.5120
  501MOL0     H67614  11.630   8.830   6.884  1.3680 -2.4295 -0.6935
  501MOL0     H67615  10.719   9.274   6.737 -0.3536  1.5202  0.4886
  501MOL0     H67616  10.480   9.318   6.800 -0.0738 -2.3161  1.6081
  501MOL0     H67617  10.045   9.183   6.607  1.1290  0.2466  1.1365
  501MOL0     H67618   9.802   9.214   6.625  1.4873 -1.4737 -2.4236
  501MOL0     H67619  10.690   9.487   6.351 -1.2312  0.0993 -0.2119
  501MOL0     H67620  10.915   9.421   6.440  0.3653  2.4645 -3.1783
  501MOL0     H67621  11.181   9.251   6.897  1.7856 -1.5714  0.7842
  501MOL0     H67622  11.401   9.246   6.988 -0.2479  1.1960  1.8470
  501MOL0     H67623  11.589   9.234   6.971 -4.0866  0.9005  0.8055
  501MOL0     H67624  11.575   9.327   7.120 -0.9477  0.4219 -0.3041
  501MOL0     H67625  11.817   9.421   7.062  0.5303  0.7075 -1.6436
  501MOL0     H67626  11.835   9.282   6.962  2.1160 -1.1230  1.1759
  501MOL0     H67627  11.738   9.163   7.196  2.8339 -2.1074  0.5786
  501MOL0     H67628  11.829   9.306   7.255  0.1091  0.4796 -0.4178
  501MOL0     H67629  12.013   9.251   7.104 -3.3312 -0.4563 -1.8055
  501MOL0     H67630  11.978   9.168   7.261 -1.0187  0.0422  0.0969
  501MOL0     H67631  11.989   8.846   6.988 -1.1746 -1.8132  3.6467
  501MOL0     H67632  11.483   9.630   6.794 -0.4183 -0.1585 -1.3569
  501MOL0     H67633  11.188   9.726   6.721 -0.3863  3.1486 -2.5827
  501MOL0     H67634  11.353   9.721   6.649 -0.8349 -0.4494 -2.7165
  501MOL0     H67635  11.215   9.650   6.573  0.6426 -1.9791 -0.4174
  502MOL0     O67636   4.894   5.436   9.358  0.7999  0.1320 -0.3350
  502MOL0     C67637   4.999   5.444   9.296  0.5400  0.1944 -0.7504
  502MOL0     O67638   5.016   5.451   9.155  0.2780 -0.0054 -0.8514
  502MOL0     C67639   4.901   5.458   9.081  0.1408 -0.6216  0.1315
  502MOL0     C67640   4.847   5.579   9.035  0.1088 -0.5853 -0.3481
  502MOL0     C67641   4.748   5.579   8.934 -0.9868 -0.3811  0.1330
  502MOL0     C67642   4.684   5.462   8.896 -0.3633 -0.8910  0.7089
  502MOL0     O67643   4.589   5.480   8.798 -0.1902 -0.5886 -0.6843
  502MOL0     C67644   4.612   5.417   8.674  0.5094 -0.0496 -0.0419
  502MOL0     C67645   4.534   5.290   8.672  0.6871  0.6076  0.3238
  502MOL0     C67646   4.383   5.304   8.660  0.2770 -0.5935 -0.0471
  502MOL0     C67647   4.319   5.165   8.636 -0.2147  0.8620  0.9562
  502MOL0     C67648   4.174   5.178   8.582  0.4045 -0.6749  0.1502
  502MOL0     C67649   4.113   5.047   8.573 -0.1171  0.4649 -0.0742
  502MOL0     C67650   3.976   5.050   8.497  0.0050 -0.1807 -0.4302
  502MOL0     C67651   3.898   4.922   8.534 -0.2737  0.0183 -0.7103
  502MOL0     N67652   3.829   4.932   8.665  0.0647  0.9931 -0.3942
  502MOL0     C67653   3.699   4.904   8.677 -0.4281  0.5859 -0.5278
  502MOL0     C67654   3.673   4.868   8.805 -0.4808 -1.1801 -0.1034
  502MOL0     C67655   3.536   4.824   8.863  0.1996 -0.0235 -0.3814
  502MOL0     C67656   3.540   4.686   8.924 -0.6794  0.4599 -0.4929
  502MOL0     C67657   3.611   4.573   8.845 -0.3621 -0.2955  0.1178
  502MOL0     C67658   3.522   4.546   8.722  0.5749 -0.0333  0.8236
  502MOL0     O67659   3.553   4.430   8.640  0.0210 -0.1335  0.8393
  502MOL0     C67660   3.680   4.415   8.596 -0.7485 -0.4300  0.3388
  502MOL0     C67661   3.741   4.294   8.622  1.1805 -0.7995  0.4422
  502MOL0     C67662   3.866   4.266   8.569  0.2051  0.0768 -0.1326
  502MOL0     C67663   3.933   4.359   8.487 -0.1015 -0.2550  0.0200
  502MOL0     C67664   4.062   4.326   8.431 -0.0325 -1.5064  0.3003
  502MOL0     O67665   4.114   4.216   8.482  0.0966 -0.0924 -0.7646
  502MOL0     C67666   4.227   4.174   8.421  0.8351 -0.8171 -0.4706
  502MOL0     C67667   4.354   4.203   8.475  0.4063  0.8990 -0.0385
  502MOL0     C67668   4.473   4.160   8.412 -0.0840 -0.0334  0.2492
  502MOL0     C67669   4.469   4.086   8.289 -0.1835 -0.7160  0.4726
  502MOL0     O67670   4.582   4.060   8.216  0.2478  0.2800  0.1362
  502MOL0     C67671   4.607   4.140   8.099 -0.1751 -0.0279 -0.1064
  502MOL0     C67672   4.665   4.273   8.138  0.4933  0.8535 -0.3851
  502MOL0     C67673   4.803   4.257   8.205 -0.1614  0.1921  0.2688
  502MOL0     C67674   4.886   4.384   8.218 -0.3744 -0.7061 -0.8098
  502MOL0     C67675   5.029   4.360   8.285 -0.0567  0.5954 -0.4369
  502MOL0     C67676   5.133   4.358   8.177 -0.1066 -1.1884 -0.4938
  502MOL0     C67677   5.275   4.402   8.226  0.1061 -0.3902 -0.6388
  502MOL0     C67678   5.360   4.406   8.106 -0.4166 -0.0338  0.0147
  502MOL0    Cl67679   5.529   4.419   8.175 -0.2589  0.0824  0.4874
  502MOL0     C67680   4.342   4.063   8.235 -0.5086 -1.2954  0.3218
  502MOL0     C67681   4.225   4.111   8.294  0.0473  0.1742  0.3075
  502MOL0     O67682   4.119   4.391   8.341  0.6227  0.3130 -0.2322
  502MOL0     C67683   3.866   4.476   8.457 -0.4671  0.2953  0.3236
  502MOL0     C67684   3.742   4.500   8.506  0.1745 -0.0614  0.0439
  502MOL0     N67685   3.798   4.878   8.868  1.5946  0.1934 -0.5899
  502MOL0     N67686   3.886   4.906   8.786 -0.0312  0.3673  0.1003
  502MOL0     C67687   4.709   5.345   8.961  0.5015  0.0572  0.2914
  502MOL0     C67688   4.826   5.337   9.046  0.2836  0.8718  0.5279
  502MOL0     C67689   5.124   5.435   9.374 -0.0277 -0.3429 -0.7547
  502MOL0     C67690   5.199   5.315   9.357 -0.9300 -0.4370  0.1483
  502MOL0     C67691   5.322   5.300   9.428  0.1486  0.1154  0.6853
  502MOL0     C67692   5.364   5.408   9.511 -0.7797  0.3514  0.8027
  502MOL0     O67693   5.482   5.378   9.571 -0.2223  0.1150 -0.1419
  502MOL0     C67694   5.578   5.483   9.613  0.3686  0.6918  0.2425
  502MOL0     C67695   5.621   5.558   9.477 -0.5416 -0.0299 -0.0177
  502MOL0     C67696   5.701   5.460   9.374  0.6211  0.4094 -0.0532
  502MOL0     C67697   5.711   5.532   9.239  0.2511 -1.2461 -0.0821
  502MOL0     C67698   5.811   5.632   9.241 -0.4944  0.2577 -0.7097
  502MOL0     C67699   5.904   5.715   9.233 -0.0918 -0.2415 -0.0501
  502MOL0     C67700   5.279   5.512   9.539 -0.3342 -0.2194 -0.1493
  502MOL0     C67701   5.155   5.527   9.477 -0.5226  0.1321  0.2890
  502MOL0     C67702   5.057   5.633   9.519  0.4626 -0.3579  0.3156
  502MOL0     H67703   4.892   5.671   9.069 -1.7182  0.1478  0.1428
  502MOL0     H67704   4.713   5.675   8.897  0.6369 -0.3408 -1.4345
  502MOL0     H67705   4.571   5.479   8.594  1.0402 -0.0974 -0.3589
  502MOL0     H67706   4.716   5.413   8.642  0.4373  0.3179 -0.3304
  502MOL0     H67707   4.566   5.220   8.750  0.3369 -0.4964 -0.4942
  502MOL0     H67708   4.572   5.251   8.578  0.9795  1.4451  0.0835
  502MOL0     H67709   4.368   5.368   8.572 -0.2558  0.9189  1.0873
  502MOL0     H67710   4.331   5.353   8.743 -1.0568 -1.5223 -0.3145
  502MOL0     H67711   4.385   5.105   8.573 -0.3888  2.6948 -1.1327
  502MOL0     H67712   4.309   5.109   8.729 -5.7739 -1.8369 -0.8242
  502MOL0     H67713   4.116   5.242   8.648  3.2133 -0.8171  2.9841
  502MOL0     H67714   4.173   5.231   8.486 -1.3210  0.4005  0.7273
  502MOL0     H67715   4.181   4.973   8.531 -1.5039 -0.6912 -0.3463
  502MOL0     H67716   4.096   5.012   8.675 -2.9077 -2.1060 -1.2610
  502MOL0     H67717   4.012   5.054   8.394  0.2251 -0.3089 -0.3582
  502MOL0     H67718   3.923   5.145   8.503 -0.2158 -0.3041 -0.4301
  502MOL0     H67719   3.827   4.908   8.452  2.5787  0.8054 -3.4892
  502MOL0     H67720   3.959   4.831   8.543 -0.7615 -0.2597 -0.1446
  502MOL0     H67721   3.618   4.915   8.605 -0.0812 -1.0768 -1.1937
  502MOL0     H67722   3.516   4.896   8.943  1.3306  0.8263 -0.8386
  502MOL0     H67723   3.454   4.825   8.791  1.9363 -1.4898 -2.5030
  502MOL0     H67724   3.604   4.696   9.013  0.5698 -0.0650 -1.3017
  502MOL0     H67725   3.448   4.640   8.961  1.0397 -1.9808  1.0743
  502MOL0     H67726   3.627   4.488   8.911  1.7178  1.5868  2.2370
  502MOL0     H67727   3.711   4.596   8.806 -0.0010 -2.0200 -0.0549
  502MOL0     H67728   3.529   4.638   8.662 -1.6036 -0.6502 -0.4734
  502MOL0     H67729   3.421   4.530   8.760  0.8566 -1.0324  1.1706
  502MOL0     H67730   3.689   4.228   8.690 -3.0497  2.9273  1.2597
  502MOL0     H67731   3.899   4.164   8.589 -1.0735 -0.1624  0.8866
  502MOL0     H67732   4.346   4.262   8.566  2.0765  5.5053 -2.5613
  502MOL0     H67733   4.574   4.185   8.446  1.2067 -2.4554 -1.5097
  502MOL0     H67734   4.671   4.085   8.030 -1.2867 -1.4101 -0.0794
  502MOL0     H67735   4.515   4.151   8.041  0.2829  2.1494 -0.5255
  502MOL0     H67736   4.654   4.342   8.055 -1.0097  0.2455 -0.7248
  502MOL0     H67737   4.586   4.310   8.205 -1.1222 -0.2847 -1.5685
  502MOL0     H67738   4.788   4.236   8.311  4.2085  0.1775  1.0972
  502MOL0     H67739   4.865   4.171   8.179 -0.2113  1.0409 -3.1360
  502MOL0     H67740   4.828   4.453   8.279  0.3825 -0.7527 -0.0147
  502MOL0     H67741   4.887   4.433   8.121  0.5730  3.9299  1.2652
  502MOL0     H67742   5.033   4.271   8.348  0.5415  2.4541  2.3444
  502MOL0     H67743   5.053   4.429   8.367 -0.4802 -1.2776  1.3356
  502MOL0     H67744   5.154   4.260   8.134  2.6581 -0.1118 -1.8077
  502MOL0     H67745   5.094   4.420   8.095 -0.5762  0.1962  0.7266
  502MOL0     H67746   5.309   4.325   8.296 -1.1652  0.4750  1.0221
  502MOL0     H67747   5.272   4.498   8.278  2.1898 -0.3867 -0.4678
  502MOL0     H67748   5.365   4.318   8.041  3.2459  2.0559 -3.0013
  502MOL0     H67749   5.341   4.487   8.035  1.8153  0.5660  0.0086
  502MOL0     H67750   4.335   4.012   8.139 -0.3312  0.4744 -0.6863
  502MOL0     H67751   4.136   4.088   8.237  1.7407  0.7523 -2.8401
  502MOL0     H67752   3.914   4.554   8.398 -1.5416  0.5153 -0.2787
  502MOL0     H67753   3.701   4.595   8.476  0.8804  0.2421  0.0131
  502MOL0     H67754   4.641   5.263   8.939  0.0094  0.9547 -1.7573
  502MOL0     H67755   4.855   5.241   9.088 -1.2345  0.7187  1.2912
  502MOL0     H67756   5.168   5.243   9.282  0.8991  0.8622 -1.9641
  502MOL0     H67757   5.392   5.218   9.415 -1.1131 -0.8178 -0.5275
  502MOL0     H67758   5.667   5.431   9.649 -1.4076 -1.2722  2.0414
  502MOL0     H67759   5.539   5.558   9.682 -0.7912  0.3261  0.0098
  502MOL0     H67760   5.685   5.642   9.507 -0.8026 -0.0515  0.6095
  502MOL0     H67761   5.529   5.601   9.437 -0.6001 -1.2416 -1.2769
  502MOL0     H67762   5.641   5.371   9.358  0.5137  0.4756 -0.0184
  502MOL0     H67763   5.797   5.432   9.418  1.9109  2.6117 -1.2764
  502MOL0     H67764   5.735   5.455   9.164  2.6702 -0.1395 -0.5411
  502MOL0     H67765   5.614   5.575   9.214 -0.2867 -2.4573 -0.1678
  502MOL0     H67766   5.993   5.775   9.230 -0.1256 -0.2146 -1.0854
  502MOL0     H67767   5.307   5.580   9.619 -1.7039  0.0934  0.0977
  502MOL0     H67768   5.013   5.680   9.430  0.2417 -0.7220  0.2295
  502MOL0     H67769   4.977   5.582   9.574  0.4226  0.3444  0.9160
  502MOL0     H67770   5.110   5.707   9.578  1.2730  0.1740 -1.0395
  503MOL0     O67771   5.058   2.483   2.306 -0.2443 -0.7616  0.5850
  503MOL0     C67772   4.993   2.581   2.261 -0.8044 -0.1285 -0.3589
  503MOL0     O67773   5.050   2.704   2.232  0.0626 -0.3384 -0.8301
  503MOL0     C67774   5.172   2.745   2.271  0.2638  1.2752 -0.6138
  503MOL0     C67775   5.179   2.778   2.409 -0.8783  0.4378  0.3811
  503MOL0     C67776   5.304   2.823   2.456 -0.0413  0.0026  0.1521
  503MOL0     C67777   5.415   2.830   2.371 -0.0202 -0.3950 -0.7749
  503MOL0     O67778   5.527   2.882   2.434  0.1402  0.2974  0.3010
  503MOL0     C67779   5.655   2.873   2.370 -0.0261 -0.4924  0.6633
  503MOL0     C67780   5.686   2.992   2.264  1.0100 -0.5778  0.0469
  503MOL0     C67781   5.825   2.970   2.207 -0.4059  0.2839 -0.3334
  503MOL0     C67782   5.876   3.096   2.129  0.1205 -0.2248 -0.2665
  503MOL0     C67783   6.004   3.063   2.060  0.2482 -0.4448 -0.1797
  503MOL0     C67784   6.105   2.984   2.134 -0.2367  0.3204  0.5160
  503MOL0     C67785   6.239   3.008   2.067 -0.0461 -0.1937  0.0562
  503MOL0     C67786   6.357   2.948   2.129 -0.3276  0.6773  0.7647
  503MOL0     N67787   6.472   2.928   2.033  0.0414  0.0611 -0.2271
  503MOL0     C67788   6.521   3.012   1.939  0.0474  0.8261 -0.2731
  503MOL0     C67789   6.637   2.957   1.899 -0.7026  0.0275  0.1077
  503MOL0     C67790   6.733   3.008   1.790  0.9450  0.2592  0.7449
  503MOL0     C67791   6.866   3.065   1.848 -0.2368  0.0707 -0.8940
  503MOL0     C67792   6.967   3.105   1.732 -0.7980  0.7348 -0.3257
  503MOL0     C67793   7.113   3.120   1.775  0.0966  0.1230  0.0210
  503MOL0     O67794   7.107   3.207   1.889  0.0664  0.7151 -0.4433
  503MOL0     C67795   7.235   3.240   1.927  0.2522 -0.7718 -0.4435
  503MOL0     C67796   7.362   3.201   1.882 -0.0264  0.2179  0.3354
  503MOL0     C67797   7.485   3.259   1.933 -0.2100 -0.0160  0.0713
  503MOL0     C67798   7.480   3.372   2.021  0.1120  0.6903 -0.4816
  503MOL0     C67799   7.606   3.447   2.072  0.3926  0.2626 -0.1062
  503MOL0     O67800   7.728   3.390   2.076  0.2612  0.7009  0.5932
  503MOL0     C67801   7.839   3.465   2.104  0.4564 -0.4399  0.2856
  503MOL0     C67802   7.856   3.585   2.025  0.1384 -0.0337 -0.1102
  503MOL0     C67803   7.980   3.649   2.026 -0.0128  0.8094 -0.1594
  503MOL0     C67804   8.086   3.598   2.101  0.2208 -0.2665  0.0147
  503MOL0     O67805   8.217   3.651   2.107  0.3376 -0.7811 -0.2401
  503MOL0     C67806   8.236   3.783   2.063 -0.4396  0.6111 -0.1655
  503MOL0     C67807   8.354   3.846   2.131  0.3634 -0.4708  0.4484
  503MOL0     C67808   8.406   3.974   2.053 -0.0368  0.5590 -0.7848
  503MOL0     C67809   8.525   4.043   2.114  0.9163 -0.3194  0.0741
  503MOL0     C67810   8.553   4.189   2.049 -1.0068  0.3245  0.0479
  503MOL0     C67811   8.616   4.197   1.901  0.8057 -0.1310 -0.8961
  503MOL0     C67812   8.764   4.149   1.900 -0.0224 -0.3067 -0.1574
  503MOL0     C67813   8.851   4.195   1.771 -0.0507 -0.6089  0.4613
  503MOL0    Cl67814   8.813   4.123   1.617 -0.0632 -0.4029 -0.0777
  503MOL0     C67815   8.067   3.490   2.184  0.0351  0.0747  0.8650
  503MOL0     C67816   7.946   3.426   2.186 -0.4415  0.3701 -0.2934
  503MOL0     O67817   7.578   3.560   2.106 -0.0865 -0.2412  0.2194
  503MOL0     C67818   7.360   3.403   2.072  0.7122  0.1191 -0.0737
  503MOL0     C67819   7.244   3.338   2.035  0.6072  0.4858  0.0840
  503MOL0     N67820   6.650   2.832   1.957 -0.2887  0.1728  0.3360
  503MOL0     N67821   6.545   2.815   2.038  0.3635 -0.1584  0.7691
  503MOL0     C67822   5.400   2.798   2.238 -0.3163 -0.2485 -0.4606
  503MOL0     C67823   5.285   2.738   2.183  0.1482 -0.7155 -0.3257
  503MOL0     C67824   4.849   2.572   2.232 -1.0998 -0.2297  0.3731
  503MOL0     C67825   4.800   2.661   2.131 -0.2174  0.4991 -0.5282
  503MOL0     C67826   4.669   2.641   2.084  0.2818 -0.2886  0.7840
  503MOL0     C67827   4.583   2.551   2.132  0.2067  0.1840 -0.3589
  503MOL0     O67828   4.465   2.541   2.065 -0.5517  0.3625  0.6169
  503MOL0     C67829   4.366   2.441   2.091  0.4001 -0.0765 -0.0152
  503MOL0     C67830   4.230   2.515   2.052 -0.5713 -0.6819 -0.3424
  503MOL0     C67831   4.219   2.568   1.905  0.5536  0.6173  0.5233
  503MOL0     C67832   4.078   2.621   1.884 -0.0825  0.1553  0.3714
  503MOL0     C67833   3.957   2.548   1.911 -0.5420  0.4611 -0.8211
  503MOL0     C67834   3.854   2.483   1.936 -0.5175 -0.2041  0.0362
  503MOL0     C67835   4.625   2.482   2.244  0.2182  0.0891 -0.8661
  503MOL0     C67836   4.757   2.486   2.293 -0.1750 -0.2940  0.5192
  503MOL0     C67837   4.801   2.396   2.407 -0.1094 -0.1027 -1.0790
  503MOL0     H67838   5.090   2.763   2.470 -1.0654  1.7167  0.4443
  503MOL0     H67839   5.310   2.833   2.564  1.3170 -0.1511  0.1005
  503MOL0     H67840   5.741   2.860   2.435  1.6859 -1.4561 -1.6398
  503MOL0     H67841   5.650   2.781   2.311  1.8608  1.1933 -2.4211
  503MOL0     H67842   5.676   3.082   2.324  0.5714 -0.9202  0.4970
  503MOL0     H67843   5.607   2.991   2.188  2.2720 -0.3340 -1.3031
  503MOL0     H67844   5.831   2.879   2.146 -0.1340  1.6061 -2.3573
  503MOL0     H67845   5.890   2.958   2.295  0.8238  0.6943 -1.1573
  503MOL0     H67846   5.807   3.136   2.054  3.2182  2.0615 -2.0984
  503MOL0     H67847   5.902   3.182   2.192 -1.3120 -0.3952  0.6168
  503MOL0     H67848   5.987   3.013   1.964  0.7934 -0.4134 -0.2931
  503MOL0     H67849   6.048   3.158   2.031 -0.5576 -0.4432 -1.4309
  503MOL0     H67850   6.115   3.030   2.233  0.0966 -2.3262  1.8034
  503MOL0     H67851   6.085   2.877   2.144  3.5614 -0.5733  0.1239
  503MOL0     H67852   6.258   3.116   2.059 -2.6271  0.3932  0.7566
  503MOL0     H67853   6.231   2.967   1.966  1.2506 -3.1965  1.0504
  503MOL0     H67854   6.388   3.015   2.210 -1.1596 -1.3544  2.8958
  503MOL0     H67855   6.332   2.858   2.186 -0.4843  0.6037  0.5824
  503MOL0     H67856   6.471   3.095   1.890  1.6955  0.9410 -1.8746
  503MOL0     H67857   6.759   2.917   1.735  0.0921  1.4569 -1.8024
  503MOL0     H67858   6.681   3.079   1.725  0.8692 -1.8345 -1.6454
  503MOL0     H67859   6.836   3.149   1.911  0.1367 -2.0423  2.3643
  503MOL0     H67860   6.908   2.994   1.920  1.0344 -0.0108 -1.6824
  503MOL0     H67861   6.933   3.203   1.695 -0.0971  1.4278  0.8185
  503MOL0     H67862   6.969   3.029   1.654  1.0619  0.5487 -0.1364
  503MOL0     H67863   7.164   3.167   1.691  0.6814 -1.2030 -0.3974
  503MOL0     H67864   7.161   3.023   1.792  1.9019  0.6752 -1.5927
  503MOL0     H67865   7.369   3.131   1.799 -0.9649 -2.8944  2.7174
  503MOL0     H67866   7.577   3.216   1.896  0.9714  2.1192  0.3233
  503MOL0     H67867   7.794   3.635   1.952  2.3508  0.4046 -1.7909
  503MOL0     H67868   8.004   3.729   1.956  0.3056  0.3431 -0.5903
  503MOL0     H67869   8.260   3.778   1.956 -2.5275  0.9186 -0.6753
  503MOL0     H67870   8.152   3.851   2.073  0.7121  1.8467  1.7928
  503MOL0     H67871   8.319   3.866   2.233  0.4566 -1.3214  0.6520
  503MOL0     H67872   8.437   3.776   2.145 -0.3213 -1.0074  2.0358
  503MOL0     H67873   8.415   3.955   1.946  0.3390 -1.4943 -0.4386
  503MOL0     H67874   8.325   4.046   2.066 -1.1875 -0.8886  0.4715
  503MOL0     H67875   8.619   3.988   2.119  1.0725  0.0279  1.4928
  503MOL0     H67876   8.501   4.056   2.220  0.4844 -2.5186  0.2827
  503MOL0     H67877   8.619   4.231   2.125 -0.8830 -1.9784  1.3100
  503MOL0     H67878   8.466   4.256   2.043 -1.6663 -0.5787 -0.9973
  503MOL0     H67879   8.558   4.140   1.829  0.1739 -1.5047  0.6579
  503MOL0     H67880   8.612   4.300   1.862  0.5526 -0.5946 -2.1327
  503MOL0     H67881   8.764   4.040   1.911 -1.9695 -0.6128 -2.4253
  503MOL0     H67882   8.817   4.192   1.986  2.0984 -1.6244 -0.7474
  503MOL0     H67883   8.839   4.304   1.763  0.0992 -0.5384  1.1459
  503MOL0     H67884   8.959   4.179   1.783  0.2663  0.2505 -0.9760
  503MOL0     H67885   8.151   3.459   2.246 -0.9123 -1.3943  1.4667
  503MOL0     H67886   7.935   3.325   2.224 -1.2940 -0.8187 -3.3684
  503MOL0     H67887   7.353   3.467   2.159 -2.9849 -0.8194  0.5122
  503MOL0     H67888   7.147   3.369   2.074  1.1431  1.7751  0.4473
  503MOL0     H67889   5.486   2.805   2.173  0.2210 -0.2209  0.2338
  503MOL0     H67890   5.285   2.690   2.086  3.7627 -0.1963 -0.7297
  503MOL0     H67891   4.860   2.731   2.075  0.0795  0.3350 -0.4142
  503MOL0     H67892   4.645   2.715   2.010 -1.9981 -2.2216 -0.5505
  503MOL0     H67893   4.366   2.412   2.196 -0.0449  0.6877  0.2037
  503MOL0     H67894   4.379   2.352   2.029 -2.7968  0.1698 -1.2876
  503MOL0     H67895   4.221   2.602   2.117  0.9616 -1.4092  0.9028
  503MOL0     H67896   4.148   2.448   2.081  0.4282 -1.7742  0.0543
  503MOL0     H67897   4.232   2.489   1.831  0.1267 -0.1691  1.2673
  503MOL0     H67898   4.288   2.651   1.887  0.1930  0.8216  0.0797
  503MOL0     H67899   4.068   2.712   1.944  1.7629  1.5580 -1.3105
  503MOL0     H67900   4.071   2.666   1.784  0.7273  2.4940  1.2993
  503MOL0     H67901   3.772   2.415   1.930  0.6465 -1.5453 -1.5554
  503MOL0     H67902   4.557   2.414   2.295 -0.5975  2.8330  2.0021
  503MOL0     H67903   4.841   2.454   2.491  3.1071 -1.4312 -1.5748
  503MOL0     H67904   4.715   2.343   2.450 -1.1555  0.8264 -1.9606
  503MOL0     H67905   4.877   2.325   2.375  0.1528  0.1018 -0.9153
  504MOL0     O67906   5.473   4.763   7.889  0.5052 -0.3310 -0.0701
  504MOL0     C67907   5.432   4.694   7.795 -0.4873 -1.0818  0.3442
  504MOL0     O67908   5.482   4.561   7.762 -0.0153 -0.0917 -0.3136
  504MOL0     C67909   5.599   4.515   7.817 -0.3557  0.0095  0.2707
  504MOL0     C67910   5.704   4.596   7.861 -1.7861 -0.6924 -0.3725
  504MOL0     C67911   5.828   4.537   7.893 -0.4985  0.4259  0.2817
  504MOL0     C67912   5.851   4.404   7.875  0.9750 -0.1701  0.7311
  504MOL0     O67913   5.977   4.356   7.902  0.2336  0.1497 -0.3691
  504MOL0     C67914   5.994   4.287   8.029 -1.3907  0.4735  0.3784
  504MOL0     C67915   6.046   4.148   7.993  0.5532 -0.7524 -0.0289
  504MOL0     C67916   6.202   4.153   7.963  0.6026  0.5240  0.2278
  504MOL0     C67917   6.237   4.005   7.963 -0.8620  1.2031  0.2974
  504MOL0     C67918   6.251   3.938   8.102 -0.0889  0.2539  0.4596
  504MOL0     C67919   6.371   3.993   8.186  0.5298 -0.3662 -0.3240
  504MOL0     C67920   6.503   3.985   8.106  0.0472  0.1900 -0.1549
  504MOL0     C67921   6.627   3.988   8.202  0.1270 -0.2366  0.1736
  504MOL0     N67922   6.755   3.936   8.142  0.2310 -0.9503  0.1345
  504MOL0     C67923   6.879   3.996   8.122  0.1419  0.2906 -0.0534
  504MOL0     C67924   6.957   3.903   8.060 -0.7241 -0.3089  0.9916
  504MOL0     C67925   7.110   3.928   8.019 -0.1868 -0.8043 -0.3956
  504MOL0     C67926   7.200   3.865   8.125 -0.0352 -0.3048 -0.3498
  504MOL0     C67927   7.349   3.872   8.096 -0.3647 -0.1552 -0.2046
  504MOL0     C67928   7.413   3.795   7.974 -0.1982 -0.8439 -0.5147
  504MOL0     O67929   7.550   3.824   7.979 -0.5534 -0.1968  0.5619
  504MOL0     C67930   7.629   3.768   7.877 -0.0719  0.0583 -0.2814
  504MOL0     C67931   7.761   3.798   7.892 -0.0972  0.0381 -0.3592
  504MOL0     C67932   7.862   3.751   7.809 -0.5741 -0.6125 -0.3886
  504MOL0     C67933   7.825   3.666   7.703 -0.0198  0.8595  0.2448
  504MOL0     C67934   7.931   3.618   7.608  0.6017 -0.3728  0.1790
  504MOL0     O67935   7.887   3.556   7.493  0.3934 -0.4297 -0.2188
  504MOL0     C67936   7.986   3.504   7.411 -0.1112 -0.8566  0.3957
  504MOL0     C67937   7.959   3.521   7.275 -1.0198 -1.1971  0.8002
  504MOL0     C67938   8.051   3.495   7.177 -0.4067 -0.1224 -0.3393
  504MOL0     C67939   8.177   3.441   7.218  0.2570 -0.1548  0.1313
  504MOL0     O67940   8.261   3.397   7.124  0.4254  0.4656 -0.1070
  504MOL0     C67941   8.333   3.503   7.058  0.1247 -0.1908 -0.1996
  504MOL0     C67942   8.363   3.489   6.910  0.3108  0.7854 -0.0130
  504MOL0     C67943   8.431   3.353   6.867  0.1259  0.1909  0.2810
  504MOL0     C67944   8.432   3.333   6.715  0.7352 -0.2606  0.1317
  504MOL0     C67945   8.511   3.213   6.661 -0.7627  0.7055 -1.0594
  504MOL0     C67946   8.493   3.180   6.505 -0.2796 -0.2648 -0.8223
  504MOL0     C67947   8.580   3.069   6.444  0.7802  1.2520 -0.0700
  504MOL0     C67948   8.509   3.005   6.327 -0.0053  0.2909 -1.1891
  504MOL0    Cl67949   8.589   2.857   6.268  0.4169  0.1382 -0.2365
  504MOL0     C67950   8.210   3.419   7.353 -0.3939 -0.8513  0.1053
  504MOL0     C67951   8.108   3.445   7.449  0.1549  0.3340 -0.3511
  504MOL0     O67952   8.049   3.643   7.635 -0.0138  1.0577  0.2720
  504MOL0     C67953   7.687   3.641   7.682  0.4218 -1.5201 -0.2156
  504MOL0     C67954   7.588   3.685   7.773  0.0624  0.0649  0.2152
  504MOL0     N67955   6.878   3.789   8.042 -0.4728  0.1313  0.2764
  504MOL0     N67956   6.761   3.809   8.088 -0.1715 -0.4754 -0.0154
  504MOL0     C67957   5.742   4.324   7.827  0.3769  0.0522 -0.5533
  504MOL0     C67958   5.617   4.373   7.812  0.5739 -0.1950  0.5603
  504MOL0     C67959   5.323   4.745   7.703 -1.7721  0.2253 -0.3822
  504MOL0     C67960   5.224   4.654   7.661 -0.2852 -0.1330  0.2659
  504MOL0     C67961   5.131   4.687   7.566 -0.7654 -0.2980 -0.1558
  504MOL0     C67962   5.142   4.813   7.507  0.6305  0.1103  0.6947
  504MOL0     O67963   5.048   4.838   7.405 -0.0320 -0.0783 -0.3740
  504MOL0     C67964   5.069   4.771   7.280  0.4888  0.0147  0.3604
  504MOL0     C67965   5.179   4.842   7.196  0.3242 -0.1120  0.4774
  504MOL0     C67966   5.220   4.760   7.073 -0.1086  0.3595 -0.6901
  504MOL0     C67967   5.308   4.832   6.970 -0.4950 -0.0995 -0.2321
  504MOL0     C67968   5.394   4.746   6.883 -0.3222 -0.1451  0.4633
  504MOL0     C67969   5.469   4.678   6.818  0.5229  0.5591 -0.1025
  504MOL0     C67970   5.237   4.909   7.543  1.0424 -0.9959  0.5258
  504MOL0     C67971   5.324   4.874   7.646  0.2462  0.1485  0.3750
  504MOL0     C67972   5.427   4.978   7.695 -0.1205 -0.0089 -0.0040
  504MOL0     H67973   5.703   4.704   7.873  1.2597 -0.6929  0.6583
  504MOL0     H67974   5.902   4.605   7.935 -0.5831  0.9422 -0.3905
  504MOL0     H67975   6.062   4.352   8.085 -0.7684  2.2805 -2.2487
  504MOL0     H67976   5.895   4.282   8.075 -1.5696  0.1844 -0.0289
  504MOL0     H67977   5.981   4.112   7.913  1.2962 -1.8411 -0.1595
  504MOL0     H67978   6.028   4.081   8.077  0.3950 -2.0420 -1.0484
  504MOL0     H67979   6.265   4.198   8.040  0.9479  0.3898  0.0270
  504MOL0     H67980   6.225   4.198   7.866  0.6367 -1.5592 -0.8039
  504MOL0     H67981   6.153   3.957   7.914  0.7344 -1.1757 -0.2558
  504MOL0     H67982   6.325   3.992   7.900 -1.7246  1.4265 -0.9818
  504MOL0     H67983   6.157   3.947   8.156 -0.7068  4.4949 -0.8973
  504MOL0     H67984   6.266   3.830   8.092  0.3526  0.4346 -1.3642
  504MOL0     H67985   6.352   4.097   8.211  2.7476  0.2459 -0.9659
  504MOL0     H67986   6.369   3.942   8.283  1.9567  2.1416  1.1144
  504MOL0     H67987   6.524   4.064   8.032  1.3305  1.9463  1.9443
  504MOL0     H67988   6.495   3.893   8.049  0.3897  0.6424 -0.9571
  504MOL0     H67989   6.646   4.093   8.224 -2.0847  0.0693  0.8305
  504MOL0     H67990   6.619   3.936   8.298  0.6143 -3.4265 -1.3837
  504MOL0     H67991   6.902   4.102   8.127  1.0269  0.3090 -2.8019
  504MOL0     H67992   7.135   3.886   7.921 -0.6158  0.6402 -1.1491
  504MOL0     H67993   7.129   4.036   8.023 -1.1233 -0.6139 -0.8820
  504MOL0     H67994   7.173   3.913   8.220  0.2576  1.6919 -1.2339
  504MOL0     H67995   7.164   3.762   8.132 -2.7160  0.6326  1.2690
  504MOL0     H67996   7.391   3.830   8.188 -1.1841 -1.4513 -0.4002
  504MOL0     H67997   7.381   3.977   8.099 -1.0221  0.0380  1.9639
  504MOL0     H67998   7.365   3.836   7.885  0.4387  2.8646  0.6744
  504MOL0     H67999   7.406   3.685   7.977 -1.4756 -0.7789  2.3300
  504MOL0     H68000   7.804   3.860   7.970  1.6375 -0.1585 -1.1251
  504MOL0     H68001   7.963   3.772   7.841 -0.9924  1.2270 -0.1769
  504MOL0     H68002   7.864   3.567   7.248  0.2363  0.9429 -0.2450
  504MOL0     H68003   8.045   3.504   7.069 -0.5913 -1.5593 -0.4778
  504MOL0     H68004   8.276   3.596   7.068 -1.6291 -1.4056  1.9708
  504MOL0     H68005   8.421   3.516   7.122 -0.2488  0.1214  0.2572
  504MOL0     H68006   8.265   3.494   6.862 -0.6222 -1.4058  1.5036
  504MOL0     H68007   8.426   3.573   6.878 -0.5640  0.7658 -1.8690
  504MOL0     H68008   8.532   3.337   6.904 -0.8154  0.6317  3.4315
  504MOL0     H68009   8.370   3.268   6.902  1.2628 -3.8949 -6.0500
  504MOL0     H68010   8.477   3.427   6.681  0.8577 -0.1882  0.4901
  504MOL0     H68011   8.336   3.332   6.663  0.1878 -2.4286  1.0675
  504MOL0     H68012   8.492   3.124   6.721 -2.0488 -0.5227 -3.1825
  504MOL0     H68013   8.618   3.233   6.673 -0.8220  0.7857 -0.6497
  504MOL0     H68014   8.385   3.166   6.489 -0.3730  0.2801 -0.6797
  504MOL0     H68015   8.521   3.262   6.440  0.4564  0.8468  0.8348
  504MOL0     H68016   8.597   2.982   6.508  1.2708  0.4602 -1.2489
  504MOL0     H68017   8.678   3.104   6.411  1.9213  0.0453  1.8283
  504MOL0     H68018   8.405   2.981   6.350  0.5433 -1.4228 -0.2965
  504MOL0     H68019   8.507   3.082   6.250 -0.0104  0.9776 -0.5109
  504MOL0     H68020   8.306   3.377   7.380  1.0226  1.3858 -1.1288
  504MOL0     H68021   8.125   3.430   7.556 -1.6872 -1.4024 -0.2581
  504MOL0     H68022   7.664   3.580   7.595  0.7883 -1.5302 -0.3061
  504MOL0     H68023   7.487   3.647   7.768 -0.6936  2.0392 -0.6389
  504MOL0     H68024   5.755   4.217   7.824  1.6130  0.1018  1.3144
  504MOL0     H68025   5.534   4.310   7.782  0.2623 -0.1063  1.2207
  504MOL0     H68026   5.232   4.553   7.700  1.1615 -0.3863 -0.6148
  504MOL0     H68027   5.054   4.616   7.534 -0.4406 -0.6127 -0.2526
  504MOL0     H68028   4.981   4.783   7.217  0.9394  1.9717  0.0141
  504MOL0     H68029   5.080   4.664   7.297 -3.0419 -0.1881  2.3820
  504MOL0     H68030   5.254   4.881   7.266 -0.4082  0.6709  0.8327
  504MOL0     H68031   5.138   4.936   7.159  0.2671 -0.5900 -0.7295
  504MOL0     H68032   5.132   4.728   7.017 -0.4605  3.4414 -2.0885
  504MOL0     H68033   5.272   4.673   7.115 -2.4170 -0.7852 -0.0523
  504MOL0     H68034   5.246   4.897   6.906 -1.9316 -1.3138 -0.1390
  504MOL0     H68035   5.375   4.898   7.025 -0.6526  1.0646 -1.3927
  504MOL0     H68036   5.516   4.617   6.743  2.0033 -2.3762  2.9682
  504MOL0     H68037   5.252   4.999   7.484 -1.5896  0.0779  1.3523
  504MOL0     H68038   5.528   4.939   7.683  0.0501 -0.6355  2.8582
  504MOL0     H68039   5.419   5.066   7.630 -1.1460  0.2732  0.4894
  504MOL0     H68040   5.413   5.013   7.798  2.1717  1.1483 -0.0216
  505MOL0     O68041   7.265   9.888   1.922  0.8148 -0.0224 -0.0784
  505MOL0     C68042   7.180   9.965   1.868  0.3330  0.7120 -0.1850
  505MOL0     O68043   7.212  10.083   1.801 -0.2254 -0.3610  0.1052
  505MOL0     C68044   7.337  10.129   1.773 -0.0802  0.2293  0.2143
  505MOL0     C68045   7.361  10.258   1.791 -0.9300  0.0099  0.1214
  505MOL0     C68046   7.475  10.317   1.751  0.3400 -1.0052  0.2128
  505MOL0     C68047   7.583  10.247   1.699  0.7679  0.5021 -0.0642
  505MOL0     O68048   7.695  10.323   1.675  0.8115 -0.3174  0.3695
  505MOL0     C68049   7.818  10.255   1.680  0.5801  0.4219  0.4279
  505MOL0     C68050   7.930  10.359   1.683  0.1825 -0.6969 -0.8969
  505MOL0     C68051   8.063  10.299   1.645 -0.0262  0.4291 -0.0614
  505MOL0     C68052   8.161  10.407   1.636  0.3419 -1.3713 -0.5542
  505MOL0     C68053   8.311  10.362   1.640 -0.4153 -0.5755 -1.0874
  505MOL0     C68054   8.410  10.467   1.579  0.6333 -0.0648  0.1077
  505MOL0     C68055   8.561  10.439   1.611  0.1685 -0.6500  1.5920
  505MOL0     C68056   8.651  10.551   1.562  0.1112 -0.2521 -0.2025
  505MOL0     N68057   8.625  10.576   1.415  0.1532  0.0631 -0.4406
  505MOL0     C68058   8.658  10.503   1.305  0.3235  0.6271 -0.4608
  505MOL0     C68059   8.641  10.583   1.192 -0.3612  0.1829 -0.5544
  505MOL0     C68060   8.684  10.557   1.050 -0.4705  0.0786  1.0431
  505MOL0     C68061   8.813  10.628   0.999  1.3680  0.0892  0.3182
  505MOL0     C68062   8.856  10.599   0.853  0.3272  0.1847  0.4144
  505MOL0     C68063   8.941  10.714   0.790  0.2871  0.2053 -0.5476
  505MOL0     O68064   9.050  10.659   0.708 -0.4794 -0.2165 -0.8998
  505MOL0     C68065   9.148  10.750   0.667 -0.2313  0.2613  0.0976
  505MOL0     C68066   9.143  10.893   0.678 -0.6714  0.9749  0.1474
  505MOL0     C68067   9.252  10.965   0.631  0.2828  0.0252  0.3348
  505MOL0     C68068   9.370  10.910   0.581 -0.1680 -0.1366  0.2195
  505MOL0     C68069   9.492  10.981   0.539 -0.0557 -0.1467 -0.3123
  505MOL0     O68070   9.597  10.903   0.478  0.3470  0.2304  0.5491
  505MOL0     C68071   9.712  10.954   0.429 -0.1371  1.0741  0.0811
  505MOL0     C68072   9.741  11.076   0.380 -0.9565 -0.7572 -0.1266
  505MOL0     C68073   9.869  11.114   0.330 -0.6862 -0.1682 -0.1385
  505MOL0     C68074   9.964  11.009   0.308 -0.2720 -1.1306 -0.5523
  505MOL0     O68075  10.087  11.051   0.271 -0.4020 -0.1265  0.0851
  505MOL0     C68076  10.175  10.949   0.215 -0.4758 -0.7515 -0.2852
  505MOL0     C68077  10.315  11.015   0.214  0.9270  1.0633  0.2989
  505MOL0     C68078  10.427  10.921   0.177 -0.0142 -0.4874 -0.2041
  505MOL0     C68079  10.564  10.985   0.194  0.1162  0.2169 -0.2590
  505MOL0     C68080  10.675  10.888   0.182  0.6508  0.0974 -0.6598
  505MOL0     C68081  10.808  10.956   0.201 -0.0850  0.2584 -0.8268
  505MOL0     C68082  10.927  10.859   0.198 -0.0313  0.0888 -0.0451
  505MOL0     C68083  10.982  10.839   0.335  0.6091  0.3760 -0.8809
  505MOL0    Cl68084  11.129  10.743   0.340  0.4557  0.3374  0.1909
  505MOL0     C68085   9.925  10.880   0.346  0.1608 -1.0146 -0.6480
  505MOL0     C68086   9.805  10.854   0.414  0.0091 -0.6314  0.0440
  505MOL0     O68087   9.498  11.104   0.552  0.6311 -0.7894  0.2232
  505MOL0     C68088   9.380  10.767   0.579  0.5771 -0.9276  0.2036
  505MOL0     C68089   9.266  10.698   0.625 -0.1418 -0.2384  0.2053
  505MOL0     N68090   8.571  10.690   1.235  0.7588 -0.0216  0.0336
  505MOL0     N68091   8.561  10.687   1.362  0.8826 -0.0814 -0.9107
  505MOL0     C68092   7.561  10.111   1.674 -0.9377  1.7415 -0.2864
  505MOL0     C68093   7.438  10.060   1.711  0.4508 -0.0262 -0.3332
  505MOL0     C68094   7.036   9.927   1.886  0.1280  0.3058 -0.6912
  505MOL0     C68095   6.936  10.014   1.838 -0.0377  0.2977  0.6888
  505MOL0     C68096   6.802   9.994   1.869 -0.4023  0.4233 -0.0279
  505MOL0     C68097   6.759   9.874   1.931  0.2608  0.6257  0.8854
  505MOL0     O68098   6.630   9.833   1.957  0.0777  1.0610 -0.3029
  505MOL0     C68099   6.523   9.912   1.912 -0.1896  0.0990  1.2157
  505MOL0     C68100   6.383   9.858   1.958  0.5542 -0.2062 -0.1478
  505MOL0     C68101   6.375   9.810   2.105 -0.0232 -0.8300  0.5976
  505MOL0     C68102   6.245   9.741   2.133 -0.1793  0.6737  0.0028
  505MOL0     C68103   6.140   9.840   2.118  0.2470  0.9785 -0.3392
  505MOL0     C68104   6.045   9.916   2.102  0.2785  0.3933 -0.3755
  505MOL0     C68105   6.859   9.780   1.967 -0.1802 -1.0367  0.0093
  505MOL0     C68106   6.998   9.805   1.945  0.5469  0.1489 -0.1025
  505MOL0     C68107   7.093   9.701   2.006  0.3499 -0.3598 -0.3308
  505MOL0     H68108   7.291  10.330   1.834 -1.7994  1.6147 -3.5810
  505MOL0     H68109   7.494  10.423   1.759 -1.5588 -0.4995 -1.2640
  505MOL0     H68110   7.816  10.184   1.764 -2.2197  1.1285  1.0513
  505MOL0     H68111   7.821  10.199   1.586  1.1640  1.0704  0.0550
  505MOL0     H68112   7.937  10.393   1.786 -0.7852  1.4255 -1.4821
  505MOL0     H68113   7.909  10.449   1.623  2.3760  0.2519 -0.3575
  505MOL0     H68114   8.053  10.231   1.560  1.9276 -0.4654  0.3705
  505MOL0     H68115   8.098  10.229   1.722  4.1755  1.3019 -0.9539
  505MOL0     H68116   8.133  10.457   1.543 -2.6931  0.8704  1.4156
  505MOL0     H68117   8.141  10.478   1.716  0.7775 -1.2302 -0.5701
  505MOL0     H68118   8.336  10.373   1.746  0.8542  1.9161 -1.5435
  505MOL0     H68119   8.330  10.266   1.592  1.5892 -1.3512  1.0806
  505MOL0     H68120   8.398  10.461   1.470  0.2045  2.3036 -0.0443
  505MOL0     H68121   8.392  10.571   1.609  3.6050  0.2954  0.9154
  505MOL0     H68122   8.597  10.352   1.554 -1.2675  0.6122 -1.4915
  505MOL0     H68123   8.579  10.430   1.718 -0.4707 -0.1029  1.7545
  505MOL0     H68124   8.643  10.644   1.618 -1.2603  0.3446 -1.3282
  505MOL0     H68125   8.753  10.514   1.575  0.3288 -0.6448 -2.5894
  505MOL0     H68126   8.699  10.403   1.306  0.4684  0.6751 -0.9221
  505MOL0     H68127   8.700  10.450   1.036  1.4425  0.5387 -0.6753
  505MOL0     H68128   8.599  10.588   0.989 -0.7684  0.5199  1.6682
  505MOL0     H68129   8.784  10.731   1.020 -1.0655 -0.6076  0.6862
  505MOL0     H68130   8.899  10.606   1.064  1.0740  0.1198  0.7208
  505MOL0     H68131   8.770  10.593   0.785 -0.7262 -0.4320  1.7420
  505MOL0     H68132   8.902  10.500   0.855  0.7294  0.2768 -1.9879
  505MOL0     H68133   8.987  10.777   0.867 -2.6174  1.4145  0.3562
  505MOL0     H68134   8.883  10.779   0.724  0.0848  1.6618  0.9821
  505MOL0     H68135   9.049  10.938   0.708 -1.7017 -1.3353  0.6046
  505MOL0     H68136   9.238  11.073   0.626 -1.9381 -0.2493 -0.8297
  505MOL0     H68137   9.673  11.161   0.381  2.7994  2.5551 -0.8918
  505MOL0     H68138   9.894  11.212   0.291  3.6005 -1.8909 -2.5102
  505MOL0     H68139  10.187  10.861   0.278 -0.7096  0.0698  0.9397
  505MOL0     H68140  10.141  10.945   0.111  0.3354 -0.5116 -0.5702
  505MOL0     H68141  10.325  11.101   0.147  2.2695  1.3311  0.7972
  505MOL0     H68142  10.338  11.045   0.317 -0.6449  1.3130  0.5978
  505MOL0     H68143  10.432  10.832   0.241  4.1419 -1.1156 -1.0816
  505MOL0     H68144  10.421  10.874   0.079 -0.3114 -3.8748  1.2786
  505MOL0     H68145  10.574  11.032   0.292 -2.1290 -1.2872  0.7549
  505MOL0     H68146  10.577  11.065   0.120  0.0536 -0.1158 -0.6266
  505MOL0     H68147  10.675  10.839   0.083  0.5019 -1.1376 -0.0742
  505MOL0     H68148  10.662  10.811   0.259  1.6109 -0.0411 -0.6181
  505MOL0     H68149  10.807  11.040   0.131 -0.6165 -0.7328 -2.0333
  505MOL0     H68150  10.794  11.009   0.297 -2.0567 -0.5422 -0.6227
  505MOL0     H68151  10.995  10.896   0.121  1.6823  3.2505  2.7023
  505MOL0     H68152  10.897  10.759   0.166 -1.1606 -0.1817  1.7209
  505MOL0     H68153  11.008  10.931   0.389 -0.5138 -0.8801  2.0128
  505MOL0     H68154  10.900  10.799   0.396  1.8560  2.8563  2.8159
  505MOL0     H68155  10.004  10.806   0.333 -0.4002 -1.5771 -0.8988
  505MOL0     H68156   9.786  10.752   0.445 -0.5261 -1.8675 -3.8037
  505MOL0     H68157   9.463  10.706   0.546  0.1360 -1.3301 -0.1863
  505MOL0     H68158   9.274  10.591   0.612  1.3528 -0.6688  3.6370
  505MOL0     H68159   7.632  10.045   1.625 -0.1806  1.8365  0.6637
  505MOL0     H68160   7.422   9.956   1.684  2.2285 -0.4192  0.0096
  505MOL0     H68161   6.965  10.098   1.777 -0.9745 -0.0037 -0.2090
  505MOL0     H68162   6.725  10.059   1.828 -0.5984  0.4132  0.3240
  505MOL0     H68163   6.523   9.917   1.803  1.4141  0.4341  1.2183
  505MOL0     H68164   6.527  10.011   1.958  1.3420  0.1694  0.9807
  505MOL0     H68165   6.350   9.780   1.889  1.4205  0.1333 -0.9647
  505MOL0     H68166   6.314   9.943   1.951  3.9595  2.8846  0.3756
  505MOL0     H68167   6.385   9.895   2.174 -0.7438  0.4159 -0.7623
  505MOL0     H68168   6.457   9.738   2.110  1.3561  0.3940 -2.1513
  505MOL0     H68169   6.230   9.662   2.058 -0.7438 -0.9375  1.7439
  505MOL0     H68170   6.255   9.697   2.233  2.3365  0.1799 -0.3977
  505MOL0     H68171   5.975   9.993   2.078 -1.1225 -0.4090  0.9493
  505MOL0     H68172   6.839   9.679   2.002  3.2031 -2.5136 -1.8417
  505MOL0     H68173   7.161   9.667   1.927 -0.2031 -1.0076 -0.5420
  505MOL0     H68174   7.147   9.753   2.086 -1.8057  0.2364  0.8057
  505MOL0     H68175   7.052   9.609   2.047  0.4383 -1.3154 -2.2646
  506MOL0     O68176   7.759   7.033   5.068  0.0393 -0.1312  0.3965
  506MOL0     C68177   7.735   7.155   5.057 -0.4799 -0.9443 -0.7297
  506MOL0     O68178   7.612   7.210   5.055  0.6291  0.5201  0.2280
  506MOL0     C68179   7.507   7.133   5.098 -0.1113  0.4124 -0.2032
  506MOL0     C68180   7.392   7.133   5.026  0.1253 -0.0242  0.3055
  506MOL0     C68181   7.282   7.061   5.069 -0.1095 -0.5516  0.3915
  506MOL0     C68182   7.279   6.984   5.186 -0.0237 -0.8265 -0.1569
  506MOL0     O68183   7.181   6.901   5.231  0.3621  0.0546 -0.1490
  506MOL0     C68184   7.050   6.921   5.168 -0.3594  0.2326  0.7898
  506MOL0     C68185   6.962   6.807   5.220  0.1276 -0.0881 -0.0453
  506MOL0     C68186   6.817   6.829   5.181  0.0840 -0.2601 -0.4080
  506MOL0     C68187   6.729   6.714   5.240  0.1012  0.4655 -0.4842
  506MOL0     C68188   6.580   6.721   5.192  0.2057  0.1345  0.6668
  506MOL0     C68189   6.500   6.629   5.276  0.3604  0.8770 -0.0225
  506MOL0     C68190   6.351   6.648   5.261 -1.2202 -0.2184  0.0251
  506MOL0     C68191   6.261   6.573   5.361  0.6021 -0.0488  0.0857
  506MOL0     N68192   6.271   6.615   5.497 -0.5521 -0.9882  0.5726
  506MOL0     C68193   6.337   6.563   5.606 -0.4157  0.7924  0.3852
  506MOL0     C68194   6.313   6.648   5.706  0.4357  0.4031  0.0537
  506MOL0     C68195   6.351   6.631   5.849 -0.3127 -0.3184  0.1422
  506MOL0     C68196   6.478   6.714   5.877  0.7257 -0.1895  0.5901
  506MOL0     C68197   6.509   6.698   6.024 -0.5905  0.5104  0.5395
  506MOL0     C68198   6.633   6.605   6.039 -0.4457 -0.1804  0.6599
  506MOL0     O68199   6.751   6.641   5.953 -0.4453 -0.1190  0.1588
  506MOL0     C68200   6.879   6.624   6.000 -0.1854 -0.1114  0.0813
  506MOL0     C68201   6.919   6.597   6.135  0.5859  0.5971 -0.1038
  506MOL0     C68202   7.061   6.602   6.165  0.2691  0.2950 -0.8629
  506MOL0     C68203   7.160   6.588   6.069 -0.1831 -0.2531  0.0662
  506MOL0     C68204   7.305   6.586   6.104  0.1589  0.6925 -0.5655
  506MOL0     O68205   7.389   6.584   5.989 -0.1130  0.4025 -0.0289
  506MOL0     C68206   7.526   6.556   5.999  0.3436  0.2651 -0.1674
  506MOL0     C68207   7.572   6.435   6.062  1.1532  0.5005  0.2727
  506MOL0     C68208   7.705   6.399   6.049  0.3110 -0.0678  0.3715
  506MOL0     C68209   7.794   6.478   5.968 -0.3723 -0.4000  0.5033
  506MOL0     O68210   7.923   6.430   5.964 -0.4799 -0.0664 -0.4839
  506MOL0     C68211   8.026   6.508   5.898  0.3654 -0.1811 -0.2548
  506MOL0     C68212   8.160   6.453   5.957 -0.2706  0.1735 -0.3931
  506MOL0     C68213   8.173   6.299   5.980  0.2401 -0.3080  0.3305
  506MOL0     C68214   8.309   6.266   6.045  0.2709 -0.3486  0.4465
  506MOL0     C68215   8.339   6.118   6.056 -0.5172 -0.2053  0.2789
  506MOL0     C68216   8.489   6.077   6.052 -1.1361  1.3423  0.2549
  506MOL0     C68217   8.497   5.923   6.063  0.0833 -0.8744  0.6361
  506MOL0     C68218   8.643   5.873   6.062 -0.0473  0.3439  0.0886
  506MOL0    Cl68219   8.641   5.699   6.110  0.1434 -0.2832  0.2978
  506MOL0     C68220   7.743   6.590   5.900 -0.2572  0.8276 -0.0387
  506MOL0     C68221   7.607   6.624   5.915 -0.6279 -1.1649 -0.2757
  506MOL0     O68222   7.346   6.576   6.219 -0.3813 -0.2289 -0.7029
  506MOL0     C68223   7.112   6.607   5.936 -0.2178  0.1187  0.5516
  506MOL0     C68224   6.974   6.614   5.901 -0.0053  0.0742  0.1448
  506MOL0     N68225   6.225   6.745   5.655 -0.0470  0.0608 -0.6643
  506MOL0     N68226   6.206   6.726   5.532 -0.1665 -0.3571 -0.2488
  506MOL0     C68227   7.397   6.989   5.264  0.5075 -1.2283 -0.5584
  506MOL0     C68228   7.509   7.064   5.221  0.3417  0.8321 -0.2148
  506MOL0     C68229   7.853   7.248   5.030  0.1184  1.1708  0.7548
  506MOL0     C68230   7.838   7.373   4.962  0.9352 -0.5849 -0.3782
  506MOL0     C68231   7.938   7.463   4.937 -1.1062 -0.3250  0.0060
  506MOL0     C68232   8.069   7.432   4.978  0.8435  0.0978 -1.2943
  506MOL0     O68233   8.177   7.513   4.952  0.4792 -0.8986  0.2302
  506MOL0     C68234   8.160   7.624   4.861  0.1872 -0.5975  0.5377
  506MOL0     C68235   8.297   7.697   4.836  0.8264  0.4782  0.3541
  506MOL0     C68236   8.342   7.774   4.962 -0.1872  0.2124 -0.0154
  506MOL0     C68237   8.484   7.821   4.956 -0.7187 -0.0170 -0.1475
  506MOL0     C68238   8.504   7.884   4.824  0.2930  0.2924  0.0994
  506MOL0     C68239   8.501   7.926   4.715  0.3686  0.0504  0.6296
  506MOL0     C68240   8.091   7.314   5.051  0.4369 -0.6688 -0.0383
  506MOL0     C68241   7.990   7.218   5.070  0.1257 -0.5545  0.0964
  506MOL0     C68242   8.028   7.096   5.154  0.5478  0.2936 -0.0283
  506MOL0     H68243   7.381   7.192   4.935  0.2744  0.2731  0.4783
  506MOL0     H68244   7.194   7.057   5.006 -1.3382  1.2393  1.8901
  506MOL0     H68245   7.008   7.021   5.182  3.1029  2.0059 -0.3964
  506MOL0     H68246   7.054   6.899   5.061  1.3522 -2.3268  1.3019
  506MOL0     H68247   6.964   6.820   5.329 -1.7316  0.8142 -0.0760
  506MOL0     H68248   7.003   6.713   5.181 -0.3051 -0.2979  0.0076
  506MOL0     H68249   6.802   6.840   5.073 -0.8852  0.7399 -0.1912
  506MOL0     H68250   6.783   6.930   5.206 -0.8002 -0.5296 -0.5126
  506MOL0     H68251   6.780   6.625   5.203  0.9205  1.5665 -2.1406
  506MOL0     H68252   6.734   6.720   5.349 -4.9484  0.5631 -0.0195
  506MOL0     H68253   6.549   6.826   5.201  0.8400  0.6807 -2.2295
  506MOL0     H68254   6.566   6.692   5.087  1.6912  3.1748 -0.5082
  506MOL0     H68255   6.529   6.526   5.250 -0.4200  0.7947 -0.6039
  506MOL0     H68256   6.529   6.654   5.378  0.4642  1.9874 -0.3138
  506MOL0     H68257   6.323   6.620   5.158  0.7148 -3.1737  0.1816
  506MOL0     H68258   6.322   6.751   5.284  0.3335 -0.0519  1.4372
  506MOL0     H68259   6.159   6.571   5.320  0.8093 -0.2800 -0.4257
  506MOL0     H68260   6.276   6.464   5.365 -0.9249 -0.2675  0.8115
  506MOL0     H68261   6.393   6.470   5.609  0.1627  1.1454  0.6968
  506MOL0     H68262   6.263   6.648   5.912  0.3091 -1.8440  1.5135
  506MOL0     H68263   6.387   6.530   5.873  1.2713 -0.0575 -0.9418
  506MOL0     H68264   6.564   6.694   5.812  1.7949  0.8426  1.6205
  506MOL0     H68265   6.454   6.818   5.856  1.1338 -0.3843 -1.0064
  506MOL0     H68266   6.426   6.659   6.085  1.1590  1.6938  3.9256
  506MOL0     H68267   6.543   6.791   6.070  0.5925  1.0803 -1.3883
  506MOL0     H68268   6.608   6.501   6.016  2.4980 -0.2657 -3.3557
  506MOL0     H68269   6.654   6.602   6.146 -1.5481 -2.7271  0.8810
  506MOL0     H68270   6.860   6.605   6.225  3.8904 -0.5460  2.3503
  506MOL0     H68271   7.100   6.593   6.265  0.1856  0.7257 -0.7907
  506MOL0     H68272   7.505   6.384   6.130 -2.0553  3.9548  0.0198
  506MOL0     H68273   7.746   6.313   6.102  0.7215 -0.4790 -0.5796
  506MOL0     H68274   8.030   6.497   5.789  1.7780  2.1621 -0.5149
  506MOL0     H68275   8.007   6.612   5.926 -1.1252 -0.6988  0.7734
  506MOL0     H68276   8.247   6.479   5.895  0.7178 -0.0135  0.8837
  506MOL0     H68277   8.168   6.503   6.053  0.7817 -0.9796  0.1526
  506MOL0     H68278   8.088   6.267   6.041  1.9487 -2.3936  1.6962
  506MOL0     H68279   8.156   6.241   5.889 -0.0637 -1.7740  1.2928
  506MOL0     H68280   8.313   6.320   6.140  1.4605 -0.5799  0.5459
  506MOL0     H68281   8.388   6.309   5.982 -0.2518 -0.3297 -0.2075
  506MOL0     H68282   8.294   6.056   5.978  0.7465 -1.9146  0.8316
  506MOL0     H68283   8.285   6.086   6.146 -1.1891  1.6580  0.5832
  506MOL0     H68284   8.529   6.116   5.957 -0.1628 -0.2790 -0.0279
  506MOL0     H68285   8.549   6.121   6.132  1.5135 -0.6341 -0.5157
  506MOL0     H68286   8.455   5.882   5.971 -1.3828 -1.2226  1.4302
  506MOL0     H68287   8.453   5.885   6.156 -1.1962  0.8038  0.7749
  506MOL0     H68288   8.683   5.879   5.961 -0.2245  0.1836  0.0080
  506MOL0     H68289   8.705   5.934   6.128 -0.8079  1.5178 -0.2685
  506MOL0     H68290   7.803   6.652   5.835 -0.7137  0.2409 -1.0471
  506MOL0     H68291   7.563   6.709   5.864 -1.1815 -1.2901 -0.0186
  506MOL0     H68292   7.177   6.613   5.849 -2.2717 -0.7095 -1.0930
  506MOL0     H68293   6.954   6.625   5.795  0.1774 -0.2512  0.0747
  506MOL0     H68294   7.405   6.928   5.353 -0.1779  3.7216  3.3472
  506MOL0     H68295   7.601   7.073   5.279  1.6849  1.2914 -2.3138
  506MOL0     H68296   7.742   7.408   4.926  1.1919  0.6918  0.1186
  506MOL0     H68297   7.920   7.566   4.906 -3.7616  0.0343  2.3405
  506MOL0     H68298   8.089   7.700   4.895  0.7586  1.0094 -1.6203
  506MOL0     H68299   8.119   7.591   4.765  0.2353  4.3719 -1.5237
  506MOL0     H68300   8.279   7.757   4.746  1.9541 -2.0013 -1.6580
  506MOL0     H68301   8.370   7.619   4.811  0.7006  0.8930 -1.4375
  506MOL0     H68302   8.332   7.717   5.054 -0.6169 -0.6333 -0.5678
  506MOL0     H68303   8.273   7.858   4.965  3.4433  3.5348 -1.3688
  506MOL0     H68304   8.494   7.903   5.028  1.0071 -0.5055  0.2164
  506MOL0     H68305   8.555   7.741   4.979 -0.0626  0.2029 -1.3326
  506MOL0     H68306   8.489   7.970   4.618 -0.7274 -0.7279  0.3847
  506MOL0     H68307   8.188   7.280   5.087 -0.7698 -0.2344  4.1045
  506MOL0     H68308   8.134   7.085   5.175  0.1087 -0.3998  2.0673
  506MOL0     H68309   7.970   7.103   5.246 -0.6684 -3.2865 -0.3432
  506MOL0     H68310   8.006   7.011   5.089  1.2010  0.7065 -0.8149
  507MOL0     O68311   1.874   5.453   6.934 -0.0768 -0.2348  0.1536
  507MOL0     C68312   1.770   5.394   6.964 -0.3528 -0.9777  0.5275
  507MOL0     O68313   1.756   5.265   6.968  0.0660  0.3713 -0.3969
  507MOL0     C68314   1.869   5.186   6.989  0.7754 -0.5242  0.3589
  507MOL0     C68315   1.944   5.142   6.887  0.0094  0.0486 -0.3925
  507MOL0     C68316   2.061   5.068   6.916  0.2877  0.4169  0.1883
  507MOL0     C68317   2.099   5.037   7.048  0.1013 -0.2904  0.4343
  507MOL0     O68318   2.224   4.982   7.070 -0.1087  0.4968  0.3029
  507MOL0     C68319   2.291   5.020   7.195 -1.1396  0.0069  0.3921
  507MOL0     C68320   2.427   4.950   7.201  0.4640  0.3504 -0.0286
  507MOL0     C68321   2.416   4.799   7.197 -0.0801  1.0776 -0.0533
  507MOL0     C68322   2.548   4.723   7.231  0.0419  0.9758  0.1427
  507MOL0     C68323   2.540   4.579   7.171 -0.1912  0.0027 -0.2967
  507MOL0     C68324   2.683   4.523   7.195 -0.4588  0.6308  0.1436
  507MOL0     C68325   2.726   4.386   7.128  0.1842  0.1975  0.7891
  507MOL0     C68326   2.880   4.386   7.111  0.3092  0.8272 -0.3066
  507MOL0     N68327   2.926   4.478   7.013 -0.1492  0.1630  0.8052
  507MOL0     C68328   2.896   4.475   6.876  1.4972 -0.4890  0.0441
  507MOL0     C68329   2.948   4.589   6.823 -0.3667 -0.8521 -0.4330
  507MOL0     C68330   2.943   4.632   6.680  0.2493  0.5929 -0.2584
  507MOL0     C68331   3.058   4.564   6.598 -0.2402  0.0131 -0.4679
  507MOL0     C68332   3.200   4.610   6.648  0.1833  0.9317 -0.5691
  507MOL0     C68333   3.217   4.758   6.682  0.0899  0.6105  0.3011
  507MOL0     O68334   3.333   4.788   6.755 -0.3840 -0.2807 -0.3056
  507MOL0     C68335   3.463   4.765   6.709 -0.7655 -0.2675 -0.6059
  507MOL0     C68336   3.500   4.789   6.581 -0.6058  0.0753  0.4789
  507MOL0     C68337   3.636   4.775   6.541  0.5507 -0.0626 -0.9551
  507MOL0     C68338   3.739   4.758   6.641 -0.0109  1.1971  0.4110
  507MOL0     C68339   3.878   4.756   6.611 -0.3190  0.2766  0.1915
  507MOL0     O68340   3.971   4.760   6.713  0.0981  0.0968  0.1522
  507MOL0     C68341   4.101   4.729   6.687 -0.9100 -0.4184  0.1133
  507MOL0     C68342   4.188   4.813   6.617 -0.3700 -0.3224 -0.2673
  507MOL0     C68343   4.325   4.785   6.606  0.0676 -0.2247  1.0945
  507MOL0     C68344   4.384   4.674   6.656 -0.5620  0.4939  0.7067
  507MOL0     O68345   4.520   4.660   6.635  0.4628  0.9434 -0.2351
  507MOL0     C68346   4.599   4.562   6.710 -0.4360  0.8326  0.2426
  507MOL0     C68347   4.750   4.584   6.698  0.3835  0.4464  0.0711
  507MOL0     C68348   4.825   4.503   6.804  0.8039 -0.3896 -0.1942
  507MOL0     C68349   4.975   4.517   6.780  0.2036 -0.8673  0.0136
  507MOL0     C68350   5.042   4.397   6.848  0.2456  0.5022 -0.3234
  507MOL0     C68351   5.172   4.365   6.770 -0.8872  0.4786  0.2709
  507MOL0     C68352   5.258   4.256   6.833  0.3089  0.0772  0.3609
  507MOL0     C68353   5.355   4.188   6.735  0.6465 -0.4861  0.1477
  507MOL0    Cl68354   5.478   4.292   6.649  0.0853  0.6114 -0.4461
  507MOL0     C68355   4.305   4.591   6.732 -0.6009 -0.2146 -0.0189
  507MOL0     C68356   4.165   4.618   6.751  0.2956 -0.2585  0.5695
  507MOL0     O68357   3.908   4.739   6.497  0.4266 -0.1933  0.2854
  507MOL0     C68358   3.697   4.742   6.778  0.1120 -0.4387 -0.1376
  507MOL0     C68359   3.562   4.745   6.809  0.1895  0.4521  0.1578
  507MOL0     N68360   3.019   4.644   6.924  0.5436 -0.9227 -0.2798
  507MOL0     N68361   3.009   4.575   7.034 -1.1787  0.4103 -0.0354
  507MOL0     C68362   2.011   5.071   7.152  0.4183 -0.0629 -0.3329
  507MOL0     C68363   1.898   5.139   7.123 -0.2855 -0.1193 -0.3233
  507MOL0     C68364   1.639   5.467   6.979  0.0463 -0.3280 -0.1082
  507MOL0     C68365   1.519   5.394   6.998  0.1708 -0.5139 -0.1346
  507MOL0     C68366   1.401   5.456   7.028  0.3833  0.0137 -0.7573
  507MOL0     C68367   1.384   5.595   7.026  0.3170 -0.1683  0.1109
  507MOL0     O68368   1.270   5.654   7.067 -0.2520 -0.0263  0.3172
  507MOL0     C68369   1.138   5.614   7.029 -0.3435  0.0755  0.0770
  507MOL0     C68370   1.051   5.739   7.039 -0.3747  0.2090 -0.2738
  507MOL0     C68371   0.906   5.715   6.998 -0.1920 -0.4395 -0.6287
  507MOL0     C68372   0.826   5.843   7.005 -0.1179  0.2584  0.4288
  507MOL0     C68373   0.848   5.921   6.888  0.7465  0.4707  0.3836
  507MOL0     C68374   0.880   5.975   6.784  0.6768 -0.3421  0.6651
  507MOL0     C68375   1.502   5.669   7.001  0.5679 -0.2774 -0.4586
  507MOL0     C68376   1.630   5.612   6.976  0.0904 -0.1914 -0.0830
  507MOL0     C68377   1.750   5.705   6.958 -0.2787  0.0991 -0.1245
  507MOL0     H68378   1.921   5.144   6.781 -0.4247  0.5617 -0.2861
  507MOL0     H68379   2.126   5.041   6.833  0.2650 -2.9993  1.1759
  507MOL0     H68380   2.311   5.125   7.217  0.7851 -0.1216 -0.4989
  507MOL0     H68381   2.229   4.981   7.276 -0.5765  0.4586  1.0464
  507MOL0     H68382   2.473   4.985   7.294 -1.2851 -1.2246  1.5055
  507MOL0     H68383   2.484   4.992   7.117  0.8233 -1.8492 -0.9376
  507MOL0     H68384   2.391   4.760   7.098  1.6713 -1.0025  0.2495
  507MOL0     H68385   2.336   4.778   7.269  2.6618  0.6647  3.1005
  507MOL0     H68386   2.628   4.776   7.178  1.6282 -0.2605  1.1982
  507MOL0     H68387   2.570   4.727   7.338 -0.7128  2.0913  0.2632
  507MOL0     H68388   2.474   4.502   7.213  3.4177 -3.3281 -0.1997
  507MOL0     H68389   2.514   4.578   7.065 -0.0438 -0.0771 -0.3322
  507MOL0     H68390   2.753   4.604   7.171  0.6791 -0.5755 -0.7611
  507MOL0     H68391   2.701   4.514   7.303  3.0515 -1.6043 -0.4386
  507MOL0     H68392   2.672   4.372   7.034 -0.1032 -0.2268  1.0166
  507MOL0     H68393   2.712   4.295   7.186  1.1603 -0.2970  0.2659
  507MOL0     H68394   2.933   4.414   7.202  0.4834 -1.3273  0.2916
  507MOL0     H68395   2.907   4.286   7.077  1.2232  0.8361  0.3683
  507MOL0     H68396   2.827   4.403   6.833 -0.3296 -0.1260  2.1343
  507MOL0     H68397   2.847   4.596   6.641 -0.1585  2.0264 -0.6278
  507MOL0     H68398   2.947   4.740   6.670 -0.7518  0.4771 -2.6550
  507MOL0     H68399   3.042   4.456   6.610 -1.9110  0.4337  1.8140
  507MOL0     H68400   3.051   4.588   6.491 -2.2005 -1.8697 -0.8372
  507MOL0     H68401   3.276   4.589   6.573 -1.0607 -0.8879 -1.3794
  507MOL0     H68402   3.212   4.548   6.737  1.5589  1.5329 -0.2921
  507MOL0     H68403   3.135   4.790   6.747 -1.0640 -0.5057 -0.5393
  507MOL0     H68404   3.211   4.816   6.589  2.2770 -0.1293 -0.3574
  507MOL0     H68405   3.431   4.812   6.499 -1.8452 -1.0267  1.1670
  507MOL0     H68406   3.667   4.792   6.438 -0.1856  1.7525 -0.9172
  507MOL0     H68407   4.140   4.902   6.576 -1.1577 -1.2400 -1.3659
  507MOL0     H68408   4.396   4.849   6.554 -0.5898 -1.7557 -1.8703
  507MOL0     H68409   4.585   4.563   6.819  1.0245  2.2545  0.4797
  507MOL0     H68410   4.576   4.459   6.684  1.2870  0.9038 -1.8851
  507MOL0     H68411   4.763   4.549   6.595 -0.7533 -2.8759  0.9566
  507MOL0     H68412   4.773   4.690   6.711 -1.0045  0.5081  2.8382
  507MOL0     H68413   4.798   4.538   6.903 -1.0459 -0.7516 -0.5358
  507MOL0     H68414   4.798   4.398   6.790 -2.2967  0.1821  0.8875
  507MOL0     H68415   5.020   4.610   6.816 -4.2189  1.0097  1.3566
  507MOL0     H68416   4.992   4.522   6.672  0.7918  1.7575  0.1651
  507MOL0     H68417   4.977   4.309   6.840  0.2974  0.4272  0.0913
  507MOL0     H68418   5.059   4.422   6.953 -0.3845 -0.0358 -0.0812
  507MOL0     H68419   5.152   4.330   6.668  0.4511 -3.6298  1.2454
  507MOL0     H68420   5.236   4.452   6.750  0.2127 -0.4463 -0.3673
  507MOL0     H68421   5.187   4.195   6.891 -2.9945  0.0708 -3.2691
  507MOL0     H68422   5.321   4.299   6.911 -0.1051 -0.0199  0.7585
  507MOL0     H68423   5.411   4.113   6.792  2.6735 -0.3770 -1.5553
  507MOL0     H68424   5.298   4.131   6.660 -0.5474 -1.3472  1.6601
  507MOL0     H68425   4.347   4.500   6.772  0.9951  0.3789 -0.2794
  507MOL0     H68426   4.098   4.555   6.810  0.2357  0.6078  1.4660
  507MOL0     H68427   3.765   4.722   6.860 -1.9313  1.8597  2.2585
  507MOL0     H68428   3.539   4.749   6.915  0.3228  2.0446  0.1440
  507MOL0     H68429   2.047   5.049   7.252  1.1121 -2.3348 -1.0259
  507MOL0     H68430   1.834   5.157   7.209 -1.0426  2.5833 -1.3269
  507MOL0     H68431   1.526   5.286   7.003 -0.5065 -0.5445  0.2465
  507MOL0     H68432   1.312   5.394   7.031  1.2426 -1.2313  1.2880
  507MOL0     H68433   1.094   5.535   7.091 -2.1152  1.3237  0.4747
  507MOL0     H68434   1.146   5.586   6.924 -2.7979  0.6188 -0.2946
  507MOL0     H68435   1.098   5.820   6.982  1.4146 -0.8088 -0.3210
  507MOL0     H68436   1.052   5.778   7.141  3.5363  1.6398 -0.7088
  507MOL0     H68437   0.859   5.647   7.069  1.5233  0.3082  1.3191
  507MOL0     H68438   0.903   5.673   6.898  1.0368  0.2723 -0.9923
  507MOL0     H68439   0.719   5.817   7.002 -0.4223  1.5067  0.0276
  507MOL0     H68440   0.844   5.902   7.095 -0.7420  1.6249 -0.3129
  507MOL0     H68441   0.881   6.024   6.688  6.7649 -1.6599 -0.3182
  507MOL0     H68442   1.489   5.777   7.006  0.0604 -0.3661  3.3877
  507MOL0     H68443   1.727   5.812   6.964 -2.0514 -0.2111 -0.7156
  507MOL0     H68444   1.832   5.681   7.026 -1.0311  1.9657  1.5639
  507MOL0     H68445   1.780   5.696   6.854 -2.6830 -0.2389 -0.8554
  508MOL0     O68446   1.314   4.260   4.729  0.5869 -0.1356 -0.0051
  508MOL0     C68447   1.288   4.142   4.733  0.0743  0.3778 -0.8310
  508MOL0     O68448   1.347   4.049   4.820  0.2851  0.4556 -0.1971
  508MOL0     C68449   1.433   4.102   4.912  0.1934  0.1606  0.1469
  508MOL0     C68450   1.392   4.214   4.991 -0.4831  0.8537  0.0176
  508MOL0     C68451   1.490   4.266   5.076  0.2561 -0.2739 -0.0330
  508MOL0     C68452   1.618   4.211   5.089  0.0998  0.5572  0.2668
  508MOL0     O68453   1.713   4.261   5.168 -0.6657 -0.0731 -0.9725
  508MOL0     C68454   1.686   4.340   5.289  0.3751 -0.0778  0.2751
  508MOL0     C68455   1.818   4.358   5.362 -0.0882 -0.6123 -0.5124
  508MOL0     C68456   1.898   4.221   5.376 -0.3195 -0.0156 -0.9249
  508MOL0     C68457   2.033   4.257   5.434  0.7198  0.1871 -0.7247
  508MOL0     C68458   2.127   4.141   5.444  0.2897  0.0892 -0.5502
  508MOL0     C68459   2.254   4.183   5.515  0.2713 -0.9726 -1.4560
  508MOL0     C68460   2.361   4.070   5.528  0.2890 -0.0511  0.6161
  508MOL0     C68461   2.496   4.127   5.564  0.7677  0.4903 -0.0454
  508MOL0     N68462   2.605   4.045   5.527  0.7414  0.4027 -0.0685
  508MOL0     C68463   2.655   3.946   5.601  0.4891  0.4440  0.0057
  508MOL0     C68464   2.759   3.893   5.526 -0.2482 -0.0959 -0.6325
  508MOL0     C68465   2.828   3.769   5.570  0.2570 -0.5056  0.2908
  508MOL0     C68466   2.978   3.757   5.519 -0.0214  0.2544 -0.5997
  508MOL0     C68467   3.064   3.846   5.605 -0.3761 -0.2159 -0.0075
  508MOL0     C68468   3.206   3.864   5.557  0.3441 -0.4808  0.5935
  508MOL0     O68469   3.268   3.744   5.571  0.5327  0.1005 -0.2233
  508MOL0     C68470   3.403   3.740   5.553  0.7762 -0.2693 -0.4008
  508MOL0     C68471   3.487   3.846   5.506 -0.1093 -0.2029  0.3225
  508MOL0     C68472   3.629   3.830   5.509 -0.0278 -0.2586 -0.3472
  508MOL0     C68473   3.685   3.708   5.556 -0.2537  0.1698  0.4779
  508MOL0     C68474   3.831   3.686   5.558 -0.0888  0.8708 -0.3372
  508MOL0     O68475   3.904   3.802   5.533  0.5168 -0.0299  0.3855
  508MOL0     C68476   4.040   3.783   5.532  0.9950 -0.4984 -0.7081
  508MOL0     C68477   4.119   3.877   5.598  0.6103  0.8881  0.1346
  508MOL0     C68478   4.255   3.858   5.617 -0.2022  0.7629 -0.9919
  508MOL0     C68479   4.313   3.742   5.566 -0.1553  0.4266 -1.0103
  508MOL0     O68480   4.441   3.693   5.596  0.2255  0.0070 -0.4321
  508MOL0     C68481   4.541   3.780   5.643 -0.3552 -0.7297 -0.4905
  508MOL0     C68482   4.684   3.709   5.650 -0.6680  0.4290  0.5771
  508MOL0     C68483   4.756   3.783   5.765  0.5861 -0.6098  0.3030
  508MOL0     C68484   4.897   3.750   5.774 -0.2863  0.8341 -0.2350
  508MOL0     C68485   4.966   3.855   5.862  0.1782 -0.1652  0.0305
  508MOL0     C68486   5.119   3.851   5.848 -0.1709 -0.9924  1.0596
  508MOL0     C68487   5.182   3.948   5.943  0.8812 -0.3421  0.6094
  508MOL0     C68488   5.334   3.936   5.947 -0.0737 -1.2418 -0.2316
  508MOL0    Cl68489   5.408   3.993   5.794  0.6081 -0.1290 -0.1690
  508MOL0     C68490   4.235   3.662   5.485  0.4439 -0.2939 -1.4932
  508MOL0     C68491   4.102   3.682   5.470 -0.1789  0.4026  0.7340
  508MOL0     O68492   3.869   3.587   5.620 -0.0842 -0.8799 -0.2220
  508MOL0     C68493   3.597   3.610   5.604  0.6853  0.1361  0.1097
  508MOL0     C68494   3.463   3.624   5.606  0.1563  0.4733  0.1385
  508MOL0     N68495   2.775   3.967   5.414 -0.2742 -0.0392 -0.5833
  508MOL0     N68496   2.682   4.051   5.418 -0.5095 -0.7321 -0.1919
  508MOL0     C68497   1.650   4.096   5.013  0.0746 -1.1562 -0.1979
  508MOL0     C68498   1.556   4.045   4.929  0.0046 -0.7615 -0.1875
  508MOL0     C68499   1.192   4.085   4.632  0.1293  0.1970 -0.1457
  508MOL0     C68500   1.141   3.950   4.638 -0.8707 -0.3529  0.1863
  508MOL0     C68501   1.051   3.899   4.545  0.2599  1.0933  0.2808
  508MOL0     C68502   0.998   3.980   4.445 -0.2373 -0.0557  0.3567
  508MOL0     O68503   0.906   3.927   4.354  0.2826  0.1979 -0.0294
  508MOL0     C68504   0.816   4.017   4.280 -0.0381  0.0969  0.6242
  508MOL0     C68505   0.701   3.919   4.237 -0.0608 -0.1180 -1.1649
  508MOL0     C68506   0.610   3.893   4.351  0.1246  0.0742  0.0277
  508MOL0     C68507   0.461   3.928   4.322  0.1777  0.5354 -0.3902
  508MOL0     C68508   0.368   3.887   4.424  0.3937 -0.2767 -0.0832
  508MOL0     C68509   0.291   3.848   4.509 -0.3961  0.5451 -0.8244
  508MOL0     C68510   1.046   4.109   4.436  0.0650  1.6402 -0.1252
  508MOL0     C68511   1.143   4.165   4.523 -0.5338 -0.5981  0.2607
  508MOL0     C68512   1.181   4.310   4.494  0.7536 -0.1122  0.8465
  508MOL0     H68513   1.298   4.262   4.968 -1.8474 -0.8478  1.7897
  508MOL0     H68514   1.471   4.364   5.118  0.4850  0.4707 -1.5805
  508MOL0     H68515   1.653   4.441   5.265  1.2114  0.1411  0.0149
  508MOL0     H68516   1.610   4.297   5.356  1.1056  1.5078  2.2118
  508MOL0     H68517   1.800   4.400   5.462 -0.8744  1.0860 -1.3425
  508MOL0     H68518   1.874   4.438   5.313 -4.0875  2.2119 -0.9392
  508MOL0     H68519   1.917   4.172   5.280  0.2974 -1.7621  0.0309
  508MOL0     H68520   1.853   4.150   5.447  3.0440  1.6862  3.3453
  508MOL0     H68521   2.082   4.333   5.373  0.5269  0.4183 -0.5922
  508MOL0     H68522   2.015   4.300   5.532  2.5123 -0.2228 -0.1727
  508MOL0     H68523   2.085   4.052   5.492 -0.2097  0.8669  0.4979
  508MOL0     H68524   2.157   4.106   5.345  0.1556  1.9905 -1.2954
  508MOL0     H68525   2.303   4.260   5.455  0.7856  1.2857  1.6087
  508MOL0     H68526   2.228   4.226   5.612 -2.6534  2.0774 -3.4031
  508MOL0     H68527   2.374   4.021   5.431 -4.3126 -0.7064  0.0970
  508MOL0     H68528   2.324   3.992   5.596 -0.5716  0.3687  0.6548
  508MOL0     H68529   2.501   4.225   5.515 -3.1442  0.0489 -1.6237
  508MOL0     H68530   2.488   4.153   5.670 -3.1133 -2.7901  0.7059
  508MOL0     H68531   2.623   3.912   5.699  0.3957 -0.0444 -0.1933
  508MOL0     H68532   2.827   3.760   5.679 -2.7780 -2.4247  0.2281
  508MOL0     H68533   2.768   3.685   5.536 -1.2759  0.9050 -0.6534
  508MOL0     H68534   3.012   3.655   5.542  2.5956  1.3783  0.9290
  508MOL0     H68535   2.992   3.782   5.413  2.9269 -0.5023 -0.4690
  508MOL0     H68536   3.069   3.807   5.708  0.6474  0.1572  0.0933
  508MOL0     H68537   3.028   3.948   5.619 -0.8633 -0.2220 -1.1270
  508MOL0     H68538   3.262   3.939   5.613  1.0251 -2.5211  2.8048
  508MOL0     H68539   3.209   3.901   5.454 -2.3033  2.2656  1.3728
  508MOL0     H68540   3.453   3.947   5.486  2.5799  1.5434  3.4809
  508MOL0     H68541   3.688   3.913   5.471  2.4070 -0.6155  2.3436
  508MOL0     H68542   4.076   3.962   5.649 -1.5291 -0.2189  0.2848
  508MOL0     H68543   4.318   3.921   5.679  0.4750 -1.5700  0.7995
  508MOL0     H68544   4.550   3.865   5.576 -0.7474 -2.2772 -2.6298
  508MOL0     H68545   4.514   3.817   5.743  2.2415 -1.0440  0.4124
  508MOL0     H68546   4.684   3.602   5.675  2.9959 -0.4327 -2.0705
  508MOL0     H68547   4.742   3.723   5.557 -0.8558  1.5775  0.6213
  508MOL0     H68548   4.754   3.891   5.750  2.6043 -0.7103 -1.0520
  508MOL0     H68549   4.709   3.770   5.863  0.9899 -1.9397  0.3386
  508MOL0     H68550   4.943   3.748   5.675  2.6639  1.2458  1.0337
  508MOL0     H68551   4.909   3.646   5.805 -1.6849  0.5515 -0.5481
  508MOL0     H68552   4.924   3.851   5.963  1.4574 -0.0541  0.5738
  508MOL0     H68553   4.930   3.952   5.826  1.1783 -0.5312 -2.1227
  508MOL0     H68554   5.158   3.750   5.860  0.5149 -0.8338  0.2619
  508MOL0     H68555   5.144   3.886   5.747 -1.0497  1.3110  1.5796
  508MOL0     H68556   5.136   3.926   6.039  0.5046 -1.8559  0.1156
  508MOL0     H68557   5.144   4.048   5.923 -1.0769 -0.6180  2.6344
  508MOL0     H68558   5.378   3.994   6.028  0.2656  0.5358 -1.6499
  508MOL0     H68559   5.352   3.828   5.947  1.3176 -1.1615  3.3419
  508MOL0     H68560   4.273   3.566   5.450  0.6819 -0.6287 -0.3528
  508MOL0     H68561   4.031   3.620   5.417 -0.1571 -0.1980  1.3928
  508MOL0     H68562   3.638   3.515   5.637  3.5186  0.8257 -1.0769
  508MOL0     H68563   3.399   3.551   5.655 -0.4238  0.3291 -0.8040
  508MOL0     H68564   1.744   4.044   5.029  0.9795  0.4562 -0.0823
  508MOL0     H68565   1.566   3.949   4.879 -2.4626 -1.0576 -0.2763
  508MOL0     H68566   1.180   3.882   4.712  1.5428  1.4865  0.7661
  508MOL0     H68567   1.023   3.794   4.551 -0.1105  1.0573 -1.4843
  508MOL0     H68568   0.865   4.064   4.194  1.0942  0.6804  1.5587
  508MOL0     H68569   0.789   4.100   4.346  1.0560 -0.5137  1.8992
  508MOL0     H68570   0.745   3.824   4.203  3.2805  0.7367  0.3950
  508MOL0     H68571   0.639   3.955   4.154  1.6086  1.2345 -1.8989
  508MOL0     H68572   0.645   3.950   4.437  0.7146 -0.7011  0.3107
  508MOL0     H68573   0.614   3.789   4.386 -1.7284 -0.9506 -2.5139
  508MOL0     H68574   0.447   4.035   4.305  1.3991  0.7542 -0.1595
  508MOL0     H68575   0.435   3.871   4.233  0.2000 -0.2209  0.0799
  508MOL0     H68576   0.233   3.812   4.592 -0.7599  1.4838 -0.6585
  508MOL0     H68577   1.005   4.176   4.361  1.3081  0.7023 -1.7270
  508MOL0     H68578   1.118   4.355   4.416 -0.5500 -2.5911  0.3663
  508MOL0     H68579   1.168   4.373   4.582 -1.7974 -1.0236  1.2265
  508MOL0     H68580   1.283   4.302   4.456  0.2553 -1.1367 -0.3750
  509MOL0     O68581   5.174   0.213   2.902 -0.1023 -0.1092 -0.4876
  509MOL0     C68582   5.151   0.129   2.988  0.0184  0.1019 -0.2354
  509MOL0     O68583   5.252   0.045   3.032 -0.8165  0.3641  0.5023
  509MOL0     C68584   5.382   0.052   2.985 -0.1177  1.1631 -1.2392
  509MOL0     C68585   5.496   0.097   3.063  0.8284  0.1444  0.5851
  509MOL0     C68586   5.621   0.103   3.004  1.0043 -0.4885  0.4383
  509MOL0     C68587   5.638   0.063   2.871 -0.0284 -0.6547 -0.5884
  509MOL0     O68588   5.758   0.085   2.809 -0.1682  0.2359 -0.9723
  509MOL0     C68589   5.868   0.013   2.881 -0.0363  0.4062  0.2581
  509MOL0     C68590   6.004   0.057   2.821 -0.7273 -0.8575 -0.0626
  509MOL0     C68591   6.126   0.010   2.910 -0.6761  0.1761 -0.3012
  509MOL0     C68592   6.263   0.027   2.836  0.6087 -0.4527  0.3886
  509MOL0     C68593   6.382   0.021   2.926  0.3930  0.2536  0.5683
  509MOL0     C68594   6.511  -0.021   2.856 -0.0628 -0.0769  0.6017
  509MOL0     C68595   6.632  -0.004   2.949  0.5641 -0.1049 -0.1188
  509MOL0     C68596   6.753   0.002   2.856  0.8357  0.1098 -0.3655
  509MOL0     N68597   6.881  -0.017   2.923  0.3416  0.1758 -0.8055
  509MOL0     C68598   7.006  -0.051   2.870 -0.4396 -0.4239 -0.0614
  509MOL0     C68599   7.101  -0.042   2.972  0.9861  0.1949 -0.7613
  509MOL0     C68600   7.247  -0.077   2.961  0.5621 -0.3109  0.3825
  509MOL0     C68601   7.333  -0.015   3.071  0.5133  0.3888  0.2728
  509MOL0     C68602   7.384   0.129   3.029  0.2046  0.1698 -0.2934
  509MOL0     C68603   7.485   0.138   2.916  0.8592  0.1986 -0.5032
  509MOL0     O68604   7.606   0.072   2.951 -0.2241  0.1719 -0.2725
  509MOL0     C68605   7.692   0.163   3.010  0.4879  0.7000  0.5888
  509MOL0     C68606   7.747   0.260   2.935  0.0340  0.1041  0.6953
  509MOL0     C68607   7.840   0.353   2.981 -0.5762 -0.2882 -0.3926
  509MOL0     C68608   7.871   0.357   3.124 -0.2984 -0.1941  1.3594
  509MOL0     C68609   7.987   0.435   3.174 -0.7000 -0.2052  0.4668
  509MOL0     O68610   8.022   0.549   3.099  0.3633  0.2483 -0.1096
  509MOL0     C68611   8.132   0.627   3.129  0.1313 -0.0547  0.4110
  509MOL0     C68612   8.238   0.597   3.216 -0.2528  0.3564 -0.3328
  509MOL0     C68613   8.348   0.682   3.242  0.6175  0.6463  0.6644
  509MOL0     C68614   8.357   0.802   3.166 -0.2968  0.1030  0.1929
  509MOL0     O68615   8.464   0.884   3.187  0.2989  0.2527 -1.1697
  509MOL0     C68616   8.589   0.831   3.204 -1.1173 -0.3191  0.0053
  509MOL0     C68617   8.631   0.848   3.354  0.0495 -0.0260  0.2053
  509MOL0     C68618   8.790   0.827   3.385  0.1120 -0.4477  0.7574
  509MOL0     C68619   8.828   0.683   3.402  0.0490 -0.7102 -0.1225
  509MOL0     C68620   8.962   0.666   3.468 -0.0298 -0.3525 -0.4146
  509MOL0     C68621   9.079   0.699   3.376 -0.9992  0.1337  0.2743
  509MOL0     C68622   9.202   0.694   3.448  1.3775 -0.3210  0.3301
  509MOL0     C68623   9.236   0.793   3.562 -0.1476  0.0082 -0.1853
  509MOL0    Cl68624   9.422   0.782   3.566 -0.2514 -0.4593 -0.0031
  509MOL0     C68625   8.245   0.838   3.090 -0.2158  0.0109  0.6692
  509MOL0     C68626   8.135   0.757   3.069  0.2475  0.0372  0.3550
  509MOL0     O68627   8.036   0.398   3.282 -0.2792 -1.0085 -0.0047
  509MOL0     C68628   7.801   0.265   3.202 -0.2415 -0.5259 -0.7407
  509MOL0     C68629   7.714   0.172   3.148  0.5263 -0.2743 -0.5162
  509MOL0     N68630   7.037   0.004   3.082 -0.1421  0.1712 -0.2902
  509MOL0     N68631   6.907   0.023   3.055  0.2213  0.3175  0.5384
  509MOL0     C68632   5.529   0.030   2.796 -1.0158 -0.0323  1.1962
  509MOL0     C68633   5.408   0.018   2.853 -0.0152  0.8807 -0.2594
  509MOL0     C68634   5.019   0.105   3.049  1.0238 -0.6299 -0.6263
  509MOL0     C68635   5.020   0.033   3.166  0.0957  0.5093  0.0298
  509MOL0     C68636   4.910   0.007   3.233  0.1631  0.1720 -0.5081
  509MOL0     C68637   4.781   0.054   3.205  0.2303 -0.8146 -0.1838
  509MOL0     O68638   4.679   0.013   3.289  0.0254 -0.0155  0.6543
  509MOL0     C68639   4.550   0.038   3.244  0.1266 -0.2217  1.0486
  509MOL0     C68640   4.456  -0.054   3.321 -0.3326 -0.6798  0.0804
  509MOL0     C68641   4.428  -0.001   3.467  0.7829 -0.2376 -0.1499
  509MOL0     C68642   4.290  -0.047   3.523 -0.7337  0.5076  0.0521
  509MOL0     C68643   4.294  -0.002   3.669  0.5288 -1.3779  0.9427
  509MOL0     C68644   4.288   0.035   3.789  0.7696 -1.1150 -0.1062
  509MOL0     C68645   4.774   0.132   3.085 -0.2954 -0.0090  0.0425
  509MOL0     C68646   4.894   0.157   3.008  0.1595 -0.2094 -0.2694
  509MOL0     C68647   4.863   0.236   2.885  0.3536 -0.9153 -0.6455
  509MOL0     H68648   5.471   0.117   3.167 -4.6274 -1.9662  0.0353
  509MOL0     H68649   5.705   0.147   3.057 -0.9540  4.4524 -0.0382
  509MOL0     H68650   5.884   0.025   2.989  0.8404 -0.5607  0.2522
  509MOL0     H68651   5.864  -0.094   2.860 -3.4768  0.1198  1.7261
  509MOL0     H68652   5.997   0.166   2.817 -1.2864 -0.8123 -5.6152
  509MOL0     H68653   6.023   0.026   2.718  0.0469 -1.7130  0.3262
  509MOL0     H68654   6.114  -0.093   2.943  0.2187  0.2931  0.4131
  509MOL0     H68655   6.119   0.076   2.997  1.2848  0.1661 -0.0957
  509MOL0     H68656   6.253  -0.050   2.760 -1.0034 -0.0330  0.1184
  509MOL0     H68657   6.259   0.120   2.778 -5.4131 -1.0380 -0.7653
  509MOL0     H68658   6.399   0.122   2.966 -1.6822  1.0149 -0.3531
  509MOL0     H68659   6.360  -0.046   3.009 -0.4199  1.5744  1.4573
  509MOL0     H68660   6.493  -0.128   2.841 -0.4914  0.0575  0.1170
  509MOL0     H68661   6.521   0.037   2.764 -0.2209 -0.0869  0.5779
  509MOL0     H68662   6.643  -0.087   3.019  0.1654  0.4549  0.6223
  509MOL0     H68663   6.624   0.084   3.013  2.3504  0.3764 -0.5046
  509MOL0     H68664   6.744  -0.082   2.786 -0.1313 -1.5693  1.6596
  509MOL0     H68665   6.754   0.101   2.811  0.4937  1.3454  2.1766
  509MOL0     H68666   7.031  -0.074   2.767  0.2547 -1.3769  0.2977
  509MOL0     H68667   7.248  -0.186   2.962  3.2530 -0.5073 -3.0540
  509MOL0     H68668   7.285  -0.052   2.861  0.7581  0.6750  0.6867
  509MOL0     H68669   7.277  -0.009   3.165  2.4837 -0.3002  1.5513
  509MOL0     H68670   7.423  -0.078   3.073 -0.7771 -1.8417 -3.1961
  509MOL0     H68671   7.419   0.190   3.112 -2.7086  2.3636 -0.5160
  509MOL0     H68672   7.302   0.191   2.991  1.4275  1.8780 -0.2506
  509MOL0     H68673   7.496   0.243   2.889  0.5579 -0.0460 -1.6151
  509MOL0     H68674   7.435   0.093   2.830 -0.5900  1.4042 -0.3331
  509MOL0     H68675   7.729   0.254   2.828  0.0071  1.1850  0.6259
  509MOL0     H68676   7.881   0.423   2.909 -0.6306  0.0055 -0.1440
  509MOL0     H68677   8.238   0.505   3.275  1.6064  0.9379  0.6283
  509MOL0     H68678   8.421   0.650   3.315  1.5310  1.2255  0.0134
  509MOL0     H68679   8.599   0.728   3.170  2.4383 -0.5285  1.2759
  509MOL0     H68680   8.666   0.885   3.147  0.5157 -1.8092  0.7273
  509MOL0     H68681   8.599   0.950   3.380  2.2846  0.3525  1.7687
  509MOL0     H68682   8.571   0.781   3.416 -0.3809 -1.1389 -1.3552
  509MOL0     H68683   8.847   0.872   3.304 -2.2287 -0.1340 -0.8355
  509MOL0     H68684   8.816   0.884   3.475  0.0841  3.8325 -1.6473
  509MOL0     H68685   8.811   0.625   3.311 -3.8477 -0.9260  0.5369
  509MOL0     H68686   8.756   0.648   3.477 -0.0167  2.1390  1.3058
  509MOL0     H68687   8.981   0.564   3.505 -0.6961 -0.1850  0.4099
  509MOL0     H68688   8.975   0.720   3.562 -0.6837 -2.6013  1.0603
  509MOL0     H68689   9.078   0.631   3.291  1.8998 -0.0570  0.3016
  509MOL0     H68690   9.073   0.803   3.343  4.0508  0.7889  0.7265
  509MOL0     H68691   9.275   0.716   3.370  0.7982  0.9204  0.1203
  509MOL0     H68692   9.225   0.594   3.486  1.4541  0.9821  4.1858
  509MOL0     H68693   9.199   0.893   3.539 -0.8762 -0.0983  0.4852
  509MOL0     H68694   9.195   0.776   3.662  0.3969  2.1431  0.4554
  509MOL0     H68695   8.255   0.932   3.037 -0.3527  0.7641  1.9506
  509MOL0     H68696   8.059   0.779   2.995  0.8221  2.1945  0.3143
  509MOL0     H68697   7.829   0.245   3.305 -0.9063 -3.3012 -1.0199
  509MOL0     H68698   7.673   0.091   3.208  0.1039 -1.3517 -2.1984
  509MOL0     H68699   5.548   0.006   2.692  0.0489  2.4403  0.7632
  509MOL0     H68700   5.318  -0.019   2.805  0.8613 -3.8327  1.1895
  509MOL0     H68701   5.107  -0.024   3.196 -1.2399 -2.1778 -0.8598
  509MOL0     H68702   4.923  -0.066   3.312 -1.0360  1.8719  1.3742
  509MOL0     H68703   4.546   0.019   3.137  2.0291  1.6639  0.5693
  509MOL0     H68704   4.536   0.144   3.266 -0.7979 -0.8906  4.2834
  509MOL0     H68705   4.503  -0.152   3.334  0.7754  0.0102  1.5343
  509MOL0     H68706   4.361  -0.063   3.269 -0.7271  0.2531  0.6172
  509MOL0     H68707   4.419   0.108   3.470  0.0118 -0.3217  1.6489
  509MOL0     H68708   4.508  -0.030   3.535 -0.8592 -1.2199  1.4588
  509MOL0     H68709   4.207  -0.008   3.463  1.2607  1.9197 -1.9380
  509MOL0     H68710   4.285  -0.156   3.527  3.9543  0.1197  1.5903
  509MOL0     H68711   4.288   0.055   3.894  1.0675 -0.0984 -0.2931
  509MOL0     H68712   4.680   0.177   3.054 -1.4587 -2.6709 -0.6404
  509MOL0     H68713   4.897   0.339   2.901  1.5478 -1.1406 -1.5963
  509MOL0     H68714   4.921   0.193   2.803  0.1222  0.4950 -1.6029
  509MOL0     H68715   4.755   0.241   2.867  0.4808  0.0214 -1.2811
  510MOL0     O68716   5.218   9.683   8.166 -0.8374  0.2911  0.5471
  510MOL0     C68717   5.252   9.691   8.286  0.6765 -0.1907 -0.1359
  510MOL0     O68718   5.373   9.705   8.329  0.0988 -0.5180 -0.1595
  510MOL0     C68719   5.479   9.685   8.245  0.1786 -0.0980  0.0552
  510MOL0     C68720   5.543   9.803   8.203  0.4176  0.2409 -0.5336
  510MOL0     C68721   5.655   9.795   8.125  0.0023  0.1868  0.4873
  510MOL0     C68722   5.704   9.667   8.076  0.0517  0.2083  0.0901
  510MOL0     O68723   5.814   9.645   8.002  0.5542  0.1469  0.0314
  510MOL0     C68724   5.926   9.737   7.986 -0.1524  0.0905 -0.2660
  510MOL0     C68725   6.028   9.679   7.892 -0.2093 -0.4740  0.1490
  510MOL0     C68726   6.114   9.786   7.834 -0.1161  0.9673  0.6014
  510MOL0     C68727   6.227   9.737   7.744  0.0990 -1.0066 -0.5003
  510MOL0     C68728   6.321   9.854   7.717  0.1656 -0.3678 -0.0914
  510MOL0     C68729   6.440   9.806   7.634 -0.3011  0.4792  0.4550
  510MOL0     C68730   6.551   9.907   7.627 -1.0575  0.5420  0.4237
  510MOL0     C68731   6.660   9.865   7.522  0.2359  1.0558 -0.3202
  510MOL0     N68732   6.748   9.977   7.477  0.3781  0.3738  1.0683
  510MOL0     C68733   6.819   9.970   7.363  0.1478  0.3010 -0.8766
  510MOL0     C68734   6.920  10.059   7.379  0.3814 -0.2777  0.4073
  510MOL0     C68735   7.023  10.111   7.277  0.2351 -0.5792  0.0745
  510MOL0     C68736   7.163  10.046   7.290 -0.2637  0.3585 -0.6346
  510MOL0     C68737   7.232  10.042   7.428  0.3796 -0.2652 -0.3151
  510MOL0     C68738   7.259  10.191   7.466  0.4788  0.4678  0.0803
  510MOL0     O68739   7.372  10.241   7.390  0.4047 -0.2898  0.6256
  510MOL0     C68740   7.416  10.373   7.412  0.5231  0.9089 -0.2670
  510MOL0     C68741   7.331  10.461   7.485  0.9124 -0.2341 -0.0837
  510MOL0     C68742   7.356  10.596   7.505  0.2686 -0.1931  0.2303
  510MOL0     C68743   7.474  10.646   7.447 -0.1703  0.0509 -0.5809
  510MOL0     C68744   7.517  10.788   7.488  0.1497 -0.4975  0.7225
  510MOL0     O68745   7.505  10.830   7.618 -0.9474 -0.8371  0.6497
  510MOL0     C68746   7.533  10.960   7.647  0.1416  0.8495 -0.3531
  510MOL0     C68747   7.444  11.057   7.588 -0.0967 -0.5826 -0.9302
  510MOL0     C68748   7.477  11.195   7.615 -0.0926  0.0594  1.0606
  510MOL0     C68749   7.589  11.233   7.689  1.4049 -0.2029 -1.0332
  510MOL0     O68750   7.616  11.374   7.695 -0.2958 -0.2998  0.4384
  510MOL0     C68751   7.755  11.418   7.728  0.7384 -0.3218  0.3091
  510MOL0     C68752   7.820  11.424   7.587 -0.0540  0.2703  0.2866
  510MOL0     C68753   7.936  11.535   7.573  0.4609  0.3134  0.3033
  510MOL0     C68754   8.048  11.493   7.480  0.1583  0.1019 -0.2654
  510MOL0     C68755   8.168  11.592   7.471 -0.1501  0.2659  0.2343
  510MOL0     C68756   8.295  11.509   7.425  0.0526  0.3846  0.5457
  510MOL0     C68757   8.400  11.607   7.366 -0.0722  0.9016  0.1527
  510MOL0     C68758   8.393  11.638   7.217 -0.3698  0.5262 -0.3652
  510MOL0    Cl68759   8.557  11.704   7.155  0.0048  0.6145 -0.0096
  510MOL0     C68760   7.673  11.140   7.742 -0.1953 -0.8832 -0.9086
  510MOL0     C68761   7.639  11.002   7.729  0.6993  0.3725 -0.2188
  510MOL0     O68762   7.570  10.847   7.395 -0.3298  0.3785  0.2839
  510MOL0     C68763   7.558  10.565   7.373  0.2134  0.6099  0.1059
  510MOL0     C68764   7.525  10.428   7.353  0.1539  0.0140 -0.7714
  510MOL0     N68765   6.926  10.098   7.508 -0.0184 -0.5493  0.2890
  510MOL0     N68766   6.821  10.052   7.568  0.0897 -0.4652  0.0154
  510MOL0     C68767   5.626   9.549   8.104  0.7102 -0.3382 -0.1531
  510MOL0     C68768   5.509   9.554   8.188 -0.2283  0.1429  0.4994
  510MOL0     C68769   5.149   9.702   8.395 -0.1060 -0.1979  0.2454
  510MOL0     C68770   5.181   9.782   8.503 -0.2131 -1.0123  0.3835
  510MOL0     C68771   5.090   9.780   8.608 -0.4448 -0.2902  0.2132
  510MOL0     C68772   4.983   9.700   8.615  0.1424 -0.0600  0.4437
  510MOL0     O68773   4.926   9.683   8.739 -0.6622 -0.4169  0.4909
  510MOL0     C68774   4.799   9.608   8.760 -1.2401  0.1392  0.3448
  510MOL0     C68775   4.813   9.454   8.761  0.3283 -0.5963 -0.4419
  510MOL0     C68776   4.669   9.389   8.772 -0.8951 -0.2408  0.4212
  510MOL0     C68777   4.678   9.245   8.825  0.1965 -0.0020 -0.4015
  510MOL0     C68778   4.761   9.157   8.749  0.3835  0.7674 -0.2497
  510MOL0     C68779   4.820   9.079   8.676 -0.6391  0.0880 -0.4547
  510MOL0     C68780   4.952   9.623   8.502  0.8595 -0.4770 -0.3250
  510MOL0     C68781   5.035   9.625   8.388 -0.2710 -0.1806  0.0330
  510MOL0     C68782   4.977   9.550   8.271  0.3793 -0.3423 -0.3783
  510MOL0     H68783   5.491   9.890   8.242 -0.0529 -0.3690  0.2472
  510MOL0     H68784   5.704   9.887   8.096  1.0097 -0.2357  0.8381
  510MOL0     H68785   5.899   9.835   7.947 -1.7811  0.4542  1.5554
  510MOL0     H68786   5.976   9.745   8.083  0.3225 -0.7925 -0.4218
  510MOL0     H68787   5.970   9.633   7.812  0.8907 -3.9631  1.1899
  510MOL0     H68788   6.086   9.599   7.939  0.4639 -0.7107 -1.0425
  510MOL0     H68789   6.158   9.841   7.918  2.8676  0.6427 -0.6210
  510MOL0     H68790   6.048   9.850   7.776 -0.6582  0.5662  0.7744
  510MOL0     H68791   6.284   9.655   7.789  3.7099  1.6346  0.2187
  510MOL0     H68792   6.176   9.701   7.654  0.1214  0.6700 -1.2311
  510MOL0     H68793   6.269   9.936   7.667  1.1554 -0.2882 -1.0226
  510MOL0     H68794   6.354   9.894   7.813  0.4009  2.1391 -1.1556
  510MOL0     H68795   6.477   9.709   7.667 -2.1839 -0.4417 -0.0598
  510MOL0     H68796   6.403   9.801   7.531 -0.1670 -1.2978  0.4691
  510MOL0     H68797   6.601   9.902   7.724 -1.8354 -0.8886  0.7927
  510MOL0     H68798   6.520  10.012   7.626  1.1002  1.2491  1.7057
  510MOL0     H68799   6.733   9.798   7.569 -0.1415  1.1401  0.3928
  510MOL0     H68800   6.624   9.814   7.432 -0.5755 -1.0925  1.1619
  510MOL0     H68801   6.785   9.922   7.271 -0.0910  1.4345 -1.3947
  510MOL0     H68802   6.971  10.117   7.181  2.5152  1.8735 -1.1328
  510MOL0     H68803   7.044  10.217   7.293  3.3785 -1.2314  1.0598
  510MOL0     H68804   7.151   9.940   7.265  2.7673 -0.3570  0.5287
  510MOL0     H68805   7.221  10.084   7.205 -0.6339 -1.0608 -1.5526
  510MOL0     H68806   7.328   9.989   7.436  0.4881  0.0217  0.3609
  510MOL0     H68807   7.166   9.996   7.502  1.3636  0.6116  1.1622
  510MOL0     H68808   7.278  10.209   7.572  1.9667  0.2448 -0.1292
  510MOL0     H68809   7.170  10.253   7.448 -0.5798 -1.0817 -0.1927
  510MOL0     H68810   7.240  10.427   7.534  0.7950 -0.5255 -0.4983
  510MOL0     H68811   7.290  10.664   7.556  1.8245  1.6819 -0.1528
  510MOL0     H68812   7.370  11.028   7.514  0.2468 -0.5611 -1.2856
  510MOL0     H68813   7.416  11.276   7.577 -0.2500 -1.2871 -1.8282
  510MOL0     H68814   7.750  11.519   7.769 -3.6171 -0.5849  0.8768
  510MOL0     H68815   7.806  11.351   7.798  1.7389 -2.7661 -2.5471
  510MOL0     H68816   7.869  11.327   7.573  2.2199  0.8384  3.2831
  510MOL0     H68817   7.744  11.441   7.510  0.8167  1.4448 -0.3511
  510MOL0     H68818   7.883  11.619   7.526 -0.7265 -0.8608 -0.5313
  510MOL0     H68819   7.966  11.561   7.675  1.2713 -0.0971  0.1773
  510MOL0     H68820   8.020  11.465   7.378  3.9614  1.4339 -1.8459
  510MOL0     H68821   8.079  11.398   7.525 -0.4231 -1.4244 -2.8781
  510MOL0     H68822   8.184  11.637   7.569  1.3301  1.4370 -0.5000
  510MOL0     H68823   8.156  11.679   7.406 -0.2745  0.0857  0.0149
  510MOL0     H68824   8.338  11.449   7.505 -0.3751 -2.5725 -1.2585
  510MOL0     H68825   8.271  11.438   7.345 -0.9899  2.8523 -1.4745
  510MOL0     H68826   8.498  11.562   7.383 -0.0035  1.1750  0.4778
  510MOL0     H68827   8.407  11.701   7.421 -1.1445  2.3485 -2.0787
  510MOL0     H68828   8.363  11.554   7.154 -1.5395  0.5823  0.0878
  510MOL0     H68829   8.318  11.713   7.188 -1.1286 -0.3157 -0.6194
  510MOL0     H68830   7.761  11.167   7.800 -0.1430 -2.4537 -0.2125
  510MOL0     H68831   7.700  10.924   7.773  0.9803 -0.0011 -1.2532
  510MOL0     H68832   7.652  10.604   7.336  0.8587 -0.6676  0.3398
  510MOL0     H68833   7.596  10.358   7.310 -1.8237 -2.2171 -0.5974
  510MOL0     H68834   5.658   9.466   8.042  1.9717  0.9109 -1.2449
  510MOL0     H68835   5.455   9.462   8.206  1.0863 -0.5800  0.8580
  510MOL0     H68836   5.282   9.819   8.523  0.1957 -3.0384  2.6084
  510MOL0     H68837   5.130   9.824   8.699 -0.0586 -1.3755  0.5878
  510MOL0     H68838   4.723   9.640   8.688  1.9002  4.2394 -1.5109
  510MOL0     H68839   4.763   9.630   8.862 -1.0438 -1.3670  0.7590
  510MOL0     H68840   4.872   9.405   8.839 -0.7515 -2.0184 -0.4804
  510MOL0     H68841   4.856   9.420   8.666 -2.0568 -0.9296 -1.4826
  510MOL0     H68842   4.623   9.388   8.673  1.5080  2.4865 -0.8782
  510MOL0     H68843   4.604   9.442   8.843 -0.1705 -0.3715  1.2054
  510MOL0     H68844   4.707   9.237   8.931 -4.1249 -1.7849  0.8415
  510MOL0     H68845   4.576   9.207   8.815 -0.4789  1.3051  1.0748
  510MOL0     H68846   4.872   9.009   8.613  1.8167  0.6711  0.7809
  510MOL0     H68847   4.858   9.571   8.517  0.9152  0.0158  2.3489
  510MOL0     H68848   4.930   9.458   8.306 -0.9320  0.8533  1.1436
  510MOL0     H68849   4.894   9.607   8.228  0.7791 -0.2151 -0.9947
  510MOL0     H68850   5.051   9.526   8.193 -0.0896  1.6100 -1.5020
  511MOL0     O68851   7.071  10.543   8.210  0.6663 -0.1829 -0.3780
  511MOL0     C68852   7.068  10.423   8.213  0.3915  0.8470 -1.1485
  511MOL0     O68853   7.172  10.340   8.167 -0.6970  0.6914 -0.0174
  511MOL0     C68854   7.285  10.396   8.112 -0.0497  0.6659  0.1722
  511MOL0     C68855   7.307  10.384   7.973  1.3761  0.5835  1.0409
  511MOL0     C68856   7.422  10.434   7.913  0.9067 -0.5436 -0.4213
  511MOL0     C68857   7.523  10.492   7.991  0.0300 -0.4337  0.4135
  511MOL0     O68858   7.641  10.542   7.936  0.1858  0.7393  0.0513
  511MOL0     C68859   7.643  10.590   7.804  0.5881  0.1390  0.1060
  511MOL0     C68860   7.786  10.631   7.765  0.5853 -0.1485  1.3475
  511MOL0     C68861   7.878  10.509   7.746  0.0559 -0.4580 -0.2438
  511MOL0     C68862   8.019  10.544   7.680 -0.4502  0.2725 -0.4550
  511MOL0     C68863   8.108  10.420   7.663  0.3585 -0.3321  0.4399
  511MOL0     C68864   8.211  10.449   7.552 -1.1173 -0.7288 -0.2449
  511MOL0     C68865   8.157  10.460   7.405 -0.2160 -0.7173  0.2665
  511MOL0     C68866   8.191  10.345   7.316 -0.1217  0.1410 -0.0929
  511MOL0     N68867   8.334  10.319   7.291  0.3625 -0.3978 -0.1290
  511MOL0     C68868   8.431  10.408   7.247  0.2630 -0.4136  0.8844
  511MOL0     C68869   8.544  10.342   7.251  0.5722  0.4898  0.0365
  511MOL0     C68870   8.677  10.380   7.218 -0.4008  0.2209  0.1789
  511MOL0     C68871   8.706  10.370   7.070  0.9383  0.1900 -0.3280
  511MOL0     C68872   8.854  10.391   7.037 -0.2300  0.1463  0.2978
  511MOL0     C68873   8.895  10.395   6.892  0.4744  0.5995  0.1721
  511MOL0     O68874   8.861  10.518   6.832 -0.3858  0.5141 -0.6154
  511MOL0     C68875   8.887  10.524   6.702  0.2033  0.3803 -0.3586
  511MOL0     C68876   9.021  10.557   6.665 -0.4611 -0.3712  1.1568
  511MOL0     C68877   9.052  10.553   6.525 -0.5188 -0.0484 -0.6096
  511MOL0     C68878   8.960  10.505   6.436 -0.6545  0.6854  0.1092
  511MOL0     C68879   8.986  10.510   6.289  0.2578  0.2877 -0.6394
  511MOL0     O68880   9.086  10.591   6.247 -0.3777  0.5167 -0.4151
  511MOL0     C68881   9.126  10.587   6.111  0.6578  0.3062  1.1512
  511MOL0     C68882   9.101  10.485   6.017 -0.0322 -0.0088 -0.1325
  511MOL0     C68883   9.132  10.509   5.885  0.6933  0.5779  0.4638
  511MOL0     C68884   9.178  10.629   5.835 -0.1970  0.7372 -0.0356
  511MOL0     O68885   9.215  10.650   5.705 -0.6054 -0.3090 -0.0818
  511MOL0     C68886   9.298  10.550   5.645 -0.1453  0.7748  0.0903
  511MOL0     C68887   9.442  10.606   5.650  0.0806  0.1864  0.4346
  511MOL0     C68888   9.545  10.535   5.564  0.1364 -0.0091 -0.0113
  511MOL0     C68889   9.660  10.641   5.535  0.3452 -0.3555  0.4078
  511MOL0     C68890   9.780  10.572   5.460 -0.5156 -0.0325  0.1704
  511MOL0     C68891   9.889  10.678   5.456  0.2692 -0.6711 -0.2318
  511MOL0     C68892  10.016  10.635   5.401 -0.3248  0.4831 -0.1164
  511MOL0     C68893  10.131  10.739   5.404 -0.1063 -0.2774 -0.2241
  511MOL0    Cl68894  10.175  10.812   5.559 -0.2877 -0.3136  0.8383
  511MOL0     C68895   9.179  10.741   5.925  0.9187  0.7810 -0.0414
  511MOL0     C68896   9.152  10.721   6.058 -0.5071  0.5742  1.1953
  511MOL0     O68897   8.918  10.445   6.223 -0.5825  0.7107  0.0087
  511MOL0     C68898   8.827  10.480   6.475 -0.6675  0.1570  0.6369
  511MOL0     C68899   8.787  10.486   6.614 -0.3147 -1.0285  0.3844
  511MOL0     N68900   8.519  10.211   7.297 -0.5760 -0.3997  0.0273
  511MOL0     N68901   8.396  10.206   7.328  0.1248 -0.9746 -0.3586
  511MOL0     C68902   7.508  10.503   8.128  0.2758 -0.3788 -0.3635
  511MOL0     C68903   7.383  10.458   8.191 -0.2738  0.0986 -0.9609
  511MOL0     C68904   6.953  10.347   8.286  0.2389 -0.4649  0.8926
  511MOL0     C68905   6.929  10.218   8.248 -0.3305  0.2169  0.1118
  511MOL0     C68906   6.821  10.148   8.295 -0.3547  0.4123  0.1457
  511MOL0     C68907   6.742  10.195   8.392 -0.1022  0.5099  0.8389
  511MOL0     O68908   6.647  10.110   8.427  0.4638 -0.4080 -0.7669
  511MOL0     C68909   6.573  10.141   8.547  0.5231  0.1306  0.2962
  511MOL0     C68910   6.452  10.230   8.521 -0.3021 -0.0369 -0.1570
  511MOL0     C68911   6.388  10.265   8.658 -0.3033  0.8564  0.0326
  511MOL0     C68912   6.263  10.357   8.644  0.6832  0.3284  0.1175
  511MOL0     C68913   6.140  10.302   8.585 -0.3196  0.5735  0.2132
  511MOL0     C68914   6.027  10.282   8.559 -0.2537 -0.2876 -1.0094
  511MOL0     C68915   6.765  10.323   8.430 -0.5890 -0.6679 -0.4610
  511MOL0     C68916   6.860  10.409   8.375  0.3406  0.1094 -0.6554
  511MOL0     C68917   6.861  10.558   8.413 -0.2343  0.0436 -0.6775
  511MOL0     H68918   7.230  10.334   7.916  2.1811 -2.2872  2.2694
  511MOL0     H68919   7.431  10.412   7.807 -0.7499 -2.8940 -0.1581
  511MOL0     H68920   7.601  10.516   7.734  1.3797 -0.1467 -0.0807
  511MOL0     H68921   7.586  10.683   7.792  2.6804  1.2142 -2.7738
  511MOL0     H68922   7.824  10.706   7.836  1.5300  1.5859 -0.8667
  511MOL0     H68923   7.779  10.690   7.673  2.4021 -0.3955  1.0020
  511MOL0     H68924   7.829  10.432   7.686  0.8190  0.3301 -1.9630
  511MOL0     H68925   7.901  10.454   7.837  2.6536 -0.3954 -0.7788
  511MOL0     H68926   7.989  10.587   7.584 -3.6225 -1.0740 -0.2120
  511MOL0     H68927   8.077  10.602   7.752  2.4902 -2.3148 -0.5557
  511MOL0     H68928   8.151  10.382   7.756 -0.6066 -0.5734  0.8034
  511MOL0     H68929   8.041  10.344   7.621 -0.4558  0.9357 -0.6377
  511MOL0     H68930   8.248  10.551   7.569 -0.7806 -1.0683  1.1836
  511MOL0     H68931   8.295  10.380   7.549 -0.1632  0.4207 -1.0676
  511MOL0     H68932   8.209  10.547   7.364 -2.8103  3.2768  4.5272
  511MOL0     H68933   8.050  10.484   7.406  0.1339  1.0936  2.6393
  511MOL0     H68934   8.143  10.253   7.349 -0.6587  0.1339 -0.8471
  511MOL0     H68935   8.135  10.367   7.224  0.2916  4.0098  0.4019
  511MOL0     H68936   8.433  10.506   7.202 -0.4134 -1.5253 -1.7611
  511MOL0     H68937   8.701  10.480   7.255  1.9531  1.2875 -3.6331
  511MOL0     H68938   8.747  10.311   7.266 -0.5769  0.4125  0.7121
  511MOL0     H68939   8.680  10.268   7.040  0.6023 -0.0664  0.7929
  511MOL0     H68940   8.641  10.433   7.008  1.7053  0.3637 -0.9786
  511MOL0     H68941   8.905  10.319   7.101 -1.7384 -0.0296  1.3588
  511MOL0     H68942   8.889  10.483   7.086  0.6069  0.1635 -0.3151
  511MOL0     H68943   8.849  10.317   6.830  1.4020 -0.7351  1.0788
  511MOL0     H68944   9.002  10.381   6.875  0.1411 -0.2875 -1.3423
  511MOL0     H68945   9.096  10.577   6.740 -2.1693 -2.4073  3.5916
  511MOL0     H68946   9.154  10.566   6.490  0.2857 -2.1896  0.6848
  511MOL0     H68947   9.051  10.391   6.038 -1.4769 -0.0543 -3.1596
  511MOL0     H68948   9.106  10.423   5.825 -1.2500 -0.0560  2.1036
  511MOL0     H68949   9.288  10.453   5.695 -0.7004 -0.0293 -1.5113
  511MOL0     H68950   9.270  10.527   5.542 -1.0533  1.9648  0.0529
  511MOL0     H68951   9.432  10.708   5.610  0.7161 -0.2452 -0.8667
  511MOL0     H68952   9.484  10.598   5.750 -1.2022 -2.6251  0.8476
  511MOL0     H68953   9.585  10.449   5.618  0.6794 -0.1013 -0.5486
  511MOL0     H68954   9.502  10.487   5.476  2.5291  1.9044 -2.4300
  511MOL0     H68955   9.707  10.680   5.627  0.2607  2.4307 -0.6288
  511MOL0     H68956   9.623  10.718   5.468 -0.4024 -0.5607  0.5800
  511MOL0     H68957   9.753  10.545   5.357  1.5039  1.8342 -0.9281
  511MOL0     H68958   9.822  10.480   5.503  0.2522 -0.4143 -1.3379
  511MOL0     H68959   9.853  10.756   5.388 -2.8738 -2.2002 -0.4895
  511MOL0     H68960   9.905  10.718   5.557  2.4073 -0.5770 -0.5563
  511MOL0     H68961  10.007  10.611   5.295 -1.2433  0.5523 -0.0580
  511MOL0     H68962  10.044  10.543   5.453 -0.8841  0.6483  0.4851
  511MOL0     H68963  10.218  10.695   5.356 -1.3403 -0.7651 -2.1334
  511MOL0     H68964  10.098  10.818   5.336 -0.1105  1.0535  1.2729
  511MOL0     H68965   9.222  10.832   5.884 -0.0698  0.0431 -2.9661
  511MOL0     H68966   9.161  10.804   6.128 -1.5650  2.9038 -1.2454
  511MOL0     H68967   8.748  10.452   6.406 -1.6777  3.0606  0.4980
  511MOL0     H68968   8.685  10.483   6.653 -0.5105  2.2121  0.3787
  511MOL0     H68969   7.580  10.552   8.193 -0.0064 -0.4026 -0.0272
  511MOL0     H68970   7.370  10.468   8.299 -1.2441 -0.9745 -0.9542
  511MOL0     H68971   7.004  10.178   8.181 -0.2056 -0.2016  0.4946
  511MOL0     H68972   6.785  10.052   8.258 -0.0250  1.1418 -2.2454
  511MOL0     H68973   6.639  10.175   8.627  2.4122 -1.3494 -0.5340
  511MOL0     H68974   6.529  10.050   8.588  0.4877  1.5021  3.5213
  511MOL0     H68975   6.379  10.178   8.458 -0.9178  0.9337 -0.2701
  511MOL0     H68976   6.478  10.325   8.473  3.8872 -0.6957  0.4793
  511MOL0     H68977   6.463  10.312   8.722  0.3520 -0.0880 -0.0095
  511MOL0     H68978   6.355  10.170   8.701 -1.9428  0.7582 -1.3389
  511MOL0     H68979   6.242  10.395   8.745 -5.7526  1.0557 -1.0816
  511MOL0     H68980   6.288  10.446   8.586  1.3641 -0.6260 -1.1108
  511MOL0     H68981   5.923  10.268   8.538 -0.4371 -0.8109  0.1815
  511MOL0     H68982   6.696  10.377   8.494 -2.0486 -2.3893 -0.5198
  511MOL0     H68983   6.845  10.619   8.323 -2.1441 -1.6465 -1.5666
  511MOL0     H68984   6.783  10.591   8.483 -1.2046  0.7597 -2.0337
  511MOL0     H68985   6.953  10.581   8.467 -2.0502  3.0176  1.4666
  512MOL0     O68986  10.228   2.963   0.605 -0.3588 -0.5114 -0.1692
  512MOL0     C68987  10.221   2.878   0.525 -0.9351 -0.0331 -0.4389
  512MOL0     O68988  10.328   2.804   0.478 -0.1560  0.4351  0.5668
  512MOL0     C68989  10.458   2.860   0.493  0.3472  0.7903  0.3590
  512MOL0     C68990  10.499   2.990   0.464 -0.1895 -0.8201 -0.1178
  512MOL0     C68991  10.634   3.027   0.470  0.2440  1.2192  1.1901
  512MOL0     C68992  10.730   2.930   0.507 -0.6342 -0.8028  0.5736
  512MOL0     O68993  10.866   2.957   0.513  0.3942  0.3122  0.8897
  512MOL0     C68994  10.912   3.067   0.590  0.3943  0.3077 -0.9478
  512MOL0     C68995  11.063   3.051   0.598  0.0851 -0.6670  0.0302
  512MOL0     C68996  11.133   3.157   0.678 -0.1956 -0.2384  0.1774
  512MOL0     C68997  11.283   3.157   0.645  0.1620  0.4644  0.0367
  512MOL0     C68998  11.346   3.019   0.666  0.0045  0.0013 -0.7237
  512MOL0     C68999  11.468   3.009   0.582 -0.0849  1.0684 -0.5940
  512MOL0     C69000  11.575   3.129   0.601  0.4158 -0.1462 -0.0211
  512MOL0     C69001  11.626   3.158   0.746  0.6866 -0.4393 -0.1617
  512MOL0     N69002  11.684   3.290   0.735  0.4371 -0.1687  0.0675
  512MOL0     C69003  11.800   3.320   0.673 -0.6572  0.3015  0.7815
  512MOL0     C69004  11.820   3.449   0.719  0.1781 -0.3858  0.4101
  512MOL0     C69005  11.947   3.520   0.678  1.1938  0.4916 -0.5372
  512MOL0     C69006  12.057   3.532   0.785 -0.8493  1.1174  0.2452
  512MOL0     C69007  12.028   3.620   0.903 -0.2945  0.7628  0.5432
  512MOL0     C69008  12.150   3.635   0.990 -0.7901  0.3011 -0.1591
  512MOL0     O69009  12.199   3.509   1.040 -0.2917 -0.0555  0.1841
  512MOL0     C69010  12.318   3.487   1.103 -0.0926 -0.1374 -0.3543
  512MOL0     C69011  12.352   3.359   1.152 -0.2216  0.4657 -0.1665
  512MOL0     C69012  12.470   3.326   1.225  0.2677  0.6148 -0.6518
  512MOL0     C69013  12.558   3.430   1.256 -0.2666 -0.0368 -0.3431
  512MOL0     C69014  12.673   3.403   1.344 -0.9699  0.0931  0.7896
  512MOL0     O69015  12.747   3.508   1.374 -0.0809 -0.2626 -0.2254
  512MOL0     C69016  12.834   3.501   1.482 -0.6482 -0.7258  0.1308
  512MOL0     C69017  12.950   3.426   1.492  0.0886  0.5951 -0.2238
  512MOL0     C69018  13.043   3.436   1.593  0.3222  0.0306  0.0459
  512MOL0     C69019  13.016   3.513   1.702 -0.0514 -0.0215 -0.1350
  512MOL0     O69020  13.108   3.531   1.806  0.3556  0.3856  0.2151
  512MOL0     C69021  13.232   3.461   1.803 -0.1515 -0.8019 -0.2881
  512MOL0     C69022  13.321   3.497   1.919  0.8428  0.7584  0.0305
  512MOL0     C69023  13.355   3.647   1.905  0.0376  0.1017  0.8173
  512MOL0     C69024  13.455   3.685   2.015 -0.0531  0.2302 -0.0123
  512MOL0     C69025  13.547   3.797   1.964 -1.5316  0.0706  0.0136
  512MOL0     C69026  13.650   3.840   2.080  0.2200 -0.5686  0.2846
  512MOL0     C69027  13.739   3.959   2.046 -0.1431  0.0446  0.3418
  512MOL0     C69028  13.843   3.985   2.157  0.2010  0.1703  0.1132
  512MOL0    Cl69029  13.973   4.102   2.106 -0.1862 -0.2446 -0.1089
  512MOL0     C69030  12.899   3.585   1.698 -0.3584  0.2538  0.3078
  512MOL0     C69031  12.803   3.578   1.595 -1.4011 -0.4612  0.3421
  512MOL0     O69032  12.688   3.288   1.385 -0.0725 -1.0695 -0.9127
  512MOL0     C69033  12.534   3.564   1.211  0.9973 -0.3482 -0.0991
  512MOL0     C69034  12.407   3.591   1.149 -0.8644  0.1550  0.3153
  512MOL0     N69035  11.716   3.495   0.801  0.8525  0.0778 -0.7020
  512MOL0     N69036  11.640   3.393   0.809 -0.6722 -0.1720 -0.7653
  512MOL0     C69037  10.690   2.811   0.546 -0.5228 -0.1690  0.3866
  512MOL0     C69038  10.556   2.771   0.534  0.2392  0.7278 -0.8234
  512MOL0     C69039  10.087   2.830   0.487  0.7848  0.9050  0.9201
  512MOL0     C69040  10.077   2.700   0.429  0.6968 -0.5659 -0.0774
  512MOL0     C69041   9.954   2.669   0.371 -0.0934  0.4006  0.4600
  512MOL0     C69042   9.835   2.733   0.378  0.4543  0.0940 -0.5006
  512MOL0     O69043   9.719   2.668   0.326  0.3917 -0.1605  0.0507
  512MOL0     C69044   9.599   2.745   0.281 -0.1379 -0.4370 -0.7371
  512MOL0     C69045   9.539   2.664   0.171  0.5420 -0.2648  0.6448
  512MOL0     C69046   9.480   2.517   0.190 -0.3911 -0.5737  0.3275
  512MOL0     C69047   9.391   2.518   0.312  0.6638  0.1704 -0.4875
  512MOL0     C69048   9.308   2.394   0.314  0.8152  0.6013  0.5289
  512MOL0     C69049   9.260   2.290   0.357  0.2098 -0.5785 -0.0071
  512MOL0     C69050   9.843   2.855   0.447  0.6431  0.2849 -0.3298
  512MOL0     C69051   9.966   2.908   0.493  0.0328 -0.2576  0.4284
  512MOL0     C69052   9.957   3.029   0.580 -0.2653  0.9235  0.6725
  512MOL0     H69053  10.430   3.069   0.435  0.8807 -0.3264 -1.4129
  512MOL0     H69054  10.667   3.123   0.432 -2.2779  1.4861 -0.5364
  512MOL0     H69055  10.899   3.159   0.531  2.1094  1.3858  0.2601
  512MOL0     H69056  10.874   3.085   0.691  0.2973 -0.1234 -0.9073
  512MOL0     H69057  11.098   3.054   0.495  1.1926  1.7528  0.4073
  512MOL0     H69058  11.069   2.959   0.658 -0.6111 -1.3793 -0.9531
  512MOL0     H69059  11.120   3.150   0.786 -0.5680 -1.3707  0.0629
  512MOL0     H69060  11.087   3.250   0.643 -1.6479 -1.3490 -0.9907
  512MOL0     H69061  11.290   3.199   0.544 -0.4462  2.8350  0.9078
  512MOL0     H69062  11.338   3.228   0.707  0.3538 -0.2195  0.6530
  512MOL0     H69063  11.367   2.999   0.771  1.6898  3.0359 -0.4004
  512MOL0     H69064  11.268   2.944   0.643 -1.8520  1.9802 -1.2210
  512MOL0     H69065  11.502   2.910   0.612  2.1844  1.2548 -2.2671
  512MOL0     H69066  11.445   2.995   0.476 -2.4761 -0.9232  0.0998
  512MOL0     H69067  11.535   3.219   0.555 -1.1215 -1.6889 -1.8498
  512MOL0     H69068  11.662   3.096   0.543  2.1595  0.3527  2.1581
  512MOL0     H69069  11.538   3.170   0.810  0.3618 -0.1722 -0.6511
  512MOL0     H69070  11.697   3.085   0.786  2.0635  0.7677 -0.3232
  512MOL0     H69071  11.865   3.266   0.605  0.0965  1.7028  0.3276
  512MOL0     H69072  11.987   3.463   0.593  0.1244  1.0221 -1.4109
  512MOL0     H69073  11.911   3.619   0.652  2.5770  1.0668 -0.3651
  512MOL0     H69074  12.087   3.432   0.818  0.7821  1.9275  1.3239
  512MOL0     H69075  12.137   3.586   0.736  1.0439 -0.3620  1.5594
  512MOL0     H69076  11.946   3.583   0.965  0.4717  0.3547  1.3233
  512MOL0     H69077  11.992   3.718   0.870  0.1717  1.0895  0.9938
  512MOL0     H69078  12.120   3.695   1.077  2.3174  0.5616  0.8429
  512MOL0     H69079  12.229   3.694   0.943 -0.3959 -0.9754 -1.1595
  512MOL0     H69080  12.285   3.274   1.142 -0.3357  0.5974 -0.5484
  512MOL0     H69081  12.491   3.226   1.262 -3.6067 -0.7315 -1.5985
  512MOL0     H69082  12.970   3.358   1.410 -0.0449 -1.2182  1.1791
  512MOL0     H69083  13.132   3.374   1.588  0.1000 -0.2496 -0.4967
  512MOL0     H69084  13.219   3.352   1.804 -0.7885 -0.7408 -0.9716
  512MOL0     H69085  13.291   3.488   1.715 -1.9060  0.8760 -1.0185
  512MOL0     H69086  13.263   3.473   2.009 -2.2265  3.4538 -1.0303
  512MOL0     H69087  13.412   3.439   1.900 -1.0507 -1.9164 -1.3280
  512MOL0     H69088  13.406   3.671   1.811 -2.8410 -0.2305 -0.9538
  512MOL0     H69089  13.264   3.707   1.910  0.7070  1.1655  0.4366
  512MOL0     H69090  13.523   3.602   2.038  0.3844  0.8505  1.0191
  512MOL0     H69091  13.400   3.711   2.106  0.0534  1.5992 -0.3313
  512MOL0     H69092  13.491   3.881   1.921  0.5138  1.5146  0.0088
  512MOL0     H69093  13.611   3.768   1.880 -1.2926  2.3928 -0.6858
  512MOL0     H69094  13.588   3.870   2.165 -0.8005  1.7530 -1.1734
  512MOL0     H69095  13.704   3.750   2.109  0.6116  0.1518  1.8991
  512MOL0     H69096  13.682   4.051   2.026  0.9366  0.5942 -0.2776
  512MOL0     H69097  13.802   3.937   1.960  0.0176  0.0662  0.4537
  512MOL0     H69098  13.783   4.017   2.243  1.9105  0.0357  1.4152
  512MOL0     H69099  13.904   3.900   2.191  1.1172  0.8964  0.3472
  512MOL0     H69100  12.874   3.647   1.784 -1.5972  0.5346 -0.2374
  512MOL0     H69101  12.706   3.627   1.587 -1.0266  0.7039  2.2433
  512MOL0     H69102  12.595   3.649   1.239  0.0655  0.9487 -1.8283
  512MOL0     H69103  12.378   3.693   1.125  0.0247  0.4994  0.6393
  512MOL0     H69104  10.760   2.732   0.571 -0.9552 -0.1114  1.8644
  512MOL0     H69105  10.517   2.670   0.543 -0.4942  1.1310  0.7300
  512MOL0     H69106  10.155   2.628   0.406  0.3192 -1.2577  0.7237
  512MOL0     H69107   9.948   2.576   0.316 -0.5395  0.0271  1.1320
  512MOL0     H69108   9.622   2.850   0.262  1.5631 -0.5817  0.3237
  512MOL0     H69109   9.531   2.758   0.366 -0.6496  1.4951 -1.3961
  512MOL0     H69110   9.599   2.660   0.080 -0.5069 -0.9422 -0.0438
  512MOL0     H69111   9.464   2.738   0.139  2.4018  1.1791 -0.5772
  512MOL0     H69112   9.556   2.439   0.186 -2.4260 -2.6865  0.5380
  512MOL0     H69113   9.426   2.495   0.097  0.7415  1.1207 -0.7994
  512MOL0     H69114   9.457   2.526   0.399  1.1499 -0.2991 -0.8037
  512MOL0     H69115   9.327   2.606   0.309 -0.4744 -0.6311 -0.2582
  512MOL0     H69116   9.217   2.199   0.392  1.7807 -1.9163 -1.3380
  512MOL0     H69117   9.744   2.897   0.455  1.1103  1.2802  0.5279
  512MOL0     H69118   9.853   3.064   0.583 -1.9985 -3.0766 -2.2698
  512MOL0     H69119   9.982   3.015   0.686  0.1900 -0.1360  0.4400
  512MOL0     H69120  10.018   3.108   0.537 -0.7870  0.5072 -0.8884
  513MOL0     O69121   8.652   3.980   9.133 -0.1061  0.0806 -0.2660
  513MOL0     C69122   8.660   3.919   9.242 -0.6728  0.1248  0.0415
  513MOL0     O69123   8.772   3.849   9.278  0.1798 -0.0746  0.0527
  513MOL0     C69124   8.885   3.823   9.201  0.6079  0.2373 -0.2091
  513MOL0     C69125   8.909   3.853   9.066 -0.4852 -0.0589 -0.3459
  513MOL0     C69126   9.028   3.803   9.005 -0.5618 -0.7899  0.0655
  513MOL0     C69127   9.127   3.743   9.079  0.3459  0.7898  0.7875
  513MOL0     O69128   9.242   3.715   9.011 -0.4830 -0.2798 -0.1615
  513MOL0     C69129   9.358   3.723   9.095  0.6208 -0.2388  0.8447
  513MOL0     C69130   9.477   3.742   8.992  0.3303  0.2895 -0.7611
  513MOL0     C69131   9.616   3.726   9.046  0.6265 -0.0743  0.1564
  513MOL0     C69132   9.661   3.574   9.066 -0.6903 -0.4259 -1.1367
  513MOL0     C69133   9.805   3.569   9.108 -1.4884  0.2188  0.2810
  513MOL0     C69134   9.831   3.587   9.264 -0.6650  0.7071  0.3997
  513MOL0     C69135   9.989   3.590   9.278 -0.6907 -0.5430 -0.1584
  513MOL0     C69136  10.026   3.635   9.418  0.3094 -0.7570  0.4212
  513MOL0     N69137  10.179   3.650   9.434  0.6784 -0.2424  0.3084
  513MOL0     C69138  10.274   3.670   9.339  0.5116  0.4601 -0.8888
  513MOL0     C69139  10.380   3.714   9.406  0.3839  0.5999  0.0615
  513MOL0     C69140  10.516   3.755   9.341  0.1711  0.2784  1.0718
  513MOL0     C69141  10.614   3.640   9.324  0.1320  0.4571  0.1235
  513MOL0     C69142  10.658   3.572   9.453 -0.5809  1.0551 -0.6220
  513MOL0     C69143  10.692   3.665   9.573  0.7456  0.3386  0.3203
  513MOL0     O69144  10.727   3.606   9.701 -0.5556 -0.2419 -0.3514
  513MOL0     C69145  10.858   3.613   9.740 -0.8522  0.0330  0.0679
  513MOL0     C69146  10.928   3.490   9.736 -0.0956  0.0649  0.8841
  513MOL0     C69147  11.067   3.490   9.739 -0.7763 -0.7239 -0.5124
  513MOL0     C69148  11.134   3.611   9.766 -0.3019 -0.4885 -0.2009
  513MOL0     C69149  11.284   3.612   9.780  0.6189  0.3960 -0.3999
  513MOL0     O69150  11.350   3.735   9.801 -0.1113  0.5242 -0.1047
  513MOL0     C69151  11.488   3.733   9.809 -0.5875 -0.5547  0.6169
  513MOL0     C69152  11.556   3.684   9.924 -0.1000  0.5951  0.3051
  513MOL0     C69153  11.690   3.679   9.923 -0.3369 -0.6736  0.0518
  513MOL0     C69154  11.770   3.734   9.823 -0.2417 -0.0102  0.8528
  513MOL0     O69155  11.907   3.729   9.830 -0.3368  0.0608  0.8794
  513MOL0     C69156  11.979   3.693   9.712 -0.3236 -0.1210  0.9220
  513MOL0     C69157  12.128   3.685   9.767 -1.0138  0.1891  0.2621
  513MOL0     C69158  12.212   3.592   9.674  0.6656 -0.5760  0.8709
  513MOL0     C69159  12.350   3.591   9.716  0.4817  0.2525  0.0054
  513MOL0     C69160  12.423   3.484   9.635 -0.3767 -0.5904 -0.4852
  513MOL0     C69161  12.573   3.482   9.676  0.6255  0.4413  1.1893
  513MOL0     C69162  12.648   3.373   9.591  0.0373 -0.2051  0.5285
  513MOL0     C69163  12.800   3.363   9.619 -0.1732  0.6607 -0.8133
  513MOL0    Cl69164  12.834   3.369   9.793  0.5709 -0.3577  0.1613
  513MOL0     C69165  11.698   3.787   9.714 -0.0851 -0.4278  0.3705
  513MOL0     C69166  11.559   3.791   9.703 -0.2892 -0.3564 -0.6399
  513MOL0     O69167  11.338   3.498   9.767 -0.6633  0.3830 -0.1527
  513MOL0     C69168  11.062   3.726   9.784  0.6934 -0.3384 -0.1198
  513MOL0     C69169  10.928   3.724   9.771 -0.7442 -0.8343  0.5497
  513MOL0     N69170  10.357   3.703   9.545 -1.0951 -0.1079 -0.1716
  513MOL0     N69171  10.232   3.679   9.559  0.3034 -0.5682  0.2674
  513MOL0     C69172   9.103   3.715   9.212 -0.3332 -0.2422 -0.7927
  513MOL0     C69173   8.988   3.761   9.270  1.3485  0.2883 -0.4281
  513MOL0     C69174   8.536   3.912   9.317  0.7003  1.0263 -1.1374
  513MOL0     C69175   8.519   3.799   9.393  0.0211  0.6825 -0.3872
  513MOL0     C69176   8.406   3.776   9.472 -0.5145  0.7641  0.3066
  513MOL0     C69177   8.296   3.862   9.470  0.2356  0.0608 -0.0151
  513MOL0     O69178   8.182   3.845   9.547 -1.0670  0.7938 -0.4325
  513MOL0     C69179   8.194   3.773   9.672  0.7309  1.0169 -0.6311
  513MOL0     C69180   8.058   3.782   9.737  1.1712  0.9982 -0.1520
  513MOL0     C69181   8.026   3.678   9.847 -1.1162  0.1753  0.9419
  513MOL0     C69182   7.965   3.737   9.973 -1.3986  0.0464  0.3474
  513MOL0     C69183   7.825   3.757   9.952 -0.4588 -0.1430  0.0675
  513MOL0     C69184   7.708   3.774   9.922 -0.5445 -0.1910 -0.6885
  513MOL0     C69185   8.306   3.971   9.382  0.7637 -0.6058 -0.0094
  513MOL0     C69186   8.425   4.006   9.306 -0.8773 -0.1166  0.2170
  513MOL0     C69187   8.432   4.140   9.237  0.2300 -0.0446 -1.2721
  513MOL0     H69188   8.828   3.906   9.017 -1.4779  1.3624  2.5514
  513MOL0     H69189   9.040   3.828   8.900 -1.7195  0.2508  0.1705
  513MOL0     H69190   9.343   3.806   9.165 -0.3324 -0.5156  0.9884
  513MOL0     H69191   9.384   3.629   9.147 -3.1254 -1.3723  0.9768
  513MOL0     H69192   9.469   3.840   8.943 -0.3903 -0.6277 -2.5952
  513MOL0     H69193   9.459   3.668   8.913  0.0662  0.3779 -0.7851
  513MOL0     H69194   9.629   3.773   9.144 -0.1909 -0.0173  0.2478
  513MOL0     H69195   9.686   3.772   8.975 -0.3567  0.6197 -0.3933
  513MOL0     H69196   9.599   3.520   9.138  2.5622 -0.7068  1.6929
  513MOL0     H69197   9.648   3.528   8.967 -1.1280  0.4410 -1.4891
  513MOL0     H69198   9.838   3.470   9.076  0.3482  0.9185 -0.0804
  513MOL0     H69199   9.861   3.651   9.064 -0.6871  0.3490  1.4960
  513MOL0     H69200   9.787   3.680   9.301  1.8237  1.7164  1.0062
  513MOL0     H69201   9.790   3.502   9.320 -0.2156 -0.4792 -0.9919
  513MOL0     H69202  10.030   3.665   9.210 -1.6396 -1.2775 -1.5606
  513MOL0     H69203  10.038   3.496   9.252  1.6553  0.8903 -1.2686
  513MOL0     H69204   9.978   3.733   9.431  2.4382  0.8270 -2.3857
  513MOL0     H69205   9.980   3.566   9.489 -5.2841  0.9277 -1.0162
  513MOL0     H69206  10.257   3.675   9.232  2.2487 -0.1942 -1.2260
  513MOL0     H69207  10.501   3.798   9.241 -0.8568  3.0439  2.3304
  513MOL0     H69208  10.564   3.828   9.406  0.5653  0.2210  0.8468
  513MOL0     H69209  10.576   3.559   9.262  3.5942  0.4993 -2.3425
  513MOL0     H69210  10.707   3.671   9.275  0.3840 -0.5077 -0.0396
  513MOL0     H69211  10.740   3.503   9.432  0.6127  1.5649  1.9534
  513MOL0     H69212  10.584   3.498   9.486  0.2468  0.8297  0.8268
  513MOL0     H69213  10.605   3.730   9.588  1.4357  1.1405  0.9560
  513MOL0     H69214  10.764   3.744   9.547  0.3161  0.5177 -0.3416
  513MOL0     H69215  10.871   3.399   9.728  0.3589 -0.2177  0.8394
  513MOL0     H69216  11.124   3.399   9.758  2.1632  0.8021 -1.4400
  513MOL0     H69217  11.496   3.637  10.001 -1.8286 -0.4659 -1.6010
  513MOL0     H69218  11.742   3.642  10.011  0.8825 -0.5950 -0.6166
  513MOL0     H69219  11.936   3.598   9.678  0.0499 -1.6485  4.2799
  513MOL0     H69220  11.966   3.761   9.628 -0.3603  3.6683  3.7299
  513MOL0     H69221  12.182   3.779   9.778  2.8802 -1.8362  0.1382
  513MOL0     H69222  12.130   3.644   9.869  0.2208  1.6078  0.8439
  513MOL0     H69223  12.168   3.492   9.673  2.5243 -1.5132  3.2665
  513MOL0     H69224  12.198   3.638   9.575 -1.6716 -0.2001  1.3241
  513MOL0     H69225  12.346   3.564   9.822 -2.1914  2.4272  0.5671
  513MOL0     H69226  12.375   3.696   9.695 -1.1825  0.1689 -3.0871
  513MOL0     H69227  12.415   3.495   9.526  1.7072 -0.4403 -0.6608
  513MOL0     H69228  12.383   3.385   9.661  3.5858 -1.5531  3.0890
  513MOL0     H69229  12.617   3.582   9.673  2.0686 -0.1785  0.7901
  513MOL0     H69230  12.571   3.451   9.781 -0.9302 -0.0034  1.0525
  513MOL0     H69231  12.653   3.405   9.487  2.3154  1.8212  1.1721
  513MOL0     H69232  12.594   3.279   9.606 -0.7833  0.4263  1.7182
  513MOL0     H69233  12.843   3.275   9.570 -0.2709  0.7549 -1.0715
  513MOL0     H69234  12.854   3.450   9.581 -0.5447  2.3994  2.2934
  513MOL0     H69235  11.751   3.828   9.629  1.9699  0.3948  1.9447
  513MOL0     H69236  11.511   3.842   9.620 -2.0849 -2.4487 -0.9768
  513MOL0     H69237  11.103   3.823   9.810 -3.3221  1.3118  0.8508
  513MOL0     H69238  10.870   3.815   9.772  0.5189  0.0332 -0.8285
  513MOL0     H69239   9.181   3.682   9.279 -1.7914 -0.1372  1.0294
  513MOL0     H69240   8.966   3.735   9.373 -3.6608  1.1922 -1.0219
  513MOL0     H69241   8.582   3.711   9.391  0.1028  0.7065  0.6015
  513MOL0     H69242   8.401   3.689   9.535  4.6596  1.2494  1.7910
  513MOL0     H69243   8.271   3.808   9.742  0.1935 -3.6854  2.8316
  513MOL0     H69244   8.207   3.666   9.652  4.0786  1.7476 -3.3128
  513MOL0     H69245   7.987   3.765   9.655  0.2872 -1.6990  1.0515
  513MOL0     H69246   8.043   3.882   9.779 -0.2079 -0.3727  2.9097
  513MOL0     H69247   8.124   3.638   9.877 -0.8288 -2.2564 -2.6277
  513MOL0     H69248   7.974   3.591   9.805 -0.0422 -0.4195  0.7931
  513MOL0     H69249   7.987   3.673  10.058  2.5253 -0.0083 -0.5173
  513MOL0     H69250   8.017   3.829   9.999  0.8558 -0.8479 -0.6976
  513MOL0     H69251   7.608   3.793   9.888 -1.2740 -0.1417  1.3569
  513MOL0     H69252   8.214   4.026   9.364 -0.3824 -2.3732  0.1857
  513MOL0     H69253   8.390   4.124   9.137 -3.1915 -2.2489  0.3167
  513MOL0     H69254   8.375   4.221   9.284 -0.5852 -1.2808 -0.0403
  513MOL0     H69255   8.540   4.156   9.238  0.6378 -2.2401 -2.8881
  514MOL0     O69256   1.187   4.508   0.835 -0.0424  0.1898 -0.5189
  514MOL0     C69257   1.166   4.399   0.796  1.3584  0.8288 -0.8069
  514MOL0     O69258   1.238   4.285   0.829 -0.2895  0.4131 -0.0127
  514MOL0     C69259   1.374   4.280   0.843 -0.0281 -0.5216 -0.1039
  514MOL0     C69260   1.466   4.381   0.813 -0.3389  0.3322 -0.8053
  514MOL0     C69261   1.606   4.364   0.833 -0.8670  1.0998  1.1100
  514MOL0     C69262   1.660   4.241   0.867  0.3915 -0.4700  0.2662
  514MOL0     O69263   1.795   4.224   0.882  0.7668  0.5281 -0.4260
  514MOL0     C69264   1.850   4.105   0.811 -0.9700  0.0666 -0.7334
  514MOL0     C69265   2.003   4.110   0.822 -0.0748 -0.2860 -0.0472
  514MOL0     C69266   2.051   4.121   0.963  0.0041 -0.7218 -0.5632
  514MOL0     C69267   2.198   4.129   0.953 -0.5964  0.2295 -0.0770
  514MOL0     C69268   2.262   4.110   1.092 -0.1249 -0.8799  0.5551
  514MOL0     C69269   2.401   4.054   1.081  0.9898  0.0536  0.6609
  514MOL0     C69270   2.455   3.948   1.184 -0.3755 -0.4175 -0.6282
  514MOL0     C69271   2.600   3.932   1.178 -0.2387 -0.5895  0.8526
  514MOL0     N69272   2.645   3.909   1.036  0.1252  0.5292 -0.6213
  514MOL0     C69273   2.678   4.008   0.949 -0.3284  0.0161  0.1865
  514MOL0     C69274   2.694   3.934   0.835  0.4445  0.1816 -0.1717
  514MOL0     C69275   2.714   3.995   0.704  0.5378 -0.3436  0.9617
  514MOL0     C69276   2.582   4.061   0.648 -0.3708 -0.3380  0.8673
  514MOL0     C69277   2.534   4.179   0.722  0.5292  0.8462 -0.5554
  514MOL0     C69278   2.431   4.261   0.649 -0.5043  0.1464 -0.1872
  514MOL0     O69279   2.424   4.375   0.739  0.1906 -0.6335  0.3164
  514MOL0     C69280   2.305   4.440   0.783 -0.2293  0.6551  0.2749
  514MOL0     C69281   2.314   4.536   0.886  0.4920 -0.7453 -0.3590
  514MOL0     C69282   2.202   4.621   0.916 -0.1794 -0.6070 -0.2820
  514MOL0     C69283   2.078   4.589   0.858  0.4528  0.0140  0.1305
  514MOL0     C69284   1.963   4.674   0.886  0.3365 -0.5148  0.8103
  514MOL0     O69285   1.846   4.635   0.811 -0.0958 -0.2851  0.1419
  514MOL0     C69286   1.741   4.718   0.824  0.3633 -0.6076  1.5806
  514MOL0     C69287   1.676   4.715   0.951  0.1702  0.3312 -0.1256
  514MOL0     C69288   1.563   4.790   0.957 -0.1782  0.2338  0.7948
  514MOL0     C69289   1.512   4.867   0.842  0.2092  0.2302  0.3992
  514MOL0     O69290   1.398   4.931   0.835  0.2773 -0.6022 -0.3946
  514MOL0     C69291   1.287   4.854   0.873  0.5321 -0.5657 -0.6979
  514MOL0     C69292   1.158   4.934   0.864 -0.0574  0.4853 -0.9461
  514MOL0     C69293   1.028   4.851   0.898  0.0325 -0.2845 -0.6935
  514MOL0     C69294   0.904   4.935   0.906  0.3193  0.4920 -0.7297
  514MOL0     C69295   0.787   4.846   0.931  1.1869 -0.5241 -0.2277
  514MOL0     C69296   0.653   4.927   0.927 -0.1847  0.0423  0.1567
  514MOL0     C69297   0.536   4.839   0.944  0.0645  0.1901  0.4338
  514MOL0     C69298   0.409   4.914   0.944  1.0049 -0.4671 -0.5356
  514MOL0    Cl69299   0.273   4.794   0.959 -0.3437  0.3972  0.0287
  514MOL0     C69300   1.583   4.868   0.726 -0.1363  0.5967 -0.3959
  514MOL0     C69301   1.695   4.788   0.713 -0.0835 -0.3514  0.0937
  514MOL0     O69302   1.969   4.764   0.971 -0.0110 -0.3665 -0.3324
  514MOL0     C69303   2.075   4.490   0.758  0.8226  0.6236 -0.0637
  514MOL0     C69304   2.183   4.417   0.726 -0.2132  0.9210 -0.1621
  514MOL0     N69305   2.699   3.799   0.861  0.6178  0.2794  0.6279
  514MOL0     N69306   2.655   3.786   0.978  0.3410 -0.4998 -0.2415
  514MOL0     C69307   1.564   4.135   0.877  0.1620  0.6597 -0.6410
  514MOL0     C69308   1.429   4.158   0.877 -0.1398 -0.3539  1.4228
  514MOL0     C69309   1.039   4.384   0.716  0.7258 -0.2258  0.2506
  514MOL0     C69310   0.938   4.483   0.742 -0.1599 -0.2118  0.0449
  514MOL0     C69311   0.819   4.470   0.672 -0.5566  0.0530 -0.0165
  514MOL0     C69312   0.797   4.377   0.577  0.2272  0.4582  0.2498
  514MOL0     O69313   0.676   4.392   0.517 -0.2967 -0.0965 -0.4616
  514MOL0     C69314   0.615   4.271   0.471 -0.7959  0.4635 -0.2644
  514MOL0     C69315   0.477   4.321   0.433  0.5961  0.0096  1.0686
  514MOL0     C69316   0.373   4.318   0.546 -0.2807 -0.1991 -0.1618
  514MOL0     C69317   0.274   4.443   0.544  0.0556 -0.3227  0.3492
  514MOL0     C69318   0.171   4.439   0.653 -0.2232  0.0692 -0.4980
  514MOL0     C69319   0.080   4.453   0.735  0.3460 -0.0138  0.7531
  514MOL0     C69320   0.888   4.276   0.558 -0.1439 -0.2093  0.5763
  514MOL0     C69321   1.008   4.278   0.629  0.2555  0.3043 -0.1617
  514MOL0     C69322   1.100   4.161   0.604 -0.7434 -0.3542  0.2074
  514MOL0     H69323   1.419   4.478   0.804 -2.1205 -0.6412 -2.8201
  514MOL0     H69324   1.677   4.443   0.811 -1.2416  1.5091  1.3658
  514MOL0     H69325   1.828   4.006   0.853  0.0753  0.0968 -0.0660
  514MOL0     H69326   1.819   4.109   0.707  0.7614  0.5063 -1.2674
  514MOL0     H69327   2.039   4.197   0.766  2.5477 -1.2424  0.0148
  514MOL0     H69328   2.049   4.020   0.780 -0.2195 -0.2006 -0.3898
  514MOL0     H69329   2.017   4.035   1.021 -1.8204  1.5154  1.9500
  514MOL0     H69330   2.013   4.216   1.001  0.8354  0.2514 -2.0787
  514MOL0     H69331   2.228   4.049   0.884 -0.4639 -0.0804  0.3387
  514MOL0     H69332   2.240   4.224   0.920 -2.8384  0.8977 -1.1975
  514MOL0     H69333   2.258   4.204   1.148  1.8744  1.2054 -2.5086
  514MOL0     H69334   2.203   4.036   1.147 -1.7384  0.0011  0.0729
  514MOL0     H69335   2.394   3.999   0.986 -0.0790 -1.6628  1.6954
  514MOL0     H69336   2.470   4.136   1.058 -0.3717  1.5325  1.6763
  514MOL0     H69337   2.410   3.849   1.170  0.1579 -1.2603  2.7549
  514MOL0     H69338   2.426   3.971   1.287 -0.9047 -2.3460 -0.2969
  514MOL0     H69339   2.653   4.018   1.219 -0.1895 -1.4379  2.7046
  514MOL0     H69340   2.627   3.846   1.241 -0.3575 -0.4382  1.1109
  514MOL0     H69341   2.682   4.116   0.950 -0.6871  0.0960 -1.8051
  514MOL0     H69342   2.795   4.068   0.706  1.2628 -1.1283  0.6021
  514MOL0     H69343   2.760   3.927   0.632  0.8511  0.5122  0.3442
  514MOL0     H69344   2.610   4.094   0.547 -3.3721  0.9868  0.3443
  514MOL0     H69345   2.502   3.987   0.642 -0.4319 -0.3661  1.8627
  514MOL0     H69346   2.627   4.233   0.743  0.9955 -0.8833  2.4144
  514MOL0     H69347   2.493   4.147   0.818  1.1649 -2.9180 -1.3800
  514MOL0     H69348   2.335   4.208   0.647 -0.6138  0.3498 -0.2373
  514MOL0     H69349   2.459   4.287   0.547  2.3013 -1.9024 -0.0657
  514MOL0     H69350   2.414   4.562   0.919  1.0083 -1.5339 -1.2628
  514MOL0     H69351   2.206   4.701   0.989 -3.1412 -0.8127  0.2412
  514MOL0     H69352   1.716   4.651   1.030  4.0254 -1.1902 -3.0055
  514MOL0     H69353   1.492   4.786   1.039 -1.5446  1.5943 -0.2719
  514MOL0     H69354   1.297   4.761   0.816  2.6947  0.4911 -2.1659
  514MOL0     H69355   1.293   4.826   0.979  0.9342  1.4680 -0.1407
  514MOL0     H69356   1.163   5.014   0.939  0.0973 -1.1043  0.8170
  514MOL0     H69357   1.130   4.972   0.766  0.1109 -1.5546 -1.8411
  514MOL0     H69358   1.010   4.781   0.817 -1.6510  0.3359 -0.8977
  514MOL0     H69359   1.041   4.798   0.993 -0.1844  2.9631  1.3130
  514MOL0     H69360   0.881   4.992   0.816 -1.5506 -2.8702 -2.5694
  514MOL0     H69361   0.909   4.994   0.999 -0.9138 -2.8126  1.6367
  514MOL0     H69362   0.808   4.796   1.027  0.8570 -0.2983 -0.0355
  514MOL0     H69363   0.783   4.772   0.851  1.4142 -4.1106  2.8139
  514MOL0     H69364   0.657   5.001   1.007 -1.0670 -1.9777  2.1682
  514MOL0     H69365   0.649   4.956   0.822 -2.2029 -1.9608 -0.4139
  514MOL0     H69366   0.539   4.786   1.039  2.6028  1.8999  1.4089
  514MOL0     H69367   0.539   4.750   0.880 -2.6492 -3.2507  4.5499
  514MOL0     H69368   0.410   4.989   1.023 -1.2894  0.7839 -1.6124
  514MOL0     H69369   0.393   4.957   0.844  1.3895  0.2831 -0.2816
  514MOL0     H69370   1.535   4.919   0.643  0.5572  0.4911 -0.8695
  514MOL0     H69371   1.749   4.783   0.619  2.8052  0.5247  1.5568
  514MOL0     H69372   1.979   4.466   0.712  0.3261 -0.3960  1.3977
  514MOL0     H69373   2.165   4.358   0.637 -2.3693  1.3181 -0.0464
  514MOL0     H69374   1.602   4.034   0.887 -0.8504  0.2238 -1.0618
  514MOL0     H69375   1.356   4.079   0.866  0.7796 -0.8771 -2.4050
  514MOL0     H69376   0.946   4.562   0.817  1.7595  0.3579 -0.7039
  514MOL0     H69377   0.743   4.548   0.675  1.2162  1.8644 -0.0651
  514MOL0     H69378   0.608   4.190   0.543  0.2805  0.7934  0.2264
  514MOL0     H69379   0.671   4.223   0.390 -1.7579 -0.5290 -0.3613
  514MOL0     H69380   0.432   4.264   0.351 -0.2777  1.7937  0.2596
  514MOL0     H69381   0.482   4.425   0.400  1.7147 -0.2853  0.2461
  514MOL0     H69382   0.432   4.325   0.638  1.0712 -1.2098 -0.9144
  514MOL0     H69383   0.307   4.231   0.540 -0.7185  0.2172 -2.6077
  514MOL0     H69384   0.333   4.536   0.548  1.2679 -0.6118 -4.5063
  514MOL0     H69385   0.226   4.448   0.446 -0.2821  0.6968  0.5459
  514MOL0     H69386  -0.007   4.459   0.797 -1.5604 -1.2269 -1.6396
  514MOL0     H69387   0.867   4.189   0.496  1.2051 -2.2168  2.7761
  514MOL0     H69388   1.202   4.199   0.606 -0.0414 -2.1320 -0.4623
  514MOL0     H69389   1.088   4.086   0.684  0.3981  0.4392  1.1495
  514MOL0     H69390   1.082   4.113   0.508  0.2801 -1.5786  0.5954
  515MOL0     O69391   7.415   9.010   5.907  0.0696  0.2854  0.6924
  515MOL0     C69392   7.469   8.923   5.975  0.5019  0.3940  0.7414
  515MOL0     O69393   7.592   8.935   6.038  1.0645  1.1110  0.0292
  515MOL0     C69394   7.661   9.044   6.005  0.3318 -0.4650  0.2355
  515MOL0     C69395   7.632   9.182   6.031 -0.0164 -0.3784  0.7625
  515MOL0     C69396   7.715   9.282   5.984 -0.9520 -0.5069  0.2095
  515MOL0     C69397   7.822   9.259   5.898  0.5920 -0.5258  0.2705
  515MOL0     O69398   7.888   9.362   5.842  0.2974 -0.0420  0.4736
  515MOL0     C69399   7.811   9.418   5.743  0.7510  0.1454 -0.2953
  515MOL0     C69400   7.855   9.355   5.608 -0.0290  0.2770  0.0357
  515MOL0     C69401   8.008   9.386   5.573  0.0438 -0.6798 -0.9991
  515MOL0     C69402   8.031   9.380   5.423  0.3687  0.3686 -0.3612
  515MOL0     C69403   8.147   9.470   5.386 -0.2542  0.8532 -0.3063
  515MOL0     C69404   8.276   9.454   5.466  0.6267  0.6885  0.4127
  515MOL0     C69405   8.407   9.507   5.390 -0.0595  0.7825 -0.2244
  515MOL0     C69406   8.404   9.660   5.377  0.1013  0.3466 -0.0492
  515MOL0     N69407   8.418   9.721   5.511  0.0082  0.2513 -0.7017
  515MOL0     C69408   8.299   9.777   5.556  0.7498  0.5408  0.3735
  515MOL0     C69409   8.340   9.861   5.650 -0.7439  0.9438  0.0548
  515MOL0     C69410   8.270   9.945   5.742  0.4494  0.1119  0.8038
  515MOL0     C69411   8.143   9.973   5.689 -0.0507  0.5894 -0.3322
  515MOL0     C69412   8.078  10.055   5.799  0.0602  0.1728  0.5372
  515MOL0     C69413   7.928  10.095   5.766  0.0914  0.2495  0.1272
  515MOL0     O69414   7.924  10.159   5.634  0.1500 -0.2080 -0.2834
  515MOL0     C69415   7.957  10.292   5.616  0.5616  0.6911  1.2608
  515MOL0     C69416   7.984  10.390   5.715  0.2794  0.5719  0.8523
  515MOL0     C69417   8.047  10.503   5.683  0.3383  0.2299 -0.3060
  515MOL0     C69418   8.059  10.551   5.552  0.6721  0.1554 -0.3149
  515MOL0     C69419   8.112  10.688   5.528  0.2173  0.6603 -0.5711
  515MOL0     O69420   8.116  10.740   5.405 -0.2134 -0.3263 -0.4493
  515MOL0     C69421   8.167  10.874   5.398 -0.2408  0.0017 -0.4835
  515MOL0     C69422   8.083  10.980   5.423 -0.0346  0.2278 -0.2287
  515MOL0     C69423   8.140  11.107   5.441  0.9806  0.8797  0.0707
  515MOL0     C69424   8.273  11.122   5.430 -0.3680 -0.8106  0.1701
  515MOL0     O69425   8.311  11.250   5.439 -0.3414 -0.1413 -0.0035
  515MOL0     C69426   8.447  11.284   5.420 -0.0390 -0.3628 -1.6054
  515MOL0     C69427   8.459  11.433   5.448 -0.1500 -0.7346 -0.3959
  515MOL0     C69428   8.422  11.482   5.588 -0.6281  0.2572  0.6934
  515MOL0     C69429   8.510  11.420   5.695  0.0411 -0.2894  0.6540
  515MOL0     C69430   8.504  11.500   5.826 -0.1838  0.0308 -0.6914
  515MOL0     C69431   8.571  11.637   5.818  0.8350 -0.5021 -0.0907
  515MOL0     C69432   8.708  11.653   5.753 -0.9837 -0.7924 -0.4750
  515MOL0     C69433   8.833  11.607   5.830  0.4590  1.1412  0.4102
  515MOL0    Cl69434   8.981  11.664   5.752  0.2253 -0.2470  0.1655
  515MOL0     C69435   8.359  11.013   5.413 -0.2505  0.1960  0.6476
  515MOL0     C69436   8.302  10.883   5.393  0.3022 -0.7653 -0.5562
  515MOL0     O69437   8.156  10.739   5.631  0.2382 -0.1698 -0.1390
  515MOL0     C69438   8.024  10.457   5.449 -0.3486 -0.7074  0.3689
  515MOL0     C69439   7.969  10.333   5.481  1.1848 -1.1043  0.4033
  515MOL0     N69440   8.478   9.862   5.646  0.3858 -0.9551  0.2649
  515MOL0     N69441   8.527   9.785   5.560  0.0376  0.3653 -0.4148
  515MOL0     C69442   7.864   9.127   5.883  0.3432 -0.9699 -0.2558
  515MOL0     C69443   7.782   9.019   5.926  0.2584  0.6576 -0.9261
  515MOL0     C69444   7.397   8.802   6.006 -0.1387  0.5460  0.4359
  515MOL0     C69445   7.470   8.681   6.011  0.8255  0.8710 -0.6904
  515MOL0     C69446   7.414   8.548   6.032  0.2356 -0.0321 -0.0107
  515MOL0     C69447   7.273   8.542   6.062  0.5791  0.7695 -0.2509
  515MOL0     O69448   7.214   8.419   6.066 -0.2801  0.1717  0.0203
  515MOL0     C69449   7.078   8.395   6.111 -0.6249 -1.2720  0.2302
  515MOL0     C69450   6.980   8.427   5.998  0.6565  0.1295  0.7133
  515MOL0     C69451   6.850   8.347   6.020  0.9691  0.1682 -0.3879
  515MOL0     C69452   6.741   8.398   5.922  0.0019 -0.1413  0.1210
  515MOL0     C69453   6.638   8.485   5.971 -0.8034 -0.3231  0.1526
  515MOL0     C69454   6.547   8.567   5.995 -0.6224 -0.5499 -0.0789
  515MOL0     C69455   7.202   8.661   6.078  0.2610 -0.2700  0.6037
  515MOL0     C69456   7.265   8.789   6.045  0.8958  0.1212 -0.2392
  515MOL0     C69457   7.196   8.912   6.091  0.4090 -0.2071  0.6363
  515MOL0     H69458   7.541   9.207   6.084 -1.1834  0.8169 -1.6410
  515MOL0     H69459   7.689   9.385   6.005  0.2556 -0.2082  0.3399
  515MOL0     H69460   7.704   9.397   5.748  0.1639  2.0376 -2.6698
  515MOL0     H69461   7.830   9.526   5.739  2.0970 -0.0347  0.6401
  515MOL0     H69462   7.780   9.393   5.538 -0.8727 -0.6482  0.4074
  515MOL0     H69463   7.837   9.247   5.612 -1.3385  0.4966  2.0900
  515MOL0     H69464   8.072   9.321   5.632  1.0722 -0.6666 -2.0684
  515MOL0     H69465   8.038   9.486   5.605  2.1032 -1.6974  0.4143
  515MOL0     H69466   8.060   9.279   5.394 -0.0579  0.3702 -0.7963
  515MOL0     H69467   7.943   9.408   5.365 -1.3958 -2.8621  0.5260
  515MOL0     H69468   8.160   9.442   5.281 -0.6553  2.2231 -0.7469
  515MOL0     H69469   8.113   9.574   5.393  0.2004  0.9111  1.6108
  515MOL0     H69470   8.257   9.486   5.569  1.4379  2.3734  0.0704
  515MOL0     H69471   8.294   9.346   5.480 -1.4853  0.2598  0.1450
  515MOL0     H69472   8.411   9.457   5.293  0.0186  1.5881 -0.6404
  515MOL0     H69473   8.501   9.473   5.436  0.0075  0.4569 -0.6001
  515MOL0     H69474   8.477   9.687   5.300  1.3131 -2.0581  0.1621
  515MOL0     H69475   8.306   9.683   5.334  1.1169  0.5796 -2.3979
  515MOL0     H69476   8.194   9.757   5.533  1.2930 -1.9251 -0.3201
  515MOL0     H69477   8.254   9.882   5.830 -1.4749  1.5933  1.5861
  515MOL0     H69478   8.306  10.047   5.761  0.3078  0.1941  0.6383
  515MOL0     H69479   8.141  10.022   5.591 -5.6618  0.9421 -0.3699
  515MOL0     H69480   8.092   9.877   5.687 -0.8179  0.8689  1.9670
  515MOL0     H69481   8.133  10.147   5.823 -0.0453 -0.4258  3.5401
  515MOL0     H69482   8.082  10.001   5.894  1.9772 -0.4918  0.1298
  515MOL0     H69483   7.876  10.155   5.841 -0.3999 -1.7602  1.4650
  515MOL0     H69484   7.872  10.002   5.754 -0.2447  0.6075 -1.4047
  515MOL0     H69485   7.968  10.366   5.820 -2.7407 -2.4157 -0.1078
  515MOL0     H69486   8.092  10.566   5.759  1.7320  1.7032 -2.2410
  515MOL0     H69487   7.976  10.964   5.437 -0.1569  1.5170  0.4548
  515MOL0     H69488   8.085  11.195   5.472  1.5849  1.2545  0.0931
  515MOL0     H69489   8.511  11.238   5.496 -0.5783  2.0638  0.4770
  515MOL0     H69490   8.484  11.271   5.318  0.5454  1.8594 -1.7300
  515MOL0     H69491   8.562  11.466   5.433  0.1869 -0.5632  1.9575
  515MOL0     H69492   8.403  11.487   5.371  0.7790 -2.1041 -2.1182
  515MOL0     H69493   8.452  11.587   5.580  1.4303 -0.4016 -2.0225
  515MOL0     H69494   8.315  11.476   5.609 -0.5904 -0.9157  0.6133
  515MOL0     H69495   8.610  11.426   5.651 -1.1101 -1.0041 -2.3424
  515MOL0     H69496   8.488  11.314   5.709  0.8071 -1.5116 -4.8508
  515MOL0     H69497   8.557  11.437   5.898 -1.6397  1.3052  1.6379
  515MOL0     H69498   8.398  11.506   5.852 -0.3481  2.2974 -1.6597
  515MOL0     H69499   8.493  11.702   5.777 -0.5131 -0.5090  2.2639
  515MOL0     H69500   8.590  11.674   5.919  4.1386 -0.6372 -0.5659
  515MOL0     H69501   8.733  11.759   5.746  4.4250 -1.6446  1.2343
  515MOL0     H69502   8.707  11.614   5.651 -0.7587 -0.2871 -0.6725
  515MOL0     H69503   8.826  11.638   5.935  1.2057 -2.6341  1.7282
  515MOL0     H69504   8.839  11.498   5.830 -1.7060  0.9548  1.5872
  515MOL0     H69505   8.465  11.028   5.400 -0.0743 -1.0868  0.4803
  515MOL0     H69506   8.366  10.796   5.385  1.8872  0.3976 -1.0037
  515MOL0     H69507   8.040  10.491   5.348 -0.3008  0.1791  0.6670
  515MOL0     H69508   7.941  10.267   5.399 -1.5583 -1.7521  1.7279
  515MOL0     H69509   7.952   9.102   5.825  0.0087 -2.2321 -0.2494
  515MOL0     H69510   7.808   8.918   5.895  0.6398  0.6620 -0.6276
  515MOL0     H69511   7.575   8.680   5.983  0.7142 -0.5548 -1.1594
  515MOL0     H69512   7.476   8.461   6.016 -0.3212 -0.1899 -1.4540
  515MOL0     H69513   7.053   8.448   6.204 -3.4568  1.9876 -2.1582
  515MOL0     H69514   7.058   8.289   6.131  1.2889 -1.4369  1.5694
  515MOL0     H69515   7.018   8.402   5.898 -2.0779  0.5238 -0.5250
  515MOL0     H69516   6.950   8.532   6.004  1.6722  0.4833 -0.1397
  515MOL0     H69517   6.806   8.380   6.115 -0.4051  0.4546 -1.0928
  515MOL0     H69518   6.870   8.239   6.014  0.8996  0.2331 -3.8875
  515MOL0     H69519   6.787   8.437   5.830 -0.5522  0.0213 -0.0880
  515MOL0     H69520   6.686   8.311   5.885 -0.5825 -0.2348  1.1778
  515MOL0     H69521   6.484   8.652   6.010 -1.4098 -0.7117 -2.1908
  515MOL0     H69522   7.095   8.659   6.098 -0.0584 -0.6572 -1.0399
  515MOL0     H69523   7.259   8.968   6.161 -0.4467  0.8529  0.5873
  515MOL0     H69524   7.191   8.987   6.011  0.2962 -1.3849 -0.5019
  515MOL0     H69525   7.096   8.893   6.131  1.2567 -1.9201  2.0823
  516MOL0     O69526  11.086   9.479   1.462  0.6951 -0.0605 -0.1525
  516MOL0     C69527  11.081   9.371   1.403 -0.1453 -0.7506 -0.6423
  516MOL0     O69528  11.182   9.278   1.409 -0.1331 -0.0893 -0.1674
  516MOL0     C69529  11.300   9.311   1.465 -0.1820  0.2849 -0.0068
  516MOL0     C69530  11.393   9.370   1.379 -0.1187 -0.0096 -0.6567
  516MOL0     C69531  11.527   9.402   1.426 -0.0536 -0.1704 -0.3949
  516MOL0     C69532  11.554   9.364   1.556 -1.1263 -1.0160 -0.1646
  516MOL0     O69533  11.688   9.376   1.598  0.2219  0.2851  0.2578
  516MOL0     C69534  11.731   9.335   1.726 -0.0567 -0.4099 -1.3750
  516MOL0     C69535  11.883   9.359   1.751  0.4467  0.6770 -0.5325
  516MOL0     C69536  11.912   9.347   1.900  1.3154  0.6326 -0.0233
  516MOL0     C69537  12.023   9.433   1.931 -0.1731  0.2749 -0.3215
  516MOL0     C69538  12.071   9.387   2.070  0.2442  0.0186 -0.5673
  516MOL0     C69539  12.186   9.474   2.136 -0.3804 -0.3112 -0.8329
  516MOL0     C69540  12.212   9.453   2.290  0.1655 -0.3880  0.2262
  516MOL0     C69541  12.271   9.313   2.315 -0.5309 -0.2863 -0.0240
  516MOL0     N69542  12.398   9.305   2.240  0.7020 -0.4191 -0.8894
  516MOL0     C69543  12.521   9.367   2.267  1.0826 -0.0631  0.1264
  516MOL0     C69544  12.617   9.314   2.193  0.0287 -0.6551  0.4747
  516MOL0     C69545  12.755   9.363   2.178  0.1719  0.0834  0.7263
  516MOL0     C69546  12.781   9.457   2.062 -0.1085 -0.5591  0.1219
  516MOL0     C69547  12.927   9.526   2.072 -0.0958 -0.6106  0.0195
  516MOL0     C69548  13.045   9.424   2.096 -0.6296  0.1019  0.6933
  516MOL0     O69549  13.182   9.467   2.075 -0.0240 -0.2699  0.5328
  516MOL0     C69550  13.286   9.385   2.094 -0.2211 -0.5224 -0.5305
  516MOL0     C69551  13.414   9.437   2.078  0.2013  0.2218  0.3744
  516MOL0     C69552  13.520   9.352   2.100  0.1402  0.0002  0.6996
  516MOL0     C69553  13.511   9.217   2.143 -0.1131 -0.7567 -0.8865
  516MOL0     C69554  13.627   9.137   2.177 -0.6056  0.3331 -0.2623
  516MOL0     O69555  13.611   9.009   2.196  0.0165 -0.1907 -0.2268
  516MOL0     C69556  13.724   8.934   2.178  0.4898 -0.4680 -1.0466
  516MOL0     C69557  13.777   8.868   2.290 -0.7729 -0.1073 -0.7235
  516MOL0     C69558  13.880   8.781   2.283 -0.5628 -0.4837 -0.0453
  516MOL0     C69559  13.952   8.770   2.162 -0.6507 -1.2214  0.5452
  516MOL0     O69560  14.062   8.684   2.156  0.1637  0.0960 -0.8989
  516MOL0     C69561  14.178   8.723   2.088 -0.1171  0.6642 -0.1934
  516MOL0     C69562  14.292   8.645   2.153  0.4171 -0.3951  0.5851
  516MOL0     C69563  14.416   8.622   2.067  0.6953 -0.2249 -1.3973
  516MOL0     C69564  14.514   8.529   2.138 -0.2835 -0.6431 -0.1311
  516MOL0     C69565  14.643   8.501   2.056  1.2050 -0.0966  0.0580
  516MOL0     C69566  14.736   8.418   2.134  0.4045  0.2145 -0.0099
  516MOL0     C69567  14.866   8.384   2.067  0.1649 -0.3890  0.7821
  516MOL0     C69568  14.967   8.501   2.063  0.2101 -0.3666 -0.1439
  516MOL0    Cl69569  15.115   8.463   1.975 -0.2281  0.3267  0.2193
  516MOL0     C69570  13.907   8.833   2.047  0.0830 -0.8697  0.2835
  516MOL0     C69571  13.789   8.918   2.060 -0.1208  0.1469  0.1041
  516MOL0     O69572  13.736   9.197   2.176  0.2403  0.3115 -0.6170
  516MOL0     C69573  13.380   9.167   2.149 -0.0251 -0.2786  0.1108
  516MOL0     C69574  13.266   9.250   2.137  0.1776  0.1040  0.5357
  516MOL0     N69575  12.552   9.220   2.110  0.4789 -0.0086  0.5189
  516MOL0     N69576  12.425   9.219   2.141  0.6238  0.0678 -0.3968
  516MOL0     C69577  11.453   9.317   1.642 -0.1574 -0.5140 -0.7559
  516MOL0     C69578  11.327   9.276   1.591  0.6268  0.1576 -0.0270
  516MOL0     C69579  10.956   9.328   1.332 -0.0897  0.0324  0.4656
  516MOL0     C69580  10.961   9.218   1.246 -0.0070  0.4144  0.3817
  516MOL0     C69581  10.847   9.178   1.170  0.2915 -0.3067 -0.6590
  516MOL0     C69582  10.724   9.240   1.181  0.4944  0.1457  0.1708
  516MOL0     O69583  10.626   9.204   1.096 -0.1169  0.1533  0.4513
  516MOL0     C69584  10.531   9.113   1.156 -0.4594 -1.0967  0.4617
  516MOL0     C69585  10.437   9.058   1.046 -0.0135  0.0207 -0.1794
  516MOL0     C69586  10.477   8.925   1.001  0.0080  0.4623  0.2210
  516MOL0     C69587  10.371   8.861   0.914 -0.2815 -0.2501  0.3447
  516MOL0     C69588  10.314   8.938   0.805 -1.5386 -0.2797 -0.0432
  516MOL0     C69589  10.268   8.998   0.707 -0.3865  0.8264 -0.2362
  516MOL0     C69590  10.715   9.356   1.263 -1.0988 -0.7498  0.2622
  516MOL0     C69591  10.830   9.399   1.334 -0.0824 -0.1464 -0.2416
  516MOL0     C69592  10.806   9.517   1.423  0.6305  0.1075  0.2448
  516MOL0     H69593  11.367   9.397   1.277 -1.4278 -0.1831 -0.3851
  516MOL0     H69594  11.603   9.440   1.358  0.4458 -1.4885 -0.6027
  516MOL0     H69595  11.671   9.394   1.796  0.4861 -0.3894 -0.9183
  516MOL0     H69596  11.705   9.232   1.756 -1.6946 -0.0586 -1.5037
  516MOL0     H69597  11.926   9.450   1.708  1.4989  0.8855  0.8674
  516MOL0     H69598  11.950   9.287   1.702  1.8686  0.3785  1.6888
  516MOL0     H69599  11.930   9.246   1.936 -1.4981 -0.4597 -1.4157
  516MOL0     H69600  11.821   9.379   1.951  0.5359  1.2644 -1.7274
  516MOL0     H69601  12.097   9.414   1.853  0.1367  1.2379 -0.2758
  516MOL0     H69602  12.000   9.539   1.921 -0.2076  0.3369  0.3798
  516MOL0     H69603  11.990   9.404   2.141  1.6351  2.6487  0.5448
  516MOL0     H69604  12.107   9.283   2.069 -1.0892 -0.5414  1.7718
  516MOL0     H69605  12.273   9.458   2.072  0.7147 -0.5744  0.6648
  516MOL0     H69606  12.154   9.577   2.117 -4.9139 -0.9706  1.7438
  516MOL0     H69607  12.123   9.459   2.353  0.5107  0.0130  0.6758
  516MOL0     H69608  12.273   9.531   2.335 -1.2455 -0.0510  1.6465
  516MOL0     H69609  12.298   9.310   2.421 -2.7477  1.2617  0.6673
  516MOL0     H69610  12.197   9.239   2.284 -0.9184  0.3950 -0.7565
  516MOL0     H69611  12.529   9.454   2.332  2.1974 -0.2015  0.1996
  516MOL0     H69612  12.785   9.418   2.268  0.1510 -4.2303  3.6724
  516MOL0     H69613  12.825   9.279   2.186  0.3084  0.0331 -0.7078
  516MOL0     H69614  12.772   9.405   1.966 -1.0150  0.2373 -0.2443
  516MOL0     H69615  12.706   9.536   2.067  0.9902  0.4266  1.5754
  516MOL0     H69616  12.926   9.601   2.151 -1.9999  0.9601 -1.3871
  516MOL0     H69617  12.940   9.569   1.973 -0.4258 -0.9373 -0.1713
  516MOL0     H69618  13.020   9.342   2.029 -2.5390  2.3817 -1.6444
  516MOL0     H69619  13.037   9.387   2.199 -0.5364  0.0349  0.6761
  516MOL0     H69620  13.427   9.537   2.038  3.2007 -1.2447 -2.8848
  516MOL0     H69621  13.619   9.393   2.082  0.5802 -1.1096  0.4900
  516MOL0     H69622  13.720   8.871   2.383 -3.7275  3.0945 -2.3872
  516MOL0     H69623  13.906   8.711   2.361  2.2636 -0.4949 -0.8537
  516MOL0     H69624  14.164   8.697   1.983 -0.4881  1.5149 -0.3615
  516MOL0     H69625  14.192   8.831   2.103  1.0707  0.4892  0.0703
  516MOL0     H69626  14.322   8.694   2.246  0.9800 -0.9630  0.7190
  516MOL0     H69627  14.250   8.546   2.177  0.0978 -0.1851  0.8902
  516MOL0     H69628  14.378   8.583   1.972 -1.5645  0.5075 -0.8664
  516MOL0     H69629  14.477   8.710   2.046  2.4388 -0.7757  0.9407
  516MOL0     H69630  14.473   8.431   2.163 -2.0052 -0.4932 -2.1000
  516MOL0     H69631  14.537   8.580   2.232 -0.4357  1.8805 -1.3631
  516MOL0     H69632  14.685   8.598   2.032 -3.5580  1.6517 -2.5892
  516MOL0     H69633  14.613   8.452   1.962  2.5863  0.6195 -0.7812
  516MOL0     H69634  14.752   8.480   2.222 -2.3111  1.6129 -0.3844
  516MOL0     H69635  14.688   8.325   2.165 -0.9481  2.0842  4.1502
  516MOL0     H69636  14.832   8.358   1.966 -3.2523  2.4944  0.9824
  516MOL0     H69637  14.912   8.301   2.121 -1.2369 -0.0256  2.6473
  516MOL0     H69638  14.922   8.585   2.008  0.9356  0.0733 -0.0748
  516MOL0     H69639  14.979   8.530   2.167 -3.1262 -0.1529  0.2797
  516MOL0     H69640  13.947   8.815   1.948 -2.1285 -1.9344 -0.5017
  516MOL0     H69641  13.738   8.947   1.969  0.8849  1.4925 -0.0609
  516MOL0     H69642  13.364   9.061   2.168  1.4877 -0.6143 -0.3234
  516MOL0     H69643  13.167   9.205   2.144 -0.6436  1.6515 -0.5054
  516MOL0     H69644  11.473   9.302   1.747  2.9972 -1.5475 -1.3870
  516MOL0     H69645  11.254   9.238   1.662  1.1173  0.3180  0.5775
  516MOL0     H69646  11.046   9.153   1.229 -0.4356 -0.2925  0.8965
  516MOL0     H69647  10.854   9.093   1.102 -1.4711  0.5019 -1.9162
  516MOL0     H69648  10.473   9.174   1.226  0.5567  0.0630  0.3270
  516MOL0     H69649  10.579   9.034   1.215  0.8071 -1.7528 -1.3556
  516MOL0     H69650  10.431   9.134   0.967  0.2169 -0.4804 -0.6887
  516MOL0     H69651  10.336   9.045   1.087  0.4264  0.7760  1.2119
  516MOL0     H69652  10.494   8.869   1.093 -1.8843  0.8204  0.8414
  516MOL0     H69653  10.567   8.915   0.940 -0.3539 -0.1249 -0.2252
  516MOL0     H69654  10.419   8.770   0.876  0.8995  1.9080 -3.9343
  516MOL0     H69655  10.283   8.830   0.972 -1.7678  0.0685 -1.6186
  516MOL0     H69656  10.214   9.047   0.628 -3.7715 -1.3076  0.5735
  516MOL0     H69657  10.618   9.404   1.271  0.2790  2.2232  0.2573
  516MOL0     H69658  10.840   9.510   1.527 -3.0869  1.6077  1.7446
  516MOL0     H69659  10.839   9.616   1.392  3.0750 -1.0037 -1.0535
  516MOL0     H69660  10.699   9.531   1.441  0.2923 -0.9533 -0.7880
  517MOL0     O69661   3.751   5.575   9.388 -0.1753 -0.2573  0.9543
  517MOL0     C69662   3.636   5.592   9.435  0.0502  0.0512  0.3743
  517MOL0     O69663   3.600   5.597   9.566 -0.0951  0.0424  0.0088
  517MOL0     C69664   3.697   5.571   9.655 -1.0929 -0.8783 -0.0153
  517MOL0     C69665   3.755   5.677   9.727  0.4767  0.1703 -0.1833
  517MOL0     C69666   3.851   5.659   9.825  0.9985  0.4694  0.9890
  517MOL0     C69667   3.885   5.533   9.855 -0.1436  0.0387 -0.8692
  517MOL0     O69668   3.980   5.491   9.947 -0.4024 -0.2690 -0.2032
  517MOL0     C69669   4.096   5.565   9.946  0.5928 -0.0771 -0.2016
  517MOL0     C69670   4.190   5.502  10.056  0.8631 -0.4129 -0.6550
  517MOL0     C69671   4.328   5.573  10.074 -0.7265  0.6274  0.4073
  517MOL0     C69672   4.387   5.530  10.212  0.1720 -1.3246  0.2245
  517MOL0     C69673   4.511   5.609  10.241 -0.0070 -1.0852  0.7530
  517MOL0     C69674   4.563   5.591  10.385 -0.3215  1.0179  0.3482
  517MOL0     C69675   4.673   5.484  10.401 -0.2340  0.5573  0.0248
  517MOL0     C69676   4.819   5.498  10.353  0.1780 -0.2727 -0.2678
  517MOL0     N69677   4.884   5.610  10.427 -0.1142  0.4406 -0.4309
  517MOL0     C69678   4.916   5.732  10.366 -0.1853  0.1676  0.1359
  517MOL0     C69679   4.981   5.799  10.463 -1.0633 -0.9686 -0.3329
  517MOL0     C69680   5.040   5.940  10.451  0.0448 -0.2328 -0.7025
  517MOL0     C69681   4.924   6.038  10.425 -0.0232 -0.6688 -0.2451
  517MOL0     C69682   4.831   6.038  10.549  1.1902 -0.4498  0.0320
  517MOL0     C69683   4.733   6.160  10.539  1.1291 -0.3854 -0.2890
  517MOL0     O69684   4.680   6.172  10.407  0.2990  0.5822 -1.1203
  517MOL0     C69685   4.563   6.108  10.381 -0.4979 -0.3245  0.5070
  517MOL0     C69686   4.499   6.167  10.274  0.4248 -0.9631  0.4688
  517MOL0     C69687   4.371   6.119  10.241 -0.0023  0.9065  0.6234
  517MOL0     C69688   4.309   6.010  10.322 -0.4630  0.5511 -0.2427
  517MOL0     C69689   4.181   5.942  10.274  0.0571 -0.3076  0.3655
  517MOL0     O69690   4.106   5.880  10.367  0.0072  0.2234  0.1254
  517MOL0     C69691   4.001   5.800  10.328 -0.4320 -0.6255 -0.6235
  517MOL0     C69692   4.008   5.660  10.341  0.4041 -0.2529 -0.1973
  517MOL0     C69693   3.907   5.571  10.301 -0.2449 -0.0355  0.1584
  517MOL0     C69694   3.786   5.623  10.264 -0.2306 -0.1604  0.1195
  517MOL0     O69695   3.667   5.558  10.235  0.0558 -0.3152 -0.5005
  517MOL0     C69696   3.674   5.421  10.202  0.1083  0.0583 -0.3648
  517MOL0     C69697   3.539   5.365  10.146 -0.2069 -0.1592 -0.9880
  517MOL0     C69698   3.477   5.452  10.043 -0.3460  0.5625  0.2977
  517MOL0     C69699   3.328   5.413  10.007  0.1963  0.6523  0.1196
  517MOL0     C69700   3.277   5.477   9.879 -0.2672 -0.5368  0.9540
  517MOL0     C69701   3.162   5.413   9.811  0.2082 -0.0671  1.0089
  517MOL0     C69702   3.200   5.289   9.732 -0.8850  0.4498  0.1886
  517MOL0     C69703   3.166   5.285   9.588  0.0863  0.5406  0.8209
  517MOL0    Cl69704   3.256   5.155   9.504  0.1515  0.1019  0.1346
  517MOL0     C69705   3.772   5.762  10.254 -0.0026  0.4031  0.3748
  517MOL0     C69706   3.881   5.850  10.279  0.1649  0.3089  0.1708
  517MOL0     O69707   4.165   5.943  10.149  0.1471  0.6127  0.4515
  517MOL0     C69708   4.378   5.955  10.431 -0.0127 -0.2422  0.3485
  517MOL0     C69709   4.501   6.005  10.458  0.0016 -1.0039  0.0982
  517MOL0     N69710   4.995   5.717  10.576  0.1645 -0.2998  0.5855
  517MOL0     N69711   4.950   5.595  10.545 -0.6073 -1.1177 -0.5313
  517MOL0     C69712   3.832   5.423   9.787  0.6000 -0.3058  0.3301
  517MOL0     C69713   3.728   5.439   9.694  0.0574  0.2363  0.6198
  517MOL0     C69714   3.522   5.618   9.334  0.4745  0.8581  0.2254
  517MOL0     C69715   3.558   5.642   9.200 -0.0299 -0.1969 -0.9236
  517MOL0     C69716   3.474   5.670   9.101  0.5924  0.1804  0.4000
  517MOL0     C69717   3.334   5.665   9.118  0.7387  0.6403  0.3562
  517MOL0     O69718   3.265   5.700   9.008 -0.3813 -0.4196 -0.9631
  517MOL0     C69719   3.137   5.767   9.029 -0.0968  0.5795  1.0241
  517MOL0     C69720   3.103   5.848   8.907  0.1766 -0.9295  0.5839
  517MOL0     C69721   3.074   5.758   8.780 -0.4429 -0.2941 -0.3732
  517MOL0     C69722   3.067   5.829   8.647  0.8882  0.0337 -0.7224
  517MOL0     C69723   2.965   5.932   8.661 -0.3323 -0.5082  0.2999
  517MOL0     C69724   2.891   6.024   8.667 -0.4238 -0.2899  0.1342
  517MOL0     C69725   3.286   5.631   9.242 -0.1442 -0.6074  0.4642
  517MOL0     C69726   3.379   5.613   9.350  0.3877  0.1698  0.9508
  517MOL0     C69727   3.323   5.580   9.487 -0.8505 -0.3508 -0.1900
  517MOL0     H69728   3.732   5.778   9.694  0.3469  0.1404 -0.1852
  517MOL0     H69729   3.903   5.748   9.858 -1.9506  2.1853  1.3751
  517MOL0     H69730   4.149   5.574   9.851  0.7997  0.6975 -0.0221
  517MOL0     H69731   4.073   5.671   9.963  2.3751  0.4185 -0.6719
  517MOL0     H69732   4.200   5.396  10.031 -1.4509 -0.5052 -1.4244
  517MOL0     H69733   4.134   5.511  10.149  0.3879 -2.6527 -0.6550
  517MOL0     H69734   4.318   5.682  10.082 -0.0362  0.7364 -0.1739
  517MOL0     H69735   4.397   5.542   9.996  0.1435 -0.0225  1.4128
  517MOL0     H69736   4.308   5.548  10.286 -0.1952  1.9833 -0.8172
  517MOL0     H69737   4.399   5.421  10.215  0.0323 -1.3216  0.9919
  517MOL0     H69738   4.576   5.590  10.155 -1.4831  2.6843 -1.4414
  517MOL0     H69739   4.493   5.716  10.232  2.9669 -0.6677 -2.1364
  517MOL0     H69740   4.607   5.683  10.423  0.6589  2.0253 -2.8780
  517MOL0     H69741   4.487   5.539  10.444 -0.2783  0.2915 -0.2230
  517MOL0     H69742   4.640   5.401  10.339  0.4463 -0.2006  0.6605
  517MOL0     H69743   4.670   5.440  10.500 -0.1558  0.9104  0.1867
  517MOL0     H69744   4.878   5.411  10.384  1.4360 -0.4525 -2.8702
  517MOL0     H69745   4.840   5.506  10.246  2.2537 -3.0560 -0.1710
  517MOL0     H69746   4.900   5.769  10.265  4.3252 -1.2924 -1.3613
  517MOL0     H69747   5.086   5.967  10.546 -4.0758  0.9013  1.2167
  517MOL0     H69748   5.117   5.954  10.375 -0.1575 -0.3974 -0.9383
  517MOL0     H69749   4.960   6.139  10.406  2.2490 -1.4389 -0.3385
  517MOL0     H69750   4.870   6.011  10.333  1.1089 -0.7791 -0.8995
  517MOL0     H69751   4.890   6.035  10.641 -0.0736 -1.8783  0.8433
  517MOL0     H69752   4.772   5.946  10.545 -0.1800  0.4286 -2.2193
  517MOL0     H69753   4.789   6.250  10.567  0.2016 -0.5269  2.3065
  517MOL0     H69754   4.657   6.151  10.617  0.4697  1.0688 -0.7227
  517MOL0     H69755   4.536   6.253  10.219 -1.8510 -1.6585 -2.4160
  517MOL0     H69756   4.302   6.170  10.174  1.2128  1.1077 -0.4975
  517MOL0     H69757   4.104   5.617  10.368  2.0161  3.1174 -0.0285
  517MOL0     H69758   3.915   5.463  10.301 -0.6039 -0.0642 -0.3732
  517MOL0     H69759   3.747   5.407  10.121 -0.2117 -1.6906 -0.3869
  517MOL0     H69760   3.701   5.361  10.289  4.0608 -0.9013 -2.0637
  517MOL0     H69761   3.565   5.265  10.110  0.2589 -0.5161  0.2787
  517MOL0     H69762   3.470   5.360  10.231  0.9462 -4.5170 -0.0516
  517MOL0     H69763   3.474   5.556  10.075 -0.1486 -0.1104  2.7011
  517MOL0     H69764   3.540   5.436   9.955 -2.6635 -2.5762 -0.9872
  517MOL0     H69765   3.260   5.414  10.092  0.9996 -4.2409  1.1018
  517MOL0     H69766   3.341   5.308   9.981  1.3245  1.0783 -1.1699
  517MOL0     H69767   3.361   5.490   9.810 -2.3988 -0.7879 -1.8555
  517MOL0     H69768   3.244   5.580   9.895 -3.0750 -0.6457 -2.6990
  517MOL0     H69769   3.091   5.377   9.886 -0.0259  0.7692  1.1964
  517MOL0     H69770   3.111   5.483   9.744 -3.2137 -2.9731  0.3400
  517MOL0     H69771   3.145   5.209   9.782 -3.4300  0.9838 -1.5998
  517MOL0     H69772   3.308   5.278   9.746 -1.1274  1.9557  4.8485
  517MOL0     H69773   3.060   5.263   9.571  1.0172 -2.1239 -2.7397
  517MOL0     H69774   3.192   5.380   9.542  2.1459  0.4482  1.6574
  517MOL0     H69775   3.673   5.799  10.230 -0.4443 -1.3322 -0.5876
  517MOL0     H69776   3.891   5.958  10.287  1.9781  0.4148 -2.3254
  517MOL0     H69777   4.342   5.861  10.474  1.3686 -0.6399  0.6967
  517MOL0     H69778   4.550   5.954  10.541 -1.1439 -0.6966  0.9909
  517MOL0     H69779   3.853   5.318   9.809 -3.2036 -1.2811  0.1088
  517MOL0     H69780   3.677   5.355   9.649 -1.2927  2.5053 -2.3680
  517MOL0     H69781   3.660   5.655   9.165  1.2728 -0.9266  2.2063
  517MOL0     H69782   3.511   5.696   9.003  1.8464  0.6011  0.9696
  517MOL0     H69783   3.142   5.838   9.112  0.8371  0.3582  1.1612
  517MOL0     H69784   3.054   5.699   9.051 -0.6206  1.8646  3.2552
  517MOL0     H69785   3.176   5.927   8.888 -0.3470 -1.0674 -2.7282
  517MOL0     H69786   3.006   5.894   8.928  0.0319 -1.3319  0.7998
  517MOL0     H69787   2.986   5.696   8.797 -1.8180  1.5312 -0.4972
  517MOL0     H69788   3.150   5.680   8.771  0.1702  0.2853 -0.3583
  517MOL0     H69789   3.163   5.871   8.617  0.9085  0.0033 -0.6998
  517MOL0     H69790   3.050   5.751   8.573 -0.7474 -0.0408 -0.3115
  517MOL0     H69791   2.808   6.091   8.675 -2.2048 -2.4544  0.9142
  517MOL0     H69792   3.179   5.641   9.255 -0.0664 -0.1111  0.7586
  517MOL0     H69793   3.352   5.657   9.559 -1.1355 -0.3507 -0.0752
  517MOL0     H69794   3.214   5.572   9.491 -0.9609  0.9487 -0.2025
  517MOL0     H69795   3.372   5.491   9.528  1.8564  0.5814 -1.1448
  518MOL0     O69796   6.091   6.891   0.852  0.0430 -0.1911  0.8481
  518MOL0     C69797   6.009   6.917   0.766 -0.0009  0.3554  0.1209
  518MOL0     O69798   6.043   6.936   0.641 -0.4182  0.4370 -0.1196
  518MOL0     C69799   6.179   6.928   0.599 -0.6051 -0.4545 -0.4820
  518MOL0     C69800   6.262   6.819   0.621  0.9092 -0.1652  0.5469
  518MOL0     C69801   6.398   6.824   0.582  0.2132 -0.2805  0.3498
  518MOL0     C69802   6.443   6.927   0.499 -0.2601  0.4210 -0.1306
  518MOL0     O69803   6.576   6.928   0.461  0.4395  0.1264 -0.1079
  518MOL0     C69804   6.645   7.027   0.522  0.1944  0.2963  0.3278
  518MOL0     C69805   6.777   6.984   0.590  0.3348  0.3539  0.1222
  518MOL0     C69806   6.865   7.093   0.633 -0.7502  0.7058  0.7560
  518MOL0     C69807   7.008   7.037   0.665 -0.4612 -0.4371 -0.1459
  518MOL0     C69808   7.081   7.122   0.766  0.3918  0.8291 -0.0656
  518MOL0     C69809   7.215   7.067   0.789  0.5447  0.0539 -0.2302
  518MOL0     C69810   7.279   7.117   0.918 -0.5184  1.3732  0.0640
  518MOL0     C69811   7.400   7.028   0.939 -0.0929  0.0567  0.8835
  518MOL0     N69812   7.388   6.895   0.985  0.1963 -0.7259 -0.5188
  518MOL0     C69813   7.412   6.783   0.912  0.0608 -0.4267  0.2975
  518MOL0     C69814   7.383   6.683   1.000  0.4782  0.3032 -0.6408
  518MOL0     C69815   7.402   6.537   0.961 -0.0230 -1.0455 -0.2499
  518MOL0     C69816   7.263   6.457   0.975 -0.5568  0.1864 -0.5546
  518MOL0     C69817   7.284   6.315   0.927  0.4516 -0.2400 -0.5591
  518MOL0     C69818   7.161   6.226   0.958 -0.4006 -0.1819 -0.6043
  518MOL0     O69819   7.209   6.095   0.936  0.4707  0.3005 -0.0911
  518MOL0     C69820   7.118   5.993   0.956  0.6272 -0.2743  0.0031
  518MOL0     C69821   6.984   6.006   1.012  0.4220 -0.0220  0.9656
  518MOL0     C69822   6.904   5.887   1.028 -0.5236  0.0644  0.1955
  518MOL0     C69823   6.950   5.764   0.971  1.2847  0.3877  0.2302
  518MOL0     C69824   6.854   5.654   0.983  0.9398 -0.0596 -0.1462
  518MOL0     O69825   6.713   5.680   1.018 -0.2579 -0.4012  0.8973
  518MOL0     C69826   6.634   5.581   1.066  1.2924  0.1555 -0.1067
  518MOL0     C69827   6.496   5.586   1.056 -0.7580 -0.6478 -0.1589
  518MOL0     C69828   6.413   5.495   1.114  0.1831 -0.0940  0.0624
  518MOL0     C69829   6.469   5.386   1.184 -0.0194  0.2550  0.0954
  518MOL0     O69830   6.373   5.297   1.231 -0.6732 -0.4380 -0.0552
  518MOL0     C69831   6.414   5.177   1.297 -0.5152  0.6547 -0.2244
  518MOL0     C69832   6.439   5.203   1.447  0.4086  0.4922 -0.9652
  518MOL0     C69833   6.403   5.086   1.540 -0.4699 -0.2157  0.1282
  518MOL0     C69834   6.250   5.057   1.530  0.1779  0.3617 -0.4760
  518MOL0     C69835   6.208   4.966   1.653 -0.0230 -0.3362 -0.6715
  518MOL0     C69836   6.073   4.905   1.631  0.0464 -0.4943 -0.0013
  518MOL0     C69837   6.035   4.840   1.767  0.3540 -0.2792 -0.7883
  518MOL0     C69838   5.889   4.812   1.770 -0.1724 -0.3058 -0.3253
  518MOL0    Cl69839   5.785   4.959   1.744  0.4321  0.0828  0.0593
  518MOL0     C69840   6.608   5.373   1.191  0.3253  0.1626 -0.8766
  518MOL0     C69841   6.688   5.473   1.137  0.0299  1.0305  0.4909
  518MOL0     O69842   6.897   5.546   0.960  0.0950  0.1598 -0.0430
  518MOL0     C69843   7.081   5.751   0.932  0.2214  0.7759 -0.7826
  518MOL0     C69844   7.165   5.867   0.928 -0.4883 -0.4035 -0.1038
  518MOL0     N69845   7.342   6.740   1.123  0.3880  0.0806 -0.1212
  518MOL0     N69846   7.345   6.865   1.108 -0.6883 -0.7486 -0.9748
  518MOL0     C69847   6.359   7.032   0.480 -0.3278 -0.8539 -1.7160
  518MOL0     C69848   6.228   7.037   0.526 -0.4741  0.2700 -0.5680
  518MOL0     C69849   5.866   6.928   0.814 -0.0129  0.0010  0.1071
  518MOL0     C69850   5.771   7.008   0.733  0.4114  0.0440  0.0608
  518MOL0     C69851   5.631   7.026   0.767  0.7763  0.1115  0.0234
  518MOL0     C69852   5.588   6.963   0.884  0.0246 -0.0086  1.1035
  518MOL0     O69853   5.469   6.973   0.936  0.2843  0.4201 -0.3138
  518MOL0     C69854   5.372   7.062   0.877 -0.3647  0.7937  0.1971
  518MOL0     C69855   5.250   7.078   0.944  0.2222 -0.6925 -0.0640
  518MOL0     C69856   5.285   7.124   1.087  0.2195 -0.2690  0.3466
  518MOL0     C69857   5.162   7.152   1.176 -0.2125 -0.0695  0.2985
  518MOL0     C69858   5.124   7.292   1.189 -0.3006  0.6667 -0.4766
  518MOL0     C69859   5.079   7.405   1.178 -0.0188  0.6482  0.9024
  518MOL0     C69860   5.680   6.885   0.959  0.3085 -0.2295  0.7714
  518MOL0     C69861   5.810   6.863   0.929 -0.3959  0.4278 -0.3367
  518MOL0     C69862   5.885   6.766   1.026 -0.6949 -0.9195  0.2751
  518MOL0     H69863   6.220   6.733   0.672  0.2994  0.3852  0.9789
  518MOL0     H69864   6.478   6.759   0.615  2.4106  2.0646  0.0242
  518MOL0     H69865   6.665   7.096   0.440 -2.9133  0.5548 -0.3397
  518MOL0     H69866   6.590   7.089   0.594  0.5038  2.1709 -0.9649
  518MOL0     H69867   6.831   6.928   0.514 -0.0530  1.6080 -1.1326
  518MOL0     H69868   6.751   6.922   0.676  1.1438 -1.4809 -0.9012
  518MOL0     H69869   6.821   7.130   0.726  0.6973 -0.9146  2.1777
  518MOL0     H69870   6.871   7.169   0.555 -1.4707  0.0924  0.0863
  518MOL0     H69871   6.990   6.937   0.704 -0.0064 -1.2810 -1.9815
  518MOL0     H69872   7.066   7.017   0.574  2.1110  1.0304  1.0687
  518MOL0     H69873   7.086   7.226   0.734  0.0055  0.0047 -3.2085
  518MOL0     H69874   7.025   7.114   0.859 -1.3736 -2.4678 -1.2456
  518MOL0     H69875   7.225   6.959   0.778  0.5791  0.3027 -4.8671
  518MOL0     H69876   7.275   7.088   0.699 -1.5135 -2.2438 -2.2835
  518MOL0     H69877   7.212   7.122   1.004  0.1952  0.2225  0.7110
  518MOL0     H69878   7.327   7.215   0.904  1.8219  0.3325  0.2886
  518MOL0     H69879   7.451   7.024   0.842 -2.3937 -0.6567 -0.3938
  518MOL0     H69880   7.467   7.084   1.005 -1.0456  0.8858  1.1696
  518MOL0     H69881   7.455   6.770   0.813 -1.5087 -1.5670 -0.2856
  518MOL0     H69882   7.441   6.539   0.859  0.5560 -2.1845 -0.0728
  518MOL0     H69883   7.486   6.495   1.017  2.5761  2.7820 -0.9275
  518MOL0     H69884   7.230   6.444   1.078  1.7954 -0.9788  0.1037
  518MOL0     H69885   7.191   6.510   0.911  2.0935  1.9944 -2.1983
  518MOL0     H69886   7.364   6.267   0.985 -1.9472 -2.3991  1.1922
  518MOL0     H69887   7.293   6.313   0.818 -0.4858 -0.0605 -0.6436
  518MOL0     H69888   7.072   6.260   0.903 -0.1509  2.1509  0.3219
  518MOL0     H69889   7.129   6.236   1.062 -1.2268  0.1976 -0.8857
  518MOL0     H69890   6.947   6.106   1.033  2.6461  1.2929 -0.9524
  518MOL0     H69891   6.810   5.894   1.083  0.4214  0.7391  1.7828
  518MOL0     H69892   6.447   5.672   1.011 -2.2497 -2.4493 -2.1813
  518MOL0     H69893   6.305   5.504   1.108  0.0948 -1.8593 -2.2501
  518MOL0     H69894   6.330   5.107   1.294 -0.4298  0.3844  2.1655
  518MOL0     H69895   6.498   5.123   1.252 -2.1982 -1.1200 -1.3920
  518MOL0     H69896   6.544   5.233   1.459  0.8825 -0.7295 -1.7585
  518MOL0     H69897   6.383   5.289   1.484  1.1253  1.0182 -1.0866
  518MOL0     H69898   6.469   5.002   1.517 -1.6673 -1.5008  1.2466
  518MOL0     H69899   6.430   5.116   1.642 -0.9925  1.9272 -0.3166
  518MOL0     H69900   6.231   4.995   1.442  2.0567  1.5471 -1.8052
  518MOL0     H69901   6.198   5.153   1.531  1.0522  0.8450 -0.4304
  518MOL0     H69902   6.213   5.043   1.730  1.3892  0.6213 -1.6594
  518MOL0     H69903   6.275   4.886   1.686  2.8532  1.7842 -0.9804
  518MOL0     H69904   5.995   4.976   1.602 -2.0718 -3.4719 -2.1233
  518MOL0     H69905   6.078   4.837   1.546  2.2549  2.1163 -2.1764
  518MOL0     H69906   6.059   4.913   1.845  0.8796 -2.0018  0.7318
  518MOL0     H69907   6.091   4.752   1.798 -2.8456 -1.3255  2.8838
  518MOL0     H69908   5.861   4.745   1.688 -0.9778  2.0012 -2.0176
  518MOL0     H69909   5.868   4.763   1.865  0.7893  2.5169  1.4448
  518MOL0     H69910   6.646   5.290   1.249 -2.6160 -0.9880 -0.4192
  518MOL0     H69911   6.790   5.445   1.161 -1.2913 -2.5362  2.8155
  518MOL0     H69912   7.119   5.657   0.894 -1.3043  0.8584 -2.7047
  518MOL0     H69913   7.268   5.854   0.896 -0.3199 -1.9492  0.9341
  518MOL0     H69914   6.407   7.119   0.435 -0.4597 -0.2513 -0.7283
  518MOL0     H69915   6.159   7.118   0.506 -0.8080  0.0655 -0.2444
  518MOL0     H69916   5.813   7.059   0.647  1.5680  1.0662  1.1829
  518MOL0     H69917   5.573   7.079   0.691  0.9526 -1.5360 -1.3330
  518MOL0     H69918   5.334   7.005   0.791 -0.7990 -1.9292  2.0513
  518MOL0     H69919   5.412   7.161   0.851 -0.1454  1.3289  2.4127
  518MOL0     H69920   5.193   6.985   0.949 -1.6795  0.3959 -0.6228
  518MOL0     H69921   5.191   7.154   0.893 -0.8548 -1.2430  0.3252
  518MOL0     H69922   5.353   7.209   1.087  0.1211 -0.1885  0.6170
  518MOL0     H69923   5.345   7.046   1.135 -2.0690 -1.7770  0.9326
  518MOL0     H69924   5.081   7.084   1.145 -0.5252  0.8267 -0.9271
  518MOL0     H69925   5.181   7.123   1.279 -3.1420 -0.7502  0.7460
  518MOL0     H69926   5.055   7.508   1.160 -0.4584  0.8192  2.3245
  518MOL0     H69927   5.631   6.837   1.043 -3.2758  2.2294  0.3163
  518MOL0     H69928   5.810   6.714   1.086 -2.2634  2.2872  1.3534
  518MOL0     H69929   5.947   6.693   0.973 -0.3696 -0.1605 -0.4019
  518MOL0     H69930   5.954   6.818   1.093 -1.8125  1.2135 -0.1457
  519MOL0     O69931   7.506   4.292   8.057 -0.6947 -0.1861 -0.2575
  519MOL0     C69932   7.393   4.344   8.077  0.2188  0.1272 -0.3726
  519MOL0     O69933   7.362   4.432   8.181  0.1985  0.0497 -0.1315
  519MOL0     C69934   7.473   4.495   8.235 -0.6110  0.5966  0.1632
  519MOL0     C69935   7.571   4.442   8.320  0.1522  0.3149  0.3319
  519MOL0     C69936   7.685   4.518   8.345 -0.3232 -0.8610 -0.2516
  519MOL0     C69937   7.705   4.648   8.294 -0.5095 -0.0376 -0.0019
  519MOL0     O69938   7.812   4.729   8.341 -0.1378  0.3199 -0.1245
  519MOL0     C69939   7.811   4.871   8.320  0.1003  0.6844  0.2049
  519MOL0     C69940   7.939   4.932   8.383  0.5438  0.1086  0.8497
  519MOL0     C69941   8.065   4.900   8.302 -0.2263 -0.0319  0.1336
  519MOL0     C69942   8.192   4.964   8.369 -0.3638  0.1836 -0.4241
  519MOL0     C69943   8.313   4.957   8.270 -1.3242 -0.5289 -0.2195
  519MOL0     C69944   8.454   4.978   8.342 -0.3517 -0.7740 -0.1406
  519MOL0     C69945   8.574   5.004   8.251  0.3577  0.5644 -0.3704
  519MOL0     C69946   8.607   4.894   8.151 -1.0411  0.1416 -0.3350
  519MOL0     N69947   8.757   4.878   8.132  0.1531  0.3493 -0.3537
  519MOL0     C69948   8.856   4.842   8.222 -0.0620  0.7886  0.4405
  519MOL0     C69949   8.974   4.850   8.152  0.6439 -0.3292 -0.5838
  519MOL0     C69950   9.104   4.798   8.200  0.5565  0.9939  0.1847
  519MOL0     C69951   9.200   4.740   8.102 -0.1452  0.5570 -1.4475
  519MOL0     C69952   9.286   4.846   8.023  0.7206 -0.0946 -0.5136
  519MOL0     C69953   9.410   4.762   7.978 -1.2915 -1.0639 -0.1418
  519MOL0     O69954   9.511   4.849   7.922 -0.1152  0.0585  0.2441
  519MOL0     C69955   9.639   4.796   7.907  0.0210 -1.4518  0.0245
  519MOL0     C69956   9.679   4.661   7.907  0.4477  0.1028  0.2552
  519MOL0     C69957   9.814   4.629   7.889  0.7989  0.4109 -0.6636
  519MOL0     C69958   9.912   4.725   7.899 -0.3931  0.4556 -1.1576
  519MOL0     C69959  10.053   4.688   7.893  0.0247  0.4896 -0.4204
  519MOL0     O69960  10.134   4.780   7.838 -0.0333  0.1115  0.3776
  519MOL0     C69961  10.268   4.751   7.846  0.0403 -0.1338 -0.8789
  519MOL0     C69962  10.332   4.730   7.969  0.5075 -0.7392  0.1463
  519MOL0     C69963  10.475   4.719   7.979  0.3127 -0.8563  0.3207
  519MOL0     C69964  10.548   4.715   7.860  0.3227 -1.0473 -0.0284
  519MOL0     O69965  10.672   4.674   7.859 -0.4578 -1.3016 -0.3617
  519MOL0     C69966  10.758   4.768   7.925  0.0468 -0.2215  0.3869
  519MOL0     C69967  10.860   4.811   7.826  0.8978  0.0480  0.0415
  519MOL0     C69968  10.934   4.926   7.891 -1.1054 -0.6612 -0.3328
  519MOL0     C69969  11.076   4.945   7.830  0.9643  0.7346 -0.1464
  519MOL0     C69970  11.152   5.056   7.891 -0.3947 -0.6462 -0.0613
  519MOL0     C69971  11.300   5.036   7.840 -0.0834 -0.8742 -0.5266
  519MOL0     C69972  11.382   5.168   7.880 -0.2023 -0.4037  0.1600
  519MOL0     C69973  11.524   5.139   7.894 -0.6268  0.1128 -0.5995
  519MOL0    Cl69974  11.611   5.268   7.963 -0.1541 -0.0446 -0.0762
  519MOL0     C69975  10.490   4.741   7.739 -0.3365  0.6702 -0.1821
  519MOL0     C69976  10.355   4.761   7.734  0.2018 -1.4409 -0.5186
  519MOL0     O69977  10.082   4.563   7.908 -0.0269 -0.6641 -0.2680
  519MOL0     C69978   9.871   4.860   7.903  0.5574 -0.2101  0.0436
  519MOL0     C69979   9.742   4.897   7.900 -0.6725 -0.2781  0.3571
  519MOL0     N69980   8.949   4.905   8.024 -0.5473 -0.2131 -0.1291
  519MOL0     N69981   8.817   4.912   8.013 -0.4143  0.7162 -0.3430
  519MOL0     C69982   7.611   4.698   8.211 -0.5996  0.2475  0.4235
  519MOL0     C69983   7.499   4.626   8.193  0.0333 -0.5355 -0.6113
  519MOL0     C69984   7.287   4.312   7.983  0.9326 -0.7197 -0.1985
  519MOL0     C69985   7.155   4.345   8.027  0.4660 -0.3979 -0.4542
  519MOL0     C69986   7.038   4.307   7.965  1.0018  1.4340 -0.7725
  519MOL0     C69987   7.043   4.228   7.854 -0.6959  0.2386 -0.2433
  519MOL0     O69988   6.924   4.193   7.797  0.0780  1.0949 -0.4447
  519MOL0     C69989   6.914   4.062   7.743  0.7053 -0.1452  0.3005
  519MOL0     C69990   6.774   4.014   7.760 -0.1182  0.6674 -0.2342
  519MOL0     C69991   6.774   3.873   7.719 -0.1079  0.3300  0.4401
  519MOL0     C69992   6.633   3.814   7.721 -0.3473 -0.2232  0.5432
  519MOL0     C69993   6.531   3.887   7.645  0.4644 -0.5823  0.8095
  519MOL0     C69994   6.446   3.953   7.589 -0.2927 -1.5551 -0.1593
  519MOL0     C69995   7.166   4.191   7.802 -0.0611  0.6989  1.2213
  519MOL0     C69996   7.288   4.229   7.862 -0.7734  1.3426 -0.6753
  519MOL0     C69997   7.420   4.205   7.796 -0.4135 -0.5302 -0.0516
  519MOL0     H69998   7.556   4.336   8.338  0.9041  0.2558  0.6744
  519MOL0     H69999   7.763   4.473   8.405 -0.1213 -1.3108 -0.8494
  519MOL0     H70000   7.834   4.892   8.215  0.1799  1.6587  0.4079
  519MOL0     H70001   7.715   4.915   8.348 -2.1828 -3.7230  0.1144
  519MOL0     H70002   7.958   4.911   8.489  1.7150 -0.5311  0.5268
  519MOL0     H70003   7.921   5.040   8.381  0.0045  0.0398 -2.0837
  519MOL0     H70004   8.046   4.926   8.198 -2.0030  0.4258  0.5459
  519MOL0     H70005   8.080   4.791   8.306  2.1066  0.2653  1.3727
  519MOL0     H70006   8.180   5.067   8.405 -0.4478  0.8288 -2.1803
  519MOL0     H70007   8.212   4.908   8.461 -0.5803  1.1158  0.2027
  519MOL0     H70008   8.312   4.858   8.225 -1.2551 -1.3140  1.4517
  519MOL0     H70009   8.294   5.030   8.191 -0.6096  2.3631  2.0616
  519MOL0     H70010   8.433   5.072   8.393  1.5855 -0.5411  0.3218
  519MOL0     H70011   8.466   4.895   8.413 -2.0896  0.7481  2.0652
  519MOL0     H70012   8.658   5.043   8.309  0.3142  0.0265  0.0678
  519MOL0     H70013   8.550   5.093   8.191  2.0812  0.9969 -0.4566
  519MOL0     H70014   8.586   4.797   8.196 -0.8736  0.7126  1.0141
  519MOL0     H70015   8.546   4.907   8.061 -1.9040  1.7619  0.4277
  519MOL0     H70016   8.842   4.790   8.316  2.6579 -0.7265  0.1156
  519MOL0     H70017   9.154   4.876   8.258  0.9711  0.8467  0.0256
  519MOL0     H70018   9.088   4.721   8.277  3.0400  3.2719  3.2539
  519MOL0     H70019   9.272   4.689   8.166  1.7654  1.8464 -2.4824
  519MOL0     H70020   9.155   4.673   8.028 -2.3308 -1.3261  1.3672
  519MOL0     H70021   9.296   4.937   8.083 -4.4556  0.0568  0.5803
  519MOL0     H70022   9.234   4.888   7.936 -0.1071  1.1200  0.5312
  519MOL0     H70023   9.368   4.693   7.904 -1.9965  1.1627 -1.9288
  519MOL0     H70024   9.464   4.713   8.059 -1.2087  1.9901  1.8116
  519MOL0     H70025   9.604   4.583   7.898  3.2304 -2.8582  0.7114
  519MOL0     H70026   9.842   4.525   7.875  0.6915  0.0233  1.6147
  519MOL0     H70027  10.270   4.729   8.058 -0.4393  1.1147 -0.4438
  519MOL0     H70028  10.531   4.703   8.070 -0.5671  0.5015  1.1417
  519MOL0     H70029  10.708   4.862   7.950 -0.4265 -0.7531  1.5558
  519MOL0     H70030  10.793   4.717   8.016  0.7717 -0.0452  0.2157
  519MOL0     H70031  10.924   4.725   7.803  0.9414  0.6652 -2.5426
  519MOL0     H70032  10.812   4.853   7.737  2.2605  3.8108  0.8926
  519MOL0     H70033  10.884   5.022   7.879  0.9754  0.3469 -1.3993
  519MOL0     H70034  10.951   4.913   7.999  1.6301 -1.0241 -0.7367
  519MOL0     H70035  11.052   4.962   7.724  1.7475  3.0273 -0.0175
  519MOL0     H70036  11.127   4.848   7.837 -2.8918 -1.6293 -1.3470
  519MOL0     H70037  11.152   5.042   8.000  2.2839  0.7574  0.2060
  519MOL0     H70038  11.109   5.152   7.863 -1.2935 -1.0183  0.0170
  519MOL0     H70039  11.348   4.941   7.862  1.3223  0.0435  0.5565
  519MOL0     H70040  11.297   5.041   7.731  1.5838  0.7611 -0.5467
  519MOL0     H70041  11.334   5.195   7.975  0.8823 -0.2595  0.6865
  519MOL0     H70042  11.374   5.249   7.807  1.4510 -0.8666 -0.5917
  519MOL0     H70043  11.539   5.046   7.949  0.9240  0.9219  0.4060
  519MOL0     H70044  11.570   5.123   7.796 -0.6835  2.3538 -1.0529
  519MOL0     H70045  10.561   4.733   7.658 -0.1398  1.5750 -0.1128
  519MOL0     H70046  10.302   4.770   7.640  0.4752  0.0584 -0.5548
  519MOL0     H70047   9.941   4.943   7.898 -1.4699  1.5276 -2.2430
  519MOL0     H70048   9.714   5.002   7.899  1.3306  0.2943  0.0936
  519MOL0     H70049   7.619   4.792   8.157  0.4034 -0.3269 -0.4660
  519MOL0     H70050   7.426   4.673   8.128 -0.0583 -0.0188 -0.1439
  519MOL0     H70051   7.147   4.402   8.119 -0.9410  0.6341 -1.1779
  519MOL0     H70052   6.940   4.334   8.004  0.3413 -1.4959 -0.1408
  519MOL0     H70053   6.981   3.995   7.797 -3.2362 -2.1236  3.3332
  519MOL0     H70054   6.938   4.071   7.637  4.0490  0.9234  1.0414
  519MOL0     H70055   6.719   4.071   7.684  2.3736  0.6886 -2.1310
  519MOL0     H70056   6.738   4.023   7.863  0.3907 -1.1062  0.1260
  519MOL0     H70057   6.826   3.822   7.801  1.0102  1.6233  0.5879
  519MOL0     H70058   6.816   3.858   7.619  1.2234  0.2035  0.9982
  519MOL0     H70059   6.631   3.711   7.682 -1.4345 -0.0668  0.1555
  519MOL0     H70060   6.604   3.818   7.826 -3.9489 -0.1576 -0.3355
  519MOL0     H70061   6.376   4.027   7.555 -2.6231 -3.5296  0.0745
  519MOL0     H70062   7.174   4.127   7.714  1.1007  0.0462  1.7764
  519MOL0     H70063   7.441   4.098   7.801 -0.8608 -0.5906  0.6665
  519MOL0     H70064   7.419   4.228   7.689 -0.4986  0.7536  0.2098
  519MOL0     H70065   7.489   4.277   7.840 -1.3617  0.2134  0.2600
  520MOL0     O70066   2.616   2.913   9.702  0.4247  0.1785  0.3147
  520MOL0     C70067   2.523   2.937   9.618  1.2351 -0.8146  0.1626
  520MOL0     O70068   2.526   2.914   9.476 -0.2780 -0.3073  0.1547
  520MOL0     C70069   2.652   2.902   9.424 -0.9815  0.1926 -0.3498
  520MOL0     C70070   2.752   2.799   9.440  0.5535 -0.3178 -0.1513
  520MOL0     C70071   2.880   2.812   9.401 -0.7030  0.2761 -0.2816
  520MOL0     C70072   2.924   2.930   9.339  0.3124 -0.0067 -0.5224
  520MOL0     O70073   3.051   2.954   9.291  0.5427 -0.8115 -0.1559
  520MOL0     C70074   3.164   2.874   9.322 -0.2577 -0.8099  0.7107
  520MOL0     C70075   3.291   2.962   9.299  0.2746  0.3653  0.5466
  520MOL0     C70076   3.303   3.080   9.395  0.5300  0.6907  0.2791
  520MOL0     C70077   3.421   3.171   9.389  0.3250 -0.6368 -0.4071
  520MOL0     C70078   3.551   3.113   9.449  0.2849 -0.1267  1.0256
  520MOL0     C70079   3.658   3.225   9.427 -0.5585  0.1494  0.2225
  520MOL0     C70080   3.770   3.186   9.517  0.2073 -0.6115  0.5892
  520MOL0     C70081   3.906   3.242   9.469 -0.0962  0.3126  0.4697
  520MOL0     N70082   3.924   3.377   9.515 -0.2688  0.2025 -0.3104
  520MOL0     C70083   3.948   3.477   9.420 -0.2755  0.0924  0.0413
  520MOL0     C70084   3.951   3.590   9.487  0.3401  1.2425  0.7803
  520MOL0     C70085   3.955   3.718   9.414 -0.4616 -0.8139  1.3822
  520MOL0     C70086   4.027   3.823   9.498 -0.1540  0.3806 -0.9832
  520MOL0     C70087   3.991   3.969   9.454  0.3035 -0.4867 -0.0978
  520MOL0     C70088   4.069   4.011   9.334  0.9989 -0.2044  0.8122
  520MOL0     O70089   4.105   4.149   9.340  0.2752 -0.5236  0.2443
  520MOL0     C70090   4.186   4.200   9.242 -0.2335 -0.8499 -0.0206
  520MOL0     C70091   4.266   4.323   9.261  0.8404 -0.0061  0.1826
  520MOL0     C70092   4.342   4.371   9.153  0.2291  0.1469  0.0599
  520MOL0     C70093   4.337   4.315   9.027 -0.6873  0.6434  1.5291
  520MOL0     C70094   4.429   4.370   8.909  0.7808  0.6084  0.3569
  520MOL0     O70095   4.558   4.391   8.956  0.0923  0.0671  0.0179
  520MOL0     C70096   4.656   4.428   8.866  0.3066 -0.6519  0.4215
  520MOL0     C70097   4.649   4.441   8.724  0.0792 -0.1018 -0.7473
  520MOL0     C70098   4.755   4.498   8.655 -0.3365  0.6367  0.3740
  520MOL0     C70099   4.874   4.538   8.724  0.5108 -0.2785  0.7682
  520MOL0     O70100   4.974   4.594   8.637  0.1989  0.1719 -0.8014
  520MOL0     C70101   5.080   4.663   8.708  0.1439  0.4800 -0.1038
  520MOL0     C70102   5.170   4.725   8.595 -0.5164 -0.6211  0.0483
  520MOL0     C70103   5.282   4.788   8.670 -0.9647 -0.4551 -0.1782
  520MOL0     C70104   5.367   4.876   8.571 -0.6849  0.4161  0.1369
  520MOL0     C70105   5.483   4.949   8.641 -0.4652  0.1481  0.0562
  520MOL0     C70106   5.595   4.989   8.540  0.3597 -0.0024  0.5092
  520MOL0     C70107   5.705   5.081   8.589 -1.0767 -0.1486 -0.1102
  520MOL0     C70108   5.828   5.072   8.495  0.5077 -0.3748 -1.0676
  520MOL0    Cl70109   5.794   5.155   8.336 -0.4938  0.2498  0.0620
  520MOL0     C70110   4.876   4.528   8.865  0.7174 -0.0273  0.3222
  520MOL0     C70111   4.768   4.475   8.934 -0.6501  1.1656 -0.1544
  520MOL0     O70112   4.385   4.379   8.791  0.0140  0.7040 -0.5500
  520MOL0     C70113   4.274   4.190   9.017 -0.1638  0.3106  0.6321
  520MOL0     C70114   4.196   4.131   9.114  0.2960 -0.0465  0.0312
  520MOL0     N70115   3.931   3.555   9.617  0.3664  0.0495 -0.0993
  520MOL0     N70116   3.922   3.433   9.641  0.0343 -0.0291  0.3423
  520MOL0     C70117   2.827   3.040   9.326 -0.3973 -0.1353 -0.7191
  520MOL0     C70118   2.693   3.020   9.356  0.1912  0.3147  0.6393
  520MOL0     C70119   2.393   2.988   9.665 -0.1528 -0.1843  0.7687
  520MOL0     C70120   2.288   2.996   9.569 -0.2425 -0.2278 -0.0309
  520MOL0     C70121   2.161   3.029   9.613  0.0067 -1.0149  0.0619
  520MOL0     C70122   2.129   3.065   9.744  0.8697  0.0752  0.2416
  520MOL0     O70123   2.004   3.107   9.797 -0.0220  0.1289  0.7370
  520MOL0     C70124   1.900   3.131   9.701 -0.0358 -0.4544 -0.0997
  520MOL0     C70125   1.915   3.276   9.659 -0.2591 -0.4559  0.6407
  520MOL0     C70126   1.890   3.370   9.778  0.3551  0.5572 -0.6708
  520MOL0     C70127   1.977   3.491   9.767 -0.6394  0.6156 -0.9633
  520MOL0     C70128   1.940   3.599   9.858 -0.0243 -0.0462 -0.0081
  520MOL0     C70129   1.913   3.695   9.932 -0.7073  0.4998 -0.0760
  520MOL0     C70130   2.225   3.057   9.838 -0.2875  0.3286 -0.2390
  520MOL0     C70131   2.361   3.018   9.801  0.5112  0.1348 -0.8887
  520MOL0     C70132   2.461   3.012   9.909 -0.4853  0.4169 -0.3335
  520MOL0     H70133   2.717   2.708   9.487  1.7399 -0.7746 -0.1190
  520MOL0     H70134   2.948   2.728   9.410 -2.4857 -1.1476  0.7190
  520MOL0     H70135   3.162   2.843   9.427  5.8781 -0.7302  1.2148
  520MOL0     H70136   3.160   2.787   9.256  1.1540 -0.7311  0.5024
  520MOL0     H70137   3.284   3.000   9.197 -2.3980 -2.4651 -0.4669
  520MOL0     H70138   3.381   2.899   9.300  0.3441  0.4218 -0.8888
  520MOL0     H70139   3.287   3.051   9.499  1.2452  3.4177  1.2488
  520MOL0     H70140   3.217   3.140   9.366  0.4547  0.7875  0.7051
  520MOL0     H70141   3.439   3.200   9.285 -0.0769 -1.9229 -0.8614
  520MOL0     H70142   3.393   3.260   9.445  1.4011 -1.5154  1.6468
  520MOL0     H70143   3.546   3.084   9.554 -0.2404  2.9519  1.9612
  520MOL0     H70144   3.570   3.025   9.388 -2.2680 -1.0177  1.3997
  520MOL0     H70145   3.684   3.233   9.321 -1.4070  1.0810  0.0677
  520MOL0     H70146   3.630   3.327   9.457  4.4030  2.1249 -0.8713
  520MOL0     H70147   3.794   3.080   9.504  0.5157 -0.2740 -2.2085
  520MOL0     H70148   3.748   3.205   9.622  1.9753  1.6113  0.6293
  520MOL0     H70149   3.989   3.192   9.520 -2.5875 -2.7119  1.8915
  520MOL0     H70150   3.917   3.235   9.361  1.1999 -0.8112  0.6411
  520MOL0     H70151   3.960   3.466   9.313  1.0614  1.2238  0.0569
  520MOL0     H70152   4.002   3.705   9.316 -2.2069 -0.9796  0.5307
  520MOL0     H70153   3.852   3.747   9.392  0.5379  1.7653 -0.3493
  520MOL0     H70154   3.991   3.813   9.600  1.3064 -1.0381 -0.5604
  520MOL0     H70155   4.134   3.801   9.498 -0.2426 -0.5960  2.3553
  520MOL0     H70156   4.020   4.044   9.528  1.0472  0.2002 -1.0684
  520MOL0     H70157   3.886   3.981   9.426  0.8291  0.8847 -1.6375
  520MOL0     H70158   4.012   4.003   9.241  2.4320  0.3647 -0.1467
  520MOL0     H70159   4.162   3.955   9.323  1.6701  1.0967 -0.4260
  520MOL0     H70160   4.273   4.358   9.363  0.1017 -1.2197  0.6715
  520MOL0     H70161   4.398   4.463   9.166  0.5996 -0.2832  1.7073
  520MOL0     H70162   4.564   4.416   8.660  0.1757 -1.2617 -0.4443
  520MOL0     H70163   4.750   4.494   8.547  1.4417 -2.3978  0.2621
  520MOL0     H70164   5.048   4.736   8.783  3.5064  1.2324  0.7595
  520MOL0     H70165   5.140   4.588   8.761  0.1006  0.8419  0.4698
  520MOL0     H70166   5.206   4.647   8.527 -2.4511 -0.0979 -1.6763
  520MOL0     H70167   5.105   4.789   8.535  0.0005 -0.2401 -0.1093
  520MOL0     H70168   5.246   4.863   8.741 -1.2282 -1.9710  1.3456
  520MOL0     H70169   5.341   4.711   8.721 -2.8076 -1.8756 -0.1044
  520MOL0     H70170   5.306   4.954   8.524 -1.1392 -0.1062 -0.1536
  520MOL0     H70171   5.404   4.814   8.489 -0.8312  1.1706 -0.5128
  520MOL0     H70172   5.523   4.879   8.715 -2.0860  1.7482  2.6033
  520MOL0     H70173   5.452   5.035   8.701  1.2426  1.7161 -1.2026
  520MOL0     H70174   5.653   4.901   8.510  2.7891  2.2583 -1.9654
  520MOL0     H70175   5.546   5.039   8.456 -0.4840 -0.0251  0.9699
  520MOL0     H70176   5.736   5.059   8.691  2.2370 -0.7590 -1.1051
  520MOL0     H70177   5.666   5.183   8.584  0.4997  0.5473  0.9073
  520MOL0     H70178   5.911   5.121   8.545 -0.6419  1.1310 -0.5485
  520MOL0     H70179   5.839   4.968   8.465 -0.4127 -0.6504 -0.5193
  520MOL0     H70180   4.962   4.545   8.928  1.9930 -4.2808  0.0692
  520MOL0     H70181   4.763   4.485   9.042 -2.7106 -0.5145 -0.0394
  520MOL0     H70182   4.295   4.140   8.923  0.7272 -0.6693  1.3266
  520MOL0     H70183   4.152   4.043   9.067  0.7857 -0.3114  0.0535
  520MOL0     H70184   2.855   3.141   9.297 -1.1261  1.1687  2.6442
  520MOL0     H70185   2.634   3.108   9.335  2.5896  1.8884  0.0940
  520MOL0     H70186   2.300   2.972   9.464 -0.5448 -3.1292  0.5083
  520MOL0     H70187   2.089   3.032   9.532  0.1910 -2.0178 -0.1485
  520MOL0     H70188   1.805   3.108   9.751  0.1301 -2.3751 -0.5663
  520MOL0     H70189   1.901   3.060   9.617  0.1284 -0.1908 -0.3192
  520MOL0     H70190   1.845   3.284   9.576  0.7502 -1.7502 -0.3850
  520MOL0     H70191   2.018   3.293   9.626 -0.2469 -2.8309 -0.7764
  520MOL0     H70192   1.919   3.316   9.869 -2.2590  1.5361  0.8472
  520MOL0     H70193   1.784   3.396   9.789  0.7158  2.9068 -2.0351
  520MOL0     H70194   2.081   3.460   9.776 -1.9067 -4.0238  0.5857
  520MOL0     H70195   1.962   3.519   9.662 -0.4748 -3.2437 -2.1742
  520MOL0     H70196   1.899   3.782   9.993 -1.2000 -0.5120  1.3047
  520MOL0     H70197   2.203   3.063   9.945  0.1834  0.1756 -0.1300
  520MOL0     H70198   2.492   2.910   9.934 -0.3015  1.3784  4.2267
  520MOL0     H70199   2.547   3.075   9.885 -2.3566  1.9806 -3.5090
  520MOL0     H70200   2.420   3.048  10.004  2.3413  0.7755  0.8675
  521MOL0     O70201   8.319   9.517   5.049 -0.0448  0.1476  0.0595
  521MOL0     C70202   8.339   9.404   4.998  0.6289  0.2867  0.2900
  521MOL0     O70203   8.443   9.336   5.001 -0.2344 -0.5826 -0.3133
  521MOL0     C70204   8.558   9.389   5.058  0.4411  1.3285  0.0461
  521MOL0     C70205   8.629   9.290   5.125 -0.2161  0.3240  1.2631
  521MOL0     C70206   8.747   9.313   5.197  0.0768 -0.9615 -0.4872
  521MOL0     C70207   8.798   9.449   5.205  0.4210 -0.3679 -0.2074
  521MOL0     O70208   8.919   9.474   5.266 -0.5875  0.2497  0.1257
  521MOL0     C70209   9.007   9.577   5.210  0.0858 -0.0452  1.0268
  521MOL0     C70210   9.124   9.584   5.312 -0.8441 -0.4953  0.3283
  521MOL0     C70211   9.220   9.701   5.274  0.6642 -0.3046 -1.1031
  521MOL0     C70212   9.350   9.694   5.352 -0.5515  0.0242  0.1506
  521MOL0     C70213   9.457   9.793   5.306 -0.2713 -0.4671 -0.6747
  521MOL0     C70214   9.573   9.806   5.402  0.3659  0.0218  0.1801
  521MOL0     C70215   9.647   9.679   5.459  0.6656 -0.3024 -0.6103
  521MOL0     C70216   9.730   9.622   5.354  0.5583 -0.0617 -0.0059
  521MOL0     N70217   9.838   9.706   5.319 -0.5597 -0.1729 -0.9921
  521MOL0     C70218   9.928   9.778   5.398  0.5840  0.4011  0.5654
  521MOL0     C70219  10.007   9.843   5.315 -0.0460 -0.1585  0.3331
  521MOL0     C70220  10.118   9.939   5.350 -0.6752 -0.8674 -0.1917
  521MOL0     C70221  10.252   9.881   5.298 -0.0809  0.8486 -0.4556
  521MOL0     C70222  10.373   9.971   5.340  0.8115 -0.2525 -0.6373
  521MOL0     C70223  10.505   9.898   5.346  0.2031 -1.1315  0.3782
  521MOL0     O70224  10.600  10.006   5.364 -0.2040  0.4219  0.1180
  521MOL0     C70225  10.732   9.975   5.371 -0.5771 -0.6193  1.1720
  521MOL0     C70226  10.781   9.895   5.270 -0.2169 -0.9352 -0.6625
  521MOL0     C70227  10.920   9.890   5.264 -0.2846  0.3021 -0.0754
  521MOL0     C70228  11.005   9.961   5.345 -1.3189  0.1020  0.5221
  521MOL0     C70229  11.151   9.962   5.315 -0.4854  0.7044 -0.4192
  521MOL0     O70230  11.195   9.937   5.187  0.1751 -0.1116  0.8965
  521MOL0     C70231  11.325   9.945   5.168  0.1061 -0.1640 -0.8478
  521MOL0     C70232  11.371  10.038   5.082  0.0945  0.1214 -0.2705
  521MOL0     C70233  11.507  10.036   5.050 -0.3468 -0.1171 -0.7692
  521MOL0     C70234  11.598   9.945   5.112 -0.5649 -0.4032 -0.0513
  521MOL0     O70235  11.733   9.959   5.081  0.6629 -0.0386  0.0069
  521MOL0     C70236  11.823   9.848   5.108  0.3918  0.6243  0.3252
  521MOL0     C70237  11.962   9.874   5.044  0.4880 -0.2824  0.1152
  521MOL0     C70238  12.068   9.756   5.047  0.2740  0.6561  0.3594
  521MOL0     C70239  12.207   9.814   5.017 -0.0644  0.7917 -0.3942
  521MOL0     C70240  12.311   9.704   5.024 -0.1332  0.5690 -0.3313
  521MOL0     C70241  12.447   9.744   4.955  0.2094 -1.1545  0.1127
  521MOL0     C70242  12.567   9.663   5.001 -0.2190 -0.1135 -0.2760
  521MOL0     C70243  12.695   9.720   4.947 -0.1027  0.1923 -0.5688
  521MOL0    Cl70244  12.827   9.639   5.032  0.2077  0.3026  0.4358
  521MOL0     C70245  11.545   9.850   5.196 -0.0633  0.4734  0.1312
  521MOL0     C70246  11.407   9.853   5.232  0.4955  0.3456  0.6039
  521MOL0     O70247  11.227   9.988   5.407  0.1772 -0.8681  0.0255
  521MOL0     C70248  10.958  10.030   5.457 -0.1853  0.2978  1.2138
  521MOL0     C70249  10.818  10.037   5.469  0.9661  0.1737 -0.0184
  521MOL0     N70250   9.970   9.821   5.186  0.3103 -0.1297 -0.0333
  521MOL0     N70251   9.869   9.746   5.190  0.2261  0.6632  0.3273
  521MOL0     C70252   8.726   9.547   5.128 -0.1724 -0.4234 -0.5109
  521MOL0     C70253   8.608   9.522   5.068 -0.5674  0.1240 -0.6312
  521MOL0     C70254   8.227   9.343   4.920 -0.7683  0.2358 -1.2592
  521MOL0     C70255   8.199   9.205   4.923  0.2150 -0.1111  0.3881
  521MOL0     C70256   8.083   9.153   4.845  0.3801 -0.1262 -0.1499
  521MOL0     C70257   8.001   9.233   4.768 -0.7294  0.7067  0.5710
  521MOL0     O70258   7.885   9.185   4.707  0.2358 -0.1177 -0.3699
  521MOL0     C70259   7.774   9.267   4.736  0.0605  1.4500 -0.7342
  521MOL0     C70260   7.649   9.252   4.642  0.3333  0.5280 -0.2083
  521MOL0     C70261   7.690   9.293   4.501  0.0144 -0.3947  0.2319
  521MOL0     C70262   7.697   9.443   4.486 -0.2017 -0.3141 -0.4324
  521MOL0     C70263   7.583   9.526   4.524 -0.3457  0.0554 -0.6450
  521MOL0     C70264   7.498   9.593   4.570 -0.3372 -0.3406  0.3879
  521MOL0     C70265   8.053   9.364   4.741 -0.3058 -0.4393  0.3188
  521MOL0     C70266   8.156   9.421   4.823 -0.1940 -0.1311  0.2220
  521MOL0     C70267   8.182   9.576   4.795 -0.8089 -0.0147  0.0016
  521MOL0     H70268   8.601   9.185   5.136 -1.3163  0.3731 -0.7354
  521MOL0     H70269   8.805   9.228   5.230 -1.3072 -0.6446  3.1273
  521MOL0     H70270   9.034   9.558   5.106  2.0123 -0.1623  1.5114
  521MOL0     H70271   8.951   9.671   5.217 -0.0524  0.0200 -0.6161
  521MOL0     H70272   9.176   9.488   5.313 -0.2442 -0.2284  3.0722
  521MOL0     H70273   9.086   9.598   5.414 -1.2860 -0.1621  0.1212
  521MOL0     H70274   9.169   9.797   5.283  3.4730  1.1749  0.1783
  521MOL0     H70275   9.244   9.693   5.167 -0.4862 -0.8282 -1.3394
  521MOL0     H70276   9.321   9.710   5.457  1.1598  0.4964  0.5800
  521MOL0     H70277   9.387   9.593   5.337  0.4169  0.1741  1.3876
  521MOL0     H70278   9.479   9.766   5.202 -2.1010 -1.1788 -0.9006
  521MOL0     H70279   9.412   9.892   5.299 -2.3395 -1.2913  0.4144
  521MOL0     H70280   9.644   9.876   5.357 -2.0629  0.7557 -2.7387
  521MOL0     H70281   9.537   9.849   5.496 -1.9666  0.0103 -0.6571
  521MOL0     H70282   9.580   9.600   5.495 -1.0360  0.7547 -1.3545
  521MOL0     H70283   9.709   9.702   5.547  0.7753  1.6018 -1.1491
  521MOL0     H70284   9.760   9.522   5.386  0.0972 -0.8987 -1.9690
  521MOL0     H70285   9.667   9.610   5.265  0.5522  2.0290 -0.3276
  521MOL0     H70286   9.929   9.785   5.506  1.2007  3.0818  0.4738
  521MOL0     H70287  10.093  10.040   5.314 -0.0470 -0.3656  0.7301
  521MOL0     H70288  10.140   9.948   5.457 -2.9318  2.5870  0.1666
  521MOL0     H70289  10.270   9.780   5.336  0.5373  1.0764 -0.1284
  521MOL0     H70290  10.255   9.858   5.191 -0.9169 -2.0419  0.0616
  521MOL0     H70291  10.355  10.016   5.438  2.5861 -0.3507 -0.2410
  521MOL0     H70292  10.391  10.052   5.268 -0.8117  1.8252  1.1478
  521MOL0     H70293  10.515   9.848   5.250  1.5727 -0.6095  0.2296
  521MOL0     H70294  10.513   9.826   5.428 -0.1388 -2.5792 -0.8217
  521MOL0     H70295  10.719   9.855   5.190  1.9538 -2.0169 -1.9068
  521MOL0     H70296  10.956   9.817   5.192  3.7204  0.5747  1.4158
  521MOL0     H70297  11.302  10.110   5.040 -0.3946  0.5505  1.2005
  521MOL0     H70298  11.555  10.101   4.977 -0.0833  0.3296 -0.2008
  521MOL0     H70299  11.844   9.867   5.214 -1.2830  0.5764  0.7077
  521MOL0     H70300  11.789   9.746   5.088  0.8998  0.5250 -0.0344
  521MOL0     H70301  11.943   9.897   4.939  1.6090  1.2174  0.1951
  521MOL0     H70302  12.014   9.959   5.090  0.4031 -1.0447  1.6727
  521MOL0     H70303  12.067   9.716   5.149  0.5048  0.0389  0.1270
  521MOL0     H70304  12.044   9.679   4.973 -0.6496  3.4362 -2.4539
  521MOL0     H70305  12.235   9.893   5.088  1.7246  0.4961 -0.7009
  521MOL0     H70306  12.206   9.865   4.920  1.7806  0.1662 -0.7938
  521MOL0     H70307  12.273   9.612   4.979 -0.7332 -1.1961  3.3966
  521MOL0     H70308  12.327   9.672   5.128  1.3533  4.4152  0.7790
  521MOL0     H70309  12.440   9.729   4.847  1.9590  0.3408 -0.2570
  521MOL0     H70310  12.459   9.847   4.991 -0.8622 -1.8791  2.7846
  521MOL0     H70311  12.553   9.566   4.952  0.4100 -1.0225  1.2799
  521MOL0     H70312  12.573   9.650   5.109  1.3442 -1.6408 -0.5045
  521MOL0     H70313  12.706   9.709   4.839  1.0571  1.9039 -0.6579
  521MOL0     H70314  12.696   9.826   4.973 -3.7504 -0.1036  1.4663
  521MOL0     H70315  11.610   9.771   5.234 -2.1812 -2.5976 -2.1047
  521MOL0     H70316  11.360   9.776   5.293  1.4244  1.1658  2.4524
  521MOL0     H70317  11.030  10.078   5.523 -0.4260  1.2828  0.7716
  521MOL0     H70318  10.765  10.080   5.553  0.7110 -3.6545  1.9912
  521MOL0     H70319   8.757   9.651   5.128  2.5148 -1.1677 -0.8215
  521MOL0     H70320   8.544   9.601   5.030 -0.2173 -0.0472 -1.6160
  521MOL0     H70321   8.263   9.137   4.978  2.3082  0.3789 -1.3058
  521MOL0     H70322   8.044   9.052   4.847  0.9135 -0.3317  0.3595
  521MOL0     H70323   7.797   9.374   4.737  0.7828  1.3067 -1.2294
  521MOL0     H70324   7.742   9.253   4.839  1.4035  2.9908 -0.0698
  521MOL0     H70325   7.561   9.310   4.671 -2.2253 -2.3335 -1.7008
  521MOL0     H70326   7.614   9.149   4.652  1.6498  0.0467 -0.3322
  521MOL0     H70327   7.635   9.245   4.419  0.8714 -4.4824  1.8128
  521MOL0     H70328   7.788   9.248   4.481 -0.6402 -1.5782 -0.4091
  521MOL0     H70329   7.789   9.488   4.524  1.6387 -1.0816 -3.6304
  521MOL0     H70330   7.703   9.463   4.379  2.2867  1.2620 -0.0836
  521MOL0     H70331   7.423   9.653   4.616 -1.1948 -0.6341 -0.5899
  521MOL0     H70332   8.000   9.415   4.662 -0.4380 -1.2045 -0.0913
  521MOL0     H70333   8.290   9.591   4.802 -0.6997  0.4592 -2.0685
  521MOL0     H70334   8.158   9.612   4.694 -0.0954  0.6483  0.0544
  521MOL0     H70335   8.131   9.633   4.873 -0.4761 -0.8539  0.8417
  522MOL0     O70336   6.059   2.481   1.325  0.9914  0.7101 -0.9680
  522MOL0     C70337   5.998   2.503   1.225 -0.6222  0.2493  0.5788
  522MOL0     O70338   6.059   2.540   1.105  0.2294 -0.0698  0.1969
  522MOL0     C70339   6.197   2.529   1.100  0.1078  0.5252 -0.6308
  522MOL0     C70340   6.246   2.410   1.037 -0.0015 -0.7148 -0.0758
  522MOL0     C70341   6.376   2.414   1.005  0.1059 -0.4393 -0.0535
  522MOL0     C70342   6.462   2.528   1.041  0.2974  0.5395  0.0231
  522MOL0     O70343   6.590   2.523   1.005  0.0063 -0.4136 -0.1312
  522MOL0     C70344   6.611   2.555   0.864  0.2650  0.4932 -0.5671
  522MOL0     C70345   6.723   2.478   0.806  0.3742 -0.4428  0.0958
  522MOL0     C70346   6.746   2.510   0.658 -0.1261  0.2067 -0.4032
  522MOL0     C70347   6.843   2.625   0.644  0.8118  0.3868  0.0324
  522MOL0     C70348   6.868   2.657   0.493 -0.0174 -0.7469  0.2340
  522MOL0     C70349   6.961   2.787   0.488  0.0528  1.0809 -0.1764
  522MOL0     C70350   7.009   2.807   0.338 -0.0813  0.3791  0.4632
  522MOL0     C70351   7.100   2.937   0.342  1.5127 -0.0741  0.0081
  522MOL0     N70352   7.144   2.969   0.207  0.4570  1.1316  0.1750
  522MOL0     C70353   7.157   2.888   0.094  0.5911 -0.3194  0.2402
  522MOL0     C70354   7.205   2.979  -0.003 -0.5194 -0.9354 -0.7140
  522MOL0     C70355   7.222   2.928  -0.139 -0.2239 -0.3874  0.4161
  522MOL0     C70356   7.358   2.992  -0.178 -0.7138  0.0342 -0.2608
  522MOL0     C70357   7.415   2.948  -0.310 -0.3876  0.7904 -0.7799
  522MOL0     C70358   7.519   3.051  -0.367  0.4109 -0.6974 -0.4383
  522MOL0     O70359   7.465   3.181  -0.378 -0.1897 -0.8680  0.1435
  522MOL0     C70360   7.547   3.278  -0.425  0.1561  0.4318  0.2989
  522MOL0     C70361   7.689   3.267  -0.433  0.0036 -0.2265  0.3784
  522MOL0     C70362   7.768   3.380  -0.477 -0.0999  0.3170 -0.7927
  522MOL0     C70363   7.710   3.499  -0.511 -0.1987  0.0869 -0.3400
  522MOL0     C70364   7.802   3.609  -0.551 -0.7316 -0.2873  0.2773
  522MOL0     O70365   7.929   3.582  -0.583 -0.3201 -0.0854  0.5247
  522MOL0     C70366   8.026   3.687  -0.580  0.3485 -0.1091 -0.2921
  522MOL0     C70367   8.017   3.788  -0.488 -0.0954 -0.1021 -0.4308
  522MOL0     C70368   8.109   3.893  -0.504  0.6559 -0.1492  0.0115
  522MOL0     C70369   8.219   3.884  -0.591 -0.0656  0.5209  0.3211
  522MOL0     O70370   8.307   3.983  -0.619  0.4774 -0.4606 -0.3003
  522MOL0     C70371   8.317   4.084  -0.508  0.2376 -0.3252  1.0139
  522MOL0     C70372   8.421   4.194  -0.535 -0.1701 -0.0931  0.2649
  522MOL0     C70373   8.565   4.134  -0.557  0.1833  0.2206 -0.1355
  522MOL0     C70374   8.665   4.247  -0.581  0.3434 -0.0069  0.0911
  522MOL0     C70375   8.810   4.187  -0.584  0.5353 -0.3878  0.3427
  522MOL0     C70376   8.910   4.297  -0.578  0.3670  0.0493  0.9072
  522MOL0     C70377   9.037   4.232  -0.527 -0.1097  0.8428 -0.3063
  522MOL0     C70378   9.095   4.111  -0.602 -0.6111  0.0338 -0.1035
  522MOL0    Cl70379   9.263   4.090  -0.562 -0.3083 -0.1344 -0.1080
  522MOL0     C70380   8.225   3.776  -0.677  0.2725 -0.2766 -1.5386
  522MOL0     C70381   8.126   3.678  -0.667 -0.6660 -0.8278  0.1327
  522MOL0     O70382   7.749   3.720  -0.558  0.0269 -0.5391  0.1353
  522MOL0     C70383   7.568   3.510  -0.497  0.7256  0.2849  0.9890
  522MOL0     C70384   7.492   3.400  -0.453 -0.5911  0.2530  0.4487
  522MOL0     N70385   7.197   3.114   0.042 -0.1610  0.0998 -0.2413
  522MOL0     N70386   7.175   3.101   0.166 -0.2312 -0.3378 -0.4377
  522MOL0     C70387   6.415   2.633   1.126 -0.1916  0.2749  0.1285
  522MOL0     C70388   6.273   2.627   1.156 -1.1401  0.4490 -0.5371
  522MOL0     C70389   5.851   2.492   1.224 -0.4285  0.1570  0.0724
  522MOL0     C70390   5.786   2.511   1.100 -0.0667 -0.4308 -0.4437
  522MOL0     C70391   5.651   2.490   1.087  0.4534  1.3146 -0.3282
  522MOL0     C70392   5.569   2.481   1.206 -0.2286 -0.5762 -0.1260
  522MOL0     O70393   5.435   2.470   1.218  0.4804  0.1093 -0.6079
  522MOL0     C70394   5.354   2.470   1.102 -0.0611  0.4424 -1.0052
  522MOL0     C70395   5.205   2.459   1.118 -0.5089  0.6808 -0.3771
  522MOL0     C70396   5.150   2.560   1.218 -1.3910  0.3000  0.3596
  522MOL0     C70397   5.007   2.521   1.247 -0.2206  0.5152  0.9096
  522MOL0     C70398   4.935   2.611   1.341 -0.3181  0.2341  0.8977
  522MOL0     C70399   4.865   2.685   1.411 -0.2465  0.0857 -0.1279
  522MOL0     C70400   5.631   2.489   1.329  0.0538 -0.6620  0.0133
  522MOL0     C70401   5.768   2.484   1.339  1.1613  0.3712  0.7831
  522MOL0     C70402   5.829   2.497   1.480  0.3734 -0.3075 -0.0655
  522MOL0     H70403   6.171   2.336   1.010 -1.8177  1.0257 -0.0679
  522MOL0     H70404   6.418   2.335   0.943  0.2123  0.6943 -1.4679
  522MOL0     H70405   6.520   2.537   0.806 -0.0973  0.9206 -0.1343
  522MOL0     H70406   6.635   2.661   0.861 -3.3911  1.4400 -2.3906
  522MOL0     H70407   6.692   2.374   0.820 -1.4697  0.3917  3.1225
  522MOL0     H70408   6.816   2.496   0.861  1.2047  1.2266 -1.7498
  522MOL0     H70409   6.658   2.535   0.598  1.4210 -0.3652 -3.0733
  522MOL0     H70410   6.795   2.425   0.610  0.7209  0.2063  0.4566
  522MOL0     H70411   6.799   2.716   0.684 -0.2363 -1.0669  2.4450
  522MOL0     H70412   6.932   2.610   0.706 -0.5128 -2.4368  1.4496
  522MOL0     H70413   6.912   2.573   0.440 -2.4629 -2.8133  1.2676
  522MOL0     H70414   6.771   2.677   0.446 -0.6653  0.3116  1.9295
  522MOL0     H70415   6.902   2.874   0.516 -3.2205  0.2585 -3.6751
  522MOL0     H70416   7.054   2.773   0.544  0.5093  1.8448 -0.7324
  522MOL0     H70417   6.920   2.841   0.285 -0.2712  1.1737  1.2462
  522MOL0     H70418   7.057   2.724   0.286  2.1216  2.2733 -0.7413
  522MOL0     H70419   7.044   3.019   0.387 -1.2378 -1.7079 -0.2015
  522MOL0     H70420   7.187   2.923   0.406  2.6971  0.3015 -1.4479
  522MOL0     H70421   7.149   2.780   0.087  4.3451 -0.6616 -1.7337
  522MOL0     H70422   7.223   2.818  -0.138  0.7000 -0.4834 -2.5552
  522MOL0     H70423   7.142   2.965  -0.204  1.5915 -0.1174 -1.7802
  522MOL0     H70424   7.335   3.098  -0.187  0.0199  0.2235 -0.0077
  522MOL0     H70425   7.419   2.971  -0.090 -1.8886 -0.7495  0.3974
  522MOL0     H70426   7.336   2.936  -0.384 -1.9820  0.8087  0.8636
  522MOL0     H70427   7.460   2.851  -0.285 -4.4998 -0.5728  2.3109
  522MOL0     H70428   7.553   3.016  -0.465  0.1414  0.0468 -0.8042
  522MOL0     H70429   7.609   3.051  -0.305  0.9015 -1.5099 -1.1314
  522MOL0     H70430   7.749   3.183  -0.399  1.3103  0.5673  0.0901
  522MOL0     H70431   7.876   3.373  -0.483  0.2328  2.4651  1.3445
  522MOL0     H70432   7.941   3.795  -0.410  0.0780 -1.7506 -0.0943
  522MOL0     H70433   8.094   3.973  -0.432  0.4294  0.5509 -0.7918
  522MOL0     H70434   8.222   4.134  -0.487  0.6815  1.0225  0.0137
  522MOL0     H70435   8.347   4.026  -0.421 -1.3082 -3.7677 -0.5732
  522MOL0     H70436   8.394   4.235  -0.633  1.1341  1.9081  0.6746
  522MOL0     H70437   8.423   4.271  -0.457 -0.2252 -1.3093  1.5080
  522MOL0     H70438   8.596   4.073  -0.472  1.2623  2.3942  1.1190
  522MOL0     H70439   8.561   4.071  -0.646 -1.3292  0.2749 -0.1332
  522MOL0     H70440   8.675   4.316  -0.496 -0.1378 -2.4570  2.2846
  522MOL0     H70441   8.632   4.303  -0.669 -0.6641 -0.4564  0.1637
  522MOL0     H70442   8.822   4.125  -0.674  1.4092  1.1478 -0.6379
  522MOL0     H70443   8.816   4.123  -0.495 -1.2259  3.0599  3.2097
  522MOL0     H70444   8.925   4.330  -0.681 -1.6649 -1.0420  0.2028
  522MOL0     H70445   8.876   4.382  -0.519  0.4147  0.2880  0.5924
  522MOL0     H70446   9.026   4.206  -0.421  2.5011 -2.5464 -0.6967
  522MOL0     H70447   9.115   4.309  -0.532  1.5019 -0.8213 -1.8476
  522MOL0     H70448   9.041   4.018  -0.581 -0.7879 -0.2368 -1.6391
  522MOL0     H70449   9.078   4.111  -0.710 -0.3722 -2.5077 -0.2087
  522MOL0     H70450   8.309   3.765  -0.745  1.5634 -1.6191  0.1707
  522MOL0     H70451   8.148   3.597  -0.737 -2.8118 -0.4430 -1.0801
  522MOL0     H70452   7.511   3.599  -0.522 -1.0666 -0.4537  2.2550
  522MOL0     H70453   7.384   3.411  -0.443 -0.6123 -0.0822  0.5919
  522MOL0     H70454   6.473   2.720   1.156 -1.3784  1.1470 -0.0575
  522MOL0     H70455   6.224   2.705   1.213  0.4523  0.6171  0.6582
  522MOL0     H70456   5.831   2.531   1.003 -1.6322  2.4361 -0.6758
  522MOL0     H70457   5.601   2.507   0.992  0.1517  1.8612 -0.0785
  522MOL0     H70458   5.380   2.387   1.036  1.7673 -0.2996  0.5520
  522MOL0     H70459   5.387   2.559   1.049  3.3266  2.0265  3.2094
  522MOL0     H70460   5.185   2.360   1.159  1.1115 -0.0178 -1.1791
  522MOL0     H70461   5.168   2.463   1.015  1.5037  1.4520 -1.1151
  522MOL0     H70462   5.154   2.662   1.177  1.0565  1.1989  2.5736
  522MOL0     H70463   5.207   2.556   1.311 -2.5544 -1.6252  1.0386
  522MOL0     H70464   4.959   2.515   1.148  3.1475  0.2859 -0.8530
  522MOL0     H70465   5.010   2.416   1.279  2.4723 -0.1867 -1.2842
  522MOL0     H70466   4.799   2.733   1.481  1.4183  0.5968  1.1687
  522MOL0     H70467   5.565   2.502   1.415  1.3470  0.7089  0.8459
  522MOL0     H70468   5.876   2.400   1.501 -3.2637 -1.7932  2.2898
  522MOL0     H70469   5.893   2.585   1.482  0.2313 -0.2100  0.3510
  522MOL0     H70470   5.755   2.510   1.560 -1.9050 -1.4535 -1.8753
  523MOL0     O70471   3.138   3.491   3.874  0.4016  0.0447  0.7199
  523MOL0     C70472   3.056   3.578   3.894 -1.4010  0.4185  0.1962
  523MOL0     O70473   3.087   3.701   3.948 -0.8711 -0.5727  0.4762
  523MOL0     C70474   3.218   3.724   3.992 -0.0426  0.2090 -0.2974
  523MOL0     C70475   3.221   3.769   4.124 -0.4798 -0.1346 -0.0875
  523MOL0     C70476   3.334   3.804   4.182 -0.7565  0.1738  0.6627
  523MOL0     C70477   3.460   3.781   4.119 -1.0229  0.0925 -0.4262
  523MOL0     O70478   3.579   3.815   4.170 -0.1148  0.2863  0.3224
  523MOL0     C70479   3.584   3.854   4.304 -0.1709  0.0808 -0.8198
  523MOL0     C70480   3.728   3.866   4.338 -0.2165 -1.0432  0.1172
  523MOL0     C70481   3.799   3.982   4.266  0.1836 -0.3100  0.1842
  523MOL0     C70482   3.943   3.997   4.313 -0.0121 -0.2303  0.4570
  523MOL0     C70483   4.003   4.114   4.232  0.0394  0.2986  0.8090
  523MOL0     C70484   4.155   4.105   4.239  0.3841  0.3699 -0.5051
  523MOL0     C70485   4.233   4.190   4.138  0.0382 -0.1087  0.8837
  523MOL0     C70486   4.385   4.166   4.139  0.7257 -0.0442 -0.1125
  523MOL0     N70487   4.447   4.282   4.074 -0.1029  0.6352 -0.5000
  523MOL0     C70488   4.519   4.380   4.143  1.0495  1.2672  0.3589
  523MOL0     C70489   4.567   4.453   4.046  0.2503 -0.1501 -0.2178
  523MOL0     C70490   4.659   4.568   4.066 -0.0291  0.0383  0.0494
  523MOL0     C70491   4.786   4.575   3.975  0.0077  0.9187  0.0962
  523MOL0     C70492   4.890   4.691   3.997  0.4455  0.0404  0.0621
  523MOL0     C70493   4.917   4.716   4.148  0.2441 -0.7664 -0.0065
  523MOL0     O70494   4.968   4.605   4.220  0.7410 -0.7573 -0.1525
  523MOL0     C70495   5.090   4.563   4.181 -0.0952 -0.8126 -0.9828
  523MOL0     C70496   5.195   4.649   4.182 -0.1711  0.1683  0.4719
  523MOL0     C70497   5.319   4.605   4.130 -0.1739  0.5947 -0.1189
  523MOL0     C70498   5.344   4.475   4.084  0.4281 -0.8613  0.2935
  523MOL0     C70499   5.469   4.442   4.013 -0.4208 -0.1469 -0.3198
  523MOL0     O70500   5.574   4.517   4.049  0.0026  0.3702 -0.9417
  523MOL0     C70501   5.706   4.501   4.006 -0.3030 -0.0236  0.7256
  523MOL0     C70502   5.733   4.491   3.870 -0.7477 -0.1685 -0.1932
  523MOL0     C70503   5.863   4.473   3.813  0.4656 -0.2559  0.1199
  523MOL0     C70504   5.965   4.467   3.903 -0.8124  0.0496  1.0631
  523MOL0     O70505   6.101   4.459   3.864  0.2909  0.8291 -0.1804
  523MOL0     C70506   6.126   4.435   3.728 -0.1605 -0.1766 -1.0252
  523MOL0     C70507   6.270   4.419   3.717 -0.4449 -0.0105 -0.5264
  523MOL0     C70508   6.338   4.546   3.767 -0.2583  0.5830  0.7948
  523MOL0     C70509   6.480   4.547   3.716  0.7405  0.2468 -0.7234
  523MOL0     C70510   6.575   4.445   3.788  0.2654  0.3791 -0.2776
  523MOL0     C70511   6.715   4.450   3.737 -0.9987 -0.1117 -0.4095
  523MOL0     C70512   6.780   4.594   3.742 -0.0379 -0.4104 -0.2716
  523MOL0     C70513   6.925   4.577   3.714 -1.0879 -0.2399 -1.1653
  523MOL0    Cl70514   7.011   4.468   3.834 -0.1218  0.2008  0.3830
  523MOL0     C70515   5.948   4.479   4.040 -0.6371 -0.6407  0.7296
  523MOL0     C70516   5.815   4.498   4.086 -0.3657 -0.1664  0.5622
  523MOL0     O70517   5.467   4.342   3.931 -0.1247 -0.1799 -0.6349
  523MOL0     C70518   5.237   4.389   4.094 -0.8943 -0.0168 -0.3677
  523MOL0     C70519   5.112   4.430   4.137  0.3320 -0.4479 -0.4179
  523MOL0     N70520   4.508   4.414   3.922 -0.3015  0.4319  0.4948
  523MOL0     N70521   4.434   4.314   3.942  0.5256 -0.2132 -0.7269
  523MOL0     C70522   3.462   3.736   3.984  0.6983  0.5709 -0.0830
  523MOL0     C70523   3.338   3.699   3.915  0.7487 -0.4144  0.3655
  523MOL0     C70524   2.917   3.549   3.868  0.2865 -1.4842  1.2686
  523MOL0     C70525   2.832   3.658   3.847 -0.4853  0.3530 -0.9677
  523MOL0     C70526   2.699   3.642   3.832  0.0045  0.9935 -0.3874
  523MOL0     C70527   2.636   3.520   3.820 -0.0946  0.1617  0.5221
  523MOL0     O70528   2.496   3.527   3.799 -0.2552  0.2057  0.3700
  523MOL0     C70529   2.426   3.400   3.803  0.9644 -0.5383  0.6761
  523MOL0     C70530   2.282   3.431   3.785 -0.3401 -0.4005  0.5244
  523MOL0     C70531   2.194   3.313   3.782 -0.1137  0.8125 -0.4619
  523MOL0     C70532   2.045   3.349   3.792  0.7099  0.1145 -0.2400
  523MOL0     C70533   1.952   3.233   3.801 -0.1097 -0.3861  0.1626
  523MOL0     C70534   1.894   3.126   3.810 -0.4686 -0.5268  0.4529
  523MOL0     C70535   2.718   3.403   3.822 -1.0784  0.4918 -0.0138
  523MOL0     C70536   2.857   3.421   3.850  0.5816 -0.4340 -0.1157
  523MOL0     C70537   2.927   3.276   3.857 -0.1367 -0.7237  0.1682
  523MOL0     H70538   3.129   3.779   4.180 -0.9259  1.3845 -1.0019
  523MOL0     H70539   3.330   3.845   4.283  1.4749  1.0093  0.4749
  523MOL0     H70540   3.545   3.956   4.311 -1.4362 -0.4111 -0.6315
  523MOL0     H70541   3.546   3.787   4.381  0.6632  0.4714 -0.0423
  523MOL0     H70542   3.790   3.778   4.319 -0.4618 -1.3605  0.7608
  523MOL0     H70543   3.716   3.880   4.446  1.7228 -1.7298  0.4521
  523MOL0     H70544   3.753   4.073   4.306  3.2957  2.0156 -1.1812
  523MOL0     H70545   3.782   3.977   4.158  1.0902  0.4161 -0.0025
  523MOL0     H70546   3.949   4.013   4.421 -0.3240  4.0948  0.0133
  523MOL0     H70547   3.994   3.903   4.292 -0.9932 -0.7178  0.1925
  523MOL0     H70548   3.976   4.099   4.127  1.5893  3.3808 -0.1519
  523MOL0     H70549   3.982   4.210   4.281  1.4287 -0.2835  2.6807
  523MOL0     H70550   4.189   4.141   4.336 -1.2346 -1.7926  0.9435
  523MOL0     H70551   4.189   4.001   4.228  2.6558  0.9509  0.3922
  523MOL0     H70552   4.217   4.292   4.171 -2.9027 -0.9098  2.2535
  523MOL0     H70553   4.206   4.184   4.032 -0.9802 -0.6778  1.1589
  523MOL0     H70554   4.421   4.153   4.242  0.7494 -1.7153 -0.3081
  523MOL0     H70555   4.412   4.073   4.088  2.1716 -1.4309  2.8924
  523MOL0     H70556   4.542   4.384   4.249  2.6321 -2.8667  0.3637
  523MOL0     H70557   4.605   4.657   4.031 -1.6365 -1.1922 -0.6997
  523MOL0     H70558   4.686   4.580   4.172  0.8411  1.2667 -0.2932
  523MOL0     H70559   4.846   4.487   3.997  0.3133  0.3394 -2.6764
  523MOL0     H70560   4.746   4.558   3.874  1.8734 -1.9304 -0.2824
  523MOL0     H70561   4.848   4.785   3.960 -2.3166 -0.5381  1.4796
  523MOL0     H70562   4.986   4.668   3.949  1.9038  3.9087  0.7544
  523MOL0     H70563   4.828   4.750   4.202 -0.4066 -1.9635 -0.3012
  523MOL0     H70564   4.983   4.802   4.158 -1.3964  0.2948  2.9195
  523MOL0     H70565   5.185   4.750   4.221  0.0027 -0.6074  2.6827
  523MOL0     H70566   5.402   4.673   4.116 -1.2859  1.3974 -4.0246
  523MOL0     H70567   5.650   4.501   3.801  0.3317  0.6600 -1.4000
  523MOL0     H70568   5.868   4.453   3.707  0.0583  0.5601 -0.0651
  523MOL0     H70569   6.079   4.354   3.673 -1.0337 -0.4521  0.1035
  523MOL0     H70570   6.099   4.522   3.668 -0.6843 -1.0516 -2.0769
  523MOL0     H70571   6.298   4.333   3.778  1.9495  1.6145  0.8327
  523MOL0     H70572   6.301   4.385   3.617  1.9402 -0.9438  0.4419
  523MOL0     H70573   6.285   4.636   3.735 -0.9587 -0.2483 -0.4767
  523MOL0     H70574   6.347   4.555   3.876 -0.2400  3.0050  0.6615
  523MOL0     H70575   6.528   4.645   3.728 -0.0968  0.3279  4.4438
  523MOL0     H70576   6.473   4.527   3.609 -3.5450  1.1796 -0.8167
  523MOL0     H70577   6.533   4.345   3.775 -1.9934  1.3470 -0.8294
  523MOL0     H70578   6.576   4.455   3.897 -0.1259  0.9250 -0.3193
  523MOL0     H70579   6.775   4.370   3.783  4.6165  3.4017 -0.5956
  523MOL0     H70580   6.704   4.429   3.630 -0.6859  0.8291 -0.6351
  523MOL0     H70581   6.763   4.645   3.838  1.7649  0.1227 -0.1831
  523MOL0     H70582   6.739   4.664   3.669 -2.8412  1.8667  3.1304
  523MOL0     H70583   6.936   4.529   3.616 -0.2694  1.5257 -1.9806
  523MOL0     H70584   6.972   4.676   3.703 -2.7057  1.0158  1.8598
  523MOL0     H70585   6.036   4.480   4.103  1.3409  3.5136 -1.7289
  523MOL0     H70586   5.789   4.492   4.191  0.3586 -2.7319  0.6500
  523MOL0     H70587   5.247   4.285   4.065  0.3984  0.5240 -1.9848
  523MOL0     H70588   5.032   4.357   4.137  2.5603 -3.0741  1.4909
  523MOL0     H70589   3.558   3.742   3.933  0.6038 -2.7824 -0.9323
  523MOL0     H70590   3.329   3.671   3.811 -2.9965 -0.7140  0.6128
  523MOL0     H70591   2.848   3.762   3.874 -0.1365  0.3180 -1.0344
  523MOL0     H70592   2.632   3.727   3.825 -2.4149 -0.9612 -3.1205
  523MOL0     H70593   2.445   3.349   3.897 -0.1300  0.2098  1.3325
  523MOL0     H70594   2.457   3.338   3.719 -2.3259 -0.0950 -1.0250
  523MOL0     H70595   2.258   3.486   3.694  0.9854  1.7512  1.3988
  523MOL0     H70596   2.244   3.497   3.865  0.4076  1.2986 -0.4653
  523MOL0     H70597   2.213   3.253   3.871 -1.0037  0.2310 -0.6377
  523MOL0     H70598   2.221   3.253   3.694  1.2784  1.1011 -0.2429
  523MOL0     H70599   2.026   3.406   3.883 -4.2074 -0.5865 -0.5354
  523MOL0     H70600   2.015   3.422   3.717 -1.0588  1.4215  1.6345
  523MOL0     H70601   1.852   3.027   3.804 -0.2820 -0.6762  1.4858
  523MOL0     H70602   2.678   3.306   3.796  0.7351 -0.3273  0.0894
  523MOL0     H70603   3.010   3.275   3.785  2.3827  2.6205  2.6869
  523MOL0     H70604   2.970   3.258   3.956  0.8317 -0.8101 -0.2581
  523MOL0     H70605   2.853   3.200   3.828 -1.4248 -0.1796  1.8491
  524MOL0     O70606   9.276   2.401   4.181  0.1000 -0.2146  0.2204
  524MOL0     C70607   9.258   2.287   4.142 -0.4467  0.1595  1.2806
  524MOL0     O70608   9.355   2.196   4.133  0.3570  0.0271  0.0232
  524MOL0     C70609   9.487   2.234   4.133  0.3183 -0.8767 -0.0410
  524MOL0     C70610   9.540   2.359   4.106  0.0818  0.6788 -0.6707
  524MOL0     C70611   9.678   2.380   4.102 -0.1751 -0.2483  0.8058
  524MOL0     C70612   9.762   2.281   4.141 -0.2792  1.0154 -0.1480
  524MOL0     O70613   9.894   2.315   4.148  0.1663  0.5034  0.3298
  524MOL0     C70614   9.964   2.304   4.028 -0.2831  0.5179 -0.1438
  524MOL0     C70615  10.098   2.389   4.023 -0.6175 -0.5106 -0.4774
  524MOL0     C70616  10.220   2.325   4.095 -0.1790  0.2203  1.4638
  524MOL0     C70617  10.302   2.422   4.186 -0.2138  0.3229 -0.1730
  524MOL0     C70618  10.443   2.369   4.214 -0.6473 -0.4780 -0.4644
  524MOL0     C70619  10.489   2.404   4.354  0.1200  0.3720  0.4070
  524MOL0     C70620  10.631   2.354   4.385 -0.2829  0.3149 -0.0499
  524MOL0     C70621  10.654   2.207   4.388 -0.7953  0.3840  0.9657
  524MOL0     N70622  10.795   2.173   4.359 -0.1933  0.5147 -0.2820
  524MOL0     C70623  10.900   2.170   4.446  0.1957 -0.1063  0.2483
  524MOL0     C70624  10.997   2.120   4.369 -0.1320  0.3146 -0.5789
  524MOL0     C70625  11.123   2.051   4.423  0.0938 -0.0048  0.7548
  524MOL0     C70626  11.081   1.934   4.517 -0.8088  1.2527  0.0303
  524MOL0     C70627  11.197   1.836   4.525  0.4287  0.9163  0.7628
  524MOL0     C70628  11.337   1.895   4.543 -0.5803 -0.0154 -0.5503
  524MOL0     O70629  11.450   1.808   4.558 -0.4290  0.6765  0.2840
  524MOL0     C70630  11.574   1.845   4.608 -0.8129 -0.2419  0.2055
  524MOL0     C70631  11.608   1.970   4.651 -0.5418  0.1254  0.3139
  524MOL0     C70632  11.736   1.988   4.710  0.6856 -0.7125  0.4981
  524MOL0     C70633  11.834   1.891   4.705 -0.4036 -0.3458 -0.1252
  524MOL0     C70634  11.971   1.915   4.745 -0.2915  0.0324 -0.6737
  524MOL0     O70635  12.069   1.821   4.719  0.8475  0.9982 -0.6835
  524MOL0     C70636  12.183   1.817   4.785 -0.0290  0.2732 -0.4103
  524MOL0     C70637  12.268   1.916   4.762 -1.0563  0.1823  0.2774
  524MOL0     C70638  12.384   1.922   4.847 -0.1017 -0.5162  0.5133
  524MOL0     C70639  12.417   1.822   4.939  0.2591 -0.4595 -0.4064
  524MOL0     O70640  12.539   1.838   5.002  0.2028 -0.2438  0.3781
  524MOL0     C70641  12.566   1.778   5.124  0.3689 -0.1382 -0.2833
  524MOL0     C70642  12.707   1.808   5.160  0.9144 -0.7109  0.3337
  524MOL0     C70643  12.767   1.757   5.288 -0.3826  0.6805  0.2182
  524MOL0     C70644  12.911   1.803   5.305  0.6243 -0.3489 -0.2554
  524MOL0     C70645  12.944   1.852   5.442 -0.1688  0.5775 -1.0654
  524MOL0     C70646  13.086   1.913   5.457 -0.9611 -0.0708  0.0655
  524MOL0     C70647  13.114   2.042   5.368 -0.0988  0.2336 -0.4472
  524MOL0     C70648  13.246   2.106   5.399  0.1226 -0.0028 -1.1230
  524MOL0    Cl70649  13.388   1.998   5.414  0.1596 -0.2085  0.0540
  524MOL0     C70650  12.328   1.709   4.956 -1.7608  0.6521 -1.0737
  524MOL0     C70651  12.202   1.716   4.880 -1.6684 -1.0129 -0.8383
  524MOL0     O70652  11.996   2.014   4.807 -0.1360  0.0244 -0.6738
  524MOL0     C70653  11.801   1.764   4.647  0.1299 -0.3373 -0.7620
  524MOL0     C70654  11.670   1.740   4.601  0.1811 -0.2218  0.9526
  524MOL0     N70655  10.965   2.121   4.240 -0.8087  0.7241 -0.2052
  524MOL0     N70656  10.848   2.161   4.235  0.9316 -0.2465 -0.7994
  524MOL0     C70657   9.716   2.157   4.180  0.1087 -0.4646  0.0369
  524MOL0     C70658   9.581   2.133   4.165  0.2346  0.8444 -0.0038
  524MOL0     C70659   9.123   2.249   4.112  0.2093  0.2132 -0.0609
  524MOL0     C70660   9.092   2.111   4.089 -0.0591 -0.4199 -0.9214
  524MOL0     C70661   8.962   2.079   4.052  0.4546  0.2307  0.1156
  524MOL0     C70662   8.858   2.167   4.047 -0.2630  0.2678  0.8909
  524MOL0     O70663   8.732   2.123   4.023 -0.3702 -0.1980 -0.7330
  524MOL0     C70664   8.708   2.094   3.888  0.6666  0.6556 -0.0918
  524MOL0     C70665   8.559   2.044   3.871 -0.8713  0.7297  0.2585
  524MOL0     C70666   8.459   2.138   3.939  0.2079  1.3232  0.8523
  524MOL0     C70667   8.306   2.102   3.921 -0.5565  0.4586  0.8265
  524MOL0     C70668   8.220   2.175   4.013  0.9655 -0.4750  0.0285
  524MOL0     C70669   8.158   2.235   4.104 -0.6263  0.4322  0.0955
  524MOL0     C70670   8.885   2.301   4.061  0.5204  0.3776 -0.3993
  524MOL0     C70671   9.014   2.349   4.088  0.1110 -0.0195 -0.0987
  524MOL0     C70672   9.034   2.503   4.083 -0.6845  0.3691 -0.4234
  524MOL0     H70673   9.474   2.433   4.061 -2.6417 -1.7191 -0.9110
  524MOL0     H70674   9.719   2.474   4.067 -1.2097 -1.5703 -4.9976
  524MOL0     H70675   9.995   2.199   4.028 -0.7215  0.3820 -0.6720
  524MOL0     H70676   9.908   2.332   3.938  2.3206 -0.9908 -2.4266
  524MOL0     H70677  10.064   2.470   4.089 -1.7940  0.0219 -1.6906
  524MOL0     H70678  10.118   2.431   3.924 -2.5504 -0.6740 -0.9857
  524MOL0     H70679  10.285   2.291   4.013 -0.0879 -1.2110  2.0957
  524MOL0     H70680  10.172   2.246   4.154 -3.9042  0.7607 -0.5650
  524MOL0     H70681  10.312   2.522   4.142  1.5694 -0.8101 -2.6167
  524MOL0     H70682  10.242   2.426   4.277  0.2946 -0.7471  0.2287
  524MOL0     H70683  10.441   2.261   4.195  0.5605 -0.4936 -0.5763
  524MOL0     H70684  10.508   2.412   4.138 -0.3258  1.2472  0.7140
  524MOL0     H70685  10.487   2.513   4.352 -1.7787  0.3603 -0.4945
  524MOL0     H70686  10.410   2.389   4.429 -0.6594  0.7040 -0.3326
  524MOL0     H70687  10.657   2.405   4.479 -3.0578  2.2966 -0.2205
  524MOL0     H70688  10.696   2.396   4.308 -0.6542  0.4407 -0.3027
  524MOL0     H70689  10.628   2.170   4.488 -1.4905  0.5406  0.8485
  524MOL0     H70690  10.585   2.159   4.318  0.3745  0.2258 -0.1086
  524MOL0     H70691  10.894   2.183   4.553  0.0507 -2.5367  0.5773
  524MOL0     H70692  11.179   2.003   4.342 -2.1788  0.3445 -1.1274
  524MOL0     H70693  11.188   2.120   4.479  2.9917  0.7334 -3.0835
  524MOL0     H70694  11.053   1.970   4.616 -2.8670  0.1415 -0.0761
  524MOL0     H70695  10.995   1.880   4.475  0.2862  0.3068 -1.0627
  524MOL0     H70696  11.190   1.769   4.439 -1.0858  0.6412  1.0752
  524MOL0     H70697  11.172   1.767   4.606  0.6640  1.3100  1.1753
  524MOL0     H70698  11.333   1.954   4.634 -0.5970 -1.4432  0.4033
  524MOL0     H70699  11.365   1.964   4.462 -0.3994 -2.9937 -3.2246
  524MOL0     H70700  11.529   2.044   4.641 -1.4008 -0.8158 -0.0040
  524MOL0     H70701  11.755   2.087   4.752  2.1701 -0.8435  0.1638
  524MOL0     H70702  12.244   1.996   4.694 -0.1362  0.3193  0.1032
  524MOL0     H70703  12.445   2.007   4.819 -1.7438  0.4425 -0.3420
  524MOL0     H70704  12.496   1.817   5.199  1.5912  3.7555 -0.9908
  524MOL0     H70705  12.562   1.668   5.119 -1.4982 -0.1952  1.3045
  524MOL0     H70706  12.769   1.767   5.079  0.2099 -0.7165 -0.2075
  524MOL0     H70707  12.706   1.918   5.164  3.1179 -0.6261  0.0887
  524MOL0     H70708  12.700   1.789   5.369  0.2236 -1.3348  1.6030
  524MOL0     H70709  12.758   1.648   5.302  0.1521  0.8950  2.8910
  524MOL0     H70710  12.922   1.883   5.231 -1.3952  1.8282  1.6502
  524MOL0     H70711  12.981   1.723   5.278  1.7828  0.6265 -0.2479
  524MOL0     H70712  12.935   1.769   5.513  1.6985  1.9122  0.8578
  524MOL0     H70713  12.876   1.931   5.473 -0.3250  0.2290 -0.5118
  524MOL0     H70714  13.093   1.956   5.557  1.3675 -4.7868  2.1872
  524MOL0     H70715  13.164   1.843   5.428  0.4679  1.7784 -0.7992
  524MOL0     H70716  13.038   2.119   5.378  0.1987  0.8042 -2.2188
  524MOL0     H70717  13.094   2.022   5.262 -2.7400 -2.0878  0.3713
  524MOL0     H70718  13.271   2.184   5.327 -0.0645 -0.7989 -2.0783
  524MOL0     H70719  13.229   2.154   5.496 -0.3225 -0.1996 -1.1046
  524MOL0     H70720  12.334   1.622   5.021 -3.0409  0.2282 -1.4972
  524MOL0     H70721  12.138   1.628   4.892 -3.8385  0.4704 -0.9307
  524MOL0     H70722  11.883   1.694   4.640  0.1985 -0.2323 -1.0517
  524MOL0     H70723  11.641   1.652   4.543  2.4371  0.7560 -1.8875
  524MOL0     H70724   9.782   2.074   4.202 -1.2896 -1.0464  2.3635
  524MOL0     H70725   9.549   2.031   4.184  0.5706  0.2531 -2.2486
  524MOL0     H70726   9.160   2.028   4.105  0.2284 -0.2248 -1.1194
  524MOL0     H70727   8.947   1.972   4.058  1.3599  0.1578  2.0327
  524MOL0     H70728   8.788   2.031   3.848 -0.4366  1.0029 -3.1530
  524MOL0     H70729   8.712   2.185   3.828 -2.0984 -0.6117 -2.4558
  524MOL0     H70730   8.558   1.941   3.907  1.7701 -0.7182 -3.2015
  524MOL0     H70731   8.536   2.036   3.764 -1.9421 -0.6427  0.5702
  524MOL0     H70732   8.491   2.228   3.887  4.4446 -1.0517 -1.1826
  524MOL0     H70733   8.479   2.145   4.047 -2.8830  1.0865  1.5428
  524MOL0     H70734   8.277   2.120   3.817  1.2566 -1.5377 -0.1069
  524MOL0     H70735   8.288   1.995   3.938  5.2990 -0.9361  0.5933
  524MOL0     H70736   8.125   2.289   4.190 -0.6252 -0.7540  0.8633
  524MOL0     H70737   8.803   2.370   4.042  0.2739  0.4888  0.9689
  524MOL0     H70738   9.032   2.533   4.188 -1.4198 -0.6780 -0.1178
  524MOL0     H70739   9.118   2.547   4.030 -3.0490  3.7824 -1.7230
  524MOL0     H70740   8.949   2.535   4.021 -1.5363 -1.0333 -0.0391
  525MOL0     O70741   0.432   6.381   1.154  0.2018 -0.6573  0.1628
  525MOL0     C70742   0.418   6.344   1.040 -0.2698  0.0074  0.6086
  525MOL0     O70743   0.506   6.364   0.936 -0.1293  0.5352 -0.0689
  525MOL0     C70744   0.630   6.417   0.958 -0.5236  0.8297  1.2052
  525MOL0     C70745   0.683   6.491   0.842 -0.3499  0.5253  0.3604
  525MOL0     C70746   0.796   6.563   0.843 -0.4861  0.2347 -0.2921
  525MOL0     C70747   0.881   6.556   0.960 -0.0382 -0.6793 -0.2129
  525MOL0     O70748   1.008   6.606   0.970  0.4562  0.2989  0.4193
  525MOL0     C70749   1.098   6.574   0.853 -0.6919 -0.3414  0.0080
  525MOL0     C70750   1.242   6.605   0.887  0.4375 -0.1023  0.4104
  525MOL0     C70751   1.295   6.516   0.996  0.5993 -0.4147  0.4249
  525MOL0     C70752   1.412   6.574   1.070  0.8868 -0.2026  0.5064
  525MOL0     C70753   1.536   6.594   0.984 -0.5727  0.6367  0.1701
  525MOL0     C70754   1.619   6.461   0.986 -0.5009 -0.2338 -0.1936
  525MOL0     C70755   1.752   6.486   0.910  0.0170 -0.0371  0.2434
  525MOL0     C70756   1.733   6.419   0.774 -0.0641  0.8935 -0.3286
  525MOL0     N70757   1.857   6.410   0.698 -0.4969 -0.5769  0.0840
  525MOL0     C70758   1.982   6.392   0.747  0.4011  0.1671 -0.3738
  525MOL0     C70759   2.061   6.357   0.642  0.4465 -0.4396 -0.3451
  525MOL0     C70760   2.200   6.327   0.666 -0.4084  0.4575 -0.0489
  525MOL0     C70761   2.276   6.331   0.529 -0.1449 -0.6853  0.1567
  525MOL0     C70762   2.425   6.353   0.557  0.9903  0.1372 -0.7756
  525MOL0     C70763   2.525   6.344   0.439  0.5843  0.7742 -0.5525
  525MOL0     O70764   2.659   6.367   0.487 -0.1896  0.4405  0.1014
  525MOL0     C70765   2.758   6.274   0.462  1.0319  0.1267 -0.5060
  525MOL0     C70766   2.843   6.274   0.571  0.2651  0.5338  0.8573
  525MOL0     C70767   2.962   6.218   0.550  0.2024  1.0854 -0.1671
  525MOL0     C70768   3.002   6.152   0.435  0.2381 -0.1601  0.0244
  525MOL0     C70769   3.147   6.105   0.424  0.2447  0.7788  0.9300
  525MOL0     O70770   3.218   6.074   0.539 -0.5041  0.3627  0.0862
  525MOL0     C70771   3.349   6.039   0.531 -0.5840 -0.3909 -0.4572
  525MOL0     C70772   3.397   5.934   0.449  0.0895 -0.0191 -0.8340
  525MOL0     C70773   3.523   5.879   0.461  0.8312 -0.2396  0.8399
  525MOL0     C70774   3.616   5.947   0.535 -0.2034 -0.0036 -0.9054
  525MOL0     O70775   3.748   5.895   0.544  0.1919 -0.0170 -0.3096
  525MOL0     C70776   3.824   5.915   0.665  0.3091  0.3087 -0.3271
  525MOL0     C70777   3.918   5.802   0.702  0.2216  0.0643 -0.3506
  525MOL0     C70778   4.021   5.748   0.597 -0.4084  0.1395  0.2633
  525MOL0     C70779   4.153   5.688   0.659  0.7343  0.5219 -0.1447
  525MOL0     C70780   4.137   5.560   0.744 -0.1080  0.0653 -0.0164
  525MOL0     C70781   4.269   5.479   0.741  0.3586  0.8432 -0.5260
  525MOL0     C70782   4.270   5.343   0.819 -0.7528 -1.4544  0.5011
  525MOL0     C70783   4.313   5.232   0.727  0.1896  0.5592  0.2850
  525MOL0    Cl70784   4.191   5.201   0.596 -0.6598  0.0828 -0.6860
  525MOL0     C70785   3.581   6.067   0.609  0.4796 -0.3668 -0.5554
  525MOL0     C70786   3.444   6.113   0.610  0.0995  0.4991  0.3025
  525MOL0     O70787   3.191   6.098   0.308 -0.2823  0.2658 -0.2042
  525MOL0     C70788   2.899   6.139   0.328 -0.1279  0.3449 -0.5228
  525MOL0     C70789   2.773   6.206   0.342  0.6025  0.1308 -0.6596
  525MOL0     N70790   1.984   6.348   0.526  0.3082  0.4030  0.5076
  525MOL0     N70791   1.863   6.385   0.563 -0.1175  0.4182  0.3310
  525MOL0     C70792   0.839   6.490   1.070  0.1064  0.2463 -0.0461
  525MOL0     C70793   0.717   6.422   1.073  0.0661  0.2410  0.2845
  525MOL0     C70794   0.319   6.249   1.014 -0.4354 -0.7581 -0.1095
  525MOL0     C70795   0.365   6.121   0.966  0.6663  0.1813 -0.9591
  525MOL0     C70796   0.270   6.022   0.940  0.2096  0.3879  0.3814
  525MOL0     C70797   0.131   6.050   0.962  0.9628  1.0085 -0.0964
  525MOL0     O70798   0.049   5.942   0.927  0.1444  0.2705  0.7034
  525MOL0     C70799  -0.085   5.962   0.881  0.3587  0.5955 -0.1485
  525MOL0     C70800  -0.100   6.012   0.740 -0.0691  0.2371  0.2977
  525MOL0     C70801  -0.251   6.044   0.703 -0.3283  0.3151  1.2272
  525MOL0     C70802  -0.289   6.187   0.711 -0.1585 -0.6719 -0.0660
  525MOL0     C70803  -0.285   6.239   0.848 -0.3252 -0.0754 -0.8718
  525MOL0     C70804  -0.288   6.286   0.958  0.5017  0.6743  0.7641
  525MOL0     C70805   0.088   6.171   1.016  0.9062 -1.1262 -0.3629
  525MOL0     C70806   0.180   6.273   1.028  0.4855 -0.2153 -0.0405
  525MOL0     C70807   0.125   6.406   1.076 -0.6754 -0.2382 -0.1855
  525MOL0     H70808   0.636   6.491   0.744  1.3030 -0.8491 -0.4646
  525MOL0     H70809   0.824   6.613   0.750  1.7733 -0.8156 -0.2374
  525MOL0     H70810   1.089   6.465   0.846 -0.6771 -0.7199  3.6698
  525MOL0     H70811   1.070   6.631   0.764  0.3838  1.6995  0.9131
  525MOL0     H70812   1.250   6.713   0.901  0.6051 -0.3607  2.7147
  525MOL0     H70813   1.306   6.585   0.801 -0.9097  1.8881 -1.1297
  525MOL0     H70814   1.314   6.417   0.953  2.8191 -0.2567  0.8915
  525MOL0     H70815   1.210   6.502   1.063  0.1266 -1.0757 -0.3028
  525MOL0     H70816   1.379   6.676   1.088 -1.3471 -0.9520  0.9624
  525MOL0     H70817   1.426   6.526   1.167 -4.2262  1.6535  2.5269
  525MOL0     H70818   1.509   6.606   0.879 -1.4112  0.4344  0.3550
  525MOL0     H70819   1.592   6.679   1.023  3.0951 -1.2650 -0.4729
  525MOL0     H70820   1.641   6.437   1.091 -1.6650 -0.7239 -0.0492
  525MOL0     H70821   1.563   6.376   0.948  1.0888 -1.1765 -0.5391
  525MOL0     H70822   1.831   6.428   0.959  0.7496 -0.5196 -1.4345
  525MOL0     H70823   1.780   6.589   0.890  0.5683 -0.9345 -4.8439
  525MOL0     H70824   1.701   6.315   0.787  0.9534  0.8570  2.3676
  525MOL0     H70825   1.649   6.469   0.724 -0.5393  0.3673 -0.0627
  525MOL0     H70826   2.016   6.398   0.850 -1.8092 -2.4947  0.6569
  525MOL0     H70827   2.248   6.410   0.719  1.9070  0.6152 -2.1434
  525MOL0     H70828   2.201   6.227   0.709 -4.0792 -0.0751 -0.8978
  525MOL0     H70829   2.256   6.241   0.470 -0.3044 -2.1845  2.3918
  525MOL0     H70830   2.249   6.421   0.474  0.4298  0.9444  2.3829
  525MOL0     H70831   2.451   6.277   0.632 -0.5188  1.8764  1.6490
  525MOL0     H70832   2.440   6.450   0.605  1.5660 -1.5452  2.7974
  525MOL0     H70833   2.501   6.416   0.361  0.4351  1.6112  0.2488
  525MOL0     H70834   2.514   6.243   0.397  1.0736  0.6988 -0.5043
  525MOL0     H70835   2.813   6.331   0.658 -3.0813 -0.4286  0.5037
  525MOL0     H70836   3.033   6.234   0.630 -0.5570 -0.9808  1.0010
  525MOL0     H70837   3.325   5.891   0.380 -0.1388  0.0376 -0.6317
  525MOL0     H70838   3.548   5.790   0.405 -0.6607 -0.1343 -0.0443
  525MOL0     H70839   3.897   5.993   0.643 -2.5012  2.9487 -0.9148
  525MOL0     H70840   3.765   5.941   0.753 -1.7789  3.0787 -2.3647
  525MOL0     H70841   3.970   5.825   0.795 -0.7733  2.4065 -0.2841
  525MOL0     H70842   3.850   5.721   0.728 -0.0404  1.0194  2.2297
  525MOL0     H70843   3.964   5.671   0.544 -0.1136  0.1870 -0.1229
  525MOL0     H70844   4.053   5.818   0.520 -1.5478 -1.5063 -1.8259
  525MOL0     H70845   4.194   5.773   0.714 -1.5658  1.5909 -0.0050
  525MOL0     H70846   4.213   5.667   0.569  1.0103  2.2967 -0.4118
  525MOL0     H70847   4.062   5.494   0.700  0.2310  2.3311 -4.5802
  525MOL0     H70848   4.094   5.579   0.843 -1.5561 -0.8176 -0.4441
  525MOL0     H70849   4.297   5.460   0.636  2.5762  2.0869 -0.2355
  525MOL0     H70850   4.342   5.540   0.795 -2.3384  3.3804  0.5085
  525MOL0     H70851   4.173   5.321   0.863  0.0949 -2.4699  1.9074
  525MOL0     H70852   4.346   5.350   0.897  0.4357 -1.1274 -0.6596
  525MOL0     H70853   4.407   5.253   0.675 -0.1056  1.7468  0.2205
  525MOL0     H70854   4.323   5.137   0.781 -0.4999  0.9412  1.1118
  525MOL0     H70855   3.657   6.112   0.673  1.1400 -0.2851 -1.3758
  525MOL0     H70856   3.425   6.204   0.667 -2.0075  0.4941 -0.2861
  525MOL0     H70857   2.918   6.091   0.233  3.6444  1.9485 -0.7134
  525MOL0     H70858   2.691   6.224   0.272  0.2200  1.0421 -0.0016
  525MOL0     H70859   0.912   6.486   1.151 -0.6313 -0.1466  0.6052
  525MOL0     H70860   0.681   6.384   1.169 -3.5841  3.9079  0.6760
  525MOL0     H70861   0.469   6.098   0.946  0.5913 -1.1463  0.0107
  525MOL0     H70862   0.304   5.926   0.903 -3.2551 -1.7159  2.1073
  525MOL0     H70863  -0.141   6.036   0.939 -0.8007  0.2920 -0.8383
  525MOL0     H70864  -0.144   5.870   0.895  1.7494 -0.4305 -0.8030
  525MOL0     H70865  -0.047   5.936   0.682  0.2215  1.0120 -0.4788
  525MOL0     H70866  -0.037   6.101   0.732 -1.6503  1.2644 -2.4390
  525MOL0     H70867  -0.320   5.977   0.755  0.7620  0.1199  2.4575
  525MOL0     H70868  -0.259   6.016   0.597  1.9222  0.4202  0.9958
  525MOL0     H70869  -0.225   6.242   0.642 -1.4794  0.6588 -0.2812
  525MOL0     H70870  -0.393   6.192   0.677 -0.4714  2.3822  1.1151
  525MOL0     H70871  -0.290   6.347   1.047 -1.9453  2.3564 -0.3474
  525MOL0     H70872  -0.020   6.173   1.024  0.8513 -0.7928 -1.1787
  525MOL0     H70873   0.131   6.487   1.003 -0.3191  0.1900  0.3173
  525MOL0     H70874   0.022   6.411   1.111 -0.1540 -0.1764  1.4168
  525MOL0     H70875   0.177   6.436   1.167  1.8675 -0.4549 -1.4840
  526MOL0     O70876   2.268   7.346   9.409  0.1308 -0.0986  0.2992
  526MOL0     C70877   2.199   7.247   9.377  0.0619  1.2341  0.8157
  526MOL0     O70878   2.245   7.115   9.343 -0.1743  0.0556 -0.9307
  526MOL0     C70879   2.383   7.100   9.355 -0.1113 -0.4583  0.0502
  526MOL0     C70880   2.446   7.110   9.482 -1.0595 -1.4358  1.3348
  526MOL0     C70881   2.583   7.080   9.493 -0.0772 -0.2983 -0.3608
  526MOL0     C70882   2.669   7.045   9.389  0.5434  0.0068  1.0825
  526MOL0     O70883   2.798   7.018   9.412 -0.3200 -0.0450  0.5213
  526MOL0     C70884   2.896   6.974   9.313  0.0010  0.6024 -0.6324
  526MOL0     C70885   3.021   6.931   9.395 -1.4251  0.2328  0.0587
  526MOL0     C70886   3.151   6.949   9.317  0.1867  0.0891  0.3386
  526MOL0     C70887   3.265   6.879   9.402  0.1037  0.1183 -0.7251
  526MOL0     C70888   3.407   6.924   9.369 -0.2776  0.7556 -0.0968
  526MOL0     C70889   3.501   6.820   9.430 -0.6585  0.5613 -0.0233
  526MOL0     C70890   3.655   6.843   9.433 -0.9506  0.3671 -0.3278
  526MOL0     C70891   3.692   6.986   9.452  0.4448  0.2256 -0.5343
  526MOL0     N70892   3.833   7.021   9.464 -0.4511 -0.7520 -0.2369
  526MOL0     C70893   3.936   6.956   9.534  0.7976  0.8411 -0.0604
  526MOL0     C70894   4.035   7.047   9.536 -0.7436  0.6823  0.3224
  526MOL0     C70895   4.159   7.028   9.611 -0.6530  0.6109 -0.1286
  526MOL0     C70896   4.158   7.096   9.743 -0.6026  1.1515 -0.6272
  526MOL0     C70897   4.039   7.044   9.837  0.4151  0.4554  0.7488
  526MOL0     C70898   3.934   7.152   9.866 -0.5927  0.3579  0.2875
  526MOL0     O70899   3.844   7.125   9.971  0.2512 -0.1341 -0.2580
  526MOL0     C70900   3.731   7.041   9.961 -0.9655 -0.6212  0.3018
  526MOL0     C70901   3.705   6.976   9.839 -0.2417  0.0669 -0.6382
  526MOL0     C70902   3.585   6.906   9.819 -0.2277 -0.4034  0.1756
  526MOL0     C70903   3.484   6.917   9.912  0.1465  0.3943 -0.2444
  526MOL0     C70904   3.354   6.856   9.883  0.0405  0.3798 -0.4293
  526MOL0     O70905   3.256   6.858   9.971  0.7903 -0.2805  0.0713
  526MOL0     C70906   3.138   6.795   9.932 -0.0509 -0.1873  0.1416
  526MOL0     C70907   3.023   6.855   9.876  0.3295  0.2103 -0.3197
  526MOL0     C70908   2.902   6.781   9.844 -0.5333 -0.3246 -0.3773
  526MOL0     C70909   2.892   6.650   9.885  0.5490 -0.0161 -0.5642
  526MOL0     O70910   2.765   6.597   9.878  0.0716  0.5861  0.2302
  526MOL0     C70911   2.717   6.495   9.967 -0.8300 -0.4857  0.4091
  526MOL0     C70912   2.632   6.394   9.883 -0.1183 -0.0991 -0.6582
  526MOL0     C70913   2.495   6.451   9.850  0.0016 -0.4496  0.2695
  526MOL0     C70914   2.417   6.361   9.752 -0.4110 -0.2027  0.6774
  526MOL0     C70915   2.322   6.268   9.826  0.8322 -0.2567  0.5817
  526MOL0     C70916   2.242   6.174   9.727 -0.8767  0.1825 -0.1394
  526MOL0     C70917   2.130   6.112   9.815  0.5419 -0.2717 -1.1057
  526MOL0     C70918   2.023   6.042   9.733 -0.7672  0.8478  0.2082
  526MOL0    Cl70919   2.080   5.922   9.599 -0.2032  0.0164  0.4758
  526MOL0     C70920   3.002   6.584   9.936  0.3639 -0.3803 -0.8255
  526MOL0     C70921   3.121   6.656   9.965 -0.4349  0.7278  0.4864
  526MOL0     O70922   3.348   6.801   9.773  0.2249  0.3767 -0.3489
  526MOL0     C70923   3.515   6.988  10.032  0.0474  0.5409  0.1438
  526MOL0     C70924   3.636   7.049  10.054  0.6350 -0.2971 -0.8447
  526MOL0     N70925   4.001   7.156   9.470  0.4015  0.0068  0.0161
  526MOL0     N70926   3.884   7.136   9.413 -0.2114 -0.4525 -0.3488
  526MOL0     C70927   2.602   7.046   9.268  0.5040 -0.8808 -0.4355
  526MOL0     C70928   2.464   7.073   9.247 -0.1408 -0.9990 -0.2500
  526MOL0     C70929   2.052   7.253   9.360  0.5035 -0.7728  0.5218
  526MOL0     C70930   2.009   7.228   9.233  0.2566 -0.2947 -0.3311
  526MOL0     C70931   1.871   7.222   9.206  0.2780  0.6409  0.0684
  526MOL0     C70932   1.776   7.249   9.303  0.3018 -0.8241 -0.8891
  526MOL0     O70933   1.640   7.244   9.263 -0.8927 -0.2428  0.2938
  526MOL0     C70934   1.537   7.229   9.367  0.5597 -0.2377 -0.8667
  526MOL0     C70935   1.467   7.350   9.421 -0.2800 -0.4815 -0.2894
  526MOL0     C70936   1.338   7.311   9.481  0.6379  0.0972  0.3172
  526MOL0     C70937   1.280   7.432   9.558  0.2651 -0.1712 -0.9980
  526MOL0     C70938   1.138   7.429   9.526  0.7677 -0.8055 -0.0741
  526MOL0     C70939   1.027   7.405   9.483 -0.6476 -0.6313  0.1530
  526MOL0     C70940   1.826   7.290   9.427  1.0101 -0.1969  0.1240
  526MOL0     C70941   1.963   7.287   9.456 -0.0812  0.5131 -0.5301
  526MOL0     C70942   2.012   7.327   9.589  0.0055 -0.0418  0.4535
  526MOL0     H70943   2.402   7.130   9.579 -1.5395 -0.2407  0.8884
  526MOL0     H70944   2.612   7.080   9.598  0.0221 -0.2672 -0.3885
  526MOL0     H70945   2.846   6.896   9.256 -3.7269  0.0179  2.9653
  526MOL0     H70946   2.924   7.059   9.249 -0.3086  0.5679 -0.8162
  526MOL0     H70947   3.001   6.828   9.427 -1.5495  0.0085 -0.7234
  526MOL0     H70948   3.045   6.996   9.480  1.4509  0.1031 -0.5588
  526MOL0     H70949   3.181   7.055   9.312  0.3421  0.0031 -0.9633
  526MOL0     H70950   3.135   6.909   9.216  2.2127  0.0766 -0.0320
  526MOL0     H70951   3.248   6.887   9.509 -1.0444  0.0225 -0.8822
  526MOL0     H70952   3.257   6.772   9.381 -0.0216 -0.3365  1.4528
  526MOL0     H70953   3.419   6.936   9.261  0.2196 -2.5041 -0.5038
  526MOL0     H70954   3.416   7.020   9.420  1.8657 -0.5422  2.1668
  526MOL0     H70955   3.473   6.828   9.536 -0.2954  0.7527  0.0611
  526MOL0     H70956   3.485   6.725   9.380  0.9226  1.6221 -2.7732
  526MOL0     H70957   3.695   6.819   9.334  2.3016 -1.4744  1.2828
  526MOL0     H70958   3.714   6.782   9.501 -0.5746 -0.1058 -1.0660
  526MOL0     H70959   3.652   7.053   9.374 -1.3599 -1.0843 -0.8101
  526MOL0     H70960   3.643   7.022   9.543  1.2342 -2.1902  0.9179
  526MOL0     H70961   3.929   6.862   9.587 -2.7856 -0.2103 -1.9890
  526MOL0     H70962   4.186   6.923   9.623 -1.2713  0.5254  0.6185
  526MOL0     H70963   4.247   7.064   9.557 -0.5784  0.9854  0.2331
  526MOL0     H70964   4.254   7.084   9.794 -1.1943  1.8057  0.6942
  526MOL0     H70965   4.152   7.204   9.725  1.1017  1.3648 -0.1472
  526MOL0     H70966   4.083   7.016   9.933 -2.2648 -1.1895  1.5967
  526MOL0     H70967   3.993   6.953   9.797  1.5678  0.8439 -1.6703
  526MOL0     H70968   3.876   7.168   9.775 -0.6798 -0.6229  0.1514
  526MOL0     H70969   3.979   7.247   9.898  0.0984 -0.4267  1.7977
  526MOL0     H70970   3.774   6.985   9.756 -1.3244  0.8451 -1.4764
  526MOL0     H70971   3.564   6.859   9.723 -0.6612  0.3650 -0.1146
  526MOL0     H70972   3.033   6.960   9.852  0.3764  0.1352 -0.6266
  526MOL0     H70973   2.807   6.817   9.808 -1.3697  0.0095  1.9590
  526MOL0     H70974   2.799   6.439  10.013 -1.2878  0.3452  2.3363
  526MOL0     H70975   2.654   6.544  10.042 -0.9968 -0.4668  0.2567
  526MOL0     H70976   2.684   6.374   9.789  0.9902 -1.6905  0.2295
  526MOL0     H70977   2.635   6.299   9.937  2.5603  0.1178 -0.2907
  526MOL0     H70978   2.428   6.472   9.934  0.6456  0.5305  0.5573
  526MOL0     H70979   2.516   6.550   9.808 -2.5490  0.9531  2.0401
  526MOL0     H70980   2.487   6.304   9.690  0.2091  3.3300 -2.2142
  526MOL0     H70981   2.356   6.414   9.679 -0.5722  0.6181  1.3878
  526MOL0     H70982   2.250   6.334   9.874  2.0100  0.6068  1.2148
  526MOL0     H70983   2.375   6.212   9.903 -1.4734 -0.3485  2.2003
  526MOL0     H70984   2.207   6.242   9.649  1.0926  2.0970  0.5338
  526MOL0     H70985   2.307   6.099   9.682 -0.0754  1.9360 -2.0620
  526MOL0     H70986   2.078   6.191   9.870  1.4972  0.0363 -0.6219
  526MOL0     H70987   2.173   6.053   9.897 -1.8888 -0.7452 -0.1139
  526MOL0     H70988   1.951   5.986   9.794 -0.7387  0.2122 -0.3322
  526MOL0     H70989   1.960   6.116   9.681 -1.0096  0.6281  0.1861
  526MOL0     H70990   3.000   6.482   9.974  2.5710  0.0858  0.8211
  526MOL0     H70991   3.205   6.601  10.006 -2.0380 -2.6412 -0.4616
  526MOL0     H70992   3.433   7.005  10.102  0.1516  1.1107  0.1370
  526MOL0     H70993   3.649   7.105  10.146  0.1786  1.7822 -1.9927
  526MOL0     H70994   2.652   7.016   9.176  3.3455 -1.1516  1.1181
  526MOL0     H70995   2.425   7.084   9.146  0.4197  2.5545 -0.2205
  526MOL0     H70996   2.076   7.193   9.155  1.9881  1.6414  0.2072
  526MOL0     H70997   1.840   7.190   9.107  0.8726 -1.9342  0.6541
  526MOL0     H70998   1.580   7.178   9.454 -1.0100 -0.6750 -0.3183
  526MOL0     H70999   1.462   7.157   9.333 -0.4002 -1.0532  2.6539
  526MOL0     H71000   1.443   7.413   9.335  1.0334  0.6386  0.1307
  526MOL0     H71001   1.531   7.410   9.486  0.1146 -0.4856 -0.6652
  526MOL0     H71002   1.357   7.233   9.555  0.2942 -3.3391 -2.8801
  526MOL0     H71003   1.267   7.271   9.409 -0.4918 -2.5529  2.7263
  526MOL0     H71004   1.277   7.440   9.667 -0.9252  0.6872 -1.0695
  526MOL0     H71005   1.321   7.530   9.534 -0.4619  1.0808  2.2683
  526MOL0     H71006   0.931   7.397   9.435 -1.3648  1.7519  1.0564
  526MOL0     H71007   1.763   7.324   9.509 -1.0194 -0.9404 -1.0461
  526MOL0     H71008   2.090   7.265   9.635 -0.2585 -1.4789 -0.9566
  526MOL0     H71009   2.053   7.426   9.567  0.1829 -0.4977 -1.4352
  526MOL0     H71010   1.924   7.323   9.653 -1.4295 -2.2425 -1.5144
  527MOL0     O71011   6.572   0.411   3.134  0.5988 -0.5674 -0.6592
  527MOL0     C71012   6.598   0.522   3.176  0.1996 -0.1092 -0.0523
  527MOL0     O71013   6.522   0.603   3.259 -0.6916  0.1827 -0.6785
  527MOL0     C71014   6.472   0.525   3.361 -0.4067  0.4910  0.6874
  527MOL0     C71015   6.550   0.513   3.474 -0.1263  0.3730 -0.3610
  527MOL0     C71016   6.514   0.426   3.581  0.2077 -0.4444  0.2463
  527MOL0     C71017   6.386   0.366   3.588 -0.2680  0.3429  0.4607
  527MOL0     O71018   6.355   0.272   3.679 -0.0659  0.0084  0.4428
  527MOL0     C71019   6.388   0.300   3.815 -0.2899  0.1403  0.0622
  527MOL0     C71020   6.327   0.194   3.897 -0.2683  0.2066 -0.1901
  527MOL0     C71021   6.181   0.218   3.897  0.7750  0.4814  0.5612
  527MOL0     C71022   6.111   0.105   3.976  0.7587 -0.6373 -0.3880
  527MOL0     C71023   5.960   0.139   3.979  0.0109  0.3842 -0.2710
  527MOL0     C71024   5.879   0.030   4.065 -0.8224 -0.7254  0.3953
  527MOL0     C71025   5.735   0.072   4.086 -0.2502 -0.1174 -0.2653
  527MOL0     C71026   5.648   0.074   3.960 -0.6695 -0.0873 -0.4472
  527MOL0     N71027   5.520   0.003   3.973 -0.7114  0.2696 -0.2277
  527MOL0     C71028   5.396   0.068   3.985  0.3044 -0.2884  0.5049
  527MOL0     C71029   5.305  -0.031   3.957  0.3520 -0.3171  0.6633
  527MOL0     C71030   5.156  -0.017   3.975  0.1305  0.4039  0.7264
  527MOL0     C71031   5.103  -0.013   4.117  0.2803 -0.6691 -1.1853
  527MOL0     C71032   5.190  -0.059   4.232 -0.3050  0.2311  1.0009
  527MOL0     C71033   5.213  -0.213   4.231 -0.4980 -0.3546 -0.6380
  527MOL0     O71034   5.276  -0.244   4.358  0.1901  0.5512 -0.2215
  527MOL0     C71035   5.412  -0.254   4.371 -0.3836 -0.2989 -0.6923
  527MOL0     C71036   5.505  -0.270   4.267  0.4124  0.2088  0.3118
  527MOL0     C71037   5.642  -0.276   4.284 -0.6513  0.6163  0.2386
  527MOL0     C71038   5.698  -0.267   4.405 -0.3705  0.0806  0.0861
  527MOL0     C71039   5.845  -0.272   4.423  0.1419  0.2179 -0.1926
  527MOL0     O71040   5.921  -0.291   4.307  0.8973 -0.1254  0.0076
  527MOL0     C71041   6.050  -0.269   4.289 -0.6350  0.5518  0.3235
  527MOL0     C71042   6.098  -0.291   4.157 -0.0328 -0.7700  0.7979
  527MOL0     C71043   6.228  -0.252   4.115  0.1772 -0.5294 -0.0451
  527MOL0     C71044   6.314  -0.196   4.212  0.2069  1.2662 -0.1240
  527MOL0     O71045   6.450  -0.180   4.195 -0.1717 -0.7828  0.1595
  527MOL0     C71046   6.488  -0.109   4.072 -0.6021 -0.0088  0.2843
  527MOL0     C71047   6.641  -0.097   4.081 -0.0773 -0.7166  0.8133
  527MOL0     C71048   6.687  -0.003   3.962 -0.3961  0.0406  0.3330
  527MOL0     C71049   6.827   0.049   3.999  0.0677  0.3324 -0.4428
  527MOL0     C71050   6.867   0.150   3.897  0.2915 -1.1609  0.5297
  527MOL0     C71051   7.004   0.203   3.937 -0.0870  0.6285 -0.0805
  527MOL0     C71052   7.125   0.112   3.904  0.3631 -0.5950 -0.1943
  527MOL0     C71053   7.256   0.173   3.954  0.6147 -0.8693 -0.3655
  527MOL0    Cl71054   7.259   0.202   4.135 -0.2018 -0.0308 -0.1198
  527MOL0     C71055   6.272  -0.182   4.346  0.4129  0.2671 -0.2990
  527MOL0     C71056   6.144  -0.217   4.382  0.5953 -0.4354 -0.4464
  527MOL0     O71057   5.884  -0.267   4.540 -0.5041  0.9442  0.0851
  527MOL0     C71058   5.612  -0.242   4.510 -0.6599  0.0975  0.9211
  527MOL0     C71059   5.470  -0.230   4.497  0.1306  0.1332 -0.6384
  527MOL0     N71060   5.373  -0.148   3.924  0.0918 -0.1771 -0.0107
  527MOL0     N71061   5.503  -0.126   3.941  0.5188 -0.0632 -0.2529
  527MOL0     C71062   6.310   0.376   3.477 -0.3298 -0.1074 -0.9906
  527MOL0     C71063   6.351   0.467   3.373  1.0884  0.7203 -0.4789
  527MOL0     C71064   6.716   0.593   3.116  1.1249  0.8199 -0.1386
  527MOL0     C71065   6.694   0.715   3.059 -1.2205  0.6901  0.1837
  527MOL0     C71066   6.785   0.767   2.967  0.1406 -0.2828 -0.4034
  527MOL0     C71067   6.916   0.710   2.959 -1.3500 -0.7259  0.9296
  527MOL0     O71068   7.014   0.739   2.863 -0.0829  0.3168 -0.8394
  527MOL0     C71069   7.005   0.863   2.797 -0.3147 -0.4281 -0.4375
  527MOL0     C71070   7.142   0.893   2.721  0.8280  0.9097 -0.7273
  527MOL0     C71071   7.266   0.902   2.825  0.7326 -0.4488 -0.2152
  527MOL0     C71072   7.390   0.950   2.754 -0.6148  0.3152 -0.5339
  527MOL0     C71073   7.505   0.920   2.847  0.5560  0.0559 -0.0512
  527MOL0     C71074   7.595   0.904   2.927  0.1363  0.0536 -1.0596
  527MOL0     C71075   6.942   0.601   3.043 -0.0311  0.3760  0.2575
  527MOL0     C71076   6.844   0.536   3.118 -0.3504 -0.1025  0.0728
  527MOL0     C71077   6.871   0.402   3.186 -0.1009  0.5991 -1.0473
  527MOL0     H71078   6.640   0.572   3.484  1.2394 -1.5693 -0.5153
  527MOL0     H71079   6.582   0.419   3.666 -0.5921 -0.9766  0.8477
  527MOL0     H71080   6.497   0.285   3.813 -0.4167 -0.6747 -1.1428
  527MOL0     H71081   6.368   0.400   3.854  1.8821  0.6743 -0.0304
  527MOL0     H71082   6.378   0.201   3.994  1.4236  1.0162 -1.1004
  527MOL0     H71083   6.354   0.096   3.857  1.1448  1.5718 -2.7745
  527MOL0     H71084   6.140   0.213   3.795 -0.4633  0.5045  1.0522
  527MOL0     H71085   6.156   0.310   3.950 -0.6787  0.0282  0.6959
  527MOL0     H71086   6.120   0.006   3.932  2.9632 -0.8598  0.4540
  527MOL0     H71087   6.148   0.105   4.079 -1.1846  0.7327  0.3882
  527MOL0     H71088   5.942   0.242   4.013  0.3922  0.2324  0.4059
  527MOL0     H71089   5.920   0.122   3.879 -0.8986 -0.6499  0.2412
  527MOL0     H71090   5.899  -0.067   4.018  3.4942  0.2690 -0.3142
  527MOL0     H71091   5.926   0.013   4.163 -1.5072 -4.1601  0.2451
  527MOL0     H71092   5.735   0.168   4.138  0.0132 -0.6500  0.7610
  527MOL0     H71093   5.698   0.007   4.167  1.5228  2.6521  3.0548
  527MOL0     H71094   5.636   0.176   3.923 -0.4023  0.0583 -0.1449
  527MOL0     H71095   5.683   0.030   3.866 -1.0825  1.2675 -1.2500
  527MOL0     H71096   5.375   0.162   4.035  2.9879  0.4906  0.3169
  527MOL0     H71097   5.113   0.071   3.927  1.0883  1.0467  1.0117
  527MOL0     H71098   5.119  -0.107   3.926  1.0942 -0.8860  2.2375
  527MOL0     H71099   5.072   0.089   4.141  1.3710 -0.0982 -2.1121
  527MOL0     H71100   5.007  -0.065   4.119 -0.3698  0.5165 -0.6297
  527MOL0     H71101   5.148  -0.045   4.332  0.3981  1.2341  1.1747
  527MOL0     H71102   5.293  -0.023   4.237 -0.4099  0.4626  1.5376
  527MOL0     H71103   5.273  -0.238   4.143 -0.7405 -0.2899 -0.8230
  527MOL0     H71104   5.115  -0.261   4.224 -2.0368  2.1302  1.7897
  527MOL0     H71105   5.477  -0.282   4.163 -1.7913  0.4646  0.8211
  527MOL0     H71106   5.704  -0.294   4.198 -2.0717 -0.6663 -0.5828
  527MOL0     H71107   6.031  -0.329   4.081 -0.9923  0.1125  1.1738
  527MOL0     H71108   6.254  -0.277   4.012 -0.2213 -0.9375 -0.0551
  527MOL0     H71109   6.463  -0.168   3.984 -1.6002  0.4624  0.2480
  527MOL0     H71110   6.441  -0.011   4.062 -3.4680 -1.4775 -2.0713
  527MOL0     H71111   6.663  -0.060   4.181 -2.7948 -0.2922  1.3336
  527MOL0     H71112   6.684  -0.197   4.066 -2.2828 -1.6243  0.1772
  527MOL0     H71113   6.684  -0.054   3.865  0.4161 -2.3679  1.4913
  527MOL0     H71114   6.618   0.081   3.958 -0.6984 -0.1336  1.5152
  527MOL0     H71115   6.903  -0.030   3.998 -0.5358 -0.2574 -0.8976
  527MOL0     H71116   6.822   0.087   4.102 -0.1195  2.8221 -1.3027
  527MOL0     H71117   6.791   0.229   3.898  2.4120  1.0051 -0.5534
  527MOL0     H71118   6.878   0.102   3.799 -3.9887  0.0638 -0.7705
  527MOL0     H71119   7.028   0.298   3.890  2.5844  0.0785  0.0143
  527MOL0     H71120   6.996   0.215   4.046 -1.0731 -2.2022  0.2664
  527MOL0     H71121   7.144   0.102   3.797  2.0591 -1.3834  0.1480
  527MOL0     H71122   7.112   0.019   3.960  0.3742 -0.0542  0.7433
  527MOL0     H71123   7.342   0.109   3.932  1.7404  0.0449  1.1024
  527MOL0     H71124   7.265   0.274   3.914  2.2671  0.1928  2.3379
  527MOL0     H71125   6.345  -0.142   4.415  0.4484  0.6687 -0.5634
  527MOL0     H71126   6.117  -0.214   4.488  1.9821 -1.1899 -0.0482
  527MOL0     H71127   5.656  -0.219   4.606 -0.4948  0.2210  0.8181
  527MOL0     H71128   5.408  -0.208   4.583  1.6296 -0.6003  0.6870
  527MOL0     H71129   6.213   0.327   3.473 -0.3460 -0.0302 -1.5947
  527MOL0     H71130   6.280   0.489   3.294 -0.0509  4.2160  1.2786
  527MOL0     H71131   6.598   0.766   3.067 -1.9828 -0.7116  0.2120
  527MOL0     H71132   6.765   0.853   2.904  1.1443  1.7682  1.9147
  527MOL0     H71133   6.985   0.946   2.866  0.5883 -1.5892  1.2772
  527MOL0     H71134   6.927   0.852   2.721  1.3216  1.3059 -2.5286
  527MOL0     H71135   7.139   0.982   2.658  2.0400  0.7365 -1.0634
  527MOL0     H71136   7.171   0.808   2.659  0.1588 -1.6419  2.2089
  527MOL0     H71137   7.282   0.804   2.871 -1.6334  0.1083  2.0385
  527MOL0     H71138   7.240   0.971   2.905  0.1875 -0.9159  0.0213
  527MOL0     H71139   7.403   0.894   2.661  1.0294 -0.1041 -0.0868
  527MOL0     H71140   7.383   1.052   2.717  2.5416  0.4819 -0.9491
  527MOL0     H71141   7.673   0.881   2.998 -1.2383 -1.4488  0.0460
  527MOL0     H71142   7.040   0.555   3.033 -0.2999 -0.0827 -0.3211
  527MOL0     H71143   6.978   0.385   3.206 -0.2739  1.4179  0.7288
  527MOL0     H71144   6.822   0.394   3.283  2.0663  0.9261  0.1394
  527MOL0     H71145   6.846   0.310   3.133  0.9022  0.4824 -1.3514
  528MOL0     O71146   8.524   4.227  11.136 -0.3387 -0.7284  0.4609
  528MOL0     C71147   8.498   4.224  11.256 -1.1386 -0.2857 -1.0645
  528MOL0     O71148   8.595   4.253  11.348  0.3474  0.0948 -0.7157
  528MOL0     C71149   8.723   4.295  11.315  0.0553 -0.6344 -0.3432
  528MOL0     C71150   8.829   4.249  11.395 -0.0510 -0.2516  0.4402
  528MOL0     C71151   8.956   4.296  11.379  0.6404 -0.2532  0.1758
  528MOL0     C71152   8.983   4.394  11.280  0.3675  0.6032 -0.1957
  528MOL0     O71153   9.117   4.434  11.263 -0.4651  0.5586 -0.7277
  528MOL0     C71154   9.149   4.517  11.148  0.2949  0.5454 -0.0343
  528MOL0     C71155   9.299   4.530  11.132  0.8137 -0.4505 -0.8247
  528MOL0     C71156   9.344   4.610  11.002 -0.1905  0.3145 -0.4020
  528MOL0     C71157   9.318   4.761  10.998  0.3859  0.9179 -0.9920
  528MOL0     C71158   9.342   4.812  10.853  1.2149 -0.1275 -0.2937
  528MOL0     C71159   9.485   4.802  10.799  0.3313  0.1446 -1.0392
  528MOL0     C71160   9.562   4.903  10.867 -0.6068  0.6290 -1.1000
  528MOL0     C71161   9.697   4.929  10.787  0.2397 -0.6353 -0.6839
  528MOL0     N71162   9.810   4.989  10.857  0.1085 -0.7336 -0.6453
  528MOL0     C71163   9.933   4.947  10.847 -0.0117 -0.2500  0.0232
  528MOL0     C71164  10.010   5.020  10.931 -0.0471  0.2885  0.3103
  528MOL0     C71165  10.151   4.990  10.961 -1.3080 -0.5506 -0.2228
  528MOL0     C71166  10.239   4.968  10.844 -0.6537  1.8009  1.1264
  528MOL0     C71167  10.362   4.888  10.873 -0.2106 -0.4986 -0.3346
  528MOL0     C71168  10.466   4.971  10.955 -0.3713 -0.4736 -0.1271
  528MOL0     O71169  10.504   5.088  10.878  0.7333 -0.3634  0.0684
  528MOL0     C71170  10.606   5.171  10.926 -0.5547  0.4155 -0.0760
  528MOL0     C71171  10.664   5.145  11.039 -1.1849  0.7486 -0.2176
  528MOL0     C71172  10.764   5.230  11.083  0.6157  0.3051 -0.3188
  528MOL0     C71173  10.816   5.325  11.002  0.2584  0.2477  0.5790
  528MOL0     C71174  10.920   5.418  11.044  0.1874  0.1116 -0.5436
  528MOL0     O71175  10.909   5.541  11.004  0.1740  0.2517 -0.0777
  528MOL0     C71176  11.002   5.636  11.025 -0.4350  0.1618 -0.6698
  528MOL0     C71177  10.953   5.769  11.049 -1.4388  0.1361 -0.6433
  528MOL0     C71178  11.041   5.871  11.072 -1.1011 -0.2881  0.4849
  528MOL0     C71179  11.176   5.851  11.043 -0.0881  0.1273  0.0584
  528MOL0     O71180  11.267   5.953  11.040 -0.0555  0.1173  0.2217
  528MOL0     C71181  11.249   6.077  11.114  0.0341  0.5742 -0.0930
  528MOL0     C71182  11.378   6.151  11.124 -0.6661  0.6674  0.1773
  528MOL0     C71183  11.485   6.085  11.213 -0.1997 -0.2383 -0.1835
  528MOL0     C71184  11.615   6.134  11.160  0.3227  0.1889  0.1757
  528MOL0     C71185  11.721   6.103  11.263 -0.1746 -0.4660 -1.1622
  528MOL0     C71186  11.856   6.131  11.206 -1.2310  0.0773 -0.3559
  528MOL0     C71187  11.968   6.076  11.293 -0.3410 -0.5160 -0.1088
  528MOL0     C71188  12.102   6.114  11.218  0.1874 -0.0721 -0.3269
  528MOL0    Cl71189  12.241   6.021  11.277 -0.3447  0.0791 -0.4377
  528MOL0     C71190  11.230   5.725  11.027  1.0054  1.3395 -0.1829
  528MOL0     C71191  11.141   5.619  11.013  0.8625 -0.0694  0.5549
  528MOL0     O71192  11.020   5.376  11.090  1.1030 -0.5075  0.0335
  528MOL0     C71193  10.768   5.344  10.867  0.8399  0.0207 -0.7101
  528MOL0     C71194  10.652   5.271  10.839  0.4770 -0.0240  0.1893
  528MOL0     N71195   9.930   5.114  10.985 -0.3485  0.9997  0.2247
  528MOL0     N71196   9.818   5.100  10.944  0.4755  0.0823  0.8577
  528MOL0     C71197   8.885   4.432  11.185  0.4280  0.1162  0.7678
  528MOL0     C71198   8.754   4.380  11.209  0.6601  0.2536 -0.3864
  528MOL0     C71199   8.364   4.179  11.304 -0.1143 -0.7768  0.1027
  528MOL0     C71200   8.264   4.160  11.211  0.2449  0.1559  0.9525
  528MOL0     C71201   8.138   4.123  11.246 -0.5262  0.4898  0.1504
  528MOL0     C71202   8.109   4.099  11.376 -0.7506  0.1162 -0.3997
  528MOL0     O71203   7.987   4.070  11.425  0.4452  0.2456 -0.3536
  528MOL0     C71204   7.930   3.958  11.357  0.4905 -0.5192  0.3908
  528MOL0     C71205   7.804   3.910  11.439 -0.5469 -0.4201 -1.3962
  528MOL0     C71206   7.697   4.011  11.461  0.1227 -0.1534 -0.3453
  528MOL0     C71207   7.581   3.937  11.537  0.6856 -0.3714 -0.2370
  528MOL0     C71208   7.461   4.006  11.513  0.4012  0.4848  0.7029
  528MOL0     C71209   7.357   4.062  11.509  0.4749 -0.6197  0.0211
  528MOL0     C71210   8.209   4.115  11.465  0.5026 -0.1069  0.1357
  528MOL0     C71211   8.336   4.158  11.438  1.1137  0.5514  0.2396
  528MOL0     C71212   8.427   4.184  11.553  0.3733  0.3339  0.2217
  528MOL0     H71213   8.797   4.175  11.468  2.9788 -2.0336  0.1173
  528MOL0     H71214   9.028   4.266  11.454  0.6242  1.1907  0.8064
  528MOL0     H71215   9.105   4.459  11.066  0.7377  0.7915 -0.4491
  528MOL0     H71216   9.096   4.611  11.163  0.0353  0.1916  1.4587
  528MOL0     H71217   9.346   4.433  11.147  2.5846  0.7040  1.6732
  528MOL0     H71218   9.328   4.597  11.213  2.9052 -0.6559 -1.3370
  528MOL0     H71219   9.296   4.557  10.920 -3.0799  1.5172  0.4046
  528MOL0     H71220   9.452   4.595  10.988  0.1480  1.7374  0.5247
  528MOL0     H71221   9.215   4.783  11.027  0.3444  3.3839 -2.6543
  528MOL0     H71222   9.371   4.801  11.084 -2.0331  0.9500  0.5539
  528MOL0     H71223   9.268   4.771  10.784 -0.7307  1.1076  0.9619
  528MOL0     H71224   9.312   4.917  10.866  1.9148 -0.0457  0.8642
  528MOL0     H71225   9.522   4.702  10.825 -1.4924  0.2857  2.8892
  528MOL0     H71226   9.482   4.829  10.693  2.6431 -0.2325 -1.2684
  528MOL0     H71227   9.599   4.874  10.966  1.6373  3.2052 -1.0802
  528MOL0     H71228   9.516   5.002  10.875 -1.3040  0.2004  1.0217
  528MOL0     H71229   9.715   4.833  10.736 -4.8135 -1.8073 -0.7757
  528MOL0     H71230   9.678   4.999  10.705  0.5471  1.4346  0.9457
  528MOL0     H71231   9.979   4.868  10.789  1.7716 -1.3516  2.6984
  528MOL0     H71232  10.188   5.080  11.011 -4.1505  1.5705 -1.6290
  528MOL0     H71233  10.149   4.911  11.036  0.6035 -1.1609 -0.7688
  528MOL0     H71234  10.186   4.919  10.761  1.2734  4.1851 -1.7292
  528MOL0     H71235  10.270   5.061  10.797  2.5922 -0.0589 -0.7482
  528MOL0     H71236  10.412   4.857  10.781  0.3000 -4.6907  1.1389
  528MOL0     H71237  10.337   4.794  10.923  2.4379  0.1053  2.4117
  528MOL0     H71238  10.551   4.905  10.972 -0.3616 -0.7924 -1.3146
  528MOL0     H71239  10.415   5.003  11.046  0.3723  0.3438  0.0136
  528MOL0     H71240  10.636   5.066  11.107 -1.7890  1.0184 -0.1506
  528MOL0     H71241  10.808   5.218  11.182  1.0732 -2.9796 -0.7933
  528MOL0     H71242  10.845   5.784  11.050 -1.7577 -1.7649  1.3466
  528MOL0     H71243  11.005   5.970  11.098  0.8257  0.7981 -0.6709
  528MOL0     H71244  11.176   6.146  11.072 -0.1196 -0.4435 -1.5744
  528MOL0     H71245  11.229   6.041  11.216  0.4633 -1.3241 -0.6430
  528MOL0     H71246  11.408   6.174  11.021 -0.1377 -2.2673 -0.4068
  528MOL0     H71247  11.351   6.244  11.175 -2.3028 -0.3121  1.2187
  528MOL0     H71248  11.473   6.129  11.312 -1.6133 -1.8642  0.4390
  528MOL0     H71249  11.475   5.976  11.215 -1.7886 -0.1710 -1.8416
  528MOL0     H71250  11.612   6.237  11.126  0.1754  0.4304  0.8958
  528MOL0     H71251  11.630   6.077  11.068  1.4694  1.5067 -0.4908
  528MOL0     H71252  11.718   5.998  11.292 -0.3608 -0.8363 -2.4603
  528MOL0     H71253  11.717   6.168  11.351  1.0259 -2.6586  0.6062
  528MOL0     H71254  11.872   6.090  11.105  3.6209 -0.7895  0.5073
  528MOL0     H71255  11.862   6.239  11.190 -0.7334 -0.4354 -5.6968
  528MOL0     H71256  11.969   5.966  11.299  2.0506 -0.4839  1.4051
  528MOL0     H71257  11.971   6.109  11.397  0.6498 -0.7023 -0.0603
  528MOL0     H71258  12.091   6.099  11.110 -0.6987  1.2280 -0.4422
  528MOL0     H71259  12.117   6.219  11.245 -0.7058 -0.8072  3.6400
  528MOL0     H71260  11.336   5.706  11.009  0.9789 -0.6881  1.5046
  528MOL0     H71261  11.177   5.525  10.971  1.4089  0.4192 -0.1022
  528MOL0     H71262  10.811   5.416  10.799 -1.1381  0.8547 -1.1585
  528MOL0     H71263  10.601   5.280  10.744  2.1445  0.3618 -0.6915
  528MOL0     H71264   8.889   4.501  11.101 -1.8280 -1.3383 -0.6548
  528MOL0     H71265   8.674   4.415  11.145 -0.1530 -0.4833  0.2002
  528MOL0     H71266   8.279   4.172  11.104 -2.5113 -2.5649  0.1008
  528MOL0     H71267   8.060   4.106  11.172 -0.2619  2.9656 -0.7777
  528MOL0     H71268   8.002   3.876  11.356  1.1354 -0.0372  2.3709
  528MOL0     H71269   7.897   3.992  11.259  1.2232 -1.0866 -0.0605
  528MOL0     H71270   7.842   3.872  11.534  1.0877 -1.3845 -2.3912
  528MOL0     H71271   7.757   3.829  11.382 -2.2006 -1.0453  0.7250
  528MOL0     H71272   7.653   4.055  11.371  0.5803 -1.5559 -1.2786
  528MOL0     H71273   7.732   4.096  11.520 -2.4605 -0.3345  1.6667
  528MOL0     H71274   7.564   3.831  11.515 -1.5130  0.1128 -1.1018
  528MOL0     H71275   7.612   3.950  11.641  0.1595  1.5116 -0.2857
  528MOL0     H71276   7.260   4.106  11.502 -0.0909 -1.6967  0.8722
  528MOL0     H71277   8.192   4.092  11.569  2.2945  0.3066  0.5529
  528MOL0     H71278   8.448   4.291  11.561  1.3148  0.0734  1.7283
  528MOL0     H71279   8.381   4.151  11.646 -2.2053  0.6666 -0.8479
  528MOL0     H71280   8.523   4.132  11.540 -0.4607 -1.4256  0.8114
  529MOL0     O71281   6.471   5.959   5.271  0.6727  0.1103 -0.0296
  529MOL0     C71282   6.386   5.912   5.333  0.5251  0.4088 -0.6120
  529MOL0     O71283   6.303   5.818   5.295 -1.1300 -0.4255 -0.4482
  529MOL0     C71284   6.304   5.762   5.168 -0.7602  1.1131  0.3559
  529MOL0     C71285   6.265   5.630   5.168  0.5969 -0.1341  0.8476
  529MOL0     C71286   6.283   5.550   5.048  0.0743  0.2204 -0.5795
  529MOL0     C71287   6.319   5.608   4.929  0.2593  0.1748 -0.4049
  529MOL0     O71288   6.351   5.539   4.812  0.5664 -0.5425  0.5940
  529MOL0     C71289   6.387   5.398   4.809  0.5585 -0.3927  0.5209
  529MOL0     C71290   6.455   5.365   4.674  0.1602 -1.0169 -0.5407
  529MOL0     C71291   6.591   5.437   4.643  0.2056  0.2451  0.4240
  529MOL0     C71292   6.663   5.343   4.532  0.2818 -0.0741 -0.4611
  529MOL0     C71293   6.794   5.411   4.490 -0.8670 -0.9346  0.2030
  529MOL0     C71294   6.867   5.334   4.378 -0.0742 -0.5444  0.3483
  529MOL0     C71295   7.007   5.373   4.358  0.9418  0.0717  0.1489
  529MOL0     C71296   7.037   5.300   4.222 -0.0649 -0.3128 -0.3513
  529MOL0     N71297   7.181   5.270   4.204  0.3738 -0.5038  1.0496
  529MOL0     C71298   7.248   5.156   4.250  1.2622  0.0487  0.3831
  529MOL0     C71299   7.373   5.175   4.212  0.4246 -0.3721 -1.1677
  529MOL0     C71300   7.490   5.079   4.228 -0.0096 -0.4139  0.8816
  529MOL0     C71301   7.503   4.994   4.096 -0.3292  0.4684  0.0304
  529MOL0     C71302   7.585   4.863   4.122  0.1162 -0.3608 -0.1094
  529MOL0     C71303   7.736   4.875   4.113  0.2355 -0.2645 -0.0275
  529MOL0     O71304   7.797   4.966   4.207 -0.4951 -0.5668 -0.3103
  529MOL0     C71305   7.937   4.998   4.194  0.7183 -0.5920  0.4860
  529MOL0     C71306   8.005   5.058   4.300 -0.1349 -0.0375 -0.3029
  529MOL0     C71307   8.143   5.087   4.297  0.0092  0.3822  0.4188
  529MOL0     C71308   8.224   5.041   4.186  0.3658  0.1443 -0.7225
  529MOL0     C71309   8.367   5.070   4.180 -0.0511 -0.0572  0.2792
  529MOL0     O71310   8.417   5.130   4.291  0.4724 -0.5414  0.0337
  529MOL0     C71311   8.553   5.149   4.310 -0.2909  0.2869  0.0023
  529MOL0     C71312   8.577   5.178   4.446  0.0322 -1.1272  0.8057
  529MOL0     C71313   8.700   5.191   4.493  0.1989 -0.9838  0.3408
  529MOL0     C71314   8.807   5.192   4.406  0.8588  0.1781  1.1140
  529MOL0     O71315   8.937   5.208   4.444  0.7412 -0.2126  0.0575
  529MOL0     C71316   8.968   5.258   4.577  0.8272 -0.5996 -0.8107
  529MOL0     C71317   9.123   5.262   4.584 -0.6278  0.8109  0.1622
  529MOL0     C71318   9.164   5.319   4.721 -1.4994 -0.4232 -1.3755
  529MOL0     C71319   9.325   5.343   4.722  0.3436 -0.2698  0.1564
  529MOL0     C71320   9.354   5.436   4.837  0.2411  0.0706  0.2118
  529MOL0     C71321   9.353   5.354   4.966  0.3135 -0.6290 -0.0223
  529MOL0     C71322   9.377   5.445   5.085 -0.3823  0.2127 -0.8960
  529MOL0     C71323   9.519   5.447   5.128  0.4368  0.0344 -0.1855
  529MOL0    Cl71324   9.583   5.278   5.179  0.4691 -0.0886 -0.5018
  529MOL0     C71325   8.790   5.174   4.269  1.0597  0.7006 -0.3316
  529MOL0     C71326   8.661   5.155   4.220  0.0706  0.6703  0.2073
  529MOL0     O71327   8.435   5.030   4.088 -0.3006 -0.1841 -0.4126
  529MOL0     C71328   8.152   4.984   4.076  0.0488 -0.0436  0.0360
  529MOL0     C71329   8.013   4.965   4.080  0.1480  1.6729 -0.6790
  529MOL0     N71330   7.382   5.285   4.126 -0.3557 -0.0801 -1.0138
  529MOL0     N71331   7.267   5.347   4.123  0.1064 -0.6555 -0.4387
  529MOL0     C71332   6.339   5.747   4.927 -0.1253  0.2792 -0.3170
  529MOL0     C71333   6.333   5.822   5.046  0.3096  0.1254  0.1907
  529MOL0     C71334   6.345   5.978   5.468  0.0299  0.5907 -0.8396
  529MOL0     C71335   6.244   5.913   5.552 -0.4055 -0.1203 -0.1778
  529MOL0     C71336   6.199   5.970   5.668  0.1101  0.0848  0.3183
  529MOL0     C71337   6.254   6.090   5.714 -0.0136 -0.2070  0.1105
  529MOL0     O71338   6.218   6.154   5.834  0.1991  0.0724  0.5769
  529MOL0     C71339   6.182   6.062   5.936 -0.4788 -0.2319  0.5995
  529MOL0     C71340   6.131   6.141   6.049 -0.8948 -0.4476 -1.0221
  529MOL0     C71341   6.007   6.222   6.008 -0.5060 -0.2872 -0.1500
  529MOL0     C71342   5.958   6.324   6.117  0.1265 -0.0106  0.1853
  529MOL0     C71343   6.050   6.436   6.135 -0.6706  0.0041  0.0925
  529MOL0     C71344   6.136   6.531   6.143 -1.1671 -0.4311 -0.5279
  529MOL0     C71345   6.339   6.159   5.635  0.3230 -0.1038 -0.2343
  529MOL0     C71346   6.388   6.110   5.508 -1.0391 -0.2417 -0.2727
  529MOL0     C71347   6.487   6.193   5.431 -0.0917 -0.0502 -1.0221
  529MOL0     H71348   6.237   5.577   5.259  1.2341 -0.8937  0.6102
  529MOL0     H71349   6.271   5.443   5.057  0.6762  0.0833 -1.3025
  529MOL0     H71350   6.453   5.376   4.893 -0.5566  0.1397  1.5812
  529MOL0     H71351   6.289   5.353   4.826 -1.3416  2.9628 -0.5330
  529MOL0     H71352   6.380   5.396   4.601 -0.5320 -0.5529  0.3382
  529MOL0     H71353   6.485   5.260   4.665  3.0991 -0.2580 -0.6061
  529MOL0     H71354   6.660   5.438   4.728 -1.2404 -0.5650  1.6606
  529MOL0     H71355   6.573   5.540   4.611 -0.3089 -0.3715 -1.4033
  529MOL0     H71356   6.673   5.243   4.575  0.1000  0.8769  1.9429
  529MOL0     H71357   6.612   5.323   4.437  0.9792 -4.3176 -0.1537
  529MOL0     H71358   6.770   5.511   4.452  0.0387 -0.3651  1.1003
  529MOL0     H71359   6.859   5.430   4.575 -1.3592 -0.3375  0.4553
  529MOL0     H71360   6.867   5.227   4.401 -0.3715 -1.0607 -1.8501
  529MOL0     H71361   6.809   5.349   4.287 -0.3335 -1.0897  0.4154
  529MOL0     H71362   7.075   5.333   4.433  1.7927  0.0296 -0.6297
  529MOL0     H71363   7.011   5.480   4.338  0.0365 -0.2363 -2.0809
  529MOL0     H71364   6.967   5.216   4.218 -0.8920  0.2156  1.6660
  529MOL0     H71365   7.012   5.367   4.139  0.5020  1.1463  0.5992
  529MOL0     H71366   7.208   5.075   4.310 -0.1404  1.3582  1.3031
  529MOL0     H71367   7.586   5.126   4.253  0.3803 -2.3824  3.4116
  529MOL0     H71368   7.475   5.015   4.314  0.0833 -0.9176  0.5270
  529MOL0     H71369   7.409   4.981   4.041  0.7486  4.3214 -3.1425
  529MOL0     H71370   7.560   5.049   4.021  1.2426  0.5468  1.2338
  529MOL0     H71371   7.544   4.783   4.060 -4.6732 -0.0236  2.1890
  529MOL0     H71372   7.579   4.833   4.227  0.7637  1.6855  0.5674
  529MOL0     H71373   7.763   4.913   4.014  0.2950 -0.4981 -0.1022
  529MOL0     H71374   7.786   4.780   4.133  0.5027 -0.2312 -0.5084
  529MOL0     H71375   7.950   5.077   4.392 -2.4479 -0.9195 -1.4299
  529MOL0     H71376   8.189   5.142   4.379  0.6657 -1.7034  1.5069
  529MOL0     H71377   8.492   5.187   4.513  0.3532 -1.5699  1.2783
  529MOL0     H71378   8.724   5.212   4.597  2.1341  1.9608 -0.5555
  529MOL0     H71379   8.929   5.359   4.589  1.4136 -0.2509 -1.7375
  529MOL0     H71380   8.923   5.202   4.660 -1.5251  2.2602  0.0132
  529MOL0     H71381   9.178   5.171   4.559  0.3421  1.1677  0.8935
  529MOL0     H71382   9.147   5.328   4.499 -2.2138 -0.3146 -1.2113
  529MOL0     H71383   9.119   5.418   4.735  0.8982  0.6723 -0.7189
  529MOL0     H71384   9.140   5.251   4.803  1.5048  0.7820  0.6945
  529MOL0     H71385   9.366   5.395   4.635  1.4699 -0.8558  0.3198
  529MOL0     H71386   9.374   5.245   4.727  0.2440 -0.3397 -0.2303
  529MOL0     H71387   9.280   5.516   4.848  0.4836  0.2127  0.8464
  529MOL0     H71388   9.455   5.474   4.825  0.5240 -0.8572 -0.4773
  529MOL0     H71389   9.254   5.309   4.977  1.2291 -2.3533  1.9250
  529MOL0     H71390   9.418   5.266   4.968 -0.3920 -1.1585 -0.1499
  529MOL0     H71391   9.324   5.415   5.176  3.9403 -1.5448  1.3220
  529MOL0     H71392   9.349   5.549   5.065 -2.6792 -0.3403 -0.8393
  529MOL0     H71393   9.591   5.479   5.052 -0.8403  0.7445 -1.1383
  529MOL0     H71394   9.525   5.499   5.223  1.0224 -0.3378 -0.0096
  529MOL0     H71395   8.875   5.171   4.201  0.8075  2.1951 -0.7588
  529MOL0     H71396   8.650   5.165   4.113 -1.9156  4.4839  0.5809
  529MOL0     H71397   8.211   4.941   3.995  0.5338 -2.6841  1.6351
  529MOL0     H71398   7.968   4.910   3.998 -0.8664  2.6146 -0.7825
  529MOL0     H71399   6.365   5.803   4.838  0.4618 -0.8513 -0.8875
  529MOL0     H71400   6.367   5.925   5.046  2.7419 -0.6047 -0.5180
  529MOL0     H71401   6.199   5.816   5.534  0.5503 -0.3448 -1.5322
  529MOL0     H71402   6.128   5.906   5.719  1.5966 -0.8048  1.3208
  529MOL0     H71403   6.278   6.016   5.964  0.0944  0.8295  0.4160
  529MOL0     H71404   6.105   5.987   5.915 -0.8258 -0.2226  1.7772
  529MOL0     H71405   6.204   6.213   6.086  2.3243 -2.9878 -1.9661
  529MOL0     H71406   6.099   6.072   6.128 -1.6492  0.7779 -0.2300
  529MOL0     H71407   5.925   6.149   6.000  0.1069 -1.0786  0.5852
  529MOL0     H71408   6.028   6.280   5.918  1.5411 -0.5247  0.1486
  529MOL0     H71409   5.862   6.361   6.083  0.7320  0.9728 -0.5029
  529MOL0     H71410   5.939   6.268   6.209 -1.6963  0.9523  0.4312
  529MOL0     H71411   6.207   6.608   6.167 -3.5654  1.5980  0.5014
  529MOL0     H71412   6.375   6.256   5.670 -1.5700 -0.2748  2.5002
  529MOL0     H71413   6.584   6.143   5.444 -0.0774  0.0387 -0.7965
  529MOL0     H71414   6.466   6.196   5.323 -0.9488 -0.0334 -0.8641
  529MOL0     H71415   6.493   6.294   5.471  1.1004 -1.1521  1.8241
  530MOL0     O71416   3.230   6.234   2.297  0.2733 -0.0145  0.4382
  530MOL0     C71417   3.307   6.292   2.369 -0.3787 -0.4778  0.8874
  530MOL0     O71418   3.432   6.249   2.403 -0.3462 -0.5488  0.0465
  530MOL0     C71419   3.488   6.147   2.344 -0.5605  0.6470 -0.2451
  530MOL0     C71420   3.571   6.168   2.234  0.2338  0.0641  0.1062
  530MOL0     C71421   3.658   6.063   2.192 -0.8347  0.4436 -0.3607
  530MOL0     C71422   3.649   5.934   2.255  0.3267 -0.1994  0.9090
  530MOL0     O71423   3.737   5.831   2.231  0.4191 -0.6227 -0.6590
  530MOL0     C71424   3.842   5.836   2.129  0.6401 -0.2175  1.0659
  530MOL0     C71425   3.971   5.895   2.190 -0.8170  0.6625 -0.3197
  530MOL0     C71426   4.104   5.864   2.121  0.6104  0.3664 -0.3094
  530MOL0     C71427   4.093   5.922   1.976 -0.4813  0.3095 -0.9163
  530MOL0     C71428   4.228   5.895   1.908 -1.0625 -0.5570  0.8741
  530MOL0     C71429   4.274   5.998   1.806 -0.7717 -0.2338 -0.1558
  530MOL0     C71430   4.431   5.994   1.777  0.1387  0.3726 -0.3663
  530MOL0     C71431   4.481   5.863   1.721 -0.6694 -0.7936 -0.0304
  530MOL0     N71432   4.629   5.865   1.706  0.5170  0.4072 -0.5545
  530MOL0     C71433   4.697   5.865   1.585 -0.2013 -0.6666 -0.3238
  530MOL0     C71434   4.827   5.862   1.617  0.3917  0.5393  0.2788
  530MOL0     C71435   4.945   5.849   1.517  1.8933 -0.2098  0.1477
  530MOL0     C71436   5.033   5.960   1.488 -1.0097 -0.1806  0.6748
  530MOL0     C71437   4.982   6.064   1.387 -0.2430 -0.2303  0.2196
  530MOL0     C71438   4.856   6.143   1.422 -0.0648 -0.1475  0.4059
  530MOL0     O71439   4.873   6.213   1.545 -0.9025  0.6283  0.4504
  530MOL0     C71440   4.764   6.259   1.622  0.3554 -0.1652  0.7411
  530MOL0     C71441   4.744   6.241   1.761 -0.1784 -0.7654  0.6256
  530MOL0     C71442   4.626   6.287   1.830  0.0995 -0.3921  0.1721
  530MOL0     C71443   4.521   6.346   1.755 -0.2012  0.2292 -0.5698
  530MOL0     C71444   4.401   6.401   1.824 -0.0299  0.8781  0.6315
  530MOL0     O71445   4.307   6.450   1.744  0.4022 -0.7764  0.0033
  530MOL0     C71446   4.191   6.494   1.804 -0.1978 -0.0140  0.6453
  530MOL0     C71447   4.170   6.630   1.825  0.5900  0.3645  0.2405
  530MOL0     C71448   4.060   6.668   1.892 -0.0321 -0.1241 -0.0527
  530MOL0     C71449   3.967   6.580   1.955  0.9511 -0.3815 -0.9527
  530MOL0     O71450   3.863   6.629   2.035 -0.3250 -0.3206  0.3588
  530MOL0     C71451   3.748   6.546   2.036  1.0661  0.0734 -0.3740
  530MOL0     C71452   3.617   6.609   2.080 -0.0614  0.2227  0.5284
  530MOL0     C71453   3.607   6.628   2.234 -0.2178  0.5027 -0.7326
  530MOL0     C71454   3.688   6.755   2.281  1.0787  0.1703  0.9627
  530MOL0     C71455   3.673   6.778   2.435  0.4024 -0.4348  0.2217
  530MOL0     C71456   3.764   6.885   2.468 -1.4246  0.2254  0.1343
  530MOL0     C71457   3.789   6.892   2.614  0.4084  0.6981 -0.8683
  530MOL0     C71458   3.851   7.023   2.654  0.5273  0.1288 -0.3554
  530MOL0    Cl71459   3.749   7.167   2.665  0.1112  0.5192 -0.4354
  530MOL0     C71460   3.984   6.446   1.930 -0.6929 -0.5398 -0.8106
  530MOL0     C71461   4.094   6.405   1.848  0.1525  0.2164  0.6256
  530MOL0     O71462   4.404   6.400   1.951 -0.2652 -0.3880  0.4369
  530MOL0     C71463   4.540   6.348   1.612 -0.5539 -0.3531  0.0822
  530MOL0     C71464   4.658   6.317   1.553 -0.1950  0.1436 -0.0414
  530MOL0     N71465   4.841   5.846   1.756 -0.1784 -0.0998  0.1598
  530MOL0     N71466   4.721   5.852   1.806  0.2759  0.3277  0.0850
  530MOL0     C71467   3.564   5.915   2.361 -0.1833 -0.2264  0.5988
  530MOL0     C71468   3.475   6.017   2.402  0.5107 -0.4090 -0.3407
  530MOL0     C71469   3.253   6.421   2.413 -1.1931 -0.4357  0.5460
  530MOL0     C71470   3.149   6.474   2.336 -0.5227  0.0308 -0.5245
  530MOL0     C71471   3.091   6.601   2.371 -0.5010  0.2951  0.3077
  530MOL0     C71472   3.137   6.681   2.472 -0.2430  0.0174  0.3691
  530MOL0     O71473   3.070   6.801   2.493  0.4268 -0.0899 -0.6154
  530MOL0     C71474   3.088   6.871   2.618 -0.0527 -0.9402 -1.0683
  530MOL0     C71475   3.017   6.808   2.735 -0.6080  0.2740 -0.3637
  530MOL0     C71476   2.856   6.810   2.720  0.4541  0.0126 -0.0887
  530MOL0     C71477   2.783   6.749   2.842 -0.6524 -0.1296 -0.6886
  530MOL0     C71478   2.638   6.745   2.817 -0.2535 -0.6674  0.3779
  530MOL0     C71479   2.524   6.730   2.780 -0.9571  0.1638 -0.2167
  530MOL0     C71480   3.237   6.622   2.552  0.2392 -0.6244 -0.8352
  530MOL0     C71481   3.300   6.499   2.526 -0.1234  0.8127  0.5732
  530MOL0     C71482   3.414   6.451   2.614  1.0379  0.3635 -0.6009
  530MOL0     H71483   3.586   6.258   2.174  4.4413 -2.7039 -3.6711
  530MOL0     H71484   3.735   6.077   2.117  0.2315 -0.9702  0.4227
  530MOL0     H71485   3.862   5.733   2.100 -0.7375  0.3830 -2.4672
  530MOL0     H71486   3.807   5.889   2.040  0.6845  0.0572  1.2085
  530MOL0     H71487   3.985   5.871   2.296  1.0723 -1.0050 -0.8954
  530MOL0     H71488   3.943   6.001   2.197 -3.7636  0.1103 -2.2760
  530MOL0     H71489   4.110   5.755   2.110 -0.8995  0.0544  1.3750
  530MOL0     H71490   4.181   5.904   2.187 -3.1063  0.8903  4.2335
  530MOL0     H71491   4.015   5.875   1.916  0.1759 -2.1712  0.0380
  530MOL0     H71492   4.069   6.028   1.986 -1.8190 -0.0598  0.1829
  530MOL0     H71493   4.304   5.900   1.987  0.3391  1.7847 -0.5034
  530MOL0     H71494   4.234   5.799   1.856 -1.5483  0.0350 -0.3261
  530MOL0     H71495   4.219   5.972   1.715  0.2510 -0.7604 -0.6345
  530MOL0     H71496   4.252   6.102   1.835  3.4079  0.7705  0.0061
  530MOL0     H71497   4.488   6.015   1.868  0.2237  2.5729 -0.8713
  530MOL0     H71498   4.462   6.078   1.715  2.5772  0.3572  0.7444
  530MOL0     H71499   4.453   5.794   1.802 -0.9687  0.3390  0.8595
  530MOL0     H71500   4.421   5.844   1.631 -2.2705 -0.6182  0.9505
  530MOL0     H71501   4.649   5.866   1.487  1.9302  1.3060 -1.4563
  530MOL0     H71502   4.996   5.756   1.544  2.0087 -1.0196 -2.6171
  530MOL0     H71503   4.901   5.833   1.419 -0.6666  1.7807  0.8605
  530MOL0     H71504   5.063   6.013   1.579 -0.6133  2.6314 -0.9405
  530MOL0     H71505   5.122   5.919   1.439 -0.8791  1.7579 -0.8777
  530MOL0     H71506   4.957   6.026   1.287 -0.2522 -0.3265  0.2583
  530MOL0     H71507   5.063   6.137   1.375 -1.3997  1.4501  2.0157
  530MOL0     H71508   4.774   6.072   1.410  2.0228 -2.5743 -0.5113
  530MOL0     H71509   4.850   6.218   1.342  1.6400  0.2150  0.5713
  530MOL0     H71510   4.817   6.182   1.816  0.3472  0.5980  1.4320
  530MOL0     H71511   4.620   6.279   1.938  0.8591  1.2013  0.3587
  530MOL0     H71512   4.245   6.705   1.803  1.2618 -0.4057 -0.1267
  530MOL0     H71513   4.048   6.772   1.920 -0.7518 -0.1711 -0.1730
  530MOL0     H71514   3.736   6.522   1.930  1.9126  2.1176 -0.9709
  530MOL0     H71515   3.765   6.457   2.097 -0.8625 -0.5328 -0.6432
  530MOL0     H71516   3.591   6.707   2.038 -0.3254 -0.1212 -0.1232
  530MOL0     H71517   3.529   6.550   2.053  0.2230 -1.1446  2.4032
  530MOL0     H71518   3.503   6.630   2.268 -1.1251 -0.4854 -3.2022
  530MOL0     H71519   3.649   6.543   2.288 -1.2047  0.7633  0.4647
  530MOL0     H71520   3.659   6.836   2.213  0.0858 -1.9440 -1.3029
  530MOL0     H71521   3.795   6.738   2.265  1.0561 -0.2571  1.2449
  530MOL0     H71522   3.697   6.685   2.488  1.4469 -1.0651 -1.2918
  530MOL0     H71523   3.568   6.804   2.451 -1.2288 -1.0262 -6.4461
  530MOL0     H71524   3.866   6.863   2.433 -0.4390  0.4692  2.6257
  530MOL0     H71525   3.724   6.978   2.428  0.4342  0.7808 -0.5650
  530MOL0     H71526   3.841   6.803   2.651 -2.7932 -1.0823 -0.2378
  530MOL0     H71527   3.692   6.885   2.666  0.8873  0.5308  0.0308
  530MOL0     H71528   3.883   7.015   2.758  2.0693  0.9188 -0.7368
  530MOL0     H71529   3.945   7.033   2.599  0.9303 -0.4282  0.2147
  530MOL0     H71530   3.930   6.367   1.981  1.0559 -2.8855 -2.3513
  530MOL0     H71531   4.107   6.299   1.830  1.0082  0.4805 -0.3718
  530MOL0     H71532   4.462   6.398   1.555 -0.7757 -2.3068 -1.4237
  530MOL0     H71533   4.675   6.339   1.448 -0.4072 -0.8890 -0.3076
  530MOL0     H71534   3.559   5.824   2.420 -1.0605 -3.2711 -3.6865
  530MOL0     H71535   3.418   6.003   2.493  2.8214  1.8517  1.6056
  530MOL0     H71536   3.095   6.417   2.261 -1.2089 -1.5455  1.0776
  530MOL0     H71537   2.999   6.629   2.322  0.3275 -0.7617 -1.9969
  530MOL0     H71538   3.043   6.970   2.603  3.0707  0.5104 -1.7402
  530MOL0     H71539   3.189   6.898   2.651 -0.9086  4.7246 -1.9264
  530MOL0     H71540   3.050   6.855   2.828 -0.3263 -0.5289 -0.0495
  530MOL0     H71541   3.050   6.704   2.745 -0.6369 -0.1393 -3.3859
  530MOL0     H71542   2.833   6.747   2.634  1.3660 -1.6468  0.8411
  530MOL0     H71543   2.828   6.915   2.709 -0.1642 -0.2208 -0.7732
  530MOL0     H71544   2.818   6.648   2.864 -1.2382  0.0571  1.2702
  530MOL0     H71545   2.803   6.809   2.932 -1.9893 -0.1696 -0.3444
  530MOL0     H71546   2.424   6.709   2.747 -0.9450  0.6256 -0.5644
  530MOL0     H71547   3.270   6.676   2.640 -0.6043 -2.2984  0.5470
  530MOL0     H71548   3.409   6.496   2.714  0.2359 -0.6295 -0.1767
  530MOL0     H71549   3.413   6.342   2.616  0.1677  0.3682 -0.3696
  530MOL0     H71550   3.510   6.486   2.574  1.2488  1.5389  0.8477
  531MOL0     O71551   4.709   6.491   7.880  0.7780  0.7694 -0.0596
  531MOL0     C71552   4.638   6.531   7.784  0.1977  0.1820  0.1654
  531MOL0     O71553   4.684   6.604   7.681  0.0227  0.3175 -0.0503
  531MOL0     C71554   4.817   6.602   7.651  0.2738  0.2100 -0.4835
  531MOL0     C71555   4.914   6.698   7.688  0.0043 -0.0641 -0.7547
  531MOL0     C71556   5.046   6.694   7.654  0.3476  1.0470  0.1580
  531MOL0     C71557   5.090   6.597   7.557  0.3982 -0.7007 -0.6117
  531MOL0     O71558   5.217   6.583   7.526  0.2397 -0.4176  0.0254
  531MOL0     C71559   5.304   6.706   7.522 -0.9030  0.7960  0.1542
  531MOL0     C71560   5.436   6.633   7.487  0.5136 -0.5552  0.1951
  531MOL0     C71561   5.555   6.731   7.461  0.2714  0.3953 -0.1797
  531MOL0     C71562   5.683   6.639   7.448  0.8722 -0.5726  0.5354
  531MOL0     C71563   5.802   6.722   7.404 -0.2401 -0.5392 -0.5809
  531MOL0     C71564   5.924   6.632   7.385  0.0272  0.5770  0.6032
  531MOL0     C71565   6.049   6.718   7.363 -0.2818  0.1709  0.4418
  531MOL0     C71566   6.124   6.745   7.492  0.8047  0.2989  0.0762
  531MOL0     N71567   6.218   6.640   7.523 -0.1740  0.4849  0.1698
  531MOL0     C71568   6.195   6.547   7.628  0.0018 -0.0427 -0.0956
  531MOL0     C71569   6.301   6.468   7.606 -0.5775  0.9080  0.0672
  531MOL0     C71570   6.335   6.356   7.695 -0.4755  0.0335  0.4097
  531MOL0     C71571   6.380   6.420   7.820 -0.0396 -0.9608 -0.6930
  531MOL0     C71572   6.523   6.465   7.801  0.5161  0.4073  0.2099
  531MOL0     C71573   6.576   6.513   7.946 -0.0783  1.0868  0.9418
  531MOL0     O71574   6.683   6.607   7.912  0.3307  0.1538  0.1641
  531MOL0     C71575   6.800   6.572   7.854 -0.2378  0.2056 -0.9300
  531MOL0     C71576   6.861   6.451   7.872  0.2123  0.2549 -0.1451
  531MOL0     C71577   6.996   6.424   7.821 -0.0180  0.6191  0.4280
  531MOL0     C71578   7.065   6.515   7.748  0.0810 -0.6523 -0.9202
  531MOL0     C71579   7.217   6.508   7.718  0.7926  0.3105  0.2005
  531MOL0     O71580   7.264   6.380   7.707  0.0446  1.3150 -0.3430
  531MOL0     C71581   7.391   6.371   7.657  1.2778  0.9676  0.1702
  531MOL0     C71582   7.502   6.328   7.730 -0.4687 -0.7349 -0.5403
  531MOL0     C71583   7.631   6.308   7.666 -0.3831 -0.4776 -0.5439
  531MOL0     C71584   7.640   6.338   7.531  0.4028 -0.0182 -0.3563
  531MOL0     O71585   7.760   6.332   7.461 -0.1866 -0.0376 -0.4544
  531MOL0     C71586   7.888   6.361   7.531  0.0479  0.8070 -0.2611
  531MOL0     C71587   7.952   6.224   7.570 -0.2999  0.1299  0.3201
  531MOL0     C71588   8.041   6.164   7.456 -0.5819 -0.4127 -0.2997
  531MOL0     C71589   8.122   6.049   7.511 -0.4829  0.7729 -0.0569
  531MOL0     C71590   8.227   5.992   7.410 -0.2469  1.6301  0.7780
  531MOL0     C71591   8.334   5.893   7.453  0.0320 -0.4158  0.3453
  531MOL0     C71592   8.271   5.751   7.476 -0.7450 -0.4940  0.0832
  531MOL0     C71593   8.229   5.722   7.616 -0.8918  0.0825 -0.5844
  531MOL0    Cl71594   8.386   5.664   7.695  0.2151 -0.1632 -0.2660
  531MOL0     C71595   7.521   6.374   7.459  0.4957 -0.0315  0.2459
  531MOL0     C71596   7.397   6.397   7.519 -0.7232 -0.7931  0.0227
  531MOL0     O71597   7.276   6.612   7.698 -0.3379 -0.2959  0.2515
  531MOL0     C71598   6.997   6.635   7.723 -0.6983  0.0989  0.3939
  531MOL0     C71599   6.863   6.659   7.764  0.2282  0.0888 -0.1340
  531MOL0     N71600   6.371   6.511   7.500 -0.3125  0.5680  0.8011
  531MOL0     N71601   6.327   6.613   7.456  0.3727 -0.4420 -0.7482
  531MOL0     C71602   5.002   6.488   7.524  0.8294 -0.7712  0.3282
  531MOL0     C71603   4.868   6.492   7.584 -0.4777  0.3128  0.0214
  531MOL0     C71604   4.487   6.511   7.789 -0.1929  0.4316 -0.5298
  531MOL0     C71605   4.411   6.601   7.711 -0.0134  0.1487  0.2140
  531MOL0     C71606   4.279   6.591   7.701  0.1544 -0.2549  0.6867
  531MOL0     C71607   4.215   6.507   7.789  0.5393  0.1366  0.1796
  531MOL0     O71608   4.075   6.506   7.789 -0.9918 -0.5003  0.5378
  531MOL0     C71609   4.017   6.543   7.914 -0.1756 -0.6606  0.5026
  531MOL0     C71610   3.864   6.577   7.889 -0.3307  0.6109 -0.3842
  531MOL0     C71611   3.823   6.696   7.792  0.4728 -0.1254 -0.3759
  531MOL0     C71612   3.861   6.832   7.844  0.6589 -0.0999 -0.2266
  531MOL0     C71613   3.791   6.934   7.762 -0.4439 -0.3962  1.0115
  531MOL0     C71614   3.747   7.022   7.691  0.3206 -0.3459  0.1783
  531MOL0     C71615   4.277   6.422   7.872  0.1662 -0.2368 -0.4929
  531MOL0     C71616   4.417   6.426   7.885  0.0499 -0.2086  0.6713
  531MOL0     C71617   4.497   6.324   7.968  0.7300 -0.2763 -0.4667
  531MOL0     H71618   4.877   6.781   7.748 -2.6433 -1.6040 -0.0706
  531MOL0     H71619   5.105   6.777   7.691  0.9264  0.5097  0.4730
  531MOL0     H71620   5.279   6.792   7.458 -1.2372 -0.3552 -1.3190
  531MOL0     H71621   5.330   6.733   7.625  0.2778 -2.4194  0.8141
  531MOL0     H71622   5.424   6.590   7.387 -0.8594 -0.7934  0.4475
  531MOL0     H71623   5.455   6.557   7.563  1.1778  1.5437  2.2536
  531MOL0     H71624   5.561   6.804   7.543  1.0052  1.3508 -1.0630
  531MOL0     H71625   5.532   6.783   7.368 -1.7026  1.2917  0.7563
  531MOL0     H71626   5.710   6.601   7.547  0.1352 -1.1226  0.5334
  531MOL0     H71627   5.671   6.550   7.386  0.3315  0.0783 -0.3275
  531MOL0     H71628   5.775   6.770   7.309  2.7002 -0.0567 -1.2744
  531MOL0     H71629   5.826   6.788   7.488  2.5525  0.8828 -2.3096
  531MOL0     H71630   5.934   6.565   7.471 -2.7186 -1.7119 -0.6861
  531MOL0     H71631   5.911   6.576   7.291  1.4936  3.6802 -1.5909
  531MOL0     H71632   6.024   6.805   7.302  0.1966 -1.3442 -2.0654
  531MOL0     H71633   6.120   6.659   7.304 -0.7207  1.3315 -1.3182
  531MOL0     H71634   6.182   6.835   7.474  0.6682 -0.3317 -5.0991
  531MOL0     H71635   6.056   6.759   7.576  0.4720  0.2964 -0.1887
  531MOL0     H71636   6.111   6.561   7.695 -2.8613  0.1544 -3.4291
  531MOL0     H71637   6.247   6.296   7.720  0.3794 -0.9336  1.1895
  531MOL0     H71638   6.405   6.280   7.661 -0.5465  0.6752 -1.2769
  531MOL0     H71639   6.319   6.507   7.846  1.8407  0.3699 -0.4453
  531MOL0     H71640   6.376   6.350   7.904 -0.3456  0.1774  0.2798
  531MOL0     H71641   6.531   6.547   7.728 -0.8932  1.0242  0.7143
  531MOL0     H71642   6.578   6.381   7.758  3.3694  2.8908 -1.4743
  531MOL0     H71643   6.613   6.429   8.005  0.9935 -0.8248 -2.1786
  531MOL0     H71644   6.495   6.555   8.005  0.9541  4.2248  0.3503
  531MOL0     H71645   6.826   6.371   7.937  0.7378  0.1536  0.0204
  531MOL0     H71646   7.048   6.331   7.842  0.4582  0.7681 -0.0667
  531MOL0     H71647   7.488   6.302   7.834 -0.9774  1.0249 -0.1249
  531MOL0     H71648   7.718   6.272   7.719 -2.3138 -1.7887  1.9306
  531MOL0     H71649   7.947   6.422   7.462  0.0791 -1.1076 -2.0338
  531MOL0     H71650   7.882   6.418   7.624  2.5353 -0.0946  0.5342
  531MOL0     H71651   8.013   6.254   7.656 -1.6044 -0.2287  1.3917
  531MOL0     H71652   7.878   6.149   7.597  0.6621 -1.8476 -2.1064
  531MOL0     H71653   7.984   6.127   7.370  0.3420 -0.2988 -0.9817
  531MOL0     H71654   8.101   6.246   7.415  1.9459 -0.2722  3.2838
  531MOL0     H71655   8.056   5.967   7.542  0.1217 -0.0193 -0.8087
  531MOL0     H71656   8.178   6.081   7.599 -1.0528 -0.4536  0.7914
  531MOL0     H71657   8.291   6.070   7.367  0.4481 -0.9220 -3.3041
  531MOL0     H71658   8.179   5.954   7.320  2.5102  2.7260 -1.3275
  531MOL0     H71659   8.407   5.889   7.372 -0.4286  0.3144 -0.1242
  531MOL0     H71660   8.391   5.926   7.540 -0.5886 -0.3659  0.7378
  531MOL0     H71661   8.351   5.680   7.455  1.4837  2.0039 -0.3602
  531MOL0     H71662   8.186   5.730   7.411  0.1043  0.2301 -1.3018
  531MOL0     H71663   8.185   5.811   7.662  1.7037  1.1124  0.0664
  531MOL0     H71664   8.153   5.643   7.628 -1.6642  0.9873  0.7583
  531MOL0     H71665   7.530   6.396   7.353 -0.3163  1.1122  0.3847
  531MOL0     H71666   7.314   6.432   7.458 -1.1821  2.0946  2.0880
  531MOL0     H71667   7.047   6.714   7.669 -2.8939  0.1080 -1.8074
  531MOL0     H71668   6.813   6.754   7.748 -0.2288 -0.3589 -1.5443
  531MOL0     H71669   5.034   6.417   7.449  0.8707  1.2541 -1.6714
  531MOL0     H71670   4.818   6.398   7.562  0.7336 -0.6481  1.2160
  531MOL0     H71671   4.471   6.677   7.661  0.9949  1.0547  2.6425
  531MOL0     H71672   4.230   6.655   7.629 -1.7706 -0.4485  1.7570
  531MOL0     H71673   4.060   6.636   7.953 -0.4620 -0.5757  0.6179
  531MOL0     H71674   4.023   6.468   7.992 -2.2517  0.2918  1.6748
  531MOL0     H71675   3.825   6.604   7.988 -0.1144 -1.8231  0.4240
  531MOL0     H71676   3.797   6.498   7.854  0.0354 -2.0874  4.1773
  531MOL0     H71677   3.713   6.695   7.792  0.3827 -2.7312  2.0623
  531MOL0     H71678   3.863   6.673   7.692  0.9854 -1.3667  0.0938
  531MOL0     H71679   3.843   6.827   7.952  1.5668 -0.5940 -0.0950
  531MOL0     H71680   3.968   6.853   7.834  0.2147  2.3424 -0.4390
  531MOL0     H71681   3.701   7.106   7.643  1.3923  1.1847  1.6773
  531MOL0     H71682   4.223   6.349   7.932  2.0859 -2.0927 -0.9077
  531MOL0     H71683   4.553   6.363   8.053 -0.0276 -0.3736  0.0862
  531MOL0     H71684   4.429   6.251   8.013  1.8209 -0.3304  1.1579
  531MOL0     H71685   4.561   6.260   7.906  2.4461  2.1856 -1.4024
  532MOL0     O71686   0.042   9.536   2.737  0.2623 -0.8013  0.0884
  532MOL0     C71687   0.020   9.542   2.862  1.4439 -0.2205 -0.1710
  532MOL0     O71688  -0.103   9.577   2.916 -0.1605 -0.2275  0.0971
  532MOL0     C71689  -0.200   9.629   2.833  1.0499  0.5480 -0.2082
  532MOL0     C71690  -0.284   9.545   2.761 -0.1710  0.1899  0.0161
  532MOL0     C71691  -0.381   9.588   2.682  0.9170 -0.0779  0.6670
  532MOL0     C71692  -0.402   9.724   2.672  0.2969 -0.5338  0.8506
  532MOL0     O71693  -0.510   9.763   2.595  0.0313 -0.3969 -0.9953
  532MOL0     C71694  -0.557   9.902   2.598 -0.0905  0.3297  0.1644
  532MOL0     C71695  -0.695   9.919   2.532  0.7395  0.5951  0.5611
  532MOL0     C71696  -0.698   9.880   2.382  0.1210  0.0774  0.0843
  532MOL0     C71697  -0.821   9.927   2.306  0.7357  0.3159  1.2324
  532MOL0     C71698  -0.813   9.902   2.155 -0.9666  0.1814 -0.5489
  532MOL0     C71699  -0.826   9.757   2.115 -1.2156 -0.1151 -0.3150
  532MOL0     C71700  -0.710   9.670   2.114 -0.7079 -0.2206  0.4196
  532MOL0     C71701  -0.760   9.518   2.096 -0.3563 -0.7270 -0.2343
  532MOL0     N71702  -0.640   9.444   2.062  0.0558  0.1430 -0.7460
  532MOL0     C71703  -0.594   9.445   1.935 -0.1463 -0.3639 -0.9799
  532MOL0     C71704  -0.478   9.380   1.939  0.9108  0.0043 -0.0401
  532MOL0     C71705  -0.392   9.356   1.824  0.4297 -0.2737  0.0881
  532MOL0     C71706  -0.268   9.446   1.823  0.1979 -0.4053  0.8679
  532MOL0     C71707  -0.151   9.384   1.917 -0.3876 -0.2979  0.2929
  532MOL0     C71708  -0.024   9.475   1.921  0.6756  0.8607  0.6542
  532MOL0     O71709   0.071   9.406   2.002  0.4809  0.2176  0.9381
  532MOL0     C71710   0.180   9.476   2.049  0.8690  0.2145 -0.0642
  532MOL0     C71711   0.253   9.413   2.155  0.7070  1.1540  0.4862
  532MOL0     C71712   0.371   9.476   2.196  0.5353  0.9459  0.4373
  532MOL0     C71713   0.419   9.602   2.150 -0.6695  0.4592 -0.2339
  532MOL0     C71714   0.536   9.660   2.211 -0.0218  0.6160  0.1859
  532MOL0     O71715   0.586   9.777   2.155  0.5833  0.2500 -0.7248
  532MOL0     C71716   0.702   9.829   2.213  0.1739  0.3926  0.4585
  532MOL0     C71717   0.801   9.837   2.118  0.2768  0.6841  0.2000
  532MOL0     C71718   0.927   9.894   2.147 -0.4241  0.8250  0.3148
  532MOL0     C71719   0.952   9.936   2.277 -0.0843  0.1159  0.3305
  532MOL0     O71720   1.078   9.997   2.295  0.2552  0.2623  0.1370
  532MOL0     C71721   1.134   9.969   2.417 -0.3952 -0.4771  0.5509
  532MOL0     C71722   1.279  10.017   2.394  0.4339  0.8270  0.6491
  532MOL0     C71723   1.328  10.063   2.529  0.4971  0.3973 -0.3047
  532MOL0     C71724   1.468  10.103   2.521 -0.5723 -0.6495  0.0213
  532MOL0     C71725   1.514  10.159   2.649 -0.3275 -0.2347  0.3814
  532MOL0     C71726   1.668  10.190   2.663 -0.3991  0.0388 -0.0781
  532MOL0     C71727   1.705  10.306   2.580  0.3566  0.3408  0.5020
  532MOL0     C71728   1.854  10.336   2.597 -0.4739  0.3913  0.2945
  532MOL0    Cl71729   1.939  10.195   2.527 -0.1073  0.4953  0.0120
  532MOL0     C71730   0.854   9.914   2.379 -0.7435 -0.8910  0.7467
  532MOL0     C71731   0.728   9.862   2.345 -0.1473 -0.7781 -0.1745
  532MOL0     O71732   0.577   9.609   2.317 -0.2635  0.3249  1.3190
  532MOL0     C71733   0.337   9.658   2.051 -0.6792 -0.2422  0.1702
  532MOL0     C71734   0.233   9.593   1.989  0.8927  1.0114 -0.0627
  532MOL0     N71735  -0.469   9.337   2.068  0.8056 -0.0822 -0.6848
  532MOL0     N71736  -0.564   9.373   2.145 -0.5512 -0.4179 -0.6734
  532MOL0     C71737  -0.319   9.814   2.733 -0.0021 -0.2175  0.2776
  532MOL0     C71738  -0.219   9.769   2.817 -0.2611  0.6191 -0.1046
  532MOL0     C71739   0.126   9.519   2.959 -0.7747  0.2379  0.6585
  532MOL0     C71740   0.099   9.538   3.095  0.5429  0.1291 -0.3157
  532MOL0     C71741   0.197   9.525   3.190  0.0919  0.5611  0.0767
  532MOL0     C71742   0.330   9.495   3.161  0.0337 -0.4867  0.1096
  532MOL0     O71743   0.411   9.506   3.268  0.1902 -0.0168 -0.1558
  532MOL0     C71744   0.550   9.502   3.253 -0.2087 -0.3335 -0.0203
  532MOL0     C71745   0.622   9.466   3.383 -0.3008 -0.4703  0.4297
  532MOL0     C71746   0.609   9.560   3.506 -0.0710 -0.0615  0.9127
  532MOL0     C71747   0.692   9.515   3.626  0.0605 -0.4577  0.7492
  532MOL0     C71748   0.842   9.517   3.598  0.3377 -0.0266 -0.2886
  532MOL0     C71749   0.955   9.519   3.546  0.2997  1.1925 -0.4391
  532MOL0     C71750   0.357   9.477   3.030  0.1144  0.6441 -0.1522
  532MOL0     C71751   0.262   9.470   2.930  0.5264  0.1602 -0.2424
  532MOL0     C71752   0.314   9.457   2.793 -0.8260 -0.0904  0.4290
  532MOL0     H71753  -0.265   9.438   2.763 -0.2674  0.1577 -0.5804
  532MOL0     H71754  -0.444   9.530   2.615  2.5925 -0.3566 -0.7265
  532MOL0     H71755  -0.569   9.922   2.705 -0.4895 -1.2921  0.4397
  532MOL0     H71756  -0.476   9.961   2.553 -0.0808 -3.2797 -5.4807
  532MOL0     H71757  -0.725  10.024   2.529  0.1488  0.4150 -1.3894
  532MOL0     H71758  -0.771   9.865   2.588 -3.2897  1.1675 -3.7616
  532MOL0     H71759  -0.695   9.771   2.369 -1.1289  0.1438 -0.9700
  532MOL0     H71760  -0.609   9.930   2.343  0.5683  1.0922  2.3059
  532MOL0     H71761  -0.909   9.872   2.340 -0.2340  1.9141  1.4441
  532MOL0     H71762  -0.840  10.034   2.324  0.5980  0.2769  1.3139
  532MOL0     H71763  -0.894   9.959   2.110 -0.1711  3.3367  1.6556
  532MOL0     H71764  -0.719   9.944   2.120 -1.7935  3.1419  0.4880
  532MOL0     H71765  -0.910   9.726   2.179 -2.3585 -0.3395 -1.8483
  532MOL0     H71766  -0.869   9.760   2.015 -1.9065  0.8958 -0.0058
  532MOL0     H71767  -0.637   9.680   2.195  1.7265 -1.5928 -1.4413
  532MOL0     H71768  -0.647   9.696   2.029 -1.4714  1.0267  0.2240
  532MOL0     H71769  -0.798   9.475   2.189 -2.5902  0.9685 -0.2818
  532MOL0     H71770  -0.838   9.518   2.019  0.3284  1.9250 -1.0304
  532MOL0     H71771  -0.645   9.497   1.854 -1.1353  0.6613  0.2562
  532MOL0     H71772  -0.369   9.249   1.817 -0.3831 -0.6654  2.4427
  532MOL0     H71773  -0.443   9.366   1.729  0.3607 -1.2153  0.0203
  532MOL0     H71774  -0.234   9.474   1.723  0.8477 -2.7921  0.3447
  532MOL0     H71775  -0.297   9.545   1.859 -0.0318 -1.1401  2.8326
  532MOL0     H71776  -0.131   9.288   1.869  1.0234  0.4586 -0.7117
  532MOL0     H71777  -0.180   9.364   2.020  1.0787 -0.2794  0.7400
  532MOL0     H71778  -0.055   9.565   1.975  2.5744 -0.4821  4.3527
  532MOL0     H71779   0.008   9.495   1.818 -2.0060 -2.2472 -0.9747
  532MOL0     H71780   0.229   9.322   2.209 -0.7308  0.8717 -0.5679
  532MOL0     H71781   0.434   9.425   2.268 -0.5346 -0.1878  0.5990
  532MOL0     H71782   0.777   9.814   2.015  0.6622  0.0612  0.2448
  532MOL0     H71783   1.000   9.903   2.068 -1.0787 -1.2534 -0.5752
  532MOL0     H71784   1.083  10.031   2.491 -0.6983 -0.7060  0.5336
  532MOL0     H71785   1.131   9.863   2.439 -1.4519 -0.8483 -1.1591
  532MOL0     H71786   1.335   9.929   2.361 -1.7715 -0.0138 -1.1437
  532MOL0     H71787   1.291  10.093   2.316 -0.1959  0.2580 -0.0147
  532MOL0     H71788   1.274  10.147   2.574  0.9575 -0.3301  1.7122
  532MOL0     H71789   1.313   9.983   2.602  3.9386  1.2955  1.6712
  532MOL0     H71790   1.496  10.176   2.444  0.2117 -1.2815 -0.3081
  532MOL0     H71791   1.525  10.019   2.483  0.2391 -0.1599  0.1281
  532MOL0     H71792   1.488  10.081   2.721 -3.3905  0.2984 -0.0223
  532MOL0     H71793   1.459  10.250   2.673 -0.2825 -0.4552  1.3589
  532MOL0     H71794   1.692  10.207   2.769  2.2902 -1.2534 -0.3940
  532MOL0     H71795   1.729  10.103   2.636  0.7354 -0.2656  3.0451
  532MOL0     H71796   1.663  10.402   2.610  0.4043  0.5356 -0.0418
  532MOL0     H71797   1.683  10.288   2.475  2.2949 -1.2947  0.3129
  532MOL0     H71798   1.868  10.428   2.539  0.3006  0.9254  1.3005
  532MOL0     H71799   1.874  10.344   2.704 -4.2291  0.3464  1.1660
  532MOL0     H71800   0.879   9.938   2.482  0.3553 -0.6070  0.4213
  532MOL0     H71801   0.648   9.848   2.417  1.0548  1.7415  1.7982
  532MOL0     H71802   0.352   9.761   2.020 -2.3980  0.0186  0.1422
  532MOL0     H71803   0.176   9.647   1.914  1.5955 -1.4576 -2.5554
  532MOL0     H71804  -0.333   9.922   2.737 -2.3025 -0.4980  1.6061
  532MOL0     H71805  -0.151   9.828   2.878 -1.4750  1.0952  0.8364
  532MOL0     H71806   0.000   9.548   3.138  0.6866 -0.9219  0.3088
  532MOL0     H71807   0.170   9.548   3.293  3.4935  1.2481  0.9388
  532MOL0     H71808   0.599   9.595   3.223  0.0138 -1.1529 -2.4258
  532MOL0     H71809   0.574   9.433   3.172 -0.0199  0.6832 -0.8580
  532MOL0     H71810   0.726   9.449   3.352  0.0160 -0.4220  1.4506
  532MOL0     H71811   0.579   9.374   3.423 -0.7706  0.3985  1.9765
  532MOL0     H71812   0.504   9.563   3.536 -1.6141  0.8949 -3.8313
  532MOL0     H71813   0.637   9.658   3.467 -1.1721 -1.0828 -2.8422
  532MOL0     H71814   0.673   9.575   3.715  0.8090 -0.1585  0.7147
  532MOL0     H71815   0.673   9.409   3.644  0.4310 -0.7583 -0.5238
  532MOL0     H71816   1.049   9.522   3.495  0.5354 -1.0293 -0.2497
  532MOL0     H71817   0.460   9.464   2.998  0.4466  4.1014 -0.8415
  532MOL0     H71818   0.344   9.554   2.754 -2.3736  0.4964  0.6141
  532MOL0     H71819   0.412   9.408   2.792 -0.5475  0.2413  3.4331
  532MOL0     H71820   0.242   9.412   2.723 -2.0229  1.0957  0.8530
  533MOL0     O71821   4.463  10.067  10.324 -0.8674 -0.6418  0.2234
  533MOL0     C71822   4.424   9.969  10.384 -0.3368  0.7427 -0.5399
  533MOL0     O71823   4.493   9.855  10.407 -0.5740 -0.9108 -0.5615
  533MOL0     C71824   4.619   9.849  10.372  0.3471  0.2886  0.9706
  533MOL0     C71825   4.653   9.829  10.233  0.1155  0.1963 -0.2616
  533MOL0     C71826   4.784   9.836  10.184  0.2416 -0.2495 -0.0115
  533MOL0     C71827   4.888   9.877  10.270 -0.3144 -0.3604  0.3117
  533MOL0     O71828   5.019   9.889  10.225 -0.1256  0.6266 -0.5841
  533MOL0     C71829   5.062   9.811  10.107 -0.8774 -0.7964  0.1758
  533MOL0     C71830   5.213   9.800  10.116  0.3683  0.1211 -0.3844
  533MOL0     C71831   5.265   9.759   9.983 -0.4136  0.2393  0.0546
  533MOL0     C71832   5.415   9.759   9.992  0.6287 -0.2988 -1.0640
  533MOL0     C71833   5.477   9.724   9.858  0.9783 -0.4714 -0.0740
  533MOL0     C71834   5.589   9.629   9.877 -0.0640  1.1889 -0.8818
  533MOL0     C71835   5.660   9.581   9.751  0.1376 -0.0639  0.9785
  533MOL0     C71836   5.756   9.681   9.690  1.5659 -0.7680 -0.4395
  533MOL0     N71837   5.819   9.646   9.564 -0.5606  0.2468 -0.2992
  533MOL0     C71838   5.900   9.534   9.538  0.0460 -0.1447  0.4213
  533MOL0     C71839   5.938   9.552   9.410 -0.3134 -0.0543  0.3309
  533MOL0     C71840   6.005   9.456   9.312  0.6202  0.0532  0.1409
  533MOL0     C71841   6.144   9.509   9.270 -0.5452  0.8797  0.1629
  533MOL0     C71842   6.187   9.426   9.145 -0.8270 -0.1255 -0.1014
  533MOL0     C71843   6.341   9.439   9.123  0.8048 -0.6116  0.9404
  533MOL0     O71844   6.413   9.394   9.236  0.3951  0.4113  0.1107
  533MOL0     C71845   6.554   9.412   9.237 -0.0173  0.1136 -0.8448
  533MOL0     C71846   6.623   9.415   9.360 -0.3940 -0.8621 -0.3909
  533MOL0     C71847   6.768   9.425   9.357 -0.1567  0.1214 -0.4841
  533MOL0     C71848   6.837   9.443   9.240 -0.4519 -0.1325 -0.2105
  533MOL0     C71849   6.984   9.453   9.227  0.4459 -1.0846 -0.6481
  533MOL0     O71850   7.036   9.488   9.102  1.2903  0.5374 -0.1449
  533MOL0     C71851   7.163   9.520   9.070 -0.5224  0.2534 -0.4423
  533MOL0     C71852   7.219   9.442   8.969 -0.4838  0.7815 -0.0085
  533MOL0     C71853   7.350   9.467   8.933 -0.8917  0.3211  0.1661
  533MOL0     C71854   7.441   9.551   9.004 -0.1556  0.1520  0.1145
  533MOL0     O71855   7.577   9.548   8.972 -0.0012  0.2579  0.2427
  533MOL0     C71856   7.685   9.600   9.054  0.1751 -0.4081 -0.8141
  533MOL0     C71857   7.807   9.592   8.969  0.2074 -0.8603 -0.8129
  533MOL0     C71858   7.848   9.462   8.914  0.3018  0.4085 -1.1706
  533MOL0     C71859   7.964   9.489   8.806 -0.4431  0.0254 -0.1925
  533MOL0     C71860   7.988   9.356   8.732 -0.3164  0.4990 -0.6524
  533MOL0     C71861   8.125   9.362   8.654 -0.8095  0.1125 -0.3131
  533MOL0     C71862   8.142   9.238   8.567 -0.1267  0.1395 -1.4728
  533MOL0     C71863   8.290   9.226   8.522  0.2696  0.0083 -0.3848
  533MOL0    Cl71864   8.306   9.365   8.408  0.0464 -0.8078  0.1178
  533MOL0     C71865   7.391   9.619   9.114 -0.0825 -0.5105  0.2625
  533MOL0     C71866   7.250   9.607   9.139 -0.2671  0.2498  0.1009
  533MOL0     O71867   7.054   9.439   9.329  0.0920  0.1643  0.4173
  533MOL0     C71868   6.760   9.452   9.116 -0.9160  0.3754  0.7127
  533MOL0     C71869   6.624   9.443   9.120 -1.2089 -0.1395  0.6511
  533MOL0     N71870   5.890   9.666   9.363 -0.2415 -0.6371 -0.3727
  533MOL0     N71871   5.818   9.724   9.456 -0.0899 -0.5804  0.1108
  533MOL0     C71872   4.851   9.913  10.402  0.1122 -0.8219 -0.2540
  533MOL0     C71873   4.727   9.895  10.453 -0.1649  0.3810  0.4833
  533MOL0     C71874   4.292   9.976  10.451  0.4206 -0.7552  0.0018
  533MOL0     C71875   4.271   9.904  10.575  0.2945  0.6533 -1.0864
  533MOL0     C71876   4.142   9.917  10.637 -0.1487 -0.4135  0.4615
  533MOL0     C71877   4.037   9.998  10.587  0.4039  0.5372 -0.5367
  533MOL0     O71878   3.902  10.010  10.627  0.2365 -0.4455  0.2771
  533MOL0     C71879   3.862   9.950  10.746  0.5649 -0.0792 -0.3296
  533MOL0     C71880   3.726   9.991  10.783 -0.2459  0.0348  1.2041
  533MOL0     C71881   3.698   9.957  10.925  1.0330 -0.9115 -0.1853
  533MOL0     C71882   3.562  10.016  10.977 -0.8821 -0.7705  0.0934
  533MOL0     C71883   3.444   9.959  10.909 -0.3277 -0.7289 -0.0694
  533MOL0     C71884   3.361   9.893  10.862 -0.5194  0.5672 -0.3226
  533MOL0     C71885   4.074  10.074  10.481 -0.4458  1.0671 -0.1367
  533MOL0     C71886   4.186  10.062  10.407 -0.4049 -0.5011  0.9553
  533MOL0     C71887   4.197  10.155  10.296 -0.0417  0.1819  1.0012
  533MOL0     H71888   4.572   9.799  10.166  0.2763 -1.1541  0.1262
  533MOL0     H71889   4.799   9.824  10.077 -2.0897 -5.1740 -0.0841
  533MOL0     H71890   5.021   9.710  10.111 -0.6119 -0.9241 -0.2193
  533MOL0     H71891   5.041   9.874  10.020  0.1463  1.1088  1.2347
  533MOL0     H71892   5.229   9.720  10.188  0.8941 -0.0706 -0.7097
  533MOL0     H71893   5.253   9.896  10.152  0.2598 -0.0126  0.0993
  533MOL0     H71894   5.233   9.838   9.914  1.4022  1.9766  1.0943
  533MOL0     H71895   5.221   9.663   9.953  1.1338 -1.4330  2.7442
  533MOL0     H71896   5.455   9.856  10.024 -1.6077 -0.1114  1.4670
  533MOL0     H71897   5.450   9.691  10.070 -0.7103  0.9415  0.6941
  533MOL0     H71898   5.399   9.678   9.797  3.1528 -1.7673 -2.0537
  533MOL0     H71899   5.513   9.812   9.802 -1.9946  0.7335 -0.3001
  533MOL0     H71900   5.666   9.672   9.941 -0.0009  2.1533 -1.5857
  533MOL0     H71901   5.553   9.535   9.920 -1.4127  1.7205 -0.8254
  533MOL0     H71902   5.581   9.558   9.678 -1.5692  5.6909  0.5761
  533MOL0     H71903   5.723   9.494   9.770  1.8165  0.2237 -2.4133
  533MOL0     H71904   5.712   9.778   9.667  0.4120 -1.8918 -3.4039
  533MOL0     H71905   5.834   9.680   9.766  2.4519 -2.0213 -1.3235
  533MOL0     H71906   5.914   9.441   9.593 -0.8490 -0.6122 -0.1192
  533MOL0     H71907   6.020   9.357   9.357  0.5707  1.5905  3.9245
  533MOL0     H71908   5.942   9.459   9.222  1.0605 -1.0228 -0.2222
  533MOL0     H71909   6.153   9.616   9.249  1.6222  1.5023  3.4532
  533MOL0     H71910   6.215   9.490   9.351  2.9509 -0.4678 -2.9209
  533MOL0     H71911   6.140   9.471   9.057  2.6714  2.2938 -0.9449
  533MOL0     H71912   6.167   9.319   9.158  1.0517 -0.3171  1.6483
  533MOL0     H71913   6.357   9.547   9.115 -1.7333 -0.2491 -0.2790
  533MOL0     H71914   6.371   9.390   9.030 -4.2395 -3.0290  0.2197
  533MOL0     H71915   6.572   9.414   9.455  0.4883  0.9851  0.1434
  533MOL0     H71916   6.821   9.426   9.451  3.1494  0.6940 -2.2054
  533MOL0     H71917   7.158   9.361   8.929  1.1276 -0.9738  0.9005
  533MOL0     H71918   7.400   9.406   8.859 -2.4643 -0.4089 -0.3195
  533MOL0     H71919   7.663   9.702   9.087  0.3442 -0.5392 -0.2803
  533MOL0     H71920   7.700   9.533   9.140 -0.5099 -0.8274 -1.0126
  533MOL0     H71921   7.794   9.661   8.885  0.8083  1.1098  0.6185
  533MOL0     H71922   7.896   9.615   9.029 -0.4995 -0.3818  0.0817
  533MOL0     H71923   7.884   9.396   8.993  1.8005 -1.5626 -3.3684
  533MOL0     H71924   7.772   9.412   8.853 -1.7632  3.2503 -1.0912
  533MOL0     H71925   8.047   9.534   8.860 -1.4524 -0.1833  1.5954
  533MOL0     H71926   7.929   9.559   8.729 -1.6370 -0.1090  0.2112
  533MOL0     H71927   7.904   9.331   8.666 -2.0739 -3.3040  2.6494
  533MOL0     H71928   7.997   9.275   8.804 -1.3435 -0.0144 -1.0825
  533MOL0     H71929   8.110   9.449   8.588 -1.7737 -0.5190 -0.9564
  533MOL0     H71930   8.211   9.374   8.720 -1.4279 -0.2937  0.5883
  533MOL0     H71931   8.073   9.245   8.482 -1.3602  0.8107 -0.4649
  533MOL0     H71932   8.120   9.153   8.633  1.5753  1.8281  1.4877
  533MOL0     H71933   8.354   9.236   8.610 -2.4162 -1.2528  1.8835
  533MOL0     H71934   8.312   9.132   8.472 -2.8392  0.2194 -2.4305
  533MOL0     H71935   7.458   9.693   9.158 -0.5439  0.5401 -0.7533
  533MOL0     H71936   7.216   9.644   9.235  1.5861 -1.2844  1.4248
  533MOL0     H71937   6.811   9.475   9.022  0.7989 -1.4716  1.1195
  533MOL0     H71938   6.584   9.456   9.020 -1.2602  1.9655  0.8997
  533MOL0     H71939   4.930   9.935  10.473 -0.3298  1.3788 -0.3701
  533MOL0     H71940   4.723   9.894  10.562 -1.6813 -2.6191  0.4995
  533MOL0     H71941   4.344   9.836  10.616 -0.6549  0.3518  0.1446
  533MOL0     H71942   4.118   9.860  10.726  0.4808  1.4967  1.9082
  533MOL0     H71943   3.923   9.995  10.825 -0.5635  0.4791  0.2450
  533MOL0     H71944   3.876   9.842  10.741  3.1729  0.1485  0.6054
  533MOL0     H71945   3.664   9.940  10.708  0.3786  0.6584  0.2295
  533MOL0     H71946   3.719  10.097  10.758 -2.4334 -0.2135  0.5449
  533MOL0     H71947   3.767  10.013  10.989 -3.7052  2.0529  3.0015
  533MOL0     H71948   3.700   9.853  10.960 -0.1664 -0.6157  0.8793
  533MOL0     H71949   3.552  10.006  11.085  3.1836 -0.8008  0.6201
  533MOL0     H71950   3.570  10.122  10.953  2.9457 -1.1166 -0.7949
  533MOL0     H71951   3.295   9.840  10.795  1.1250 -3.9011  1.1917
  533MOL0     H71952   3.996  10.139  10.443 -0.7332  0.6603 -0.2529
  533MOL0     H71953   4.106  10.198  10.253 -1.6271 -1.9884  2.0001
  533MOL0     H71954   4.255  10.239  10.334  2.7580 -0.2586 -1.9197
  533MOL0     H71955   4.243  10.105  10.211 -0.4616 -0.2434  1.0194
  534MOL0     O71956   3.412   3.542   4.464 -0.7744  0.0921  0.1497
  534MOL0     C71957   3.356   3.472   4.380 -0.4968  0.0276  0.2575
  534MOL0     O71958   3.422   3.391   4.286 -0.1560 -0.1938  0.2399
  534MOL0     C71959   3.554   3.371   4.297  0.3189  0.7237  0.5010
  534MOL0     C71960   3.642   3.466   4.261  0.1305 -0.0276 -0.5931
  534MOL0     C71961   3.778   3.447   4.262  0.3033 -1.1978  0.3797
  534MOL0     C71962   3.834   3.332   4.325  0.2503  0.5248 -0.7667
  534MOL0     O71963   3.961   3.316   4.329  0.2675  0.9793 -0.1744
  534MOL0     C71964   4.013   3.242   4.439  0.6380 -0.2892  1.0756
  534MOL0     C71965   4.168   3.242   4.434 -0.1113  0.4646 -0.2471
  534MOL0     C71966   4.219   3.384   4.425 -1.2376 -0.2831  0.5185
  534MOL0     C71967   4.375   3.389   4.396  0.5988  0.5023 -0.3146
  534MOL0     C71968   4.452   3.332   4.515  1.1645 -0.4002  0.1458
  534MOL0     C71969   4.591   3.400   4.518  0.0249  1.2524 -0.3498
  534MOL0     C71970   4.675   3.366   4.401  0.2760 -0.1090  0.5144
  534MOL0     C71971   4.820   3.410   4.416  0.2350  0.5462  0.5784
  534MOL0     N71972   4.841   3.561   4.426 -0.6124  0.1990 -0.1100
  534MOL0     C71973   4.914   3.638   4.336 -0.2591 -0.0917  0.0261
  534MOL0     C71974   4.915   3.764   4.383 -0.7258  0.0345 -0.7692
  534MOL0     C71975   4.982   3.886   4.328  0.6002  0.2683  0.5337
  534MOL0     C71976   5.120   3.903   4.379 -0.3616 -0.6875  0.0147
  534MOL0     C71977   5.178   4.046   4.348  0.0769 -0.0090  0.5566
  534MOL0     C71978   5.313   4.048   4.408 -0.4976 -0.7206  0.4014
  534MOL0     O71979   5.365   4.174   4.371  0.6848 -0.2257  0.4649
  534MOL0     C71980   5.498   4.185   4.389  0.1293  0.7390  0.0583
  534MOL0     C71981   5.565   4.155   4.508  0.2862  0.2464 -0.3205
  534MOL0     C71982   5.705   4.152   4.505  0.1691 -0.3144 -0.1488
  534MOL0     C71983   5.782   4.175   4.391 -0.0819 -0.2151 -0.2646
  534MOL0     C71984   5.931   4.154   4.384  0.1451 -0.7907 -0.5866
  534MOL0     O71985   5.993   4.173   4.265 -0.0216 -0.4964  0.2677
  534MOL0     C71986   6.129   4.170   4.240  0.4797 -0.4366  0.1289
  534MOL0     C71987   6.162   4.188   4.105  0.1461  0.3446  0.5567
  534MOL0     C71988   6.296   4.190   4.062  0.1960  0.2190 -0.1661
  534MOL0     C71989   6.397   4.179   4.153 -0.8929  0.7990 -0.9932
  534MOL0     O71990   6.527   4.195   4.125  0.1189  0.5147  0.5029
  534MOL0     C71991   6.581   4.124   4.011  0.9796  0.8583  0.2396
  534MOL0     C71992   6.731   4.152   3.982  1.0515  0.3295  0.4398
  534MOL0     C71993   6.815   4.111   4.104 -0.1168 -0.9014  0.1200
  534MOL0     C71994   6.965   4.158   4.109  0.8994  0.0945 -0.3235
  534MOL0     C71995   7.006   4.132   4.254  0.8992  1.1436 -0.3904
  534MOL0     C71996   7.152   4.176   4.273  0.6610 -0.2254 -0.5969
  534MOL0     C71997   7.221   4.092   4.373  0.8210  0.3643  0.1585
  534MOL0     C71998   7.217   4.142   4.519 -0.5958 -0.0262  0.9036
  534MOL0    Cl71999   7.051   4.174   4.565 -0.5149  0.2500  0.0991
  534MOL0     C72000   6.370   4.146   4.291  0.7358 -0.3991 -0.1373
  534MOL0     C72001   6.231   4.142   4.330 -0.4812 -1.0591 -0.1196
  534MOL0     O72002   5.984   4.110   4.485 -0.2664  0.6237  0.2169
  534MOL0     C72003   5.711   4.203   4.268 -0.6049 -0.4636  0.4772
  534MOL0     C72004   5.564   4.205   4.274 -0.9353  0.2758 -0.4798
  534MOL0     N72005   4.838   3.759   4.500  0.1772 -0.5517  0.3119
  534MOL0     N72006   4.796   3.644   4.521  0.2852  0.5395 -0.4055
  534MOL0     C72007   3.746   3.242   4.378  0.2264  0.6530 -0.0993
  534MOL0     C72008   3.608   3.258   4.355 -0.8764  0.4499  0.1373
  534MOL0     C72009   3.212   3.471   4.370 -0.6475  0.0514  0.3758
  534MOL0     C72010   3.154   3.436   4.246 -0.0409 -0.3403  0.2703
  534MOL0     C72011   3.018   3.442   4.228  0.4159  0.7593  0.1645
  534MOL0     C72012   2.932   3.480   4.327 -0.0125  0.4249  0.3601
  534MOL0     O72013   2.792   3.486   4.315 -0.9943  0.5249 -0.0806
  534MOL0     C72014   2.747   3.535   4.191  0.0389 -0.1078 -0.1371
  534MOL0     C72015   2.605   3.592   4.198  0.1225 -0.5309 -0.2163
  534MOL0     C72016   2.499   3.490   4.247  0.0319  0.8165 -0.7063
  534MOL0     C72017   2.353   3.523   4.209  0.4748  0.1249  0.0958
  534MOL0     C72018   2.323   3.662   4.230 -0.1854  0.2286 -0.7503
  534MOL0     C72019   2.284   3.777   4.246 -0.7679 -0.0824  0.1138
  534MOL0     C72020   2.991   3.533   4.443 -0.1099  0.6647 -0.5722
  534MOL0     C72021   3.126   3.515   4.469 -0.8602 -0.7879  0.4566
  534MOL0     C72022   3.162   3.556   4.615 -0.6010 -0.1731  0.5770
  534MOL0     H72023   3.598   3.553   4.213 -1.8826 -0.6235  0.1062
  534MOL0     H72024   3.835   3.534   4.229 -1.8802  0.0585 -0.2975
  534MOL0     H72025   3.968   3.287   4.529 -0.3608  0.1893  0.3559
  534MOL0     H72026   3.977   3.139   4.428 -1.1554  0.5463 -2.3192
  534MOL0     H72027   4.207   3.183   4.351  1.7135 -0.1881  0.9919
  534MOL0     H72028   4.203   3.195   4.527  2.0630 -0.2016 -1.3359
  534MOL0     H72029   4.202   3.433   4.521  2.2514  1.9203  0.1876
  534MOL0     H72030   4.164   3.443   4.351 -2.1505 -1.7323  0.0091
  534MOL0     H72031   4.396   3.335   4.303  0.0685  1.6112 -1.1047
  534MOL0     H72032   4.411   3.491   4.378  2.5093 -0.2832 -1.1618
  534MOL0     H72033   4.393   3.363   4.601 -3.1716 -2.2641 -1.8187
  534MOL0     H72034   4.463   3.224   4.501  1.7745 -0.2998 -0.1661
  534MOL0     H72035   4.581   3.508   4.529  1.4298  1.2229  1.5939
  534MOL0     H72036   4.627   3.361   4.613  1.1487 -0.4811 -1.4380
  534MOL0     H72037   4.637   3.426   4.317 -0.6699 -0.5337  0.6237
  534MOL0     H72038   4.662   3.260   4.378 -2.5535  0.0353  1.0348
  534MOL0     H72039   4.875   3.361   4.497  0.7336  1.9910  1.1602
  534MOL0     H72040   4.865   3.375   4.323  0.3898  0.4410  0.6927
  534MOL0     H72041   4.962   3.608   4.243 -1.3963  2.2139 -1.3827
  534MOL0     H72042   4.976   3.879   4.219  2.1083 -1.2711  0.5173
  534MOL0     H72043   4.925   3.974   4.360  2.0028  1.9154 -1.2177
  534MOL0     H72044   5.109   3.886   4.486  3.2680 -1.4722  0.3964
  534MOL0     H72045   5.191   3.823   4.355  1.4729  0.6347  0.7379
  534MOL0     H72046   5.109   4.120   4.389 -2.7764 -2.1978 -0.0249
  534MOL0     H72047   5.184   4.062   4.239 -1.7189 -2.1791  0.0746
  534MOL0     H72048   5.375   3.962   4.381  0.1265 -0.5201  1.1393
  534MOL0     H72049   5.296   4.052   4.516  0.5093  2.2041  0.5381
  534MOL0     H72050   5.509   4.140   4.599 -0.6400  1.1144 -0.7208
  534MOL0     H72051   5.764   4.131   4.594 -3.4756 -1.7994  2.1382
  534MOL0     H72052   6.077   4.204   4.040 -3.3075  0.5913  4.6568
  534MOL0     H72053   6.318   4.207   3.958 -1.7615 -1.6735 -0.9729
  534MOL0     H72054   6.570   4.017   4.029  0.6987  0.3335 -2.5450
  534MOL0     H72055   6.523   4.136   3.919 -1.1143  0.2075  1.4315
  534MOL0     H72056   6.762   4.088   3.899 -0.7007 -4.6992  3.2017
  534MOL0     H72057   6.732   4.258   3.958 -2.7870  0.3138 -0.4387
  534MOL0     H72058   6.766   4.139   4.198 -0.5296 -2.5875  0.4507
  534MOL0     H72059   6.817   4.001   4.109 -0.8000 -1.1024 -2.5155
  534MOL0     H72060   6.981   4.264   4.085  2.9550  0.2461  1.3754
  534MOL0     H72061   7.029   4.105   4.038  0.2686 -1.8203  0.4792
  534MOL0     H72062   6.998   4.023   4.268 -4.0843  1.4733  1.2644
  534MOL0     H72063   6.933   4.176   4.322  0.4618 -0.1468  0.0070
  534MOL0     H72064   7.201   4.178   4.175 -2.0110  3.4192 -2.0921
  534MOL0     H72065   7.154   4.281   4.301  0.8038 -0.0080 -1.4025
  534MOL0     H72066   7.328   4.097   4.348  0.2545  2.4516 -2.2860
  534MOL0     H72067   7.178   3.991   4.371 -0.4134  0.7831 -3.5491
  534MOL0     H72068   7.277   4.075   4.582  0.7095 -1.0219 -1.2891
  534MOL0     H72069   7.262   4.241   4.522 -0.3513 -0.1223  0.5073
  534MOL0     H72070   6.451   4.145   4.363  0.5663  0.4873  0.0793
  534MOL0     H72071   6.192   4.099   4.422 -4.1548 -1.7073 -1.8005
  534MOL0     H72072   5.751   4.224   4.169 -2.6303 -0.2772 -0.3406
  534MOL0     H72073   5.506   4.231   4.185  0.5678 -1.8888 -2.2140
  534MOL0     H72074   3.785   3.148   4.415 -1.1062  0.3976  0.7203
  534MOL0     H72075   3.543   3.174   4.378 -1.4762  0.7524 -0.4389
  534MOL0     H72076   3.212   3.410   4.158 -0.2646 -0.5482  0.1842
  534MOL0     H72077   2.971   3.402   4.139 -1.5713  0.0666  1.4577
  534MOL0     H72078   2.735   3.446   4.129 -3.5669 -0.4987  0.8846
  534MOL0     H72079   2.813   3.608   4.142 -1.8149  1.3463 -0.5874
  534MOL0     H72080   2.574   3.639   4.105  0.9346  0.2324 -0.1183
  534MOL0     H72081   2.617   3.678   4.264  0.1569 -1.2993  0.8126
  534MOL0     H72082   2.511   3.493   4.356  1.3598  0.9192 -0.8422
  534MOL0     H72083   2.534   3.389   4.220 -2.5301 -0.2828 -0.2022
  534MOL0     H72084   2.348   3.503   4.102  1.1621  2.1654 -0.3544
  534MOL0     H72085   2.286   3.447   4.252 -1.1796  2.3474  1.6893
  534MOL0     H72086   2.245   3.874   4.270  1.0840  1.4755 -2.6084
  534MOL0     H72087   2.925   3.584   4.514 -0.3288 -2.0378  1.3132
  534MOL0     H72088   3.102   3.639   4.653  0.2907  1.1409 -0.7922
  534MOL0     H72089   3.153   3.463   4.672 -0.0547 -0.2427  0.5573
  534MOL0     H72090   3.264   3.592   4.634 -0.2250 -1.9920  2.4344
  535MOL0     O72091   4.944   7.146  11.099 -0.6135  0.1305 -0.0012
  535MOL0     C72092   4.897   7.122  11.211 -0.1683  0.5159  0.7472
  535MOL0     O72093   4.945   7.169  11.326 -0.2025  0.0731 -0.5182
  535MOL0     C72094   5.053   7.253  11.332 -0.4180  0.4844  0.0799
  535MOL0     C72095   5.157   7.221  11.413 -0.2848 -0.6252  0.4935
  535MOL0     C72096   5.274   7.314  11.422 -0.2250  0.9708  0.5846
  535MOL0     C72097   5.271   7.441  11.356 -0.2239  0.4379  0.0516
  535MOL0     O72098   5.376   7.530  11.362 -0.2492 -0.1832  0.4317
  535MOL0     C72099   5.505   7.471  11.369 -0.1271 -0.9805  0.9968
  535MOL0     C72100   5.604   7.573  11.311 -0.1782  0.5357  0.2952
  535MOL0     C72101   5.619   7.692  11.402  0.1866 -0.7343  0.4503
  535MOL0     C72102   5.732   7.685  11.493 -0.0790 -0.0198  0.3217
  535MOL0     C72103   5.737   7.819  11.573  0.6043 -0.3217  0.4780
  535MOL0     C72104   5.781   7.794  11.722  0.1407 -0.0107 -0.2799
  535MOL0     C72105   5.919   7.725  11.723 -0.1625 -0.2050  0.0342
  535MOL0     C72106   6.029   7.811  11.668 -0.4431 -0.3592 -0.0249
  535MOL0     N72107   6.164   7.745  11.693 -0.1735  0.1009 -0.0973
  535MOL0     C72108   6.253   7.754  11.797  0.7500  0.2012 -0.1121
  535MOL0     C72109   6.341   7.651  11.783 -0.2893  0.1846  0.2354
  535MOL0     C72110   6.465   7.617  11.853  1.4682  1.4152  0.8170
  535MOL0     C72111   6.569   7.570  11.765  0.5102  0.4010 -0.8392
  535MOL0     C72112   6.708   7.590  11.826 -0.6936 -0.1616  1.4826
  535MOL0     C72113   6.762   7.459  11.884 -0.2697 -0.3540 -0.1882
  535MOL0     O72114   6.899   7.487  11.935  0.7026  0.1011 -0.3410
  535MOL0     C72115   7.009   7.472  11.865  0.6599 -0.8217 -0.8406
  535MOL0     C72116   7.128   7.497  11.926  0.4011  0.1606 -0.0213
  535MOL0     C72117   7.249   7.498  11.858 -0.4355  0.2361  0.7987
  535MOL0     C72118   7.252   7.474  11.718  0.0241 -0.2864 -0.6519
  535MOL0     C72119   7.373   7.490  11.638  0.6096  0.0197  0.1445
  535MOL0     O72120   7.360   7.472  11.498 -0.2229  0.0487  0.4154
  535MOL0     C72121   7.465   7.501  11.419 -0.4359 -0.4212 -0.8363
  535MOL0     C72122   7.499   7.636  11.394 -0.3281  0.5665  1.0311
  535MOL0     C72123   7.608   7.664  11.311 -0.0924 -0.2755 -0.0347
  535MOL0     C72124   7.677   7.562  11.243 -0.1218 -1.0162 -0.5836
  535MOL0     O72125   7.790   7.587  11.171  0.4443 -0.0791 -0.1455
  535MOL0     C72126   7.768   7.691  11.076  0.1385 -0.1884 -0.0136
  535MOL0     C72127   7.908   7.744  11.039  0.4750 -0.0764 -0.0463
  535MOL0     C72128   7.887   7.848  10.927 -0.0610  0.7330  0.7321
  535MOL0     C72129   7.891   7.984  10.989 -0.7863 -0.1830  0.8749
  535MOL0     C72130   7.833   8.085  10.885  0.3932  1.1454  0.3081
  535MOL0     C72131   7.678   8.069  10.855  0.0212  0.2728 -0.1557
  535MOL0     C72132   7.597   8.204  10.879 -0.4025 -0.1295 -0.1901
  535MOL0     C72133   7.450   8.171  10.895 -0.7726 -0.0316  0.2178
  535MOL0    Cl72134   7.382   8.089  10.753  0.2623 -0.0431 -0.0610
  535MOL0     C72135   7.644   7.428  11.276 -0.4068  0.7746 -0.8600
  535MOL0     C72136   7.541   7.394  11.364 -0.1640 -0.7187 -0.0353
  535MOL0     O72137   7.472   7.539  11.698  0.2217  0.5206  0.6032
  535MOL0     C72138   7.128   7.433  11.658  0.0855 -0.7262 -0.1796
  535MOL0     C72139   7.015   7.428  11.731  0.0020 -0.3744  0.1896
  535MOL0     N72140   6.293   7.565  11.686 -0.7106 -0.1476 -0.2730
  535MOL0     N72141   6.191   7.626  11.627 -0.7131 -0.2659  0.5881
  535MOL0     C72142   5.170   7.465  11.266  0.7432 -0.3370  0.5031
  535MOL0     C72143   5.060   7.370  11.251 -0.3629 -0.4883 -0.1223
  535MOL0     C72144   4.759   7.057  11.207  1.0916  0.8994 -0.0325
  535MOL0     C72145   4.703   7.031  11.087 -0.7598 -0.7064  0.1953
  535MOL0     C72146   4.576   6.981  11.072 -1.1516 -0.0350 -0.4372
  535MOL0     C72147   4.507   6.940  11.188  0.3457 -1.4560 -0.1108
  535MOL0     O72148   4.383   6.882  11.170 -0.0746  0.4500  0.4137
  535MOL0     C72149   4.314   6.846  11.289  0.5726  0.0170 -0.0927
  535MOL0     C72150   4.186   6.766  11.258  0.3936  0.1195  0.3243
  535MOL0     C72151   4.216   6.621  11.196 -0.2297 -0.6145 -0.7244
  535MOL0     C72152   4.078   6.552  11.180 -0.4646  0.0003  0.6743
  535MOL0     C72153   4.012   6.530  11.307 -0.3862 -0.5551  0.3042
  535MOL0     C72154   3.959   6.495  11.414 -1.4409  0.3930 -0.2131
  535MOL0     C72155   4.557   6.971  11.312  0.2730 -1.1071 -0.0455
  535MOL0     C72156   4.680   7.037  11.327  0.5184  0.7763  0.4809
  535MOL0     C72157   4.729   7.061  11.462 -0.0625  0.2509  0.2684
  535MOL0     H72158   5.141   7.133  11.475 -2.2613 -2.3178 -2.2055
  535MOL0     H72159   5.367   7.278  11.464 -0.6602 -0.9145  0.0518
  535MOL0     H72160   5.536   7.458  11.473 -0.0532 -1.2734  0.9385
  535MOL0     H72161   5.509   7.375  11.317 -2.9636 -1.6271  1.8330
  535MOL0     H72162   5.586   7.607  11.208  2.2973  0.8157 -0.1076
  535MOL0     H72163   5.698   7.517  11.320  0.1173  1.1873  1.3814
  535MOL0     H72164   5.528   7.710  11.461 -0.4557  1.2921 -1.0231
  535MOL0     H72165   5.625   7.784  11.343 -2.1984  1.4699  3.3574
  535MOL0     H72166   5.716   7.595  11.553  0.9400 -0.6147 -0.2692
  535MOL0     H72167   5.827   7.678  11.438 -0.7796  0.9419 -1.0546
  535MOL0     H72168   5.791   7.898  11.520  0.6370 -1.7699 -1.7773
  535MOL0     H72169   5.633   7.850  11.585  0.5191 -0.5939  0.4545
  535MOL0     H72170   5.789   7.895  11.763  0.4348 -0.1390 -0.0174
  535MOL0     H72171   5.709   7.725  11.768  1.4825  1.6839  4.9958
  535MOL0     H72172   5.920   7.626  11.678  0.0381 -0.2317  0.0960
  535MOL0     H72173   5.932   7.709  11.830 -0.1416 -2.8451 -0.2936
  535MOL0     H72174   6.011   7.813  11.560  0.1636 -0.0095 -0.1233
  535MOL0     H72175   6.025   7.913  11.707  2.0245 -0.4111  0.5452
  535MOL0     H72176   6.254   7.836  11.868  2.5714 -1.1430  1.5298
  535MOL0     H72177   6.488   7.702  11.918  1.0376  3.2506 -1.3278
  535MOL0     H72178   6.437   7.532  11.916  0.6226  1.4673  0.5158
  535MOL0     H72179   6.553   7.463  11.752 -0.4506  0.4110  0.1574
  535MOL0     H72180   6.553   7.617  11.668 -2.3524  1.0991 -0.1130
  535MOL0     H72181   6.709   7.667  11.905  0.2373 -1.0953  2.4183
  535MOL0     H72182   6.770   7.626  11.744  0.1710 -1.6225  1.4691
  535MOL0     H72183   6.761   7.373  11.815  1.4155 -1.2774  0.8652
  535MOL0     H72184   6.698   7.430  11.968 -0.6866 -0.1206 -0.4257
  535MOL0     H72185   7.139   7.513  12.032  1.6894 -0.3488 -0.0596
  535MOL0     H72186   7.344   7.513  11.907  0.6194  0.8208 -1.3147
  535MOL0     H72187   7.441   7.722  11.426  0.2148  0.8227  1.3378
  535MOL0     H72188   7.637   7.768  11.316  0.1034 -0.1910 -2.0568
  535MOL0     H72189   7.710   7.667  10.987  0.4476 -0.7752 -0.0611
  535MOL0     H72190   7.722   7.779  11.122  1.7418  0.2199  0.8966
  535MOL0     H72191   7.957   7.799  11.120  0.7503  1.7903 -1.4213
  535MOL0     H72192   7.969   7.659  11.008  0.2227 -0.2581 -0.0470
  535MOL0     H72193   7.965   7.840  10.851 -2.1728 -2.4900 -1.3691
  535MOL0     H72194   7.789   7.830  10.882 -0.6125 -0.9565  2.4777
  535MOL0     H72195   7.998   7.988  11.007 -0.1514 -4.1363 -1.1415
  535MOL0     H72196   7.836   7.991  11.084 -0.1068  1.5611  1.1780
  535MOL0     H72197   7.891   8.077  10.793 -0.7251 -2.4481 -0.2675
  535MOL0     H72198   7.849   8.182  10.932  1.1417  0.9163  0.5451
  535MOL0     H72199   7.670   8.025  10.755  1.5229 -1.8802  0.6070
  535MOL0     H72200   7.640   7.999  10.930 -1.7491 -0.7921 -1.9470
  535MOL0     H72201   7.629   8.284  10.811  1.5628 -1.3596 -0.8048
  535MOL0     H72202   7.614   8.240  10.981  3.1904  0.1311 -0.7565
  535MOL0     H72203   7.425   8.108  10.981 -0.3764 -0.7902 -0.2142
  535MOL0     H72204   7.398   8.266  10.908 -1.2925 -0.4506  1.3550
  535MOL0     H72205   7.703   7.348  11.233 -1.0199  0.5266 -1.2586
  535MOL0     H72206   7.506   7.295  11.391 -0.9704 -0.5538 -0.4394
  535MOL0     H72207   7.130   7.404  11.554  0.1782 -0.5679 -0.2211
  535MOL0     H72208   6.928   7.378  11.690 -2.8336  2.6090  2.0895
  535MOL0     H72209   5.172   7.562  11.219  1.0797 -0.2195  0.7577
  535MOL0     H72210   4.969   7.392  11.196 -2.1535 -1.5128  2.2555
  535MOL0     H72211   4.764   7.034  10.997  1.7720  1.3077  1.8551
  535MOL0     H72212   4.536   6.981  10.971  0.6101  0.5348 -1.1785
  535MOL0     H72213   4.289   6.935  11.347 -0.1294  0.5336 -1.1496
  535MOL0     H72214   4.383   6.791  11.353  1.6345  2.1696  0.7171
  535MOL0     H72215   4.116   6.820  11.194 -4.3435 -2.7969  2.4732
  535MOL0     H72216   4.131   6.756  11.353 -0.1072  0.8395  0.1234
  535MOL0     H72217   4.280   6.560  11.260 -2.0872 -0.9567  0.8865
  535MOL0     H72218   4.266   6.636  11.100  1.5614  2.8568  0.5878
  535MOL0     H72219   4.005   6.604  11.117 -1.0016 -2.3733 -0.7987
  535MOL0     H72220   4.094   6.452  11.139  1.1462  0.2617  0.5866
  535MOL0     H72221   3.907   6.463  11.502 -3.4270 -4.6008 -2.7577
  535MOL0     H72222   4.501   6.946  11.401 -0.9395  0.6616 -0.2629
  535MOL0     H72223   4.671   6.999  11.532  0.2925 -0.3684  0.0195
  535MOL0     H72224   4.827   7.013  11.465 -0.7180 -1.1070  1.3746
  535MOL0     H72225   4.729   7.167  11.488  1.7176  0.1718  0.7218
  536MOL0     O72226   6.740   7.586   3.703 -0.5462  0.7073 -0.0952
  536MOL0     C72227   6.734   7.493   3.619 -0.4045 -0.1280  0.7560
  536MOL0     O72228   6.825   7.481   3.517  1.6226  0.0315 -0.5576
  536MOL0     C72229   6.928   7.573   3.496 -1.2538 -0.8777 -0.2105
  536MOL0     C72230   7.057   7.528   3.519  0.8440 -0.0368  0.3068
  536MOL0     C72231   7.168   7.609   3.511  0.0922 -0.7507 -0.6457
  536MOL0     C72232   7.159   7.741   3.464  0.4669 -0.0668  0.1385
  536MOL0     O72233   7.265   7.830   3.457  0.1166 -0.0495  0.0369
  536MOL0     C72234   7.366   7.787   3.360  0.1729 -0.3296  0.1653
  536MOL0     C72235   7.484   7.882   3.388 -0.6206  0.7556 -0.1139
  536MOL0     C72236   7.549   7.867   3.529  1.0323 -0.3848 -0.6197
  536MOL0     C72237   7.624   7.730   3.554  0.8939 -0.3823 -0.3246
  536MOL0     C72238   7.649   7.715   3.704 -0.1220  0.2543  0.0487
  536MOL0     C72239   7.759   7.608   3.727  0.5284  0.1263 -0.2294
  536MOL0     C72240   7.710   7.462   3.747  0.3758 -0.3781  0.0986
  536MOL0     C72241   7.650   7.404   3.620 -0.5667 -0.2374 -1.0077
  536MOL0     N72242   7.632   7.255   3.639 -0.4623 -0.3475 -0.1187
  536MOL0     C72243   7.677   7.146   3.571 -0.8455  0.4101  0.1702
  536MOL0     C72244   7.606   7.038   3.616 -0.0604  0.9025  0.7814
  536MOL0     C72245   7.623   6.892   3.572 -0.5968 -0.6362 -0.1366
  536MOL0     C72246   7.565   6.849   3.437 -0.3682  0.3737  0.2887
  536MOL0     C72247   7.604   6.704   3.406  0.6221 -0.6210  0.1445
  536MOL0     C72248   7.740   6.683   3.352 -0.8898  0.6292 -0.1717
  536MOL0     O72249   7.782   6.554   3.400 -0.7575 -0.1561  0.1826
  536MOL0     C72250   7.873   6.490   3.324 -1.0046 -0.6011 -0.1239
  536MOL0     C72251   7.976   6.557   3.257  0.0196 -0.3386 -0.0193
  536MOL0     C72252   8.069   6.480   3.194 -0.3656 -0.2804 -0.0614
  536MOL0     C72253   8.071   6.339   3.205 -0.9427 -0.4683 -1.0611
  536MOL0     C72254   8.184   6.271   3.141 -1.3591 -0.4081 -0.1530
  536MOL0     O72255   8.177   6.132   3.157  0.9966 -0.0773 -0.3956
  536MOL0     C72256   8.280   6.061   3.102  0.3675 -0.1178  0.0371
  536MOL0     C72257   8.314   6.065   2.960  0.4890 -0.0055 -0.5923
  536MOL0     C72258   8.409   5.981   2.914 -0.0336 -0.3471 -0.2395
  536MOL0     C72259   8.472   5.892   2.990 -0.1897  0.3193 -0.6248
  536MOL0     O72260   8.585   5.815   2.959 -0.0812  0.1768 -0.9925
  536MOL0     C72261   8.647   5.823   2.828  0.8014  0.8004 -0.7901
  536MOL0     C72262   8.746   5.711   2.812  0.6738 -1.0699 -0.1848
  536MOL0     C72263   8.872   5.733   2.891  0.2047 -0.0655 -0.5572
  536MOL0     C72264   8.991   5.652   2.846 -0.7101  0.5634  0.2312
  536MOL0     C72265   9.120   5.693   2.922  0.1328 -0.4077  0.8266
  536MOL0     C72266   9.244   5.614   2.872  0.1348 -0.0400  0.6852
  536MOL0     C72267   9.365   5.644   2.959 -0.3464  0.3635 -0.3558
  536MOL0     C72268   9.355   5.553   3.078 -0.2073 -0.2083 -0.4579
  536MOL0    Cl72269   9.498   5.548   3.175 -0.1911  0.2925 -0.1293
  536MOL0     C72270   8.441   5.889   3.130 -0.1495 -0.1474 -0.5210
  536MOL0     C72271   8.345   5.976   3.185 -0.4122 -0.8149  0.5693
  536MOL0     O72272   8.279   6.327   3.082  0.2550 -0.2835 -0.4827
  536MOL0     C72273   7.973   6.274   3.278  0.8357 -0.7728 -0.3535
  536MOL0     C72274   7.880   6.350   3.345 -0.2948 -0.4846 -0.9149
  536MOL0     N72275   7.519   7.081   3.713 -0.0514 -0.9880  0.4183
  536MOL0     N72276   7.541   7.205   3.730  0.1820  0.5486 -0.3983
  536MOL0     C72277   7.031   7.778   3.439 -0.3490  0.2303 -0.1072
  536MOL0     C72278   6.910   7.701   3.443 -0.7529 -0.7861 -1.4168
  536MOL0     C72279   6.606   7.414   3.609  0.4211 -0.0837  0.5288
  536MOL0     C72280   6.558   7.368   3.481 -0.2339  0.2973  0.2609
  536MOL0     C72281   6.443   7.288   3.461  0.4778  0.8917  0.0373
  536MOL0     C72282   6.363   7.268   3.580 -0.4494 -0.2581  0.5890
  536MOL0     O72283   6.242   7.214   3.541 -0.2466 -0.4240 -0.5763
  536MOL0     C72284   6.137   7.217   3.634  0.3998  1.6037  0.2011
  536MOL0     C72285   6.018   7.137   3.574 -0.5782 -0.1996 -0.8417
  536MOL0     C72286   5.945   7.226   3.465 -0.0568  0.8452 -0.0084
  536MOL0     C72287   5.836   7.325   3.509  0.3723  0.4913 -0.0519
  536MOL0     C72288   5.757   7.373   3.392 -0.2961  0.1095  0.0663
  536MOL0     C72289   5.692   7.420   3.297  0.5538  0.2285 -0.2587
  536MOL0     C72290   6.401   7.320   3.705 -0.0450  0.0970 -0.7328
  536MOL0     C72291   6.529   7.379   3.723 -0.7610  0.3918 -0.6830
  536MOL0     C72292   6.572   7.406   3.868  0.5152  0.4799 -0.0180
  536MOL0     H72293   7.063   7.424   3.552 -0.5212 -1.2023 -2.7125
  536MOL0     H72294   7.265   7.569   3.540 -0.9619 -1.3247  2.4058
  536MOL0     H72295   7.388   7.681   3.373 -1.7835 -1.2155 -2.6717
  536MOL0     H72296   7.328   7.805   3.259  0.6722  1.5876  0.2819
  536MOL0     H72297   7.450   7.985   3.371 -2.3991  0.3124  0.6174
  536MOL0     H72298   7.574   7.865   3.327  0.1357  3.3714  0.1415
  536MOL0     H72299   7.466   7.874   3.601  1.5955 -1.9430  0.2285
  536MOL0     H72300   7.610   7.954   3.551  1.7543 -0.8216 -0.8640
  536MOL0     H72301   7.575   7.644   3.508 -1.3164  0.1408  0.9119
  536MOL0     H72302   7.722   7.746   3.509  0.3709  0.3320 -1.2324
  536MOL0     H72303   7.692   7.806   3.746 -0.1468  0.5553 -0.5642
  536MOL0     H72304   7.564   7.685   3.766 -0.6154 -1.6197 -1.4276
  536MOL0     H72305   7.818   7.614   3.635 -0.0389  0.5904 -0.5750
  536MOL0     H72306   7.819   7.637   3.813 -0.5413  0.2062  0.4999
  536MOL0     H72307   7.643   7.458   3.834  0.2927 -1.7269 -0.0172
  536MOL0     H72308   7.796   7.407   3.784  0.3082 -0.8222 -0.4096
  536MOL0     H72309   7.553   7.450   3.598 -0.4380  0.1447 -0.7743
  536MOL0     H72310   7.715   7.425   3.535  1.1371  0.6251  0.4674
  536MOL0     H72311   7.749   7.139   3.491 -3.1301 -1.8118 -1.8947
  536MOL0     H72312   7.727   6.860   3.574 -0.7106 -0.9850  0.8164
  536MOL0     H72313   7.578   6.823   3.645  1.0883 -0.8656  0.7278
  536MOL0     H72314   7.457   6.866   3.438 -0.3926  0.2795  1.4020
  536MOL0     H72315   7.620   6.906   3.362  0.5020  0.0694  0.6825
  536MOL0     H72316   7.522   6.672   3.340 -2.0241  0.3407  2.7367
  536MOL0     H72317   7.595   6.646   3.497 -4.2257  0.6673  0.7627
  536MOL0     H72318   7.814   6.756   3.385 -1.7412  0.8819  1.2528
  536MOL0     H72319   7.731   6.686   3.243  0.3801 -0.0487 -0.3169
  536MOL0     H72320   7.980   6.665   3.257  0.3715 -0.3442  1.0300
  536MOL0     H72321   8.135   6.531   3.125 -0.1911  0.2329  0.4767
  536MOL0     H72322   8.247   6.115   2.890  0.4778  1.4386  0.4021
  536MOL0     H72323   8.436   5.986   2.809 -1.4102 -0.3026 -0.6108
  536MOL0     H72324   8.572   5.812   2.748 -0.9637 -1.3039  1.0281
  536MOL0     H72325   8.691   5.923   2.824  1.1600  0.7944  1.8907
  536MOL0     H72326   8.708   5.619   2.856  0.4680 -0.9234 -0.0530
  536MOL0     H72327   8.763   5.688   2.706 -2.8153 -2.6841 -0.5270
  536MOL0     H72328   8.905   5.837   2.898  1.1508 -0.4548  3.0215
  536MOL0     H72329   8.845   5.711   2.995  0.0990  1.8788 -0.1337
  536MOL0     H72330   9.012   5.665   2.740 -0.2197  0.4332  0.3095
  536MOL0     H72331   8.966   5.550   2.878  0.0894  0.8924  2.0527
  536MOL0     H72332   9.111   5.683   3.031  0.5245  1.9822  1.1352
  536MOL0     H72333   9.139   5.798   2.895  1.2024 -0.3368  1.7588
  536MOL0     H72334   9.223   5.507   2.870  0.0310 -0.0185  0.5839
  536MOL0     H72335   9.277   5.651   2.775  0.1819 -3.5423 -0.7906
  536MOL0     H72336   9.377   5.750   2.982 -1.8199  0.4042  0.3454
  536MOL0     H72337   9.454   5.607   2.907 -0.6668 -1.3710  0.2444
  536MOL0     H72338   9.274   5.590   3.142  1.1552  0.7477  0.7750
  536MOL0     H72339   9.335   5.455   3.033 -1.2417 -1.2025  1.9823
  536MOL0     H72340   8.502   5.819   3.187  1.5549 -0.4263 -2.5574
  536MOL0     H72341   8.322   5.976   3.291 -0.2342 -2.1151  0.6235
  536MOL0     H72342   7.977   6.166   3.285  1.2702 -0.6718  1.3947
  536MOL0     H72343   7.804   6.303   3.407 -0.1322 -0.2938 -0.5686
  536MOL0     H72344   7.023   7.882   3.407 -0.4213  0.6521  1.2284
  536MOL0     H72345   6.811   7.743   3.428 -0.6857  1.2676  2.4769
  536MOL0     H72346   6.614   7.391   3.391 -2.2410 -0.4444 -1.2268
  536MOL0     H72347   6.416   7.248   3.364  1.2033 -1.8585  0.8852
  536MOL0     H72348   6.116   7.321   3.661  0.0534  1.3872  0.7794
  536MOL0     H72349   6.153   7.173   3.733 -1.0756  1.5595  0.4384
  536MOL0     H72350   5.952   7.127   3.662 -0.2571  2.1648 -0.2626
  536MOL0     H72351   6.052   7.045   3.527  0.5915 -0.5230  0.5676
  536MOL0     H72352   5.900   7.155   3.395  4.1099 -1.4245 -0.7402
  536MOL0     H72353   6.020   7.277   3.403  2.0714  0.9035  2.4448
  536MOL0     H72354   5.772   7.298   3.594 -0.2462  1.6469 -0.1292
  536MOL0     H72355   5.884   7.406   3.564 -1.1154 -0.3963  2.7637
  536MOL0     H72356   5.642   7.456   3.209 -1.2303 -2.3685 -0.3934
  536MOL0     H72357   6.326   7.308   3.783 -0.0390  3.1445 -0.1319
  536MOL0     H72358   6.562   7.510   3.901 -2.9791  0.2076  0.1610
  536MOL0     H72359   6.508   7.347   3.935 -1.4705  1.2105 -1.1872
  536MOL0     H72360   6.677   7.375   3.875  0.7587  1.1896 -0.4593
  537MOL0     O72361   5.942   6.505   5.096  0.3159 -0.0065  0.5119
  537MOL0     C72362   5.900   6.592   5.172 -0.5889  0.9245  1.1214
  537MOL0     O72363   5.944   6.719   5.177 -0.0139 -0.1518 -0.3751
  537MOL0     C72364   6.054   6.776   5.123 -0.1189 -0.3118 -0.0468
  537MOL0     C72365   6.114   6.745   4.993  0.6113  0.9591 -1.0698
  537MOL0     C72366   6.213   6.822   4.936 -0.0628 -0.8086 -0.3089
  537MOL0     C72367   6.265   6.930   4.995  0.3804  0.1967  0.0813
  537MOL0     O72368   6.346   7.002   4.922  0.2925 -0.2000 -0.3415
  537MOL0     C72369   6.350   7.141   4.926  0.5801  0.1761 -0.2924
  537MOL0     C72370   6.476   7.201   4.995 -0.1757 -0.2778  0.3924
  537MOL0     C72371   6.611   7.133   4.956  1.0289 -0.0619  0.4245
  537MOL0     C72372   6.731   7.220   4.992  0.1210  0.1809  0.1297
  537MOL0     C72373   6.873   7.171   4.975  0.7402 -0.7314  0.0163
  537MOL0     C72374   6.910   7.183   4.822 -0.6703 -0.3474  0.3140
  537MOL0     C72375   7.010   7.071   4.773  0.1188 -0.9117  0.7955
  537MOL0     C72376   7.044   7.078   4.623 -0.1070 -0.8747  0.5635
  537MOL0     N72377   7.141   7.182   4.595  0.1242  0.1059  0.4105
  537MOL0     C72378   7.274   7.172   4.643 -0.0500 -0.8581  0.2980
  537MOL0     C72379   7.339   7.264   4.573 -0.5686 -0.7337  0.2647
  537MOL0     C72380   7.488   7.296   4.625 -0.0303  0.4951  0.5784
  537MOL0     C72381   7.580   7.256   4.510  0.2883  0.5690 -0.5905
  537MOL0     C72382   7.730   7.261   4.549 -0.1826 -0.5083 -0.9787
  537MOL0     C72383   7.798   7.406   4.547  0.1584 -0.3559  0.4258
  537MOL0     O72384   7.941   7.408   4.580 -0.1161  0.0377 -0.0487
  537MOL0     C72385   8.038   7.361   4.493 -1.1622  0.7141 -0.1594
  537MOL0     C72386   8.157   7.325   4.563  0.0658 -0.3104 -0.5822
  537MOL0     C72387   8.272   7.282   4.499  0.6776  0.9621 -0.5082
  537MOL0     C72388   8.265   7.286   4.358 -0.2206  1.0622  0.6339
  537MOL0     C72389   8.382   7.248   4.273 -0.5175 -0.2815  0.2337
  537MOL0     O72390   8.488   7.215   4.351  0.2332  0.1352  0.2338
  537MOL0     C72391   8.607   7.180   4.286  0.2234  0.8805 -0.7875
  537MOL0     C72392   8.609   7.080   4.178 -0.0577 -0.5499 -0.4932
  537MOL0     C72393   8.727   7.037   4.121  0.0570 -0.2321  0.6347
  537MOL0     C72394   8.844   7.091   4.162 -0.0705 -0.2425 -0.7285
  537MOL0     O72395   8.956   7.034   4.110 -0.0196 -0.4767  0.7110
  537MOL0     C72396   9.089   7.059   4.161  0.3849 -0.1180  0.5814
  537MOL0     C72397   9.192   6.958   4.104 -0.0417 -0.0249  0.0238
  537MOL0     C72398   9.321   6.962   4.180  0.4515  0.6469 -0.7045
  537MOL0     C72399   9.404   6.833   4.161 -0.9938  0.4049 -0.1520
  537MOL0     C72400   9.540   6.834   4.224  0.0388  0.0365 -1.0821
  537MOL0     C72401   9.612   6.701   4.184  0.1622  0.0645 -0.3735
  537MOL0     C72402   9.755   6.692   4.231  0.0209  0.3473  0.6395
  537MOL0     C72403   9.817   6.556   4.218 -0.4763  0.0151 -0.2955
  537MOL0    Cl72404   9.713   6.442   4.311 -0.3197  0.0243  0.1120
  537MOL0     C72405   8.845   7.187   4.269  0.1111  0.2477 -0.6125
  537MOL0     C72406   8.728   7.237   4.326 -0.5688 -0.4130 -0.4760
  537MOL0     O72407   8.386   7.257   4.151  0.2133  0.3242 -0.5856
  537MOL0     C72408   8.160   7.333   4.288  0.5901  0.6224  0.9171
  537MOL0     C72409   8.043   7.373   4.353 -1.6929 -1.0887 -0.3359
  537MOL0     N72410   7.253   7.320   4.478  0.7919 -0.6884  0.3333
  537MOL0     N72411   7.135   7.276   4.490  0.1104  0.1560  0.2119
  537MOL0     C72412   6.214   6.956   5.129 -0.3263  0.1106  0.4908
  537MOL0     C72413   6.113   6.887   5.187  0.1893  0.7189 -0.3848
  537MOL0     C72414   5.790   6.552   5.269  0.0719 -0.6085  0.1635
  537MOL0     C72415   5.727   6.427   5.244  0.6300 -0.5228  0.3853
  537MOL0     C72416   5.608   6.396   5.309  0.4292 -0.0351 -0.0523
  537MOL0     C72417   5.550   6.474   5.403 -0.5298  0.0244 -0.0586
  537MOL0     O72418   5.433   6.441   5.465  0.2763 -0.0610  1.1182
  537MOL0     C72419   5.355   6.533   5.534 -0.1385 -0.7636 -0.4648
  537MOL0     C72420   5.219   6.464   5.582 -0.9244 -0.0230 -0.0099
  537MOL0     C72421   5.139   6.572   5.659 -0.8720  0.7155  0.4661
  537MOL0     C72422   5.003   6.514   5.694 -0.7392  0.2039 -0.2167
  537MOL0     C72423   4.930   6.625   5.758 -0.7678  0.2054  0.0437
  537MOL0     C72424   4.854   6.697   5.816  0.5214 -0.6289  0.5656
  537MOL0     C72425   5.619   6.593   5.423  0.1155 -0.0338  0.0267
  537MOL0     C72426   5.737   6.644   5.358  0.6453  1.1159 -0.3100
  537MOL0     C72427   5.798   6.768   5.400  0.5672  0.4311  0.1428
  537MOL0     H72428   6.079   6.662   4.933  0.2520 -1.4813  2.1796
  537MOL0     H72429   6.265   6.781   4.850  3.6872 -2.1463  2.3574
  537MOL0     H72430   6.346   7.186   4.827 -0.5422  0.0951 -0.2943
  537MOL0     H72431   6.260   7.173   4.978  0.4419  0.0947 -0.4782
  537MOL0     H72432   6.471   7.189   5.104 -2.7445  2.1264  0.6641
  537MOL0     H72433   6.479   7.309   4.978  1.2624 -0.4555 -0.6239
  537MOL0     H72434   6.616   7.121   4.848 -2.5838  1.4166 -0.0465
  537MOL0     H72435   6.632   7.036   5.002  1.6835 -0.1456 -0.0276
  537MOL0     H72436   6.732   7.323   4.954  0.2889  1.1571  2.5883
  537MOL0     H72437   6.722   7.238   5.100  2.8054  2.0899  0.1544
  537MOL0     H72438   6.943   7.235   5.030 -0.6487  1.7123 -0.8919
  537MOL0     H72439   6.882   7.067   5.006 -2.7692 -1.4497 -0.9024
  537MOL0     H72440   6.818   7.169   4.764 -1.1705 -1.8466  1.3927
  537MOL0     H72441   6.953   7.282   4.806 -2.5935  0.9132  2.4908
  537MOL0     H72442   6.949   6.981   4.785 -3.1469  0.9619 -0.4913
  537MOL0     H72443   7.102   7.071   4.831  0.8175 -0.4759 -0.2780
  537MOL0     H72444   7.094   6.985   4.596  0.0769  0.1858 -3.4199
  537MOL0     H72445   6.957   7.085   4.558  0.3936  0.4633  0.0013
  537MOL0     H72446   7.304   7.110   4.727 -1.2699 -3.7156 -1.2331
  537MOL0     H72447   7.505   7.401   4.648 -2.1656  0.7570  1.1621
  537MOL0     H72448   7.513   7.235   4.712 -2.7041  0.3682  1.3405
  537MOL0     H72449   7.558   7.152   4.485  0.7898 -0.0156  1.1907
  537MOL0     H72450   7.566   7.319   4.422  0.7832  0.0575 -1.0460
  537MOL0     H72451   7.779   7.199   4.473  3.1769 -0.0416  0.6582
  537MOL0     H72452   7.732   7.220   4.650 -2.4087 -2.8566 -1.7499
  537MOL0     H72453   7.734   7.476   4.602 -1.8895 -1.1588 -0.8235
  537MOL0     H72454   7.790   7.454   4.449  2.3588  1.2947  0.9892
  537MOL0     H72455   8.145   7.323   4.670  0.9567  2.2185 -0.3735
  537MOL0     H72456   8.364   7.246   4.543 -0.5447 -2.2959 -0.3371
  537MOL0     H72457   8.519   7.039   4.134 -1.8432 -0.5305  2.7683
  537MOL0     H72458   8.742   6.965   4.041  1.2634  1.3444 -0.6338
  537MOL0     H72459   9.107   7.161   4.126 -0.7911  0.0763  0.5006
  537MOL0     H72460   9.091   7.064   4.270  2.8048 -1.1751  0.6630
  537MOL0     H72461   9.157   6.857   4.125 -2.2329  0.8207  0.7579
  537MOL0     H72462   9.201   6.966   3.996  2.6574  0.9343  0.2313
  537MOL0     H72463   9.369   7.045   4.127  0.6213  0.2710 -1.1579
  537MOL0     H72464   9.309   6.974   4.288 -0.4409  0.3460 -0.7682
  537MOL0     H72465   9.415   6.823   4.053 -2.6213  0.1857 -0.3344
  537MOL0     H72466   9.342   6.749   4.194 -1.6881  1.1376  0.4600
  537MOL0     H72467   9.546   6.852   4.332  4.0465 -2.4502 -0.6596
  537MOL0     H72468   9.591   6.921   4.181  1.7966 -0.1487  0.4839
  537MOL0     H72469   9.565   6.606   4.212  2.7965 -0.7478  1.7440
  537MOL0     H72470   9.628   6.696   4.076 -0.7215  0.0387 -0.5093
  537MOL0     H72471   9.755   6.717   4.338  0.1550  0.5443  0.5955
  537MOL0     H72472   9.816   6.767   4.180  0.3858  0.0502  0.6314
  537MOL0     H72473   9.829   6.527   4.113  4.4410  2.4900 -0.7218
  537MOL0     H72474   9.922   6.552   4.250 -0.7402 -1.1209  0.4635
  537MOL0     H72475   8.934   7.237   4.306  0.4209  0.9647 -2.2597
  537MOL0     H72476   8.733   7.310   4.406 -0.3982 -0.6963 -0.2255
  537MOL0     H72477   8.174   7.349   4.182 -1.7668  3.5360  0.9118
  537MOL0     H72478   7.963   7.416   4.294  0.2872 -0.2714 -2.6045
  537MOL0     H72479   6.248   7.045   5.181  0.6578  0.2637 -0.3827
  537MOL0     H72480   6.072   6.903   5.287 -1.1566 -1.6096 -0.4943
  537MOL0     H72481   5.765   6.359   5.169 -1.6048 -0.6209 -0.7360
  537MOL0     H72482   5.570   6.301   5.271  2.6331 -0.4272 -1.4705
  537MOL0     H72483   5.330   6.621   5.473 -1.6928  0.2017  1.4119
  537MOL0     H72484   5.406   6.565   5.626 -1.5903  0.6997 -0.1055
  537MOL0     H72485   5.235   6.377   5.647 -3.1704 -0.7940 -0.4091
  537MOL0     H72486   5.172   6.421   5.494 -0.7995 -1.9420  0.8071
  537MOL0     H72487   5.130   6.655   5.587 -0.0825  0.2191 -0.2261
  537MOL0     H72488   5.202   6.593   5.746  0.7240 -1.0522 -0.2032
  537MOL0     H72489   4.958   6.478   5.601 -0.6351 -1.2886  0.2810
  537MOL0     H72490   5.022   6.432   5.764 -0.3120  0.5476  0.0734
  537MOL0     H72491   4.807   6.778   5.867  0.1631 -0.4773  0.0121
  537MOL0     H72492   5.569   6.661   5.491 -0.1700  0.5927 -0.7876
  537MOL0     H72493   5.803   6.841   5.319  0.1536 -1.0819 -1.3140
  537MOL0     H72494   5.736   6.811   5.480 -3.0414  0.6732 -2.5003
  537MOL0     H72495   5.896   6.758   5.445  1.6883  2.2258 -1.7085
  538MOL0     O72496   7.874   3.302   7.751  0.5569  0.0621 -0.5170
  538MOL0     C72497   7.884   3.353   7.860 -0.1737 -0.2586  0.4820
  538MOL0     O72498   7.999   3.395   7.924 -0.6761  0.3635  0.6242
  538MOL0     C72499   8.122   3.377   7.869 -0.6492  0.3060  0.8219
  538MOL0     C72500   8.166   3.265   7.795 -0.5399 -0.6404  0.3389
  538MOL0     C72501   8.299   3.266   7.733 -0.9956 -0.9096 -0.8811
  538MOL0     C72502   8.392   3.370   7.766 -0.8078 -0.0786 -0.5407
  538MOL0     O72503   8.522   3.378   7.733  0.0778 -0.6657 -0.1542
  538MOL0     C72504   8.581   3.264   7.673  0.1252  0.1205  0.4084
  538MOL0     C72505   8.733   3.274   7.639 -0.2540  0.8575 -0.1167
  538MOL0     C72506   8.812   3.301   7.771  0.8380 -0.0495 -0.0693
  538MOL0     C72507   8.946   3.237   7.785 -0.7472 -0.2109  0.8165
  538MOL0     C72508   9.013   3.260   7.922 -0.2470 -0.0877  0.2460
  538MOL0     C72509   9.042   3.413   7.945  0.7775 -0.6460  0.3701
  538MOL0     C72510   9.155   3.444   8.043  0.4488  0.0904  0.3899
  538MOL0     C72511   9.294   3.479   7.986  0.7687 -0.9855 -0.5767
  538MOL0     N72512   9.337   3.377   7.902 -0.1594 -0.1933  0.0203
  538MOL0     C72513   9.313   3.367   7.767  0.1170  0.5152 -0.1318
  538MOL0     C72514   9.344   3.234   7.741  0.3201  0.2098  0.3543
  538MOL0     C72515   9.352   3.176   7.607  0.5169  0.0100  0.9010
  538MOL0     C72516   9.498   3.149   7.565 -0.6239 -0.1904 -0.2867
  538MOL0     C72517   9.512   3.176   7.417 -1.4529 -0.2135 -0.9616
  538MOL0     C72518   9.654   3.132   7.362  0.2075 -0.2613  0.7653
  538MOL0     O72519   9.672   2.990   7.367 -0.8784  0.5390  0.3305
  538MOL0     C72520   9.795   2.925   7.347  0.8656  0.1932  0.4792
  538MOL0     C72521   9.920   2.978   7.351  0.3624  0.2768  0.0567
  538MOL0     C72522  10.041   2.899   7.333  0.5483 -0.1519  0.4667
  538MOL0     C72523  10.029   2.766   7.305  0.5316 -0.6063  0.3760
  538MOL0     C72524  10.147   2.673   7.283 -0.2838  0.0228  0.2260
  538MOL0     O72525  10.268   2.727   7.293  0.1128  0.0535 -0.0772
  538MOL0     C72526  10.377   2.652   7.268 -0.1625  0.1228  0.1140
  538MOL0     C72527  10.447   2.577   7.366 -0.2157 -1.0607  0.0781
  538MOL0     C72528  10.551   2.500   7.334 -0.9042  0.4030  1.0768
  538MOL0     C72529  10.600   2.492   7.199 -0.0084 -1.5100  0.1096
  538MOL0     O72530  10.709   2.425   7.153 -0.4595  0.1862 -0.1492
  538MOL0     C72531  10.775   2.320   7.225 -0.8087 -0.5730 -0.4468
  538MOL0     C72532  10.719   2.175   7.211 -0.0616  0.8907 -0.6465
  538MOL0     C72533  10.821   2.074   7.274  0.0033  0.3788  0.3410
  538MOL0     C72534  10.853   2.103   7.428  0.5712 -0.0705 -0.5204
  538MOL0     C72535  10.728   2.071   7.512 -0.3102  1.0810 -0.6220
  538MOL0     C72536  10.761   2.078   7.660  0.2171 -0.1476 -0.5109
  538MOL0     C72537  10.652   2.032   7.762 -0.3903  0.0239  0.7022
  538MOL0     C72538  10.522   2.102   7.745  0.3474  0.5415 -0.4036
  538MOL0    Cl72539  10.525   2.272   7.730  0.0953  0.1640 -0.0449
  538MOL0     C72540  10.539   2.574   7.101 -0.1615  0.0742 -0.2223
  538MOL0     C72541  10.425   2.646   7.136 -1.2495 -0.0791  0.6271
  538MOL0     O72542  10.129   2.556   7.260  0.1324  0.5370  0.3100
  538MOL0     C72543   9.896   2.711   7.302 -0.4964  0.3485 -0.8835
  538MOL0     C72544   9.785   2.790   7.319 -0.5841  0.4093 -0.3836
  538MOL0     N72545   9.389   3.174   7.855  0.1758  0.6276 -0.6302
  538MOL0     N72546   9.390   3.263   7.949 -0.1017 -0.1717  0.7163
  538MOL0     C72547   8.349   3.474   7.853 -0.2106  0.0349 -0.0337
  538MOL0     C72548   8.215   3.477   7.902  0.1841  0.4749  0.2643
  538MOL0     C72549   7.754   3.353   7.931  0.4081  0.0010  0.8153
  538MOL0     C72550   7.719   3.474   7.997 -0.2371  0.5321 -0.4675
  538MOL0     C72551   7.606   3.484   8.077  0.9647  0.4137  0.7890
  538MOL0     C72552   7.510   3.373   8.077  0.1209  0.3061 -0.4657
  538MOL0     O72553   7.398   3.386   8.159 -0.2147  0.0211  0.2979
  538MOL0     C72554   7.294   3.292   8.164  0.8238 -0.0686 -0.0198
  538MOL0     C72555   7.191   3.347   8.262  0.6877  0.1981  0.6703
  538MOL0     C72556   7.057   3.271   8.262  0.2674  0.4270 -0.5838
  538MOL0     C72557   6.981   3.284   8.135  0.0460 -0.2708  0.0152
  538MOL0     C72558   6.843   3.241   8.161  0.2072  0.0310  0.5479
  538MOL0     C72559   6.729   3.218   8.187  0.0436 -0.4864 -1.1977
  538MOL0     C72560   7.557   3.248   8.030 -0.3122 -0.1718  1.7403
  538MOL0     C72561   7.676   3.234   7.953 -0.3746  0.0228  0.2707
  538MOL0     C72562   7.718   3.096   7.916 -0.6469 -0.9665 -0.1152
  538MOL0     H72563   8.103   3.179   7.776 -0.7983 -1.0251  2.5924
  538MOL0     H72564   8.329   3.184   7.670 -0.9236 -1.1057 -0.5948
  538MOL0     H72565   8.558   3.174   7.731 -0.8459  2.0595  3.2206
  538MOL0     H72566   8.529   3.246   7.579  0.2652  1.3107  0.0841
  538MOL0     H72567   8.761   3.353   7.569 -1.4416 -0.5602 -2.3203
  538MOL0     H72568   8.762   3.178   7.595 -3.3129 -0.2350  0.0106
  538MOL0     H72569   8.748   3.263   7.851  0.2391  0.6980 -0.1717
  538MOL0     H72570   8.816   3.411   7.772  0.2874  0.0720 -2.8665
  538MOL0     H72571   8.935   3.129   7.774 -0.3239 -0.0202 -2.4968
  538MOL0     H72572   9.017   3.265   7.707 -0.3495 -3.6016 -0.1932
  538MOL0     H72573   8.948   3.213   7.997 -1.3757 -2.2572 -1.9555
  538MOL0     H72574   9.108   3.206   7.926  0.7117  1.5792  0.8489
  538MOL0     H72575   9.067   3.459   7.849  0.2239  0.1645  0.6035
  538MOL0     H72576   8.945   3.451   7.977  0.8613 -1.0389  1.1163
  538MOL0     H72577   9.160   3.364   8.118 -1.7276 -4.2672 -3.6650
  538MOL0     H72578   9.120   3.538   8.087 -2.4880 -0.6775 -0.1296
  538MOL0     H72579   9.288   3.573   7.931  1.6103  1.2710  2.8691
  538MOL0     H72580   9.374   3.498   8.058  0.7094  2.4373 -1.2531
  538MOL0     H72581   9.280   3.442   7.696  1.3420  1.3949  0.1943
  538MOL0     H72582   9.294   3.084   7.612 -2.0458  1.4537 -0.3796
  538MOL0     H72583   9.298   3.239   7.535 -1.1115 -0.8064  1.3564
  538MOL0     H72584   9.562   3.210   7.629 -0.3909 -1.0681  0.3417
  538MOL0     H72585   9.526   3.047   7.595 -2.6141 -1.2782 -1.8714
  538MOL0     H72586   9.482   3.281   7.402  0.4028  0.3589 -0.9284
  538MOL0     H72587   9.441   3.115   7.360 -0.8045 -0.4970 -1.4805
  538MOL0     H72588   9.722   3.197   7.417  0.1880  2.9145 -2.5353
  538MOL0     H72589   9.658   3.165   7.257  0.4164 -0.8395  0.5866
  538MOL0     H72590   9.937   3.085   7.362  1.5826 -0.0074  1.3741
  538MOL0     H72591  10.141   2.942   7.339  1.1268 -1.6579  2.3613
  538MOL0     H72592  10.405   2.574   7.466  1.0125  1.0843  0.7243
  538MOL0     H72593  10.603   2.444   7.412  0.3180  1.7046  1.2434
  538MOL0     H72594  10.880   2.319   7.193 -1.0947 -2.7165 -1.4466
  538MOL0     H72595  10.781   2.340   7.333  1.3366 -0.2406 -0.5706
  538MOL0     H72596  10.621   2.166   7.260  0.7013  1.9360  1.1782
  538MOL0     H72597  10.701   2.162   7.104  0.7162  3.8829 -1.2466
  538MOL0     H72598  10.782   1.976   7.247 -1.2460  0.3535  2.0829
  538MOL0     H72599  10.907   2.085   7.207  0.5752 -2.8876  0.3931
  538MOL0     H72600  10.894   2.201   7.454 -0.2327 -0.6230  3.5244
  538MOL0     H72601  10.943   2.049   7.457  0.7468  2.1821  4.0581
  538MOL0     H72602  10.710   1.968   7.479 -0.2827  0.2752  1.7115
  538MOL0     H72603  10.637   2.130   7.498 -1.0490 -0.0834 -0.8514
  538MOL0     H72604  10.845   2.012   7.684  0.6185  0.2846 -0.7071
  538MOL0     H72605  10.789   2.179   7.691  1.2746 -1.2037  2.3378
  538MOL0     H72606  10.688   2.050   7.864  0.6812 -0.0842  0.3609
  538MOL0     H72607  10.637   1.926   7.740 -0.2709  0.2692 -0.6015
  538MOL0     H72608  10.462   2.063   7.663 -0.4315 -0.1666  0.4788
  538MOL0     H72609  10.468   2.072   7.835  1.5189  1.6354  0.7015
  538MOL0     H72610  10.572   2.567   6.998 -2.2084 -0.7872 -0.8713
  538MOL0     H72611  10.392   2.716   7.061  0.6812  0.7004  0.4580
  538MOL0     H72612   9.893   2.603   7.292  2.5291  0.0546  0.5724
  538MOL0     H72613   9.689   2.739   7.314 -0.3980  0.0215 -0.1319
  538MOL0     H72614   8.419   3.555   7.873 -0.0747  0.2949 -1.4325
  538MOL0     H72615   8.175   3.551   7.970 -0.3435 -0.7316  1.3223
  538MOL0     H72616   7.787   3.559   7.994  1.0141 -0.3955  0.7050
  538MOL0     H72617   7.574   3.579   8.118 -0.6452  1.0342 -1.6480
  538MOL0     H72618   7.332   3.197   8.204 -2.0193 -1.7762 -1.1244
  538MOL0     H72619   7.250   3.280   8.065  1.8870  0.4803 -0.5821
  538MOL0     H72620   7.175   3.451   8.234  0.4596  0.5032  1.8407
  538MOL0     H72621   7.228   3.333   8.364  0.6895 -1.5089  0.4745
  538MOL0     H72622   6.995   3.317   8.340  0.1728  1.0632 -1.0221
  538MOL0     H72623   7.075   3.166   8.287 -2.1718  0.2503  0.6377
  538MOL0     H72624   6.990   3.385   8.095  1.9399 -0.0304  0.9504
  538MOL0     H72625   7.017   3.226   8.049  1.7893  0.3587  0.2964
  538MOL0     H72626   6.627   3.200   8.212 -0.1152 -0.8161 -2.0411
  538MOL0     H72627   7.489   3.166   8.052 -1.9502  0.6001 -0.1156
  538MOL0     H72628   7.823   3.069   7.929 -0.3358  0.6073  0.8212
  538MOL0     H72629   7.647   3.026   7.960 -0.0656 -1.3669  0.1847
  538MOL0     H72630   7.702   3.088   7.808 -0.6183 -3.3022  0.0077
  539MOL0     O72631   4.469   2.020   2.542  0.4924 -0.1813  0.0054
  539MOL0     C72632   4.478   1.925   2.461  0.1380  0.8838 -0.3585
  539MOL0     O72633   4.601   1.875   2.416 -0.2698 -0.5081 -0.3688
  539MOL0     C72634   4.728   1.941   2.427 -0.1148  0.4295 -0.0673
  539MOL0     C72635   4.820   1.901   2.338 -0.6400 -0.6872  0.0712
  539MOL0     C72636   4.947   1.954   2.332  0.4828 -0.4551 -1.3080
  539MOL0     C72637   4.985   2.060   2.419 -0.6122  0.1438  0.8008
  539MOL0     O72638   5.118   2.094   2.421 -0.0993  0.4627  0.1882
  539MOL0     C72639   5.148   2.206   2.499  0.4623 -1.0925 -0.2548
  539MOL0     C72640   5.266   2.273   2.437 -0.3514 -0.2116 -0.5347
  539MOL0     C72641   5.310   2.407   2.501 -0.3241  0.8106  0.0706
  539MOL0     C72642   5.396   2.385   2.629  0.3395 -0.2339  0.3600
  539MOL0     C72643   5.445   2.519   2.689 -0.3153  0.3259  0.3189
  539MOL0     C72644   5.595   2.523   2.736 -0.3116  0.8566  0.3220
  539MOL0     C72645   5.702   2.497   2.621  0.3346 -0.1524 -0.9463
  539MOL0     C72646   5.677   2.569   2.485  0.0072 -0.9345 -0.2978
  539MOL0     N72647   5.791   2.571   2.396  0.5161  0.0027 -0.1460
  539MOL0     C72648   5.801   2.505   2.277  0.5208 -0.2032  0.5696
  539MOL0     C72649   5.915   2.547   2.216  0.0907 -0.6626  1.1529
  539MOL0     C72650   5.953   2.493   2.080  0.2624 -0.7706 -0.3108
  539MOL0     C72651   5.993   2.617   1.998 -0.5108  0.8491  0.9446
  539MOL0     C72652   6.052   2.590   1.861  0.1338  0.3523 -0.0149
  539MOL0     C72653   6.200   2.540   1.878 -0.2653 -0.1381  0.3677
  539MOL0     O72654   6.251   2.486   1.751 -0.0489 -0.2832 -1.0367
  539MOL0     C72655   6.367   2.532   1.705  0.3745  0.5342  0.4730
  539MOL0     C72656   6.372   2.524   1.562  0.5135  0.1402 -0.2121
  539MOL0     C72657   6.482   2.559   1.486 -0.1076  0.7048 -0.1903
  539MOL0     C72658   6.594   2.605   1.561 -0.6775 -0.0513  0.6283
  539MOL0     C72659   6.716   2.646   1.486  1.3544  0.5311  1.2457
  539MOL0     O72660   6.830   2.673   1.552  0.4353 -0.6290 -0.4492
  539MOL0     C72661   6.935   2.749   1.501  0.2284  0.0078  0.2962
  539MOL0     C72662   7.068   2.717   1.524  0.2594  0.3467  0.0260
  539MOL0     C72663   7.164   2.815   1.491  0.0492 -0.2392  0.1553
  539MOL0     C72664   7.143   2.936   1.429 -0.5023  0.0653  0.0855
  539MOL0     O72665   7.244   3.034   1.427  0.4612  0.1932  0.2985
  539MOL0     C72666   7.228   3.152   1.350 -0.5217 -0.3722  0.6444
  539MOL0     C72667   7.362   3.180   1.291  0.1421 -1.0289 -0.4004
  539MOL0     C72668   7.476   3.168   1.386  0.0460 -0.5726  0.4039
  539MOL0     C72669   7.615   3.225   1.342 -0.3867 -0.1022 -0.0877
  539MOL0     C72670   7.733   3.190   1.437  0.8304 -0.7251 -0.0978
  539MOL0     C72671   7.873   3.205   1.376  0.1518  0.0090 -0.4964
  539MOL0     C72672   7.922   3.348   1.395  0.1458 -0.0086  0.4009
  539MOL0     C72673   8.037   3.360   1.291  0.1770  0.2678  0.2706
  539MOL0    Cl72674   8.172   3.262   1.352  0.3820  0.3798 -0.2636
  539MOL0     C72675   7.009   2.964   1.399 -0.1078  0.9136 -0.3271
  539MOL0     C72676   6.908   2.867   1.436  0.2486  0.2142  0.3723
  539MOL0     O72677   6.696   2.669   1.365  0.1851 -0.1755  0.1831
  539MOL0     C72678   6.589   2.628   1.703  0.2489  0.3313  0.4577
  539MOL0     C72679   6.478   2.576   1.773 -0.1524 -0.0572  0.3406
  539MOL0     N72680   5.983   2.632   2.308  0.9644  0.7059 -0.1550
  539MOL0     N72681   5.904   2.644   2.405  0.9318 -0.0951  0.6789
  539MOL0     C72682   4.894   2.089   2.525 -0.0537  0.3382 -0.3713
  539MOL0     C72683   4.768   2.031   2.519  0.3886 -0.0854 -0.7767
  539MOL0     C72684   4.357   1.846   2.422  0.5195  0.3659  0.7250
  539MOL0     C72685   4.359   1.763   2.304 -0.1795 -0.4683 -0.1240
  539MOL0     C72686   4.249   1.691   2.265  0.6186 -0.6968 -0.5248
  539MOL0     C72687   4.119   1.709   2.323  0.9271 -0.9317  1.1411
  539MOL0     O72688   3.995   1.659   2.282 -0.8222 -0.1295 -0.5365
  539MOL0     C72689   3.978   1.537   2.204 -0.1901  0.5879 -0.5569
  539MOL0     C72690   3.979   1.407   2.295 -0.8955 -0.4967 -0.5191
  539MOL0     C72691   4.120   1.364   2.341 -0.3254 -0.8091 -0.3589
  539MOL0     C72692   4.134   1.241   2.428 -0.2922  0.5525 -0.1057
  539MOL0     C72693   4.088   1.273   2.568  0.3321  0.2717 -0.3680
  539MOL0     C72694   4.042   1.292   2.679 -0.4697 -0.1963  0.3385
  539MOL0     C72695   4.115   1.784   2.437 -0.8964 -0.1708  1.2422
  539MOL0     C72696   4.229   1.848   2.489  0.5817  0.5866 -1.3706
  539MOL0     C72697   4.190   1.918   2.622 -0.0508  0.1574 -0.2482
  539MOL0     H72698   4.784   1.828   2.266 -1.9751 -1.5546  1.5415
  539MOL0     H72699   5.014   1.933   2.249  3.6176  1.4774  0.4919
  539MOL0     H72700   5.069   2.282   2.501  0.7701 -0.7861  0.6844
  539MOL0     H72701   5.170   2.186   2.604  0.9504  1.6453  0.2159
  539MOL0     H72702   5.246   2.287   2.330 -0.8606  1.4173 -0.2532
  539MOL0     H72703   5.350   2.205   2.452 -0.0408  0.2711 -0.0713
  539MOL0     H72704   5.220   2.467   2.519 -1.7605 -0.6379 -1.9329
  539MOL0     H72705   5.360   2.462   2.421 -1.8498  0.9283 -0.8457
  539MOL0     H72706   5.339   2.323   2.698 -1.3182  1.5432  0.6703
  539MOL0     H72707   5.475   2.316   2.598 -1.4397 -1.4347 -1.7031
  539MOL0     H72708   5.424   2.596   2.614 -0.5968 -1.6399 -1.7194
  539MOL0     H72709   5.388   2.553   2.776  1.4816  0.1815  1.6342
  539MOL0     H72710   5.620   2.623   2.772  1.7362 -0.0448  1.5809
  539MOL0     H72711   5.608   2.455   2.821 -0.3212  3.7340  2.7758
  539MOL0     H72712   5.702   2.388   2.608 -0.0728 -0.2296 -0.3567
  539MOL0     H72713   5.800   2.526   2.658 -0.3269 -1.6500  2.3852
  539MOL0     H72714   5.582   2.540   2.438 -2.3902 -0.4058  3.7349
  539MOL0     H72715   5.654   2.672   2.516 -0.7709 -1.6697  1.7063
  539MOL0     H72716   5.739   2.425   2.238  0.1366 -0.0726  0.9107
  539MOL0     H72717   6.039   2.427   2.093  0.7275 -0.1210 -0.0503
  539MOL0     H72718   5.869   2.438   2.036 -1.7934  1.8997 -0.0183
  539MOL0     H72719   5.908   2.686   1.992 -0.5834  0.7120  0.2752
  539MOL0     H72720   6.069   2.671   2.055  0.9654  1.0373 -1.0855
  539MOL0     H72721   6.041   2.677   1.797 -1.4711 -2.2124 -3.5931
  539MOL0     H72722   5.999   2.513   1.803 -0.8609  0.8563  0.2144
  539MOL0     H72723   6.205   2.461   1.953 -1.7853 -0.1937  0.4495
  539MOL0     H72724   6.265   2.619   1.916 -0.9156  0.2732  0.6613
  539MOL0     H72725   6.279   2.495   1.515  0.5078  0.1257 -0.1919
  539MOL0     H72726   6.491   2.552   1.378  2.2271 -0.0915 -0.0032
  539MOL0     H72727   7.096   2.627   1.577  1.1138 -0.0348 -1.0213
  539MOL0     H72728   7.264   2.796   1.530 -0.1296  0.8293  1.1948
  539MOL0     H72729   7.156   3.139   1.269  2.1467 -0.5474 -1.8578
  539MOL0     H72730   7.194   3.236   1.410 -2.3286  0.4276 -1.3727
  539MOL0     H72731   7.381   3.108   1.211  1.6319 -2.9849  1.6066
  539MOL0     H72732   7.356   3.277   1.240  0.0284  0.2922  1.9739
  539MOL0     H72733   7.448   3.198   1.488  0.2869 -1.5691  0.7707
  539MOL0     H72734   7.490   3.060   1.394 -1.2855 -0.7539  0.6106
  539MOL0     H72735   7.614   3.333   1.326 -1.0817  0.0202  0.7388
  539MOL0     H72736   7.639   3.172   1.248 -0.4063 -3.7878  1.7811
  539MOL0     H72737   7.726   3.088   1.474 -3.2993 -0.5179  0.1450
  539MOL0     H72738   7.722   3.258   1.522 -0.9954  1.2302 -1.7750
  539MOL0     H72739   7.939   3.139   1.433 -1.0377 -0.7564  0.0430
  539MOL0     H72740   7.857   3.167   1.275 -0.8268  1.1245 -0.7923
  539MOL0     H72741   7.968   3.359   1.494  1.5446 -0.3938 -0.1859
  539MOL0     H72742   7.842   3.420   1.374 -0.2489 -0.2184  1.1615
  539MOL0     H72743   8.006   3.332   1.190 -0.9552  1.2466  0.3240
  539MOL0     H72744   8.074   3.463   1.294 -1.1022  0.8043 -1.2000
  539MOL0     H72745   6.978   3.063   1.369  1.7765  2.2250  1.7488
  539MOL0     H72746   6.805   2.897   1.423  0.4327  1.9298  2.3968
  539MOL0     H72747   6.663   2.685   1.759  1.3671  1.5671 -2.0760
  539MOL0     H72748   6.482   2.591   1.881  0.4602 -1.3468  0.5242
  539MOL0     H72749   4.927   2.155   2.604  1.6835 -0.3538 -0.4677
  539MOL0     H72750   4.692   2.062   2.590  1.3164  1.6392 -0.4880
  539MOL0     H72751   4.437   1.733   2.235  0.3731  0.9266 -0.1213
  539MOL0     H72752   4.271   1.641   2.171 -1.4845  1.5522 -2.3568
  539MOL0     H72753   4.056   1.527   2.128  0.9309 -1.0857  0.7344
  539MOL0     H72754   3.878   1.548   2.160 -0.1517 -0.9418 -1.0763
  539MOL0     H72755   3.945   1.321   2.237  0.6944 -1.7397  0.3057
  539MOL0     H72756   3.907   1.420   2.377 -0.2236  2.2307 -0.2639
  539MOL0     H72757   4.156   1.439   2.412  0.9604 -2.4193  0.7867
  539MOL0     H72758   4.191   1.378   2.258 -1.2823 -0.5184 -1.1546
  539MOL0     H72759   4.069   1.160   2.393  2.8491 -4.0211  3.3352
  539MOL0     H72760   4.238   1.209   2.419 -0.3669  0.7782 -2.0841
  539MOL0     H72761   3.994   1.311   2.772 -1.3995  1.7534 -0.4867
  539MOL0     H72762   4.017   1.786   2.483 -1.4300  2.1036  0.1238
  539MOL0     H72763   4.250   1.998   2.666 -1.5811  0.2520  1.8368
  539MOL0     H72764   4.089   1.960   2.611  1.3612  4.4029  0.9045
  539MOL0     H72765   4.196   1.835   2.692  1.8065 -0.8308 -1.4936
  540MOL0     O72766   3.052   9.847   9.019 -0.4779 -0.1362 -0.0937
  540MOL0     C72767   3.045   9.751   8.952  0.3386  1.1839 -0.0378
  540MOL0     O72768   2.947   9.658   8.969  0.8699 -0.5655  0.6176
  540MOL0     C72769   2.842   9.688   9.051  0.2085  0.4272  0.4475
  540MOL0     C72770   2.847   9.648   9.187  0.9847 -0.3480 -0.2180
  540MOL0     C72771   2.734   9.683   9.270 -0.0613 -0.4405 -0.3247
  540MOL0     C72772   2.629   9.759   9.221 -0.5815 -0.3058 -0.5837
  540MOL0     O72773   2.545   9.798   9.324 -0.1616  0.5710  0.2253
  540MOL0     C72774   2.431   9.874   9.279 -0.1461 -1.3893  0.0714
  540MOL0     C72775   2.311   9.860   9.370  0.2766 -0.1894  0.6374
  540MOL0     C72776   2.279   9.711   9.415  0.1728  0.4545  0.2181
  540MOL0     C72777   2.205   9.703   9.546  0.4704 -0.0501 -0.5556
  540MOL0     C72778   2.194   9.570   9.609  0.3992 -0.2049  0.7573
  540MOL0     C72779   2.109   9.570   9.737  0.2177 -0.7532 -0.1336
  540MOL0     C72780   2.137   9.447   9.817 -1.2836  0.5256  0.2449
  540MOL0     C72781   2.079   9.440   9.957  0.2825 -0.6754  0.4197
  540MOL0     N72782   2.173   9.507  10.048  0.3159  0.0274 -0.5830
  540MOL0     C72783   2.238   9.631  10.048 -0.2221 -0.0260 -0.1624
  540MOL0     C72784   2.302   9.647  10.162 -0.8102 -0.6106  0.3349
  540MOL0     C72785   2.386   9.764  10.200  0.6245 -0.4388 -0.9204
  540MOL0     C72786   2.383   9.793  10.350  0.2738 -0.1653  0.1250
  540MOL0     C72787   2.458   9.925  10.370 -0.5224  0.5927 -0.0619
  540MOL0     C72788   2.479   9.960  10.512 -0.1703  0.2740  0.1635
  540MOL0     O72789   2.526  10.090  10.529 -0.1524 -0.0757 -0.4095
  540MOL0     C72790   2.437  10.199  10.526  0.2415  0.5434  0.0437
  540MOL0     C72791   2.482  10.319  10.574 -0.6962 -0.5250 -0.3146
  540MOL0     C72792   2.403  10.432  10.558  0.3599  1.0893 -0.0228
  540MOL0     C72793   2.278  10.430  10.507  0.4008 -0.4653  0.1736
  540MOL0     C72794   2.199  10.554  10.500 -0.0195 -1.1112 -1.6372
  540MOL0     O72795   2.252  10.663  10.571 -0.4454  0.7686  0.4105
  540MOL0     C72796   2.187  10.785  10.561 -0.0355 -0.3424 -0.0088
  540MOL0     C72797   2.267  10.892  10.523 -0.2435  0.3334  0.1034
  540MOL0     C72798   2.219  11.026  10.510 -0.1543 -0.1596 -0.0333
  540MOL0     C72799   2.087  11.045  10.533  0.5151 -0.8612 -0.5403
  540MOL0     O72800   2.047  11.177  10.533  0.4053  0.0632  0.7647
  540MOL0     C72801   1.911  11.205  10.565  0.0457 -0.4204  0.0674
  540MOL0     C72802   1.883  11.352  10.545 -0.6467 -0.4224 -0.0192
  540MOL0     C72803   1.730  11.382  10.561 -0.6934 -1.0903 -0.2982
  540MOL0     C72804   1.699  11.530  10.544 -0.1009 -0.5686 -0.2054
  540MOL0     C72805   1.545  11.554  10.584  0.3635  0.0367  0.3639
  540MOL0     C72806   1.504  11.699  10.590  0.7028 -0.5102 -0.4926
  540MOL0     C72807   1.355  11.714  10.565  0.1006  0.1598  0.3924
  540MOL0     C72808   1.325  11.864  10.594  0.4214  0.4778 -0.0294
  540MOL0    Cl72809   1.257  11.886  10.754  0.1219 -0.1412  0.0083
  540MOL0     C72810   1.997  10.935  10.561 -0.0513 -0.4537  0.0464
  540MOL0     C72811   2.049  10.811  10.578  0.3316 -0.7299 -0.6944
  540MOL0     O72812   2.103  10.565  10.420  0.4951 -0.3328  0.3350
  540MOL0     C72813   2.226  10.303  10.469 -0.2459 -0.3645  0.8986
  540MOL0     C72814   2.306  10.188  10.480 -0.1780 -0.7593  0.3336
  540MOL0     N72815   2.287   9.537  10.239  0.0630  0.4246  0.0579
  540MOL0     N72816   2.204   9.460  10.174  0.8110  0.8016 -0.0767
  540MOL0     C72817   2.633   9.810   9.089  0.4010  0.0416 -0.9107
  540MOL0     C72818   2.741   9.773   9.004  1.1675 -0.0937 -1.0818
  540MOL0     C72819   3.168   9.697   8.873 -0.1245  0.4483  0.1878
  540MOL0     C72820   3.191   9.556   8.872 -0.8658 -0.7455  0.0431
  540MOL0     C72821   3.297   9.502   8.798 -0.7168 -1.7967 -0.5148
  540MOL0     C72822   3.365   9.584   8.708 -0.0936  0.2136 -0.4442
  540MOL0     O72823   3.447   9.517   8.623  0.0059 -0.3467 -0.1608
  540MOL0     C72824   3.532   9.592   8.539  0.2559  0.1802  0.2516
  540MOL0     C72825   3.602   9.509   8.437 -0.6737  0.1486  0.0621
  540MOL0     C72826   3.514   9.413   8.369 -0.3723 -0.5160 -0.0624
  540MOL0     C72827   3.526   9.421   8.215  0.2192  0.4841 -0.4316
  540MOL0     C72828   3.672   9.414   8.178 -0.2919 -0.6657  0.1799
  540MOL0     C72829   3.780   9.410   8.119 -0.0449  0.5907 -0.5288
  540MOL0     C72830   3.336   9.723   8.703  0.5729 -0.1554  0.5009
  540MOL0     C72831   3.243   9.787   8.795  0.0736  0.1224 -0.6787
  540MOL0     C72832   3.215   9.932   8.759  0.1966  0.3433 -0.1029
  540MOL0     H72833   2.929   9.582   9.211  1.3536  0.7347  1.6465
  540MOL0     H72834   2.751   9.662   9.375 -0.6178 -0.8931 -0.3236
  540MOL0     H72835   2.459   9.980   9.275 -1.7311 -0.9620 -0.1961
  540MOL0     H72836   2.394   9.847   9.180 -3.8144  2.9792 -0.0318
  540MOL0     H72837   2.227   9.905   9.316  0.5777 -1.4239 -0.9469
  540MOL0     H72838   2.327   9.923   9.458 -1.2343 -0.3806  1.0870
  540MOL0     H72839   2.370   9.652   9.420  2.4727  3.6288 -0.9536
  540MOL0     H72840   2.208   9.656   9.351 -1.4573  1.6159  0.9408
  540MOL0     H72841   2.268   9.760   9.616  1.0832 -0.0285 -1.1110
  540MOL0     H72842   2.107   9.750   9.536  1.4963  2.1780 -0.6865
  540MOL0     H72843   2.135   9.503   9.546  0.1858 -0.0288  0.7683
  540MOL0     H72844   2.292   9.523   9.619  0.3936 -0.9349 -1.8278
  540MOL0     H72845   2.148   9.654   9.796  1.5203 -0.4525 -1.3525
  540MOL0     H72846   2.003   9.592   9.721  0.2477 -0.3901  0.1435
  540MOL0     H72847   2.246   9.434   9.827 -1.0605 -1.6487 -3.2934
  540MOL0     H72848   2.098   9.369   9.752  1.5581 -0.7492 -0.1095
  540MOL0     H72849   1.984   9.493   9.965  1.0296  1.0319 -1.1256
  540MOL0     H72850   2.054   9.342   9.998 -3.2243  0.2731  0.8375
  540MOL0     H72851   2.247   9.704   9.967 -0.1108 -0.8486 -0.9081
  540MOL0     H72852   2.491   9.762  10.169  0.6235 -0.9812 -0.9060
  540MOL0     H72853   2.340   9.853  10.155  0.9559  0.6730  0.8399
  540MOL0     H72854   2.280   9.796  10.387 -1.0617 -0.6431 -3.1784
  540MOL0     H72855   2.440   9.713  10.398  2.6265  1.9682  1.0909
  540MOL0     H72856   2.405  10.004  10.317 -1.4981  0.0395  0.0602
  540MOL0     H72857   2.551   9.917  10.314 -0.4445  2.0256 -0.1667
  540MOL0     H72858   2.552   9.891  10.555 -1.2096  0.8808  3.1351
  540MOL0     H72859   2.387   9.936  10.566  0.1110 -0.9581  0.1307
  540MOL0     H72860   2.581  10.330  10.617 -0.1594 -1.7142 -1.1967
  540MOL0     H72861   2.444  10.532  10.572  1.6324  0.4248  1.3529
  540MOL0     H72862   2.373  10.882  10.501 -0.2445  1.3938 -0.4522
  540MOL0     H72863   2.283  11.100  10.465  0.5724 -0.1060  1.0428
  540MOL0     H72864   1.849  11.142  10.500  2.4115 -2.9844  0.1472
  540MOL0     H72865   1.901  11.181  10.671  0.6924 -1.2776 -0.0582
  540MOL0     H72866   1.928  11.402  10.631 -0.8815 -0.3527  0.0667
  540MOL0     H72867   1.919  11.386  10.448 -0.9785 -2.8196 -1.0538
  540MOL0     H72868   1.666  11.326  10.493  0.0746 -4.0593  1.2297
  540MOL0     H72869   1.689  11.339  10.653 -0.9964  0.3248  0.2419
  540MOL0     H72870   1.718  11.563  10.441 -0.4067  0.2430 -0.0109
  540MOL0     H72871   1.768  11.581  10.613  0.0181 -0.7430 -0.1939
  540MOL0     H72872   1.525  11.514  10.683  0.5600 -0.0849  0.3567
  540MOL0     H72873   1.486  11.501  10.509  0.6717  1.9448 -1.3319
  540MOL0     H72874   1.530  11.753  10.681 -0.7826 -0.4023 -0.1041
  540MOL0     H72875   1.559  11.739  10.505 -0.7715 -0.4954 -1.4647
  540MOL0     H72876   1.308  11.647  10.637  2.9330 -1.0764  1.2382
  540MOL0     H72877   1.325  11.684  10.464 -0.9634  1.1445  0.3921
  540MOL0     H72878   1.415  11.927  10.587  0.8436 -0.1349 -0.2169
  540MOL0     H72879   1.266  11.915  10.518 -0.7567 -0.7937  0.0070
  540MOL0     H72880   1.891  10.953  10.574 -0.1509 -0.0042 -1.3164
  540MOL0     H72881   1.973  10.736  10.596 -0.6464  0.8013  2.0141
  540MOL0     H72882   2.125  10.283  10.436  0.1804 -1.7813  0.3728
  540MOL0     H72883   2.257  10.099  10.442  1.3941 -1.7309  0.4887
  540MOL0     H72884   2.582   9.887   9.032  1.2249  1.2929  0.0108
  540MOL0     H72885   2.748   9.813   8.904  0.2353 -0.6803 -1.3927
  540MOL0     H72886   3.116   9.496   8.922 -1.9244 -0.7316 -1.4528
  540MOL0     H72887   3.319   9.395   8.798  1.2105 -1.4467  0.0003
  540MOL0     H72888   3.609   9.654   8.586  0.6479  1.1701 -1.5959
  540MOL0     H72889   3.468   9.655   8.477  1.7821  1.0820 -0.4642
  540MOL0     H72890   3.683   9.446   8.477 -0.5972 -0.7566 -1.4475
  540MOL0     H72891   3.650   9.580   8.369 -1.6760 -0.5338 -1.4024
  540MOL0     H72892   3.410   9.429   8.399 -0.2855  0.0309 -0.0483
  540MOL0     H72893   3.555   9.316   8.398 -0.2783 -0.3534  0.3566
  540MOL0     H72894   3.466   9.335   8.183  0.5534  0.4124 -0.8751
  540MOL0     H72895   3.475   9.513   8.184  0.5971  1.4205  1.5808
  540MOL0     H72896   3.877   9.413   8.074 -0.3892 -2.1456 -1.6820
  540MOL0     H72897   3.375   9.778   8.618  0.2514 -1.2621 -0.3924
  540MOL0     H72898   3.231  10.007   8.837 -1.6241  0.7891 -0.1243
  540MOL0     H72899   3.267   9.971   8.671  1.0535  2.5489  1.3033
  540MOL0     H72900   3.107   9.931   8.745 -0.2546 -1.3530  2.6829
  541MOL0     O72901   9.947   7.820  10.219  0.3228  0.0036 -0.1038
  541MOL0     C72902   9.976   7.923  10.275 -0.2662 -0.6484 -0.4893
  541MOL0     O72903   9.891   7.992  10.355  0.4514 -0.0574  1.0200
  541MOL0     C72904   9.760   7.945  10.370 -0.6618 -0.1791  0.0459
  541MOL0     C72905   9.661   7.950  10.275 -0.2102  0.5374 -0.9923
  541MOL0     C72906   9.542   7.883  10.307  0.1569 -0.1428 -0.5607
  541MOL0     C72907   9.520   7.826  10.433  0.7644 -0.5819  0.4009
  541MOL0     O72908   9.406   7.750  10.453  0.2085 -0.0142  0.3443
  541MOL0     C72909   9.368   7.697  10.584 -0.1125  0.0077  0.0786
  541MOL0     C72910   9.249   7.600  10.566 -0.3804  0.3614 -0.3960
  541MOL0     C72911   9.286   7.488  10.473 -0.3367 -0.1578 -0.6812
  541MOL0     C72912   9.182   7.379  10.473 -0.2984 -0.3980 -0.4166
  541MOL0     C72913   9.209   7.281  10.360 -0.5176 -0.7743  0.7082
  541MOL0     C72914   9.124   7.155  10.360  0.9091  0.3458  0.6081
  541MOL0     C72915   8.974   7.175  10.317 -0.1184 -0.2392 -0.1681
  541MOL0     C72916   8.910   7.067  10.222 -0.3422 -0.8136  0.5629
  541MOL0     N72917   9.004   7.018  10.115  1.0356 -0.0990 -0.4897
  541MOL0     C72918   9.054   7.098  10.010  0.0695  0.3700  0.4432
  541MOL0     C72919   9.124   7.004   9.940  0.3747  0.5449 -0.7234
  541MOL0     C72920   9.230   7.022   9.834 -0.9171 -0.4569  0.7734
  541MOL0     C72921   9.366   6.962   9.857 -0.8420  0.0524  0.2569
  541MOL0     C72922   9.464   6.988   9.746 -0.6666 -0.2757  0.4481
  541MOL0     C72923   9.490   7.128   9.710  0.2186 -0.3311  0.2984
  541MOL0     O72924   9.594   7.131   9.611 -0.2678 -0.4368 -0.4033
  541MOL0     C72925   9.553   7.189   9.485 -0.7387 -0.2413 -0.8733
  541MOL0     C72926   9.444   7.155   9.410 -0.7557  0.5828 -0.2551
  541MOL0     C72927   9.421   7.202   9.289 -0.4587  0.5134 -0.2242
  541MOL0     C72928   9.509   7.299   9.237 -0.2534 -0.3128  0.7137
  541MOL0     C72929   9.488   7.352   9.098 -0.9834  0.0783  0.0453
  541MOL0     O72930   9.363   7.318   9.042 -0.5871 -0.2062 -0.5522
  541MOL0     C72931   9.251   7.385   9.078  0.7819  0.1294 -0.5114
  541MOL0     C72932   9.128   7.351   9.025 -0.0714  1.1103 -0.5813
  541MOL0     C72933   9.020   7.433   9.046 -0.1319 -0.2042 -0.0304
  541MOL0     C72934   9.022   7.537   9.139  0.9687 -0.2639  0.7262
  541MOL0     O72935   8.910   7.609   9.144 -0.3750  0.2384 -0.1570
  541MOL0     C72936   8.897   7.712   9.240 -0.7288 -0.5659 -0.4576
  541MOL0     C72937   8.757   7.772   9.238 -0.1189  0.9898 -0.0441
  541MOL0     C72938   8.656   7.663   9.272  1.0192  0.3764  0.0789
  541MOL0     C72939   8.515   7.727   9.282  0.3416 -0.0109  0.3491
  541MOL0     C72940   8.399   7.622   9.257 -0.0764 -0.0373 -0.1881
  541MOL0     C72941   8.400   7.504   9.363  0.8198 -0.5372 -0.3654
  541MOL0     C72942   8.290   7.404   9.323  0.2482  0.0002  0.0593
  541MOL0     C72943   8.347   7.291   9.247 -0.5398  0.2585  0.0165
  541MOL0    Cl72944   8.208   7.192   9.171  0.3934  0.3586 -0.1158
  541MOL0     C72945   9.145   7.562   9.201 -0.5240  0.6989 -0.2385
  541MOL0     C72946   9.258   7.496   9.171  0.1998  0.0976 -0.0567
  541MOL0     O72947   9.578   7.418   9.042 -0.1151 -0.2591  0.1232
  541MOL0     C72948   9.630   7.333   9.306 -0.3773  0.1536  0.5104
  541MOL0     C72949   9.645   7.278   9.433 -0.5101  0.0326 -0.4127
  541MOL0     N72950   9.101   6.875   9.994 -0.1348  0.2644 -0.0641
  541MOL0     N72951   9.033   6.889  10.105 -0.2698  0.5379 -0.2652
  541MOL0     C72952   9.621   7.831  10.532  0.1358 -0.7529  1.0931
  541MOL0     C72953   9.737   7.891  10.497 -0.7181  0.0390  0.3347
  541MOL0     C72954  10.112   7.968  10.256  0.4156 -0.0715  0.0051
  541MOL0     C72955  10.141   8.094  10.317 -1.3888 -0.1624  1.0443
  541MOL0     C72956  10.267   8.151  10.301  0.3232  0.6072 -0.2568
  541MOL0     C72957  10.366   8.081  10.221 -0.3832 -0.1838  0.2693
  541MOL0     O72958  10.490   8.136  10.216 -0.0210  0.2062 -0.2519
  541MOL0     C72959  10.594   8.080  10.136 -0.3338  0.4310  0.4965
  541MOL0     C72960  10.723   8.154  10.162 -0.4684 -1.2141 -0.1288
  541MOL0     C72961  10.835   8.094  10.081 -0.1046 -0.3908 -0.9237
  541MOL0     C72962  10.925   8.204  10.011  0.3472  0.2514  0.7409
  541MOL0     C72963  10.993   8.293  10.106 -0.4428 -0.1687 -0.5895
  541MOL0     C72964  11.049   8.373  10.177 -0.4023  0.8563  0.1747
  541MOL0     C72965  10.332   7.964  10.151 -0.0208  0.1026  0.0496
  541MOL0     C72966  10.211   7.903  10.168  0.2399  0.6882 -0.0716
  541MOL0     C72967  10.188   7.780  10.085  0.6797 -0.6477  0.2742
  541MOL0     H72968   9.685   7.995  10.179  1.9607  0.1011 -0.7106
  541MOL0     H72969   9.456   7.874  10.241  0.8239 -0.1978 -1.4525
  541MOL0     H72970   9.448   7.655  10.645  0.3698 -1.4036 -1.4424
  541MOL0     H72971   9.334   7.791  10.629  3.3221  0.2943  2.4563
  541MOL0     H72972   9.165   7.664  10.539  2.6387  4.4816 -0.9622
  541MOL0     H72973   9.224   7.559  10.664 -2.4046 -1.7652 -1.6746
  541MOL0     H72974   9.383   7.440  10.493 -0.7408 -0.7829 -0.2019
  541MOL0     H72975   9.286   7.514  10.367 -1.8113 -1.8223 -1.1338
  541MOL0     H72976   9.175   7.324  10.567 -0.2771  2.9715  1.7041
  541MOL0     H72977   9.085   7.423  10.447 -0.2634 -0.0065  0.0984
  541MOL0     H72978   9.187   7.326  10.263 -1.3817  0.6545  1.5124
  541MOL0     H72979   9.311   7.244  10.355  0.3893  1.6835 -1.5199
  541MOL0     H72980   9.167   7.075  10.299 -0.1456 -3.1958  4.0841
  541MOL0     H72981   9.118   7.102  10.455 -1.2746 -0.4392  0.1081
  541MOL0     H72982   8.975   7.272  10.267 -0.3875  0.0216  0.3292
  541MOL0     H72983   8.925   7.184  10.414  0.9630 -4.1334  0.9289
  541MOL0     H72984   8.868   6.988  10.285 -0.7260  0.2466  1.6746
  541MOL0     H72985   8.816   7.100  10.177  0.1831 -0.0165  0.0294
  541MOL0     H72986   9.060   7.205   9.993  3.6034 -0.0076 -1.5257
  541MOL0     H72987   9.188   6.995   9.736 -0.6404 -0.2582  0.5977
  541MOL0     H72988   9.247   7.129   9.818 -0.4899 -1.0138 -4.2576
  541MOL0     H72989   9.394   6.985   9.961 -3.1916 -0.7382  1.1217
  541MOL0     H72990   9.350   6.854   9.857 -0.3350 -0.0715 -2.0102
  541MOL0     H72991   9.447   6.931   9.655  1.3473 -1.0940  0.5191
  541MOL0     H72992   9.560   6.949   9.781 -1.5785 -2.4360  0.7119
  541MOL0     H72993   9.506   7.199   9.791 -3.2052  1.3600 -0.3362
  541MOL0     H72994   9.403   7.173   9.660  0.9221  0.5637 -0.1519
  541MOL0     H72995   9.372   7.087   9.454  0.5934 -0.0231  1.1066
  541MOL0     H72996   9.334   7.150   9.250 -1.1352  2.0664 -0.8702
  541MOL0     H72997   9.105   7.272   8.954  0.8985  1.1473 -0.9538
  541MOL0     H72998   8.919   7.412   9.012 -0.7503  1.2086  0.8360
  541MOL0     H72999   8.922   7.664   9.335 -0.8369 -1.4559 -0.8730
  541MOL0     H73000   8.963   7.792   9.206 -0.1021 -0.1816  1.5539
  541MOL0     H73001   8.738   7.847   9.315 -2.7278 -1.1500  1.6127
  541MOL0     H73002   8.738   7.812   9.138 -1.7440 -1.5976 -0.8928
  541MOL0     H73003   8.650   7.585   9.195 -0.3050  0.4996  0.0378
  541MOL0     H73004   8.676   7.612   9.367  0.1042  1.4836  0.8868
  541MOL0     H73005   8.504   7.804   9.205 -0.5692 -2.2836 -1.9641
  541MOL0     H73006   8.498   7.757   9.386  0.8809 -0.2430  0.5050
  541MOL0     H73007   8.414   7.579   9.157  1.7580  0.8121 -0.3360
  541MOL0     H73008   8.300   7.667   9.257 -0.6892 -1.2852  1.7632
  541MOL0     H73009   8.495   7.450   9.359 -0.6691 -3.4910  0.5760
  541MOL0     H73010   8.378   7.529   9.467 -0.4400 -1.5475 -0.3619
  541MOL0     H73011   8.209   7.444   9.262  0.4674  0.1897 -0.1143
  541MOL0     H73012   8.243   7.373   9.416 -1.7506 -0.9533 -1.2108
  541MOL0     H73013   8.416   7.328   9.170  0.1841 -1.1595 -0.0399
  541MOL0     H73014   8.408   7.218   9.299 -0.0063  0.1535 -0.7363
  541MOL0     H73015   9.141   7.654   9.258 -1.5124  1.2024 -1.0798
  541MOL0     H73016   9.348   7.535   9.216 -1.7733  1.7272  2.8009
  541MOL0     H73017   9.702   7.405   9.270 -0.9651  0.2122 -0.5839
  541MOL0     H73018   9.734   7.301   9.490 -0.2723 -4.5294  1.4527
  541MOL0     H73019   9.584   7.796  10.628 -1.0190  1.5746  1.5828
  541MOL0     H73020   9.810   7.890  10.578 -0.2375 -3.1030  0.0056
  541MOL0     H73021  10.072   8.140  10.386 -1.4909 -1.5571  1.8938
  541MOL0     H73022  10.301   8.247  10.339  1.9487 -0.2573  0.5633
  541MOL0     H73023  10.560   8.086  10.032 -2.8759  0.5300  1.2832
  541MOL0     H73024  10.592   7.972  10.153 -1.9531  0.2706 -0.5553
  541MOL0     H73025  10.753   8.147  10.267  1.8692 -1.2192 -0.7373
  541MOL0     H73026  10.701   8.258  10.135  0.3241 -1.2226 -0.8504
  541MOL0     H73027  10.788   8.039   9.999 -2.1443 -0.6405  0.3265
  541MOL0     H73028  10.897   8.029  10.142  1.3974  1.9719  0.1949
  541MOL0     H73029  11.004   8.159   9.951 -1.3400 -1.2308 -0.4775
  541MOL0     H73030  10.867   8.255   9.934  3.0331  2.3604 -0.0395
  541MOL0     H73031  11.103   8.449  10.230 -0.7874  0.4149  1.2182
  541MOL0     H73032  10.402   7.916  10.084 -1.7743 -1.5550 -0.7032
  541MOL0     H73033  10.284   7.741  10.048  2.9430  2.3349  2.5278
  541MOL0     H73034  10.152   7.698  10.147 -0.4713 -0.4295 -0.0863
  541MOL0     H73035  10.107   7.790  10.013 -1.5984 -1.5199  2.5739
  542MOL0     O73036   1.680  10.797  10.599 -0.1189  0.2521 -0.3495
  542MOL0     C73037   1.590  10.853  10.665  0.2258  0.3255 -0.8002
  542MOL0     O73038   1.604  10.911  10.791 -0.1598  1.0894 -0.0270
  542MOL0     C73039   1.733  10.881  10.846  0.5040  0.1055 -0.8606
  542MOL0     C73040   1.772  10.760  10.906  0.0722 -0.1607  0.1627
  542MOL0     C73041   1.913  10.735  10.935  0.4793 -0.0640 -0.3376
  542MOL0     C73042   2.007  10.837  10.922  0.7437 -0.0147 -0.0432
  542MOL0     O73043   2.134  10.795  10.950 -0.0557 -0.2281  0.5603
  542MOL0     C73044   2.247  10.879  10.911  0.2079 -0.7419  0.6994
  542MOL0     C73045   2.386  10.831  10.956  0.2513 -0.3701 -0.3536
  542MOL0     C73046   2.442  10.696  10.907  0.1590  0.5901 -0.2950
  542MOL0     C73047   2.377  10.574  10.985  0.1687  0.0582  0.3585
  542MOL0     C73048   2.399  10.581  11.137  0.0770  0.7865 -0.3421
  542MOL0     C73049   2.347  10.451  11.189 -0.5761  0.2915  0.6186
  542MOL0     C73050   2.328  10.443  11.339 -0.2460 -0.6047  0.6332
  542MOL0     C73051   2.468  10.466  11.407  1.1207 -0.5141 -1.0738
  542MOL0     N73052   2.449  10.481  11.549  0.6062  0.2427  0.1515
  542MOL0     C73053   2.411  10.378  11.643  0.1864  0.3247  0.0143
  542MOL0     C73054   2.367  10.451  11.748 -0.0689  0.5352 -0.3792
  542MOL0     C73055   2.306  10.399  11.886 -0.9677  0.6815  0.3618
  542MOL0     C73056   2.418  10.379  11.996  0.8476 -0.8062 -0.1900
  542MOL0     C73057   2.512  10.279  11.942 -0.3292  0.8456 -0.5494
  542MOL0     C73058   2.628  10.258  12.041  0.1411 -1.0788  0.1386
  542MOL0     O73059   2.729  10.190  11.965 -0.3617 -0.0586  0.0479
  542MOL0     C73060   2.855  10.218  12.011 -1.3379  0.5701  0.0190
  542MOL0     C73061   2.958  10.189  11.924 -0.0341 -0.2977  0.0297
  542MOL0     C73062   3.089  10.217  11.956 -0.1161  0.6200 -0.0401
  542MOL0     C73063   3.130  10.261  12.086 -0.1335 -0.6007 -0.0914
  542MOL0     C73064   3.276  10.283  12.124  0.4788  0.0397 -0.0815
  542MOL0     O73065   3.379  10.232  12.045  0.2184  0.3528  0.0911
  542MOL0     C73066   3.507  10.274  12.077  0.0499  0.5942  0.7853
  542MOL0     C73067   3.611  10.178  12.096 -0.4443 -0.8244 -0.0887
  542MOL0     C73068   3.739  10.217  12.135  0.8511  0.0413 -0.2237
  542MOL0     C73069   3.774  10.349  12.145 -0.6591  0.3076 -0.5704
  542MOL0     O73070   3.904  10.379  12.177 -0.1857  0.2858  0.2730
  542MOL0     C73071   3.947  10.515  12.162 -0.1587  0.0279  0.3083
  542MOL0     C73072   4.102  10.519  12.173 -0.2254  0.5455  0.1976
  542MOL0     C73073   4.170  10.640  12.122  0.3445 -0.6753  0.8539
  542MOL0     C73074   4.095  10.770  12.141 -0.1433  0.1078  0.2139
  542MOL0     C73075   4.170  10.901  12.107  0.0800  0.4085  0.0737
  542MOL0     C73076   4.194  10.911  11.955 -0.1421  0.2172  0.3272
  542MOL0     C73077   4.241  11.049  11.907  0.0639  0.3527  0.2658
  542MOL0     C73078   4.311  11.133  12.014  0.1163 -0.1650  0.9042
  542MOL0    Cl73079   4.331  11.294  11.938 -0.3301 -0.2943 -0.0608
  542MOL0     C73080   3.670  10.442  12.123  0.5508 -1.0083  0.4235
  542MOL0     C73081   3.539  10.407  12.097 -0.2300 -0.1961 -0.1282
  542MOL0     O73082   3.289  10.349  12.226  0.1523  0.0771  0.0763
  542MOL0     C73083   3.023  10.278  12.174  0.9123 -0.0901  0.0128
  542MOL0     C73084   2.889  10.257  12.134 -0.0280  0.8417 -0.3296
  542MOL0     N73085   2.385  10.587  11.724  0.6114  0.0811 -0.0011
  542MOL0     N73086   2.423  10.601  11.604 -0.0157 -0.1364  0.4200
  542MOL0     C73087   1.971  10.966  10.878 -0.2276 -0.0398 -0.9086
  542MOL0     C73088   1.832  10.984  10.845  0.6160  0.6727 -0.8841
  542MOL0     C73089   1.461  10.876  10.604  0.2827 -0.1092  1.3767
  542MOL0     C73090   1.351  10.916  10.689 -0.7609 -0.7245  0.6639
  542MOL0     C73091   1.218  10.933  10.640 -0.4880  0.3699 -0.0322
  542MOL0     C73092   1.191  10.922  10.502 -0.0491  0.0092  0.0831
  542MOL0     O73093   1.069  10.916  10.447  0.5623  0.3281 -0.4926
  542MOL0     C73094   0.945  10.913  10.527  0.8984  0.0311  0.3705
  542MOL0     C73095   0.848  11.031  10.490 -0.4455 -0.2041 -0.3008
  542MOL0     C73096   0.717  11.019  10.578 -0.0401  0.2340  0.0666
  542MOL0     C73097   0.609  11.103  10.518 -0.0885 -0.3534 -0.2090
  542MOL0     C73098   0.639  11.253  10.509  0.4589 -0.1753 -0.7935
  542MOL0     C73099   0.657  11.371  10.499 -0.3982 -0.6170  0.3088
  542MOL0     C73100   1.303  10.885  10.419  0.8083  0.3584  0.1486
  542MOL0     C73101   1.433  10.862  10.464 -0.3237  0.5779  0.1490
  542MOL0     C73102   1.535  10.812  10.362  0.4864 -0.2909  0.0930
  542MOL0     H73103   1.695  10.687  10.928 -1.1766  1.0059 -0.2075
  542MOL0     H73104   1.947  10.639  10.970 -0.3090  0.2688  1.4265
  542MOL0     H73105   2.258  10.882  10.802  0.9023  2.0160  0.7833
  542MOL0     H73106   2.225  10.982  10.939  0.7854 -0.3399 -0.2804
  542MOL0     H73107   2.400  10.836  11.064  0.3177  4.2071 -0.3680
  542MOL0     H73108   2.462  10.900  10.917  0.0821 -0.0544 -0.1258
  542MOL0     H73109   2.549  10.688  10.926  0.2098  0.4088 -0.6468
  542MOL0     H73110   2.423  10.683  10.800 -0.1891  1.0607 -0.2955
  542MOL0     H73111   2.271  10.577  10.960  0.1048 -1.3026  0.3934
  542MOL0     H73112   2.424  10.482  10.947 -1.3913 -2.0630  3.1181
  542MOL0     H73113   2.506  10.583  11.160  0.5246 -2.8639 -1.4363
  542MOL0     H73114   2.346  10.668  11.177 -0.6148  0.1619  0.1141
  542MOL0     H73115   2.246  10.438  11.150 -0.2418  1.5543 -0.7420
  542MOL0     H73116   2.408  10.368  11.151  0.7613  1.2714  0.5713
  542MOL0     H73117   2.286  10.347  11.370  0.7714 -0.4737  2.5766
  542MOL0     H73118   2.260  10.524  11.370  1.4400  0.6189  1.3204
  542MOL0     H73119   2.533  10.380  11.385  1.3015 -0.4646 -0.7430
  542MOL0     H73120   2.514  10.555  11.362  1.8237  0.3322  1.1521
  542MOL0     H73121   2.423  10.271  11.635  1.5662  0.0884  3.6312
  542MOL0     H73122   2.221  10.458  11.923 -2.1370 -1.4329  1.1986
  542MOL0     H73123   2.279  10.299  11.854  1.2537  0.9157 -2.7312
  542MOL0     H73124   2.472  10.473  12.010 -1.5850  0.7013 -0.3276
  542MOL0     H73125   2.370  10.348  12.090 -1.5363  1.5377 -0.4812
  542MOL0     H73126   2.560  10.305  11.847 -1.0078  1.8051 -0.6385
  542MOL0     H73127   2.462  10.182  11.938  1.2448 -0.2371  2.7196
  542MOL0     H73128   2.593  10.197  12.125 -0.2832 -1.5181 -0.3434
  542MOL0     H73129   2.666  10.355  12.073  0.0838 -1.1903  0.5535
  542MOL0     H73130   2.926  10.148  11.829 -0.5888  0.3770 -0.0805
  542MOL0     H73131   3.167  10.197  11.884 -0.5925  1.0850 -0.6867
  542MOL0     H73132   3.592  10.071  12.092  3.0523 -1.6061  0.4019
  542MOL0     H73133   3.799  10.128  12.150 -1.3621 -1.4924 -0.0044
  542MOL0     H73134   3.927  10.543  12.059  0.2209 -0.7724  0.0101
  542MOL0     H73135   3.903  10.589  12.230  0.9528  0.3689  0.6830
  542MOL0     H73136   4.131  10.500  12.276 -0.0460 -3.3374 -0.3933
  542MOL0     H73137   4.144  10.439  12.111 -0.1923  0.6012  0.1482
  542MOL0     H73138   4.263  10.659  12.176  2.3508 -1.3216 -2.0792
  542MOL0     H73139   4.193  10.620  12.017 -0.3133  0.9246  0.3731
  542MOL0     H73140   4.054  10.767  12.243  0.5426  0.2105  0.4978
  542MOL0     H73141   4.011  10.759  12.071  0.6221 -2.4303 -0.3964
  542MOL0     H73142   4.264  10.905  12.164  0.7735  1.7663 -1.1064
  542MOL0     H73143   4.115  10.988  12.142  0.9139  1.0234 -0.1117
  542MOL0     H73144   4.277  10.846  11.923  0.4610  1.0334  0.1934
  542MOL0     H73145   4.100  10.880  11.908  1.6430 -0.4914 -3.1301
  542MOL0     H73146   4.144  11.093  11.881 -1.3880 -3.3476 -1.2055
  542MOL0     H73147   4.295  11.040  11.813 -2.5192  1.6910 -1.4750
  542MOL0     H73148   4.269  11.137  12.115 -0.1741  0.1339  0.7723
  542MOL0     H73149   4.410  11.090  12.031  0.9370  0.6777 -1.4190
  542MOL0     H73150   3.674  10.549  12.142 -3.2511 -0.1470 -2.4850
  542MOL0     H73151   3.455  10.475  12.088 -2.3041 -2.6764 -0.6543
  542MOL0     H73152   3.028  10.297  12.280 -3.0300  1.3348  0.1009
  542MOL0     H73153   2.819  10.277  12.214 -1.0379 -1.6178 -0.4993
  542MOL0     H73154   2.041  11.046  10.857 -0.5556  0.1638 -1.2518
  542MOL0     H73155   1.809  11.085  10.811 -3.0673  1.4528  3.0902
  542MOL0     H73156   1.371  10.928  10.795  3.0068 -0.5271  0.0960
  542MOL0     H73157   1.144  10.968  10.711  0.5475  3.6616 -0.4018
  542MOL0     H73158   0.966  10.911  10.634 -0.9659  2.0354  0.8407
  542MOL0     H73159   0.895  10.819  10.499 -0.3077  1.2325 -1.7450
  542MOL0     H73160   0.825  11.035  10.383  1.6748 -0.6186 -0.8088
  542MOL0     H73161   0.892  11.127  10.518 -0.5002 -0.0065 -0.8811
  542MOL0     H73162   0.737  11.045  10.682 -0.7078  0.4527  0.1467
  542MOL0     H73163   0.681  10.916  10.577  0.5674  0.0109  0.4889
  542MOL0     H73164   0.587  11.083  10.413  1.4049 -0.3478 -0.5417
  542MOL0     H73165   0.522  11.078  10.580 -0.6889 -3.0734 -1.9781
  542MOL0     H73166   0.686  11.474  10.493  0.8594 -1.0022 -0.7246
  542MOL0     H73167   1.278  10.867  10.315  0.3414  0.5705  0.2245
  542MOL0     H73168   1.616  10.885  10.354 -1.0454  1.5836  0.9480
  542MOL0     H73169   1.573  10.715  10.394 -1.2887 -0.7415  0.9188
  542MOL0     H73170   1.484  10.810  10.265 -1.2541 -0.4316  0.9766
  543MOL0     O73171   2.098   2.724  10.639  0.1036 -0.8364  0.4652
  543MOL0     C73172   2.025   2.693  10.546  0.7708 -0.4004  0.5771
  543MOL0     O73173   2.060   2.610  10.447  0.0448 -0.5019 -0.0287
  543MOL0     C73174   2.182   2.545  10.452  0.4607 -0.6082  0.0092
  543MOL0     C73175   2.190   2.408  10.459  0.1060 -0.9565  0.3107
  543MOL0     C73176   2.312   2.347  10.467 -1.1755  0.2845  0.8796
  543MOL0     C73177   2.428   2.421  10.480  0.2643  0.5492 -0.0568
  543MOL0     O73178   2.556   2.368  10.486  0.4690  0.8001  0.0526
  543MOL0     C73179   2.580   2.229  10.521 -0.6247  0.7350  0.3240
  543MOL0     C73180   2.731   2.195  10.485  0.4478  0.6859  0.4648
  543MOL0     C73181   2.781   2.056  10.527 -0.0283  0.6442  0.7688
  543MOL0     C73182   2.719   1.934  10.455  0.3657  0.0326 -0.7836
  543MOL0     C73183   2.792   1.805  10.480  0.2356  0.0822 -0.1665
  543MOL0     C73184   2.919   1.764  10.401  0.9890  0.6108  0.5535
  543MOL0     C73185   3.035   1.836  10.456 -1.1193  0.1071  0.5277
  543MOL0     C73186   3.164   1.774  10.394 -0.2800  0.1592  0.2690
  543MOL0     N73187   3.218   1.865  10.289  0.2910  0.5529 -0.1626
  543MOL0     C73188   3.168   1.903  10.160  0.4565  0.1229  0.4025
  543MOL0     C73189   3.242   2.017  10.137  0.5434  0.0731 -0.3044
  543MOL0     C73190   3.224   2.107  10.019  0.1666 -0.7841  0.1493
  543MOL0     C73191   3.336   2.209  10.014 -0.2111  0.2637 -0.0988
  543MOL0     C73192   3.312   2.315   9.912  0.5634  1.0943 -0.0157
  543MOL0     C73193   3.423   2.421   9.905  0.2461  0.5622  0.1537
  543MOL0     O73194   3.401   2.529   9.818  0.5701 -0.4985  0.2000
  543MOL0     C73195   3.492   2.585   9.723 -0.0313  0.6808 -0.6737
  543MOL0     C73196   3.459   2.683   9.638 -0.1297 -0.4131  0.2794
  543MOL0     C73197   3.555   2.738   9.546 -0.5678  0.4814  0.3493
  543MOL0     C73198   3.689   2.695   9.542  0.2430  0.2937  0.1392
  543MOL0     C73199   3.791   2.760   9.446  0.6909  0.1540  0.3619
  543MOL0     O73200   3.740   2.842   9.342 -0.7402  0.2513  0.1880
  543MOL0     C73201   3.819   2.927   9.268  0.2463 -0.8473 -0.8384
  543MOL0     C73202   3.960   2.937   9.269 -0.0405 -0.3181 -0.0907
  543MOL0     C73203   4.028   3.030   9.183  0.3245 -0.6052 -0.1668
  543MOL0     C73204   3.960   3.114   9.096  0.0869 -0.7195  0.1061
  543MOL0     O73205   4.025   3.203   9.016  0.3581 -0.0181  0.0531
  543MOL0     C73206   4.153   3.158   8.964 -0.6173 -0.3553 -0.2175
  543MOL0     C73207   4.211   3.255   8.856 -1.0747  0.4871  0.4691
  543MOL0     C73208   4.244   3.397   8.925  0.0996 -0.3312  0.7743
  543MOL0     C73209   4.231   3.510   8.820  0.2737  0.4473  0.3908
  543MOL0     C73210   4.216   3.642   8.890  0.6644 -0.2746  0.4453
  543MOL0     C73211   4.212   3.749   8.773  0.0233  0.3438  0.3057
  543MOL0     C73212   4.174   3.879   8.843  0.0044 -0.1412  0.2417
  543MOL0     C73213   4.197   3.990   8.741 -0.5890 -0.5024  0.4856
  543MOL0    Cl73214   4.080   4.122   8.767  0.1281  0.2397 -0.1568
  543MOL0     C73215   3.823   3.106   9.085 -0.1248 -0.1555  0.1305
  543MOL0     C73216   3.755   3.013   9.170  0.2259  0.7413  0.6263
  543MOL0     O73217   3.902   2.727   9.458  0.0725 -0.2177  0.1373
  543MOL0     C73218   3.724   2.600   9.638 -0.9055  1.1595  0.9507
  543MOL0     C73219   3.625   2.547   9.728 -0.4627 -0.3404 -0.3681
  543MOL0     N73220   3.336   2.032  10.238  0.4654  0.2859 -0.2954
  543MOL0     N73221   3.325   1.941  10.322 -0.2439 -0.0652  0.3834
  543MOL0     C73222   2.421   2.559  10.470  0.4167 -0.4929 -0.3840
  543MOL0     C73223   2.297   2.619  10.462 -0.0308  0.2587  0.0812
  543MOL0     C73224   1.889   2.745  10.546 -0.0512 -0.7723  0.2667
  543MOL0     C73225   1.784   2.647  10.544  0.4772 -0.0259  0.1795
  543MOL0     C73226   1.652   2.687  10.536  0.5418  0.8921  0.8156
  543MOL0     C73227   1.613   2.816  10.551 -0.0402 -0.0936 -0.5731
  543MOL0     O73228   1.477   2.852  10.549  0.1002  0.4158 -0.0359
  543MOL0     C73229   1.373   2.772  10.609 -0.6009 -0.1436  0.2929
  543MOL0     C73230   1.251   2.793  10.527 -0.4475  0.2438  0.3075
  543MOL0     C73231   1.138   2.720  10.596  0.4326  0.9358 -0.5739
  543MOL0     C73232   0.999   2.713  10.522 -0.4241  0.1723  0.1677
  543MOL0     C73233   0.954   2.851  10.490  0.3755 -0.3566  0.4021
  543MOL0     C73234   0.923   2.967  10.471 -0.2750 -0.5918  0.1416
  543MOL0     C73235   1.716   2.917  10.546 -0.2547 -0.0940  0.1609
  543MOL0     C73236   1.852   2.884  10.537  0.1114  0.9735 -0.2045
  543MOL0     C73237   1.957   2.994  10.505  0.2033 -0.0943  0.0113
  543MOL0     H73238   2.101   2.347  10.470 -0.5778 -0.2958 -1.2629
  543MOL0     H73239   2.313   2.240  10.485 -0.4053  0.6952  3.8387
  543MOL0     H73240   2.574   2.194  10.625  2.3620 -1.4632 -0.1300
  543MOL0     H73241   2.516   2.167  10.457  2.2527 -0.1318 -1.8942
  543MOL0     H73242   2.793   2.270  10.534  1.0040  0.6480 -0.1615
  543MOL0     H73243   2.736   2.218  10.378 -0.0603  0.8097  0.4646
  543MOL0     H73244   2.758   2.045  10.633  2.0155 -0.4813  1.1399
  543MOL0     H73245   2.890   2.067  10.522 -0.2258  2.7808  0.1877
  543MOL0     H73246   2.612   1.917  10.468  0.5240 -0.1386  0.4601
  543MOL0     H73247   2.740   1.958  10.350  0.4678 -1.2590 -1.0653
  543MOL0     H73248   2.810   1.796  10.588  0.8045 -2.9638 -0.4282
  543MOL0     H73249   2.717   1.728  10.458 -2.4950  1.7889  2.3658
  543MOL0     H73250   2.940   1.659  10.423 -0.0650  0.7877  2.6636
  543MOL0     H73251   2.909   1.778  10.293 -1.2111  0.5844  0.7037
  543MOL0     H73252   3.037   1.831  10.565  1.0448  1.8381  0.6269
  543MOL0     H73253   3.028   1.942  10.430  0.9215  0.0719 -0.3021
  543MOL0     H73254   3.239   1.755  10.471 -0.8851 -1.0924  0.5748
  543MOL0     H73255   3.140   1.676  10.351  0.4034 -0.3567  1.0469
  543MOL0     H73256   3.082   1.867  10.105 -0.6486  3.2288 -0.1216
  543MOL0     H73257   3.219   2.043   9.930 -0.7757 -0.0212 -0.3783
  543MOL0     H73258   3.132   2.167  10.019 -0.6964 -2.0699  0.4525
  543MOL0     H73259   3.338   2.258  10.112  1.0125 -3.9230  2.2347
  543MOL0     H73260   3.436   2.171   9.989  0.6800 -0.2627  3.6616
  543MOL0     H73261   3.214   2.362   9.928  0.9801  1.8377  0.3791
  543MOL0     H73262   3.311   2.271   9.812 -0.2749 -0.5907  0.6933
  543MOL0     H73263   3.510   2.367   9.865  0.8773  3.5650 -2.9658
  543MOL0     H73264   3.443   2.457  10.007  1.8506 -2.7282  1.1840
  543MOL0     H73265   3.357   2.710   9.612 -0.2582 -1.2506 -0.1273
  543MOL0     H73266   3.519   2.808   9.471 -4.8532 -2.4074 -0.6771
  543MOL0     H73267   4.030   2.883   9.332  0.9905 -0.6353 -1.4625
  543MOL0     H73268   4.135   3.026   9.199  0.5506 -3.2985 -1.8023
  543MOL0     H73269   4.221   3.168   9.049  0.0767  2.1448 -0.9798
  543MOL0     H73270   4.149   3.059   8.918 -1.9859  0.8565 -2.9568
  543MOL0     H73271   4.303   3.206   8.822 -0.9894 -0.0449  1.4261
  543MOL0     H73272   4.133   3.266   8.779  1.5238  2.4704 -2.0929
  543MOL0     H73273   4.174   3.425   9.005  0.2679 -0.6724  1.0424
  543MOL0     H73274   4.346   3.404   8.963  0.7831  0.1570 -1.0697
  543MOL0     H73275   4.139   3.492   8.764  0.7209  0.9097 -0.5156
  543MOL0     H73276   4.310   3.506   8.745  1.1931 -0.4410  1.3666
  543MOL0     H73277   4.283   3.652   8.976 -1.5116 -0.2357  2.2043
  543MOL0     H73278   4.113   3.639   8.927 -0.1884 -1.6458 -1.8155
  543MOL0     H73279   4.309   3.757   8.723  0.3130 -2.4229  0.2723
  543MOL0     H73280   4.136   3.729   8.698 -0.8918  2.8462  0.4960
  543MOL0     H73281   4.247   3.888   8.924  1.6468 -0.5691 -1.1314
  543MOL0     H73282   4.069   3.869   8.872 -0.0051 -0.6135  0.0510
  543MOL0     H73283   4.299   4.027   8.756  0.1944 -1.9007 -1.1198
  543MOL0     H73284   4.186   3.947   8.642  1.2643 -2.4316  1.0478
  543MOL0     H73285   3.782   3.166   9.004 -1.2757 -0.1705  0.6842
  543MOL0     H73286   3.649   2.991   9.157  0.9623 -3.3366 -0.1208
  543MOL0     H73287   3.825   2.566   9.657 -1.8485 -2.9878 -0.4391
  543MOL0     H73288   3.650   2.465   9.795  2.7755 -1.6996 -2.9449
  543MOL0     H73289   2.504   2.627  10.488 -0.0785 -0.0089  0.0873
  543MOL0     H73290   2.298   2.725  10.484 -0.3181  0.3703 -0.4444
  543MOL0     H73291   1.806   2.544  10.569  1.4814  0.6219  2.2139
  543MOL0     H73292   1.571   2.617  10.519 -1.0203  3.0123 -1.1602
  543MOL0     H73293   1.361   2.790  10.716 -0.9826  1.1175  0.0568
  543MOL0     H73294   1.397   2.665  10.607  0.9267  0.1012  2.4511
  543MOL0     H73295   1.274   2.758  10.426 -0.3172  1.1800 -0.0024
  543MOL0     H73296   1.225   2.899  10.518  0.7550  0.3947 -2.5157
  543MOL0     H73297   1.116   2.760  10.695 -0.9547 -3.1827  0.9828
  543MOL0     H73298   1.172   2.617  10.610  2.9849  1.6255 -1.1619
  543MOL0     H73299   1.008   2.648  10.434 -0.2104 -1.1826  1.1655
  543MOL0     H73300   0.926   2.668  10.590  0.0529  0.3711  0.8120
  543MOL0     H73301   0.895   3.071  10.469 -2.7264 -1.2035 -1.0342
  543MOL0     H73302   1.687   3.021  10.543 -0.6671 -0.0463  2.8275
  543MOL0     H73303   1.924   3.052  10.418 -1.7783 -0.2511  0.6077
  543MOL0     H73304   1.962   3.049  10.599 -0.1183 -0.7811  0.4439
  543MOL0     H73305   2.055   2.953  10.477 -1.0943 -2.6730 -1.1709
  544MOL0     O73306   6.259   5.933   3.342 -0.4285 -0.0358 -0.1706
  544MOL0     C73307   6.207   6.005   3.265  0.0180  0.4877  0.2149
  544MOL0     O73308   6.266   6.127   3.221 -0.3298 -0.4660  0.4667
  544MOL0     C73309   6.399   6.157   3.244 -0.5484 -0.6291 -0.2262
  544MOL0     C73310   6.469   6.170   3.361 -0.6559 -0.6127  0.3562
  544MOL0     C73311   6.611   6.205   3.367  0.6352  0.0747 -0.2936
  544MOL0     C73312   6.687   6.229   3.250 -0.2702 -0.0225  0.0106
  544MOL0     O73313   6.823   6.261   3.249 -0.1835  0.2947 -0.4109
  544MOL0     C73314   6.866   6.325   3.370  0.4346 -0.2417 -0.9857
  544MOL0     C73315   6.996   6.391   3.344 -0.5997 -0.3170  1.0587
  544MOL0     C73316   7.106   6.291   3.295 -0.2209  0.0610  0.1856
  544MOL0     C73317   7.231   6.374   3.248 -0.9220 -0.2458 -0.3210
  544MOL0     C73318   7.327   6.289   3.164 -0.6559 -1.6754  0.0048
  544MOL0     C73319   7.457   6.350   3.124 -0.8986 -1.0241 -0.7719
  544MOL0     C73320   7.559   6.245   3.079 -0.4977 -0.5944  0.3281
  544MOL0     C73321   7.688   6.315   3.033  0.4425  0.3570  0.9658
  544MOL0     N73322   7.788   6.228   2.982  0.3185 -0.1483 -0.1612
  544MOL0     C73323   7.801   6.091   2.989  0.6861 -0.1245  0.1723
  544MOL0     C73324   7.909   6.063   2.915 -0.4237  0.3797  0.8535
  544MOL0     C73325   7.954   5.923   2.890 -0.6537 -0.3010 -0.4813
  544MOL0     C73326   7.922   5.884   2.750 -0.2555 -0.3300 -0.7327
  544MOL0     C73327   7.874   5.734   2.751 -1.1850 -0.7764  0.1455
  544MOL0     C73328   7.987   5.654   2.687 -0.6436 -0.0261  0.6003
  544MOL0     O73329   8.108   5.664   2.764 -0.2894 -0.2597  0.4943
  544MOL0     C73330   8.221   5.609   2.699  0.1723 -0.4392  0.6542
  544MOL0     C73331   8.326   5.583   2.787 -0.2501 -0.5272 -0.3756
  544MOL0     C73332   8.440   5.519   2.742 -0.8559 -0.2004 -0.7566
  544MOL0     C73333   8.456   5.500   2.602 -0.4179 -0.4384 -0.9779
  544MOL0     C73334   8.588   5.462   2.557  0.6572  0.3747  0.6661
  544MOL0     O73335   8.670   5.411   2.645  0.0593  0.2219  0.3257
  544MOL0     C73336   8.807   5.391   2.621 -0.0491 -0.7389 -0.3336
  544MOL0     C73337   8.865   5.266   2.664  0.0618 -0.2126 -0.6203
  544MOL0     C73338   9.002   5.232   2.629  0.1620  0.0272 -0.0105
  544MOL0     C73339   9.082   5.331   2.567  0.1261  0.3802 -0.0441
  544MOL0     O73340   9.217   5.312   2.532  0.6573 -0.0899  0.0152
  544MOL0     C73341   9.283   5.195   2.570  0.7797  0.1362 -0.7855
  544MOL0     C73342   9.427   5.203   2.564  0.0721 -1.5962 -0.3766
  544MOL0     C73343   9.474   5.315   2.663 -0.9141 -0.4959  0.1442
  544MOL0     C73344   9.626   5.320   2.664 -0.2941 -0.3089 -0.7710
  544MOL0     C73345   9.685   5.411   2.556  0.7491  0.0224  0.1056
  544MOL0     C73346   9.836   5.380   2.543  0.8410 -0.8976  0.0089
  544MOL0     C73347   9.890   5.450   2.418  1.2149  0.3701  0.2132
  544MOL0     C73348  10.029   5.378   2.382  0.8139 -0.4985 -0.7930
  544MOL0    Cl73349  10.012   5.218   2.290  0.1630 -0.4914 -0.5937
  544MOL0     C73350   9.029   5.453   2.529  0.1891  0.4692 -0.6792
  544MOL0     C73351   8.895   5.488   2.561 -0.6809 -0.5272  0.9352
  544MOL0     O73352   8.620   5.461   2.434  0.6908  1.0785  0.0485
  544MOL0     C73353   8.345   5.516   2.519  0.1041 -0.7671  0.4661
  544MOL0     C73354   8.233   5.582   2.565  0.9785 -0.3212 -0.7870
  544MOL0     N73355   7.969   6.181   2.881  0.2463  0.5984  0.2283
  544MOL0     N73356   7.897   6.279   2.922  0.2421 -0.4841  0.2416
  544MOL0     C73357   6.616   6.232   3.131 -0.6724 -0.5177 -1.3402
  544MOL0     C73358   6.479   6.198   3.131  0.4004  0.1448  0.3205
  544MOL0     C73359   6.073   5.971   3.209 -0.0765  0.3740  0.4010
  544MOL0     C73360   6.030   6.029   3.088 -0.0274 -0.6407 -0.9289
  544MOL0     C73361   5.917   5.984   3.019 -0.8566 -0.2512 -0.5259
  544MOL0     C73362   5.832   5.885   3.075 -0.7037 -0.6650  0.4153
  544MOL0     O73363   5.717   5.853   3.005  0.3138  0.5614 -0.8066
  544MOL0     C73364   5.601   5.793   3.073  0.5912 -0.1028 -0.0010
  544MOL0     C73365   5.543   5.908   3.162  1.2287 -0.4950 -0.9938
  544MOL0     C73366   5.386   5.896   3.170 -0.0207  0.2483 -0.4652
  544MOL0     C73367   5.313   5.948   3.037 -0.5712  0.0031  0.4875
  544MOL0     C73368   5.174   5.932   3.029  0.5201  0.0982 -0.8662
  544MOL0     C73369   5.053   5.935   3.023  0.4137  0.9743 -0.6701
  544MOL0     C73370   5.871   5.837   3.203  0.1308 -0.1029  0.4718
  544MOL0     C73371   5.990   5.869   3.268  0.4183 -0.3589 -0.1064
  544MOL0     C73372   6.006   5.806   3.402  0.4428  0.5222 -0.0784
  544MOL0     H73373   6.426   6.148   3.458 -1.5589  1.2695  0.4268
  544MOL0     H73374   6.659   6.204   3.464  1.0039  0.9002 -0.4581
  544MOL0     H73375   6.786   6.394   3.398 -1.1642 -0.9133 -3.5253
  544MOL0     H73376   6.890   6.239   3.432 -0.7580 -2.0106 -2.8206
  544MOL0     H73377   7.036   6.443   3.432 -0.6461 -0.9064  1.4363
  544MOL0     H73378   6.984   6.474   3.274  2.3834  1.4480  2.4240
  544MOL0     H73379   7.061   6.242   3.208 -3.2014  2.0378  0.4586
  544MOL0     H73380   7.134   6.217   3.370  0.7724  1.2656  1.0536
  544MOL0     H73381   7.206   6.459   3.184  2.3136  2.9433  2.1966
  544MOL0     H73382   7.284   6.418   3.333 -2.2597  0.9905 -0.1040
  544MOL0     H73383   7.340   6.200   3.226  1.7764  0.8466  3.5332
  544MOL0     H73384   7.281   6.261   3.069 -0.9183  1.4125 -0.8857
  544MOL0     H73385   7.450   6.430   3.049  0.3107 -0.0432  0.1029
  544MOL0     H73386   7.504   6.388   3.215 -0.4027 -0.1115 -1.3886
  544MOL0     H73387   7.519   6.183   2.997  0.9590 -0.1198 -0.7919
  544MOL0     H73388   7.573   6.185   3.169  0.1266  0.5036  0.9767
  544MOL0     H73389   7.666   6.396   2.963 -0.9471 -0.3809  0.5161
  544MOL0     H73390   7.729   6.357   3.125  0.2852 -0.2001  1.2933
  544MOL0     H73391   7.744   6.020   3.048 -1.2014  0.6801 -0.5944
  544MOL0     H73392   8.060   5.911   2.912 -0.9849  1.6974  2.8945
  544MOL0     H73393   7.909   5.854   2.962 -3.9969  1.0418 -1.0725
  544MOL0     H73394   7.836   5.942   2.713 -1.7306 -0.8613  1.6611
  544MOL0     H73395   8.009   5.886   2.684  0.5068 -0.2326  0.2739
  544MOL0     H73396   7.785   5.726   2.688 -0.0539 -0.4111 -1.5766
  544MOL0     H73397   7.841   5.704   2.851 -4.2984 -0.9100 -0.8226
  544MOL0     H73398   8.003   5.691   2.586 -1.0412 -1.2981  0.0522
  544MOL0     H73399   7.963   5.547   2.681  0.6050 -0.4675  2.3431
  544MOL0     H73400   8.312   5.601   2.893 -4.7018 -1.5285 -0.6087
  544MOL0     H73401   8.526   5.506   2.807 -0.6202 -2.5120 -1.4510
  544MOL0     H73402   8.807   5.193   2.717  1.0861  1.2477  2.7630
  544MOL0     H73403   9.044   5.134   2.646 -1.5032 -0.6526  0.4496
  544MOL0     H73404   9.251   5.158   2.667  2.3062  1.7077  0.3815
  544MOL0     H73405   9.249   5.115   2.504  0.0806  1.7592 -2.5097
  544MOL0     H73406   9.468   5.104   2.584  1.7258 -0.8960 -0.1347
  544MOL0     H73407   9.450   5.242   2.464  0.8916 -4.4417 -1.3982
  544MOL0     H73408   9.429   5.412   2.642  0.3683  0.3533  1.2295
  544MOL0     H73409   9.433   5.292   2.762  0.1145  1.2934  1.0280
  544MOL0     H73410   9.681   5.225   2.671 -0.0512 -0.1470 -0.4910
  544MOL0     H73411   9.648   5.366   2.761  2.3470 -1.0894 -0.9336
  544MOL0     H73412   9.665   5.511   2.594 -0.7942 -0.6607  1.2176
  544MOL0     H73413   9.632   5.400   2.461 -0.7657  1.6325  0.7258
  544MOL0     H73414   9.891   5.426   2.625 -1.1505  0.6348  0.5828
  544MOL0     H73415   9.857   5.274   2.527 -0.6429 -1.2779  0.3692
  544MOL0     H73416   9.893   5.558   2.433 -2.9552  0.8975 -1.4357
  544MOL0     H73417   9.825   5.445   2.331  2.7747 -0.7637 -0.9678
  544MOL0     H73418  10.083   5.449   2.318  0.3187 -1.1036 -1.8985
  544MOL0     H73419  10.091   5.370   2.472  1.3199  0.4245 -1.0477
  544MOL0     H73420   9.093   5.532   2.491 -0.0193  0.3031 -1.3899
  544MOL0     H73421   8.865   5.587   2.530  1.6012 -0.0609  0.0481
  544MOL0     H73422   8.366   5.495   2.414  1.2888 -0.5945  0.6498
  544MOL0     H73423   8.159   5.617   2.493 -0.3884 -3.4029 -1.0393
  544MOL0     H73424   6.670   6.257   3.040  1.0650 -0.5941 -0.3802
  544MOL0     H73425   6.429   6.193   3.035 -3.7970 -0.7578  2.3107
  544MOL0     H73426   6.087   6.114   3.052  0.8377 -0.9332 -0.2953
  544MOL0     H73427   5.888   6.026   2.923 -3.8406 -0.5121  0.1465
  544MOL0     H73428   5.613   5.701   3.131  2.8437  0.3422  0.3048
  544MOL0     H73429   5.529   5.770   2.994  0.0224  0.6645  0.2816
  544MOL0     H73430   5.574   6.009   3.134  1.1634  0.1015  0.9554
  544MOL0     H73431   5.587   5.896   3.262  1.2736  1.1816 -0.7736
  544MOL0     H73432   5.341   5.964   3.243 -0.3441  0.0932 -0.5187
  544MOL0     H73433   5.352   5.795   3.194 -1.1150  0.4106 -1.2429
  544MOL0     H73434   5.321   6.057   3.038  0.4580 -0.0643  0.9630
  544MOL0     H73435   5.363   5.922   2.943  2.2742  1.8045  1.3940
  544MOL0     H73436   4.946   5.928   3.013  0.5315 -0.5855 -1.1331
  544MOL0     H73437   5.797   5.772   3.246 -2.9403  3.5477  1.2404
  544MOL0     H73438   5.911   5.771   3.444  0.3155 -2.1280 -2.3080
  544MOL0     H73439   6.076   5.723   3.386  2.4774  2.3743 -1.4697
  544MOL0     H73440   6.041   5.877   3.477 -0.3667  2.3051 -1.3290
  545MOL0     O73441   3.668   3.512   0.668 -0.0998  0.6011  0.1081
  545MOL0     C73442   3.676   3.631   0.680 -0.6449 -0.4583 -0.9500
  545MOL0     O73443   3.779   3.716   0.646 -0.5629  0.2319 -0.3254
  545MOL0     C73444   3.885   3.643   0.612  0.3294 -0.2245 -0.5736
  545MOL0     C73445   3.918   3.639   0.478 -0.5985  0.3849 -0.2146
  545MOL0     C73446   4.021   3.561   0.436  0.7561  0.0290 -0.5978
  545MOL0     C73447   4.095   3.479   0.521 -0.8587  1.1664 -0.7519
  545MOL0     O73448   4.196   3.394   0.470  0.6105  0.1712  0.1113
  545MOL0     C73449   4.306   3.344   0.549 -1.1873 -0.2418  0.2112
  545MOL0     C73450   4.409   3.264   0.468  0.3662 -1.1610 -0.3996
  545MOL0     C73451   4.478   3.350   0.359 -0.4921  0.6399  0.2311
  545MOL0     C73452   4.600   3.268   0.287  0.3836  0.4381 -0.5569
  545MOL0     C73453   4.669   3.370   0.193  0.4199 -0.2405  0.4655
  545MOL0     C73454   4.777   3.307   0.095 -0.2704  0.2380 -0.6515
  545MOL0     C73455   4.896   3.252   0.163 -1.1203 -0.1319 -0.8502
  545MOL0     C73456   5.001   3.350   0.228  0.7251 -0.4458 -0.7714
  545MOL0     N73457   5.122   3.284   0.284  0.7192 -0.3517 -0.2538
  545MOL0     C73458   5.176   3.298   0.410  0.2895 -0.7330 -0.1689
  545MOL0     C73459   5.307   3.255   0.392  0.5438 -0.6806  1.0632
  545MOL0     C73460   5.416   3.257   0.499  1.2338 -1.0796  0.4797
  545MOL0     C73461   5.395   3.134   0.591 -0.6316 -0.4219 -0.4951
  545MOL0     C73462   5.435   3.002   0.522 -0.3935  0.3260  0.3918
  545MOL0     C73463   5.582   2.991   0.464 -0.4685 -0.1859 -0.0804
  545MOL0     O73464   5.664   3.038   0.574  0.2189 -0.7089  0.4368
  545MOL0     C73465   5.799   3.046   0.548  0.1560 -0.5486  0.7329
  545MOL0     C73466   5.859   2.988   0.432 -0.0011 -0.6059  0.9910
  545MOL0     C73467   5.995   3.001   0.413 -0.1615 -0.4712  0.1644
  545MOL0     C73468   6.078   3.063   0.510  0.0652  0.1412  0.9439
  545MOL0     C73469   6.209   3.102   0.467 -0.4875  0.0416  0.4659
  545MOL0     O73470   6.274   3.024   0.384  0.4009 -0.1683  0.0772
  545MOL0     C73471   6.398   3.060   0.355 -0.0547 -0.2813 -0.1934
  545MOL0     C73472   6.503   2.967   0.399  0.8563 -0.3177 -0.1528
  545MOL0     C73473   6.637   2.994   0.358  0.4604  0.4283  0.1132
  545MOL0     C73474   6.677   3.109   0.298 -0.0308  0.1186 -0.0325
  545MOL0     O73475   6.808   3.126   0.267 -0.0222 -0.5166 -1.2080
  545MOL0     C73476   6.859   3.233   0.190 -0.1520  0.6099 -0.6176
  545MOL0     C73477   6.842   3.214   0.040 -0.0821  0.2774  0.4910
  545MOL0     C73478   6.909   3.322  -0.042  0.2007  0.2371  0.7489
  545MOL0     C73479   6.907   3.285  -0.193  0.9442  0.3942 -0.0682
  545MOL0     C73480   6.981   3.393  -0.272  0.1555 -0.2389 -0.2150
  545MOL0     C73481   7.005   3.355  -0.418  0.1459 -0.0580 -0.0982
  545MOL0     C73482   7.049   3.477  -0.501 -0.6889 -0.1471  0.5640
  545MOL0     C73483   7.107   3.442  -0.640 -0.5823  0.0686  0.7939
  545MOL0    Cl73484   7.168   3.592  -0.718  0.0135  0.1293 -0.2140
  545MOL0     C73485   6.574   3.201   0.264  0.4638  0.0093  0.8352
  545MOL0     C73486   6.439   3.170   0.283  0.2324 -0.4300  0.1387
  545MOL0     O73487   6.257   3.192   0.542  0.1056 -0.1271  0.2309
  545MOL0     C73488   6.027   3.106   0.629 -0.0932 -0.0240 -0.6814
  545MOL0     C73489   5.886   3.101   0.647  0.1031 -0.1250  0.6358
  545MOL0     N73490   5.322   3.210   0.266  0.3540 -0.1119 -0.6711
  545MOL0     N73491   5.212   3.214   0.214 -0.2890  0.0517 -0.4285
  545MOL0     C73492   4.068   3.486   0.660  1.0655 -0.1129 -0.0704
  545MOL0     C73493   3.965   3.569   0.707  0.6548  0.1740  0.2701
  545MOL0     C73494   3.546   3.687   0.735  0.4657 -0.0912  0.0797
  545MOL0     C73495   3.428   3.618   0.693 -1.1526  0.4729  0.2264
  545MOL0     C73496   3.308   3.659   0.733  0.1223  0.6348 -0.3412
  545MOL0     C73497   3.298   3.772   0.819 -0.3709 -0.5719 -0.5102
  545MOL0     O73498   3.182   3.835   0.866 -0.0737 -0.3178  0.1877
  545MOL0     C73499   3.049   3.778   0.848 -0.3605 -0.2648  0.4913
  545MOL0     C73500   3.008   3.745   0.991 -0.6167 -0.6389 -0.6354
  545MOL0     C73501   2.986   3.876   1.074 -0.1849 -0.7016  0.1924
  545MOL0     C73502   2.954   3.849   1.222 -0.0704  0.5252 -0.5940
  545MOL0     C73503   2.923   3.968   1.280 -0.3742 -0.2915 -0.0671
  545MOL0     C73504   2.907   4.072   1.327 -0.0940  0.0355 -0.2917
  545MOL0     C73505   3.413   3.836   0.860  0.5437  0.1886  0.0904
  545MOL0     C73506   3.539   3.797   0.819  0.5834  0.0743  0.3468
  545MOL0     C73507   3.649   3.879   0.872  0.3826 -0.3528  1.1497
  545MOL0     H73508   3.864   3.697   0.403 -3.4238  0.9060  2.0573
  545MOL0     H73509   4.057   3.553   0.334  1.5295 -0.8268 -0.2622
  545MOL0     H73510   4.365   3.434   0.566  0.7423 -1.0359 -1.7592
  545MOL0     H73511   4.272   3.289   0.637 -1.3730  0.1914  0.4138
  545MOL0     H73512   4.357   3.180   0.419  0.5265  0.0817 -2.8179
  545MOL0     H73513   4.477   3.215   0.538 -0.9580 -1.9202  0.4175
  545MOL0     H73514   4.529   3.436   0.403  1.5961 -0.5131  0.1788
  545MOL0     H73515   4.409   3.374   0.277 -0.4924  0.2856  0.1272
  545MOL0     H73516   4.676   3.232   0.358  2.3580 -0.0715 -2.8022
  545MOL0     H73517   4.566   3.178   0.235 -1.7150 -0.3891  1.9894
  545MOL0     H73518   4.597   3.431   0.136 -0.9932 -1.4266  0.9390
  545MOL0     H73519   4.740   3.437   0.243  1.4479 -0.8636 -0.1293
  545MOL0     H73520   4.726   3.233   0.032  0.1057 -0.9435  0.4079
  545MOL0     H73521   4.801   3.386   0.022  1.1580 -1.1370 -1.7354
  545MOL0     H73522   4.955   3.185   0.100 -0.4064 -1.7438  1.3790
  545MOL0     H73523   4.860   3.193   0.249  2.4865 -1.1806  0.1132
  545MOL0     H73524   5.034   3.421   0.152  0.3573 -0.2155 -0.7164
  545MOL0     H73525   4.945   3.412   0.299 -0.4356 -3.5593  1.2387
  545MOL0     H73526   5.136   3.357   0.492  0.9363  2.6711 -2.1005
  545MOL0     H73527   5.512   3.290   0.458 -0.5016  3.8017 -0.3001
  545MOL0     H73528   5.399   3.350   0.554  0.2129 -2.8559  3.4339
  545MOL0     H73529   5.458   3.170   0.673  0.1589  3.0904 -2.4316
  545MOL0     H73530   5.289   3.130   0.618 -0.6941 -2.4500 -0.9112
  545MOL0     H73531   5.364   2.991   0.440 -0.1128 -0.5466  0.2574
  545MOL0     H73532   5.432   2.920   0.594 -3.2297 -0.4983 -0.5387
  545MOL0     H73533   5.598   3.046   0.371  0.8810  0.4949  0.5235
  545MOL0     H73534   5.610   2.887   0.445  1.0817 -0.3630  2.7083
  545MOL0     H73535   5.805   2.946   0.348  0.6775 -0.5227  0.4988
  545MOL0     H73536   6.041   2.974   0.318  6.5616 -1.1132  3.0095
  545MOL0     H73537   6.469   2.879   0.453  0.1181  0.4415  0.6500
  545MOL0     H73538   6.710   2.919   0.387  0.4919 -0.5798 -2.3755
  545MOL0     H73539   6.820   3.327   0.229 -0.3624  0.9808 -1.6806
  545MOL0     H73540   6.965   3.250   0.210 -0.1778  0.1124 -0.0232
  545MOL0     H73541   6.892   3.119   0.019  0.1238  0.0246  1.9946
  545MOL0     H73542   6.733   3.219   0.029 -0.2232  2.7170  2.2252
  545MOL0     H73543   6.864   3.421  -0.031  0.2265  0.3932 -0.4589
  545MOL0     H73544   7.012   3.322  -0.007  1.4239 -2.4919 -2.2900
  545MOL0     H73545   6.810   3.267  -0.239  1.9323 -4.1512 -0.8432
  545MOL0     H73546   6.963   3.192  -0.210  0.6288 -0.1150  1.5301
  545MOL0     H73547   7.074   3.422  -0.221 -0.1876 -1.1652  1.0017
  545MOL0     H73548   6.911   3.477  -0.268 -2.1564 -2.0334  4.4661
  545MOL0     H73549   7.087   3.282  -0.415  0.3615  0.1550  3.0334
  545MOL0     H73550   6.911   3.323  -0.462  0.1279 -0.7306  0.4103
  545MOL0     H73551   7.125   3.537  -0.451 -1.2783  0.5988  0.5764
  545MOL0     H73552   6.972   3.555  -0.506 -1.7635 -1.1752  0.4548
  545MOL0     H73553   7.189   3.374  -0.616  1.3974  3.2431  4.1314
  545MOL0     H73554   7.024   3.401  -0.697 -2.3719  2.1874  1.7412
  545MOL0     H73555   6.590   3.298   0.216  0.7141 -0.4035  0.0712
  545MOL0     H73556   6.360   3.244   0.271 -0.8601 -1.1787  2.1997
  545MOL0     H73557   6.090   3.152   0.704 -0.3579  1.3350 -1.2612
  545MOL0     H73558   5.835   3.144   0.732  0.3655 -3.4325  2.6447
  545MOL0     H73559   4.126   3.411   0.714  2.2505 -2.4760 -4.1729
  545MOL0     H73560   3.937   3.567   0.812 -1.1908 -0.3295 -0.1941
  545MOL0     H73561   3.431   3.537   0.621 -1.0277  0.3613  0.3556
  545MOL0     H73562   3.224   3.599   0.700  0.3481 -0.4924  1.0328
  545MOL0     H73563   3.045   3.693   0.778  1.0914  0.8836 -1.0704
  545MOL0     H73564   2.973   3.844   0.805 -1.1416  1.6892  4.4221
  545MOL0     H73565   3.101   3.700   1.026 -0.1083 -0.8445 -2.1616
  545MOL0     H73566   2.922   3.678   0.993 -0.6270 -0.6724 -1.6100
  545MOL0     H73567   2.905   3.936   1.031  1.1531  0.9617 -0.1385
  545MOL0     H73568   3.074   3.940   1.085 -1.1885  0.5105  1.7711
  545MOL0     H73569   2.871   3.778   1.225 -1.2170  1.8053 -0.9372
  545MOL0     H73570   3.031   3.801   1.284 -2.0046 -1.6165  0.2967
  545MOL0     H73571   2.921   4.166   1.376  2.3446 -0.6076  0.3809
  545MOL0     H73572   3.411   3.914   0.935 -0.1261  2.1274 -1.8583
  545MOL0     H73573   3.718   3.811   0.922  1.4053 -0.0181  0.2480
  545MOL0     H73574   3.706   3.921   0.788  1.6532  1.0935  2.6679
  545MOL0     H73575   3.621   3.963   0.937  3.4365  0.8116  1.1351
  546MOL0     O73576   7.466   6.958   0.626  0.0193 -0.1517  0.2003
  546MOL0     C73577   7.436   6.865   0.549 -1.6974  0.1806 -1.0420
  546MOL0     O73578   7.502   6.740   0.552  0.3308 -0.1730  0.2219
  546MOL0     C73579   7.625   6.731   0.615  0.1771  0.3342  0.8205
  546MOL0     C73580   7.648   6.608   0.671  0.4679 -0.3467 -0.1203
  546MOL0     C73581   7.774   6.581   0.716  0.3179 -0.4932  0.0926
  546MOL0     C73582   7.877   6.674   0.717 -0.2332  0.2118 -0.3711
  546MOL0     O73583   7.999   6.631   0.762 -0.6627 -0.0586  0.5765
  546MOL0     C73584   8.112   6.638   0.662  0.9429 -0.7276  0.0646
  546MOL0     C73585   8.239   6.725   0.701 -0.5741 -0.5580 -0.2059
  546MOL0     C73586   8.214   6.877   0.711  0.2730  0.5009 -0.3182
  546MOL0     C73587   8.339   6.954   0.650  0.5056  0.6748 -0.4262
  546MOL0     C73588   8.304   7.104   0.631 -0.1133  0.7286  0.3701
  546MOL0     C73589   8.420   7.177   0.560 -0.7071 -0.3861  0.5588
  546MOL0     C73590   8.550   7.204   0.647 -0.2716  0.4779  0.5716
  546MOL0     C73591   8.518   7.314   0.748 -0.0162  0.4072 -0.0821
  546MOL0     N73592   8.467   7.439   0.690  0.3036 -0.1054 -0.3508
  546MOL0     C73593   8.357   7.500   0.736  0.4489 -0.0081  0.1547
  546MOL0     C73594   8.355   7.619   0.665  0.0748 -0.2182  1.2244
  546MOL0     C73595   8.268   7.739   0.703  0.5848  1.1788  0.3606
  546MOL0     C73596   8.136   7.745   0.629  0.6416 -0.5195  0.1396
  546MOL0     C73597   8.035   7.847   0.696 -0.6001 -0.4396  0.1234
  546MOL0     C73598   7.893   7.819   0.651  0.0808 -0.6129 -0.6630
  546MOL0     O73599   7.875   7.863   0.513  0.2996  0.0387  0.0018
  546MOL0     C73600   7.750   7.856   0.455 -0.1200  0.5152 -0.4515
  546MOL0     C73601   7.624   7.839   0.518  1.2412  0.6555  0.3825
  546MOL0     C73602   7.498   7.860   0.449 -0.3308 -0.8323 -0.7489
  546MOL0     C73603   7.503   7.902   0.317  0.1449 -0.2876  0.1550
  546MOL0     C73604   7.376   7.931   0.236 -0.1134 -0.6319  0.8037
  546MOL0     O73605   7.386   8.015   0.126  0.4299 -0.1052  0.1811
  546MOL0     C73606   7.291   8.014   0.030  0.2328  0.1519 -0.2789
  546MOL0     C73607   7.210   7.900  -0.005  0.3579 -0.4274 -0.5041
  546MOL0     C73608   7.115   7.913  -0.099 -0.5449  0.3318  0.0504
  546MOL0     C73609   7.095   8.030  -0.174  1.3565  0.2061  0.6939
  546MOL0     O73610   6.991   8.003  -0.259  0.1632  0.0199  0.4687
  546MOL0     C73611   6.918   8.123  -0.301 -0.4524 -0.6931  0.9432
  546MOL0     C73612   6.771   8.088  -0.297  1.0052 -0.0200  0.2717
  546MOL0     C73613   6.677   8.212  -0.330  0.8337  0.8568  0.0216
  546MOL0     C73614   6.527   8.178  -0.274  0.2947  0.8682 -0.3709
  546MOL0     C73615   6.437   8.309  -0.277 -1.0445  0.7744  0.4253
  546MOL0     C73616   6.288   8.289  -0.251 -0.5888  0.0452 -0.6187
  546MOL0     C73617   6.214   8.395  -0.327  0.7220  0.9244 -0.1397
  546MOL0     C73618   6.246   8.536  -0.274  0.0881 -0.1524  0.5677
  546MOL0    Cl73619   6.170   8.569  -0.127 -0.1912 -0.4860  0.0572
  546MOL0     C73620   7.183   8.135  -0.160  0.1353 -0.5370 -0.3616
  546MOL0     C73621   7.291   8.125  -0.059  0.4988 -0.5106 -0.1171
  546MOL0     O73622   7.276   7.866   0.271  0.3081  0.7147  0.2191
  546MOL0     C73623   7.631   7.921   0.257  0.4549 -0.5890 -0.0992
  546MOL0     C73624   7.752   7.893   0.320  0.9098  1.1148  0.0478
  546MOL0     N73625   8.453   7.623   0.568 -0.5915  0.0139 -0.0207
  546MOL0     N73626   8.523   7.512   0.588 -0.4849  0.1183  0.6242
  546MOL0     C73627   7.848   6.805   0.668 -1.0054  0.7310 -0.1473
  546MOL0     C73628   7.722   6.832   0.612  0.2471  0.3472  0.1278
  546MOL0     C73629   7.344   6.873   0.442 -0.1500 -0.8788  0.5064
  546MOL0     C73630   7.269   6.751   0.409  0.3406 -0.4599  0.3635
  546MOL0     C73631   7.166   6.763   0.317 -0.1385 -0.4408  0.4780
  546MOL0     C73632   7.128   6.876   0.250 -0.2948 -0.4235 -0.5789
  546MOL0     O73633   7.023   6.862   0.161  0.1218 -0.0094  0.2249
  546MOL0     C73634   6.949   6.980   0.119 -0.5913  0.5912 -0.3920
  546MOL0     C73635   6.851   6.948   0.009  0.8844  0.1080  0.1385
  546MOL0     C73636   6.741   6.846   0.054  0.6190  0.1179 -0.4761
  546MOL0     C73637   6.651   6.810  -0.071  0.3077  0.6117 -0.1603
  546MOL0     C73638   6.588   6.683  -0.063  0.6602 -0.5373 -0.8720
  546MOL0     C73639   6.518   6.587  -0.070  0.0692  0.5109  0.6630
  546MOL0     C73640   7.200   6.996   0.278  0.0924 -0.1845  0.7437
  546MOL0     C73641   7.314   6.997   0.369  0.0618  0.4754 -0.6797
  546MOL0     C73642   7.384   7.126   0.385 -0.0689  0.0229 -0.2796
  546MOL0     H73643   7.574   6.528   0.674  0.1873 -0.0818  2.3392
  546MOL0     H73644   7.785   6.481   0.758 -3.0768  0.0903  2.8582
  546MOL0     H73645   8.154   6.537   0.657  1.7305 -0.3729 -0.8718
  546MOL0     H73646   8.076   6.670   0.564 -1.5279 -1.7381  0.5587
  546MOL0     H73647   8.310   6.697   0.623  0.7217 -1.2676  1.1826
  546MOL0     H73648   8.281   6.695   0.798  1.0895 -2.0055 -1.3245
  546MOL0     H73649   8.181   6.907   0.811 -0.5155 -0.4012 -0.2932
  546MOL0     H73650   8.141   6.894   0.631  0.6366 -2.1809 -1.3158
  546MOL0     H73651   8.419   6.949   0.725  0.7679 -3.4951 -0.7475
  546MOL0     H73652   8.364   6.908   0.554 -2.1550  4.2724 -3.0978
  546MOL0     H73653   8.218   7.111   0.565  0.8840  2.6505 -0.8143
  546MOL0     H73654   8.277   7.150   0.727  0.6165  1.7548  0.1081
  546MOL0     H73655   8.442   7.112   0.475  0.2405 -2.5053  2.3041
  546MOL0     H73656   8.380   7.275   0.533  1.2058  0.0591 -0.9287
  546MOL0     H73657   8.635   7.231   0.583  0.3033  1.2469  1.6260
  546MOL0     H73658   8.589   7.111   0.689  0.5659  0.0456 -1.0782
  546MOL0     H73659   8.453   7.271   0.824 -0.5093  0.2545 -0.5854
  546MOL0     H73660   8.613   7.344   0.794 -0.5706  1.6974  0.2665
  546MOL0     H73661   8.291   7.469   0.816 -3.1755  0.3839 -2.4698
  546MOL0     H73662   8.252   7.729   0.810 -1.2335  2.7612  0.2970
  546MOL0     H73663   8.315   7.836   0.685  1.9378  0.4856  0.0505
  546MOL0     H73664   8.138   7.776   0.524 -3.8237  0.0684  0.0311
  546MOL0     H73665   8.085   7.648   0.628 -2.1762  0.8354  0.0827
  546MOL0     H73666   8.063   7.950   0.669  0.1645 -0.8955 -0.9402
  546MOL0     H73667   8.046   7.858   0.804 -3.7739  0.1056  0.4767
  546MOL0     H73668   7.820   7.867   0.716 -0.4265  0.1104 -1.7359
  546MOL0     H73669   7.880   7.711   0.664 -1.1104 -0.3350  0.6259
  546MOL0     H73670   7.607   7.817   0.623  0.7171 -1.6820 -0.1375
  546MOL0     H73671   7.405   7.838   0.501  0.4296 -1.0120  0.5937
  546MOL0     H73672   7.211   7.802   0.042 -0.0594 -0.4355 -0.5142
  546MOL0     H73673   7.058   7.822  -0.115 -0.2291  0.4784 -2.1694
  546MOL0     H73674   6.946   8.206  -0.235  0.5610 -1.6881  1.7886
  546MOL0     H73675   6.950   8.144  -0.404  1.4667  0.6560  1.7479
  546MOL0     H73676   6.749   8.017  -0.377  1.9806  2.2007 -2.1280
  546MOL0     H73677   6.736   8.045  -0.203  1.6087 -4.0252 -1.1103
  546MOL0     H73678   6.712   8.301  -0.276  3.0904 -0.4742  0.9285
  546MOL0     H73679   6.694   8.226  -0.437  4.5816  1.4629  0.5638
  546MOL0     H73680   6.520   8.145  -0.169 -2.0462  1.7718 -0.1803
  546MOL0     H73681   6.472   8.102  -0.330 -2.2947  0.4345  2.4435
  546MOL0     H73682   6.444   8.342  -0.381  1.6060  0.7082  0.5378
  546MOL0     H73683   6.478   8.381  -0.205  0.3618  0.1463  0.2758
  546MOL0     H73684   6.251   8.191  -0.283  0.6887 -0.0499 -1.8847
  546MOL0     H73685   6.264   8.299  -0.145  2.9974 -0.5204  0.3656
  546MOL0     H73686   6.108   8.376  -0.310  1.1794  0.4728  2.6980
  546MOL0     H73687   6.251   8.390  -0.430  3.6781  0.8925  0.8198
  546MOL0     H73688   6.352   8.566  -0.275 -0.4166  2.5250 -4.2568
  546MOL0     H73689   6.204   8.596  -0.355  1.3837 -0.7922 -0.6132
  546MOL0     H73690   7.191   8.222  -0.225  1.7644 -0.9094 -0.6896
  546MOL0     H73691   7.355   8.212  -0.050 -1.0210  0.7726 -1.1261
  546MOL0     H73692   7.638   7.950   0.152 -1.3604 -0.9232 -0.3453
  546MOL0     H73693   7.850   7.896   0.273 -0.1206  0.7921 -2.3086
  546MOL0     H73694   7.926   6.880   0.669  1.0810 -1.2520  1.9814
  546MOL0     H73695   7.715   6.927   0.560  1.9842 -0.3822 -1.5927
  546MOL0     H73696   7.292   6.652   0.448 -2.5026 -1.6195 -0.7007
  546MOL0     H73697   7.112   6.675   0.282 -0.9223  0.5132 -0.8256
  546MOL0     H73698   7.018   7.061   0.093  0.5214  0.1139  0.9438
  546MOL0     H73699   6.891   7.030   0.197  3.5136  0.3115  3.2031
  546MOL0     H73700   6.900   6.906  -0.079 -0.4825 -2.0114  0.2990
  546MOL0     H73701   6.797   7.040  -0.016 -2.0729 -2.0673 -2.2415
  546MOL0     H73702   6.680   6.899   0.128  1.5412  1.5787 -0.7252
  546MOL0     H73703   6.793   6.756   0.087 -0.9258 -0.7967 -0.4293
  546MOL0     H73704   6.576   6.885  -0.100 -1.8710 -2.0579 -1.9233
  546MOL0     H73705   6.717   6.806  -0.158  2.4416  4.0529  1.0864
  546MOL0     H73706   6.444   6.510  -0.063  1.6927 -1.6575 -3.3712
  546MOL0     H73707   7.170   7.092   0.237  0.5981 -0.5661 -0.5776
  546MOL0     H73708   7.361   7.199   0.464  3.5856  0.3507  0.7132
  546MOL0     H73709   7.489   7.100   0.404 -0.0172 -0.9055 -1.7441
  546MOL0     H73710   7.381   7.182   0.291 -1.9049  0.0521 -0.2255
  547MOL0     O73711   4.439   2.019   1.862  0.0704 -0.2215  0.0771
  547MOL0     C73712   4.412   2.020   1.983 -1.3767 -0.2660  0.6036
  547MOL0     O73713   4.498   1.971   2.074  0.4236 -0.0742  0.0352
  547MOL0     C73714   4.628   2.004   2.047 -0.2413 -0.0744 -0.2297
  547MOL0     C73715   4.691   2.118   2.096 -0.1434 -0.0435  0.2858
  547MOL0     C73716   4.823   2.150   2.063  0.6647 -0.0607 -0.9134
  547MOL0     C73717   4.897   2.067   1.984 -0.5610  0.5287 -0.4371
  547MOL0     O73718   5.016   2.102   1.932 -0.4527 -0.2851 -0.5508
  547MOL0     C73719   5.105   2.184   2.019  1.1196 -0.3571 -0.0635
  547MOL0     C73720   5.163   2.283   1.921  0.1213  0.2319  0.4904
  547MOL0     C73721   5.057   2.374   1.860 -0.0224  0.4661 -0.7794
  547MOL0     C73722   5.127   2.508   1.803  0.1958  0.8836 -0.7223
  547MOL0     C73723   5.018   2.617   1.778  0.4802 -0.0372 -0.0465
  547MOL0     C73724   5.058   2.760   1.748  0.2421 -0.1770 -0.2834
  547MOL0     C73725   5.150   2.771   1.621  0.0320 -0.0843  0.1596
  547MOL0     C73726   5.131   2.913   1.568 -0.6705 -0.2925  0.1055
  547MOL0     N73727   5.233   2.953   1.469 -0.2395 -0.0086  0.3289
  547MOL0     C73728   5.330   2.869   1.416 -0.7331 -0.7716 -0.1330
  547MOL0     C73729   5.419   2.938   1.346 -1.2667 -0.5937  0.4170
  547MOL0     C73730   5.523   2.882   1.259  0.4970 -0.0406 -0.4523
  547MOL0     C73731   5.662   2.934   1.286 -0.6720 -0.1736 -0.1452
  547MOL0     C73732   5.772   2.836   1.251  0.1696 -0.8172  0.4372
  547MOL0     C73733   5.904   2.905   1.228  0.9318 -0.0476  0.0355
  547MOL0     O73734   5.892   2.964   1.099 -0.1391 -0.4216  0.4085
  547MOL0     C73735   6.014   2.966   1.038 -0.3129 -0.4954  0.6501
  547MOL0     C73736   6.025   2.935   0.905  0.2952  0.6440  0.2941
  547MOL0     C73737   6.153   2.918   0.848 -0.0034 -1.1313  0.5652
  547MOL0     C73738   6.270   2.935   0.919  0.0712 -0.0229  0.2533
  547MOL0     C73739   6.407   2.910   0.874 -0.8213  0.4881  0.3394
  547MOL0     O73740   6.513   2.957   0.954  0.3693  0.7519 -0.1140
  547MOL0     C73741   6.641   2.948   0.919  0.6348  0.2873 -0.2384
  547MOL0     C73742   6.746   2.916   1.014  0.9741  0.3256 -0.0098
  547MOL0     C73743   6.880   2.935   0.989 -0.4754 -0.2074 -1.0606
  547MOL0     C73744   6.917   2.988   0.869  0.4582 -0.3341 -0.3267
  547MOL0     O73745   7.051   2.998   0.846 -0.0826 -0.9005 -0.3913
  547MOL0     C73746   7.090   3.098   0.749 -0.4606 -0.4048  1.3797
  547MOL0     C73747   7.241   3.104   0.758 -0.6002 -1.3073  0.0182
  547MOL0     C73748   7.316   2.982   0.716  0.4984  0.4207  0.6889
  547MOL0     C73749   7.293   2.855   0.797 -0.6861  0.1998 -0.3933
  547MOL0     C73750   7.427   2.782   0.837  0.7068 -0.0964 -0.6484
  547MOL0     C73751   7.498   2.730   0.710 -0.0986  0.4979 -0.9553
  547MOL0     C73752   7.591   2.597   0.727  0.3513  0.5214  0.4477
  547MOL0     C73753   7.679   2.584   0.848 -0.1081 -0.4683  0.1473
  547MOL0    Cl73754   7.770   2.737   0.863 -0.1945  0.5686 -0.5974
  547MOL0     C73755   6.818   3.031   0.785  0.2709  0.2952  0.0342
  547MOL0     C73756   6.684   3.014   0.802 -0.4757  0.4806  0.3425
  547MOL0     O73757   6.417   2.856   0.764  0.4281  0.2039  0.0255
  547MOL0     C73758   6.256   2.975   1.054 -0.6561 -0.0771  0.5922
  547MOL0     C73759   6.127   2.994   1.109  0.2162  0.2647  1.1988
  547MOL0     N73760   5.379   3.069   1.350 -0.2053  0.2805 -0.0444
  547MOL0     N73761   5.268   3.076   1.411  0.8205  0.1371  0.0787
  547MOL0     C73762   4.831   1.954   1.934 -0.3932 -0.5195 -0.5623
  547MOL0     C73763   4.707   1.915   1.969 -0.0943  0.6601 -0.7950
  547MOL0     C73764   4.280   2.068   2.028  0.2151 -0.3501 -0.2091
  547MOL0     C73765   4.246   2.085   2.164 -0.4906 -0.4876  0.1644
  547MOL0     C73766   4.125   2.141   2.212  0.1838  1.1764  0.0204
  547MOL0     C73767   4.041   2.182   2.123  0.5349 -0.1895 -1.2748
  547MOL0     O73768   3.933   2.242   2.184  0.0654  0.6004 -0.1965
  547MOL0     C73769   3.820   2.158   2.194 -1.1019 -0.1561  0.1702
  547MOL0     C73770   3.739   2.180   2.314 -0.0195 -0.1732 -0.2247
  547MOL0     C73771   3.654   2.305   2.317 -0.2251  0.0145 -0.8508
  547MOL0     C73772   3.543   2.322   2.209 -0.5575  0.3033  0.2099
  547MOL0     C73773   3.448   2.212   2.227  0.1121 -0.4246  0.1243
  547MOL0     C73774   3.362   2.127   2.239 -0.2991 -0.3136 -0.2188
  547MOL0     C73775   4.069   2.186   1.990  0.8162  1.5815  0.1314
  547MOL0     C73776   4.183   2.123   1.935  0.2703 -0.6830 -1.2186
  547MOL0     C73777   4.183   2.111   1.785  0.0605 -0.1823  0.6417
  547MOL0     H73778   4.619   2.177   2.151  0.0356  0.5941 -0.1473
  547MOL0     H73779   4.856   2.246   2.101  0.4552 -1.0518  2.0875
  547MOL0     H73780   5.053   2.251   2.089  1.3113 -0.2189 -0.0532
  547MOL0     H73781   5.186   2.128   2.066  0.5267 -1.8187 -0.7092
  547MOL0     H73782   5.220   2.230   1.844  0.3508 -2.7267  2.5234
  547MOL0     H73783   5.232   2.341   1.983  1.2015  0.1812 -0.6314
  547MOL0     H73784   4.991   2.407   1.940 -0.5696  0.3103 -1.1654
  547MOL0     H73785   4.990   2.314   1.799 -0.6814  0.9622 -0.5574
  547MOL0     H73786   5.202   2.552   1.869 -0.7829  0.2563  0.8688
  547MOL0     H73787   5.173   2.488   1.705  2.9827  1.9744  0.2544
  547MOL0     H73788   4.968   2.567   1.694  0.1688 -1.9560  1.2158
  547MOL0     H73789   4.947   2.611   1.861  0.3114 -0.4006 -0.2134
  547MOL0     H73790   4.963   2.808   1.725 -1.0560 -1.8594  1.3662
  547MOL0     H73791   5.097   2.815   1.834 -1.2053 -0.7981  0.7908
  547MOL0     H73792   5.120   2.695   1.548 -1.4757 -0.6538  1.3333
  547MOL0     H73793   5.254   2.754   1.651 -0.0143  0.5008  0.6772
  547MOL0     H73794   5.029   2.918   1.530 -0.2449  0.1773 -1.0451
  547MOL0     H73795   5.130   2.984   1.651 -0.9065  0.5962 -0.6393
  547MOL0     H73796   5.333   2.761   1.430 -1.0672 -0.6760  0.7718
  547MOL0     H73797   5.525   2.773   1.273 -2.7094  0.0214  1.5812
  547MOL0     H73798   5.502   2.903   1.154  1.0977  0.9722 -0.3803
  547MOL0     H73799   5.668   3.023   1.223  0.5529 -1.3324 -1.7621
  547MOL0     H73800   5.675   2.955   1.393 -0.7337 -0.3853 -0.0957
  547MOL0     H73801   5.753   2.773   1.164  0.4721  0.4946 -0.6128
  547MOL0     H73802   5.772   2.766   1.335 -0.1377 -2.9821 -1.2677
  547MOL0     H73803   5.982   2.828   1.227  0.2188 -0.7902 -0.6282
  547MOL0     H73804   5.927   2.980   1.305  1.6492 -1.7789  1.5827
  547MOL0     H73805   5.933   2.922   0.848 -0.5639 -2.5569  2.1619
  547MOL0     H73806   6.161   2.897   0.742  0.0436  1.2509  0.0447
  547MOL0     H73807   6.713   2.861   1.101  0.1807 -1.8808 -1.6049
  547MOL0     H73808   6.956   2.908   1.063  0.3569  1.1174 -1.3942
  547MOL0     H73809   7.060   3.057   0.653  0.3214 -1.9831  1.7874
  547MOL0     H73810   7.034   3.192   0.755 -2.4609 -1.2939 -1.6337
  547MOL0     H73811   7.278   3.185   0.693 -1.6809  0.0602  1.0317
  547MOL0     H73812   7.267   3.120   0.863 -0.8407 -3.6685  0.4739
  547MOL0     H73813   7.298   2.969   0.609 -1.3350 -0.7075  1.0779
  547MOL0     H73814   7.418   3.017   0.731  0.6646  2.1769 -3.3246
  547MOL0     H73815   7.234   2.783   0.739 -1.0010  2.4948 -3.1658
  547MOL0     H73816   7.242   2.870   0.892 -1.1427  0.2396 -0.6427
  547MOL0     H73817   7.398   2.694   0.895  0.0452  0.8603  0.5146
  547MOL0     H73818   7.485   2.851   0.899 -2.3223 -0.6942  3.2351
  547MOL0     H73819   7.426   2.696   0.635  1.1521 -2.0612 -1.0944
  547MOL0     H73820   7.562   2.810   0.671 -1.2218  2.3943  0.8688
  547MOL0     H73821   7.653   2.584   0.638 -1.4569 -3.6968 -0.4712
  547MOL0     H73822   7.532   2.505   0.718 -0.6857  1.3370 -1.7571
  547MOL0     H73823   7.628   2.579   0.945  1.3929  2.2489  1.1933
  547MOL0     H73824   7.738   2.494   0.833 -0.6625 -0.7385 -0.4540
  547MOL0     H73825   6.827   3.078   0.687 -2.1496  2.1823  0.6335
  547MOL0     H73826   6.611   3.042   0.726 -1.5828  3.0846  2.2161
  547MOL0     H73827   6.334   3.007   1.123 -0.7509  0.5524  0.4151
  547MOL0     H73828   6.105   3.033   1.207 -2.5745 -2.2108  1.7202
  547MOL0     H73829   4.897   1.889   1.878  2.1212  2.6529 -1.5750
  547MOL0     H73830   4.666   1.819   1.940  0.5326 -0.5229  1.9724
  547MOL0     H73831   4.312   2.046   2.241 -0.0644  0.2248  0.1627
  547MOL0     H73832   4.110   2.147   2.320 -0.3940 -3.3451  0.3553
  547MOL0     H73833   3.860   2.056   2.194  1.3690  0.7221  1.8364
  547MOL0     H73834   3.753   2.176   2.110 -2.6836 -0.1755  1.3647
  547MOL0     H73835   3.809   2.187   2.398  2.8171  1.2115 -2.5610
  547MOL0     H73836   3.680   2.089   2.331  0.1425 -0.7040 -2.2465
  547MOL0     H73837   3.723   2.391   2.315  1.7342 -1.4510 -0.0653
  547MOL0     H73838   3.603   2.306   2.414 -1.4391  2.5007 -1.4345
  547MOL0     H73839   3.492   2.418   2.213 -1.9518 -0.4036  0.0404
  547MOL0     H73840   3.586   2.314   2.108  0.7498 -0.1640  0.7765
  547MOL0     H73841   3.288   2.054   2.263  1.6170 -1.6614  1.8498
  547MOL0     H73842   3.989   2.242   1.943 -0.6834  0.2578  1.0009
  547MOL0     H73843   4.262   2.169   1.736  0.6765 -2.2329 -0.9116
  547MOL0     H73844   4.215   2.010   1.758 -0.6551  0.0832 -1.3962
  547MOL0     H73845   4.088   2.126   1.731  1.5578 -1.3826 -2.5936
  548MOL0     O73846   0.720   1.884   4.193  1.1890  0.3305 -0.5339
  548MOL0     C73847   0.679   1.831   4.094  1.0931  0.3235  0.8233
  548MOL0     O73848   0.754   1.786   3.986 -0.1073 -0.1684  0.2366
  548MOL0     C73849   0.889   1.762   4.013  1.3445  0.6322 -0.7829
  548MOL0     C73850   0.978   1.856   3.968 -0.2437  0.0074  0.2352
  548MOL0     C73851   1.117   1.854   3.992  0.5339  0.4755  1.0744
  548MOL0     C73852   1.168   1.756   4.074 -0.9222  0.0515  0.3556
  548MOL0     O73853   1.302   1.753   4.090 -0.4737  0.2343  0.2983
  548MOL0     C73854   1.373   1.700   4.206  0.2965  0.4243 -0.4836
  548MOL0     C73855   1.528   1.736   4.196  0.1639 -0.5563 -0.9347
  548MOL0     C73856   1.563   1.721   4.044 -0.0275  0.2179  0.2684
  548MOL0     C73857   1.715   1.718   4.024  0.2618 -0.9042  0.1438
  548MOL0     C73858   1.749   1.687   3.875  0.3325  0.3285 -0.4447
  548MOL0     C73859   1.908   1.691   3.854  0.2726 -0.3486  0.1799
  548MOL0     C73860   1.950   1.638   3.723  0.1147  0.4255  1.0602
  548MOL0     C73861   1.896   1.727   3.610 -0.3073 -0.2463  0.6559
  548MOL0     N73862   1.965   1.712   3.485 -0.2565 -0.2925 -0.1811
  548MOL0     C73863   2.098   1.706   3.482 -0.4744 -1.0820  0.5332
  548MOL0     C73864   2.133   1.678   3.357 -0.8180 -0.2382  0.2484
  548MOL0     C73865   2.281   1.662   3.325  0.0261 -0.2866  0.6846
  548MOL0     C73866   2.369   1.784   3.348  0.4585  0.1371 -1.0073
  548MOL0     C73867   2.308   1.919   3.303 -0.1728  0.5705 -0.2533
  548MOL0     C73868   2.416   2.032   3.309 -0.1355 -0.3311 -0.3388
  548MOL0     O73869   2.499   2.008   3.426  0.3555 -0.0208  0.4256
  548MOL0     C73870   2.590   2.101   3.456 -0.1593  0.1026 -0.2386
  548MOL0     C73871   2.639   2.108   3.585 -0.5800 -0.0083 -0.9801
  548MOL0     C73872   2.744   2.197   3.613  1.5069 -1.1354 -0.3744
  548MOL0     C73873   2.790   2.287   3.511  0.1136 -0.4134  0.1446
  548MOL0     C73874   2.876   2.406   3.530  0.1219  0.5460 -0.7250
  548MOL0     O73875   2.900   2.503   3.433  0.3573  0.2048 -0.4658
  548MOL0     C73876   3.001   2.592   3.455 -0.4506 -0.5363  0.4859
  548MOL0     C73877   3.127   2.563   3.504  0.1649  0.1579 -0.2457
  548MOL0     C73878   3.234   2.648   3.506 -0.2038 -0.5937  0.0540
  548MOL0     C73879   3.213   2.788   3.466 -0.0301  1.1096 -0.1673
  548MOL0     O73880   3.308   2.886   3.451  0.3593 -0.3077  0.4517
  548MOL0     C73881   3.445   2.837   3.443 -0.9662  0.1379  0.1811
  548MOL0     C73882   3.540   2.942   3.395 -0.3690 -0.2066 -0.1111
  548MOL0     C73883   3.524   2.974   3.248 -0.1125  0.1982  0.7216
  548MOL0     C73884   3.425   3.082   3.227  0.2690 -0.2736  0.9651
  548MOL0     C73885   3.426   3.142   3.083  0.2944 -0.2030 -0.2426
  548MOL0     C73886   3.388   3.302   3.085  1.0881  0.1319  0.4192
  548MOL0     C73887   3.500   3.396   3.128 -0.2395 -0.3417  0.3824
  548MOL0     C73888   3.436   3.532   3.150 -0.0176  0.9222  0.5423
  548MOL0    Cl73889   3.578   3.640   3.166 -0.0039 -0.0281 -0.1618
  548MOL0     C73890   3.087   2.809   3.427  0.0844 -1.0813  0.3440
  548MOL0     C73891   2.981   2.721   3.420  0.0885  0.3051 -0.0085
  548MOL0     O73892   2.914   2.404   3.642  0.7673 -0.2189  0.4361
  548MOL0     C73893   2.742   2.262   3.384 -0.3761 -0.2221 -0.8104
  548MOL0     C73894   2.648   2.176   3.351  0.1475 -0.1859  0.6453
  548MOL0     N73895   2.023   1.657   3.280 -0.2511 -0.1723  0.4417
  548MOL0     N73896   1.921   1.684   3.358  0.5280  0.3690 -0.0084
  548MOL0     C73897   1.078   1.659   4.134 -0.5966 -0.1465  0.3823
  548MOL0     C73898   0.940   1.662   4.089  0.4660  0.0931 -0.2663
  548MOL0     C73899   0.532   1.796   4.077 -0.5179  0.4686  0.5398
  548MOL0     C73900   0.490   1.726   3.964  0.0748  0.4153 -0.4694
  548MOL0     C73901   0.362   1.665   3.961  0.1233  0.3718 -0.0036
  548MOL0     C73902   0.259   1.714   4.042  0.6532 -0.1598  0.0383
  548MOL0     O73903   0.127   1.704   4.021 -0.3122  0.3211 -0.1490
  548MOL0     C73904   0.083   1.643   3.898 -1.1281 -0.7720 -0.3610
  548MOL0     C73905   0.065   1.492   3.918  0.1022  0.0162 -0.5077
  548MOL0     C73906  -0.058   1.445   4.006  0.7792 -0.5824 -0.0496
  548MOL0     C73907  -0.199   1.466   3.942  0.1205  0.4600  0.6799
  548MOL0     C73908  -0.217   1.363   3.835 -0.4148  0.2514  0.3941
  548MOL0     C73909  -0.248   1.270   3.766  0.8135  0.8078 -0.4703
  548MOL0     C73910   0.299   1.794   4.150  0.3076  0.8576  0.5196
  548MOL0     C73911   0.433   1.834   4.172  0.6252  0.7121 -0.2272
  548MOL0     C73912   0.464   1.917   4.297  0.6177 -0.2792 -0.4423
  548MOL0     H73913   0.942   1.939   3.907  0.7776  0.3058  0.0092
  548MOL0     H73914   1.179   1.935   3.954 -2.0138  2.3018  0.5676
  548MOL0     H73915   1.338   1.740   4.302  0.7343 -1.5917  0.5817
  548MOL0     H73916   1.373   1.590   4.210  1.9033  0.3518 -1.7177
  548MOL0     H73917   1.591   1.675   4.261 -1.0776 -1.2273 -0.3299
  548MOL0     H73918   1.539   1.839   4.232  0.6633 -1.1942  0.7990
  548MOL0     H73919   1.527   1.811   3.994  0.3336 -0.1385 -0.6543
  548MOL0     H73920   1.525   1.631   3.995 -0.7736 -0.5150  2.0890
  548MOL0     H73921   1.748   1.820   4.045  1.3979 -0.6762 -2.3280
  548MOL0     H73922   1.755   1.638   4.087 -0.9513 -1.1692  0.6012
  548MOL0     H73923   1.711   1.590   3.840 -1.0987  0.6020  0.2884
  548MOL0     H73924   1.700   1.767   3.818  0.5462  1.4629  0.9249
  548MOL0     H73925   1.943   1.794   3.862  1.9245 -0.9739  1.7041
  548MOL0     H73926   1.967   1.638   3.929  3.4197  1.4126 -0.8562
  548MOL0     H73927   1.927   1.532   3.711  2.7894 -0.3692  2.2676
  548MOL0     H73928   2.059   1.643   3.729  0.1015  0.1725  1.5104
  548MOL0     H73929   1.794   1.709   3.573  0.0443  1.0963 -1.0577
  548MOL0     H73930   1.922   1.831   3.631  1.1129 -0.4942  0.2133
  548MOL0     H73931   2.164   1.712   3.568 -1.2108 -0.8431  1.0970
  548MOL0     H73932   2.321   1.572   3.372 -0.2432 -1.1747 -0.7562
  548MOL0     H73933   2.277   1.636   3.219 -1.2126 -0.4020  0.7395
  548MOL0     H73934   2.397   1.792   3.454 -2.4511 -1.4177 -0.0096
  548MOL0     H73935   2.466   1.759   3.304  0.4345 -2.9339  0.4133
  548MOL0     H73936   2.236   1.957   3.376  0.7491  2.5865 -0.3222
  548MOL0     H73937   2.259   1.916   3.206  0.8116  2.4179 -0.8669
  548MOL0     H73938   2.367   2.129   3.315 -0.8278 -0.6858  5.2249
  548MOL0     H73939   2.467   2.027   3.212 -2.7226  0.5617 -1.8188
  548MOL0     H73940   2.596   2.057   3.671  0.6516 -0.4092 -0.5780
  548MOL0     H73941   2.766   2.214   3.718 -0.2219  0.1481 -0.1716
  548MOL0     H73942   3.142   2.460   3.533  1.1144  0.0525 -1.0793
  548MOL0     H73943   3.332   2.616   3.540 -0.3574  1.1432  2.4227
  548MOL0     H73944   3.480   2.806   3.541  0.7341 -1.1974 -0.8013
  548MOL0     H73945   3.449   2.748   3.380  0.7261  0.0918  0.3064
  548MOL0     H73946   3.525   3.032   3.455  1.1280 -0.3175  0.4942
  548MOL0     H73947   3.644   2.915   3.418 -0.4810 -1.7531 -1.2461
  548MOL0     H73948   3.618   3.012   3.207 -0.3204 -4.2459 -5.2087
  548MOL0     H73949   3.508   2.892   3.178  3.6665  1.1702 -1.5715
  548MOL0     H73950   3.460   3.153   3.302 -0.7005 -0.8653  2.0071
  548MOL0     H73951   3.321   3.066   3.254 -1.3636  1.8499 -3.1527
  548MOL0     H73952   3.365   3.079   3.018 -2.5633  1.3915  0.6989
  548MOL0     H73953   3.530   3.142   3.048  0.9811  3.1182  1.3704
  548MOL0     H73954   3.367   3.327   2.980  0.1231  1.9457  1.0106
  548MOL0     H73955   3.295   3.319   3.139 -0.6887 -3.1814 -1.2583
  548MOL0     H73956   3.572   3.406   3.046  0.0646  2.0616  0.8467
  548MOL0     H73957   3.552   3.368   3.220 -0.7202 -0.5421  0.5928
  548MOL0     H73958   3.362   3.559   3.074  1.8881  2.0080 -1.0174
  548MOL0     H73959   3.385   3.533   3.247  0.4221 -0.0109  0.7936
  548MOL0     H73960   3.057   2.913   3.419 -4.7607 -1.7405  4.6475
  548MOL0     H73961   2.882   2.759   3.396 -0.4899 -0.2470  1.3811
  548MOL0     H73962   2.792   2.319   3.305 -1.6285 -0.5304 -1.8557
  548MOL0     H73963   2.622   2.161   3.247  1.8628  1.0657 -0.0179
  548MOL0     H73964   1.097   1.570   4.193 -3.2761 -0.8614  0.3189
  548MOL0     H73965   0.883   1.581   4.133 -1.9406  0.8107 -1.8987
  548MOL0     H73966   0.557   1.709   3.881 -1.0422  0.2091 -1.3516
  548MOL0     H73967   0.338   1.603   3.875 -1.7177  0.6162  0.2841
  548MOL0     H73968   0.158   1.652   3.819 -1.9261 -1.1586 -1.1712
  548MOL0     H73969  -0.012   1.680   3.861 -0.7056 -1.1797 -1.9005
  548MOL0     H73970   0.160   1.455   3.958  0.8353  1.5711 -0.7380
  548MOL0     H73971   0.058   1.459   3.814 -0.6443  0.4483 -0.6039
  548MOL0     H73972  -0.059   1.491   4.106 -0.4014  0.8333 -0.6823
  548MOL0     H73973  -0.063   1.337   4.018 -1.4700 -0.6377 -1.0461
  548MOL0     H73974  -0.277   1.458   4.018  1.6432  0.5998  2.3173
  548MOL0     H73975  -0.210   1.569   3.905  0.5338  0.0656 -0.6094
  548MOL0     H73976  -0.277   1.184   3.709 -0.5652 -0.3375  1.8616
  548MOL0     H73977   0.219   1.839   4.208  2.5220  4.2888  1.1328
  548MOL0     H73978   0.374   1.939   4.356  1.2710 -2.1272  1.3947
  548MOL0     H73979   0.542   1.868   4.357  1.1074  1.3053  0.2724
  548MOL0     H73980   0.502   2.015   4.266  0.0445 -0.2098 -0.9289
  549MOL0     O73981   7.267   2.528   0.193  0.1232  0.7173  0.4278
  549MOL0     C73982   7.234   2.499   0.079  0.5781  1.0081 -0.0753
  549MOL0     O73983   7.314   2.497  -0.030 -0.1779 -0.2663 -0.2320
  549MOL0     C73984   7.453   2.506  -0.022 -0.5445  0.2079  0.1112
  549MOL0     C73985   7.528   2.581   0.081 -0.1598  0.2735  0.1040
  549MOL0     C73986   7.674   2.574   0.075 -0.3063 -0.5347  0.1557
  549MOL0     C73987   7.742   2.515  -0.032 -0.6357 -0.1858 -0.0060
  549MOL0     O73988   7.876   2.492  -0.037 -0.4623 -0.1185  0.0723
  549MOL0     C73989   7.966   2.551   0.059 -0.1317  0.3157  0.2628
  549MOL0     C73990   8.110   2.571   0.009 -0.1707  0.5729 -0.3606
  549MOL0     C73991   8.203   2.438   0.024 -0.3414 -0.3718  0.3635
  549MOL0     C73992   8.261   2.411  -0.115  0.4345  0.0593 -0.1770
  549MOL0     C73993   8.386   2.332  -0.102 -0.2876  0.3861  0.4058
  549MOL0     C73994   8.467   2.317  -0.244  0.0923 -0.2876 -0.5066
  549MOL0     C73995   8.499   2.450  -0.313  0.2838 -0.2989 -0.4894
  549MOL0     C73996   8.563   2.568  -0.226  0.5348 -0.0838 -0.5113
  549MOL0     N73997   8.547   2.686  -0.306 -0.5397  0.6020 -0.5417
  549MOL0     C73998   8.630   2.726  -0.408  0.9175  0.2387  0.5379
  549MOL0     C73999   8.593   2.864  -0.411  0.2902 -0.6408  1.0310
  549MOL0     C74000   8.646   2.979  -0.493 -0.7756 -0.0165  0.0812
  549MOL0     C74001   8.776   3.023  -0.427  0.6678  0.2591 -0.5880
  549MOL0     C74002   8.894   2.941  -0.473 -0.3454 -0.1847 -1.0466
  549MOL0     C74003   9.024   3.007  -0.431  0.0553  0.0805  0.1127
  549MOL0     O74004   9.065   3.114  -0.514  0.4754  0.8827  0.2451
  549MOL0     C74005   9.174   3.188  -0.476 -0.4452  0.9251 -0.3066
  549MOL0     C74006   9.268   3.143  -0.387 -0.0745 -1.0420  0.0316
  549MOL0     C74007   9.376   3.228  -0.345  0.0343  0.8754  0.1475
  549MOL0     C74008   9.388   3.352  -0.403  0.7104  0.0977  0.4436
  549MOL0     C74009   9.508   3.429  -0.371 -1.6240 -0.7442 -0.2818
  549MOL0     O74010   9.599   3.369  -0.287 -0.4537  0.4555 -0.3594
  549MOL0     C74011   9.714   3.420  -0.241  0.0295 -0.9802 -0.4162
  549MOL0     C74012   9.762   3.554  -0.251  0.0516  0.1081  0.5013
  549MOL0     C74013   9.891   3.586  -0.212  0.3735 -0.6566 -1.2226
  549MOL0     C74014   9.971   3.491  -0.144 -0.7101  1.3374  0.4218
  549MOL0     O74015  10.096   3.517  -0.097  0.6161 -0.6333  0.4508
  549MOL0     C74016  10.129   3.656  -0.089 -0.0296  0.3841 -0.2575
  549MOL0     C74017  10.254   3.661  -0.003 -0.2674  0.3774  0.6810
  549MOL0     C74018  10.372   3.597  -0.080 -0.9932 -0.6242  0.0204
  549MOL0     C74019  10.497   3.632   0.000 -0.1350  0.5181 -0.1060
  549MOL0     C74020  10.628   3.595  -0.077  0.3756 -0.1421  1.2044
  549MOL0     C74021  10.749   3.631   0.004 -0.3926 -0.6140  0.1406
  549MOL0     C74022  10.874   3.599  -0.075 -0.6121  0.6482  0.8367
  549MOL0     C74023  10.995   3.650  -0.003 -0.9921  0.8050  1.1084
  549MOL0    Cl74024  11.136   3.615  -0.094  0.0407 -0.0377 -0.5264
  549MOL0     C74025   9.925   3.360  -0.139 -0.4192 -0.1192  0.2412
  549MOL0     C74026   9.799   3.319  -0.187  0.7339  0.4728 -0.0665
  549MOL0     O74027   9.522   3.541  -0.419  0.2121 -0.1816 -0.3550
  549MOL0     C74028   9.297   3.389  -0.502 -0.1818 -0.2383  0.5010
  549MOL0     C74029   9.194   3.305  -0.544  0.0179  0.0846  0.0054
  549MOL0     N74030   8.490   2.898  -0.331  0.5062 -0.3098 -0.0800
  549MOL0     N74031   8.466   2.789  -0.266 -0.9993  0.1387  0.0791
  549MOL0     C74032   7.667   2.456  -0.134 -0.0430  0.2072 -0.1099
  549MOL0     C74033   7.526   2.460  -0.129 -0.2375  0.0711  0.2829
  549MOL0     C74034   7.085   2.474   0.054 -0.4332  0.2530 -0.1107
  549MOL0     C74035   7.021   2.528  -0.061 -0.0851  0.9955 -0.3648
  549MOL0     C74036   6.883   2.511  -0.083 -1.5658  0.2633  0.6429
  549MOL0     C74037   6.806   2.433   0.006 -0.3130  0.6865  1.0681
  549MOL0     O74038   6.673   2.415  -0.028 -0.2601  0.5815 -0.1493
  549MOL0     C74039   6.619   2.440  -0.161 -0.4718  0.2948 -0.8047
  549MOL0     C74040   6.463   2.411  -0.172  0.4925 -0.1832 -0.2752
  549MOL0     C74041   6.388   2.460  -0.050  0.4111 -0.2594 -0.3844
  549MOL0     C74042   6.242   2.443  -0.076  0.8354 -0.5908 -0.1750
  549MOL0     C74043   6.169   2.546  -0.153  0.4689 -0.8712 -0.2174
  549MOL0     C74044   6.125   2.630  -0.232  1.0642  1.3335 -0.8864
  549MOL0     C74045   6.861   2.393   0.127  0.6005  0.1553  0.5370
  549MOL0     C74046   7.001   2.405   0.148  0.6295 -0.8217 -0.4362
  549MOL0     C74047   7.052   2.352   0.277 -0.6970  1.2667 -0.6782
  549MOL0     H74048   7.475   2.619   0.167  2.0274 -3.0778  3.2460
  549MOL0     H74049   7.719   2.631   0.156 -0.3085  1.1357 -0.9600
  549MOL0     H74050   7.922   2.649   0.078  0.5247  0.5182  0.8181
  549MOL0     H74051   7.972   2.506   0.159 -3.5033 -3.8270 -1.1417
  549MOL0     H74052   8.154   2.651   0.069 -1.0304  1.4543 -0.8623
  549MOL0     H74053   8.104   2.607  -0.095  0.6459 -0.6638 -0.8658
  549MOL0     H74054   8.143   2.351   0.054  2.5783 -1.8227  2.4146
  549MOL0     H74055   8.272   2.455   0.106 -0.8468  0.8325  0.5616
  549MOL0     H74056   8.185   2.361  -0.176  0.1331  1.5986 -1.1438
  549MOL0     H74057   8.288   2.506  -0.163 -0.5701  0.2010 -0.4871
  549MOL0     H74058   8.453   2.392  -0.040 -0.2780  0.3789  0.4017
  549MOL0     H74059   8.367   2.237  -0.053  2.5960 -1.3188 -1.4776
  549MOL0     H74060   8.566   2.275  -0.225  0.1452 -0.0851 -0.3311
  549MOL0     H74061   8.407   2.255  -0.311  2.1227 -0.9403 -1.8097
  549MOL0     H74062   8.405   2.497  -0.343  0.5109 -0.0770 -0.8701
  549MOL0     H74063   8.562   2.435  -0.401  0.4417  5.0134 -1.6344
  549MOL0     H74064   8.522   2.583  -0.125 -0.2057  1.0859 -0.9619
  549MOL0     H74065   8.668   2.561  -0.195 -0.2970  0.1900  2.7982
  549MOL0     H74066   8.712   2.675  -0.458  0.4051 -1.1791  1.0930
  549MOL0     H74067   8.658   2.943  -0.596  1.2167 -1.6358  0.8011
  549MOL0     H74068   8.565   3.051  -0.483 -2.6446 -2.2884  2.7078
  549MOL0     H74069   8.789   3.129  -0.453 -2.3320  0.5486 -1.1912
  549MOL0     H74070   8.760   3.017  -0.319 -0.4430 -0.3507 -0.7797
  549MOL0     H74071   8.892   2.934  -0.582  1.5322 -0.0695 -1.1235
  549MOL0     H74072   8.901   2.842  -0.426  6.0583 -0.6031 -1.9845
  549MOL0     H74073   9.102   2.934  -0.453  2.6507  2.5289  0.5742
  549MOL0     H74074   9.012   3.035  -0.326  0.9353 -1.8647  0.7766
  549MOL0     H74075   9.268   3.044  -0.343 -1.9665 -0.6820  0.9525
  549MOL0     H74076   9.439   3.197  -0.263  1.9198 -1.6322 -2.0444
  549MOL0     H74077   9.689   3.628  -0.284 -1.0763 -0.8763  0.7345
  549MOL0     H74078   9.912   3.691  -0.224  2.1993 -1.1513 -2.9086
  549MOL0     H74079  10.150   3.698  -0.188  0.1633  1.9154  0.4040
  549MOL0     H74080  10.046   3.705  -0.037  0.4810 -0.5999  1.5373
  549MOL0     H74081  10.282   3.765   0.015  0.4134  0.1895  0.7230
  549MOL0     H74082  10.241   3.599   0.086 -0.0284 -1.1827 -0.3395
  549MOL0     H74083  10.359   3.489  -0.072  0.5756 -0.7096  2.2302
  549MOL0     H74084  10.396   3.638  -0.179 -0.6634 -2.5383 -0.7455
  549MOL0     H74085  10.493   3.577   0.094  2.8111  1.5934  0.7713
  549MOL0     H74086  10.517   3.738   0.021  1.2920  0.2054  0.1831
  549MOL0     H74087  10.623   3.651  -0.170 -1.0382  1.0105  1.9350
  549MOL0     H74088  10.634   3.487  -0.094 -0.0222  0.0983 -0.7155
  549MOL0     H74089  10.745   3.740   0.016 -3.0220 -0.7015  0.5645
  549MOL0     H74090  10.753   3.576   0.098  1.6509 -1.3098 -0.2899
  549MOL0     H74091  10.869   3.619  -0.183  3.9262  1.6089  0.5952
  549MOL0     H74092  10.887   3.490  -0.075 -1.0760  0.5165  3.5898
  549MOL0     H74093  10.999   3.759   0.009  0.6256  0.6884  1.9919
  549MOL0     H74094  10.994   3.606   0.097 -0.8558 -2.3932 -0.1973
  549MOL0     H74095   9.978   3.280  -0.089  2.6538  0.5983 -1.6453
  549MOL0     H74096   9.766   3.216  -0.187  0.5060  0.5332  1.3112
  549MOL0     H74097   9.328   3.482  -0.548  2.0246 -1.6392 -1.0690
  549MOL0     H74098   9.124   3.324  -0.624 -4.4520 -1.3515  3.1645
  549MOL0     H74099   7.715   2.413  -0.222 -0.0879  0.7482 -0.4041
  549MOL0     H74100   7.474   2.401  -0.204 -0.3289 -2.6803  2.3496
  549MOL0     H74101   7.078   2.586  -0.132 -2.0647 -0.3309 -3.2397
  549MOL0     H74102   6.843   2.553  -0.174 -3.8765 -0.5187  1.2256
  549MOL0     H74103   6.678   2.382  -0.232  0.4431 -0.1359  0.2820
  549MOL0     H74104   6.635   2.548  -0.171 -0.8098  0.6091  1.4698
  549MOL0     H74105   6.453   2.302  -0.183 -0.4483 -0.1713  0.3562
  549MOL0     H74106   6.425   2.455  -0.265 -1.2875 -1.1174 -0.0452
  549MOL0     H74107   6.412   2.563  -0.022 -2.0399 -0.1445  1.6356
  549MOL0     H74108   6.416   2.390   0.029 -2.2157 -0.9589  0.0277
  549MOL0     H74109   6.221   2.340  -0.107  1.2383 -0.2778 -1.5369
  549MOL0     H74110   6.201   2.449   0.025 -1.2847 -0.8882 -0.9622
  549MOL0     H74111   6.074   2.687  -0.306 -4.4611 -1.5146  0.1838
  549MOL0     H74112   6.794   2.334   0.190  0.3745  0.8749  0.9907
  549MOL0     H74113   7.055   2.434   0.350  0.5272  1.1481 -0.5780
  549MOL0     H74114   6.992   2.267   0.308 -0.6932  1.4868 -0.0449
  549MOL0     H74115   7.151   2.309   0.261 -1.0437  0.4675 -0.7138
  550MOL0     O74116  11.187   4.923   2.327 -0.9778  0.2175 -0.3557
  550MOL0     C74117  11.252   4.842   2.255 -0.6473  0.1019  0.1326
  550MOL0     O74118  11.201   4.773   2.144 -0.0012  0.0311  0.0875
  550MOL0     C74119  11.064   4.749   2.163 -0.7185  0.4499 -0.5046
  550MOL0     C74120  11.002   4.688   2.272 -0.0769 -0.4254  0.1215
  550MOL0     C74121  10.863   4.683   2.272  0.2223 -0.0469  0.5265
  550MOL0     C74122  10.785   4.740   2.169  0.7296  0.5861  0.3858
  550MOL0     O74123  10.645   4.751   2.175 -0.4964  0.4987 -0.0683
  550MOL0     C74124  10.581   4.734   2.300  0.5592  0.1783  0.0624
  550MOL0     C74125  10.436   4.750   2.265 -0.5268 -0.7107  0.0352
  550MOL0     C74126  10.371   4.620   2.213  0.1518  0.6023 -0.2027
  550MOL0     C74127  10.216   4.623   2.225 -0.5372 -0.6404  0.7750
  550MOL0     C74128  10.143   4.488   2.195 -0.8539 -0.4864  0.1923
  550MOL0     C74129  10.140   4.405   2.321 -0.3242  0.1226 -0.2427
  550MOL0     C74130  10.070   4.275   2.296 -0.6635  0.5727  0.0901
  550MOL0     C74131  10.071   4.182   2.421 -0.2912  0.4825  0.1421
  550MOL0     N74132  10.215   4.136   2.444  0.0448  0.6572 -0.2710
  550MOL0     C74133  10.317   4.130   2.354 -0.9875  0.1439  0.1211
  550MOL0     C74134  10.426   4.146   2.430 -0.0688  1.0662 -0.3811
  550MOL0     C74135  10.567   4.160   2.376  0.6860  0.1461  0.0788
  550MOL0     C74136  10.602   4.305   2.335  0.2587  0.3743  0.3909
  550MOL0     C74137  10.742   4.334   2.279 -0.6695  0.2706 -0.5897
  550MOL0     C74138  10.804   4.240   2.176  1.2360  0.1092  0.3655
  550MOL0     O74139  10.913   4.304   2.114 -0.0231 -0.8507  0.5278
  550MOL0     C74140  11.032   4.233   2.105  0.0621 -0.3238  0.6602
  550MOL0     C74141  11.152   4.297   2.117  0.3104 -0.6256 -0.8840
  550MOL0     C74142  11.267   4.237   2.081 -0.6190 -0.2054 -0.3693
  550MOL0     C74143  11.271   4.101   2.040 -0.6629 -0.9324  0.1416
  550MOL0     C74144  11.400   4.025   2.005 -0.4630 -0.1949 -0.1815
  550MOL0     O74145  11.521   4.092   2.031 -0.2868 -0.1741 -0.8375
  550MOL0     C74146  11.634   4.014   2.044 -0.2421 -0.3716  0.6876
  550MOL0     C74147  11.640   3.918   2.152 -1.0493  0.3535 -0.3532
  550MOL0     C74148  11.755   3.843   2.160  0.2887 -0.1743 -0.5071
  550MOL0     C74149  11.873   3.864   2.083  0.5711 -1.0165  0.3404
  550MOL0     O74150  11.972   3.768   2.096  0.2438 -0.0648  0.2920
  550MOL0     C74151  12.093   3.812   2.162  0.4742  0.5300  0.1053
  550MOL0     C74152  12.213   3.774   2.098  0.4504  0.3990  0.2739
  550MOL0     C74153  12.339   3.814   2.188  0.5422  0.2272 -0.0846
  550MOL0     C74154  12.439   3.707   2.165 -0.2709  0.4218 -0.2768
  550MOL0     C74155  12.574   3.763   2.213 -0.1222 -0.0339  0.1029
  550MOL0     C74156  12.674   3.657   2.180  0.4803  0.1693  0.4961
  550MOL0     C74157  12.813   3.691   2.225 -0.2871 -0.7052  0.9211
  550MOL0     C74158  12.913   3.606   2.153  0.3546  0.4465  0.0054
  550MOL0    Cl74159  12.958   3.702   2.009 -0.3533 -0.3377 -0.2411
  550MOL0     C74160  11.867   3.961   1.984 -0.2569  0.5079 -0.2257
  550MOL0     C74161  11.749   4.031   1.971 -0.5479  0.3109  1.3383
  550MOL0     O74162  11.401   3.914   1.961  0.3317 -0.2706  0.0954
  550MOL0     C74163  11.157   4.032   2.035 -0.2871  0.2423 -0.1143
  550MOL0     C74164  11.035   4.098   2.068  0.0646  0.8113  0.1535
  550MOL0     N74165  10.396   4.165   2.568  0.0184  0.5474  0.5397
  550MOL0     N74166  10.270   4.141   2.572  0.0823 -0.6073  0.2241
  550MOL0     C74167  10.845   4.787   2.058 -0.5139  0.1686  0.4981
  550MOL0     C74168  10.985   4.789   2.058  0.3624 -0.5857  0.2320
  550MOL0     C74169  11.403   4.819   2.286  0.5295  0.0173 -0.0611
  550MOL0     C74170  11.478   4.930   2.316  0.0081  0.1185  0.0625
  550MOL0     C74171  11.611   4.923   2.350  0.3836 -0.0373  0.4668
  550MOL0     C74172  11.670   4.797   2.355 -0.3254 -0.0236 -0.2587
  550MOL0     O74173  11.804   4.783   2.385 -0.6565  0.1527  0.9940
  550MOL0     C74174  11.898   4.829   2.287 -0.1121 -0.0839  0.4702
  550MOL0     C74175  12.032   4.748   2.283  0.3416  0.3761 -0.5480
  550MOL0     C74176  12.133   4.782   2.176  0.0096 -0.3341 -0.1080
  550MOL0     C74177  12.162   4.933   2.151 -0.0191  0.3204 -0.7976
  550MOL0     C74178  12.270   4.935   2.043 -0.5664 -0.1353 -0.0153
  550MOL0     C74179  12.361   4.919   1.958  0.6237  0.0782 -0.9273
  550MOL0     C74180  11.598   4.679   2.328  0.1684  0.0904  0.1352
  550MOL0     C74181  11.466   4.693   2.285  0.4852 -0.2072 -0.6088
  550MOL0     C74182  11.386   4.573   2.243 -0.1726 -0.5671  0.0923
  550MOL0     H74183  11.068   4.648   2.349  1.2435  0.6680 -0.4013
  550MOL0     H74184  10.825   4.626   2.356 -3.3213 -3.7135 -3.0940
  550MOL0     H74185  10.603   4.642   2.356  1.3884 -0.0615 -0.6363
  550MOL0     H74186  10.613   4.824   2.353 -0.9650  0.3957  0.6402
  550MOL0     H74187  10.424   4.832   2.194  1.5247  1.0798  1.6259
  550MOL0     H74188  10.389   4.791   2.355  1.4202  3.8778 -0.7611
  550MOL0     H74189  10.412   4.541   2.277 -0.4780 -0.6039 -1.2480
  550MOL0     H74190  10.406   4.591   2.114 -2.9266 -0.6559 -1.0311
  550MOL0     H74191  10.166   4.656   2.317 -2.0555 -0.7583  0.0228
  550MOL0     H74192  10.188   4.689   2.142  2.2407 -0.9982 -0.5653
  550MOL0     H74193  10.041   4.519   2.170 -0.5562  3.0598  2.6362
  550MOL0     H74194  10.196   4.435   2.115  1.5029 -0.3125  1.5563
  550MOL0     H74195  10.241   4.394   2.360 -0.3737  2.5134  0.7301
  550MOL0     H74196  10.083   4.458   2.399 -0.4748 -1.2773  0.6434
  550MOL0     H74197  10.113   4.226   2.208  1.3793  2.0895  0.1609
  550MOL0     H74198   9.969   4.295   2.258 -0.0842  2.0856 -0.7508
  550MOL0     H74199  10.030   4.235   2.508 -1.2228  2.0570 -1.1937
  550MOL0     H74200  10.011   4.093   2.399  1.3437 -1.0409  1.5694
  550MOL0     H74201  10.312   4.118   2.246 -1.3491 -0.0517  0.1558
  550MOL0     H74202  10.636   4.115   2.448  0.3221 -2.6506 -1.1646
  550MOL0     H74203  10.563   4.090   2.292 -0.8563 -0.5800  0.7166
  550MOL0     H74204  10.534   4.322   2.250  0.4045 -2.0864 -0.2977
  550MOL0     H74205  10.577   4.369   2.420  1.8864  1.3487  0.1569
  550MOL0     H74206  10.797   4.326   2.373 -1.5146 -0.3916 -0.1328
  550MOL0     H74207  10.748   4.438   2.245 -0.4789  0.7991  0.9951
  550MOL0     H74208  10.730   4.219   2.098  0.7887 -0.6905  0.9805
  550MOL0     H74209  10.824   4.141   2.219 -0.6454 -1.9729 -3.0148
  550MOL0     H74210  11.149   4.402   2.146 -1.6761 -0.5168 -1.3568
  550MOL0     H74211  11.363   4.288   2.089 -0.1006 -1.4136  2.9164
  550MOL0     H74212  11.557   3.887   2.215  0.9706 -1.6048  1.4992
  550MOL0     H74213  11.746   3.763   2.233  2.3987 -1.0956 -1.1546
  550MOL0     H74214  12.098   3.921   2.154 -1.7305  0.6012 -0.9310
  550MOL0     H74215  12.095   3.777   2.265  1.9518 -0.2981 -0.1804
  550MOL0     H74216  12.208   3.665   2.088 -0.4994  0.3177  1.3372
  550MOL0     H74217  12.226   3.815   1.997  1.4398 -1.5921 -0.4666
  550MOL0     H74218  12.368   3.918   2.167 -0.7493  0.5287 -0.4834
  550MOL0     H74219  12.306   3.803   2.292  1.9215 -1.9784  0.1749
  550MOL0     H74220  12.452   3.689   2.057  0.2322 -0.5913 -0.0599
  550MOL0     H74221  12.398   3.622   2.220 -1.7017  1.1024 -0.2343
  550MOL0     H74222  12.586   3.772   2.322 -1.5726 -0.5743  0.3389
  550MOL0     H74223  12.591   3.858   2.162 -2.0120 -0.7463 -2.0452
  550MOL0     H74224  12.642   3.562   2.224  1.3548  0.9947  3.1304
  550MOL0     H74225  12.676   3.641   2.072  0.0294  0.1690  0.4848
  550MOL0     H74226  12.812   3.669   2.333 -2.0095 -1.3395  0.8080
  550MOL0     H74227  12.839   3.795   2.207 -0.1836 -0.6902  1.1514
  550MOL0     H74228  13.000   3.595   2.219  1.4664  1.9834 -1.1378
  550MOL0     H74229  12.881   3.507   2.118 -2.0915  1.8248 -1.9819
  550MOL0     H74230  11.950   3.977   1.916  1.2534 -0.6549  1.2388
  550MOL0     H74231  11.749   4.091   1.881 -2.4149 -0.7258  0.5712
  550MOL0     H74232  11.168   3.932   1.995  1.3032  0.8353 -1.2908
  550MOL0     H74233  10.946   4.035   2.059  0.9094 -1.1051  3.3399
  550MOL0     H74234  10.782   4.820   1.976 -1.0027 -0.0095  0.7994
  550MOL0     H74235  11.027   4.842   1.972 -1.4018 -0.7485 -0.7759
  550MOL0     H74236  11.420   5.020   2.303 -0.0573  0.4089  2.0300
  550MOL0     H74237  11.669   5.014   2.359 -1.4828  1.2060  0.7030
  550MOL0     H74238  11.926   4.930   2.320  1.5783  0.7548 -3.0099
  550MOL0     H74239  11.842   4.846   2.194 -2.7922 -0.3612  1.9466
  550MOL0     H74240  12.004   4.643   2.275  2.9706 -0.4235 -0.1672
  550MOL0     H74241  12.074   4.764   2.383  1.2221  1.9598 -1.1313
  550MOL0     H74242  12.111   4.730   2.082 -0.1544  0.3814 -0.4790
  550MOL0     H74243  12.227   4.737   2.208  1.0378  0.2315 -2.1509
  550MOL0     H74244  12.073   4.986   2.117 -1.5079 -0.1205  2.1205
  550MOL0     H74245  12.194   4.970   2.249  1.0842 -1.3863 -0.4686
  550MOL0     H74246  12.432   4.908   1.878  0.1005 -0.1643 -1.3678
  550MOL0     H74247  11.650   4.584   2.322 -0.9281 -0.4447 -3.8037
  550MOL0     H74248  11.304   4.552   2.312 -2.0783 -0.5024 -2.0412
  550MOL0     H74249  11.346   4.576   2.141  0.6447 -2.3080 -0.3072
  550MOL0     H74250  11.462   4.494   2.244  3.1477  2.3513  1.5150
  551MOL0     O74251   0.006   2.393   8.788  0.0891 -0.0604  0.4383
  551MOL0     C74252  -0.086   2.376   8.705 -0.1172  0.1524  0.4228
  551MOL0     O74253  -0.076   2.361   8.572  0.8405  0.5547 -0.2112
  551MOL0     C74254   0.039   2.324   8.504 -0.0076  0.4422  0.4724
  551MOL0     C74255   0.121   2.226   8.557 -0.1601  0.3721  0.6990
  551MOL0     C74256   0.234   2.199   8.494 -1.4150 -0.3755 -0.1524
  551MOL0     C74257   0.278   2.257   8.372 -0.2813  0.7684 -0.3327
  551MOL0     O74258   0.390   2.209   8.310 -0.2718  0.6751 -0.2770
  551MOL0     C74259   0.450   2.286   8.202 -0.0273 -0.2975  0.5348
  551MOL0     C74260   0.382   2.258   8.069  0.0202  0.2611 -0.5660
  551MOL0     C74261   0.477   2.331   7.968  0.4926 -0.3240  0.0210
  551MOL0     C74262   0.444   2.294   7.827  0.6801  0.4252  0.2334
  551MOL0     C74263   0.306   2.342   7.775 -0.5228 -0.3055 -0.0069
  551MOL0     C74264   0.265   2.483   7.817 -0.4313 -0.4336 -0.2501
  551MOL0     C74265   0.363   2.600   7.788  0.7300 -0.0419 -0.0594
  551MOL0     C74266   0.407   2.590   7.642  0.0902 -0.0043 -0.0289
  551MOL0     N74267   0.506   2.689   7.599 -0.0679  0.4374 -1.1588
  551MOL0     C74268   0.645   2.666   7.608 -0.5925 -0.5084  0.9140
  551MOL0     C74269   0.704   2.777   7.554  0.8006  0.8664 -0.1396
  551MOL0     C74270   0.855   2.808   7.523  0.0515  0.2229  0.8689
  551MOL0     C74271   0.919   2.850   7.657  0.4688  0.1508 -0.1626
  551MOL0     C74272   1.061   2.799   7.679  0.1850  0.1640  0.0249
  551MOL0     C74273   1.164   2.857   7.584  0.3118  0.1605 -0.6907
  551MOL0     O74274   1.298   2.834   7.637 -0.3165  0.6320 -0.6825
  551MOL0     C74275   1.403   2.913   7.602  0.2970  0.0482 -0.0222
  551MOL0     C74276   1.404   2.974   7.476 -0.1593  0.0090 -0.3542
  551MOL0     C74277   1.505   3.064   7.444  0.3755 -0.7384  0.2462
  551MOL0     C74278   1.612   3.084   7.533 -0.9123 -0.7438  0.1015
  551MOL0     C74279   1.725   3.178   7.494 -0.1671  0.1698 -0.0151
  551MOL0     O74280   1.717   3.253   7.380 -0.6607  0.5221 -0.0085
  551MOL0     C74281   1.804   3.361   7.369 -0.0381  0.2925 -0.9734
  551MOL0     C74282   1.941   3.347   7.369 -0.1021  0.1319 -0.3547
  551MOL0     C74283   2.016   3.456   7.327 -0.1375 -0.0771 -0.1035
  551MOL0     C74284   1.961   3.581   7.282  0.3638 -0.3340  0.2582
  551MOL0     O74285   2.045   3.691   7.247 -0.4339 -0.5631  0.1070
  551MOL0     C74286   2.110   3.660   7.125 -0.7170 -0.0338 -0.0799
  551MOL0     C74287   2.188   3.780   7.068 -0.2394 -0.7812 -0.3136
  551MOL0     C74288   2.307   3.827   7.152 -0.6970 -0.7227 -0.0653
  551MOL0     C74289   2.334   3.976   7.148  0.2067  0.9527 -0.3697
  551MOL0     C74290   2.457   4.009   7.245 -0.0445  0.6319  0.3939
  551MOL0     C74291   2.449   4.148   7.300 -0.6945  0.4940  0.0891
  551MOL0     C74292   2.555   4.170   7.405  0.0976  0.4925 -0.9350
  551MOL0     C74293   2.527   4.303   7.468 -0.5623  0.0855  0.1267
  551MOL0    Cl74294   2.668   4.375   7.552  0.1052 -0.0584  0.1783
  551MOL0     C74295   1.820   3.594   7.296 -0.5912  0.6110 -0.0477
  551MOL0     C74296   1.744   3.483   7.339  1.1624  0.3520  0.2499
  551MOL0     O74297   1.824   3.182   7.571 -0.3759  0.0863  0.3333
  551MOL0     C74298   1.615   3.023   7.656  0.2919  0.6441  0.5138
  551MOL0     C74299   1.508   2.933   7.694  0.0087  0.0874 -0.0764
  551MOL0     N74300   0.596   2.870   7.535 -0.3044  0.1596 -0.2856
  551MOL0     N74301   0.484   2.813   7.548  0.0703  0.0139 -0.1836
  551MOL0     C74302   0.195   2.368   8.330 -0.2849  0.0774 -0.4445
  551MOL0     C74303   0.073   2.397   8.395  0.0442 -0.1794  0.2014
  551MOL0     C74304  -0.227   2.363   8.757 -0.1638  0.1890 -0.2974
  551MOL0     C74305  -0.325   2.425   8.686  0.1494 -0.8307  0.2710
  551MOL0     C74306  -0.455   2.429   8.728  0.6695  0.7915  0.2631
  551MOL0     C74307  -0.492   2.370   8.851  0.1678  0.8842 -0.1480
  551MOL0     O74308  -0.629   2.378   8.881 -0.0875 -0.8269 -0.2035
  551MOL0     C74309  -0.677   2.320   9.000 -0.3863 -0.1295 -0.3526
  551MOL0     C74310  -0.828   2.330   9.012  0.5321 -0.0762  0.5375
  551MOL0     C74311  -0.876   2.253   9.142 -0.0172  0.1739 -0.2392
  551MOL0     C74312  -1.012   2.276   9.192 -0.2077 -0.0245  0.6009
  551MOL0     C74313  -1.104   2.201   9.107 -0.2688 -0.0971  0.4947
  551MOL0     C74314  -1.181   2.151   9.028 -0.7043  0.2481  1.3789
  551MOL0     C74315  -0.391   2.321   8.937 -0.9560  0.9693 -0.2317
  551MOL0     C74316  -0.258   2.312   8.889  0.5282 -0.5907  0.2053
  551MOL0     C74317  -0.155   2.251   8.985  0.5406 -0.4921  0.6657
  551MOL0     H74318   0.102   2.163   8.644  0.9878 -1.3667 -0.2398
  551MOL0     H74319   0.295   2.113   8.518 -4.5551 -2.7549  0.0490
  551MOL0     H74320   0.441   2.393   8.224 -1.9569 -0.7951  2.5345
  551MOL0     H74321   0.557   2.262   8.199 -0.0225 -0.1703 -1.9968
  551MOL0     H74322   0.285   2.308   8.059  0.0682  0.2128 -1.3522
  551MOL0     H74323   0.369   2.152   8.044 -3.3886 -0.3541  2.8862
  551MOL0     H74324   0.583   2.307   7.976  0.4271 -2.4790 -3.3005
  551MOL0     H74325   0.469   2.436   7.996  1.3582  0.3171 -1.9459
  551MOL0     H74326   0.517   2.340   7.761  2.1758 -2.1278 -0.0319
  551MOL0     H74327   0.443   2.184   7.827  2.2659  0.3463  2.5056
  551MOL0     H74328   0.303   2.329   7.667  4.0864 -3.9935 -0.0350
  551MOL0     H74329   0.232   2.273   7.817  1.1179 -2.5668 -0.6407
  551MOL0     H74330   0.173   2.506   7.763  0.9302  1.7867 -1.8198
  551MOL0     H74331   0.247   2.489   7.924  0.8990 -1.0918  0.0365
  551MOL0     H74332   0.447   2.615   7.856  0.9774 -1.0938 -0.1131
  551MOL0     H74333   0.297   2.682   7.816  0.2343 -0.8785  1.3560
  551MOL0     H74334   0.458   2.495   7.622  1.2970  0.7183 -0.5038
  551MOL0     H74335   0.321   2.595   7.575  0.6319  2.4020 -0.6429
  551MOL0     H74336   0.682   2.569   7.639 -0.9696 -0.3441  1.8876
  551MOL0     H74337   0.901   2.715   7.490 -0.3215 -0.8366  3.1412
  551MOL0     H74338   0.854   2.881   7.442 -2.6831  0.1460  0.7469
  551MOL0     H74339   0.921   2.959   7.658  1.7157  0.1429  1.2389
  551MOL0     H74340   0.856   2.842   7.746  1.8449  0.5223  0.8615
  551MOL0     H74341   1.045   2.692   7.692 -0.6214  0.1582 -0.8571
  551MOL0     H74342   1.090   2.838   7.777 -0.4333 -3.6829  1.9307
  551MOL0     H74343   1.151   2.965   7.569  0.7146  0.0392 -1.9904
  551MOL0     H74344   1.157   2.806   7.488  3.7746  0.3878 -1.1688
  551MOL0     H74345   1.325   2.964   7.402  1.9124  1.6381 -2.9656
  551MOL0     H74346   1.506   3.126   7.355  1.8395 -1.5950 -0.3674
  551MOL0     H74347   1.993   3.257   7.398  2.4511  1.8105  0.6303
  551MOL0     H74348   2.121   3.428   7.327 -0.5504 -1.8783  2.0291
  551MOL0     H74349   2.183   3.579   7.132  0.0627  0.7445  1.2741
  551MOL0     H74350   2.031   3.631   7.055  0.2116 -0.5303 -0.9573
  551MOL0     H74351   2.221   3.774   6.964 -1.2106  0.6444 -0.7437
  551MOL0     H74352   2.116   3.863   7.061 -0.3130 -0.9861 -3.0207
  551MOL0     H74353   2.295   3.798   7.257 -1.3160  3.0398  1.0368
  551MOL0     H74354   2.396   3.779   7.109  0.9243  0.6662  1.5422
  551MOL0     H74355   2.241   4.027   7.178 -1.5607 -1.3070 -1.6900
  551MOL0     H74356   2.364   4.002   7.046  1.1874  0.6959 -0.1565
  551MOL0     H74357   2.546   4.008   7.181 -0.3661 -0.1670 -0.0615
  551MOL0     H74358   2.475   3.937   7.325  1.5176 -1.2235 -1.5199
  551MOL0     H74359   2.456   4.215   7.214  0.7481  1.8453  1.1926
  551MOL0     H74360   2.357   4.157   7.358  1.5071 -0.9371  4.1933
  551MOL0     H74361   2.658   4.174   7.367 -0.1979  1.1820 -1.7022
  551MOL0     H74362   2.546   4.092   7.481  2.0953 -0.3533 -1.5071
  551MOL0     H74363   2.508   4.372   7.385  2.6106 -0.9484 -1.6520
  551MOL0     H74364   2.440   4.294   7.532  0.5461  1.4269  1.9247
  551MOL0     H74365   1.774   3.690   7.278  1.6286  1.6032 -0.7022
  551MOL0     H74366   1.637   3.489   7.352  0.8769 -2.5781 -0.0790
  551MOL0     H74367   1.692   3.049   7.728  2.1071 -0.2856 -1.0206
  551MOL0     H74368   1.502   2.886   7.791 -0.9949  0.2576 -0.0434
  551MOL0     H74369   0.237   2.425   8.248 -0.2501  0.5793 -0.0804
  551MOL0     H74370   0.022   2.483   8.354 -0.6995  0.9708  3.2574
  551MOL0     H74371  -0.296   2.484   8.599 -0.0823 -2.3470 -0.8619
  551MOL0     H74372  -0.531   2.479   8.669  0.0299  0.2281  0.5940
  551MOL0     H74373  -0.632   2.378   9.081  1.2035 -1.7990  0.0093
  551MOL0     H74374  -0.653   2.215   9.021 -3.8258 -1.1155 -0.6533
  551MOL0     H74375  -0.868   2.277   8.925  0.9572  0.5455 -0.0480
  551MOL0     H74376  -0.860   2.434   9.007 -1.6886 -0.5511  2.8938
  551MOL0     H74377  -0.820   2.295   9.227 -3.8628  0.8159  2.2020
  551MOL0     H74378  -0.855   2.146   9.135  0.1101  0.1961 -0.2051
  551MOL0     H74379  -1.022   2.224   9.288 -3.6776 -0.9849 -0.1285
  551MOL0     H74380  -1.034   2.380   9.216 -1.3118 -0.3112  0.8889
  551MOL0     H74381  -1.231   2.099   8.950  2.6726 -0.1593 -0.7217
  551MOL0     H74382  -0.398   2.268   9.031  0.5194  2.1192  0.5674
  551MOL0     H74383  -0.099   2.174   8.933  1.0342 -0.8769  1.7379
  551MOL0     H74384  -0.085   2.331   9.011  1.7369 -1.3800  0.2617
  551MOL0     H74385  -0.205   2.205   9.071 -0.6283  0.9215  0.7931
  552MOL0     O74386   7.032   6.110   4.290 -0.1385 -0.0416  0.1693
  552MOL0     C74387   7.056   6.235   4.298 -0.9022 -0.7877 -0.1452
  552MOL0     O74388   6.963   6.330   4.336  0.1775  0.2242  0.1827
  552MOL0     C74389   6.832   6.290   4.340 -1.4469  0.4183  0.1098
  552MOL0     C74390   6.793   6.238   4.465 -0.6815 -0.8918  0.6290
  552MOL0     C74391   6.659   6.207   4.484 -0.2242  0.6788 -0.3796
  552MOL0     C74392   6.564   6.216   4.386  0.3578  0.2272  0.2566
  552MOL0     O74393   6.432   6.174   4.400  0.2072 -0.3004 -0.0737
  552MOL0     C74394   6.407   6.046   4.345 -0.1753  0.0261 -0.0405
  552MOL0     C74395   6.466   5.925   4.421 -0.3540 -0.0091  0.2101
  552MOL0     C74396   6.411   5.801   4.345 -0.0484  0.1068 -0.6358
  552MOL0     C74397   6.446   5.669   4.416 -0.6629 -0.5178  0.0563
  552MOL0     C74398   6.363   5.560   4.347 -0.0481  1.0572 -0.1147
  552MOL0     C74399   6.364   5.537   4.190  0.6113 -0.1974  0.0222
  552MOL0     C74400   6.512   5.507   4.149 -0.2619  0.3214  0.2119
  552MOL0     C74401   6.514   5.410   4.038 -0.0037  0.1963  0.0664
  552MOL0     N74402   6.647   5.366   3.997 -1.2720  0.1052 -0.5432
  552MOL0     C74403   6.733   5.442   3.918 -0.9566 -1.2726 -0.9187
  552MOL0     C74404   6.848   5.372   3.901  0.8709  0.0072  0.2342
  552MOL0     C74405   6.961   5.413   3.812  0.3448 -0.2968 -0.2189
  552MOL0     C74406   7.046   5.526   3.877 -0.0647 -0.2647 -0.8088
  552MOL0     C74407   7.174   5.535   3.797 -0.4421 -0.3142 -1.2153
  552MOL0     C74408   7.264   5.650   3.860 -0.9864  1.0522 -0.7158
  552MOL0     O74409   7.377   5.674   3.761 -0.3820  0.5796  0.2793
  552MOL0     C74410   7.497   5.607   3.787  0.5340  0.0937 -0.4417
  552MOL0     C74411   7.601   5.650   3.716  0.3224 -1.0425  0.5980
  552MOL0     C74412   7.724   5.583   3.720 -0.2210  0.0194  0.4234
  552MOL0     C74413   7.732   5.465   3.794  0.5131  0.7005 -0.2061
  552MOL0     C74414   7.861   5.381   3.782  0.0882 -0.0688  0.5083
  552MOL0     O74415   7.963   5.431   3.709 -0.0709  0.4289 -0.5326
  552MOL0     C74416   8.084   5.376   3.687 -0.0347  0.3947  0.4519
  552MOL0     C74417   8.145   5.274   3.772  0.4007  0.1396  0.2610
  552MOL0     C74418   8.273   5.215   3.746  0.1759 -0.4240 -0.1388
  552MOL0     C74419   8.338   5.247   3.627 -0.5316 -0.6883  0.0185
  552MOL0     O74420   8.451   5.183   3.582 -0.8056 -0.0643 -0.3337
  552MOL0     C74421   8.491   5.062   3.652 -0.4391  0.2556  0.6902
  552MOL0     C74422   8.598   4.978   3.574  0.7727  0.9337 -0.0189
  552MOL0     C74423   8.728   5.051   3.558 -0.7138 -0.1335  0.2304
  552MOL0     C74424   8.801   5.068   3.690 -0.7093  0.7819  0.0544
  552MOL0     C74425   8.943   5.131   3.683  0.3447 -1.0845  1.1593
  552MOL0     C74426   9.004   5.144   3.814  0.5112  0.2819  0.5312
  552MOL0     C74427   9.150   5.197   3.799 -0.2154  0.1177 -0.8011
  552MOL0     C74428   9.218   5.237   3.937  0.6977 -0.0838 -0.5963
  552MOL0    Cl74429   9.207   5.124   4.066  0.0854  0.5015 -0.1257
  552MOL0     C74430   8.284   5.347   3.550  0.5846  0.5525 -1.4049
  552MOL0     C74431   8.158   5.408   3.571  0.4327 -1.1574 -0.1798
  552MOL0     O74432   7.855   5.270   3.835  0.2561 -0.5203 -1.0149
  552MOL0     C74433   7.625   5.430   3.878 -0.6194 -0.1956 -0.1452
  552MOL0     C74434   7.511   5.497   3.880  0.7253 -0.4742  1.2841
  552MOL0     N74435   6.832   5.260   3.980 -0.1639  0.0313 -0.2176
  552MOL0     N74436   6.712   5.254   4.027  0.0414  0.4774  0.4444
  552MOL0     C74437   6.605   6.260   4.259 -0.0549  0.6740 -0.9293
  552MOL0     C74438   6.740   6.306   4.238  0.1054 -0.0009 -0.5041
  552MOL0     C74439   7.186   6.279   4.266 -0.2185  0.2666  1.1885
  552MOL0     C74440   7.296   6.218   4.329  0.6560  1.0358  0.7015
  552MOL0     C74441   7.427   6.245   4.303 -1.3728  0.9508  0.7127
  552MOL0     C74442   7.465   6.350   4.215 -0.3642  0.0526  0.5278
  552MOL0     O74443   7.589   6.392   4.168 -0.0787 -0.1129 -0.4001
  552MOL0     C74444   7.695   6.294   4.184  0.3390  0.2864  0.8061
  552MOL0     C74445   7.830   6.338   4.123 -0.1076 -0.0103 -0.2841
  552MOL0     C74446   7.930   6.225   4.149  0.2845  0.5350 -0.2436
  552MOL0     C74447   8.062   6.245   4.066 -0.6229 -0.9175 -0.6125
  552MOL0     C74448   8.138   6.363   4.110 -0.3660 -0.9406  0.4394
  552MOL0     C74449   8.187   6.459   4.168 -0.1270  0.6139  0.3420
  552MOL0     C74450   7.351   6.411   4.155  0.0078 -0.2602 -0.1368
  552MOL0     C74451   7.218   6.382   4.181  0.9328 -0.4877  1.0813
  552MOL0     C74452   7.110   6.446   4.090 -0.2181 -0.6022 -0.0173
  552MOL0     H74453   6.847   6.248   4.559  0.4284  0.6968 -0.1209
  552MOL0     H74454   6.626   6.176   4.583 -1.6862  1.8272 -0.4782
  552MOL0     H74455   6.300   6.027   4.330 -0.1623  1.1940 -2.0193
  552MOL0     H74456   6.441   6.038   4.241 -0.4008  0.0698 -0.1177
  552MOL0     H74457   6.429   5.922   4.524 -0.7104 -1.4024  0.0574
  552MOL0     H74458   6.575   5.936   4.414 -0.4504  0.5954 -0.4769
  552MOL0     H74459   6.451   5.805   4.243  1.3945  3.6703 -0.0616
  552MOL0     H74460   6.302   5.796   4.340 -0.1860 -0.4088  1.9002
  552MOL0     H74461   6.554   5.654   4.403  0.1507  3.4960  0.8426
  552MOL0     H74462   6.439   5.680   4.525 -2.9896  1.1030 -0.1846
  552MOL0     H74463   6.384   5.463   4.393 -3.7416  1.1138  2.0186
  552MOL0     H74464   6.257   5.572   4.370 -0.5857 -3.3562  0.6357
  552MOL0     H74465   6.303   5.452   4.160  0.5334  0.4766 -1.8088
  552MOL0     H74466   6.329   5.624   4.134  0.7500  1.3039  2.1478
  552MOL0     H74467   6.570   5.473   4.236  0.6522 -1.1870 -0.9242
  552MOL0     H74468   6.573   5.594   4.124 -2.2803  1.1597 -2.1444
  552MOL0     H74469   6.457   5.327   4.081 -0.3759  0.3654 -0.0922
  552MOL0     H74470   6.459   5.463   3.959  0.0442 -0.8127 -0.6639
  552MOL0     H74471   6.712   5.538   3.870  1.2347  0.0051  0.5339
  552MOL0     H74472   7.022   5.329   3.777  1.2873  0.5236 -0.5744
  552MOL0     H74473   6.917   5.448   3.718 -0.0946  0.3347  0.2144
  552MOL0     H74474   6.986   5.618   3.881  0.8300  0.3855 -1.8831
  552MOL0     H74475   7.078   5.502   3.978 -0.0848  2.1909 -0.1416
  552MOL0     H74476   7.150   5.549   3.691 -2.7361 -1.4306 -0.9109
  552MOL0     H74477   7.215   5.434   3.803 -1.8771 -0.8718 -0.2643
  552MOL0     H74478   7.304   5.614   3.955 -1.3027 -0.8541 -1.2721
  552MOL0     H74479   7.213   5.745   3.880  1.8747  2.7788 -0.9759
  552MOL0     H74480   7.604   5.752   3.680 -4.2661 -1.1041 -0.5862
  552MOL0     H74481   7.809   5.614   3.661 -0.1221  1.7194  1.3679
  552MOL0     H74482   8.088   5.248   3.860 -0.5786 -1.5430 -0.8284
  552MOL0     H74483   8.311   5.138   3.812  0.5288 -2.1293 -2.2061
  552MOL0     H74484   8.536   5.085   3.750  1.6013 -0.6045  0.0142
  552MOL0     H74485   8.410   4.992   3.676  0.0384 -0.7116 -0.4624
  552MOL0     H74486   8.618   4.889   3.633 -0.3796  1.5540  1.3779
  552MOL0     H74487   8.567   4.947   3.474  1.0879 -2.1763  0.7624
  552MOL0     H74488   8.783   4.992   3.484  1.2123  1.2260  0.5136
  552MOL0     H74489   8.710   5.152   3.520  2.0359  0.1258 -0.6025
  552MOL0     H74490   8.809   4.965   3.726 -1.2759 -0.2101 -2.4449
  552MOL0     H74491   8.744   5.118   3.769  1.3578  1.4346  1.2151
  552MOL0     H74492   8.918   5.228   3.639 -2.1646 -0.8762  2.8663
  552MOL0     H74493   9.015   5.072   3.625  0.3020  0.9061 -1.0510
  552MOL0     H74494   8.944   5.206   3.882 -0.9566 -1.8245  1.2504
  552MOL0     H74495   8.993   5.050   3.869  0.4253 -0.8337 -1.3092
  552MOL0     H74496   9.149   5.295   3.751  0.9335  0.2247 -0.6417
  552MOL0     H74497   9.217   5.131   3.743 -0.5536 -0.7467 -0.2206
  552MOL0     H74498   9.322   5.262   3.916  0.4549  0.9308 -0.6192
  552MOL0     H74499   9.163   5.328   3.961  0.8648  0.1249 -1.0033
  552MOL0     H74500   8.334   5.374   3.457 -0.2622  3.4944 -1.1284
  552MOL0     H74501   8.114   5.467   3.491  0.0280  0.2590  1.0407
  552MOL0     H74502   7.629   5.335   3.930  0.5777 -0.7979 -1.2805
  552MOL0     H74503   7.429   5.459   3.939 -1.1836  0.5740 -0.5410
  552MOL0     H74504   6.533   6.276   4.179  1.4063 -1.1424 -2.7044
  552MOL0     H74505   6.773   6.347   4.143 -1.6157  3.3969  0.2005
  552MOL0     H74506   7.277   6.134   4.396  0.1556  0.0319 -0.6652
  552MOL0     H74507   7.504   6.176   4.339 -2.2275 -0.7735 -0.6115
  552MOL0     H74508   7.665   6.201   4.135  4.7217 -0.1333 -1.5851
  552MOL0     H74509   7.706   6.264   4.289  0.2428 -2.8925 -0.0077
  552MOL0     H74510   7.857   6.433   4.169  1.3484 -0.4664 -0.1376
  552MOL0     H74511   7.822   6.359   4.016  0.0572 -0.5679 -0.4094
  552MOL0     H74512   7.888   6.127   4.125 -0.5569  0.4428  1.4663
  552MOL0     H74513   7.950   6.237   4.256  1.7651  0.1799 -0.4652
  552MOL0     H74514   8.133   6.164   4.084  1.2977  0.2393 -2.4952
  552MOL0     H74515   8.028   6.244   3.962 -2.3928 -3.0142 -0.0837
  552MOL0     H74516   8.248   6.534   4.214  1.8237 -0.6042 -0.1642
  552MOL0     H74517   7.365   6.504   4.101  0.6478  0.3451  1.0368
  552MOL0     H74518   7.073   6.533   4.146  3.6747 -0.3054  2.4265
  552MOL0     H74519   7.161   6.479   4.000 -2.6205  1.1072 -0.8766
  552MOL0     H74520   7.026   6.378   4.070 -0.1820 -0.5258 -0.4393
  553MOL0     O74521   1.535  10.907   3.292  0.5251 -0.1950  0.0800
  553MOL0     C74522   1.488  10.945   3.188 -0.2515 -0.1215 -0.5348
  553MOL0     O74523   1.554  11.011   3.083 -0.2817 -0.4255 -0.3033
  553MOL0     C74524   1.663  11.081   3.116 -0.1747  0.0039  0.5267
  553MOL0     C74525   1.773  11.013   3.110 -0.4512  0.5487 -0.6165
  553MOL0     C74526   1.902  11.069   3.123 -0.6662 -0.2655 -0.5759
  553MOL0     C74527   1.924  11.203   3.138  0.1549  0.2533  0.0077
  553MOL0     O74528   2.052  11.258   3.139 -0.6057  0.1197  0.3409
  553MOL0     C74529   2.069  11.398   3.162 -0.5979 -0.8766 -0.1715
  553MOL0     C74530   2.214  11.440   3.147 -0.4898 -0.1430  0.1260
  553MOL0     C74531   2.286  11.378   3.017  0.0476 -0.7318  0.9237
  553MOL0     C74532   2.252  11.475   2.900 -1.0579 -0.3401  1.3830
  553MOL0     C74533   2.356  11.467   2.785 -0.0363 -0.1841 -0.3985
  553MOL0     C74534   2.470  11.573   2.818  0.1073  0.4530  0.1447
  553MOL0     C74535   2.589  11.575   2.717  0.7375 -0.3709  0.9945
  553MOL0     C74536   2.669  11.442   2.702  0.2700 -0.2116  0.4177
  553MOL0     N74537   2.708  11.373   2.829  0.3196  0.1668 -0.4076
  553MOL0     C74538   2.814  11.417   2.905  0.4873  0.4554 -0.0030
  553MOL0     C74539   2.809  11.359   3.029  0.7421  0.1714  0.3000
  553MOL0     C74540   2.905  11.358   3.147  0.5405 -0.4534 -0.7674
  553MOL0     C74541   2.889  11.494   3.227  0.6326 -0.4513  0.1414
  553MOL0     C74542   2.927  11.633   3.160 -0.3327 -0.1466  1.0403
  553MOL0     C74543   3.072  11.632   3.112 -0.4302 -0.8556 -0.7446
  553MOL0     O74544   3.155  11.593   3.220  0.4341  0.4559  0.6435
  553MOL0     C74545   3.290  11.565   3.191 -1.1480 -1.0667 -0.6783
  553MOL0     C74546   3.357  11.583   3.066 -0.5173 -0.8392 -0.1644
  553MOL0     C74547   3.495  11.544   3.045 -0.0651  0.0982 -0.5038
  553MOL0     C74548   3.558  11.484   3.151  0.7211  0.0861 -0.6512
  553MOL0     C74549   3.707  11.461   3.122  0.3525 -0.2944  0.0747
  553MOL0     O74550   3.765  11.398   3.229 -0.0259 -0.2202 -0.4770
  553MOL0     C74551   3.881  11.314   3.216  0.2697 -0.6688  0.1431
  553MOL0     C74552   3.916  11.235   3.321  0.5603 -0.5041  0.3651
  553MOL0     C74553   4.019  11.134   3.313  0.1388 -0.6103 -0.0390
  553MOL0     C74554   4.093  11.121   3.198  0.4003  0.8691  0.1440
  553MOL0     O74555   4.195  11.020   3.177  0.8258 -0.3845 -0.0053
  553MOL0     C74556   4.219  10.932   3.285  0.2039  0.4444 -1.0925
  553MOL0     C74557   4.316  10.825   3.239  0.4316  0.1526 -0.1171
  553MOL0     C74558   4.456  10.872   3.246 -0.9982  0.0870  0.2104
  553MOL0     C74559   4.556  10.783   3.168  0.0162 -0.8814  0.1851
  553MOL0     C74560   4.704  10.811   3.206  0.2669  0.5167  0.7218
  553MOL0     C74561   4.801  10.733   3.110  0.5752 -0.2756  0.1382
  553MOL0     C74562   4.945  10.768   3.106  0.3576 -0.2387  0.7413
  553MOL0     C74563   5.009  10.800   3.233  0.9383  0.8920  0.2587
  553MOL0    Cl74564   5.070  10.971   3.234  0.0077  0.6495  0.3585
  553MOL0     C74565   4.052  11.202   3.087 -0.2715  1.6520 -0.0088
  553MOL0     C74566   3.947  11.291   3.101 -0.3827 -0.0696  0.3391
  553MOL0     O74567   3.759  11.485   3.014 -0.3421 -0.0458 -0.6087
  553MOL0     C74568   3.494  11.451   3.278  0.5262  0.4062  0.1775
  553MOL0     C74569   3.361  11.499   3.293 -1.0683 -0.0390 -0.0944
  553MOL0     N74570   2.696  11.273   3.016 -0.6523  0.4318 -0.8172
  553MOL0     N74571   2.643  11.279   2.903 -0.0384  0.0154  1.1151
  553MOL0     C74572   1.812  11.285   3.142 -0.5048  0.1894  0.2756
  553MOL0     C74573   1.683  11.224   3.136 -0.0038  0.8178  0.6906
  553MOL0     C74574   1.349  10.914   3.161  1.2006  0.1467  0.3227
  553MOL0     C74575   1.314  10.778   3.168 -0.2159  0.4050  0.3209
  553MOL0     C74576   1.190  10.739   3.115 -0.2854  0.2147  0.5434
  553MOL0     C74577   1.094  10.836   3.063 -0.1095 -0.2509 -0.2098
  553MOL0     O74578   0.976  10.795   3.008  0.0742  0.0631 -0.2900
  553MOL0     C74579   0.912  10.861   2.898 -0.4210 -0.3030 -0.2059
  553MOL0     C74580   0.848  10.768   2.800  0.0016  0.6336  0.0452
  553MOL0     C74581   0.733  10.699   2.878 -0.3722  0.3974 -0.5358
  553MOL0     C74582   0.662  10.573   2.820 -0.2850 -0.2921 -0.7191
  553MOL0     C74583   0.594  10.617   2.699 -0.7800 -0.1213  0.2133
  553MOL0     C74584   0.543  10.635   2.597 -0.9930 -0.9334  1.0444
  553MOL0     C74585   1.129  10.970   3.063 -0.2400  0.4897  0.0760
  553MOL0     C74586   1.251  11.008   3.114  0.0538 -0.8159  0.8228
  553MOL0     C74587   1.285  11.157   3.116  0.8549  0.6499 -0.0171
  553MOL0     H74588   1.762  10.905   3.102 -2.2830  0.4323  2.1622
  553MOL0     H74589   1.983  10.998   3.108 -1.8920 -1.2365 -3.3054
  553MOL0     H74590   2.014  11.455   3.087 -1.1707  0.9870  1.5706
  553MOL0     H74591   2.046  11.427   3.265  1.5151 -1.5091  0.5450
  553MOL0     H74592   2.275  11.406   3.231  1.6364  1.0888 -0.8426
  553MOL0     H74593   2.219  11.549   3.159 -1.2165 -0.0257 -0.5576
  553MOL0     H74594   2.248  11.279   2.994 -2.6400  0.6736 -1.1528
  553MOL0     H74595   2.394  11.375   3.035  0.5300 -2.9692 -1.7989
  553MOL0     H74596   2.153  11.443   2.866 -1.1872 -0.5091  1.9125
  553MOL0     H74597   2.256  11.579   2.934 -1.3581 -0.9600  3.4414
  553MOL0     H74598   2.396  11.365   2.782 -1.9554 -1.0512  0.9814
  553MOL0     H74599   2.318  11.483   2.683 -2.0136 -1.0289  0.1454
  553MOL0     H74600   2.421  11.671   2.811  0.9225  0.9731  1.4879
  553MOL0     H74601   2.502  11.561   2.921  0.4382 -0.3001 -0.0349
  553MOL0     H74602   2.650  11.664   2.733 -1.7836  1.7371 -0.3470
  553MOL0     H74603   2.541  11.585   2.620 -0.0689 -1.7068  1.2304
  553MOL0     H74604   2.596  11.373   2.659  0.2081  0.1910 -0.1371
  553MOL0     H74605   2.758  11.449   2.639  2.7871 -2.9264  3.3344
  553MOL0     H74606   2.878  11.497   2.869 -0.9015  0.9344 -1.5463
  553MOL0     H74607   2.866  11.283   3.216  1.9265  0.9447  1.6884
  553MOL0     H74608   3.006  11.323   3.125  0.3464 -1.8709  0.4576
  553MOL0     H74609   2.781  11.499   3.245  0.5281 -3.0126  0.5267
  553MOL0     H74610   2.932  11.499   3.327  1.4501  2.0815 -0.2522
  553MOL0     H74611   2.905  11.703   3.241  0.6805  1.3099  0.0858
  553MOL0     H74612   2.861  11.652   3.075 -0.8672 -3.2451  0.6370
  553MOL0     H74613   3.107  11.729   3.073  1.1038 -0.4180  1.5189
  553MOL0     H74614   3.081  11.555   3.035  1.9562 -0.3092 -1.1132
  553MOL0     H74615   3.299  11.623   2.983 -6.1560 -2.6369  2.4304
  553MOL0     H74616   3.535  11.558   2.945  0.9095  0.4932 -0.0679
  553MOL0     H74617   3.862  11.249   3.414 -0.4690 -0.1988 -0.2620
  553MOL0     H74618   4.040  11.061   3.390 -2.1482 -2.7643 -1.3213
  553MOL0     H74619   4.257  10.984   3.374 -1.2012 -1.0903  0.4959
  553MOL0     H74620   4.125  10.882   3.308 -0.1455  2.1277  1.7238
  553MOL0     H74621   4.310  10.744   3.313 -1.8884  0.7822  0.4769
  553MOL0     H74622   4.290  10.796   3.137  0.0284 -0.4469  0.1492
  553MOL0     H74623   4.462  10.961   3.182  0.4695 -0.1022  0.0660
  553MOL0     H74624   4.491  10.891   3.348 -1.4926  0.8414  0.2503
  553MOL0     H74625   4.540  10.789   3.060 -1.9098 -0.7218  0.4510
  553MOL0     H74626   4.539  10.679   3.195  2.9879 -0.9851  2.0680
  553MOL0     H74627   4.727  10.796   3.312 -0.3957 -3.5133  0.4525
  553MOL0     H74628   4.724  10.918   3.198  2.5665  0.0938  0.3411
  553MOL0     H74629   4.788  10.627   3.133  2.9001 -0.8291 -0.8710
  553MOL0     H74630   4.759  10.745   3.010  0.2408 -1.8354  0.0675
  553MOL0     H74631   4.946  10.850   3.034  2.2323 -0.9578 -0.1072
  553MOL0     H74632   4.996  10.678   3.071  0.2834 -1.5761  3.7392
  553MOL0     H74633   4.936  10.789   3.314 -0.1961  1.6791 -0.6351
  553MOL0     H74634   5.090  10.731   3.258 -1.5306 -3.2372 -2.0492
  553MOL0     H74635   4.104  11.203   2.991 -1.6452  3.3947 -0.8019
  553MOL0     H74636   3.930  11.342   3.006  2.1254 -0.7647 -0.5598
  553MOL0     H74637   3.543  11.399   3.360  1.6844  1.3619  0.1223
  553MOL0     H74638   3.299  11.478   3.379  0.7146 -0.3432  1.1643
  553MOL0     H74639   1.815  11.393   3.145 -0.8016  0.2015  0.2048
  553MOL0     H74640   1.597  11.291   3.137  0.4763  1.4338  1.5620
  553MOL0     H74641   1.384  10.698   3.192 -3.9853 -3.2964  0.0387
  553MOL0     H74642   1.161  10.634   3.114  0.1020  0.1119 -0.2229
  553MOL0     H74643   0.994  10.916   2.850 -0.3585  0.2503  0.5198
  553MOL0     H74644   0.843  10.939   2.929  1.7777  1.5342  0.3433
  553MOL0     H74645   0.923  10.702   2.756 -1.0007  0.3513 -1.2953
  553MOL0     H74646   0.804  10.817   2.712  0.4782  1.5012  0.2719
  553MOL0     H74647   0.655  10.773   2.898 -0.7696 -0.0890 -0.2373
  553MOL0     H74648   0.779  10.665   2.971  0.8326  1.6827 -0.6293
  553MOL0     H74649   0.743  10.503   2.797  0.2697  1.1703 -3.5669
  553MOL0     H74650   0.595  10.532   2.897 -0.8404  0.7962 -0.6003
  553MOL0     H74651   0.497  10.656   2.503 -1.0660  1.5373  1.5403
  553MOL0     H74652   1.071  11.055   3.027  0.1251  1.6263  2.0427
  553MOL0     H74653   1.372  11.176   3.052  3.0063 -0.5555  2.3529
  553MOL0     H74654   1.199  11.225   3.112  0.8080  1.4692  6.2214
  553MOL0     H74655   1.328  11.183   3.213 -1.2751 -0.3763  1.2658
  554MOL0     O74656   1.886   1.829  10.761  0.2298  0.1252  0.1800
  554MOL0     C74657   1.859   1.897  10.658  0.3423  0.4072 -0.5985
  554MOL0     O74658   1.955   1.950  10.573 -0.1346  0.8992 -0.3026
  554MOL0     C74659   2.084   1.931  10.615  0.0039  0.2326  0.8540
  554MOL0     C74660   2.171   1.839  10.554 -0.2782  0.6021 -0.0723
  554MOL0     C74661   2.297   1.829  10.602 -0.2131 -0.0950 -0.2984
  554MOL0     C74662   2.340   1.898  10.711 -0.0302 -0.2223 -0.7535
  554MOL0     O74663   2.460   1.869  10.763 -0.7523  0.2180 -0.3821
  554MOL0     C74664   2.525   1.960  10.853  0.2951  0.0573  0.0235
  554MOL0     C74665   2.672   1.898  10.863 -0.4523 -0.7691  0.0260
  554MOL0     C74666   2.763   1.992  10.949  0.0612  0.7648  0.2126
  554MOL0     C74667   2.901   1.922  10.985  0.3811 -1.2214 -0.0665
  554MOL0     C74668   3.017   2.030  10.956 -0.2980  0.6928  0.0024
  554MOL0     C74669   3.063   2.025  10.813 -0.8325 -0.7010  0.9764
  554MOL0     C74670   3.161   2.137  10.759  0.0962  0.2198 -0.6667
  554MOL0     C74671   3.299   2.128  10.824 -0.2786  0.1117 -0.7478
  554MOL0     N74672   3.387   2.021  10.779  0.8777  0.3793 -0.1680
  554MOL0     C74673   3.423   1.993  10.657  0.5065  0.4357 -0.0417
  554MOL0     C74674   3.514   1.893  10.660  0.3249  0.1749  0.3044
  554MOL0     C74675   3.570   1.814  10.544  0.6726 -0.1342 -0.5017
  554MOL0     C74676   3.717   1.826  10.549  0.2764 -1.5096  0.0567
  554MOL0     C74677   3.778   1.762  10.427 -0.6158 -0.6116  0.4377
  554MOL0     C74678   3.933   1.741  10.449 -0.6541  0.6260  0.4718
  554MOL0     O74679   3.956   1.637  10.545  0.0845  0.1560  0.1600
  554MOL0     C74680   4.080   1.580  10.572  0.4766 -0.3853  0.6802
  554MOL0     C74681   4.097   1.440  10.600  0.0940 -0.6851  0.0191
  554MOL0     C74682   4.223   1.387  10.623  0.1251 -0.0493 -0.6436
  554MOL0     C74683   4.340   1.465  10.623 -0.4955  0.0991 -0.3492
  554MOL0     C74684   4.476   1.409  10.657  0.4680  0.4014 -0.0227
  554MOL0     O74685   4.475   1.305  10.742 -0.5822  0.1731 -0.1732
  554MOL0     C74686   4.602   1.254  10.754 -0.5284 -0.0624  0.0581
  554MOL0     C74687   4.665   1.159  10.670  0.0715 -0.8546  0.5152
  554MOL0     C74688   4.807   1.125  10.691 -0.6515  0.4511 -0.3392
  554MOL0     C74689   4.868   1.165  10.811  1.0725  0.4703  0.4639
  554MOL0     O74690   4.993   1.104  10.826 -0.5839 -0.4693  0.0938
  554MOL0     C74691   5.075   1.188  10.912 -0.3377  0.0839 -0.3670
  554MOL0     C74692   5.212   1.117  10.924  0.0492 -0.8291 -0.7002
  554MOL0     C74693   5.304   1.133  10.800  0.1641  0.5655 -0.2282
  554MOL0     C74694   5.411   1.026  10.789  0.5079 -0.7695 -0.0427
  554MOL0     C74695   5.518   1.048  10.901  0.4687  0.4172  0.2590
  554MOL0     C74696   5.615   1.166  10.886  0.2974 -0.5779 -0.6139
  554MOL0     C74697   5.702   1.150  10.762 -0.2893 -0.2327  0.1566
  554MOL0     C74698   5.818   1.253  10.775 -1.0790 -0.1071 -0.1548
  554MOL0    Cl74699   5.909   1.234  10.626 -0.3005  0.0681 -0.3385
  554MOL0     C74700   4.801   1.250  10.904  0.1008  0.0008  1.0666
  554MOL0     C74701   4.668   1.291  10.875 -0.3275 -0.2247  0.4093
  554MOL0     O74702   4.579   1.466  10.614  0.0937 -1.0177  0.3587
  554MOL0     C74703   4.322   1.600  10.584 -0.1092  0.1292  0.3005
  554MOL0     C74704   4.197   1.656  10.560  0.2098  0.1094 -0.6587
  554MOL0     N74705   3.539   1.871  10.797 -0.0572  0.9341 -0.6396
  554MOL0     N74706   3.460   1.940  10.865  0.3967  0.4849 -0.6553
  554MOL0     C74707   2.256   1.990  10.779  0.3183 -0.2755  0.0165
  554MOL0     C74708   2.125   2.000  10.728  0.2622  0.4735 -0.6911
  554MOL0     C74709   1.716   1.903  10.623  0.3704  0.3376  0.8916
  554MOL0     C74710   1.679   1.906  10.483 -0.2757  0.2857 -0.7805
  554MOL0     C74711   1.542   1.912  10.457  0.9090  0.1328  0.6561
  554MOL0     C74712   1.436   1.938  10.551 -0.8618  1.1745 -0.0284
  554MOL0     O74713   1.309   1.927  10.507 -0.6115 -0.1589  0.6682
  554MOL0     C74714   1.201   1.948  10.598 -0.0647 -0.3737  0.0089
  554MOL0     C74715   1.082   1.925  10.508 -0.0866 -0.2172  0.3014
  554MOL0     C74716   0.946   1.974  10.557  0.7737 -0.7871 -0.5851
  554MOL0     C74717   0.859   1.858  10.608  0.2224  0.6667 -0.4124
  554MOL0     C74718   0.722   1.918  10.625 -0.5684  0.5718 -0.4600
  554MOL0     C74719   0.619   1.975  10.644  0.3452  0.0646  0.0056
  554MOL0     C74720   1.485   1.943  10.687 -0.7500 -0.2379 -0.2406
  554MOL0     C74721   1.621   1.915  10.720 -0.7848  0.2572  0.2076
  554MOL0     C74722   1.659   1.927  10.864 -0.1781 -0.0890 -0.8214
  554MOL0     H74723   2.139   1.779  10.469  1.0438 -2.5738  1.5085
  554MOL0     H74724   2.370   1.770  10.547  0.4507  0.1341  0.3315
  554MOL0     H74725   2.521   2.062  10.815 -1.0621  1.1277  2.7568
  554MOL0     H74726   2.479   1.968  10.952  1.3915  0.5520  0.5148
  554MOL0     H74727   2.718   1.886  10.765  0.1318  2.0623 -0.1215
  554MOL0     H74728   2.663   1.797  10.904 -1.3628 -1.6501 -2.1934
  554MOL0     H74729   2.725   2.026  11.045  1.4804  0.8243  0.7843
  554MOL0     H74730   2.791   2.082  10.893  1.2473 -0.5966 -1.5243
  554MOL0     H74731   2.900   1.901  11.092 -1.6994 -2.9112 -0.3649
  554MOL0     H74732   2.931   1.833  10.929 -1.7527 -1.0543 -1.6275
  554MOL0     H74733   2.994   2.132  10.991  0.4226  0.4116  1.3841
  554MOL0     H74734   3.100   2.007  11.023 -0.6670  1.0098  0.5816
  554MOL0     H74735   3.113   1.931  10.792  1.0287  0.7683 -1.7523
  554MOL0     H74736   2.971   2.017  10.755 -1.4835 -1.7695  2.0966
  554MOL0     H74737   3.122   2.237  10.779  0.2578 -0.3235  3.0079
  554MOL0     H74738   3.164   2.124  10.650 -0.3379  0.0373 -0.6606
  554MOL0     H74739   3.341   2.229  10.815 -1.4104  0.7034  0.1586
  554MOL0     H74740   3.296   2.116  10.933  2.5210  2.7718 -0.2061
  554MOL0     H74741   3.377   2.045  10.574 -0.3004  2.4356  1.5874
  554MOL0     H74742   3.545   1.709  10.566  2.4711 -0.3496  0.7414
  554MOL0     H74743   3.533   1.847  10.447  0.4056  0.2889 -0.2568
  554MOL0     H74744   3.752   1.930  10.548 -2.7261 -0.3779 -2.1981
  554MOL0     H74745   3.760   1.767  10.631 -0.6725 -3.7798 -0.9882
  554MOL0     H74746   3.764   1.820  10.335 -2.2620  0.3232  1.2434
  554MOL0     H74747   3.741   1.659  10.415  0.7146 -0.8248 -3.0689
  554MOL0     H74748   3.971   1.838  10.484 -0.5331 -0.1296  2.5563
  554MOL0     H74749   3.993   1.727  10.359  2.9262 -2.3196  3.0516
  554MOL0     H74750   4.012   1.374  10.609  1.2189 -2.4194 -1.2290
  554MOL0     H74751   4.236   1.284  10.654 -0.2811  0.7981  2.8199
  554MOL0     H74752   4.604   1.132  10.584  0.8322 -1.4497  0.1523
  554MOL0     H74753   4.868   1.057  10.633  0.1699  0.4998  0.4473
  554MOL0     H74754   5.077   1.289  10.869 -0.2929  0.4467  0.4793
  554MOL0     H74755   5.037   1.191  11.014 -0.0726  0.7463 -0.2770
  554MOL0     H74756   5.267   1.167  11.004 -2.3561  0.2370  0.3782
  554MOL0     H74757   5.206   1.013  10.960  2.1852 -0.5492  0.6495
  554MOL0     H74758   5.240   1.122  10.711  2.2881 -1.4893 -1.6034
  554MOL0     H74759   5.348   1.233  10.800  1.3753  0.0519  0.8361
  554MOL0     H74760   5.453   1.030  10.688 -3.5435  3.9417 -1.9397
  554MOL0     H74761   5.361   0.933  10.818 -2.1755  0.2135 -1.1665
  554MOL0     H74762   5.573   0.954  10.910  0.5415  0.4401  0.0660
  554MOL0     H74763   5.461   1.063  10.993 -2.7518  0.0286 -1.5271
  554MOL0     H74764   5.558   1.260  10.884  3.9705  1.9205  1.1048
  554MOL0     H74765   5.682   1.176  10.972 -1.5859 -1.4334  1.0324
  554MOL0     H74766   5.638   1.167  10.675 -1.0064 -0.4563  0.6318
  554MOL0     H74767   5.736   1.046  10.758 -2.8772 -1.1639  0.3326
  554MOL0     H74768   5.794   1.359  10.788  1.9036  0.5038  1.2918
  554MOL0     H74769   5.884   1.234  10.860 -0.6052  0.3667 -0.4125
  554MOL0     H74770   4.848   1.267  11.000  1.0395  2.5552  0.2468
  554MOL0     H74771   4.620   1.355  10.948  0.3679 -0.4131  1.0382
  554MOL0     H74772   4.413   1.660  10.584  1.1693 -1.6993 -0.3616
  554MOL0     H74773   4.195   1.761  10.531  0.0303  0.0994 -0.6849
  554MOL0     H74774   2.282   2.042  10.870  1.4926  1.4507 -1.2602
  554MOL0     H74775   2.072   2.080  10.779  0.5819  0.2410  0.0194
  554MOL0     H74776   1.755   1.890  10.407  1.1405  4.2360 -0.4400
  554MOL0     H74777   1.506   1.909  10.355  0.6379  2.6523  0.6210
  554MOL0     H74778   1.204   2.052  10.632 -1.5779 -0.3525  0.1202
  554MOL0     H74779   1.202   1.878  10.682 -1.3381 -1.0142 -0.4865
  554MOL0     H74780   1.072   1.821  10.475 -1.6421  0.3816 -1.2786
  554MOL0     H74781   1.107   1.982  10.417 -2.6939 -0.8014 -0.8860
  554MOL0     H74782   0.914   2.028  10.468  1.8910 -2.6005 -2.1668
  554MOL0     H74783   0.956   2.045  10.639 -2.8630 -0.0782 -0.6038
  554MOL0     H74784   0.860   1.783  10.529  3.1214  1.6853 -1.4537
  554MOL0     H74785   0.897   1.812  10.700 -1.5013 -1.9540 -0.8823
  554MOL0     H74786   0.530   2.026  10.675  0.2717 -0.3598  0.4982
  554MOL0     H74787   1.419   1.953  10.772  1.1712  1.1162  1.1869
  554MOL0     H74788   1.647   1.835  10.922  0.9939  0.3111  0.1006
  554MOL0     H74789   1.760   1.971  10.870 -0.8514  1.4311 -0.1490
  554MOL0     H74790   1.593   2.001  10.909  0.3882 -0.0333 -0.0587
  555MOL0     O74791   2.031   9.791   3.691 -0.0844  0.1831 -0.7062
  555MOL0     C74792   2.033   9.907   3.712  0.1129 -0.6450  0.1545
  555MOL0     O74793   2.146   9.982   3.726  0.5663  0.6320  0.0887
  555MOL0     C74794   2.269   9.925   3.739  0.5184  0.0324 -0.2738
  555MOL0     C74795   2.298   9.808   3.814  0.0733 -0.0311 -0.6394
  555MOL0     C74796   2.430   9.763   3.830  0.1193 -0.0759 -0.9031
  555MOL0     C74797   2.544   9.832   3.770 -0.5417  0.2277 -0.7148
  555MOL0     O74798   2.672   9.801   3.804  0.1431  0.1412 -0.3498
  555MOL0     C74799   2.767   9.818   3.699  0.1517  0.0593 -0.1242
  555MOL0     C74800   2.886   9.723   3.701  0.9574 -0.2627 -0.0054
  555MOL0     C74801   2.974   9.745   3.578  0.1469 -0.5726  0.3758
  555MOL0     C74802   3.104   9.677   3.591  0.2387  1.2728 -0.2536
  555MOL0     C74803   3.179   9.693   3.454 -0.0719  0.0162 -1.1909
  555MOL0     C74804   3.323   9.636   3.438  0.2243  0.0838 -0.0675
  555MOL0     C74805   3.407   9.686   3.560 -0.6210 -0.4641  0.1208
  555MOL0     C74806   3.547   9.621   3.560 -0.8345 -0.1241  1.3119
  555MOL0     N74807   3.632   9.672   3.453  0.4869  0.4372  0.2839
  555MOL0     C74808   3.686   9.793   3.444 -0.6440  0.5681  0.1136
  555MOL0     C74809   3.785   9.773   3.360  0.8000 -0.5728  0.2656
  555MOL0     C74810   3.868   9.889   3.309  0.6611 -0.2438 -0.1728
  555MOL0     C74811   3.990   9.827   3.247  0.5638 -0.7212 -0.6987
  555MOL0     C74812   4.061   9.943   3.175 -0.5096  0.8358 -0.3650
  555MOL0     C74813   4.185   9.891   3.096  0.4848  0.0570 -0.6165
  555MOL0     O74814   4.282   9.871   3.201 -0.6421  0.0770  0.3246
  555MOL0     C74815   4.416   9.842   3.166 -0.0737 -0.5579 -0.1113
  555MOL0     C74816   4.490   9.773   3.260 -0.4978  0.6053 -0.6566
  555MOL0     C74817   4.624   9.743   3.226 -0.8166  0.1913  0.2224
  555MOL0     C74818   4.686   9.781   3.109 -0.0560  0.8273  0.4458
  555MOL0     C74819   4.835   9.767   3.094  0.1531  0.9545  0.7880
  555MOL0     O74820   4.896   9.841   2.994 -0.1591 -0.3455  0.4891
  555MOL0     C74821   5.026   9.834   2.965 -0.1090 -0.7337 -0.2790
  555MOL0     C74822   5.064   9.829   2.832 -0.3460  0.8041  0.3636
  555MOL0     C74823   5.203   9.831   2.795  0.7985 -0.7533 -0.2191
  555MOL0     C74824   5.302   9.851   2.896  0.3968 -0.3370  0.2553
  555MOL0     O74825   5.432   9.866   2.853  0.3806  0.0304 -1.4599
  555MOL0     C74826   5.520   9.766   2.886 -0.2801  0.7732 -0.0320
  555MOL0     C74827   5.645   9.787   2.806 -0.3262  0.3451  0.4077
  555MOL0     C74828   5.716   9.929   2.825  0.8105  0.6441  0.1076
  555MOL0     C74829   5.861   9.923   2.774 -0.2687  0.6504  0.1391
  555MOL0     C74830   5.940  10.049   2.781 -0.2057  0.8065  0.3728
  555MOL0     C74831   6.088  10.021   2.756 -0.0636  0.5207 -0.4366
  555MOL0     C74832   6.140  10.050   2.617  0.2492 -0.4409 -0.2380
  555MOL0     C74833   6.288  10.045   2.615 -0.3884 -0.1326 -1.3154
  555MOL0    Cl74834   6.347   9.874   2.601 -0.0648  0.0136  0.0053
  555MOL0     C74835   5.251   9.854   3.029 -0.3759  0.0618  0.3215
  555MOL0     C74836   5.118   9.842   3.066 -0.1298  0.1660  0.5743
  555MOL0     O74837   4.891   9.681   3.165  0.0745  0.3613 -0.0477
  555MOL0     C74838   4.616   9.854   3.019 -0.0921 -0.6911  0.2340
  555MOL0     C74839   4.479   9.883   3.044  0.6961  0.0073  0.5185
  555MOL0     N74840   3.801   9.643   3.324 -0.1913  0.4453 -0.0339
  555MOL0     N74841   3.707   9.579   3.390  0.3697 -0.3457  0.1263
  555MOL0     C74842   2.513   9.951   3.703 -0.0503 -0.1271  0.1625
  555MOL0     C74843   2.382   9.993   3.693  0.2349  0.1188  0.6038
  555MOL0     C74844   1.902   9.973   3.713  0.4166  0.0873 -0.4499
  555MOL0     C74845   1.898  10.115   3.740 -0.0882  0.1222  0.0448
  555MOL0     C74846   1.771  10.187   3.755  0.5500  0.2944 -0.1177
  555MOL0     C74847   1.651  10.114   3.756 -0.5056 -0.3244 -0.5493
  555MOL0     O74848   1.532  10.168   3.796 -0.0478 -0.1881  0.8090
  555MOL0     C74849   1.521  10.305   3.835  0.3553 -0.1891 -0.0080
  555MOL0     C74850   1.581  10.341   3.971 -0.0283  0.7902  0.6491
  555MOL0     C74851   1.470  10.315   4.076 -0.5639 -0.0499  0.9991
  555MOL0     C74852   1.396  10.437   4.137  0.8349  0.2695  0.2837
  555MOL0     C74853   1.294  10.477   4.038 -0.0804  0.5385 -0.3682
  555MOL0     C74854   1.223  10.524   3.958 -0.4205  0.6267  0.2017
  555MOL0     C74855   1.659   9.981   3.724  0.4808 -1.1737 -0.4227
  555MOL0     C74856   1.775   9.911   3.699 -0.0662  0.0112  0.2218
  555MOL0     C74857   1.748   9.766   3.686 -0.9111  0.0637  0.6973
  555MOL0     H74858   2.221   9.751   3.864 -2.1104  0.1268 -3.5068
  555MOL0     H74859   2.449   9.682   3.900 -1.2137 -0.3343 -0.8195
  555MOL0     H74860   2.726   9.808   3.598 -0.3283 -3.0166  0.2627
  555MOL0     H74861   2.829   9.908   3.706  1.2954 -0.6583 -0.7558
  555MOL0     H74862   2.838   9.626   3.688 -0.6715  0.6695 -1.2612
  555MOL0     H74863   2.938   9.736   3.797 -1.5399 -0.9024  1.5407
  555MOL0     H74864   2.983   9.851   3.552  2.6852 -0.6288  0.6801
  555MOL0     H74865   2.924   9.703   3.491  1.0552 -2.4245  0.6979
  555MOL0     H74866   3.163   9.722   3.671 -2.5383  1.0624  2.1036
  555MOL0     H74867   3.093   9.570   3.610  0.8906  1.4040  0.9621
  555MOL0     H74868   3.113   9.642   3.383 -1.4169 -0.5071  0.3801
  555MOL0     H74869   3.177   9.800   3.433  0.7981  0.3468  0.2629
  555MOL0     H74870   3.312   9.529   3.458 -1.5817  0.2949  0.2034
  555MOL0     H74871   3.377   9.661   3.346  2.4100  2.0531  1.6215
  555MOL0     H74872   3.363   9.668   3.659  0.6760  0.4590  0.8948
  555MOL0     H74873   3.425   9.794   3.550  3.7375 -1.1272 -1.4224
  555MOL0     H74874   3.599   9.636   3.655  0.0061 -2.1662  1.2249
  555MOL0     H74875   3.545   9.511   3.561  0.4849 -0.1693  3.1850
  555MOL0     H74876   3.658   9.888   3.490  0.2530  0.5105  0.8101
  555MOL0     H74877   3.816   9.946   3.231  2.9098 -0.6584 -2.0730
  555MOL0     H74878   3.908   9.962   3.380  1.9956  1.0757 -2.1858
  555MOL0     H74879   4.050   9.774   3.323  2.6511  0.3168 -1.5452
  555MOL0     H74880   3.963   9.742   3.183 -0.7024 -1.0571  0.2345
  555MOL0     H74881   4.089  10.020   3.247 -0.8567 -1.5205  2.4807
  555MOL0     H74882   4.000   9.994   3.101  1.4666  0.9733 -1.9991
  555MOL0     H74883   4.216   9.966   3.023  1.8701 -0.9433 -1.1051
  555MOL0     H74884   4.171   9.799   3.038 -0.5516  0.8276 -1.6242
  555MOL0     H74885   4.442   9.734   3.349 -0.7731  3.1071  0.3755
  555MOL0     H74886   4.689   9.712   3.307 -0.1343 -1.4797 -0.8903
  555MOL0     H74887   4.989   9.815   2.754  3.0664 -1.3810 -2.8583
  555MOL0     H74888   5.231   9.806   2.694 -0.3660 -2.0388 -0.2509
  555MOL0     H74889   5.535   9.775   2.994 -1.0558 -2.2332  0.4079
  555MOL0     H74890   5.483   9.664   2.876 -0.3443  0.6289  1.4094
  555MOL0     H74891   5.714   9.704   2.828 -0.0565  0.6215  0.6209
  555MOL0     H74892   5.613   9.775   2.703  0.3267  0.9720  0.1232
  555MOL0     H74893   5.658  10.001   2.767  1.1515  0.0936 -0.9394
  555MOL0     H74894   5.717   9.949   2.933 -0.6782  1.0760  0.0633
  555MOL0     H74895   5.871   9.880   2.674 -0.6379 -1.7426  1.0688
  555MOL0     H74896   5.918   9.845   2.824  1.8774 -0.1551 -3.2264
  555MOL0     H74897   5.923  10.097   2.878  0.0978 -0.4742  1.0802
  555MOL0     H74898   5.899  10.105   2.697  1.2124 -2.4414 -2.7517
  555MOL0     H74899   6.147  10.085   2.823  0.8586 -1.7484  1.0361
  555MOL0     H74900   6.127   9.922   2.783 -1.1622  0.7888  2.5652
  555MOL0     H74901   6.114  10.152   2.588 -2.2363 -0.4942  1.5131
  555MOL0     H74902   6.111   9.976   2.542  1.5729 -1.1222 -0.1097
  555MOL0     H74903   6.324  10.121   2.545 -0.3996  1.6277  0.4919
  555MOL0     H74904   6.322  10.077   2.714  0.5261  0.2207 -1.7313
  555MOL0     H74905   5.325   9.866   3.107  2.9028 -3.5989 -1.9031
  555MOL0     H74906   5.080   9.849   3.167 -2.6492  2.1649 -0.4260
  555MOL0     H74907   4.663   9.892   2.929  0.4017 -3.6424 -0.8556
  555MOL0     H74908   4.418   9.954   2.988 -3.2431 -1.0814  3.0071
  555MOL0     H74909   2.578  10.016   3.644 -4.0869  2.1169 -2.2370
  555MOL0     H74910   2.363  10.083   3.636  1.6940 -0.7782 -1.4231
  555MOL0     H74911   1.995  10.164   3.737  0.8851 -1.7544 -0.7031
  555MOL0     H74912   1.771  10.295   3.767  1.0216  0.0571  2.4170
  555MOL0     H74913   1.413  10.319   3.832  0.4771  0.8311 -2.3611
  555MOL0     H74914   1.568  10.370   3.760 -0.0233  0.5738  0.4126
  555MOL0     H74915   1.622  10.442   3.979 -0.5702  1.1036 -0.4033
  555MOL0     H74916   1.663  10.273   3.996 -1.4973 -0.1325  3.4571
  555MOL0     H74917   1.501  10.260   4.165 -0.8818 -0.8218  0.6467
  555MOL0     H74918   1.393  10.242   4.047  0.0800  0.0667 -1.2054
  555MOL0     H74919   1.338  10.389   4.216 -1.8636 -2.1402 -2.8712
  555MOL0     H74920   1.470  10.510   4.172  1.1659 -0.7337  1.7406
  555MOL0     H74921   1.144  10.570   3.903 -0.4963 -1.2545 -1.3692
  555MOL0     H74922   1.564   9.928   3.720  0.2911 -0.9113  0.4417
  555MOL0     H74923   1.814   9.728   3.607  0.2440  0.5442  1.4093
  555MOL0     H74924   1.782   9.707   3.771 -0.3467 -1.3053 -0.4270
  555MOL0     H74925   1.643   9.750   3.658 -1.0908  2.0653  0.0811
  556MOL0     O74926   7.590  10.416  10.998 -0.1029 -0.0558 -0.2229
  556MOL0     C74927   7.577  10.396  10.882 -0.9426 -0.0279 -1.1257
  556MOL0     O74928   7.684  10.393  10.795 -0.0902 -0.2321  0.1358
  556MOL0     C74929   7.816  10.431  10.829  0.1955 -0.0932  0.2001
  556MOL0     C74930   7.892  10.492  10.729 -0.6926  1.1061  0.4129
  556MOL0     C74931   8.031  10.513  10.747 -0.0532  0.8251  0.7099
  556MOL0     C74932   8.095  10.470  10.868  1.4698  0.1605 -0.1195
  556MOL0     O74933   8.228  10.486  10.887 -0.4557 -0.4054 -0.3215
  556MOL0     C74934   8.320  10.533  10.787  0.3698  0.1125 -0.1506
  556MOL0     C74935   8.466  10.513  10.825 -0.0618 -0.4947  0.5164
  556MOL0     C74936   8.566  10.496  10.711 -0.6659 -0.6395  0.1511
  556MOL0     C74937   8.714  10.462  10.753  0.3204  0.3204  0.1026
  556MOL0     C74938   8.808  10.442  10.635 -0.2429 -0.0963 -0.2704
  556MOL0     C74939   8.929  10.345  10.671  0.2667  0.1315  0.0062
  556MOL0     C74940   9.010  10.416  10.782 -0.1954  0.2772  0.0973
  556MOL0     C74941   9.146  10.342  10.797 -0.9216 -1.2027  0.5949
  556MOL0     N74942   9.231  10.347  10.674  0.7879 -0.2749  0.0487
  556MOL0     C74943   9.259  10.238  10.593 -0.9792 -0.9127  0.6323
  556MOL0     C74944   9.316  10.287  10.476  0.8103  0.2295 -0.4865
  556MOL0     C74945   9.355  10.208  10.358 -0.0994  0.0283  0.2012
  556MOL0     C74946   9.495  10.235  10.295 -0.6188 -0.2736 -0.4183
  556MOL0     C74947   9.612  10.199  10.395 -1.2038 -0.7925  0.0390
  556MOL0     C74948   9.638  10.294  10.514  0.5146 -0.3969 -0.2322
  556MOL0     O74949   9.757  10.266  10.582  0.1109  0.2755 -0.3498
  556MOL0     C74950   9.868  10.348  10.553  0.1578  0.3949  0.2610
  556MOL0     C74951   9.876  10.416  10.430 -0.0752  0.7593 -0.0687
  556MOL0     C74952   9.993  10.500  10.418  0.6992  0.5504  0.0377
  556MOL0     C74953  10.089  10.519  10.521  0.2468  0.5660  0.3401
  556MOL0     C74954  10.200  10.619  10.513 -0.8923 -0.6094 -0.3970
  556MOL0     O74955  10.223  10.681  10.393  0.0822 -0.2072  0.1672
  556MOL0     C74956  10.330  10.765  10.368  1.1743  0.0188 -0.0464
  556MOL0     C74957  10.391  10.848  10.464 -0.2160  0.6188 -0.6878
  556MOL0     C74958  10.500  10.928  10.432 -0.3255  0.3615  0.8424
  556MOL0     C74959  10.550  10.940  10.309 -0.1424 -0.4003  0.0069
  556MOL0     O74960  10.661  11.016  10.284 -0.8079  0.7772 -0.2842
  556MOL0     C74961  10.740  10.966  10.178  0.0407  0.0902  0.5737
  556MOL0     C74962  10.883  11.000  10.208 -0.4131  0.9846  0.5943
  556MOL0     C74963  10.925  11.143  10.159  0.4402 -0.0287 -0.1186
  556MOL0     C74964  11.074  11.151  10.181  0.2496  0.2007 -0.3149
  556MOL0     C74965  11.139  11.280  10.132  0.0717 -0.3082  0.6754
  556MOL0     C74966  11.289  11.289  10.147  0.1111  0.5450  0.1027
  556MOL0     C74967  11.359  11.230  10.026  0.7286 -0.3027  0.2498
  556MOL0     C74968  11.512  11.242  10.036 -0.9587 -0.2731  0.3404
  556MOL0    Cl74969  11.591  11.247   9.881 -0.1441 -0.6007  0.4820
  556MOL0     C74970  10.482  10.871  10.209 -0.3757  0.3241 -0.9020
  556MOL0     C74971  10.377  10.790  10.243  0.1868  0.1701  0.3534
  556MOL0     O74972  10.270  10.642  10.616 -0.1968  0.9968  0.7929
  556MOL0     C74973  10.066  10.444  10.639 -0.0319 -1.3120  0.0659
  556MOL0     C74974   9.957  10.368  10.658  0.1857  0.4229 -0.0155
  556MOL0     N74975   9.322  10.426  10.493 -0.7517 -0.4218 -0.0010
  556MOL0     N74976   9.267  10.459  10.602 -0.4041  0.5199  0.3027
  556MOL0     C74977   8.015  10.413  10.965 -0.0344  0.0217 -0.0650
  556MOL0     C74978   7.879  10.376  10.945  0.2489 -0.3389  0.9635
  556MOL0     C74979   7.444  10.377  10.840  0.1949  0.3412  0.0239
  556MOL0     C74980   7.409  10.456  10.735  0.4992 -0.0544  0.4405
  556MOL0     C74981   7.278  10.459  10.690 -0.0256 -0.3462  0.1581
  556MOL0     C74982   7.189  10.382  10.751  0.6398 -0.1125 -0.7160
  556MOL0     O74983   7.062  10.369  10.699  0.1774 -0.0645 -0.1729
  556MOL0     C74984   7.002  10.468  10.612 -0.4617  0.0251 -0.2067
  556MOL0     C74985   6.981  10.603  10.690  0.3088  0.2870  0.2567
  556MOL0     C74986   6.876  10.687  10.618 -0.0363  0.3149  0.2783
  556MOL0     C74987   6.843  10.812  10.698  0.6160  0.4444 -0.4366
  556MOL0     C74988   6.708  10.843  10.657 -0.1274  0.4180  0.5312
  556MOL0     C74989   6.595  10.867  10.641  0.3821 -0.2278  0.5070
  556MOL0     C74990   7.218  10.311  10.876 -0.2201 -0.6277  0.7358
  556MOL0     C74991   7.351  10.306  10.921 -0.6327 -0.4692  0.2191
  556MOL0     C74992   7.377  10.234  11.055 -0.3940 -1.2915  1.5231
  556MOL0     H74993   7.846  10.516  10.634  1.8351 -1.3526 -1.5986
  556MOL0     H74994   8.090  10.557  10.667 -2.5767  2.9171 -0.1586
  556MOL0     H74995   8.299  10.472  10.697  0.8309  0.3878 -0.4469
  556MOL0     H74996   8.305  10.636  10.755  1.3563  1.3150  2.9859
  556MOL0     H74997   8.483  10.427  10.892  1.3765 -1.1699 -0.6525
  556MOL0     H74998   8.492  10.602  10.883 -0.0147 -0.0909 -0.1263
  556MOL0     H74999   8.568  10.585  10.648 -3.1755 -0.0452  0.8016
  556MOL0     H75000   8.531  10.409  10.656  1.4163 -2.7095  1.8704
  556MOL0     H75001   8.756  10.545  10.810  0.4776 -0.1861  0.7313
  556MOL0     H75002   8.714  10.376  10.821 -0.7384  0.2481  0.0159
  556MOL0     H75003   8.759  10.413  10.542  2.3938  1.3892 -2.2579
  556MOL0     H75004   8.846  10.542  10.612  0.0468  0.4146  2.1259
  556MOL0     H75005   8.898  10.247  10.708  2.1693 -0.2751  0.6442
  556MOL0     H75006   8.977  10.330  10.574 -0.7213 -1.4159 -0.2770
  556MOL0     H75007   8.949  10.400  10.872  0.2411 -0.8673  0.2129
  556MOL0     H75008   9.032  10.521  10.762 -0.5328  0.5081  0.8662
  556MOL0     H75009   9.206  10.391  10.875  1.9182 -2.3645 -0.7354
  556MOL0     H75010   9.132  10.239  10.830 -2.3440 -1.3229 -0.3030
  556MOL0     H75011   9.221  10.139  10.614 -1.2398 -0.6381  1.5113
  556MOL0     H75012   9.349  10.102  10.383 -2.0248 -0.2489 -1.2147
  556MOL0     H75013   9.284  10.226  10.277  0.4164 -0.4385 -0.3644
  556MOL0     H75014   9.507  10.169  10.208  0.3680 -0.4200 -0.1793
  556MOL0     H75015   9.507  10.339  10.264  1.3697 -0.9189 -1.9808
  556MOL0     H75016   9.707  10.188  10.342 -1.0005 -2.0929  0.6518
  556MOL0     H75017   9.595  10.098  10.432  0.8603 -1.0025  0.5047
  556MOL0     H75018   9.552  10.284  10.581 -1.4003  1.9511 -2.1293
  556MOL0     H75019   9.645  10.401  10.491 -0.1607 -0.8767 -3.1717
  556MOL0     H75020   9.812  10.399  10.344  1.1089 -3.8599 -0.3011
  556MOL0     H75021  10.006  10.564  10.331  2.0083  2.0746  1.3026
  556MOL0     H75022  10.355  10.848  10.566 -1.5460 -1.0389 -1.1258
  556MOL0     H75023  10.551  10.991  10.504  3.2780 -1.2575 -0.0338
  556MOL0     H75024  10.740  10.857  10.169  0.7515  0.1577 -0.4904
  556MOL0     H75025  10.714  11.008  10.080 -3.4529 -1.7216  0.5910
  556MOL0     H75026  10.927  10.976  10.305  0.6179  0.4291  0.0046
  556MOL0     H75027  10.941  10.936  10.141 -1.3675  1.7477 -1.0279
  556MOL0     H75028  10.907  11.156  10.051 -0.0027  0.1780 -0.0236
  556MOL0     H75029  10.868  11.218  10.214  0.3744 -0.2567  0.1222
  556MOL0     H75030  11.120  11.074  10.118  0.2857  1.9103 -2.5176
  556MOL0     H75031  11.092  11.145  10.288 -1.5644  1.2640  0.0995
  556MOL0     H75032  11.094  11.368  10.179  0.8593  2.2829 -2.9474
  556MOL0     H75033  11.116  11.288  10.025 -0.7535  0.3332  0.8845
  556MOL0     H75034  11.309  11.396  10.162  0.6671  0.3313  0.9214
  556MOL0     H75035  11.324  11.244  10.240  3.4375 -1.9989 -2.1472
  556MOL0     H75036  11.326  11.294   9.944 -0.4061  1.9663  2.3782
  556MOL0     H75037  11.330  11.127  10.001  2.7063 -0.6581 -0.8035
  556MOL0     H75038  11.540  11.340  10.075  2.0177 -0.4327 -1.1478
  556MOL0     H75039  11.546  11.162  10.102  2.5613  2.8641  2.7186
  556MOL0     H75040  10.517  10.876  10.106  1.7204 -0.0183 -0.2483
  556MOL0     H75041  10.326  10.754  10.154  0.4688 -0.9155  0.6109
  556MOL0     H75042  10.136  10.464  10.720 -0.5011  0.9793 -0.0040
  556MOL0     H75043   9.937  10.307  10.746  1.2387 -2.5416 -1.7014
  556MOL0     H75044   8.066  10.401  11.060  0.8191  1.7904 -0.2574
  556MOL0     H75045   7.821  10.311  11.009 -0.1515 -0.0475  0.9040
  556MOL0     H75046   7.489  10.509  10.684  1.1885 -0.6239  0.9315
  556MOL0     H75047   7.259  10.523  10.604 -3.6850  0.0413  1.0602
  556MOL0     H75048   6.899  10.440  10.588 -0.8344  0.2302  1.1127
  556MOL0     H75049   7.058  10.485  10.519  0.9170  2.9905  1.0359
  556MOL0     H75050   7.073  10.662  10.691  0.0168  0.7502  1.7307
  556MOL0     H75051   6.952  10.588  10.794  2.1816  2.1291  1.1137
  556MOL0     H75052   6.783  10.631  10.607 -0.3940  0.9014  0.3036
  556MOL0     H75053   6.909  10.721  10.520  3.2577 -0.1168  1.1241
  556MOL0     H75054   6.844  10.780  10.802  2.9073 -0.1680 -0.5954
  556MOL0     H75055   6.905  10.902  10.691 -0.4677  1.5196  2.4783
  556MOL0     H75056   6.493  10.893  10.627  1.5426  4.1104 -1.6891
  556MOL0     H75057   7.140  10.258  10.930  1.1892 -1.3353  2.1845
  556MOL0     H75058   7.471  10.179  11.055  0.2852 -0.3017 -1.5304
  556MOL0     H75059   7.403  10.313  11.126  2.0285 -0.6568  0.0248
  556MOL0     H75060   7.283  10.183  11.077 -3.9148  1.7742 -4.0568
  557MOL0     O75061   3.897   0.996   1.693 -0.3858 -0.4759 -0.6823
  557MOL0     C75062   3.898   1.113   1.734 -0.0809  0.9322  0.9224
  557MOL0     O75063   4.011   1.177   1.763 -0.3727  0.0970 -0.0592
  557MOL0     C75064   4.136   1.135   1.724  0.0977 -0.3663  0.7513
  557MOL0     C75065   4.164   1.064   1.599 -0.6551 -0.3588  0.1362
  557MOL0     C75066   4.298   1.026   1.563 -0.2621 -0.4164 -0.1898
  557MOL0     C75067   4.409   1.071   1.648  0.5756  0.5482  0.4585
  557MOL0     O75068   4.538   1.041   1.623 -0.4063  0.0475  0.7016
  557MOL0     C75069   4.575   1.032   1.487 -0.2082  0.7617 -0.8806
  557MOL0     C75070   4.724   0.996   1.505 -0.5274 -0.6022  0.4307
  557MOL0     C75071   4.790   0.960   1.359  0.1677  0.1258 -0.2887
  557MOL0     C75072   4.935   0.919   1.377 -0.2890 -0.5772 -0.4166
  557MOL0     C75073   5.000   0.926   1.240 -0.3060 -0.2962 -0.2686
  557MOL0     C75074   5.140   0.871   1.234  0.6034 -1.0418 -1.6487
  557MOL0     C75075   5.138   0.730   1.266  0.4861  0.6563  0.2644
  557MOL0     C75076   5.277   0.666   1.224 -0.2264 -1.0963 -1.4470
  557MOL0     N75077   5.399   0.731   1.280 -0.1321  0.7255  0.0330
  557MOL0     C75078   5.433   0.737   1.415 -0.2932  0.7557 -0.4649
  557MOL0     C75079   5.524   0.840   1.424 -0.8077  0.0413  0.0760
  557MOL0     C75080   5.608   0.874   1.544 -0.4038 -0.3281 -0.4440
  557MOL0     C75081   5.716   0.773   1.541  0.1862  0.4885  0.6288
  557MOL0     C75082   5.830   0.819   1.640  0.1380 -0.3769 -0.3444
  557MOL0     C75083   5.949   0.735   1.640 -0.1933 -1.2481  0.1300
  557MOL0     O75084   6.034   0.783   1.738  0.2789  0.0722  0.0747
  557MOL0     C75085   6.168   0.774   1.707 -0.6204 -0.0762 -0.1536
  557MOL0     C75086   6.244   0.894   1.723 -0.3034 -0.1556 -0.2575
  557MOL0     C75087   6.380   0.891   1.703 -0.4848 -1.3393 -0.0045
  557MOL0     C75088   6.447   0.772   1.678  0.3591  0.2206  0.4807
  557MOL0     C75089   6.595   0.762   1.646 -0.1578 -0.0033  0.7230
  557MOL0     O75090   6.638   0.640   1.612  0.3175 -0.2459 -0.1016
  557MOL0     C75091   6.775   0.618   1.590  0.0454 -0.7025 -0.1645
  557MOL0     C75092   6.853   0.700   1.511  0.2599  0.4039 -0.6143
  557MOL0     C75093   6.995   0.688   1.512 -0.6617  0.8382 -0.4065
  557MOL0     C75094   7.054   0.586   1.594  0.2604  0.2301  0.6992
  557MOL0     O75095   7.189   0.568   1.604  0.3816  0.2359 -0.0494
  557MOL0     C75096   7.279   0.634   1.512 -1.0197 -0.2664  0.1860
  557MOL0     C75097   7.415   0.566   1.499  0.1252 -0.6560  0.2561
  557MOL0     C75098   7.488   0.620   1.370 -0.5965  0.0442 -0.7747
  557MOL0     C75099   7.627   0.564   1.365 -0.1630  0.7286 -0.1131
  557MOL0     C75100   7.703   0.596   1.230  0.5793  0.2507 -0.4136
  557MOL0     C75101   7.708   0.741   1.192 -0.3795  0.3324 -0.2205
  557MOL0     C75102   7.819   0.762   1.082  0.0541  0.6840  0.9095
  557MOL0     C75103   7.794   0.865   0.978  0.0159  0.6950  0.3175
  557MOL0    Cl75104   7.661   0.803   0.856  0.5469  0.5115  0.0915
  557MOL0     C75105   6.970   0.499   1.670  0.3864 -0.5065  0.6140
  557MOL0     C75106   6.830   0.512   1.661 -0.4479 -0.0622 -0.2293
  557MOL0     O75107   6.670   0.856   1.679  0.0573 -1.1538 -0.5510
  557MOL0     C75108   6.378   0.646   1.689  0.1159  0.5891 -0.0836
  557MOL0     C75109   6.241   0.653   1.697  0.9985  0.7078  0.1946
  557MOL0     N75110   5.533   0.896   1.302  0.5905 -0.1952 -0.3050
  557MOL0     N75111   5.460   0.833   1.215  0.0192 -0.5221  0.3168
  557MOL0     C75112   4.376   1.142   1.765  0.2791 -0.3265  0.8306
  557MOL0     C75113   4.244   1.177   1.799  1.1993  0.2930 -0.0521
  557MOL0     C75114   3.765   1.182   1.746 -0.4480 -0.5079 -0.8987
  557MOL0     C75115   3.649   1.124   1.699 -0.2440 -0.1238  0.8141
  557MOL0     C75116   3.526   1.184   1.708 -0.2820 -0.3765 -0.0307
  557MOL0     C75117   3.516   1.308   1.772  1.0670  0.2239 -0.1910
  557MOL0     O75118   3.401   1.370   1.771  0.1419 -0.3658 -0.4091
  557MOL0     C75119   3.318   1.310   1.872  0.0444  0.1181 -0.1598
  557MOL0     C75120   3.234   1.424   1.929  0.4882 -0.4178  0.0445
  557MOL0     C75121   3.147   1.380   2.049 -0.2899 -0.5659  0.9453
  557MOL0     C75122   3.054   1.494   2.095 -0.4057  0.2144 -0.4339
  557MOL0     C75123   2.971   1.441   2.205 -0.3448  0.6013  0.0107
  557MOL0     C75124   2.902   1.401   2.301 -0.6756 -0.4146 -0.0428
  557MOL0     C75125   3.626   1.369   1.812  0.2914 -0.6362 -0.3370
  557MOL0     C75126   3.749   1.312   1.808 -0.7219  0.0726  0.4858
  557MOL0     C75127   3.865   1.374   1.883  0.0425 -0.3590 -1.8819
  557MOL0     H75128   4.077   1.050   1.536  0.6440  2.4399 -2.5307
  557MOL0     H75129   4.314   0.962   1.477 -0.9017 -0.8001 -0.0352
  557MOL0     H75130   4.524   0.955   1.428 -1.3752  0.5166  0.3883
  557MOL0     H75131   4.560   1.133   1.446 -1.6716  1.7922  1.8946
  557MOL0     H75132   4.735   0.904   1.563  0.9965  0.1656  1.4199
  557MOL0     H75133   4.779   1.078   1.552  0.0435  0.7021 -2.3101
  557MOL0     H75134   4.768   1.049   1.300 -1.6737  1.0012  1.6005
  557MOL0     H75135   4.724   0.876   1.332 -0.8648  0.7958  0.0963
  557MOL0     H75136   4.981   1.001   1.433 -0.3605  0.2620 -1.5428
  557MOL0     H75137   4.941   0.820   1.423  0.9891 -0.0504  0.5998
  557MOL0     H75138   4.934   0.860   1.182 -0.1875 -1.0749  0.4713
  557MOL0     H75139   5.003   1.028   1.201  0.4285 -0.6936 -1.3185
  557MOL0     H75140   5.182   0.891   1.135 -0.1347 -0.3113 -1.8278
  557MOL0     H75141   5.198   0.936   1.300  0.2520  0.1839 -2.5038
  557MOL0     H75142   5.061   0.677   1.208  0.6814 -1.8983  2.1561
  557MOL0     H75143   5.120   0.711   1.372 -0.3194  0.6823  0.1371
  557MOL0     H75144   5.281   0.564   1.262  0.6390  0.1355  2.2136
  557MOL0     H75145   5.292   0.671   1.116 -0.1798  0.6342 -1.3953
  557MOL0     H75146   5.397   0.681   1.500  0.6314  1.0008  0.1084
  557MOL0     H75147   5.645   0.977   1.538  0.5594 -0.4442  2.2095
  557MOL0     H75148   5.548   0.862   1.635 -1.9374 -0.7177 -1.4587
  557MOL0     H75149   5.677   0.673   1.558 -2.7581  1.4176 -0.0955
  557MOL0     H75150   5.744   0.766   1.436 -3.9197 -2.1634 -0.5080
  557MOL0     H75151   5.792   0.809   1.743  1.8106 -1.1981  0.2311
  557MOL0     H75152   5.855   0.924   1.621 -4.3702  0.8295 -0.8103
  557MOL0     H75153   5.991   0.756   1.540 -2.5115 -1.9219 -1.0503
  557MOL0     H75154   5.923   0.631   1.658 -0.3729 -0.8704  2.2518
  557MOL0     H75155   6.186   0.981   1.753 -1.6590 -0.5454 -1.6013
  557MOL0     H75156   6.440   0.980   1.714 -0.6688 -1.1081 -0.7733
  557MOL0     H75157   6.811   0.788   1.462  0.2144  2.3602  2.6822
  557MOL0     H75158   7.048   0.759   1.450 -1.2599  1.1789 -0.5342
  557MOL0     H75159   7.232   0.654   1.415 -1.2737 -0.6304  0.2309
  557MOL0     H75160   7.290   0.738   1.542 -1.5654  0.2297 -1.2382
  557MOL0     H75161   7.470   0.587   1.592 -2.3650  1.4016  1.4012
  557MOL0     H75162   7.405   0.459   1.482 -1.7597 -0.2216 -1.7548
  557MOL0     H75163   7.431   0.604   1.278 -1.4902  1.7368 -0.5566
  557MOL0     H75164   7.487   0.729   1.374 -1.0061  0.1079 -2.0878
  557MOL0     H75165   7.617   0.455   1.366 -0.6847  0.7709  1.1767
  557MOL0     H75166   7.677   0.602   1.455 -0.5276  0.1238  0.3519
  557MOL0     H75167   7.638   0.544   1.159 -2.2133  0.4869  1.7967
  557MOL0     H75168   7.800   0.546   1.236  0.0796 -0.6692  0.1717
  557MOL0     H75169   7.610   0.764   1.148 -1.0510 -3.5785 -1.2365
  557MOL0     H75170   7.730   0.801   1.280 -0.5917  0.1992 -0.0748
  557MOL0     H75171   7.832   0.668   1.028  1.0865  0.2688  1.8488
  557MOL0     H75172   7.913   0.774   1.136  1.9828 -1.3493 -1.7394
  557MOL0     H75173   7.760   0.960   1.019 -1.1629  0.1988  0.5231
  557MOL0     H75174   7.891   0.890   0.932 -0.8924 -0.0168 -2.1606
  557MOL0     H75175   7.015   0.416   1.723 -0.0706 -0.1438  1.5940
  557MOL0     H75176   6.765   0.450   1.722  0.2192  0.6965  1.2924
  557MOL0     H75177   6.410   0.542   1.687 -3.6432 -0.7308  0.6260
  557MOL0     H75178   6.191   0.557   1.701  2.3021 -0.1366 -1.8214
  557MOL0     H75179   4.449   1.200   1.821  1.2043  0.2540 -0.8917
  557MOL0     H75180   4.228   1.244   1.883  1.0364 -0.3203  0.4133
  557MOL0     H75181   3.648   1.028   1.649 -3.3060  0.4953 -0.5641
  557MOL0     H75182   3.442   1.138   1.656  1.8492 -1.5004 -2.6795
  557MOL0     H75183   3.360   1.242   1.946 -2.2595 -0.1802  0.9494
  557MOL0     H75184   3.253   1.240   1.818 -0.5681 -0.3541  1.1482
  557MOL0     H75185   3.166   1.458   1.850  1.3029  0.0792 -0.4535
  557MOL0     H75186   3.301   1.506   1.956 -0.0275  0.7869 -2.1241
  557MOL0     H75187   3.217   1.353   2.128  0.2669  2.3508  1.5817
  557MOL0     H75188   3.082   1.300   2.013  1.4991 -1.1114 -1.3053
  557MOL0     H75189   3.117   1.571   2.140  1.1096 -0.0288 -2.0403
  557MOL0     H75190   2.997   1.547   2.018  1.1138  1.3545 -0.8153
  557MOL0     H75191   2.861   1.364   2.392  0.4935  1.3945  1.2835
  557MOL0     H75192   3.611   1.462   1.867 -2.1546  0.6310 -2.9147
  557MOL0     H75193   3.951   1.404   1.822  0.9050  0.6470 -0.2192
  557MOL0     H75194   3.820   1.463   1.928 -1.7627 -1.4355 -1.4796
  557MOL0     H75195   3.898   1.310   1.965 -0.3165  0.1681 -1.3179
  558MOL0     O75196   9.573   5.683   4.673  0.2133 -0.6017 -0.8259
  558MOL0     C75197   9.575   5.690   4.548 -0.1077 -0.4401 -0.8597
  558MOL0     O75198   9.677   5.720   4.463  0.2652 -0.3972 -0.2421
  558MOL0     C75199   9.798   5.745   4.520 -0.6363  1.0923 -0.0735
  558MOL0     C75200   9.814   5.831   4.623  0.3749 -0.4273  0.0796
  558MOL0     C75201   9.934   5.838   4.687  0.3327 -0.6243 -0.1013
  558MOL0     C75202  10.048   5.782   4.644 -0.4203 -0.2550  0.1673
  558MOL0     O75203  10.168   5.820   4.708 -0.2267 -0.4605  0.7887
  558MOL0     C75204  10.269   5.715   4.705  0.1747  0.6877 -0.1876
  558MOL0     C75205  10.403   5.780   4.748 -0.2652 -0.0217 -0.3708
  558MOL0     C75206  10.469   5.860   4.634 -0.0502  0.9386 -0.7993
  558MOL0     C75207  10.541   5.983   4.688  0.1358  0.5208 -0.4652
  558MOL0     C75208  10.658   5.960   4.773 -0.3465  0.2216 -0.6480
  558MOL0     C75209  10.697   6.093   4.835  0.2861 -0.1021  0.3092
  558MOL0     C75210  10.818   6.086   4.930  0.3076 -0.6736 -0.3753
  558MOL0     C75211  10.815   6.224   4.997  0.4204 -0.8053 -0.9439
  558MOL0     N75212  10.929   6.236   5.092 -0.3124 -0.3727 -0.6806
  558MOL0     C75213  10.951   6.194   5.226  0.2529  0.7595  0.2903
  558MOL0     C75214  11.086   6.200   5.252  0.0840  0.7830 -0.3312
  558MOL0     C75215  11.152   6.161   5.382 -0.3015 -0.2179  0.7500
  558MOL0     C75216  11.181   6.278   5.477  0.0341  0.4317  0.3550
  558MOL0     C75217  11.169   6.232   5.619  0.5028 -0.7249  0.5060
  558MOL0     C75218  11.300   6.197   5.672  0.3830 -0.7597 -0.2775
  558MOL0     O75219  11.275   6.135   5.809  0.5300  0.0408  0.6409
  558MOL0     C75220  11.367   6.041   5.853 -0.1498  0.0763  0.1227
  558MOL0     C75221  11.494   6.019   5.793 -0.3982 -0.5850  1.1853
  558MOL0     C75222  11.589   5.930   5.839 -0.2192 -0.4364 -0.2302
  558MOL0     C75223  11.557   5.852   5.949  0.1114  0.6355 -0.4107
  558MOL0     C75224  11.668   5.771   6.004  0.5722 -0.1731 -0.1018
  558MOL0     O75225  11.638   5.666   6.085 -0.2939 -0.9560 -0.4845
  558MOL0     C75226  11.739   5.593   6.151  0.2552  0.1319  0.4819
  558MOL0     C75227  11.702   5.461   6.176 -0.1097 -0.0338 -0.1565
  558MOL0     C75228  11.791   5.373   6.231 -0.1385 -0.4210  0.2100
  558MOL0     C75229  11.913   5.415   6.277 -0.5481  0.0258 -0.0610
  558MOL0     O75230  11.997   5.330   6.340  0.0704 -0.2222 -0.4589
  558MOL0     C75231  12.146   5.352   6.324  1.2276 -0.6346  0.4668
  558MOL0     C75232  12.231   5.232   6.366  1.0276 -0.4514 -0.2456
  558MOL0     C75233  12.372   5.236   6.308  0.5960 -0.3757  0.3669
  558MOL0     C75234  12.451   5.122   6.357 -0.0247  0.1053 -0.5781
  558MOL0     C75235  12.600   5.137   6.307  0.6913  0.2089  0.8429
  558MOL0     C75236  12.678   5.011   6.305 -0.5607 -0.3040  0.6170
  558MOL0     C75237  12.831   5.047   6.279 -0.9877 -0.0079 -0.6305
  558MOL0     C75238  12.903   4.925   6.239 -0.8860  0.8764 -0.6424
  558MOL0    Cl75239  13.075   4.971   6.210  0.4664 -0.0277  0.1935
  558MOL0     C75240  11.948   5.556   6.260  0.3860  0.7810 -0.0498
  558MOL0     C75241  11.858   5.642   6.194 -0.7489  0.4111  0.3760
  558MOL0     O75242  11.782   5.810   5.978 -0.1154 -0.2179  0.0914
  558MOL0     C75243  11.436   5.863   6.014  0.7298  0.3416  0.2169
  558MOL0     C75244  11.345   5.957   5.971 -0.2134  0.2244 -0.3248
  558MOL0     N75245  11.144   6.250   5.140 -0.6264 -0.2244 -0.0131
  558MOL0     N75246  11.051   6.281   5.048 -0.0192  0.2000 -0.3783
  558MOL0     C75247  10.036   5.709   4.525  0.2955  0.1514  0.2883
  558MOL0     C75248   9.911   5.677   4.472  1.2939  0.4360  0.0364
  558MOL0     C75249   9.450   5.642   4.473  0.1040  0.5910 -0.2288
  558MOL0     C75250   9.316   5.663   4.522  0.0301  0.7712 -0.0061
  558MOL0     C75251   9.196   5.617   4.453  0.0027 -0.4263 -0.0644
  558MOL0     C75252   9.208   5.545   4.328  0.4424 -0.1618 -0.5970
  558MOL0     O75253   9.098   5.513   4.246 -0.0460  0.1105 -0.5663
  558MOL0     C75254   8.969   5.559   4.292 -0.5689  0.4380 -0.1881
  558MOL0     C75255   8.877   5.521   4.180  0.3620 -0.0923  0.6363
  558MOL0     C75256   8.746   5.600   4.193 -0.0919  0.3196  0.6105
  558MOL0     C75257   8.657   5.543   4.305  0.0912 -0.0282 -0.4110
  558MOL0     C75258   8.538   5.629   4.304  0.0957 -0.5607 -0.6952
  558MOL0     C75259   8.439   5.695   4.309  0.1200 -0.1306  0.1739
  558MOL0     C75260   9.335   5.507   4.293 -0.0627 -0.1860 -0.7679
  558MOL0     C75261   9.448   5.553   4.362  0.1622 -1.0222  0.2134
  558MOL0     C75262   9.580   5.508   4.306  0.2717 -0.8960 -0.5184
  558MOL0     H75263   9.737   5.898   4.660 -0.9185 -1.3088 -0.9183
  558MOL0     H75264   9.945   5.908   4.770  1.6775 -0.5521 -0.3218
  558MOL0     H75265  10.223   5.641   4.772  1.3075  0.9391  0.9138
  558MOL0     H75266  10.282   5.672   4.606 -0.9395 -1.7467  0.6348
  558MOL0     H75267  10.472   5.700   4.777 -0.7802 -0.2800  0.1528
  558MOL0     H75268  10.394   5.846   4.834  1.3391 -0.2858  0.0374
  558MOL0     H75269  10.396   5.899   4.562  0.3032  1.2577 -0.9922
  558MOL0     H75270  10.541   5.793   4.586  1.4113  0.3921  1.9580
  558MOL0     H75271  10.586   6.048   4.612  1.0971 -1.6377 -1.8144
  558MOL0     H75272  10.463   6.052   4.722  0.6019  1.1193 -0.5935
  558MOL0     H75273  10.635   5.893   4.857 -1.1684  0.9546 -0.2680
  558MOL0     H75274  10.742   5.923   4.714  0.5089  0.7315  0.2280
  558MOL0     H75275  10.735   6.161   4.758  0.1751  1.6465  1.7250
  558MOL0     H75276  10.609   6.136   4.882 -0.0989 -0.1274 -0.3722
  558MOL0     H75277  10.908   6.089   4.868 -0.3656 -3.1262 -1.5809
  558MOL0     H75278  10.820   6.006   5.004 -0.7014 -2.2694 -2.0150
  558MOL0     H75279  10.829   6.300   4.920  3.3963 -1.5196 -1.2087
  558MOL0     H75280  10.727   6.233   5.061  2.1474 -1.4610  1.6842
  558MOL0     H75281  10.877   6.139   5.283  1.3259 -0.5411  0.4857
  558MOL0     H75282  11.093   6.080   5.426 -0.9503 -1.1182 -1.6351
  558MOL0     H75283  11.252   6.116   5.370 -1.0770 -2.0274  0.7700
  558MOL0     H75284  11.280   6.321   5.458 -1.3356  3.5933 -0.2969
  558MOL0     H75285  11.111   6.360   5.461 -0.9454  0.0807  2.4765
  558MOL0     H75286  11.098   6.148   5.623  1.6682 -1.9097 -1.9335
  558MOL0     H75287  11.135   6.316   5.680  0.6517 -2.1415  2.6422
  558MOL0     H75288  11.369   6.281   5.682  0.4083 -0.9569  1.6155
  558MOL0     H75289  11.358   6.127   5.611 -0.2203  0.4326 -2.3258
  558MOL0     H75290  11.538   6.093   5.727 -1.2608 -0.4707  0.7264
  558MOL0     H75291  11.687   5.920   5.792 -0.2568 -1.2133 -0.1495
  558MOL0     H75292  11.608   5.417   6.145  0.7782 -1.3905 -1.0499
  558MOL0     H75293  11.776   5.267   6.244  0.7414 -0.9258 -2.2149
  558MOL0     H75294  12.175   5.383   6.223 -3.6019  0.9335 -0.7091
  558MOL0     H75295  12.162   5.442   6.385 -1.7090  0.8781 -0.7861
  558MOL0     H75296  12.243   5.242   6.474  1.5364 -0.0559 -0.3347
  558MOL0     H75297  12.197   5.131   6.342  1.5007 -1.1111  1.6638
  558MOL0     H75298  12.363   5.251   6.200 -0.1249  1.5996  0.6625
  558MOL0     H75299  12.422   5.323   6.353  1.4993 -0.1680 -0.9766
  558MOL0     H75300  12.416   5.025   6.321  1.4789  0.2311 -2.5565
  558MOL0     H75301  12.437   5.122   6.465 -1.5340  0.6493 -0.7542
  558MOL0     H75302  12.642   5.200   6.386  0.7852  2.8763 -1.2246
  558MOL0     H75303  12.612   5.190   6.212  2.2042 -2.5347 -0.6189
  558MOL0     H75304  12.662   4.952   6.396  1.5375 -4.3738 -1.3563
  558MOL0     H75305  12.641   4.951   6.221  1.2060  2.0990 -2.0801
  558MOL0     H75306  12.882   5.080   6.370  1.8317 -2.7977 -1.0211
  558MOL0     H75307  12.835   5.126   6.203 -1.2712  0.1019 -0.5340
  558MOL0     H75308  12.906   4.855   6.324 -0.3110  1.0660 -0.5059
  558MOL0     H75309  12.861   4.877   6.150  0.0682  0.3839 -0.8393
  558MOL0     H75310  12.038   5.598   6.303 -0.0481  0.2897  1.3783
  558MOL0     H75311  11.887   5.746   6.182 -0.9693  0.2571 -1.8412
  558MOL0     H75312  11.413   5.802   6.101  4.2726 -0.1012  0.9828
  558MOL0     H75313  11.254   5.963   6.030  1.2029 -1.5576  2.2225
  558MOL0     H75314  10.115   5.653   4.478  1.0043 -1.0833  2.7858
  558MOL0     H75315   9.891   5.615   4.385  0.4927  1.6497 -0.6643
  558MOL0     H75316   9.300   5.707   4.619 -1.8064 -2.2942  1.2108
  558MOL0     H75317   9.103   5.647   4.499  0.5935 -0.9544  1.5536
  558MOL0     H75318   8.956   5.667   4.306 -0.8322  0.1780  1.7727
  558MOL0     H75319   8.941   5.515   4.388 -2.0220  1.0859 -0.2801
  558MOL0     H75320   8.864   5.413   4.166  2.9709 -0.1791 -2.1955
  558MOL0     H75321   8.919   5.545   4.082  1.4235 -3.3412  0.1747
  558MOL0     H75322   8.683   5.586   4.105 -0.1207  1.3059  0.4702
  558MOL0     H75323   8.769   5.707   4.196  1.7014 -0.0247  0.2210
  558MOL0     H75324   8.628   5.440   4.283  1.1293 -0.7892  1.5010
  558MOL0     H75325   8.708   5.524   4.400  2.9703 -1.0916 -2.0480
  558MOL0     H75326   8.348   5.749   4.291 -0.4499 -1.4847 -1.3121
  558MOL0     H75327   9.337   5.439   4.208  0.8610  1.7776 -2.4089
  558MOL0     H75328   9.633   5.452   4.384 -0.8544 -2.4041 -0.8031
  558MOL0     H75329   9.570   5.457   4.210  1.0020  0.5852 -1.4177
  558MOL0     H75330   9.647   5.591   4.280  0.7470 -0.7102  1.1623
  559MOL0     O75331   3.685  10.134   3.441 -0.1131 -0.1239  0.2151
  559MOL0     C75332   3.672  10.257   3.461  0.5501  0.8830 -0.0190
  559MOL0     O75333   3.765  10.338   3.501  0.2591 -0.1638  0.0020
  559MOL0     C75334   3.889  10.285   3.519  0.3985  0.3044  0.1440
  559MOL0     C75335   3.924  10.202   3.629  0.1450 -0.5034 -0.1803
  559MOL0     C75336   4.045  10.155   3.638  0.1629 -0.0300  0.1827
  559MOL0     C75337   4.145  10.173   3.537 -0.2742 -0.3644  0.1213
  559MOL0     O75338   4.268  10.118   3.562  0.0586 -0.5201  0.7322
  559MOL0     C75339   4.365  10.115   3.451  0.3968  0.3326  0.3331
  559MOL0     C75340   4.493  10.050   3.508 -0.2330 -1.0105  0.6764
  559MOL0     C75341   4.618  10.074   3.424  0.8327  0.4125 -0.0776
  559MOL0     C75342   4.731   9.968   3.461  0.5283 -0.1265  0.9286
  559MOL0     C75343   4.811  10.015   3.578  0.2239 -0.1967  0.5481
  559MOL0     C75344   4.923  10.120   3.528  0.0942 -0.6382  0.9454
  559MOL0     C75345   5.045  10.144   3.614  0.7088  0.1334 -0.6996
  559MOL0     C75346   5.147  10.221   3.536 -0.0425  1.2348  0.7058
  559MOL0     N75347   5.098  10.357   3.532  1.2277 -0.3740 -0.1781
  559MOL0     C75348   5.132  10.463   3.617  0.1071  0.8517 -0.0459
  559MOL0     C75349   5.069  10.571   3.557 -0.1093 -0.7851 -0.1242
  559MOL0     C75350   5.060  10.713   3.620 -0.3583 -0.7615 -0.6123
  559MOL0     C75351   5.166  10.810   3.565  0.1936  0.6374 -0.1504
  559MOL0     C75352   5.151  10.952   3.624 -0.7934  0.4115 -0.5445
  559MOL0     C75353   5.285  11.029   3.611  0.4688 -0.4501 -0.0626
  559MOL0     O75354   5.297  11.058   3.472 -0.3627  0.0509  0.9699
  559MOL0     C75355   5.413  11.112   3.418 -0.0358 -0.4596  0.9208
  559MOL0     C75356   5.423  11.101   3.277 -0.8950 -1.2042 -0.9125
  559MOL0     C75357   5.548  11.115   3.219  0.2508  0.2492  0.4541
  559MOL0     C75358   5.660  11.150   3.294 -0.4431 -0.5935  0.7182
  559MOL0     C75359   5.779  11.173   3.222 -0.2822 -0.5470  0.3118
  559MOL0     O75360   5.856  11.275   3.270  0.8510  0.0782  0.6064
  559MOL0     C75361   5.988  11.286   3.243 -0.8006  1.0847  0.1578
  559MOL0     C75362   6.054  11.402   3.268 -0.0826 -0.1577  0.7679
  559MOL0     C75363   6.192  11.412   3.276 -0.6183 -0.2080  0.6958
  559MOL0     C75364   6.269  11.299   3.263 -0.1506  0.5548  0.6276
  559MOL0     O75365   6.410  11.285   3.258 -0.2753 -0.1316  0.3954
  559MOL0     C75366   6.481  11.349   3.364 -0.8893 -0.2366  0.5400
  559MOL0     C75367   6.625  11.342   3.324 -0.1654  0.2029  0.8711
  559MOL0     C75368   6.701  11.411   3.431  0.4368 -0.8983 -0.2186
  559MOL0     C75369   6.845  11.424   3.395 -0.4978  0.1622  0.1624
  559MOL0     C75370   6.917  11.474   3.527 -0.3570 -0.4592 -0.2351
  559MOL0     C75371   7.066  11.506   3.509  0.9601 -0.6883 -0.2302
  559MOL0     C75372   7.156  11.387   3.464  0.0339  0.2031  0.2373
  559MOL0     C75373   7.305  11.433   3.455 -0.2419  0.2416  0.1784
  559MOL0    Cl75374   7.400  11.295   3.419  0.0862 -0.2646 -0.5593
  559MOL0     C75375   6.208  11.180   3.230 -0.5306  0.0164 -0.7792
  559MOL0     C75376   6.073  11.177   3.216  0.2028  0.5713 -0.6553
  559MOL0     O75377   5.794  11.115   3.115  0.2827  0.4625  0.2907
  559MOL0     C75378   5.645  11.172   3.432 -0.0677 -0.2356  0.3861
  559MOL0     C75379   5.522  11.151   3.495 -0.2748  0.0130  0.3513
  559MOL0     N75380   4.993  10.527   3.454 -0.6115 -0.0589  0.6903
  559MOL0     N75381   5.017  10.396   3.438 -0.0823 -0.0175 -0.1624
  559MOL0     C75382   4.111  10.259   3.430  0.4156 -0.0086 -1.0767
  559MOL0     C75383   3.982  10.308   3.418 -0.3115 -0.2542 -0.1312
  559MOL0     C75384   3.538  10.313   3.424  0.3383 -0.5865 -0.0267
  559MOL0     C75385   3.522  10.450   3.383  0.1099 -0.7158  0.1052
  559MOL0     C75386   3.401  10.503   3.331 -0.0743 -0.5385 -0.3451
  559MOL0     C75387   3.280  10.440   3.336 -0.2768  0.2562  0.4838
  559MOL0     O75388   3.169  10.501   3.278  0.6582  0.2701  0.4952
  559MOL0     C75389   3.045  10.456   3.345  0.7841 -0.5395  1.0207
  559MOL0     C75390   2.929  10.553   3.320  0.5341 -0.3290 -1.0275
  559MOL0     C75391   2.863  10.532   3.178 -0.0570 -0.6549 -0.5417
  559MOL0     C75392   2.941  10.573   3.054 -0.4759  0.2359 -0.7544
  559MOL0     C75393   2.907  10.711   3.019  0.1932 -0.4934 -0.2013
  559MOL0     C75394   2.894  10.826   2.986 -0.0614 -0.2305  0.4252
  559MOL0     C75395   3.286  10.312   3.399  0.1605  0.4024  0.1465
  559MOL0     C75396   3.409  10.254   3.446  0.0798  0.0044 -0.1051
  559MOL0     C75397   3.407  10.128   3.524  0.5070  0.4485 -0.5429
  559MOL0     H75398   3.856  10.161   3.702  2.2964 -5.4031 -0.5592
  559MOL0     H75399   4.080  10.102   3.726  2.4444 -1.5802 -1.5249
  559MOL0     H75400   4.327  10.054   3.368 -2.2777  0.0022  1.6993
  559MOL0     H75401   4.395  10.217   3.425 -0.5516  0.3211 -0.9353
  559MOL0     H75402   4.482   9.941   3.509  1.0310 -1.1596  0.1063
  559MOL0     H75403   4.513  10.077   3.612  1.6455 -3.2892  0.9934
  559MOL0     H75404   4.658  10.176   3.424 -0.4952  0.9665  0.6307
  559MOL0     H75405   4.583  10.053   3.322  2.1650  0.2476 -0.5157
  559MOL0     H75406   4.694   9.865   3.474 -1.7888  0.4742 -0.3460
  559MOL0     H75407   4.797   9.970   3.374 -1.7604  0.6998 -0.9075
  559MOL0     H75408   4.743  10.077   3.638  0.8195  1.7022 -0.6763
  559MOL0     H75409   4.869   9.939   3.631  0.8288 -0.0557  0.0955
  559MOL0     H75410   4.961  10.081   3.433  0.4820 -3.1125  2.0280
  559MOL0     H75411   4.876  10.216   3.507  2.6755  0.1848 -1.7310
  559MOL0     H75412   5.078  10.047   3.651 -0.6348  0.2153  0.8270
  559MOL0     H75413   5.006  10.192   3.705  1.6620 -0.6138  0.1236
  559MOL0     H75414   5.248  10.221   3.578  0.9104  0.5297 -1.4134
  559MOL0     H75415   5.154  10.171   3.438 -0.2654 -1.1484  1.8372
  559MOL0     H75416   5.191  10.454   3.707  0.1989 -1.1571 -0.2518
  559MOL0     H75417   4.956  10.741   3.601  0.2073 -0.3901 -3.6677
  559MOL0     H75418   5.076  10.702   3.727 -3.6572 -1.4713 -0.0752
  559MOL0     H75419   5.261  10.758   3.584 -0.3869 -0.8196 -1.1096
  559MOL0     H75420   5.147  10.820   3.458 -3.3566 -0.6708  0.2119
  559MOL0     H75421   5.124  10.941   3.729  0.8349 -0.2855 -0.1611
  559MOL0     H75422   5.073  11.004   3.569 -0.3718 -0.1158 -1.6818
  559MOL0     H75423   5.361  10.958   3.646 -0.4031 -1.0453  0.6464
  559MOL0     H75424   5.282  11.115   3.677 -1.0767 -0.7996  0.3549
  559MOL0     H75425   5.342  11.076   3.210 -0.1391  1.7030 -3.0861
  559MOL0     H75426   5.545  11.118   3.110 -0.0770  0.0125  0.4553
  559MOL0     H75427   5.997  11.494   3.275 -2.3152 -1.1924 -2.0823
  559MOL0     H75428   6.237  11.511   3.285  0.0092 -0.4444  0.1997
  559MOL0     H75429   6.447  11.453   3.363  3.1900  1.3099 -1.4650
  559MOL0     H75430   6.460  11.311   3.464 -0.5989  0.2864  0.8011
  559MOL0     H75431   6.649  11.235   3.319 -0.2822  0.1373  1.5681
  559MOL0     H75432   6.635  11.379   3.221  1.1622 -1.6100  0.2873
  559MOL0     H75433   6.658  11.510   3.450 -0.5741 -1.7060  2.0860
  559MOL0     H75434   6.691  11.362   3.528 -0.5188  1.6737  1.1040
  559MOL0     H75435   6.868  11.488   3.309 -2.1583  2.0974  1.0660
  559MOL0     H75436   6.885  11.324   3.378 -1.4371 -0.1123 -0.5123
  559MOL0     H75437   6.914  11.389   3.595  0.4667 -1.1777 -1.0804
  559MOL0     H75438   6.866  11.554   3.583  0.4572 -0.0853 -0.0076
  559MOL0     H75439   7.078  11.588   3.438  2.1847  1.4580  2.2797
  559MOL0     H75440   7.099  11.549   3.604  1.4830  0.4249 -0.9018
  559MOL0     H75441   7.118  11.347   3.370 -4.5725  0.4287  1.7429
  559MOL0     H75442   7.156  11.305   3.536 -0.1397 -1.9503 -2.0916
  559MOL0     H75443   7.307  11.509   3.376 -0.4641  1.1533  1.0402
  559MOL0     H75444   7.343  11.474   3.549  1.7454  1.2955 -1.0224
  559MOL0     H75445   6.267  11.089   3.217 -1.9793 -1.0392 -0.1659
  559MOL0     H75446   6.022  11.084   3.192 -1.4338  1.7807 -2.1070
  559MOL0     H75447   5.731  11.183   3.497 -1.7960  1.2276  2.5212
  559MOL0     H75448   5.514  11.172   3.602 -1.5879  1.1987  0.0567
  559MOL0     H75449   4.183  10.283   3.352  0.9691 -1.6461 -1.1252
  559MOL0     H75450   3.947  10.372   3.337 -1.0960  0.8259  1.0083
  559MOL0     H75451   3.612  10.510   3.375 -0.0410 -0.7116 -2.1576
  559MOL0     H75452   3.410  10.607   3.303 -1.8888  0.1456  1.3793
  559MOL0     H75453   3.063  10.460   3.453  0.2861  3.3327  1.1164
  559MOL0     H75454   3.011  10.362   3.301 -0.5620  1.7823 -3.5404
  559MOL0     H75455   2.976  10.651   3.323  1.0252 -0.5536 -1.3206
  559MOL0     H75456   2.853  10.542   3.397  0.6623  1.6043 -0.5719
  559MOL0     H75457   2.774  10.596   3.177  1.2062  1.1877  0.0192
  559MOL0     H75458   2.831  10.427   3.184  0.2728 -0.6856  1.7270
  559MOL0     H75459   3.048  10.554   3.066 -1.1604 -1.7261  5.9694
  559MOL0     H75460   2.912  10.505   2.972  1.7694 -1.4841 -0.2324
  559MOL0     H75461   2.892  10.930   2.961 -2.8158 -0.4640 -0.6963
  559MOL0     H75462   3.201  10.246   3.409  0.2581  0.5291  2.1042
  559MOL0     H75463   3.308  10.084   3.534  1.0282 -0.1725  3.9145
  559MOL0     H75464   3.476  10.050   3.494  0.8073 -0.0822  1.3809
  559MOL0     H75465   3.435  10.149   3.628  0.9644 -3.0631  0.1539
  560MOL0     O75466   4.928   5.311   9.986 -0.5375 -0.2044  0.6589
  560MOL0     C75467   4.913   5.264   9.871  0.3580 -0.3884 -0.4302
  560MOL0     O75468   5.008   5.195   9.799 -0.2881  0.1698  0.6237
  560MOL0     C75469   5.126   5.186   9.868  0.1575  0.2079 -0.2052
  560MOL0     C75470   5.232   5.254   9.814 -0.1228  0.3249 -1.5427
  560MOL0     C75471   5.358   5.233   9.872 -0.3209 -0.5377  0.6862
  560MOL0     C75472   5.379   5.168   9.987 -0.0708 -0.3077 -0.6211
  560MOL0     O75473   5.491   5.156  10.056  0.5677 -0.6090 -0.6658
  560MOL0     C75474   5.617   5.162   9.993 -1.4846  0.3360  0.1779
  560MOL0     C75475   5.644   5.039   9.916  0.4973 -0.4723  0.3155
  560MOL0     C75476   5.768   5.046   9.823 -0.9609 -0.5025 -0.0706
  560MOL0     C75477   5.892   5.055   9.901 -0.7313 -0.3166  0.2317
  560MOL0     C75478   6.010   5.046   9.806 -0.3289  0.1865 -0.1513
  560MOL0     C75479   6.021   5.142   9.693  0.1414 -0.3396  0.7170
  560MOL0     C75480   6.151   5.121   9.614  0.0199 -0.3293  0.4754
  560MOL0     C75481   6.158   5.198   9.483 -1.1044 -0.2629 -0.0102
  560MOL0     N75482   6.286   5.174   9.404  0.4483 -0.3642  0.3301
  560MOL0     C75483   6.296   5.084   9.297 -0.0409 -0.2286  0.1399
  560MOL0     C75484   6.431   5.096   9.258  0.1522 -0.1602  0.1940
  560MOL0     C75485   6.500   5.026   9.137  0.5019  0.2349  1.0650
  560MOL0     C75486   6.644   5.078   9.108 -0.0508 -0.4507  0.6000
  560MOL0     C75487   6.720   4.977   9.022 -0.5288  0.8034  0.1340
  560MOL0     C75488   6.866   5.014   9.011  0.6043  0.3635  0.5071
  560MOL0     O75489   6.891   5.121   8.921 -0.0554 -0.2369  1.0857
  560MOL0     C75490   7.027   5.148   8.889  0.2672  1.1572 -0.3695
  560MOL0     C75491   7.128   5.053   8.917 -0.1023  0.1067 -0.6682
  560MOL0     C75492   7.263   5.082   8.898  0.4282 -0.1566  0.1254
  560MOL0     C75493   7.294   5.210   8.855  0.6890 -0.7981  0.4891
  560MOL0     C75494   7.437   5.250   8.833  0.5172 -0.4698  0.2227
  560MOL0     O75495   7.535   5.168   8.878 -0.3955  0.5832 -0.1637
  560MOL0     C75496   7.661   5.206   8.840  0.0009  0.0387  0.9523
  560MOL0     C75497   7.730   5.285   8.928  0.5543  0.1408 -0.5338
  560MOL0     C75498   7.862   5.316   8.913 -0.6748  0.5542 -0.5210
  560MOL0     C75499   7.925   5.275   8.785 -1.0557 -0.3046  0.3978
  560MOL0     O75500   8.052   5.302   8.742  0.0728  0.5942 -0.4820
  560MOL0     C75501   8.154   5.312   8.845  0.8402  0.1182 -1.1622
  560MOL0     C75502   8.295   5.301   8.788  0.0427  0.3250 -1.0149
  560MOL0     C75503   8.319   5.160   8.733  0.6946  0.2569  0.4961
  560MOL0     C75504   8.348   5.066   8.851  0.0750 -0.2807  0.2448
  560MOL0     C75505   8.385   4.924   8.806 -0.5601 -0.2012  0.4160
  560MOL0     C75506   8.526   4.906   8.747  0.8256 -0.6271  0.7357
  560MOL0     C75507   8.549   4.757   8.730 -0.1496 -0.9641 -0.6925
  560MOL0     C75508   8.697   4.734   8.703  0.6752 -0.3105 -0.0540
  560MOL0    Cl75509   8.739   4.819   8.555 -0.0249 -0.1509  0.3624
  560MOL0     C75510   7.854   5.199   8.689 -0.8728 -0.2168 -0.5358
  560MOL0     C75511   7.723   5.161   8.722  0.2674 -0.3103 -0.3083
  560MOL0     O75512   7.457   5.358   8.767 -0.3251 -0.2603  0.6129
  560MOL0     C75513   7.187   5.304   8.823  0.5064  0.0430 -0.1918
  560MOL0     C75514   7.055   5.274   8.846 -0.6018  0.1434  0.0349
  560MOL0     N75515   6.477   5.205   9.325 -0.4959  0.2314 -0.8388
  560MOL0     N75516   6.392   5.255   9.405  0.1167 -0.4260 -1.1335
  560MOL0     C75517   5.264   5.105  10.046  0.2241  0.0862 -0.3001
  560MOL0     C75518   5.137   5.120   9.994 -0.2920 -0.7966 -0.5555
  560MOL0     C75519   4.792   5.294   9.789  0.2364  0.0137 -0.2066
  560MOL0     C75520   4.801   5.322   9.654 -0.0541 -0.1893  1.1167
  560MOL0     C75521   4.691   5.358   9.580 -0.6966 -0.1111  0.1726
  560MOL0     C75522   4.564   5.370   9.642 -0.0963 -0.4944 -0.9763
  560MOL0     O75523   4.455   5.414   9.571 -0.6321  0.1209  0.1007
  560MOL0     C75524   4.335   5.436   9.645 -0.6017 -0.1013 -0.3773
  560MOL0     C75525   4.251   5.316   9.659  0.0697  1.0478 -0.5283
  560MOL0     C75526   4.213   5.256   9.523  0.6262 -0.2821  1.3875
  560MOL0     C75527   4.111   5.139   9.539  0.8547  0.2611 -0.0146
  560MOL0     C75528   4.038   5.079   9.423  0.4633 -1.4141 -0.1402
  560MOL0     C75529   3.967   5.051   9.331  0.1468 -0.1346 -0.2045
  560MOL0     C75530   4.556   5.337   9.778  0.8265  0.0926 -0.0355
  560MOL0     C75531   4.665   5.305   9.854 -0.0773  0.4349 -1.2553
  560MOL0     C75532   4.651   5.278   9.998 -0.9999  0.1428 -0.4413
  560MOL0     H75533   5.209   5.312   9.725 -0.8367 -0.4211 -1.8524
  560MOL0     H75534   5.443   5.284   9.827 -1.3969  0.9909  0.3132
  560MOL0     H75535   5.626   5.251   9.930 -0.0365 -0.4793 -0.8235
  560MOL0     H75536   5.688   5.174  10.075 -1.2335 -0.4730  0.0830
  560MOL0     H75537   5.553   5.008   9.863  0.2893 -0.7283  0.8091
  560MOL0     H75538   5.650   4.959   9.991 -1.1138 -1.8610 -0.9382
  560MOL0     H75539   5.765   5.136   9.761 -0.4495 -0.9453 -0.7516
  560MOL0     H75540   5.776   4.964   9.750  0.1087  1.7655 -2.6909
  560MOL0     H75541   5.893   5.145   9.963  1.0391 -0.0188 -0.1754
  560MOL0     H75542   5.889   4.969   9.968  0.2515  1.0586  2.1455
  560MOL0     H75543   6.099   5.055   9.870 -0.7291  0.6093  0.3537
  560MOL0     H75544   6.005   4.948   9.758 -3.4062 -0.2364  0.8223
  560MOL0     H75545   5.942   5.123   9.621  0.6847 -0.8741  0.2518
  560MOL0     H75546   6.027   5.245   9.732  0.7806 -0.6512  1.4870
  560MOL0     H75547   6.157   5.016   9.586  0.3380 -0.6320  1.6115
  560MOL0     H75548   6.234   5.151   9.679  0.5207 -1.2825  0.2958
  560MOL0     H75549   6.074   5.159   9.424 -2.3870 -2.4468  3.0384
  560MOL0     H75550   6.143   5.307   9.482 -1.0736 -0.2533 -0.7968
  560MOL0     H75551   6.217   5.019   9.260  1.7249 -2.0971 -0.6004
  560MOL0     H75552   6.500   4.917   9.148 -1.2480 -0.3647 -3.1448
  560MOL0     H75553   6.436   5.053   9.053 -0.8713  0.5723  2.1646
  560MOL0     H75554   6.640   5.180   9.067 -0.2840 -0.7888 -0.2444
  560MOL0     H75555   6.694   5.102   9.202  1.0507  5.4213 -1.0362
  560MOL0     H75556   6.667   4.968   8.927 -0.5030  1.5931  0.0366
  560MOL0     H75557   6.709   4.879   9.069 -1.3231  1.3391  1.0885
  560MOL0     H75558   6.902   4.915   8.981  0.1180  0.3285  0.0227
  560MOL0     H75559   6.898   5.036   9.113  1.2956 -0.5581  0.4970
  560MOL0     H75560   7.114   4.951   8.950  0.9817  0.0415 -0.3632
  560MOL0     H75561   7.340   5.006   8.905  0.6139  0.1491  1.6707
  560MOL0     H75562   7.680   5.302   9.023 -1.9870 -2.4239 -1.2680
  560MOL0     H75563   7.934   5.377   8.967 -0.2363 -0.6852  0.3400
  560MOL0     H75564   8.152   5.411   8.891  1.1500 -0.8830  1.1158
  560MOL0     H75565   8.143   5.237   8.924 -0.4842  0.3900 -1.0627
  560MOL0     H75566   8.314   5.367   8.704  0.8601  1.3053 -0.0958
  560MOL0     H75567   8.358   5.330   8.873 -2.8550  0.6013  1.2074
  560MOL0     H75568   8.228   5.133   8.678  0.4602  1.4414  0.2765
  560MOL0     H75569   8.405   5.163   8.666  1.1199  0.3411  1.0399
  560MOL0     H75570   8.268   5.072   8.926  0.1745  0.8722  0.2808
  560MOL0     H75571   8.443   5.095   8.897  1.6147 -0.0810 -2.8154
  560MOL0     H75572   8.305   4.883   8.744 -0.3071 -0.9450  0.5793
  560MOL0     H75573   8.385   4.868   8.900 -0.9415 -0.6421  0.1544
  560MOL0     H75574   8.544   4.948   8.648  2.8188 -3.2315 -0.1012
  560MOL0     H75575   8.599   4.943   8.820  0.1309 -0.0195  1.1466
  560MOL0     H75576   8.492   4.714   8.647  1.0821 -2.2651 -0.9004
  560MOL0     H75577   8.522   4.707   8.824  3.9200  1.5530  2.1245
  560MOL0     H75578   8.755   4.757   8.792 -0.7564 -2.3812  1.4928
  560MOL0     H75579   8.702   4.626   8.684 -1.0789 -0.2326 -1.2096
  560MOL0     H75580   7.907   5.167   8.600  0.2961  1.2939 -0.4141
  560MOL0     H75581   7.661   5.099   8.659 -1.5485 -0.0697  1.1601
  560MOL0     H75582   7.218   5.405   8.797 -0.8751  0.4625 -0.2985
  560MOL0     H75583   6.974   5.346   8.835 -0.7717 -0.0565 -0.0459
  560MOL0     H75584   5.256   5.049  10.138 -0.5992 -0.9332 -0.9670
  560MOL0     H75585   5.052   5.072  10.041  0.9189 -2.0408  0.4405
  560MOL0     H75586   4.902   5.329   9.616 -0.6589 -1.0906 -0.7729
  560MOL0     H75587   4.699   5.373   9.473 -0.6157 -0.8355  0.0692
  560MOL0     H75588   4.272   5.505   9.588 -0.5938 -0.5099 -0.8948
  560MOL0     H75589   4.361   5.484   9.739  3.8221 -0.5222 -1.1885
  560MOL0     H75590   4.153   5.337   9.702 -1.2854 -0.1565 -2.8202
  560MOL0     H75591   4.310   5.245   9.717  2.9519  1.7290 -2.3904
  560MOL0     H75592   4.300   5.217   9.470 -1.0386  0.2821 -2.0904
  560MOL0     H75593   4.174   5.340   9.464 -1.0944 -0.6067  1.9964
  560MOL0     H75594   4.171   5.058   9.581  1.8359  1.3829  0.8218
  560MOL0     H75595   4.028   5.162   9.606 -1.1751 -0.7728 -2.0299
  560MOL0     H75596   3.900   5.043   9.247  0.8355  1.3488 -0.9394
  560MOL0     H75597   4.460   5.325   9.825  1.5152  3.3789  2.6288
  560MOL0     H75598   4.697   5.359  10.056  2.5588 -0.0351 -2.7120
  560MOL0     H75599   4.543   5.275  10.018 -0.7124 -0.7650  1.1423
  560MOL0     H75600   4.699   5.183  10.025 -0.7582  0.5698  0.6914
  561MOL0     O75601   9.856   2.589   5.941 -0.3748 -0.1947  0.1015
  561MOL0     C75602   9.848   2.640   6.054  1.1320 -0.7395 -0.2455
  561MOL0     O75603   9.942   2.659   6.146  0.0343 -0.1601  0.1496
  561MOL0     C75604  10.060   2.585   6.148  0.7038 -0.2914  0.6648
  561MOL0     C75605  10.177   2.644   6.198  0.3871  0.6608 -0.2002
  561MOL0     C75606  10.303   2.578   6.220  0.2990  1.3367  0.5620
  561MOL0     C75607  10.303   2.440   6.181 -0.3643 -0.3972  0.3845
  561MOL0     O75608  10.405   2.351   6.184  0.3456 -0.3602  0.1491
  561MOL0     C75609  10.487   2.369   6.299  0.2468 -0.3029 -1.0945
  561MOL0     C75610  10.570   2.242   6.325  0.8114  0.2692  0.4391
  561MOL0     C75611  10.639   2.222   6.456  0.1169 -0.8806 -0.2581
  561MOL0     C75612  10.697   2.082   6.465 -1.0340  0.2280  1.3829
  561MOL0     C75613  10.814   2.066   6.569 -1.0518 -0.1509 -0.3171
  561MOL0     C75614  10.930   1.975   6.530  0.8837  0.7701  0.5500
  561MOL0     C75615  11.025   1.956   6.640  0.5249 -0.6456  0.1068
  561MOL0     C75616  10.975   1.884   6.773  0.2725  0.1339  0.0799
  561MOL0     N75617  11.081   1.882   6.874 -0.6214 -0.3392 -0.7080
  561MOL0     C75618  11.052   1.866   7.006 -1.0664  0.5145 -0.1158
  561MOL0     C75619  11.176   1.886   7.066  0.5047 -0.3921 -0.2796
  561MOL0     C75620  11.190   1.874   7.211  0.0142  0.8751 -0.6620
  561MOL0     C75621  11.332   1.883   7.251 -0.3330 -0.8150  0.7034
  561MOL0     C75622  11.377   1.868   7.392 -0.4127  0.4385 -0.8121
  561MOL0     C75623  11.324   1.984   7.477  0.0228 -0.7969 -0.8507
  561MOL0     O75624  11.341   1.940   7.614 -0.0132  0.6975  0.4400
  561MOL0     C75625  11.320   2.039   7.708  0.1511  0.8166  0.6421
  561MOL0     C75626  11.241   2.147   7.681 -0.6444 -0.3782  0.1215
  561MOL0     C75627  11.217   2.248   7.764 -0.1928 -0.1222 -0.8309
  561MOL0     C75628  11.278   2.255   7.893 -0.4225 -0.3880  0.7679
  561MOL0     C75629  11.247   2.370   7.987  0.0079 -0.6930 -0.5479
  561MOL0     O75630  11.150   2.462   7.959  0.3018  0.4263  0.5515
  561MOL0     C75631  11.101   2.540   8.054  0.0776 -0.3982 -0.3063
  561MOL0     C75632  11.036   2.659   8.009 -0.3951 -0.4445 -0.2564
  561MOL0     C75633  10.972   2.747   8.095  1.5040  0.2521  0.4902
  561MOL0     C75634  10.967   2.714   8.228  0.4588 -0.5857  0.7869
  561MOL0     O75635  10.918   2.795   8.329  0.0640  0.1359  0.4541
  561MOL0     C75636  10.991   2.911   8.361  0.5230 -0.5352 -0.0492
  561MOL0     C75637  11.049   2.904   8.500 -0.1057 -0.1652 -0.5804
  561MOL0     C75638  11.155   3.021   8.517 -1.2126  0.2868  0.0642
  561MOL0     C75639  11.083   3.152   8.530 -0.3158  0.0403  0.1733
  561MOL0     C75640  11.170   3.278   8.528 -0.0997 -0.3483 -0.6675
  561MOL0     C75641  11.160   3.375   8.645 -0.4519 -0.9143 -0.3793
  561MOL0     C75642  11.205   3.316   8.778 -0.4368  0.0278 -0.3625
  561MOL0     C75643  11.346   3.260   8.778 -0.0786  0.1033  0.1644
  561MOL0    Cl75644  11.460   3.383   8.720 -0.0751 -0.2129  0.0724
  561MOL0     C75645  11.023   2.596   8.272 -0.0018 -0.2235 -0.3355
  561MOL0     C75646  11.093   2.516   8.189  0.0390  1.2236 -0.5371
  561MOL0     O75647  11.335   2.384   8.078 -0.0998  0.5360  0.3533
  561MOL0     C75648  11.355   2.136   7.922  0.1692 -1.0034 -0.6012
  561MOL0     C75649  11.380   2.039   7.831 -0.0420  0.5372  0.6910
  561MOL0     N75650  11.270   1.919   6.969 -0.0675  0.2874 -0.3255
  561MOL0     N75651  11.211   1.914   6.856  0.1363  0.1557  0.0824
  561MOL0     C75652  10.190   2.382   6.118  0.2340  1.0410 -0.0998
  561MOL0     C75653  10.072   2.458   6.102 -0.1374  0.5355 -1.0026
  561MOL0     C75654   9.724   2.705   6.111 -0.7453  0.2136  0.3623
  561MOL0     C75655   9.712   2.718   6.249  0.0649  0.3523  0.0471
  561MOL0     C75656   9.602   2.777   6.318  0.6001 -0.3369  0.9910
  561MOL0     C75657   9.485   2.811   6.244  0.1002 -0.1813  0.7013
  561MOL0     O75658   9.370   2.873   6.293  0.4001  0.5890  0.4103
  561MOL0     C75659   9.347   2.873   6.435 -0.6383 -0.2019  0.0060
  561MOL0     C75660   9.205   2.930   6.460 -0.2799 -0.9702 -0.2138
  561MOL0     C75661   9.101   2.867   6.362 -0.5345  0.2747 -0.2981
  561MOL0     C75662   8.954   2.908   6.373 -0.0801 -0.0178 -0.4627
  561MOL0     C75663   8.895   2.883   6.508 -0.6581 -1.3618  1.1565
  561MOL0     C75664   8.838   2.874   6.619 -1.1072 -0.1350  1.3419
  561MOL0     C75665   9.494   2.800   6.105  0.1994  0.2695  0.3859
  561MOL0     C75666   9.611   2.747   6.033  0.6772 -0.4029  0.4662
  561MOL0     C75667   9.617   2.773   5.884 -0.0164 -0.6640  0.3589
  561MOL0     H75668  10.176   2.744   6.240 -1.0642 -0.1563  1.8813
  561MOL0     H75669  10.396   2.611   6.264  0.2236 -0.3243  2.0850
  561MOL0     H75670  10.549   2.455   6.269 -1.7615  1.6367  0.0433
  561MOL0     H75671  10.418   2.383   6.382 -0.2980  0.3698 -1.6444
  561MOL0     H75672  10.647   2.240   6.247  1.6593 -1.0676  1.2574
  561MOL0     H75673  10.499   2.160   6.309 -0.4487  0.8687  2.5948
  561MOL0     H75674  10.575   2.247   6.542  1.0856 -0.2557  0.3093
  561MOL0     H75675  10.717   2.299   6.453 -0.5438 -0.1870 -0.0272
  561MOL0     H75676  10.618   2.015   6.500 -0.4003 -0.1548  2.1019
  561MOL0     H75677  10.740   2.053   6.369  2.0781  0.6009  2.5552
  561MOL0     H75678  10.864   2.160   6.595 -0.2850  0.2772 -3.0017
  561MOL0     H75679  10.767   2.047   6.666 -1.0666 -1.7418 -0.6166
  561MOL0     H75680  10.892   1.873   6.523  2.6082 -0.1222  3.0115
  561MOL0     H75681  10.991   1.997   6.442 -2.1942 -0.7707 -2.1925
  561MOL0     H75682  11.057   2.059   6.661 -2.3838  0.5506 -0.8889
  561MOL0     H75683  11.115   1.903   6.608  1.4224 -0.2681  1.8427
  561MOL0     H75684  10.888   1.938   6.811 -1.2675 -1.4259 -1.0594
  561MOL0     H75685  10.947   1.782   6.745  1.3574  0.0855 -0.8903
  561MOL0     H75686  10.958   1.831   7.046 -2.2838  2.3500 -1.2332
  561MOL0     H75687  11.121   1.944   7.259 -1.1042  0.1725 -1.1906
  561MOL0     H75688  11.154   1.775   7.242  2.4403 -0.6314 -2.2980
  561MOL0     H75689  11.397   1.810   7.202  0.6541  0.0416  0.7079
  561MOL0     H75690  11.362   1.984   7.220 -1.3057 -0.1578  1.7917
  561MOL0     H75691  11.486   1.879   7.395 -0.6906  4.6560  0.8896
  561MOL0     H75692  11.360   1.767   7.431  2.5533 -0.3416 -1.3255
  561MOL0     H75693  11.218   2.000   7.455  0.3493 -0.0256 -1.9068
  561MOL0     H75694  11.382   2.074   7.456  1.5612 -0.9000  2.3561
  561MOL0     H75695  11.188   2.151   7.586  0.4576  0.8851 -0.4853
  561MOL0     H75696  11.154   2.329   7.730  0.5990 -0.4050 -3.1192
  561MOL0     H75697  11.033   2.685   7.903 -0.5831 -1.2448 -0.4597
  561MOL0     H75698  10.931   2.839   8.056  1.3477  0.6427  1.5513
  561MOL0     H75699  11.061   2.936   8.280  0.3632  0.9529  0.2301
  561MOL0     H75700  10.923   2.997   8.354 -0.2416 -1.2558 -2.9780
  561MOL0     H75701  10.981   2.927   8.583  1.9315  2.4303  0.5151
  561MOL0     H75702  11.097   2.808   8.518  0.4977 -0.3843 -2.9692
  561MOL0     H75703  11.209   2.996   8.609  0.5116 -0.5900 -1.1228
  561MOL0     H75704  11.231   3.011   8.439  0.1729  0.4650  1.3346
  561MOL0     H75705  11.025   3.145   8.623 -0.9347  0.4266 -0.1761
  561MOL0     H75706  11.014   3.168   8.447  0.8051  0.6826 -0.6573
  561MOL0     H75707  11.129   3.333   8.443  0.6232  0.0121 -0.7865
  561MOL0     H75708  11.272   3.252   8.500 -0.5411 -0.9811 -1.7198
  561MOL0     H75709  11.229   3.459   8.631  0.6915 -1.7910 -0.1365
  561MOL0     H75710  11.058   3.416   8.643 -0.3087 -0.5748 -0.9605
  561MOL0     H75711  11.132   3.243   8.813 -1.1169  1.5387  1.5778
  561MOL0     H75712  11.200   3.397   8.851 -0.8784 -1.4314  1.2928
  561MOL0     H75713  11.377   3.216   8.874  1.4750 -1.0559 -0.8154
  561MOL0     H75714  11.340   3.177   8.708 -0.1594  1.2618 -1.2530
  561MOL0     H75715  11.000   2.562   8.372 -3.1445 -2.0502 -1.5153
  561MOL0     H75716  11.133   2.422   8.224 -0.6934  1.0145 -0.2469
  561MOL0     H75717  11.395   2.130   8.023  1.3308  1.2419 -0.8690
  561MOL0     H75718  11.440   1.953   7.861  1.7486  1.3955 -0.2561
  561MOL0     H75719  10.198   2.277   6.092 -0.5627  1.1122 -0.6962
  561MOL0     H75720   9.978   2.409   6.080  1.0585 -1.6138 -1.7237
  561MOL0     H75721   9.778   2.676   6.324 -1.9296 -1.9074  0.6721
  561MOL0     H75722   9.617   2.784   6.426  0.6389  1.3937  0.9083
  561MOL0     H75723   9.429   2.931   6.479  1.9753 -0.8792 -3.4964
  561MOL0     H75724   9.353   2.770   6.471 -0.9728 -0.3525 -0.3682
  561MOL0     H75725   9.194   3.038   6.449 -1.9058 -1.1535 -0.6393
  561MOL0     H75726   9.181   2.907   6.565  1.5832 -1.2232  0.1830
  561MOL0     H75727   9.115   2.759   6.377  3.4667  0.5065 -1.1921
  561MOL0     H75728   9.125   2.874   6.255 -0.3339 -0.4316 -0.3085
  561MOL0     H75729   8.945   3.016   6.356  1.4282  0.5499  1.8333
  561MOL0     H75730   8.895   2.853   6.300  0.3394 -0.8170 -0.2090
  561MOL0     H75731   8.785   2.884   6.712 -1.8998  0.0790  0.8720
  561MOL0     H75732   9.395   2.819   6.065  1.5292  2.9281 -2.0017
  561MOL0     H75733   9.719   2.759   5.847 -0.5775 -2.5416 -0.6211
  561MOL0     H75734   9.561   2.697   5.828  1.0344 -0.3756 -1.1674
  561MOL0     H75735   9.584   2.873   5.856 -0.9770 -1.3026 -0.9383
  562MOL0     O75736   1.955   0.381   8.154  0.8002 -0.5806 -0.1089
  562MOL0     C75737   1.855   0.325   8.111  0.4513  0.1595 -0.0127
  562MOL0     O75738   1.852   0.261   7.990  0.3125  0.2374  0.1420
  562MOL0     C75739   1.969   0.270   7.913 -0.7291 -0.2145  0.3796
  562MOL0     C75740   1.985   0.350   7.794 -0.7648  0.3428 -0.9796
  562MOL0     C75741   2.105   0.354   7.724  0.3839 -0.6216 -0.4161
  562MOL0     C75742   2.215   0.281   7.777  0.3010  0.4339  0.5586
  562MOL0     O75743   2.328   0.290   7.705  0.8897 -0.0075  0.4152
  562MOL0     C75744   2.332   0.179   7.612 -0.2402 -0.9793  0.7520
  562MOL0     C75745   2.414   0.224   7.493 -0.4592 -0.1288  0.7859
  562MOL0     C75746   2.554   0.280   7.528  0.6180 -0.6227 -0.0370
  562MOL0     C75747   2.592   0.397   7.427  0.0720 -0.0404 -0.3951
  562MOL0     C75748   2.724   0.476   7.461 -0.3690  0.1738  0.2985
  562MOL0     C75749   2.845   0.404   7.408  0.4591  0.3908 -0.0442
  562MOL0     C75750   2.970   0.503   7.402  0.2721  0.2692  0.1367
  562MOL0     C75751   3.087   0.441   7.328 -0.7531  0.3932  0.5128
  562MOL0     N75752   3.208   0.523   7.341  0.6620 -0.2131  0.0721
  562MOL0     C75753   3.304   0.507   7.429 -0.3667 -0.7393 -0.7683
  562MOL0     C75754   3.400   0.593   7.389 -0.4906  0.2644  0.1507
  562MOL0     C75755   3.539   0.618   7.448  0.2491  0.1832  0.0212
  562MOL0     C75756   3.638   0.536   7.370  0.1592  1.3000 -0.7875
  562MOL0     C75757   3.783   0.568   7.408 -0.1399 -0.5266 -0.0206
  562MOL0     C75758   3.878   0.540   7.297 -1.7589 -0.2438  0.0133
  562MOL0     O75759   4.012   0.551   7.347  0.0681 -0.0895  0.1942
  562MOL0     C75760   4.128   0.541   7.265  0.9341  0.2745 -0.0688
  562MOL0     C75761   4.245   0.559   7.329 -0.4626  0.1381 -0.2138
  562MOL0     C75762   4.372   0.540   7.262  0.1545 -0.0454  0.0108
  562MOL0     C75763   4.370   0.522   7.120 -0.7358  0.1090  1.0133
  562MOL0     C75764   4.500   0.502   7.042  1.0499 -0.0957 -0.4290
  562MOL0     O75765   4.590   0.439   7.111 -0.8666 -0.0092 -0.0582
  562MOL0     C75766   4.720   0.453   7.064 -0.6217  0.1148 -0.5137
  562MOL0     C75767   4.763   0.369   6.959  0.6074 -0.3036  0.5210
  562MOL0     C75768   4.894   0.368   6.914 -1.0425 -0.1476  0.1445
  562MOL0     C75769   4.987   0.467   6.960 -0.4115 -0.2529  0.4810
  562MOL0     O75770   5.109   0.458   6.893 -0.0983 -0.7163 -0.6641
  562MOL0     C75771   5.203   0.553   6.938  0.8984  0.7481  0.4896
  562MOL0     C75772   5.335   0.509   6.869  0.0617 -0.3529  0.2634
  562MOL0     C75773   5.437   0.618   6.882 -0.3865 -0.3684  0.5243
  562MOL0     C75774   5.574   0.563   6.834  0.4638  0.2674 -0.4014
  562MOL0     C75775   5.662   0.685   6.802  0.0385 -0.6416  0.3903
  562MOL0     C75776   5.805   0.652   6.767  0.0217  0.3943 -0.4652
  562MOL0     C75777   5.883   0.780   6.740 -1.0048 -0.0409  0.5882
  562MOL0     C75778   6.016   0.756   6.675 -0.7755 -0.0368 -0.1480
  562MOL0    Cl75779   6.109   0.635   6.769 -0.6622 -0.2933 -0.1410
  562MOL0     C75780   4.942   0.551   7.064 -0.0636 -0.1878  0.5138
  562MOL0     C75781   4.818   0.541   7.112 -0.2011  0.3859 -0.5386
  562MOL0     O75782   4.502   0.546   6.926  0.1578  0.0925 -0.2076
  562MOL0     C75783   4.246   0.517   7.044  0.3204 -1.1546 -0.3297
  562MOL0     C75784   4.124   0.532   7.118 -0.1021  0.6051 -0.4742
  562MOL0     N75785   3.345   0.677   7.292  0.1166  0.0791  0.0561
  562MOL0     N75786   3.231   0.628   7.252 -0.4895  0.1243 -0.3876
  562MOL0     C75787   2.207   0.209   7.890 -0.2097  0.5835  0.4650
  562MOL0     C75788   2.083   0.196   7.951  0.4003  0.7679 -0.6107
  562MOL0     C75789   1.729   0.346   8.191  0.2306  0.5812 -0.0336
  562MOL0     C75790   1.617   0.270   8.162 -0.3905 -0.2508  0.2186
  562MOL0     C75791   1.499   0.274   8.227 -0.0001 -0.4663 -0.3971
  562MOL0     C75792   1.494   0.355   8.345  0.0534 -0.1908  0.0073
  562MOL0     O75793   1.373   0.362   8.412 -0.2807 -0.2247 -0.0225
  562MOL0     C75794   1.332   0.486   8.471  0.3336  1.8801 -0.2733
  562MOL0     C75795   1.187   0.517   8.461 -0.4675  0.6437 -0.0192
  562MOL0     C75796   1.111   0.413   8.554 -1.1914 -0.5171  0.9676
  562MOL0     C75797   1.048   0.486   8.681 -0.2598 -0.0445 -0.1615
  562MOL0     C75798   1.143   0.510   8.793  0.4046  0.6602 -0.0639
  562MOL0     C75799   1.216   0.542   8.880  0.4241 -0.3098 -0.4057
  562MOL0     C75800   1.603   0.439   8.374  0.5509  0.0289 -1.1009
  562MOL0     C75801   1.712   0.442   8.299 -0.6640  0.2777  0.6470
  562MOL0     C75802   1.821   0.550   8.337 -0.5001 -0.2866  0.5739
  562MOL0     H75803   1.891   0.397   7.763 -1.7470 -0.2522  0.9494
  562MOL0     H75804   2.124   0.392   7.624  1.0054 -1.7185 -0.7328
  562MOL0     H75805   2.390   0.099   7.660  2.0613 -1.6882 -2.8511
  562MOL0     H75806   2.235   0.137   7.582 -0.4215  0.8677 -1.5318
  562MOL0     H75807   2.351   0.296   7.441  1.2639  0.9046  0.0624
  562MOL0     H75808   2.429   0.137   7.428 -1.9209 -0.3569  0.7160
  562MOL0     H75809   2.630   0.202   7.528 -0.6172 -1.8802  0.2179
  562MOL0     H75810   2.554   0.324   7.628  1.1827  0.2247 -0.3994
  562MOL0     H75811   2.589   0.362   7.324  1.7320  1.4552 -1.0166
  562MOL0     H75812   2.506   0.464   7.420 -0.9728 -0.9907  2.0232
  562MOL0     H75813   2.729   0.573   7.411  1.4473 -0.0750 -0.0610
  562MOL0     H75814   2.739   0.487   7.569 -1.1737  1.4703  0.2997
  562MOL0     H75815   2.875   0.323   7.475 -2.8863  0.2932  1.5342
  562MOL0     H75816   2.817   0.358   7.312  1.0377  1.8539 -0.9525
  562MOL0     H75817   2.999   0.520   7.506  1.5760 -0.5505 -0.0674
  562MOL0     H75818   2.941   0.594   7.348  0.5386  0.4187  0.2458
  562MOL0     H75819   3.098   0.338   7.362 -2.1932 -0.6833 -1.9864
  562MOL0     H75820   3.055   0.442   7.223  0.9988 -2.8961 -0.2054
  562MOL0     H75821   3.319   0.439   7.512  4.2065  0.7482 -0.0731
  562MOL0     H75822   3.569   0.723   7.452  0.1697  0.2205 -0.3928
  562MOL0     H75823   3.525   0.590   7.553 -1.3178  0.8618  0.0110
  562MOL0     H75824   3.610   0.431   7.375  0.6872  1.0495 -2.4794
  562MOL0     H75825   3.628   0.561   7.264 -2.9421 -2.3185 -1.5750
  562MOL0     H75826   3.813   0.511   7.496 -2.3254 -1.7903 -0.0322
  562MOL0     H75827   3.796   0.674   7.433 -0.2022 -1.1647  3.0638
  562MOL0     H75828   3.860   0.606   7.211 -0.3082 -1.3497 -1.1878
  562MOL0     H75829   3.851   0.441   7.258  0.0895 -1.0900  0.7962
  562MOL0     H75830   4.254   0.576   7.436  1.5212  1.0614 -0.4819
  562MOL0     H75831   4.463   0.542   7.321 -1.4822 -2.7094  2.9798
  562MOL0     H75832   4.695   0.297   6.915  0.6875 -0.9704  1.4610
  562MOL0     H75833   4.925   0.298   6.837  1.3439  4.4511 -3.5814
  562MOL0     H75834   5.178   0.654   6.904 -0.7380 -0.7783 -3.3208
  562MOL0     H75835   5.209   0.543   7.047 -1.3176 -0.5130  0.5452
  562MOL0     H75836   5.367   0.415   6.914  1.5047 -0.3311 -0.6594
  562MOL0     H75837   5.324   0.492   6.762 -0.6151 -1.2052  0.4573
  562MOL0     H75838   5.412   0.706   6.823  0.9819 -0.4606 -0.2387
  562MOL0     H75839   5.444   0.643   6.988 -2.8472  1.1683  0.4057
  562MOL0     H75840   5.567   0.501   6.744  0.1959  0.5644 -0.5838
  562MOL0     H75841   5.620   0.505   6.914 -0.7727  0.8861  0.7920
  562MOL0     H75842   5.671   0.746   6.893  4.0562  1.6225 -1.2760
  562MOL0     H75843   5.617   0.745   6.723  2.4609 -0.5945 -1.0226
  562MOL0     H75844   5.847   0.603   6.856  1.2757  3.3959  0.7235
  562MOL0     H75845   5.816   0.582   6.684  2.3908  0.7302 -0.4913
  562MOL0     H75846   5.886   0.844   6.828  0.1838  0.2632  0.3425
  562MOL0     H75847   5.839   0.843   6.662  1.2662  1.6230  0.5656
  562MOL0     H75848   6.010   0.733   6.568  0.5690 -1.2638  0.0101
  562MOL0     H75849   6.077   0.846   6.679 -0.5667 -0.1242 -1.1299
  562MOL0     H75850   5.017   0.612   7.112  0.1003 -0.3866  0.5131
  562MOL0     H75851   4.783   0.616   7.182  1.3529 -0.3989  1.1566
  562MOL0     H75852   4.249   0.499   6.937  3.3516  0.8640 -0.7073
  562MOL0     H75853   4.032   0.521   7.060 -0.7792 -0.0870  0.6906
  562MOL0     H75854   2.290   0.159   7.940 -2.6707 -1.3855  2.8993
  562MOL0     H75855   2.072   0.126   8.033 -0.7913  2.5534  0.8199
  562MOL0     H75856   1.604   0.210   8.073  0.5029 -0.9075  0.5179
  562MOL0     H75857   1.412   0.212   8.205 -1.2735  0.9992  0.2995
  562MOL0     H75858   1.386   0.567   8.420 -0.3443  3.1103  0.8939
  562MOL0     H75859   1.370   0.478   8.573  1.2141 -0.1439 -0.7200
  562MOL0     H75860   1.140   0.510   8.363 -0.8582  0.7693  0.1575
  562MOL0     H75861   1.166   0.613   8.510 -0.8275 -0.5698  2.3378
  562MOL0     H75862   1.169   0.326   8.586  3.1990  2.8517  3.1372
  562MOL0     H75863   1.033   0.378   8.485  0.8515 -2.8665 -0.3334
  562MOL0     H75864   1.006   0.582   8.649 -0.7011 -0.0700  0.3200
  562MOL0     H75865   0.964   0.422   8.708  0.3937 -0.3622  1.2224
  562MOL0     H75866   1.282   0.574   8.958 -0.7969  5.2101 -1.1689
  562MOL0     H75867   1.599   0.504   8.461  0.3218 -1.4127  0.0186
  562MOL0     H75868   1.789   0.624   8.410 -1.6328  1.4244 -1.5564
  562MOL0     H75869   1.900   0.500   8.395 -0.6827 -0.7972  0.3927
  562MOL0     H75870   1.865   0.594   8.247  0.6716 -0.0115  1.2554
  563MOL0     O75871   5.040   9.624   0.879 -0.5013 -0.3777  0.2058
  563MOL0     C75872   4.984   9.599   0.981  0.9102  0.9325  0.3902
  563MOL0     O75873   5.005   9.659   1.102  0.2076  0.2666 -0.0393
  563MOL0     C75874   5.103   9.753   1.116  0.1129 -0.2060  0.0145
  563MOL0     C75875   5.060   9.863   1.190  0.6842  0.2589  0.4029
  563MOL0     C75876   5.134   9.977   1.207  0.2714 -0.2220  0.3691
  563MOL0     C75877   5.266   9.974   1.158  0.0762  0.1375  0.3700
  563MOL0     O75878   5.368  10.059   1.187  0.2823  0.0971 -0.1748
  563MOL0     C75879   5.339  10.170   1.275  0.0041 -0.0128 -0.1137
  563MOL0     C75880   5.333  10.137   1.423 -0.4059 -0.4332  1.4568
  563MOL0     C75881   5.455  10.044   1.462 -0.3884 -0.2269 -1.1213
  563MOL0     C75882   5.491  10.039   1.611  0.0733 -0.1242 -0.2519
  563MOL0     C75883   5.611  10.120   1.648  0.2992 -0.2198  0.0542
  563MOL0     C75884   5.649  10.118   1.798 -0.0499  0.6361 -0.2251
  563MOL0     C75885   5.788  10.166   1.820 -0.6415 -1.1710  0.2051
  563MOL0     C75886   5.906  10.079   1.761 -0.8420  0.0067 -0.1570
  563MOL0     N75887   6.040  10.141   1.775  0.3536  0.1057 -1.0113
  563MOL0     C75888   6.116  10.176   1.670  0.2223 -0.0241 -0.0658
  563MOL0     C75889   6.238  10.192   1.721  0.1177 -0.4099  0.0206
  563MOL0     C75890   6.361  10.206   1.629  0.3008 -0.1496  0.4449
  563MOL0     C75891   6.493  10.233   1.703 -0.9846 -0.7270 -0.0548
  563MOL0     C75892   6.498  10.382   1.748 -0.8696  0.3628  0.5368
  563MOL0     C75893   6.640  10.413   1.796 -0.2938  0.0796 -0.6241
  563MOL0     O75894   6.714  10.441   1.682 -0.9453  0.5761  0.1284
  563MOL0     C75895   6.847  10.471   1.688 -1.1222 -0.3832 -0.5000
  563MOL0     C75896   6.918  10.488   1.806 -0.2971 -0.2837  0.3907
  563MOL0     C75897   7.052  10.526   1.790 -0.2172  0.0855 -0.2470
  563MOL0     C75898   7.117  10.534   1.668 -0.1278  0.5238  0.8083
  563MOL0     C75899   7.269  10.566   1.668 -0.0485 -0.8766  0.4793
  563MOL0     O75900   7.337  10.584   1.548 -0.0135  0.4572  0.9164
  563MOL0     C75901   7.468  10.626   1.546 -0.6478 -0.5666  0.1762
  563MOL0     C75902   7.532  10.592   1.424  0.2430  0.4792  0.6922
  563MOL0     C75903   7.664  10.633   1.393 -0.3428 -0.1059 -0.3815
  563MOL0     C75904   7.729  10.719   1.486  0.1152  0.2203 -0.2056
  563MOL0     O75905   7.853  10.784   1.466  0.6618 -0.0277 -0.7243
  563MOL0     C75906   7.957  10.706   1.402 -0.7229 -0.0544  0.1973
  563MOL0     C75907   8.039  10.790   1.294  0.1729  0.8723 -0.1924
  563MOL0     C75908   8.139  10.702   1.229  0.3337 -0.4478 -0.2118
  563MOL0     C75909   8.068  10.603   1.130 -1.3564  0.1229  0.2382
  563MOL0     C75910   8.178  10.558   1.028 -0.5996  0.3316  0.1959
  563MOL0     C75911   8.234  10.679   0.939 -0.2572  1.0349  0.4134
  563MOL0     C75912   8.330  10.628   0.826  0.3066  0.8407  0.5914
  563MOL0     C75913   8.412  10.738   0.771 -0.4082 -0.2217 -0.9485
  563MOL0    Cl75914   8.325  10.856   0.674 -0.3039  0.0887  0.4629
  563MOL0     C75915   7.674  10.751   1.616  1.0011  0.3603  0.2649
  563MOL0     C75916   7.542  10.703   1.640  0.2857 -0.4318  0.3282
  563MOL0     O75917   7.326  10.574   1.773 -0.4143 -0.2522  0.1816
  563MOL0     C75918   7.051  10.507   1.550  0.2391 -0.6836  0.1028
  563MOL0     C75919   6.912  10.474   1.566  0.3400 -0.6019 -0.0517
  563MOL0     N75920   6.229  10.196   1.857 -0.3693  0.2109  0.1867
  563MOL0     N75921   6.110  10.161   1.891  1.1257 -1.0185 -1.1839
  563MOL0     C75922   5.305   9.861   1.084 -0.0675  0.0713  0.0608
  563MOL0     C75923   5.223   9.756   1.058 -0.7389 -0.1450 -0.2341
  563MOL0     C75924   4.879   9.489   0.997 -0.0451 -0.1008  1.3406
  563MOL0     C75925   4.803   9.482   1.111  0.2517 -0.0500 -0.4639
  563MOL0     C75926   4.695   9.390   1.114  0.1562 -0.6221 -0.3363
  563MOL0     C75927   4.676   9.287   1.014 -0.7278 -0.1425 -0.0522
  563MOL0     O75928   4.579   9.194   1.012  0.1914 -0.2333  0.0269
  563MOL0     C75929   4.456   9.233   1.066  0.0976 -0.1817 -0.0815
  563MOL0     C75930   4.351   9.129   1.016  0.6710  0.2326  0.0731
  563MOL0     C75931   4.215   9.153   1.088 -0.4749  0.8837  1.0758
  563MOL0     C75932   4.104   9.083   1.011 -0.2644 -0.6737  0.1064
  563MOL0     C75933   3.990   9.076   1.101 -0.9196 -0.1651 -0.0026
  563MOL0     C75934   3.899   9.078   1.182 -0.2100 -0.3733  0.2675
  563MOL0     C75935   4.758   9.299   0.904  0.4838  0.0054 -0.2259
  563MOL0     C75936   4.855   9.399   0.885  0.0272 -0.5325 -0.5308
  563MOL0     C75937   4.937   9.394   0.758  0.5235 -0.9102 -1.0063
  563MOL0     H75938   4.959   9.856   1.230  0.8004  0.2131  0.6893
  563MOL0     H75939   5.082  10.059   1.255 -1.9974 -0.5865 -1.2893
  563MOL0     H75940   5.422  10.241   1.263 -0.5204  0.4244 -1.3608
  563MOL0     H75941   5.248  10.223   1.246 -0.5473 -0.3597  0.9424
  563MOL0     H75942   5.234  10.095   1.444 -0.8542 -0.8041 -1.0410
  563MOL0     H75943   5.338  10.229   1.483 -2.0800 -0.4370  1.6501
  563MOL0     H75944   5.537  10.079   1.399  0.0911  0.4259 -0.1735
  563MOL0     H75945   5.431   9.941   1.434  2.5918 -1.7129  1.2369
  563MOL0     H75946   5.410  10.090   1.663  0.4606  1.0571 -0.7640
  563MOL0     H75947   5.491   9.935   1.647 -1.8349  0.5600  1.9418
  563MOL0     H75948   5.696  10.091   1.585  0.4103 -1.2893  0.6776
  563MOL0     H75949   5.593  10.225   1.623  1.2750  0.4017  1.7860
  563MOL0     H75950   5.582  10.175   1.863  2.3701  3.8327 -0.3035
  563MOL0     H75951   5.638  10.014   1.829 -1.6471  0.7678 -0.2425
  563MOL0     H75952   5.807  10.164   1.928 -1.1350 -5.6772  0.4090
  563MOL0     H75953   5.802  10.270   1.789  5.8446 -1.5710  0.4083
  563MOL0     H75954   5.915   9.983   1.814 -4.4366 -1.2751 -1.5362
  563MOL0     H75955   5.884  10.056   1.657  1.2235 -0.2244 -0.5877
  563MOL0     H75956   6.092  10.166   1.565  1.0657  2.9151 -0.6072
  563MOL0     H75957   6.368  10.110   1.577 -2.4292 -0.6504  0.8331
  563MOL0     H75958   6.346  10.283   1.552  2.3172  0.4962  0.6295
  563MOL0     H75959   6.495  10.164   1.787  0.5563  1.2332  1.6441
  563MOL0     H75960   6.582  10.212   1.643 -0.9801  1.3467 -0.8807
  563MOL0     H75961   6.427  10.392   1.832 -1.0687  0.5586  0.3458
  563MOL0     H75962   6.472  10.457   1.673  2.4971  1.9850  0.7758
  563MOL0     H75963   6.687  10.330   1.851 -0.6263 -0.6531 -1.4379
  563MOL0     H75964   6.643  10.505   1.855  2.1884  0.7779 -1.6777
  563MOL0     H75965   6.859  10.483   1.897 -0.3561 -0.2744  0.3529
  563MOL0     H75966   7.109  10.525   1.883  0.5401 -1.4321 -0.6926
  563MOL0     H75967   7.481  10.534   1.347  0.1429 -0.5524  1.5164
  563MOL0     H75968   7.712  10.621   1.297  1.0112  2.4214 -0.1267
  563MOL0     H75969   8.028  10.681   1.482  1.7504  0.5645 -1.6792
  563MOL0     H75970   7.922  10.612   1.358 -1.5101  0.8281 -1.1207
  563MOL0     H75971   7.985  10.826   1.206 -0.3994 -1.4197 -0.8436
  563MOL0     H75972   8.099  10.872   1.335 -0.6619  3.1409 -3.1854
  563MOL0     H75973   8.216  10.759   1.176  1.5220 -2.2121 -0.4400
  563MOL0     H75974   8.202  10.647   1.299  0.7247  2.6909  2.1264
  563MOL0     H75975   7.984  10.636   1.068 -0.0088  0.2682 -1.5686
  563MOL0     H75976   8.036  10.518   1.191  1.7520 -1.5061 -0.2229
  563MOL0     H75977   8.125  10.486   0.964  1.2925  0.0703 -1.1610
  563MOL0     H75978   8.264  10.506   1.070  0.3707  1.2146 -0.6347
  563MOL0     H75979   8.149  10.725   0.889 -1.7937 -3.1853 -1.3333
  563MOL0     H75980   8.294  10.747   1.000  0.2727  2.6298 -1.7779
  563MOL0     H75981   8.267  10.589   0.745 -1.5200 -0.1670  2.3977
  563MOL0     H75982   8.411  10.561   0.855  1.0467  0.5568 -1.8996
  563MOL0     H75983   8.459  10.790   0.855  2.1940 -0.3479 -2.2478
  563MOL0     H75984   8.503  10.702   0.724  1.5499  0.9395  1.7071
  563MOL0     H75985   7.725  10.802   1.697  1.4790 -1.8100  1.4053
  563MOL0     H75986   7.494  10.723   1.736 -1.8920 -2.5779 -0.2433
  563MOL0     H75987   7.091  10.507   1.449  1.3818 -0.6751  0.5298
  563MOL0     H75988   6.856  10.452   1.476 -0.7307 -0.8497  0.6576
  563MOL0     H75989   5.409   9.864   1.050 -0.8462  0.2432 -2.5493
  563MOL0     H75990   5.251   9.667   1.002 -0.3088 -0.1986  0.0685
  563MOL0     H75991   4.804   9.561   1.185 -0.8302 -0.8375  0.4264
  563MOL0     H75992   4.621   9.405   1.192 -2.0785 -3.6863 -1.6536
  563MOL0     H75993   4.425   9.333   1.033  2.7557  1.2386  1.4623
  563MOL0     H75994   4.459   9.229   1.175  0.8115 -0.8224 -0.1138
  563MOL0     H75995   4.386   9.028   1.040 -1.7791 -1.0577 -1.3732
  563MOL0     H75996   4.338   9.139   0.908 -2.8922  1.4274  0.4732
  563MOL0     H75997   4.193   9.260   1.096 -2.0567  0.6129  0.6784
  563MOL0     H75998   4.221   9.119   1.192  0.0763 -0.8430  0.5083
  563MOL0     H75999   4.074   9.139   0.922 -0.3683 -3.1757 -1.5706
  563MOL0     H76000   4.122   8.991   0.954 -0.7744  0.3846 -1.8321
  563MOL0     H76001   3.816   9.073   1.249 -0.8580  2.8370 -0.1420
  563MOL0     H76002   4.737   9.241   0.815 -1.3498  0.9801 -0.4726
  563MOL0     H76003   4.894   9.326   0.684 -0.7711  0.1121 -1.2283
  563MOL0     H76004   4.927   9.492   0.711  1.8282 -0.1467  0.2451
  563MOL0     H76005   5.042   9.365   0.768  0.9887 -0.2980 -3.4383
  564MOL0     O76006   7.074   8.603   2.937  0.5742 -0.6765  0.0874
  564MOL0     C76007   7.016   8.582   2.832  0.4769  0.9057  0.4531
  564MOL0     O76008   7.077   8.547   2.715 -0.1734  0.1821  0.0250
  564MOL0     C76009   7.213   8.569   2.715 -0.7554  0.6028  1.4451
  564MOL0     C76010   7.277   8.689   2.679 -0.5986 -0.0769  0.9851
  564MOL0     C76011   7.420   8.702   2.685 -0.4011 -0.3834  0.8969
  564MOL0     C76012   7.500   8.591   2.706  0.1645 -0.3081  0.4848
  564MOL0     O76013   7.636   8.599   2.694  0.2909  0.5249 -0.2290
  564MOL0     C76014   7.712   8.680   2.613  0.0996 -0.0186  0.3766
  564MOL0     C76015   7.854   8.653   2.607 -0.1315 -0.4791 -0.1884
  564MOL0     C76016   7.935   8.679   2.738  0.2936 -0.3146  0.4979
  564MOL0     C76017   8.081   8.659   2.717 -0.3996 -0.0935  0.2549
  564MOL0     C76018   8.156   8.694   2.845 -1.0753 -0.4093 -0.0363
  564MOL0     C76019   8.309   8.738   2.823  0.0341 -0.2466 -0.1856
  564MOL0     C76020   8.352   8.815   2.954 -0.2163 -0.5269 -0.5681
  564MOL0     C76021   8.490   8.851   2.958 -0.8085 -0.1213 -0.1867
  564MOL0     N76022   8.552   8.907   3.080 -0.5409 -0.1723 -0.5081
  564MOL0     C76023   8.497   8.997   3.165  0.0817 -0.2536  0.7828
  564MOL0     C76024   8.594   9.040   3.239 -0.1557  0.2487 -0.0778
  564MOL0     C76025   8.587   9.142   3.346  0.2608  0.7101 -0.0249
  564MOL0     C76026   8.718   9.222   3.348 -0.4999  0.1611 -0.3513
  564MOL0     C76027   8.715   9.333   3.452  0.2199  0.1006 -0.1047
  564MOL0     C76028   8.843   9.408   3.493  0.2032 -0.1557 -0.2518
  564MOL0     O76029   8.919   9.326   3.581 -0.0329 -0.1228  0.8892
  564MOL0     C76030   9.056   9.345   3.586 -0.1358 -0.3956  0.0342
  564MOL0     C76031   9.117   9.468   3.576  0.0215 -0.1902  0.7614
  564MOL0     C76032   9.259   9.472   3.585  0.3802  0.0430 -0.3482
  564MOL0     C76033   9.335   9.354   3.611  0.2364  0.2523 -0.1212
  564MOL0     C76034   9.483   9.351   3.614  0.2445 -0.7902 -0.3480
  564MOL0     O76035   9.552   9.464   3.563  1.1202  0.2529  0.2254
  564MOL0     C76036   9.691   9.479   3.578  0.3845  0.3983 -0.1706
  564MOL0     C76037   9.757   9.531   3.465 -0.3583  0.3550  0.1128
  564MOL0     C76038   9.894   9.516   3.452  0.5569 -0.5576 -0.4512
  564MOL0     C76039   9.966   9.464   3.564 -0.2722  0.8003 -0.4359
  564MOL0     O76040  10.103   9.461   3.558 -0.7342  0.1315 -0.2105
  564MOL0     C76041  10.176   9.348   3.619  0.3757 -0.0906 -0.7902
  564MOL0     C76042  10.308   9.334   3.540  0.1952  0.3492 -0.9931
  564MOL0     C76043  10.280   9.336   3.389 -0.3888  0.4988 -0.7268
  564MOL0     C76044  10.193   9.217   3.347  0.3083  0.1328  0.4375
  564MOL0     C76045  10.095   9.248   3.228 -0.4753 -0.9129  0.2609
  564MOL0     C76046  10.159   9.272   3.094  0.2103 -0.8127 -0.0580
  564MOL0     C76047  10.060   9.302   2.981  0.3413 -0.6850  1.3506
  564MOL0     C76048  10.130   9.384   2.867  0.4729  0.8815 -0.7510
  564MOL0    Cl76049  10.206   9.276   2.749 -0.2899 -0.0360 -0.3951
  564MOL0     C76050   9.892   9.430   3.684 -0.6282 -0.2575 -0.3589
  564MOL0     C76051   9.758   9.425   3.687  0.3147 -0.1678 -0.0702
  564MOL0     O76052   9.534   9.256   3.673  0.4110  0.6294  0.1705
  564MOL0     C76053   9.259   9.235   3.632 -0.4604 -0.7570  0.4872
  564MOL0     C76054   9.121   9.233   3.618  0.0785 -0.4470 -0.3909
  564MOL0     N76055   8.704   8.963   3.212 -0.7320 -0.4843 -0.5739
  564MOL0     N76056   8.681   8.892   3.107 -0.9079 -0.5292  0.3640
  564MOL0     C76057   7.434   8.472   2.731  0.5212  0.0865  0.0367
  564MOL0     C76058   7.294   8.454   2.740  0.5958  0.2373  0.2774
  564MOL0     C76059   6.865   8.583   2.821 -0.1949 -0.3011 -1.0296
  564MOL0     C76060   6.802   8.589   2.692 -0.1000  0.1297 -0.1871
  564MOL0     C76061   6.666   8.590   2.677 -0.6968 -0.1432 -0.5104
  564MOL0     C76062   6.581   8.593   2.788 -0.3998  0.4005 -0.1840
  564MOL0     O76063   6.442   8.610   2.773  0.2059  0.0138 -0.0347
  564MOL0     C76064   6.411   8.722   2.686 -0.4165 -0.2454  0.3727
  564MOL0     C76065   6.283   8.684   2.624  0.8164  0.0023  0.1709
  564MOL0     C76066   6.157   8.687   2.720 -0.3754 -0.0941 -0.2532
  564MOL0     C76067   6.027   8.669   2.641 -1.0350  0.4037 -0.8636
  564MOL0     C76068   5.917   8.743   2.711  0.4110  0.0140 -0.6049
  564MOL0     C76069   5.818   8.787   2.774  0.4248  0.1769 -0.2954
  564MOL0     C76070   6.635   8.575   2.914 -0.1511 -0.0337  1.0507
  564MOL0     C76071   6.778   8.572   2.937 -0.3299 -0.3315  0.2904
  564MOL0     C76072   6.825   8.520   3.072 -0.1338  0.4839  0.5561
  564MOL0     H76073   7.213   8.769   2.643 -1.9204 -0.9310  1.3471
  564MOL0     H76074   7.466   8.798   2.670  0.2069 -1.1874 -4.0833
  564MOL0     H76075   7.672   8.673   2.511  0.5057  1.9571  0.0327
  564MOL0     H76076   7.708   8.784   2.648  1.7154 -0.2836  1.4380
  564MOL0     H76077   7.888   8.711   2.520 -3.3691  0.4062 -1.0171
  564MOL0     H76078   7.875   8.546   2.599 -1.4426 -0.7740  0.0542
  564MOL0     H76079   7.897   8.626   2.826  1.4618  1.2465  1.9874
  564MOL0     H76080   7.923   8.784   2.766 -1.7994 -0.8708  1.9353
  564MOL0     H76081   8.108   8.559   2.683 -1.9895 -0.7089  0.7171
  564MOL0     H76082   8.111   8.735   2.644 -0.1927  0.6605  1.1025
  564MOL0     H76083   8.093   8.769   2.896 -2.2864 -1.3111 -0.1585
  564MOL0     H76084   8.161   8.609   2.913  0.5608 -0.0235  0.3739
  564MOL0     H76085   8.380   8.656   2.811  2.1806  1.3747  0.8048
  564MOL0     H76086   8.325   8.800   2.734  4.0057  2.6627  2.1941
  564MOL0     H76087   8.336   8.743   3.035  3.6319 -4.1205 -2.6325
  564MOL0     H76088   8.296   8.908   2.969  0.4311 -0.4098  1.3944
  564MOL0     H76089   8.551   8.763   2.937  0.4289  1.1670 -2.3328
  564MOL0     H76090   8.505   8.916   2.871 -0.1143  0.7278  0.5511
  564MOL0     H76091   8.397   9.039   3.175 -0.3220 -1.5157  2.4267
  564MOL0     H76092   8.500   9.205   3.322  0.5931  0.4350 -2.2030
  564MOL0     H76093   8.574   9.092   3.442 -1.8879  2.3663  0.6200
  564MOL0     H76094   8.793   9.144   3.363 -2.2046 -1.6430 -0.8890
  564MOL0     H76095   8.732   9.262   3.247  0.1760 -0.6954 -0.6046
  564MOL0     H76096   8.668   9.302   3.546  0.4787 -1.5869 -0.5018
  564MOL0     H76097   8.653   9.414   3.411  0.5761  0.4415  0.0259
  564MOL0     H76098   8.799   9.492   3.548 -0.7504 -0.7267 -0.1109
  564MOL0     H76099   8.899   9.447   3.408 -0.9393  0.5056 -0.7156
  564MOL0     H76100   9.051   9.553   3.564 -2.2743 -1.6896  1.9979
  564MOL0     H76101   9.312   9.567   3.579 -0.2465  0.4955  0.8048
  564MOL0     H76102   9.705   9.565   3.376  1.0975 -0.1645 -0.9652
  564MOL0     H76103   9.946   9.553   3.364 -0.0604  1.2724 -0.0845
  564MOL0     H76104  10.206   9.366   3.723  3.3610 -1.2720 -1.3585
  564MOL0     H76105  10.109   9.261   3.618 -0.9747  0.9239 -1.9916
  564MOL0     H76106  10.388   9.400   3.575 -0.5547  2.1850 -2.5878
  564MOL0     H76107  10.352   9.234   3.551 -0.3036 -0.0411 -2.3698
  564MOL0     H76108  10.231   9.427   3.352 -2.4833  0.3168  1.3327
  564MOL0     H76109  10.379   9.323   3.345 -0.3609 -0.0068 -0.5194
  564MOL0     H76110  10.140   9.169   3.431 -0.2530  0.2177  0.1340
  564MOL0     H76111  10.258   9.135   3.315  0.1335 -0.0838  0.6310
  564MOL0     H76112  10.036   9.338   3.247 -0.0065 -0.3681 -0.7767
  564MOL0     H76113  10.027   9.166   3.206 -0.4432 -0.6142 -1.0595
  564MOL0     H76114  10.228   9.356   3.113 -0.5200 -0.5059  1.4127
  564MOL0     H76115  10.237   9.200   3.069  3.5878  1.8724  1.8787
  564MOL0     H76116   9.969   9.355   3.010  0.3552 -0.2411  0.6043
  564MOL0     H76117  10.027   9.204   2.943 -1.1617 -0.0644  0.9922
  564MOL0     H76118  10.059   9.445   2.810 -0.2781 -0.0524 -0.8213
  564MOL0     H76119  10.206   9.450   2.912 -0.4522  2.7702 -1.8125
  564MOL0     H76120   9.943   9.409   3.777 -3.2153  1.0976  1.5073
  564MOL0     H76121   9.693   9.406   3.772 -1.4909  0.3761 -1.2637
  564MOL0     H76122   9.314   9.143   3.647 -0.1931 -1.0584 -1.8556
  564MOL0     H76123   9.065   9.140   3.628  0.5582 -0.6805  0.1710
  564MOL0     H76124   7.492   8.387   2.766  0.1954  0.2732  1.0571
  564MOL0     H76125   7.246   8.361   2.767  0.7252  0.9287  3.2961
  564MOL0     H76126   6.860   8.601   2.601 -0.6772 -0.8849 -0.7055
  564MOL0     H76127   6.625   8.595   2.577 -0.1082 -0.9388 -0.8047
  564MOL0     H76128   6.488   8.737   2.610 -0.4849 -1.3095  0.0770
  564MOL0     H76129   6.411   8.816   2.741 -0.4446  0.2664 -0.4855
  564MOL0     H76130   6.290   8.585   2.579  2.8344 -1.9036  4.2227
  564MOL0     H76131   6.265   8.746   2.535 -0.3978  0.4220  0.7004
  564MOL0     H76132   6.151   8.786   2.767  0.6149  1.1774 -2.6252
  564MOL0     H76133   6.166   8.609   2.797  2.4673 -3.4433 -3.6237
  564MOL0     H76134   6.043   8.689   2.534  1.5491  3.5469 -0.0565
  564MOL0     H76135   6.001   8.563   2.651  1.0611 -0.0264  1.0453
  564MOL0     H76136   5.740   8.813   2.841  1.2882  1.5185  0.2291
  564MOL0     H76137   6.559   8.552   2.988 -1.1783 -2.8310 -0.7381
  564MOL0     H76138   6.847   8.600   3.143 -1.1528  1.0538  0.2604
  564MOL0     H76139   6.745   8.463   3.120 -1.9856  0.8448 -1.8405
  564MOL0     H76140   6.904   8.446   3.056  0.3936  0.3550  3.3370
  565MOL0     O76141   8.341   9.807  10.896  0.2392 -0.9690 -0.0605
  565MOL0     C76142   8.283   9.826  11.000  0.8813  0.3805 -0.3940
  565MOL0     O76143   8.306   9.927  11.081  0.3117 -0.1122 -1.0299
  565MOL0     C76144   8.426   9.993  11.077 -0.4201  0.0947  0.3435
  565MOL0     C76145   8.544   9.929  11.061 -0.0031  0.0772  0.0967
  565MOL0     C76146   8.667   9.994  11.092 -0.6458 -0.0940  0.7300
  565MOL0     C76147   8.671  10.133  11.116  0.1865  0.0822 -0.1758
  565MOL0     O76148   8.779  10.220  11.125 -0.6102  0.2068 -0.1695
  565MOL0     C76149   8.914  10.168  11.141 -0.2420 -0.0951  0.0138
  565MOL0     C76150   9.001  10.280  11.179  0.5067 -0.5125  0.4997
  565MOL0     C76151   9.148  10.235  11.192 -0.6531  0.2630 -0.0418
  565MOL0     C76152   9.244  10.347  11.246 -0.4907 -0.7623 -1.7602
  565MOL0     C76153   9.285  10.452  11.138  1.1246 -0.1699  0.0169
  565MOL0     C76154   9.404  10.392  11.059 -0.0893 -0.1575 -0.4015
  565MOL0     C76155   9.477  10.501  10.965  0.1528 -0.4379  0.2419
  565MOL0     C76156   9.598  10.440  10.894  0.4939 -0.2295  0.4146
  565MOL0     N76157   9.724  10.448  10.972 -0.4882 -0.2168  0.3013
  565MOL0     C76158   9.810  10.558  10.958  0.0919  0.6822 -0.6608
  565MOL0     C76159   9.902  10.531  11.057 -0.5331  0.7468 -0.5221
  565MOL0     C76160  10.021  10.616  11.094  0.2062 -0.8082 -0.2239
  565MOL0     C76161  10.142  10.560  11.054  0.1756 -0.6916  0.7012
  565MOL0     C76162  10.261  10.628  11.116 -0.3722 -0.1688  1.0535
  565MOL0     C76163  10.387  10.602  11.030  0.2549  0.3954 -0.4790
  565MOL0     O76164  10.501  10.687  11.069  0.6790 -0.0375 -1.0200
  565MOL0     C76165  10.628  10.685  11.016 -0.0769  0.2135 -0.3019
  565MOL0     C76166  10.663  10.588  10.914  0.4203 -0.4040  0.6851
  565MOL0     C76167  10.802  10.588  10.873 -0.1302 -0.0542  0.3383
  565MOL0     C76168  10.897  10.661  10.937 -0.3607 -1.8192  0.6150
  565MOL0     C76169  11.040  10.661  10.888  0.4254 -0.5089  0.2734
  565MOL0     O76170  11.070  10.565  10.796 -0.3700  0.0481 -0.4169
  565MOL0     C76171  11.187  10.548  10.727 -0.3750 -0.4196  0.5444
  565MOL0     C76172  11.305  10.548  10.800 -0.9240 -0.1770 -0.8360
  565MOL0     C76173  11.429  10.526  10.731 -0.3961  0.1444 -0.4535
  565MOL0     C76174  11.422  10.488  10.596  1.1991  0.0009 -0.8163
  565MOL0     O76175  11.532  10.458  10.523  0.0855  0.3469  0.3045
  565MOL0     C76176  11.656  10.523  10.557 -0.5332  0.1657 -0.5793
  565MOL0     C76177  11.756  10.508  10.443 -0.2256  0.1831 -0.4147
  565MOL0     C76178  11.902  10.504  10.493  0.4270  0.5699 -0.3631
  565MOL0     C76179  12.003  10.499  10.386 -0.6300 -0.3543  0.5095
  565MOL0     C76180  12.145  10.498  10.423  0.4834 -0.0990 -1.2827
  565MOL0     C76181  12.235  10.472  10.296  0.2478  0.7393  0.0173
  565MOL0     C76182  12.381  10.513  10.321 -0.0349 -1.3039 -0.2902
  565MOL0     C76183  12.474  10.475  10.207 -0.0252 -1.1263 -0.1573
  565MOL0    Cl76184  12.633  10.527  10.256  0.1665 -0.3949 -0.0782
  565MOL0     C76185  11.301  10.482  10.532 -0.3660  0.8575 -0.8818
  565MOL0     C76186  11.182  10.508  10.594 -0.3950  0.2195  0.1618
  565MOL0     O76187  11.119  10.750  10.918  0.2400  0.6623  0.4026
  565MOL0     C76188  10.854  10.765  11.021 -0.2274 -0.8095 -0.6908
  565MOL0     C76189  10.726  10.772  11.068  0.7145 -1.1372  0.2823
  565MOL0     N76190   9.870  10.412  11.123  0.3283 -0.2102 -0.1063
  565MOL0     N76191   9.765  10.362  11.070 -0.3283 -0.0735  0.2594
  565MOL0     C76192   8.551  10.199  11.124  0.1859  0.7170 -0.1594
  565MOL0     C76193   8.433  10.129  11.100  0.1686 -0.7708 -0.1253
  565MOL0     C76194   8.162   9.738  11.018 -0.6438 -0.1349  0.2618
  565MOL0     C76195   8.075   9.712  10.911  0.3692  0.0233  0.4634
  565MOL0     C76196   7.951   9.650  10.934  0.0897 -0.6231  0.2939
  565MOL0     C76197   7.913   9.619  11.065  0.2531  0.1020 -0.4302
  565MOL0     O76198   7.792   9.549  11.098 -0.2505 -0.2460 -0.2939
  565MOL0     C76199   7.705   9.520  10.986  0.0121  0.6479 -0.4914
  565MOL0     C76200   7.564   9.452  11.023 -0.8286 -0.6375 -0.0005
  565MOL0     C76201   7.488   9.530  11.130  0.1129  0.8582 -0.6898
  565MOL0     C76202   7.345   9.487  11.155  0.2426 -0.1897  0.0133
  565MOL0     C76203   7.251   9.523  11.046  0.1773 -0.0724  0.4294
  565MOL0     C76204   7.176   9.549  10.953  0.4052 -0.8074  0.0331
  565MOL0     C76205   8.000   9.643  11.171 -0.5119 -0.6457 -0.3120
  565MOL0     C76206   8.118   9.709  11.149 -0.2524  0.3527 -0.2356
  565MOL0     C76207   8.221   9.711  11.259 -0.4467  0.5291 -0.1192
  565MOL0     H76208   8.547   9.822  11.039  1.7085  0.0890  0.0642
  565MOL0     H76209   8.758   9.936  11.086 -1.8774 -1.9455 -2.1482
  565MOL0     H76210   8.911  10.087  11.215  0.0079  1.2327  1.5307
  565MOL0     H76211   8.949  10.134  11.043 -1.2383 -3.2696  0.6392
  565MOL0     H76212   8.958  10.311  11.275 -2.3975  1.0699 -1.1863
  565MOL0     H76213   8.997  10.357  11.101 -0.0713  1.7834  2.6374
  565MOL0     H76214   9.187  10.200  11.096  2.0312 -0.4191  1.1995
  565MOL0     H76215   9.154  10.142  11.250  0.9158  0.0009 -0.5785
  565MOL0     H76216   9.186  10.404  11.319 -0.2299 -0.5465 -1.7202
  565MOL0     H76217   9.333  10.306  11.296 -1.8148 -0.0310  1.4560
  565MOL0     H76218   9.202  10.480  11.074  1.1130 -1.3206 -0.5045
  565MOL0     H76219   9.313  10.546  11.188  1.5250  0.2390 -0.9533
  565MOL0     H76220   9.480  10.368  11.133  1.1597  0.4637 -1.4482
  565MOL0     H76221   9.372  10.301  11.009 -1.0222  0.5072 -1.0508
  565MOL0     H76222   9.509  10.570  11.044 -1.8445  0.0008  0.7320
  565MOL0     H76223   9.408  10.550  10.896 -1.8715 -1.1884  1.6252
  565MOL0     H76224   9.568  10.338  10.869 -0.4012  0.1730 -0.1879
  565MOL0     H76225   9.610  10.488  10.797  0.1866 -1.3350 -0.1855
  565MOL0     H76226   9.793  10.640  10.889 -1.1817  1.3655  0.4190
  565MOL0     H76227  10.013  10.717  11.053  3.4780  0.0401  0.9772
  565MOL0     H76228  10.013  10.623  11.203 -2.6381  2.3680 -0.4616
  565MOL0     H76229  10.146  10.455  11.085  1.2215 -1.3357 -1.3530
  565MOL0     H76230  10.143  10.562  10.944  1.3333 -1.4030  0.6789
  565MOL0     H76231  10.287  10.599  11.218  1.1954  0.5067  0.8754
  565MOL0     H76232  10.251  10.737  11.116  0.7455 -0.0582  1.1673
  565MOL0     H76233  10.366  10.621  10.924 -1.2545 -2.7188 -0.8331
  565MOL0     H76234  10.406  10.495  11.033 -1.9929 -0.0304  1.0254
  565MOL0     H76235  10.584  10.529  10.868  0.7197 -0.3006  0.0245
  565MOL0     H76236  10.822  10.518  10.794 -1.4698  1.2966 -1.2802
  565MOL0     H76237  11.315  10.582  10.902  3.6470  2.3970 -1.8415
  565MOL0     H76238  11.524  10.524  10.784 -0.3977  0.2541 -0.4451
  565MOL0     H76239  11.634  10.627  10.580  0.6935  0.2730  0.2070
  565MOL0     H76240  11.694  10.468  10.644 -0.0858  1.6636  0.1960
  565MOL0     H76241  11.729  10.419  10.386 -1.4023 -0.3006  0.8458
  565MOL0     H76242  11.745  10.591  10.373  1.5659  1.6992  0.9837
  565MOL0     H76243  11.918  10.593  10.555 -0.1234 -0.2037  0.9319
  565MOL0     H76244  11.907  10.408  10.546 -1.6964 -0.3534 -1.7105
  565MOL0     H76245  11.986  10.581  10.315 -3.5106 -0.1222  1.3584
  565MOL0     H76246  11.990  10.415  10.318  1.3514 -0.0006 -0.3826
  565MOL0     H76247  12.158  10.419  10.498  0.4104  0.7854 -0.3169
  565MOL0     H76248  12.166  10.594  10.471 -1.7245 -0.8547  1.5147
  565MOL0     H76249  12.222  10.368  10.264 -1.7635  1.0773 -0.4587
  565MOL0     H76250  12.187  10.533  10.219 -1.3931  1.2047  1.3363
  565MOL0     H76251  12.424  10.472  10.412  0.9377  0.5683  0.1510
  565MOL0     H76252  12.394  10.622  10.319 -2.0890 -1.0261 -0.5339
  565MOL0     H76253  12.456  10.370  10.181  0.8225 -0.8513 -2.0155
  565MOL0     H76254  12.451  10.527  10.113 -2.5378  0.5351  1.2692
  565MOL0     H76255  11.303  10.451  10.428  2.0913  0.5635 -0.7991
  565MOL0     H76256  11.082  10.498  10.551 -0.5965 -3.0010  1.1641
  565MOL0     H76257  10.919  10.849  11.046  1.7338 -2.4753  0.1383
  565MOL0     H76258  10.695  10.851  11.134  0.1952 -0.1168 -1.1360
  565MOL0     H76259   8.550  10.301  11.161  4.5996  1.4937 -1.5928
  565MOL0     H76260   8.346  10.189  11.124  1.2951  1.3056 -0.9038
  565MOL0     H76261   8.095   9.759  10.815  0.4397 -0.9495 -0.0087
  565MOL0     H76262   7.886   9.626  10.850  1.2248  0.3088 -0.8842
  565MOL0     H76263   7.757   9.462  10.909  2.1124 -0.0524  1.3394
  565MOL0     H76264   7.681   9.620  10.949  2.3384  1.5202  0.1618
  565MOL0     H76265   7.566   9.346  11.051  1.4787  0.0873  3.0939
  565MOL0     H76266   7.502   9.465  10.934  1.0039 -0.0855 -1.2624
  565MOL0     H76267   7.500   9.637  11.112  0.9227  0.7300 -0.9813
  565MOL0     H76268   7.529   9.508  11.229 -3.2336  0.7799  0.7837
  565MOL0     H76269   7.338   9.379  11.170  4.3400 -0.9363 -1.9212
  565MOL0     H76270   7.304   9.544  11.240 -2.9937 -0.9436 -0.9109
  565MOL0     H76271   7.100   9.576  10.883  1.7795  0.7378 -0.9130
  565MOL0     H76272   7.983   9.596  11.268  2.4727 -3.0298 -0.7909
  565MOL0     H76273   8.219   9.614  11.310 -0.8050 -0.3110 -1.6876
  565MOL0     H76274   8.326   9.711  11.230 -1.0067 -0.9331 -2.3931
  565MOL0     H76275   8.188   9.799  11.316 -3.7107  0.1244 -1.1814
  566MOL0     O76276   9.767   9.769   7.760  0.3904 -0.5139 -0.0205
  566MOL0     C76277   9.718   9.803   7.864 -0.0712  0.1359 -0.4677
  566MOL0     O76278   9.783   9.890   7.955 -0.1084 -0.1042 -0.0722
  566MOL0     C76279   9.905   9.955   7.918 -0.0767  0.2627 -0.1456
  566MOL0     C76280  10.032   9.894   7.920 -0.8641 -0.5236 -0.7044
  566MOL0     C76281  10.141   9.965   7.887 -0.7459 -0.1754 -0.4016
  566MOL0     C76282  10.134  10.106   7.865  0.4123 -0.0715  0.0544
  566MOL0     O76283  10.236  10.188   7.854  0.8491 -0.3826  0.2628
  566MOL0     C76284  10.368  10.133   7.861 -0.5353 -0.9206 -0.3230
  566MOL0     C76285  10.447  10.262   7.878 -1.0827 -0.1689 -1.0865
  566MOL0     C76286  10.598  10.225   7.896  0.7138  0.5277 -0.1741
  566MOL0     C76287  10.677  10.349   7.952 -0.0613  0.0533  0.7185
  566MOL0     C76288  10.833  10.330   7.934  0.0807  0.8342 -1.4898
  566MOL0     C76289  10.887  10.214   8.017  0.1626  0.4307  0.4928
  566MOL0     C76290  11.037  10.214   7.996  0.1385 -0.4639 -0.1709
  566MOL0     C76291  11.106  10.124   8.103 -1.1139 -0.2671 -0.0965
  566MOL0     N76292  11.254  10.128   8.097 -0.2949 -1.0968 -0.0658
  566MOL0     C76293  11.345  10.123   8.205  0.5904  0.6141 -0.9237
  566MOL0     C76294  11.462  10.094   8.153  0.1691  0.0029  0.4153
  566MOL0     C76295  11.599  10.089   8.227  0.3013  0.4700  0.5472
  566MOL0     C76296  11.717  10.087   8.125  1.1530  0.0391 -0.1714
  566MOL0     C76297  11.849  10.084   8.207  0.2942  0.5494 -0.2781
  566MOL0     C76298  11.965  10.100   8.107 -0.8167  0.7456 -0.2284
  566MOL0     O76299  12.077  10.108   8.200  0.1350  0.0333 -0.5818
  566MOL0     C76300  12.204  10.135   8.156 -0.5100 -0.5588 -1.0069
  566MOL0     C76301  12.241  10.153   8.026  0.2959  0.9546 -0.5508
  566MOL0     C76302  12.369  10.199   7.999  0.7453  0.1157 -0.0642
  566MOL0     C76303  12.467  10.212   8.096  0.6070 -0.3150 -0.7328
  566MOL0     C76304  12.604  10.235   8.068 -1.0805 -0.3033 -0.4171
  566MOL0     O76305  12.635  10.240   7.934 -0.2753  1.3742  0.6126
  566MOL0     C76306  12.765  10.263   7.888 -0.0004 -0.5062  0.1977
  566MOL0     C76307  12.866  10.337   7.960  0.1931 -0.2739  0.5199
  566MOL0     C76308  12.988  10.342   7.911 -0.2718  0.1656  0.2099
  566MOL0     C76309  13.031  10.279   7.790  0.2033  0.7668 -0.4695
  566MOL0     O76310  13.157  10.278   7.741  0.4980  0.7537 -0.1228
  566MOL0     C76311  13.243  10.389   7.787 -0.5028  0.9354 -0.4628
  566MOL0     C76312  13.373  10.374   7.708  0.0464  0.5479  0.0982
  566MOL0     C76313  13.460  10.258   7.755  0.1923 -0.6976  0.4293
  566MOL0     C76314  13.612  10.287   7.734  0.9350 -0.0718 -0.0330
  566MOL0     C76315  13.689  10.166   7.771  0.5301  1.1175 -0.6699
  566MOL0     C76316  13.834  10.191   7.762 -0.2832  0.0402  0.4943
  566MOL0     C76317  13.887  10.203   7.621  0.4919 -0.2797  0.1136
  566MOL0     C76318  14.038  10.215   7.626 -0.5953 -0.1502  0.1486
  566MOL0    Cl76319  14.094  10.336   7.502 -0.1631  0.3428  0.3505
  566MOL0     C76320  12.935  10.200   7.722  0.4258 -0.0602 -0.8978
  566MOL0     C76321  12.802  10.188   7.774 -0.0212  0.1143  0.6983
  566MOL0     O76322  12.686  10.251   8.154 -0.5770  0.9350  0.8667
  566MOL0     C76323  12.428  10.184   8.230 -0.0416 -0.9129 -0.3772
  566MOL0     C76324  12.298  10.154   8.262  0.0224 -0.0522 -0.6922
  566MOL0     N76325  11.452  10.067   8.020  0.0448  0.2394  0.0330
  566MOL0     N76326  11.324  10.080   7.986 -0.5206  0.1365 -0.5007
  566MOL0     C76327  10.009  10.169   7.852  0.5048  0.0073 -0.4339
  566MOL0     C76328   9.893  10.091   7.875  0.2967 -0.3363  0.2125
  566MOL0     C76329   9.581   9.749   7.897  0.0641  0.6338  1.1136
  566MOL0     C76330   9.504   9.799   8.004 -0.8884  0.4913 -0.6725
  566MOL0     C76331   9.380   9.749   8.047 -0.2300 -0.1563 -0.1945
  566MOL0     C76332   9.321   9.649   7.979  0.2013  0.0127 -0.2852
  566MOL0     O76333   9.198   9.590   8.012  0.3817 -0.0468 -0.4900
  566MOL0     C76334   9.089   9.675   8.060 -0.6212 -0.5049 -0.0803
  566MOL0     C76335   9.048   9.778   7.947  0.8207 -0.6213 -0.2524
  566MOL0     C76336   8.902   9.833   7.979 -0.2079  0.0330  0.7028
  566MOL0     C76337   8.847   9.954   7.896 -0.0466  0.2520  0.1773
  566MOL0     C76338   8.942  10.065   7.911  0.0093 -0.0496  0.6733
  566MOL0     C76339   9.038  10.128   7.931 -0.2830 -1.4521 -0.8258
  566MOL0     C76340   9.393   9.592   7.873  0.4200 -0.4351 -0.1257
  566MOL0     C76341   9.519   9.642   7.828 -0.3713  0.8930  0.6024
  566MOL0     C76342   9.578   9.566   7.703  0.4973 -0.8489 -0.6014
  566MOL0     H76343  10.050   9.787   7.932 -2.4427 -0.9731 -2.0730
  566MOL0     H76344  10.241   9.922   7.887 -1.4573 -1.9632 -2.1755
  566MOL0     H76345  10.385  10.067   7.946  0.7297 -0.4575 -0.1942
  566MOL0     H76346  10.388  10.084   7.766 -1.3843  1.0589 -1.6105
  566MOL0     H76347  10.406  10.312   7.966  0.6335  0.3214 -0.5230
  566MOL0     H76348  10.428  10.329   7.794 -1.9424  0.7232 -0.2115
  566MOL0     H76349  10.647  10.203   7.801 -1.9635  1.7647 -1.9623
  566MOL0     H76350  10.604  10.150   7.975  0.7401  0.9469  0.2266
  566MOL0     H76351  10.642  10.436   7.896  1.7271  0.6441  0.4705
  566MOL0     H76352  10.637  10.360   8.054 -1.7594  1.3255 -0.0385
  566MOL0     H76353  10.870  10.323   7.832  3.4865  0.7850 -0.3609
  566MOL0     H76354  10.885  10.416   7.976  0.9219 -0.5134  0.3584
  566MOL0     H76355  10.861  10.223   8.123  2.8704  0.3907  1.2401
  566MOL0     H76356  10.850  10.115   7.988  0.6127  0.1666  0.8086
  566MOL0     H76357  11.085  10.312   7.996  0.4137 -0.5798 -1.7449
  566MOL0     H76358  11.049  10.175   7.895  0.1382  3.2151 -1.7625
  566MOL0     H76359  11.084  10.174   8.198  3.5798  2.9734 -0.3783
  566MOL0     H76360  11.060  10.025   8.104  1.7022 -1.7360  2.5588
  566MOL0     H76361  11.325  10.149   8.309  1.1436 -3.8326  0.5055
  566MOL0     H76362  11.609  10.176   8.293 -1.3778 -0.9973  2.8816
  566MOL0     H76363  11.601  10.001   8.293 -0.9863 -2.1792 -2.6590
  566MOL0     H76364  11.721  10.003   8.055  3.5618 -1.6745  1.8117
  566MOL0     H76365  11.716  10.183   8.072  1.1715 -0.8435 -1.8270
  566MOL0     H76366  11.863   9.984   8.249  2.1334  0.5225 -0.8762
  566MOL0     H76367  11.852  10.171   8.274 -2.3539  0.5744 -0.0951
  566MOL0     H76368  11.956  10.192   8.047  2.3956  1.2361 -0.1448
  566MOL0     H76369  11.968  10.013   8.041  1.9989  1.4824 -1.2357
  566MOL0     H76370  12.174  10.131   7.944 -4.5531  1.2093  2.9065
  566MOL0     H76371  12.405  10.205   7.897 -0.4055 -0.5906 -0.5365
  566MOL0     H76372  12.843  10.404   8.042 -0.7380 -1.1224  0.9754
  566MOL0     H76373  13.057  10.396   7.975  0.9901  1.3093 -1.9915
  566MOL0     H76374  13.204  10.489   7.765 -1.2391  0.7420 -0.0926
  566MOL0     H76375  13.266  10.378   7.894  1.3697 -0.5747 -0.9608
  566MOL0     H76376  13.338  10.362   7.605 -1.3494 -0.5316  0.6738
  566MOL0     H76377  13.432  10.466   7.704 -1.8421  1.8763  1.2737
  566MOL0     H76378  13.445  10.260   7.864 -1.6642  2.0200  0.2295
  566MOL0     H76379  13.419  10.164   7.719  2.0976 -1.3463 -0.1850
  566MOL0     H76380  13.652  10.381   7.772 -1.5191  0.7771  0.6420
  566MOL0     H76381  13.631  10.304   7.627 -1.2888  1.5551 -0.2225
  566MOL0     H76382  13.658  10.079   7.712  1.1930 -1.2551  2.2762
  566MOL0     H76383  13.675  10.145   7.877  1.9271  1.7224 -0.3425
  566MOL0     H76384  13.854  10.287   7.809  1.1540  0.2162 -0.4165
  566MOL0     H76385  13.890  10.112   7.813 -2.0100 -0.3979  1.8366
  566MOL0     H76386  13.843  10.297   7.584 -1.3702 -0.1575  2.4508
  566MOL0     H76387  13.861  10.119   7.556 -1.8233 -1.2608  2.1641
  566MOL0     H76388  14.080  10.237   7.724  0.0192 -3.3945  0.7289
  566MOL0     H76389  14.076  10.118   7.594  1.0756  0.2814  0.7093
  566MOL0     H76390  12.980  10.150   7.637 -0.1075 -1.3210 -0.4499
  566MOL0     H76391  12.718  10.130   7.736  1.3245 -1.5818  0.1891
  566MOL0     H76392  12.507  10.187   8.304  1.1743 -0.9918 -1.6192
  566MOL0     H76393  12.257  10.141   8.362  1.0468  1.6412 -0.0165
  566MOL0     H76394   9.998  10.275   7.834  0.1673  0.1347  0.4471
  566MOL0     H76395   9.799  10.145   7.873  0.2359 -0.3630  1.3469
  566MOL0     H76396   9.536   9.879   8.070 -0.6259  0.0408 -0.2386
  566MOL0     H76397   9.339   9.794   8.137 -0.1210 -3.0321  1.3987
  566MOL0     H76398   9.129   9.727   8.148 -2.5907 -2.5593  2.1563
  566MOL0     H76399   9.001   9.617   8.088 -0.1852 -0.5449  1.3189
  566MOL0     H76400   9.040   9.731   7.849  0.0637 -0.5084 -0.2575
  566MOL0     H76401   9.119   9.861   7.955  1.5914 -1.0847 -2.0003
  566MOL0     H76402   8.904   9.870   8.082  0.2636  2.0132  0.0305
  566MOL0     H76403   8.827   9.754   7.974 -1.3876  1.1558 -0.2479
  566MOL0     H76404   8.829   9.927   7.791  0.7573 -2.6163  0.6977
  566MOL0     H76405   8.751   9.977   7.942 -0.3509 -2.2833  0.9700
  566MOL0     H76406   9.136  10.168   7.947  1.3604 -5.1554 -0.4277
  566MOL0     H76407   9.348   9.514   7.812 -2.1832  1.8026 -1.3174
  566MOL0     H76408   9.517   9.487   7.659 -0.7242  0.6617 -1.7076
  566MOL0     H76409   9.609   9.635   7.625 -0.4908 -0.5807 -0.7573
  566MOL0     H76410   9.672   9.522   7.739  0.6944 -0.7161 -0.9554
  567MOL0     O76411   8.309   0.771   5.182 -0.3515 -0.7639 -0.5553
  567MOL0     C76412   8.237   0.674   5.211  0.3717 -0.7599  0.4117
  567MOL0     O76413   8.277   0.564   5.290  0.5020  0.3682  0.1278
  567MOL0     C76414   8.413   0.541   5.312  0.1830  0.7900 -0.9837
  567MOL0     C76415   8.458   0.539   5.446  0.2603 -0.3336  0.3973
  567MOL0     C76416   8.588   0.535   5.482  0.0560  1.3602  0.4727
  567MOL0     C76417   8.686   0.511   5.379  0.1434 -0.0810 -0.6249
  567MOL0     O76418   8.814   0.472   5.420  0.3921 -0.1860  0.0063
  567MOL0     C76419   8.852   0.332   5.386 -0.5054 -0.1124 -0.1029
  567MOL0     C76420   8.932   0.334   5.264 -0.2059 -0.0849 -0.1848
  567MOL0     C76421   9.048   0.232   5.281 -0.0432  0.4170  0.0365
  567MOL0     C76422   9.132   0.264   5.405  0.0651 -0.1999 -0.0623
  567MOL0     C76423   9.268   0.180   5.411  0.7229  0.0153  0.5715
  567MOL0     C76424   9.338   0.174   5.548 -0.2902  0.7114  0.8418
  567MOL0     C76425   9.393   0.311   5.583 -0.9151  0.2737 -0.1325
  567MOL0     C76426   9.447   0.330   5.726 -0.2721  0.4557 -0.7021
  567MOL0     N76427   9.536   0.227   5.785 -0.8976  0.3091  0.3115
  567MOL0     C76428   9.660   0.201   5.733  0.1281  0.6145 -0.4737
  567MOL0     C76429   9.732   0.141   5.833  0.4521  0.6117  0.3676
  567MOL0     C76430   9.878   0.097   5.812 -0.0243 -0.3968  0.4590
  567MOL0     C76431   9.909  -0.031   5.877 -0.3862 -1.1584 -1.1047
  567MOL0     C76432  10.022  -0.094   5.793  0.4652 -0.2994 -0.3547
  567MOL0     C76433  10.096  -0.204   5.878 -0.0524 -0.4093  0.8418
  567MOL0     O76434  10.148  -0.149   6.001  0.4897 -0.2469 -0.3676
  567MOL0     C76435  10.265  -0.083   6.016  0.5456  0.4127 -0.2015
  567MOL0     C76436  10.361  -0.074   5.917 -0.2080 -0.0449  0.3426
  567MOL0     C76437  10.474  -0.000   5.940 -0.2307 -0.6111  0.9047
  567MOL0     C76438  10.494   0.061   6.063 -0.0157  0.6133 -0.5548
  567MOL0     C76439  10.620   0.137   6.088 -0.1979 -0.7330 -1.3085
  567MOL0     O76440  10.705   0.140   5.980  0.3349 -0.3695  0.0145
  567MOL0     C76441  10.829   0.181   5.998 -0.5332 -0.1156  0.0039
  567MOL0     C76442  10.875   0.282   6.083 -0.3566 -0.0506  0.3227
  567MOL0     C76443  11.012   0.302   6.101  0.4219 -0.2626  0.2175
  567MOL0     C76444  11.098   0.220   6.022 -0.0358  0.3758 -0.2783
  567MOL0     O76445  11.231   0.230   6.040 -0.1162 -0.3041 -0.4360
  567MOL0     C76446  11.287   0.363   6.038 -0.2053 -0.1838 -0.2705
  567MOL0     C76447  11.356   0.391   5.899  0.4899 -0.5693  0.6957
  567MOL0     C76448  11.264   0.411   5.776 -0.0995  0.0352 -0.3007
  567MOL0     C76449  11.164   0.518   5.815  0.2702 -0.3267 -0.4014
  567MOL0     C76450  11.078   0.544   5.693 -0.2518 -0.3866 -0.1421
  567MOL0     C76451  10.969   0.438   5.675  0.3124  0.2566  0.0488
  567MOL0     C76452  10.890   0.466   5.543  0.4977  0.0500 -0.0699
  567MOL0     C76453  10.756   0.380   5.527  0.3793  0.0240 -0.5913
  567MOL0    Cl76454  10.654   0.372   5.674  0.1684  0.3001 -0.2150
  567MOL0     C76455  11.058   0.122   5.941  0.6361  0.3335 -0.5859
  567MOL0     C76456  10.919   0.103   5.930  0.1784 -0.2492 -0.0431
  567MOL0     O76457  10.647   0.177   6.199  1.0734 -0.1027  0.2260
  567MOL0     C76458  10.394   0.066   6.154  0.1838 -0.0150  0.1303
  567MOL0     C76459  10.271  -0.008   6.132 -0.1985  0.1133  0.1870
  567MOL0     N76460   9.640   0.124   5.936  0.1397  0.1398 -0.2626
  567MOL0     N76461   9.524   0.176   5.909 -0.5068 -0.4869 -0.3848
  567MOL0     C76462   8.644   0.526   5.247  0.0299 -0.9416  0.7338
  567MOL0     C76463   8.509   0.539   5.210 -0.7528 -0.7112 -1.3115
  567MOL0     C76464   8.088   0.698   5.189  0.7237  0.3912  0.3063
  567MOL0     C76465   8.004   0.589   5.230  0.5905 -0.3652  0.2469
  567MOL0     C76466   7.865   0.607   5.219  0.0280  0.3273 -0.3838
  567MOL0     C76467   7.805   0.717   5.179  0.2360  0.1626  0.4906
  567MOL0     O76468   7.667   0.721   5.162  0.2582  0.2611  0.6167
  567MOL0     C76469   7.616   0.795   5.052  0.7688  0.3415 -0.1931
  567MOL0     C76470   7.471   0.745   5.018 -0.4166  0.2114 -0.6564
  567MOL0     C76471   7.386   0.794   5.135 -0.1964  0.2701  0.8285
  567MOL0     C76472   7.243   0.744   5.136  0.3559 -0.4288  0.6579
  567MOL0     C76473   7.242   0.604   5.176 -0.1999  0.2200  0.1717
  567MOL0     C76474   7.221   0.489   5.206  0.0391 -0.5652 -1.3981
  567MOL0     C76475   7.884   0.831   5.162 -0.3430  0.4291  1.2951
  567MOL0     C76476   8.026   0.821   5.160  0.2584 -0.9740 -0.2363
  567MOL0     C76477   8.108   0.948   5.129 -0.5485  0.0788  0.3592
  567MOL0     H76478   8.376   0.559   5.514 -2.0596 -0.4006 -2.2092
  567MOL0     H76479   8.611   0.543   5.588 -2.3254  1.9434  1.0126
  567MOL0     H76480   8.882   0.296   5.485 -1.3175 -0.0012  0.1890
  567MOL0     H76481   8.765   0.268   5.369  1.1970 -2.9795  1.1652
  567MOL0     H76482   8.960   0.438   5.247  1.8679 -0.5451  0.2263
  567MOL0     H76483   8.870   0.304   5.178 -1.3806 -2.7364  1.4688
  567MOL0     H76484   9.108   0.213   5.192  0.5688 -0.3221  0.5921
  567MOL0     H76485   8.994   0.138   5.293 -1.5064  1.1122 -0.7784
  567MOL0     H76486   9.157   0.370   5.404 -2.6716  0.5886 -3.5680
  567MOL0     H76487   9.081   0.240   5.499  0.7392 -2.0459 -0.1188
  567MOL0     H76488   9.241   0.077   5.387  1.5720 -0.2073  0.5511
  567MOL0     H76489   9.340   0.223   5.341  1.0657 -0.0847  0.8575
  567MOL0     H76490   9.270   0.131   5.622  0.6687 -1.2909  0.6293
  567MOL0     H76491   9.419   0.101   5.538 -1.0213 -0.1586  1.1695
  567MOL0     H76492   9.323   0.391   5.557 -0.5765  1.5334  2.5089
  567MOL0     H76493   9.477   0.338   5.518 -1.2760  0.2908 -0.6057
  567MOL0     H76494   9.500   0.425   5.721  3.2320 -1.3601 -1.3641
  567MOL0     H76495   9.361   0.340   5.792  1.5844  0.7224  1.8323
  567MOL0     H76496   9.696   0.231   5.635 -1.4321  0.0776 -1.2414
  567MOL0     H76497   9.895   0.097   5.704  0.0491 -0.5127  0.4703
  567MOL0     H76498   9.946   0.171   5.855  0.4067  0.0479 -0.9514
  567MOL0     H76499   9.954  -0.001   5.972  0.2540  1.1563 -2.0745
  567MOL0     H76500   9.816  -0.088   5.883 -1.1050  0.1431  1.3335
  567MOL0     H76501  10.088  -0.011   5.765  1.6659  0.2336  3.4881
  567MOL0     H76502   9.979  -0.141   5.704  0.8748  0.8156 -1.1609
  567MOL0     H76503  10.169  -0.260   5.819 -2.8095 -3.4677 -0.0298
  567MOL0     H76504  10.015  -0.272   5.909  0.2801 -1.8197 -1.1319
  567MOL0     H76505  10.348  -0.143   5.835  2.1635  0.5958 -0.6795
  567MOL0     H76506  10.543  -0.003   5.856 -2.5633 -0.0286 -1.1738
  567MOL0     H76507  10.818   0.346   6.150  2.2691  3.1298 -0.2145
  567MOL0     H76508  11.057   0.365   6.177  4.6221 -1.4092 -1.0569
  567MOL0     H76509  11.223   0.441   6.079 -2.1675 -1.9539  0.2101
  567MOL0     H76510  11.377   0.349   6.098  0.4595 -2.5460 -1.6746
  567MOL0     H76511  11.414   0.483   5.892  0.9237 -0.8918 -0.0865
  567MOL0     H76512  11.419   0.305   5.877  1.3574 -0.0733  1.2139
  567MOL0     H76513  11.318   0.450   5.689  1.2588  1.4034  1.0917
  567MOL0     H76514  11.217   0.315   5.754 -2.5121  0.2801  2.9997
  567MOL0     H76515  11.202   0.616   5.845 -1.1661  0.5229 -1.2544
  567MOL0     H76516  11.099   0.498   5.900  1.6020  4.4418  2.0826
  567MOL0     H76517  11.145   0.557   5.607  2.0506  0.0529  1.5998
  567MOL0     H76518  11.029   0.640   5.712  0.3515 -0.1391  0.2369
  567MOL0     H76519  11.018   0.341   5.659  1.1245  1.0140 -2.5260
  567MOL0     H76520  10.901   0.435   5.761  1.0361  0.8362  0.6503
  567MOL0     H76521  10.952   0.459   5.454  0.3171  0.8231 -0.2603
  567MOL0     H76522  10.850   0.568   5.539  1.7037  0.4957 -1.4815
  567MOL0     H76523  10.694   0.413   5.443 -1.0971 -0.8343  0.1178
  567MOL0     H76524  10.796   0.285   5.491  3.0554  1.6778 -2.3388
  567MOL0     H76525  11.130   0.067   5.882  0.0148 -2.0408  0.7067
  567MOL0     H76526  10.891   0.015   5.874  0.2767 -2.0181  2.4839
  567MOL0     H76527  10.400   0.134   6.239  0.4414  0.9124 -0.6070
  567MOL0     H76528  10.188   0.004   6.201  1.9093  0.4955  2.7908
  567MOL0     H76529   8.721   0.517   5.171  0.8646 -3.1526  1.7549
  567MOL0     H76530   8.475   0.554   5.108  0.9726  0.6339 -1.7431
  567MOL0     H76531   8.047   0.499   5.271 -0.6451 -0.3581  1.6617
  567MOL0     H76532   7.802   0.526   5.254 -1.4438  1.4840 -0.2451
  567MOL0     H76533   7.673   0.777   4.960  1.9937 -1.6549  0.8750
  567MOL0     H76534   7.609   0.900   5.081 -3.2673  0.0519  0.3556
  567MOL0     H76535   7.475   0.636   5.005  1.7771  0.4270 -2.6853
  567MOL0     H76536   7.439   0.786   4.922 -1.8530 -2.5036 -1.4499
  567MOL0     H76537   7.380   0.902   5.151  2.5997  1.0701 -2.4241
  567MOL0     H76538   7.438   0.750   5.221  2.8853 -2.7170 -2.2873
  567MOL0     H76539   7.186   0.802   5.209 -0.4885 -0.4293  0.0128
  567MOL0     H76540   7.201   0.760   5.036  3.3580 -0.8225 -0.7826
  567MOL0     H76541   7.218   0.383   5.220 -0.9559 -0.4256 -0.4926
  567MOL0     H76542   7.841   0.921   5.120  0.2214 -0.2923 -1.0087
  567MOL0     H76543   8.169   0.977   5.215 -0.4774 -2.5696  1.2803
  567MOL0     H76544   8.171   0.927   5.042  1.8113  5.0289  0.5143
  567MOL0     H76545   8.037   1.029   5.112 -0.5269  0.2832  1.2295
  568MOL0     O76546  10.909   8.433   0.480  0.7888 -0.6021  0.1803
  568MOL0     C76547  10.941   8.559   0.461  0.5220  0.4582  0.1206
  568MOL0     O76548  10.859   8.663   0.490  0.6256 -0.9340 -0.2017
  568MOL0     C76549  10.732   8.655   0.542  0.0336  0.3635 -0.3284
  568MOL0     C76550  10.696   8.554   0.629 -0.2094 -0.0540  0.1030
  568MOL0     C76551  10.565   8.527   0.656  0.2059 -0.0956  0.9438
  568MOL0     C76552  10.464   8.603   0.610 -0.6059  0.1770  0.4638
  568MOL0     O76553  10.343   8.575   0.653  0.3013 -0.8323  0.1163
  568MOL0     C76554  10.235   8.657   0.615  0.0020 -0.1308  0.5712
  568MOL0     C76555  10.115   8.620   0.692 -1.1408  1.0200 -0.3117
  568MOL0     C76556  10.012   8.737   0.678  0.3038 -0.9686  0.1558
  568MOL0     C76557   9.872   8.692   0.672  0.5715  0.4236 -0.0241
  568MOL0     C76558   9.767   8.798   0.627  0.5157  0.0797 -0.6114
  568MOL0     C76559   9.752   8.914   0.727  0.4668 -0.4477  0.2713
  568MOL0     C76560   9.648   9.019   0.686  0.3879 -0.5091 -0.2792
  568MOL0     C76561   9.633   9.119   0.800 -0.3283 -0.0584 -0.2252
  568MOL0     N76562   9.748   9.214   0.800 -0.0604 -0.5578 -0.0977
  568MOL0     C76563   9.862   9.204   0.872  0.4267 -0.8645  0.6991
  568MOL0     C76564   9.916   9.330   0.863  0.4107  0.0151 -0.0723
  568MOL0     C76565  10.047   9.374   0.916 -0.8390 -0.1337  0.1005
  568MOL0     C76566  10.141   9.440   0.814  0.8792  0.0647  0.4117
  568MOL0     C76567  10.147   9.592   0.827 -0.2643  0.5152  0.1974
  568MOL0     C76568  10.183   9.660   0.695 -0.2272  1.2159  1.2502
  568MOL0     O76569  10.185   9.801   0.707 -0.4594  0.4375 -0.6227
  568MOL0     C76570  10.314   9.849   0.688  0.0976  0.9062  0.0665
  568MOL0     C76571  10.417   9.834   0.783  0.7769  0.3675  0.5074
  568MOL0     C76572  10.545   9.883   0.752  0.2211 -0.5448  0.9366
  568MOL0     C76573  10.565   9.953   0.630  0.5397  0.3596  0.1956
  568MOL0     C76574  10.698  10.018   0.609 -0.3096  0.5449 -0.1858
  568MOL0     O76575  10.798   9.965   0.676 -0.1438  0.8381  0.4744
  568MOL0     C76576  10.924   9.974   0.629  0.3425 -0.5366 -0.4443
  568MOL0     C76577  10.960   9.955   0.495 -0.6061  0.2762 -0.3065
  568MOL0     C76578  11.091   9.947   0.456 -0.6619 -0.4899 -0.8995
  568MOL0     C76579  11.191   9.952   0.560  0.4065 -0.1206  0.8013
  568MOL0     O76580  11.319   9.925   0.528  0.5857 -0.6942  0.2206
  568MOL0     C76581  11.391  10.037   0.476  0.5871  0.1368  0.3699
  568MOL0     C76582  11.533   9.984   0.467  0.6930 -0.7612  0.7558
  568MOL0     C76583  11.588   9.961   0.601  0.4255 -0.1071 -0.4464
  568MOL0     C76584  11.721  10.033   0.630  0.0405 -0.2531 -0.0267
  568MOL0     C76585  11.696  10.190   0.644  0.5567  0.2782  0.3025
  568MOL0     C76586  11.825  10.248   0.689  0.5688  0.2029  0.1824
  568MOL0     C76587  11.829  10.386   0.747  0.3366  0.1618 -0.3238
  568MOL0     C76588  11.978  10.419   0.776 -0.2264 -1.0638 -0.7419
  568MOL0    Cl76589  11.983  10.544   0.903 -0.1097 -0.0632 -0.0889
  568MOL0     C76590  11.157   9.965   0.695 -0.6143 -0.0141 -0.1599
  568MOL0     C76591  11.019   9.985   0.729 -0.7020  0.0595  0.1878
  568MOL0     O76592  10.709  10.103   0.522  0.5210  0.1067 -0.3180
  568MOL0     C76593  10.466   9.960   0.534  1.3141 -0.4793 -0.6109
  568MOL0     C76594  10.341   9.911   0.570 -0.0084  0.4480  0.1628
  568MOL0     N76595   9.833   9.415   0.801 -0.3594 -0.0482 -0.1118
  568MOL0     N76596   9.735   9.341   0.756  0.1715  0.0885 -0.1475
  568MOL0     C76597  10.495   8.706   0.518 -0.3983  0.3634 -0.5535
  568MOL0     C76598  10.632   8.735   0.482 -0.1511  0.4930  1.0101
  568MOL0     C76599  11.058   8.589   0.377 -0.7782 -0.1476  1.3105
  568MOL0     C76600  11.091   8.722   0.354 -0.5706  0.4925 -0.2553
  568MOL0     C76601  11.182   8.766   0.265  0.2738 -0.6327  0.1908
  568MOL0     C76602  11.256   8.678   0.194 -0.7838 -0.2210  0.7159
  568MOL0     O76603  11.336   8.735   0.096  0.3661 -0.6616 -0.1007
  568MOL0     C76604  11.478   8.747   0.131  0.1745 -0.0746  0.3952
  568MOL0     C76605  11.560   8.784   0.011  0.0341 -0.4710  0.0324
  568MOL0     C76606  11.705   8.792   0.052 -0.2505  0.1852  0.1015
  568MOL0     C76607  11.797   8.867  -0.046  1.0095  0.0597  0.9382
  568MOL0     C76608  11.933   8.886  -0.008  0.1159 -0.7796  0.8870
  568MOL0     C76609  12.049   8.883   0.020 -0.3262  0.7297 -0.3400
  568MOL0     C76610  11.244   8.542   0.214  0.4225 -0.3404 -0.3663
  568MOL0     C76611  11.134   8.494   0.299 -0.3192 -0.6977  0.1580
  568MOL0     C76612  11.107   8.351   0.309 -0.2065 -0.1986 -0.4670
  568MOL0     H76613  10.779   8.491   0.659 -0.4754 -0.5218 -0.1266
  568MOL0     H76614  10.535   8.447   0.724 -1.0936 -0.4531 -0.0102
  568MOL0     H76615  10.251   8.764   0.627  0.7551 -0.1743 -0.0058
  568MOL0     H76616  10.202   8.649   0.511  0.6092 -2.0158  0.4917
  568MOL0     H76617  10.144   8.597   0.795 -0.0926  0.1793 -0.7827
  568MOL0     H76618  10.078   8.519   0.672  0.3121  0.5681 -0.8330
  568MOL0     H76619  10.037   8.800   0.591  0.0227  3.6947  3.1202
  568MOL0     H76620  10.021   8.795   0.770 -2.1342 -1.7873  0.9720
  568MOL0     H76621   9.873   8.604   0.608  0.1433  0.4160 -0.0249
  568MOL0     H76622   9.844   8.655   0.771 -1.4333 -0.1284 -0.7333
  568MOL0     H76623   9.786   8.839   0.527 -1.0257 -1.5783 -1.6490
  568MOL0     H76624   9.676   8.740   0.608 -0.4544  1.7557 -1.3130
  568MOL0     H76625   9.730   8.864   0.821  3.2536 -3.6855 -0.5827
  568MOL0     H76626   9.848   8.966   0.734 -0.0038  0.1961  4.2085
  568MOL0     H76627   9.554   8.964   0.671  0.6791 -1.4673  1.1752
  568MOL0     H76628   9.676   9.060   0.589 -0.0845  2.2633  0.6862
  568MOL0     H76629   9.557   9.192   0.770  0.1753  0.9310  0.8439
  568MOL0     H76630   9.621   9.071   0.897  1.9798  0.5138  0.4143
  568MOL0     H76631   9.909   9.121   0.925  2.5844  1.0839  1.9980
  568MOL0     H76632  10.034   9.447   0.997  3.3732  0.1738  0.7225
  568MOL0     H76633  10.104   9.297   0.969  3.0180  1.4907 -1.2864
  568MOL0     H76634  10.236   9.388   0.831  1.3599  0.9425  0.4870
  568MOL0     H76635  10.108   9.417   0.712  1.8312 -0.4110  0.1970
  568MOL0     H76636  10.219   9.619   0.905 -1.3364 -0.8822  1.7426
  568MOL0     H76637  10.045   9.627   0.838 -0.6114 -0.1746 -0.6540
  568MOL0     H76638  10.104   9.646   0.620  1.3066 -1.4270 -0.0271
  568MOL0     H76639  10.273   9.623   0.646 -0.3110  2.6041 -0.0264
  568MOL0     H76640  10.397   9.783   0.876 -0.3065  3.3099  2.0268
  568MOL0     H76641  10.620   9.874   0.830  0.7930  0.0202  0.4649
  568MOL0     H76642  10.883   9.932   0.422  0.9133 -1.5245 -1.4494
  568MOL0     H76643  11.124   9.933   0.353 -0.9485  0.5018 -1.1306
  568MOL0     H76644  11.356  10.071   0.379  0.2064  3.0075  1.4090
  568MOL0     H76645  11.377  10.125   0.540  3.7477  0.7065  0.4162
  568MOL0     H76646  11.538   9.892   0.407 -0.1246 -1.5555  1.8603
  568MOL0     H76647  11.596  10.052   0.409 -1.9179  2.0478  0.9702
  568MOL0     H76648  11.523   9.989   0.684  0.4229 -1.0114 -0.1242
  568MOL0     H76649  11.594   9.852   0.605 -2.7087 -0.3262  1.2037
  568MOL0     H76650  11.788  10.002   0.549  2.5384  1.8950  1.0730
  568MOL0     H76651  11.763   9.999   0.725  0.3449  2.0443  0.7230
  568MOL0     H76652  11.613  10.198   0.714 -2.0346 -2.5869 -2.1621
  568MOL0     H76653  11.664  10.242   0.554 -0.2414 -2.4039 -1.0869
  568MOL0     H76654  11.868  10.190   0.771  0.8390  1.7559  1.2021
  568MOL0     H76655  11.885  10.238   0.598 -1.5775 -2.5262 -1.0573
  568MOL0     H76656  11.774  10.386   0.841 -0.9198  1.0361 -1.0270
  568MOL0     H76657  11.783  10.460   0.680  0.4295  3.2325  2.6967
  568MOL0     H76658  12.043  10.336   0.806 -2.1290 -3.0944 -1.9705
  568MOL0     H76659  12.026  10.456   0.684  0.9495  1.1435  0.6806
  568MOL0     H76660  11.240   9.960   0.765 -0.5695  2.6888  0.0984
  568MOL0     H76661  10.983   9.996   0.830 -1.1487  0.7302 -0.0386
  568MOL0     H76662  10.476  10.024   0.447  0.7877  0.7932  0.2400
  568MOL0     H76663  10.256   9.910   0.502  1.0286 -0.6899 -1.1567
  568MOL0     H76664  10.418   8.770   0.475 -0.8811 -0.1619 -0.4749
  568MOL0     H76665  10.669   8.808   0.410  0.5551  1.2626  2.1150
  568MOL0     H76666  11.039   8.795   0.415 -2.9001 -0.7531 -0.6095
  568MOL0     H76667  11.204   8.872   0.253  1.3707 -0.9737 -1.0192
  568MOL0     H76668  11.505   8.651   0.176 -0.2175 -0.3404  0.0780
  568MOL0     H76669  11.487   8.817   0.214  0.4856  2.5824 -1.7531
  568MOL0     H76670  11.518   8.881  -0.016 -0.7420 -0.9460 -0.5331
  568MOL0     H76671  11.547   8.706  -0.065  2.2270 -0.6419 -0.2254
  568MOL0     H76672  11.739   8.689   0.067 -5.6266 -2.1238 -1.0913
  568MOL0     H76673  11.705   8.844   0.148  1.7784  0.7633 -0.1579
  568MOL0     H76674  11.794   8.815  -0.142 -0.0119 -0.6803  1.3577
  568MOL0     H76675  11.744   8.960  -0.067 -0.6764 -1.3294 -1.4139
  568MOL0     H76676  12.149   8.859   0.047 -1.4524 -2.7390  1.3761
  568MOL0     H76677  11.303   8.472   0.156 -2.3216 -1.3166 -2.2320
  568MOL0     H76678  11.141   8.307   0.403 -1.9508 -0.4770  0.0668
  568MOL0     H76679  11.001   8.324   0.302 -0.4450  0.0420  1.6493
  568MOL0     H76680  11.157   8.306   0.223  0.6815 -0.5218  0.2010
  569MOL0     O76681   9.635   7.582   0.836  0.5606  0.0194  0.0217
  569MOL0     C76682   9.733   7.508   0.829  0.0225  0.4876 -0.3591
  569MOL0     O76683   9.736   7.374   0.855 -0.9378  0.7915  0.9786
  569MOL0     C76684   9.627   7.296   0.866 -0.8745  0.1550  0.7193
  569MOL0     C76685   9.649   7.177   0.936 -0.8774  0.5148 -0.2498
  569MOL0     C76686   9.545   7.079   0.958 -0.0074 -0.3083  0.7347
  569MOL0     C76687   9.417   7.119   0.908 -0.1962 -0.2692 -0.2305
  569MOL0     O76688   9.313   7.035   0.932 -0.4632 -0.5031  0.5095
  569MOL0     C76689   9.326   6.936   1.038 -0.0663 -0.3133  0.3447
  569MOL0     C76690   9.195   6.872   1.057  1.4433  0.3693 -0.3313
  569MOL0     C76691   9.071   6.948   1.067 -0.8395  0.7854 -0.0504
  569MOL0     C76692   8.957   6.862   1.119  0.2399  0.5433  0.5397
  569MOL0     C76693   8.874   6.815   1.001 -0.5314  0.0641 -0.4081
  569MOL0     C76694   8.755   6.736   1.052 -0.5216 -0.0854 -0.1177
  569MOL0     C76695   8.658   6.680   0.943 -0.3525  0.0669 -0.3422
  569MOL0     C76696   8.591   6.792   0.861 -0.7810  0.0450 -0.1361
  569MOL0     N76697   8.520   6.895   0.942  0.6092  0.5477 -0.0389
  569MOL0     C76698   8.409   6.881   1.012  0.0583 -0.1588 -0.7994
  569MOL0     C76699   8.405   6.992   1.088  0.1636 -1.2544  0.0334
  569MOL0     C76700   8.295   7.047   1.169  0.3780 -0.2621 -0.2914
  569MOL0     C76701   8.322   7.131   1.302 -0.5712 -0.1483  0.3939
  569MOL0     C76702   8.352   7.045   1.428  0.1953 -0.1221  0.2851
  569MOL0     C76703   8.482   6.972   1.416 -0.4663 -0.0089 -0.9161
  569MOL0     O76704   8.489   6.915   1.548  0.0164 -0.6989  0.3941
  569MOL0     C76705   8.610   6.865   1.582 -0.2521  0.7812 -0.4821
  569MOL0     C76706   8.688   6.792   1.498 -1.1651  0.1568  0.6007
  569MOL0     C76707   8.815   6.756   1.534 -0.2018  0.1235 -0.2046
  569MOL0     C76708   8.860   6.775   1.664 -0.6835 -0.9446 -0.8246
  569MOL0     C76709   9.000   6.724   1.697 -0.1259  0.3439  0.9311
  569MOL0     O76710   9.035   6.738   1.823  0.2139  0.1928 -0.0177
  569MOL0     C76711   9.163   6.729   1.862  0.6391  0.3431  0.3233
  569MOL0     C76712   9.189   6.652   1.981 -0.8716  0.2424  0.4798
  569MOL0     C76713   9.320   6.636   2.033 -0.6495  0.6941  0.1334
  569MOL0     C76714   9.431   6.702   1.971  0.2070 -0.4836 -0.7064
  569MOL0     O76715   9.551   6.680   2.014 -0.6209  0.3141 -1.2257
  569MOL0     C76716   9.667   6.740   1.955  0.1349 -0.1701  0.0667
  569MOL0     C76717   9.793   6.692   2.019 -0.3680  0.8146 -0.4051
  569MOL0     C76718   9.763   6.655   2.167  0.2546  0.1527  0.7371
  569MOL0     C76719   9.891   6.592   2.228  0.3704  0.1186  0.5702
  569MOL0     C76720   9.962   6.711   2.288 -1.0753  0.3661  0.6718
  569MOL0     C76721  10.086   6.675   2.364  0.0724 -0.7596  0.7948
  569MOL0     C76722  10.209   6.604   2.308 -0.5737  0.0184  0.5450
  569MOL0     C76723  10.287   6.546   2.423  0.0674 -0.3517 -0.1235
  569MOL0    Cl76724  10.420   6.477   2.339  0.0497 -0.0563 -0.1869
  569MOL0     C76725   9.402   6.788   1.862  0.7981  0.4629 -0.4271
  569MOL0     C76726   9.273   6.803   1.811  0.7179  0.6060 -0.2205
  569MOL0     O76727   9.077   6.686   1.602  0.5093  0.6567  0.8300
  569MOL0     C76728   8.778   6.842   1.754 -0.2029 -0.4886  0.2083
  569MOL0     C76729   8.652   6.889   1.715 -0.1574 -0.2405 -0.2939
  569MOL0     N76730   8.508   7.071   1.062 -0.0463  0.4919 -0.2375
  569MOL0     N76731   8.582   7.010   0.980  0.3975 -0.0392 -0.2229
  569MOL0     C76732   9.397   7.234   0.844  0.7124  0.1031 -1.1144
  569MOL0     C76733   9.500   7.321   0.826 -0.3538 -0.8020  0.5781
  569MOL0     C76734   9.872   7.561   0.804 -0.2294 -0.2288  1.1256
  569MOL0     C76735   9.906   7.688   0.855  0.5670 -0.3603  0.4265
  569MOL0     C76736  10.027   7.745   0.816 -0.9079  0.5287 -0.4037
  569MOL0     C76737  10.122   7.670   0.760 -0.9106  0.2210 -0.0385
  569MOL0     O76738  10.245   7.723   0.728 -0.1523 -0.0096 -0.5545
  569MOL0     C76739  10.332   7.750   0.843  1.1073 -0.0115 -0.3089
  569MOL0     C76740  10.426   7.631   0.869  0.1891  0.3529  0.1424
  569MOL0     C76741  10.371   7.512   0.947  0.5634 -0.3234 -0.2646
  569MOL0     C76742  10.459   7.387   0.953 -0.1859 -0.0039 -0.1072
  569MOL0     C76743  10.606   7.409   0.968  0.3467  0.0818  0.2847
  569MOL0     C76744  10.722   7.421   0.992 -0.0684 -0.1842  0.4331
  569MOL0     C76745  10.094   7.546   0.711  0.4016  1.0223  0.2816
  569MOL0     C76746   9.967   7.494   0.728 -0.3288  0.0642 -0.4235
  569MOL0     C76747   9.949   7.361   0.664 -0.9067 -0.1547 -0.0147
  569MOL0     H76748   9.753   7.153   0.953 -1.3836 -2.5581 -0.7486
  569MOL0     H76749   9.566   6.983   1.005 -2.2490 -0.4264  1.5783
  569MOL0     H76750   9.395   6.857   1.008 -0.6446 -1.5548  2.0976
  569MOL0     H76751   9.333   6.989   1.134 -2.8191  1.5498 -0.3647
  569MOL0     H76752   9.202   6.802   1.140 -2.2490  0.6104  0.3672
  569MOL0     H76753   9.165   6.821   0.965 -0.9532 -0.2033  0.6876
  569MOL0     H76754   9.051   7.005   0.976  1.0761  3.1784  0.9233
  569MOL0     H76755   9.083   7.021   1.147  0.5986 -0.5736  1.0375
  569MOL0     H76756   9.005   6.785   1.180 -0.2589 -0.5130 -0.3817
  569MOL0     H76757   8.893   6.929   1.178 -0.9836  1.0920 -1.2953
  569MOL0     H76758   8.825   6.897   0.948 -4.2887 -0.8828  1.2091
  569MOL0     H76759   8.930   6.750   0.933 -1.3697 -1.0871 -0.0356
  569MOL0     H76760   8.781   6.659   1.125  1.1405 -0.4791 -1.0912
  569MOL0     H76761   8.696   6.809   1.110 -1.3523 -0.6664 -0.2160
  569MOL0     H76762   8.579   6.625   0.996  0.2816 -1.0985 -0.5849
  569MOL0     H76763   8.701   6.602   0.880 -1.2015 -0.5716 -0.1570
  569MOL0     H76764   8.664   6.843   0.797 -0.6334  1.7852  1.3350
  569MOL0     H76765   8.513   6.749   0.798  1.1201 -0.7002 -2.1010
  569MOL0     H76766   8.334   6.802   1.005  1.0173 -1.1523 -0.2148
  569MOL0     H76767   8.233   7.104   1.099  0.5950 -2.3674 -2.3037
  569MOL0     H76768   8.232   6.959   1.187 -0.9504  0.7233  0.0114
  569MOL0     H76769   8.402   7.202   1.283 -1.0113 -0.1219 -1.5712
  569MOL0     H76770   8.237   7.192   1.335 -0.5033 -0.8801  1.9986
  569MOL0     H76771   8.273   6.970   1.435  1.5308 -1.7434 -1.2228
  569MOL0     H76772   8.352   7.107   1.518  2.3467  0.8011 -0.2859
  569MOL0     H76773   8.574   7.028   1.397  0.5105 -2.0362 -2.4725
  569MOL0     H76774   8.477   6.897   1.336  4.2755  0.4897 -1.9476
  569MOL0     H76775   8.661   6.770   1.395 -2.9327  0.2195  1.0063
  569MOL0     H76776   8.886   6.714   1.463  1.0498  1.4872  0.2119
  569MOL0     H76777   9.105   6.592   2.012 -0.3468 -0.3641  0.7443
  569MOL0     H76778   9.344   6.581   2.124 -0.0772  2.6712  1.2564
  569MOL0     H76779   9.664   6.706   1.851 -6.5764 -1.0598  0.0814
  569MOL0     H76780   9.667   6.849   1.967  0.3054 -0.2573  0.8895
  569MOL0     H76781   9.824   6.604   1.961  1.9952  0.9597  0.5340
  569MOL0     H76782   9.875   6.761   1.997  1.1289 -0.7187  0.1040
  569MOL0     H76783   9.727   6.747   2.215 -3.7580 -2.2325  2.8141
  569MOL0     H76784   9.682   6.583   2.180  0.6255 -0.9568 -2.2786
  569MOL0     H76785   9.959   6.535   2.164 -2.0701 -2.3644  0.0146
  569MOL0     H76786   9.859   6.539   2.318 -1.1084  4.1259  2.6453
  569MOL0     H76787   9.904   6.773   2.357  3.0726  4.1297  1.2799
  569MOL0     H76788   9.989   6.774   2.203 -4.0173 -0.9410 -1.3839
  569MOL0     H76789  10.123   6.768   2.408  0.0036 -0.4991  0.3170
  569MOL0     H76790  10.053   6.612   2.447 -1.9401 -0.2690  0.4194
  569MOL0     H76791  10.276   6.677   2.262 -0.9693 -0.0979 -0.2293
  569MOL0     H76792  10.186   6.522   2.240 -0.4301 -0.5253  1.1387
  569MOL0     H76793  10.316   6.625   2.492  0.5814 -0.1458 -0.5716
  569MOL0     H76794  10.219   6.471   2.465 -1.3531  0.2398 -1.2910
  569MOL0     H76795   9.474   6.854   1.815 -0.1906  1.6274 -0.3447
  569MOL0     H76796   9.266   6.884   1.739 -0.8226  0.9403  0.2679
  569MOL0     H76797   8.799   6.858   1.859 -0.5004  0.9159  0.0770
  569MOL0     H76798   8.605   6.953   1.789  3.4408 -1.1065  3.0942
  569MOL0     H76799   9.293   7.258   0.829  1.0030  1.3616 -1.1695
  569MOL0     H76800   9.483   7.414   0.772  0.5891  0.4808  2.3626
  569MOL0     H76801   9.838   7.749   0.913  2.3504  1.1748  0.9888
  569MOL0     H76802  10.049   7.847   0.848  2.4635  0.2036 -1.2786
  569MOL0     H76803  10.267   7.773   0.928 -1.1879  0.9516 -2.2022
  569MOL0     H76804  10.398   7.835   0.822  1.5142 -0.3661 -0.4880
  569MOL0     H76805  10.513   7.659   0.930  1.3965  1.0849 -1.8177
  569MOL0     H76806  10.474   7.600   0.776 -0.0854  1.7853 -0.5102
  569MOL0     H76807  10.280   7.479   0.896  0.9608 -0.6185 -0.7938
  569MOL0     H76808  10.340   7.536   1.049  0.5955  0.6060 -0.4720
  569MOL0     H76809  10.418   7.328   1.036  1.6456  0.4323  1.1925
  569MOL0     H76810  10.433   7.328   0.865 -3.2870  1.5246 -0.3432
  569MOL0     H76811  10.823   7.424   1.026 -0.0705 -1.9715  0.6803
  569MOL0     H76812  10.171   7.490   0.658 -0.2633  0.7079 -0.3769
  569MOL0     H76813   9.845   7.366   0.628 -1.0078  2.0208  0.3995
  569MOL0     H76814  10.024   7.337   0.588 -2.5256 -0.6094 -1.5438
  569MOL0     H76815   9.963   7.284   0.741  2.7081  1.3002  0.9822
  570MOL0     O76816   7.788   0.503   7.838 -0.1100  0.4974  1.2560
  570MOL0     C76817   7.693   0.563   7.899 -1.2147 -0.1558  0.1440
  570MOL0     O76818   7.708   0.659   7.989 -0.1021  0.0113 -0.7692
  570MOL0     C76819   7.833   0.716   8.027  0.6136  0.4956  0.0925
  570MOL0     C76820   7.856   0.850   8.019 -0.2449 -0.2853 -0.9731
  570MOL0     C76821   7.979   0.907   8.055 -0.0197 -0.5867  0.1056
  570MOL0     C76822   8.078   0.826   8.106  0.5216 -0.0958  0.7730
  570MOL0     O76823   8.194   0.882   8.153  1.0400 -0.2140  0.1604
  570MOL0     C76824   8.259   0.968   8.056  0.0213  0.1239  0.4302
  570MOL0     C76825   8.399   0.998   8.108 -0.6795 -0.8402 -0.0898
  570MOL0     C76826   8.485   1.041   7.986  0.3303 -0.1034 -0.7332
  570MOL0     C76827   8.627   1.073   8.042  0.0982  0.1127 -0.3152
  570MOL0     C76828   8.707   1.143   7.929  0.1350 -0.6711 -0.4372
  570MOL0     C76829   8.835   1.205   7.981  0.2542  1.2382  0.0405
  570MOL0     C76830   8.912   1.114   8.077 -0.1532 -0.7414  0.7355
  570MOL0     C76831   9.067   1.131   8.054  0.5879  0.3246  0.4808
  570MOL0     N76832   9.096   1.274   8.094  0.0852  0.8642 -0.5085
  570MOL0     C76833   9.090   1.322   8.221 -0.6074 -0.2287 -0.2532
  570MOL0     C76834   9.149   1.450   8.211  0.1821 -0.0373 -0.0373
  570MOL0     C76835   9.147   1.560   8.316 -0.2434 -0.8182  0.2872
  570MOL0     C76836   9.257   1.553   8.420 -0.4638  0.9964 -0.2484
  570MOL0     C76837   9.394   1.595   8.367  0.6144  0.0790 -0.3592
  570MOL0     C76838   9.502   1.613   8.484 -0.0415 -0.1845  0.0360
  570MOL0     O76839   9.628   1.620   8.410  0.0575  0.7599  0.0552
  570MOL0     C76840   9.745   1.614   8.480  0.7594  0.1263 -0.3163
  570MOL0     C76841   9.859   1.591   8.402 -0.4552 -0.4902 -0.4780
  570MOL0     C76842   9.982   1.566   8.466 -0.4535  0.0092 -0.2677
  570MOL0     C76843   9.992   1.552   8.604 -0.7383 -0.8508 -0.2551
  570MOL0     C76844  10.118   1.515   8.669 -0.9869  0.3970  0.6931
  570MOL0     O76845  10.217   1.477   8.578  0.1211 -0.3231 -0.1847
  570MOL0     C76846  10.338   1.453   8.635 -0.2955 -0.1044 -0.6277
  570MOL0     C76847  10.382   1.331   8.694  0.4323 -0.0444  0.0948
  570MOL0     C76848  10.510   1.310   8.740  0.5193  0.4585 -0.7810
  570MOL0     C76849  10.603   1.412   8.754  0.1902 -0.2703 -0.3836
  570MOL0     O76850  10.725   1.404   8.819  0.2583 -0.8636 -0.0740
  570MOL0     C76851  10.789   1.278   8.843 -0.6378  0.4891  0.5874
  570MOL0     C76852  10.924   1.297   8.890  0.0126 -0.1369 -0.4143
  570MOL0     C76853  10.936   1.402   8.998 -0.0779 -0.4563 -0.5634
  570MOL0     C76854  11.060   1.368   9.084  0.0432  0.1424  0.8966
  570MOL0     C76855  11.066   1.472   9.192 -0.0225 -0.3130  0.1325
  570MOL0     C76856  11.200   1.555   9.181 -0.0669 -1.0247 -0.7958
  570MOL0     C76857  11.164   1.678   9.105  0.1594  0.6788 -1.2006
  570MOL0     C76858  11.275   1.755   9.042 -0.0110  0.3330 -0.8478
  570MOL0    Cl76859  11.214   1.915   8.996 -0.2219  0.3493  0.1647
  570MOL0     C76860  10.557   1.539   8.718  0.2057 -0.2628  0.0583
  570MOL0     C76861  10.425   1.563   8.656 -0.1540  1.5599 -0.5276
  570MOL0     O76862  10.129   1.507   8.791  0.0811  0.1651 -0.3013
  570MOL0     C76863   9.882   1.585   8.677 -0.6569  0.3762  0.1707
  570MOL0     C76864   9.758   1.612   8.618 -0.1658  0.2193  0.9519
  570MOL0     N76865   9.173   1.478   8.080 -0.6502  0.1752 -0.1509
  570MOL0     N76866   9.143   1.374   8.009 -0.4341  1.2157 -0.2554
  570MOL0     C76867   8.059   0.694   8.119 -0.0128  0.0008  0.8600
  570MOL0     C76868   7.933   0.634   8.075  0.2657 -0.9181 -0.4090
  570MOL0     C76869   7.557   0.499   7.875  0.2302  1.2920 -0.0926
  570MOL0     C76870   7.548   0.387   7.789 -0.1165 -0.1664  0.1865
  570MOL0     C76871   7.425   0.318   7.762 -0.4568 -0.3399 -0.6517
  570MOL0     C76872   7.309   0.361   7.833 -0.3563 -0.6450  0.0449
  570MOL0     O76873   7.193   0.302   7.816 -0.1911 -0.1710 -0.2564
  570MOL0     C76874   7.084   0.397   7.801  0.4075  0.2269  0.0432
  570MOL0     C76875   7.020   0.381   7.659 -0.6118 -0.9350 -0.2393
  570MOL0     C76876   6.949   0.248   7.644 -0.8206  0.1008  0.2506
  570MOL0     C76877   6.890   0.241   7.498  0.4609  0.9380  0.4223
  570MOL0     C76878   6.822   0.115   7.479 -0.2976  0.5180  0.0631
  570MOL0     C76879   6.752   0.023   7.449  0.3442  0.6549 -0.4307
  570MOL0     C76880   7.323   0.472   7.922 -0.0525  0.6675 -0.3199
  570MOL0     C76881   7.442   0.545   7.935  0.3288  0.2174  1.0352
  570MOL0     C76882   7.434   0.671   8.024 -0.8159 -0.1087 -0.1862
  570MOL0     H76883   7.774   0.903   7.971 -0.6062  0.6327  0.5831
  570MOL0     H76884   7.985   1.015   8.044 -1.7496 -0.4122  0.5318
  570MOL0     H76885   8.257   0.914   7.961  3.1899  0.1237  0.2488
  570MOL0     H76886   8.206   1.062   8.040  0.3557  0.1834 -0.3729
  570MOL0     H76887   8.436   0.905   8.151 -2.5476 -2.2605 -1.3555
  570MOL0     H76888   8.385   1.076   8.182  1.3257 -0.2975 -0.2440
  570MOL0     H76889   8.444   1.134   7.947  2.9498 -0.0565 -3.6999
  570MOL0     H76890   8.473   0.964   7.909 -0.3921 -1.4290  0.6421
  570MOL0     H76891   8.617   1.135   8.131  0.2713 -1.7812  1.0702
  570MOL0     H76892   8.673   0.980   8.077 -1.5117 -0.7988 -0.5070
  570MOL0     H76893   8.728   1.081   7.841  1.5638 -0.0276 -0.5688
  570MOL0     H76894   8.646   1.225   7.890  2.4179  0.8036 -1.0988
  570MOL0     H76895   8.889   1.252   7.898  0.8129  0.0633 -0.2788
  570MOL0     H76896   8.809   1.291   8.044 -1.2495  0.0136  1.1528
  570MOL0     H76897   8.879   1.011   8.060 -1.2788 -0.5458  1.5859
  570MOL0     H76898   8.887   1.139   8.180  3.2226  2.5379  0.9668
  570MOL0     H76899   9.112   1.058   8.122  0.2422 -0.7435 -0.4084
  570MOL0     H76900   9.095   1.107   7.951 -0.4603  0.5140  0.1321
  570MOL0     H76901   9.061   1.274   8.314  1.2187 -1.3034 -0.1931
  570MOL0     H76902   9.154   1.659   8.270 -2.1475 -0.1023  1.4065
  570MOL0     H76903   9.049   1.551   8.364 -0.5145 -1.9280 -0.4151
  570MOL0     H76904   9.218   1.628   8.490  0.4453  0.5031  0.8067
  570MOL0     H76905   9.266   1.459   8.474  1.0340  2.3712  2.0942
  570MOL0     H76906   9.380   1.688   8.313 -1.2717  0.3831  0.5498
  570MOL0     H76907   9.443   1.525   8.299 -0.3686 -2.2135  1.1426
  570MOL0     H76908   9.499   1.540   8.566  0.7778 -0.7345 -0.4057
  570MOL0     H76909   9.479   1.704   8.540  2.4631  0.3685  0.2872
  570MOL0     H76910   9.862   1.597   8.293 -1.4917 -0.4589 -0.5141
  570MOL0     H76911  10.057   1.561   8.388  1.4658 -0.3417  1.5273
  570MOL0     H76912  10.314   1.249   8.675 -0.7813  1.0928 -0.6326
  570MOL0     H76913  10.530   1.207   8.769 -3.0278  0.3060  1.8088
  570MOL0     H76914  10.742   1.218   8.922  0.2436 -0.7258  0.2163
  570MOL0     H76915  10.800   1.214   8.754 -1.1641 -0.1704  0.9844
  570MOL0     H76916  10.965   1.205   8.933 -2.5980  0.2591  3.3641
  570MOL0     H76917  10.979   1.332   8.802 -1.1689  3.6869  0.1774
  570MOL0     H76918  10.942   1.506   8.965  1.1795 -0.2707  0.1642
  570MOL0     H76919  10.850   1.403   9.065  0.7346 -0.1711  0.5193
  570MOL0     H76920  11.150   1.372   9.022 -0.4339  1.9825  0.2697
  570MOL0     H76921  11.047   1.270   9.131  0.4971 -0.7432 -0.7451
  570MOL0     H76922  11.063   1.419   9.288  0.7120  0.5726  0.6599
  570MOL0     H76923  10.980   1.539   9.190 -0.2001 -0.4237  2.1700
  570MOL0     H76924  11.222   1.588   9.283 -3.5346 -1.9538  0.3959
  570MOL0     H76925  11.290   1.507   9.143  1.4759  2.2793 -1.6227
  570MOL0     H76926  11.096   1.742   9.163 -2.6656 -2.9543 -0.1430
  570MOL0     H76927  11.105   1.648   9.018 -0.0172 -1.0445 -0.5176
  570MOL0     H76928  11.357   1.778   9.111 -0.2608 -1.0967 -0.0502
  570MOL0     H76929  11.325   1.700   8.962  0.6680  1.0731 -0.9522
  570MOL0     H76930  10.630   1.619   8.723  0.7822 -0.7185 -0.8158
  570MOL0     H76931  10.403   1.665   8.626  2.5386  2.5956  0.7116
  570MOL0     H76932   9.889   1.573   8.785 -0.7729 -1.4390 -0.0053
  570MOL0     H76933   9.678   1.627   8.690  0.4998  1.2987  1.4907
  570MOL0     H76934   8.138   0.634   8.162 -0.1171 -2.2983 -1.8553
  570MOL0     H76935   7.918   0.528   8.086  0.1071 -0.7560  1.1147
  570MOL0     H76936   7.634   0.351   7.733  0.8218  2.0395  0.1114
  570MOL0     H76937   7.427   0.239   7.687 -0.8750 -0.0350 -0.9862
  570MOL0     H76938   7.116   0.501   7.811  1.8041  0.1328 -2.5886
  570MOL0     H76939   7.002   0.374   7.869  0.4729 -1.2569 -0.3486
  570MOL0     H76940   7.103   0.384   7.587  1.4186 -3.7245  1.7467
  570MOL0     H76941   6.949   0.462   7.639 -1.5302 -1.8656 -0.8516
  570MOL0     H76942   6.872   0.233   7.720 -0.0938 -0.2920  0.9152
  570MOL0     H76943   7.021   0.167   7.653 -0.7508  0.2476  1.1193
  570MOL0     H76944   6.831   0.331   7.483  0.4979  0.7816 -0.7290
  570MOL0     H76945   6.980   0.242   7.436  0.8742  0.5735  0.9942
  570MOL0     H76946   6.692  -0.065   7.434  0.6781 -0.4283  3.5221
  570MOL0     H76947   7.238   0.501   7.983 -1.8975 -2.0854 -1.4064
  570MOL0     H76948   7.336   0.717   8.038  0.2516  1.6104  2.2256
  570MOL0     H76949   7.484   0.652   8.119  1.0211  0.9583 -0.8964
  570MOL0     H76950   7.494   0.751   7.981  2.7357 -1.8491  1.1188
  571MOL0     O76951   4.078  10.367  10.036 -0.7512 -0.3405  1.1005
  571MOL0     C76952   4.066  10.429   9.930  0.3455  0.1095 -0.3623
  571MOL0     O76953   3.943  10.483   9.886 -0.6337 -0.2160  0.4112
  571MOL0     C76954   3.824  10.440   9.948 -0.4668  0.5884 -0.1686
  571MOL0     C76955   3.800  10.309   9.988 -0.7388 -0.2298 -0.3568
  571MOL0     C76956   3.678  10.267  10.047 -0.2684  1.2037 -0.0693
  571MOL0     C76957   3.577  10.363  10.062 -0.2256  0.4492  0.1646
  571MOL0     O76958   3.462  10.346  10.129  0.4112 -0.1671 -0.2749
  571MOL0     C76959   3.427  10.207  10.144  0.1119  0.4526 -0.4269
  571MOL0     C76960   3.298  10.202  10.233  0.6177  0.0361  0.7561
  571MOL0     C76961   3.175  10.284  10.188  0.1550  0.7185 -0.6351
  571MOL0     C76962   3.048  10.247  10.268  0.4108 -0.4107  0.1157
  571MOL0     C76963   2.940  10.354  10.261  0.6544  0.5553 -0.5814
  571MOL0     C76964   2.807  10.306  10.323 -0.3309  0.4969 -0.2968
  571MOL0     C76965   2.741  10.182  10.256  0.5443  0.2243 -0.5169
  571MOL0     C76966   2.663  10.234  10.129 -0.3344 -1.0595 -0.6199
  571MOL0     N76967   2.620  10.125  10.043 -0.5755  0.0357  0.1583
  571MOL0     C76968   2.703  10.042   9.966  0.0798 -0.0044  0.4077
  571MOL0     C76969   2.629   9.933   9.932  0.6394 -0.3334  0.1399
  571MOL0     C76970   2.662   9.801   9.866  0.5095  0.0725  0.6179
  571MOL0     C76971   2.628   9.807   9.716  1.1797 -0.5319 -0.1257
  571MOL0     C76972   2.698   9.920   9.638  0.5841 -0.6743  0.1599
  571MOL0     C76973   2.850   9.900   9.608  0.7737 -0.5141 -0.1600
  571MOL0     O76974   2.926   9.923   9.727  0.7324  0.6256  0.2997
  571MOL0     C76975   3.060   9.963   9.715  0.3329 -0.0660  0.0541
  571MOL0     C76976   3.137   9.935   9.599  0.6435 -0.4483  1.4279
  571MOL0     C76977   3.276   9.946   9.602  0.5194  0.6145  0.8465
  571MOL0     C76978   3.343   9.984   9.717 -0.1061 -0.8962 -0.4177
  571MOL0     C76979   3.490  10.007   9.723 -0.3202 -0.2520 -0.1240
  571MOL0     O76980   3.554   9.985   9.605  0.4220  0.2642  0.4907
  571MOL0     C76981   3.685  10.031   9.584  0.5502 -0.6888 -0.1789
  571MOL0     C76982   3.729  10.156   9.620  0.6726  0.3081 -0.0100
  571MOL0     C76983   3.866  10.199   9.605  0.0303 -0.2280 -0.5854
  571MOL0     C76984   3.954  10.109   9.538  0.0919  0.4782 -0.6596
  571MOL0     O76985   4.085  10.124   9.509  0.0286 -0.3047  0.2502
  571MOL0     C76986   4.126  10.261   9.484 -0.6409  0.2127 -1.2742
  571MOL0     C76987   4.268  10.257   9.424  0.2366  0.0814  0.1162
  571MOL0     C76988   4.376  10.239   9.530 -0.9450 -0.6474 -0.1050
  571MOL0     C76989   4.506  10.322   9.506  0.0435  0.1308 -0.5544
  571MOL0     C76990   4.589  10.245   9.399 -0.1335  0.5088 -0.3129
  571MOL0     C76991   4.726  10.306   9.378  0.2946 -0.2108 -0.4195
  571MOL0     C76992   4.818  10.222   9.298 -0.6715 -0.6040  0.5857
  571MOL0     C76993   4.943  10.295   9.255 -1.1058  0.3892 -0.0768
  571MOL0    Cl76994   5.051  10.338   9.391 -0.3683 -0.2834  0.0082
  571MOL0     C76995   3.904   9.982   9.507  0.0900  0.1595 -0.3243
  571MOL0     C76996   3.773   9.943   9.534 -0.2487 -1.1671  0.2793
  571MOL0     O76997   3.552  10.014   9.832 -0.2424  0.0657  0.4922
  571MOL0     C76998   3.264  10.007   9.829 -0.2434 -0.3544  0.7171
  571MOL0     C76999   3.128  10.000   9.829 -0.0414 -0.2707  0.7399
  571MOL0     N77000   2.495   9.969   9.979 -0.5294 -0.4258  0.6127
  571MOL0     N77001   2.497  10.082  10.041 -0.0967  0.4872 -0.2837
  571MOL0     C77002   3.603  10.497  10.028 -1.1307  0.1234  0.1605
  571MOL0     C77003   3.730  10.530   9.978  0.7628 -0.4858 -0.3366
  571MOL0     C77004   4.189  10.482   9.863  0.0076 -0.5033  0.5433
  571MOL0     C77005   4.197  10.596   9.781 -0.3107  0.1058 -0.3844
  571MOL0     C77006   4.312  10.630   9.702  0.1764  0.4797 -0.1931
  571MOL0     C77007   4.434  10.567   9.719 -0.0934 -0.0400 -0.5019
  571MOL0     O77008   4.551  10.601   9.658 -0.2438 -0.6781  0.3639
  571MOL0     C77009   4.561  10.730   9.599  0.2043 -0.0393  0.3882
  571MOL0     C77010   4.708  10.756   9.556  0.2720 -0.4643 -1.2764
  571MOL0     C77011   4.752  10.661   9.445  0.3124  0.1602 -0.5751
  571MOL0     C77012   4.879  10.703   9.376  0.4181  0.3372  1.2025
  571MOL0     C77013   4.996  10.683   9.459 -0.3114 -0.9826  0.4395
  571MOL0     C77014   5.098  10.653   9.517 -0.2447  0.8178 -0.1432
  571MOL0     C77015   4.429  10.461   9.806 -0.1869  0.6794  0.4911
  571MOL0     C77016   4.311  10.413   9.872  0.2925  0.6527 -0.6825
  571MOL0     C77017   4.340  10.283   9.952  0.3063 -0.3110 -0.5785
  571MOL0     H77018   3.874  10.230   9.978  0.4726  0.5190  1.9050
  571MOL0     H77019   3.672  10.164  10.081 -3.0229  1.5453  0.7142
  571MOL0     H77020   3.410  10.160  10.047 -0.9012 -1.1187  0.4525
  571MOL0     H77021   3.502  10.153  10.203 -1.5176  2.0526  3.5247
  571MOL0     H77022   3.333  10.238  10.330  1.3785 -0.8271  0.8170
  571MOL0     H77023   3.256  10.103  10.251 -0.4082  0.6323  1.7602
  571MOL0     H77024   3.158  10.280  10.080 -2.9101  1.5523 -0.2806
  571MOL0     H77025   3.203  10.388  10.208  4.7674 -0.2019 -1.2221
  571MOL0     H77026   3.015  10.153  10.224 -1.9480  1.0576 -1.4745
  571MOL0     H77027   3.071  10.235  10.375  0.5528 -1.0163  0.0197
  571MOL0     H77028   2.969  10.436  10.327 -0.9708  0.9819 -0.3507
  571MOL0     H77029   2.919  10.374  10.155  0.5623 -0.7842 -0.8364
  571MOL0     H77030   2.826  10.282  10.428 -4.2776 -0.2471  0.4094
  571MOL0     H77031   2.741  10.392  10.312  0.6213  1.7400  2.8587
  571MOL0     H77032   2.671  10.136  10.326  0.4869 -1.3282 -1.5328
  571MOL0     H77033   2.811  10.106  10.220  2.0893  0.1076  2.4243
  571MOL0     H77034   2.573  10.287  10.162 -1.2283 -1.2803 -2.5887
  571MOL0     H77035   2.733  10.294  10.070  1.7777 -0.8356  1.9219
  571MOL0     H77036   2.809  10.051   9.949 -0.3150  1.3001 -1.6900
  571MOL0     H77037   2.767   9.773   9.876  0.6100 -0.7579 -1.9974
  571MOL0     H77038   2.605   9.727   9.924  0.7441 -1.6429 -1.2345
  571MOL0     H77039   2.642   9.718   9.654  4.0117 -0.2849  0.0191
  571MOL0     H77040   2.524   9.839   9.706  2.3428  2.8689 -3.6834
  571MOL0     H77041   2.680  10.022   9.671  1.6494 -1.5159  3.8110
  571MOL0     H77042   2.671   9.900   9.534  0.4017  0.4225 -0.0115
  571MOL0     H77043   2.879   9.982   9.542  0.0497 -1.9299 -2.3622
  571MOL0     H77044   2.879   9.806   9.561  2.2905 -0.2143  0.1376
  571MOL0     H77045   3.095   9.911   9.503  2.8879 -0.6105  0.4098
  571MOL0     H77046   3.339   9.912   9.521 -1.3939  0.1152 -0.4822
  571MOL0     H77047   3.668  10.227   9.675  0.7920 -1.4958  2.6073
  571MOL0     H77048   3.902  10.290   9.652 -1.9772  0.3603 -0.0985
  571MOL0     H77049   4.064  10.313   9.410  0.1957  2.8657 -0.2124
  571MOL0     H77050   4.126  10.331   9.567 -1.3751  2.2538 -2.9095
  571MOL0     H77051   4.280  10.182   9.346  2.5014 -0.5994  1.0520
  571MOL0     H77052   4.297  10.347   9.370  0.1885  1.0970  1.7202
  571MOL0     H77053   4.337  10.269   9.628 -0.0549  0.8116 -0.1578
  571MOL0     H77054   4.408  10.135   9.530  5.7745  0.9169  2.3330
  571MOL0     H77055   4.571  10.327   9.594  2.5651  1.4933 -2.3672
  571MOL0     H77056   4.478  10.424   9.478 -1.4236  0.1349  0.7927
  571MOL0     H77057   4.543  10.232   9.300  0.8714 -0.0492 -0.7196
  571MOL0     H77058   4.606  10.144   9.438 -0.4374  0.6487  0.1832
  571MOL0     H77059   4.715  10.398   9.320  0.5650  0.7717  1.0236
  571MOL0     H77060   4.778  10.327   9.472  1.9670  0.8817 -1.5188
  571MOL0     H77061   4.762  10.184   9.212  0.4544  2.7027 -1.7960
  571MOL0     H77062   4.853  10.141   9.362 -0.1573  0.0131  1.0965
  571MOL0     H77063   5.001  10.231   9.189  0.8075  0.1295  1.7544
  571MOL0     H77064   4.907  10.378   9.194  0.5505  1.3475  0.1885
  571MOL0     H77065   3.963   9.907   9.456  1.9898 -0.3602  2.4326
  571MOL0     H77066   3.746   9.839   9.519 -0.6604 -1.4053  2.3682
  571MOL0     H77067   3.321  10.030   9.919 -0.7765  0.3882  0.8711
  571MOL0     H77068   3.096  10.027   9.929  0.7981 -0.8090  1.1693
  571MOL0     H77069   3.528  10.572  10.051 -1.4844  0.7105 -2.5372
  571MOL0     H77070   3.741  10.637   9.964  0.7834 -0.2055  1.4941
  571MOL0     H77071   4.106  10.654   9.771 -2.5266 -3.0475 -0.0872
  571MOL0     H77072   4.296  10.721   9.644 -0.8048  0.2620 -0.2888
  571MOL0     H77073   4.518  10.799   9.672 -2.3802  1.0369 -1.9686
  571MOL0     H77074   4.496  10.733   9.511  0.9240 -1.0061 -0.1965
  571MOL0     H77075   4.771  10.743   9.644 -2.3797 -1.8085  0.5592
  571MOL0     H77076   4.717  10.857   9.514 -0.7126 -0.1846 -0.8329
  571MOL0     H77077   4.682  10.665   9.361  0.2921 -0.7892 -0.6160
  571MOL0     H77078   4.750  10.562   9.492  2.7860  0.2750 -0.1149
  571MOL0     H77079   4.899  10.631   9.296  1.3479 -0.2808  1.9546
  571MOL0     H77080   4.878  10.807   9.343 -2.2547  0.6125  1.9431
  571MOL0     H77081   5.189  10.614   9.559 -1.4063 -1.9594 -0.0473
  571MOL0     H77082   4.521  10.412   9.835  0.8012  1.8468 -0.5517
  571MOL0     H77083   4.265  10.213   9.915 -1.6918  0.6614  1.3174
  571MOL0     H77084   4.439  10.238   9.942 -0.0354 -2.3954  3.2131
  571MOL0     H77085   4.321  10.305  10.058  0.8542  2.8991 -1.0447
  572MOL0     O77086  10.870   2.594   1.165  0.2006 -0.3884  0.3237
  572MOL0     C77087  10.848   2.471   1.153  0.2565  0.6860 -0.4236
  572MOL0     O77088  10.933   2.371   1.177  0.2434 -0.1183  0.1488
  572MOL0     C77089  11.064   2.384   1.216 -0.9196 -0.5830  0.2593
  572MOL0     C77090  11.147   2.498   1.222  1.0979  0.4444 -0.5613
  572MOL0     C77091  11.279   2.493   1.271  0.3645  0.0595 -0.1488
  572MOL0     C77092  11.337   2.366   1.305 -0.4511 -0.6688  0.5163
  572MOL0     O77093  11.475   2.348   1.334  0.7565  0.0419  0.7224
  572MOL0     C77094  11.558   2.457   1.388  0.6458  0.4699  0.1233
  572MOL0     C77095  11.703   2.410   1.398 -0.2123  1.7391  0.7694
  572MOL0     C77096  11.810   2.507   1.424 -0.8636 -0.5472  0.3534
  572MOL0     C77097  11.954   2.452   1.411  0.1383  1.1429  0.1419
  572MOL0     C77098  12.055   2.535   1.495  0.0855  0.1096  0.7824
  572MOL0     C77099  12.195   2.474   1.475  0.7403  0.0926 -1.1927
  572MOL0     C77100  12.302   2.555   1.547 -0.3756 -0.3825 -0.3465
  572MOL0     C77101  12.334   2.695   1.487 -0.1562  0.0448  0.0981
  572MOL0     N77102  12.476   2.720   1.526 -0.1631  0.4072  0.2486
  572MOL0     C77103  12.514   2.827   1.605  0.0389  0.2450  0.2343
  572MOL0     C77104  12.647   2.807   1.627  0.2423 -0.0853  0.8287
  572MOL0     C77105  12.721   2.895   1.724  0.6619  0.2203 -1.2305
  572MOL0     C77106  12.803   2.998   1.640 -0.1725 -0.1099  0.1488
  572MOL0     C77107  12.850   3.121   1.719 -0.1586  0.1684  0.1213
  572MOL0     C77108  12.919   3.086   1.842 -0.5465  0.4380  0.0421
  572MOL0     O77109  13.052   3.048   1.806 -0.6441  0.4217  0.0724
  572MOL0     C77110  13.154   3.073   1.897 -0.2252  0.0917  0.2957
  572MOL0     C77111  13.274   3.036   1.859 -0.0948  0.1131  0.4555
  572MOL0     C77112  13.390   3.059   1.941  0.7727  0.4982 -0.0994
  572MOL0     C77113  13.379   3.104   2.074  0.7637  0.3413 -0.8226
  572MOL0     C77114  13.491   3.116   2.160  0.1908  0.7472 -0.3094
  572MOL0     O77115  13.611   3.075   2.107  0.2591 -0.4838  0.4395
  572MOL0     C77116  13.733   3.102   2.168 -0.0761  0.0937  0.6214
  572MOL0     C77117  13.777   3.046   2.283 -0.3802 -0.3968 -0.6061
  572MOL0     C77118  13.897   3.086   2.343 -0.0946  0.0417  0.1348
  572MOL0     C77119  13.971   3.187   2.279 -0.9754 -0.8638  0.2491
  572MOL0     O77120  14.077   3.244   2.336 -0.0505 -0.2199 -0.4246
  572MOL0     C77121  14.107   3.230   2.473 -0.7155 -0.0032 -0.6612
  572MOL0     C77122  14.016   3.291   2.576  1.1693 -0.3659 -0.5364
  572MOL0     C77123  13.994   3.438   2.558  0.4240 -0.4488  0.1415
  572MOL0     C77124  14.095   3.512   2.629  0.2776 -0.1321 -0.6076
  572MOL0     C77125  14.075   3.667   2.613  0.6974 -0.7385  0.4064
  572MOL0     C77126  14.173   3.727   2.508 -0.1082  0.5944 -0.8247
  572MOL0     C77127  14.145   3.686   2.355 -0.3563 -0.1090 -0.4086
  572MOL0     C77128  14.260   3.730   2.271  0.5567  0.0097 -0.8586
  572MOL0    Cl77129  14.219   3.700   2.101  0.3470  0.0249 -0.4059
  572MOL0     C77130  13.927   3.242   2.157 -0.7236 -0.1391  0.2728
  572MOL0     C77131  13.811   3.194   2.100  0.4975  1.0017  0.1197
  572MOL0     O77132  13.477   3.138   2.276  0.2686 -0.3093 -0.6513
  572MOL0     C77133  13.246   3.137   2.111 -0.5486 -0.2283 -0.2867
  572MOL0     C77134  13.137   3.135   2.023  0.0007 -0.5864  0.5574
  572MOL0     N77135  12.698   2.700   1.554 -0.6266 -0.8231  0.4943
  572MOL0     N77136  12.593   2.651   1.490 -0.4236 -0.4739  0.2100
  572MOL0     C77137  11.256   2.253   1.300  0.1338  0.2452 -0.2053
  572MOL0     C77138  11.118   2.263   1.265 -0.9932 -0.2119 -0.2420
  572MOL0     C77139  10.701   2.429   1.140  0.3125 -0.8821  0.5456
  572MOL0     C77140  10.656   2.348   1.235 -0.5015  0.3711 -0.0773
  572MOL0     C77141  10.524   2.290   1.240  0.5017 -0.3781 -0.7681
  572MOL0     C77142  10.429   2.344   1.152 -0.0468  0.4949 -0.4889
  572MOL0     O77143  10.300   2.297   1.169 -0.6086  0.6575  0.8423
  572MOL0     C77144  10.194   2.376   1.123  1.1398  0.0137 -0.1098
  572MOL0     C77145  10.060   2.293   1.136 -0.7628 -0.0240 -0.3466
  572MOL0     C77146  10.059   2.170   1.046  0.5828 -0.2779  0.5355
  572MOL0     C77147   9.919   2.104   1.058  0.1307 -0.0107  0.0947
  572MOL0     C77148   9.904   2.009   0.941 -0.7638 -0.4289  0.5602
  572MOL0     C77149   9.899   1.932   0.846 -0.6867 -0.0608 -0.1858
  572MOL0     C77150  10.469   2.434   1.059  0.4083 -0.0304 -1.5851
  572MOL0     C77151  10.605   2.483   1.049 -0.4921  0.8040 -0.4689
  572MOL0     C77152  10.633   2.578   0.949 -0.6414 -0.5818  0.0351
  572MOL0     H77153  11.112   2.594   1.185 -1.0824  0.0499  0.3453
  572MOL0     H77154  11.335   2.585   1.284  1.2024 -0.6035  1.1232
  572MOL0     H77155  11.558   2.547   1.325  0.9313  0.0208 -0.5267
  572MOL0     H77156  11.519   2.490   1.485  0.0459  1.4722 -0.4442
  572MOL0     H77157  11.728   2.364   1.302  0.3314 -0.5017  1.8937
  572MOL0     H77158  11.697   2.325   1.468 -0.7847 -1.3757 -2.7716
  572MOL0     H77159  11.800   2.549   1.525  2.7374 -0.3806  0.7608
  572MOL0     H77160  11.807   2.585   1.347 -0.8572 -2.0575 -1.2377
  572MOL0     H77161  11.946   2.356   1.462 -2.8037  1.2168  0.0175
  572MOL0     H77162  11.982   2.440   1.306 -1.3689 -1.0356 -0.0764
  572MOL0     H77163  12.067   2.637   1.456 -0.9420  1.1594  3.0082
  572MOL0     H77164  12.012   2.546   1.595  0.1836 -0.2098  0.8606
  572MOL0     H77165  12.187   2.376   1.522  2.9942  1.3784  2.3143
  572MOL0     H77166  12.224   2.461   1.371  0.7113 -2.8628 -0.9124
  572MOL0     H77167  12.390   2.491   1.540  0.6631  0.2115  4.2640
  572MOL0     H77168  12.288   2.566   1.655 -4.9807  1.2819 -0.8618
  572MOL0     H77169  12.316   2.707   1.380  0.6463  0.6352  0.0203
  572MOL0     H77170  12.268   2.766   1.536 -0.4050 -1.2213  1.6695
  572MOL0     H77171  12.441   2.891   1.653  1.4270 -0.2355  3.1860
  572MOL0     H77172  12.653   2.942   1.796  1.3214 -0.3990 -0.1923
  572MOL0     H77173  12.788   2.837   1.787 -0.6351  0.0572  0.0687
  572MOL0     H77174  12.899   2.956   1.608  1.7048  2.2996  2.2180
  572MOL0     H77175  12.745   3.036   1.555  0.7939  2.3814  0.5243
  572MOL0     H77176  12.755   3.167   1.744 -0.7131 -0.2639 -1.0861
  572MOL0     H77177  12.920   3.172   1.651 -0.3745  1.2672  0.7111
  572MOL0     H77178  12.880   3.013   1.913 -1.7284  1.5241  0.5470
  572MOL0     H77179  12.917   3.186   1.888  1.2702  1.9408 -2.8490
  572MOL0     H77180  13.303   2.990   1.765 -0.9236 -0.6520  0.5656
  572MOL0     H77181  13.486   3.031   1.899  0.2368 -2.0194  0.2025
  572MOL0     H77182  13.722   2.970   2.337  1.1585 -1.3461 -0.3097
  572MOL0     H77183  13.939   3.046   2.434  0.5470 -1.4549 -0.7836
  572MOL0     H77184  14.136   3.130   2.507  0.0684  0.4459  0.0143
  572MOL0     H77185  14.202   3.283   2.477  0.1583 -1.4824 -1.0263
  572MOL0     H77186  13.918   3.243   2.578  1.0212 -0.1149 -1.2463
  572MOL0     H77187  14.063   3.269   2.672  0.2521  0.2442  0.0709
  572MOL0     H77188  13.994   3.475   2.455 -0.2418  2.0589  0.9708
  572MOL0     H77189  13.897   3.471   2.596  0.4745 -1.0527  0.8216
  572MOL0     H77190  14.200   3.486   2.611  0.4014  0.2511 -0.4501
  572MOL0     H77191  14.082   3.492   2.736  0.3609 -2.5926 -0.9885
  572MOL0     H77192  14.099   3.712   2.709 -1.3621  0.3637  0.4618
  572MOL0     H77193  13.979   3.705   2.575  1.7383  0.9242 -0.7254
  572MOL0     H77194  14.162   3.836   2.521 -1.2207  0.3039  1.1613
  572MOL0     H77195  14.274   3.696   2.537  0.0588  1.3646 -0.5571
  572MOL0     H77196  14.055   3.738   2.320 -0.2612  1.9207  2.1303
  572MOL0     H77197  14.131   3.578   2.339  0.0293  0.0278 -1.8530
  572MOL0     H77198  14.280   3.835   2.294 -0.9221  0.2113 -0.4034
  572MOL0     H77199  14.353   3.673   2.285  1.8856  1.3176 -3.4890
  572MOL0     H77200  13.992   3.313   2.107  0.6883 -2.1926 -0.9125
  572MOL0     H77201  13.784   3.242   2.006  2.0416  0.8014 -0.4532
  572MOL0     H77202  13.223   3.179   2.209  0.7207 -2.6557  1.1404
  572MOL0     H77203  13.047   3.180   2.065 -0.3983  0.2582 -1.0860
  572MOL0     H77204  11.282   2.155   1.337  0.5264  0.6219  0.5471
  572MOL0     H77205  11.047   2.181   1.270 -0.3999 -0.7066  0.2070
  572MOL0     H77206  10.728   2.301   1.301 -0.4359  0.2627 -0.2260
  572MOL0     H77207  10.492   2.218   1.314 -0.0162  0.4388 -0.1861
  572MOL0     H77208  10.200   2.405   1.017  1.2622 -2.6477 -0.9140
  572MOL0     H77209  10.198   2.468   1.181  0.5941 -2.3721  4.0868
  572MOL0     H77210   9.968   2.347   1.115 -0.8568 -0.7822 -1.9729
  572MOL0     H77211  10.050   2.263   1.241 -2.9855  1.1051 -0.1863
  572MOL0     H77212  10.139   2.099   1.072  0.6885 -0.7882 -1.0866
  572MOL0     H77213  10.074   2.206   0.944  0.8208 -0.7374  0.4062
  572MOL0     H77214   9.916   2.041   1.148 -0.9818 -0.6822 -0.3951
  572MOL0     H77215   9.837   2.175   1.062 -0.1696 -0.0138 -3.2211
  572MOL0     H77216   9.910   1.872   0.758  0.8355  0.0676 -0.1036
  572MOL0     H77217  10.392   2.465   0.989 -3.1007  0.4452  2.1431
  572MOL0     H77218  10.716   2.547   0.885  0.6857  0.4300  1.2030
  572MOL0     H77219  10.558   2.605   0.874  1.2331  2.2892 -0.9846
  572MOL0     H77220  10.660   2.667   1.005 -0.5278  0.3603 -1.4568
  573MOL0     O77221   2.035   4.749   5.648 -0.3102 -0.5474 -0.1452
  573MOL0     C77222   2.045   4.669   5.737  0.3044 -0.6854 -0.3610
  573MOL0     O77223   2.157   4.597   5.773  0.2276  0.2698  0.3936
  573MOL0     C77224   2.264   4.568   5.693 -0.2235 -0.1173 -0.0292
  573MOL0     C77225   2.384   4.524   5.743  0.7665  0.0837  0.2828
  573MOL0     C77226   2.490   4.490   5.660 -0.0922  0.6659  0.1314
  573MOL0     C77227   2.484   4.491   5.525 -0.0969 -0.1959 -0.0216
  573MOL0     O77228   2.586   4.441   5.442  0.4996 -0.5328  0.0355
  573MOL0     C77229   2.715   4.423   5.495 -0.9214 -0.0738  0.5624
  573MOL0     C77230   2.804   4.382   5.386  0.7938  0.2312  0.1249
  573MOL0     C77231   2.945   4.360   5.439 -0.1411  0.4924  0.5206
  573MOL0     C77232   3.027   4.306   5.329  0.6645 -0.6425 -0.0847
  573MOL0     C77233   3.179   4.346   5.349 -0.6058 -0.4922  0.8999
  573MOL0     C77234   3.252   4.245   5.439  0.1704  0.5762 -0.0508
  573MOL0     C77235   3.404   4.262   5.459 -0.0038 -0.6606  0.3606
  573MOL0     C77236   3.482   4.288   5.329 -0.7819 -0.0620 -0.3746
  573MOL0     N77237   3.631   4.305   5.364  0.2750 -0.0870 -0.3342
  573MOL0     C77238   3.726   4.202   5.331 -0.6926 -0.8788  0.0802
  573MOL0     C77239   3.835   4.239   5.406 -0.4625  1.0842  0.3185
  573MOL0     C77240   3.967   4.159   5.429 -0.5992  0.1200 -0.4824
  573MOL0     C77241   4.100   4.234   5.435 -0.1771 -0.5256 -0.0697
  573MOL0     C77242   4.194   4.189   5.323 -0.5659  0.3227  0.9192
  573MOL0     C77243   4.318   4.281   5.317 -0.5892  0.5109 -0.0296
  573MOL0     O77244   4.405   4.249   5.427 -0.1395  0.4237  0.0640
  573MOL0     C77245   4.501   4.343   5.458  0.0520 -0.3867  0.2614
  573MOL0     C77246   4.478   4.403   5.582 -1.0449 -0.3338  0.3030
  573MOL0     C77247   4.565   4.509   5.616  0.4284  0.3954 -0.1917
  573MOL0     C77248   4.658   4.561   5.526  0.2475 -0.1118 -0.0984
  573MOL0     C77249   4.750   4.670   5.558  0.7163  0.1867  0.2748
  573MOL0     O77250   4.830   4.711   5.453  0.1611 -0.0805 -0.1332
  573MOL0     C77251   4.950   4.770   5.483 -0.2825  0.6037 -0.0475
  573MOL0     C77252   4.953   4.899   5.532  0.8951  0.3997  0.3601
  573MOL0     C77253   5.072   4.956   5.562 -0.3741 -0.1701  0.3650
  573MOL0     C77254   5.197   4.891   5.534 -0.0253 -0.1344  0.0238
  573MOL0     O77255   5.310   4.955   5.585 -0.7585 -0.4134  0.1248
  573MOL0     C77256   5.434   4.939   5.510 -0.1376 -0.2435  0.0669
  573MOL0     C77257   5.553   5.008   5.566  0.5858 -0.4506  0.3987
  573MOL0     C77258   5.688   4.951   5.524  0.5161 -0.4234  0.2245
  573MOL0     C77259   5.793   5.048   5.575 -0.4211  0.0658  0.1349
  573MOL0     C77260   5.791   5.189   5.517  0.3420  0.0740 -0.2793
  573MOL0     C77261   5.909   5.271   5.555  0.1976  0.6524  0.1813
  573MOL0     C77262   5.902   5.410   5.500 -0.5551  0.4223  0.4167
  573MOL0     C77263   6.024   5.493   5.484 -0.2254  0.0850 -0.2665
  573MOL0    Cl77264   6.094   5.500   5.657  0.0718  0.4658 -0.3177
  573MOL0     C77265   5.190   4.760   5.482 -1.3001 -0.0073 -1.0886
  573MOL0     C77266   5.072   4.700   5.463  0.3010  0.6030 -0.5193
  573MOL0     O77267   4.762   4.701   5.678  0.0405  0.4293 -0.2305
  573MOL0     C77268   4.668   4.499   5.399 -0.0551 -0.1622  0.1909
  573MOL0     C77269   4.585   4.393   5.359 -0.5740  0.4095 -0.2940
  573MOL0     N77270   3.810   4.349   5.481 -0.9008 -0.3878  0.6910
  573MOL0     N77271   3.694   4.385   5.454  0.5552 -0.9842 -0.2540
  573MOL0     C77272   2.361   4.531   5.469 -0.6603 -0.3563 -0.1688
  573MOL0     C77273   2.254   4.569   5.549  0.0536 -0.2174  0.5501
  573MOL0     C77274   1.936   4.642   5.828 -0.4122 -0.7797  0.9107
  573MOL0     C77275   1.959   4.598   5.960 -0.0552 -0.4195  0.7444
  573MOL0     C77276   1.854   4.569   6.052 -0.2128  0.8424  0.5843
  573MOL0     C77277   1.716   4.586   6.006 -1.0527  0.5383 -0.1953
  573MOL0     O77278   1.607   4.549   6.079  0.2290 -0.6648 -0.2784
  573MOL0     C77279   1.627   4.461   6.188  0.9080 -0.0613 -0.3672
  573MOL0     C77280   1.490   4.449   6.272 -0.9340  0.1304  0.3547
  573MOL0     C77281   1.395   4.361   6.191  0.2144 -1.1875 -1.1943
  573MOL0     C77282   1.392   4.219   6.244  0.0935  0.5841  0.3441
  573MOL0     C77283   1.303   4.210   6.370  0.9065  0.0014  0.1071
  573MOL0     C77284   1.236   4.202   6.475  0.1602  0.0579  0.2242
  573MOL0     C77285   1.697   4.629   5.873  0.1354 -0.5752 -0.1135
  573MOL0     C77286   1.803   4.654   5.783  0.8482  1.0322 -0.6136
  573MOL0     C77287   1.759   4.669   5.642  0.0761  1.0698 -0.3469
  573MOL0     H77288   2.388   4.506   5.850  3.3658 -0.1662  0.2025
  573MOL0     H77289   2.573   4.450   5.717  0.0443  0.6477 -0.0799
  573MOL0     H77290   2.734   4.516   5.549 -2.7175  0.6432  0.0149
  573MOL0     H77291   2.709   4.344   5.571 -2.5634 -2.8513 -2.1897
  573MOL0     H77292   2.801   4.470   5.321  0.0149  0.3175  0.2705
  573MOL0     H77293   2.769   4.291   5.336  0.8593  0.0757  0.3576
  573MOL0     H77294   2.946   4.290   5.523  0.7059 -0.9598 -0.6460
  573MOL0     H77295   2.977   4.456   5.480  2.8546 -0.4262  0.5779
  573MOL0     H77296   3.029   4.197   5.327  2.6416 -0.7520  2.3915
  573MOL0     H77297   3.000   4.342   5.230  3.9697 -0.8088 -1.1862
  573MOL0     H77298   3.223   4.350   5.249 -3.1877  0.8661 -0.2969
  573MOL0     H77299   3.193   4.450   5.379  0.9266 -0.1058 -0.9564
  573MOL0     H77300   3.204   4.262   5.536  0.7602  1.2456  0.1347
  573MOL0     H77301   3.227   4.144   5.407  0.1420  1.0213 -1.4989
  573MOL0     H77302   3.450   4.178   5.513 -0.1149 -0.7735  0.2805
  573MOL0     H77303   3.418   4.351   5.521 -3.1921  1.2290 -1.3852
  573MOL0     H77304   3.466   4.210   5.253 -0.4043 -1.5838  1.0564
  573MOL0     H77305   3.448   4.385   5.292  0.9414  0.3401 -0.9754
  573MOL0     H77306   3.721   4.112   5.270 -1.9329  1.0686 -2.9129
  573MOL0     H77307   3.943   4.112   5.525 -0.6618  0.5737 -0.2753
  573MOL0     H77308   3.970   4.084   5.349 -1.3920 -0.7457  0.2765
  573MOL0     H77309   4.071   4.339   5.426  0.1814 -0.2130  1.8500
  573MOL0     H77310   4.149   4.226   5.533 -0.4110  1.8319  0.2896
  573MOL0     H77311   4.136   4.195   5.230  0.1403 -0.5864  0.4072
  573MOL0     H77312   4.212   4.082   5.340  0.3338  0.5264  1.2562
  573MOL0     H77313   4.286   4.385   5.318  1.5052  1.1983  1.4805
  573MOL0     H77314   4.370   4.273   5.221 -0.4864  1.7368 -0.0917
  573MOL0     H77315   4.391   4.385   5.644 -0.0642 -0.1340  1.7969
  573MOL0     H77316   4.549   4.550   5.715 -1.2768 -0.5541 -0.0220
  573MOL0     H77317   4.865   4.960   5.553 -0.6654 -1.5749 -0.1832
  573MOL0     H77318   5.079   5.039   5.631 -2.2900 -0.9116  1.5226
  573MOL0     H77319   5.467   4.835   5.520  0.0117 -0.3679 -1.5108
  573MOL0     H77320   5.420   4.966   5.405 -0.8958 -1.2522 -0.1068
  573MOL0     H77321   5.553   5.115   5.540 -0.4379 -0.2498  1.1286
  573MOL0     H77322   5.546   5.003   5.676 -1.3455 -0.8996  0.2840
  573MOL0     H77323   5.688   4.859   5.582 -3.3355 -1.2511 -0.8642
  573MOL0     H77324   5.701   4.915   5.422 -0.6227 -0.0411 -0.0701
  573MOL0     H77325   5.891   5.003   5.558 -0.3646 -0.2978  1.2939
  573MOL0     H77326   5.793   5.049   5.685 -1.6359 -0.9395  0.1685
  573MOL0     H77327   5.707   5.245   5.558  0.4154 -1.4429  2.1362
  573MOL0     H77328   5.782   5.187   5.408 -0.1793 -0.1544 -0.2340
  573MOL0     H77329   5.918   5.270   5.664 -0.4889  0.4792  0.2393
  573MOL0     H77330   5.995   5.222   5.509  0.3127  1.0306 -0.0115
  573MOL0     H77331   5.840   5.474   5.563 -2.5189  2.2315 -3.0303
  573MOL0     H77332   5.853   5.408   5.402  0.6390  1.4744 -0.2279
  573MOL0     H77333   6.100   5.444   5.422 -1.2792 -2.6906  0.4840
  573MOL0     H77334   6.000   5.588   5.437 -0.5351  0.9800  1.6087
  573MOL0     H77335   5.279   4.703   5.458 -1.1586 -0.3737  0.2773
  573MOL0     H77336   5.068   4.604   5.412  3.2854 -0.1366  0.4108
  573MOL0     H77337   4.750   4.524   5.332  0.9826 -1.1770  1.0360
  573MOL0     H77338   4.584   4.358   5.257  0.0333 -2.0750  0.4915
  573MOL0     H77339   2.364   4.532   5.360  1.0738 -1.7852 -0.1750
  573MOL0     H77340   2.164   4.598   5.494  1.1611  1.6807 -0.3591
  573MOL0     H77341   2.058   4.572   5.995  0.3124 -0.1944 -0.1026
  573MOL0     H77342   1.886   4.540   6.152 -1.1462  1.4204  1.0615
  573MOL0     H77343   1.706   4.498   6.255 -0.8338 -1.4363  2.6694
  573MOL0     H77344   1.665   4.360   6.168  1.3642  0.1765 -0.7232
  573MOL0     H77345   1.460   4.554   6.276 -1.1769  0.0938 -0.3556
  573MOL0     H77346   1.510   4.414   6.373 -1.4417  0.1370  0.4581
  573MOL0     H77347   1.427   4.364   6.087  3.2173  3.3482 -0.4089
  573MOL0     H77348   1.300   4.415   6.200  1.4137  0.8246  0.0885
  573MOL0     H77349   1.355   4.152   6.165  1.1069  1.9269 -1.3305
  573MOL0     H77350   1.492   4.180   6.264 -0.2179  0.2624  1.3247
  573MOL0     H77351   1.202   4.194   6.576  0.8599 -2.8477  0.3027
  573MOL0     H77352   1.593   4.630   5.844  0.3420 -0.8596 -0.9004
  573MOL0     H77353   1.650   4.655   5.640  0.1712 -0.5085  1.9043
  573MOL0     H77354   1.795   4.760   5.593 -0.2667  0.0701 -2.5535
  573MOL0     H77355   1.806   4.591   5.583  0.4226  0.8272  0.2385
  574MOL0     O77356  10.011  10.689   5.010 -0.5145 -0.5218  0.0037
  574MOL0     C77357   9.951  10.782   5.063  0.9923  0.9334 -0.8499
  574MOL0     O77358   9.999  10.906   5.098  0.5310 -0.1394 -0.3345
  574MOL0     C77359  10.123  10.945   5.054 -0.2873  0.1671  0.2035
  574MOL0     C77360  10.239  10.864   5.046 -0.5164 -0.6118 -0.0339
  574MOL0     C77361  10.361  10.921   5.020  1.0028  0.3019 -0.6750
  574MOL0     C77362  10.374  11.059   4.990 -0.3604  0.6911 -0.5290
  574MOL0     O77363  10.503  11.113   4.969 -0.2033 -0.0114 -0.1536
  574MOL0     C77364  10.517  11.250   4.922 -0.8293  0.3705  0.2603
  574MOL0     C77365  10.649  11.259   4.839  0.1000  1.4442 -0.8441
  574MOL0     C77366  10.777  11.211   4.924  0.1030 -0.2010 -0.2958
  574MOL0     C77367  10.905  11.253   4.856 -0.1149 -0.0414  0.5738
  574MOL0     C77368  11.024  11.199   4.934 -0.4804 -0.6856  0.7868
  574MOL0     C77369  11.156  11.278   4.930  0.2427 -0.0302  0.3824
  574MOL0     C77370  11.268  11.239   5.021 -0.1663 -0.3982 -0.3560
  574MOL0     C77371  11.388  11.334   5.047  0.2705  0.5093 -0.3239
  574MOL0     N77372  11.505  11.268   5.118 -0.2475  0.0829  0.2437
  574MOL0     C77373  11.507  11.249   5.259  0.8346  0.3499 -0.2242
  574MOL0     C77374  11.639  11.221   5.281  0.1371 -0.3759  0.4406
  574MOL0     C77375  11.689  11.196   5.414  0.0784  0.1536  0.1048
  574MOL0     C77376  11.834  11.147   5.430 -1.6289 -0.2976  0.1179
  574MOL0     C77377  11.849  11.003   5.377  0.0227 -0.2798  1.1852
  574MOL0     C77378  11.993  10.961   5.347 -0.1543  0.9103  0.2001
  574MOL0     O77379  12.080  10.966   5.466  0.4278  0.4048  0.2574
  574MOL0     C77380  12.219  10.957   5.461 -0.4563 -0.1226 -0.3525
  574MOL0     C77381  12.293  10.938   5.341 -0.0846  0.4715  0.7178
  574MOL0     C77382  12.431  10.916   5.344  1.2967 -0.2396  0.1887
  574MOL0     C77383  12.503  10.940   5.463 -0.4290 -0.3387  0.3152
  574MOL0     C77384  12.653  10.929   5.461 -0.1098  0.8169 -0.2798
  574MOL0     O77385  12.719  11.002   5.554 -0.1688 -0.5510 -0.0454
  574MOL0     C77386  12.852  10.986   5.573  0.2392 -0.1616  0.3550
  574MOL0     C77387  12.906  10.855   5.582 -0.3112  0.0920  0.2916
  574MOL0     C77388  13.034  10.840   5.607  0.3619 -0.1723 -0.2718
  574MOL0     C77389  13.119  10.945   5.638  0.0832  0.4222  0.1800
  574MOL0     O77390  13.250  10.929   5.667 -0.6174  0.1211 -0.4199
  574MOL0     C77391  13.280  10.843   5.778  0.4959 -0.6386  0.3877
  574MOL0     C77392  13.208  10.880   5.907 -0.7411 -0.4339 -0.1116
  574MOL0     C77393  13.260  11.012   5.962 -0.2092  0.2508 -0.0575
  574MOL0     C77394  13.156  11.084   6.043 -0.7428  0.2609  0.0779
  574MOL0     C77395  13.215  11.209   6.118 -0.4002 -0.2168  0.4324
  574MOL0     C77396  13.353  11.192   6.188  0.3962 -0.4311 -0.2121
  574MOL0     C77397  13.383  11.309   6.277  0.5369 -0.4719  0.7142
  574MOL0     C77398  13.530  11.320   6.314  0.5159 -0.4389  0.4774
  574MOL0    Cl77399  13.588  11.197   6.428  0.2845  0.4667  0.1659
  574MOL0     C77400  13.062  11.079   5.642  0.0767  0.4159  0.1484
  574MOL0     C77401  12.929  11.096   5.608  0.4419 -0.3159  0.4912
  574MOL0     O77402  12.707  10.855   5.385 -0.5734  0.5037 -0.5071
  574MOL0     C77403  12.436  10.965   5.582 -0.5402  0.7253 -0.4570
  574MOL0     C77404  12.294  10.967   5.578  0.7484  0.3333 -0.6743
  574MOL0     N77405  11.713  11.234   5.163  0.4713 -0.0356  0.3052
  574MOL0     N77406  11.630  11.261   5.064 -0.1138 -0.0169 -0.8645
  574MOL0     C77407  10.249  11.132   4.987 -0.1724 -0.0339  0.0090
  574MOL0     C77408  10.132  11.078   5.020 -0.1244  0.5608  0.2772
  574MOL0     C77409   9.802  10.760   5.093  0.4641  0.0072  0.7403
  574MOL0     C77410   9.766  10.630   5.104 -0.0036 -0.0135 -0.6259
  574MOL0     C77411   9.637  10.607   5.148  0.5012  0.0014  0.1654
  574MOL0     C77412   9.539  10.691   5.190 -0.4974 -0.2828  0.6696
  574MOL0     O77413   9.428  10.636   5.238  0.4375 -0.1838 -0.7951
  574MOL0     C77414   9.333  10.729   5.295  0.7721  0.1206  0.8132
  574MOL0     C77415   9.202  10.659   5.328 -0.1833  0.0616  0.7940
  574MOL0     C77416   9.113  10.661   5.206 -0.2752  0.0184 -0.6944
  574MOL0     C77417   8.986  10.590   5.215  1.6024  0.2105  0.5274
  574MOL0     C77418   8.905  10.615   5.094  0.3921 -0.1294 -0.0178
  574MOL0     C77419   8.857  10.616   4.980  1.0664  0.5611 -0.3398
  574MOL0     C77420   9.579  10.829   5.182 -0.1631 -0.5366 -0.0151
  574MOL0     C77421   9.710  10.864   5.135 -0.5192 -0.1224 -0.0486
  574MOL0     C77422   9.741  11.010   5.132 -0.3166  0.4512  0.4369
  574MOL0     H77423  10.227  10.761   5.077 -2.3900  0.1751  2.1668
  574MOL0     H77424  10.449  10.860   5.031 -1.3144 -3.3792 -0.9058
  574MOL0     H77425  10.443  11.264   4.842  1.5321 -0.8708 -2.3307
  574MOL0     H77426  10.506  11.324   5.001  1.5495  2.2628 -1.0444
  574MOL0     H77427  10.649  11.363   4.806  1.5949  1.5139 -0.6758
  574MOL0     H77428  10.648  11.186   4.757  0.3559 -1.8918  1.8635
  574MOL0     H77429  10.767  11.102   4.931 -0.3838 -0.1067  0.6518
  574MOL0     H77430  10.772  11.256   5.024 -0.6846  1.8225 -1.1996
  574MOL0     H77431  10.914  11.229   4.749  3.4624  1.7756  0.2920
  574MOL0     H77432  10.924  11.360   4.849  2.2735 -0.3533  1.4724
  574MOL0     H77433  10.985  11.196   5.037 -1.6708 -0.0105  0.3828
  574MOL0     H77434  11.046  11.097   4.902 -1.3936  0.1774 -3.1099
  574MOL0     H77435  11.184  11.274   4.825 -0.5285  2.0880  0.0514
  574MOL0     H77436  11.142  11.385   4.948 -2.5387 -0.7902  3.8434
  574MOL0     H77437  11.317  11.147   4.988 -0.4165 -0.5052 -0.4361
  574MOL0     H77438  11.226  11.211   5.118  1.8665  0.3319  0.8024
  574MOL0     H77439  11.432  11.367   4.953  2.9702  1.6495  1.2173
  574MOL0     H77440  11.347  11.423   5.095 -1.7927 -0.4350 -0.2050
  574MOL0     H77441  11.425  11.244   5.329  1.6091  0.1035  0.6863
  574MOL0     H77442  11.681  11.293   5.463  1.3056  1.7845 -2.6846
  574MOL0     H77443  11.621  11.120   5.456  1.4176 -0.6065  0.9776
  574MOL0     H77444  11.888  11.216   5.364  3.3760 -1.6493  2.3647
  574MOL0     H77445  11.852  11.151   5.537 -1.1972 -1.5893  0.1040
  574MOL0     H77446  11.793  10.992   5.284 -0.2765  0.6659  1.2408
  574MOL0     H77447  11.810  10.922   5.439  2.1854 -2.1237  0.2955
  574MOL0     H77448  12.033  11.028   5.271  1.9047  0.1406  0.5422
  574MOL0     H77449  11.996  10.855   5.319 -0.2302  0.1412  2.8525
  574MOL0     H77450  12.234  10.936   5.250 -1.8803  2.4123  1.7519
  574MOL0     H77451  12.489  10.903   5.253  1.5488 -0.1353  0.3319
  574MOL0     H77452  12.844  10.767   5.574 -0.9933  0.6824 -1.5099
  574MOL0     H77453  13.071  10.739   5.619  0.3321 -0.4385 -2.1081
  574MOL0     H77454  13.244  10.746   5.744  0.0298 -0.6427  0.8916
  574MOL0     H77455  13.389  10.833   5.784  0.4258 -0.9213  1.2838
  574MOL0     H77456  13.100  10.885   5.894 -0.6584  1.6848 -0.4511
  574MOL0     H77457  13.219  10.803   5.984 -4.0328 -2.3145 -1.3341
  574MOL0     H77458  13.348  10.998   6.025 -0.2596  3.7097  0.9865
  574MOL0     H77459  13.295  11.075   5.880  1.6291 -1.0412 -0.3420
  574MOL0     H77460  13.119  11.018   6.122 -0.5110 -0.3342 -0.3057
  574MOL0     H77461  13.073  11.101   5.975  1.3448  0.0398 -2.7159
  574MOL0     H77462  13.141  11.239   6.193 -1.4031  0.1509 -0.6624
  574MOL0     H77463  13.238  11.293   6.052  0.8049  0.4779  1.6860
  574MOL0     H77464  13.338  11.111   6.260 -0.8904 -0.5781 -0.6198
  574MOL0     H77465  13.438  11.178   6.121  0.2138  0.2387 -0.5877
  574MOL0     H77466  13.329  11.282   6.369 -0.4420 -2.2410 -0.3301
  574MOL0     H77467  13.344  11.404   6.238  2.3475  0.9865  2.2569
  574MOL0     H77468  13.594  11.323   6.225 -0.8173 -1.2817 -0.5477
  574MOL0     H77469  13.535  11.418   6.363  2.7006 -0.5988  0.7012
  574MOL0     H77470  13.125  11.164   5.667 -0.1103  0.2371  1.3158
  574MOL0     H77471  12.888  11.196   5.605 -1.4003 -1.0622 -0.6496
  574MOL0     H77472  12.493  10.972   5.674 -0.2227 -0.6118 -0.5347
  574MOL0     H77473  12.227  10.972   5.663 -0.5251  1.2079 -1.7109
  574MOL0     H77474  10.253  11.239   4.969 -2.2138  0.5318  2.4846
  574MOL0     H77475  10.037  11.131   5.020 -2.2655 -2.9504  0.9136
  574MOL0     H77476   9.826  10.540   5.096 -1.4785 -1.2933  1.5049
  574MOL0     H77477   9.604  10.504   5.153 -2.4503  0.9208  1.9692
  574MOL0     H77478   9.316  10.801   5.214  0.8254  1.3763  1.8818
  574MOL0     H77479   9.378  10.781   5.379  5.1480 -0.3424 -0.9954
  574MOL0     H77480   9.148  10.710   5.408 -1.7003  0.2231 -0.2903
  574MOL0     H77481   9.224  10.556   5.356  0.9630  0.0009 -0.2488
  574MOL0     H77482   9.169  10.612   5.126  0.5354 -1.2136  0.5878
  574MOL0     H77483   9.099  10.767   5.182 -2.6266 -0.0941 -0.0801
  574MOL0     H77484   8.993  10.481   5.222 -0.2580  0.0083 -0.0355
  574MOL0     H77485   8.935  10.620   5.307 -2.8135 -3.3505 -0.3639
  574MOL0     H77486   8.811  10.625   4.884 -3.2056  0.5279  1.4739
  574MOL0     H77487   9.507  10.905   5.210 -2.9489 -2.2967 -1.7366
  574MOL0     H77488   9.809  11.028   5.216  0.6013  0.3491 -0.2730
  574MOL0     H77489   9.800  11.043   5.046 -2.6725 -0.7729 -1.7783
  574MOL0     H77490   9.646  11.063   5.140  0.6344  2.3542 -0.2822
  575MOL0     O77491   5.744   3.649   0.093  0.0807 -0.6145 -0.1042
  575MOL0     C77492   5.664   3.728   0.037 -0.2582  0.5971 -0.7411
  575MOL0     O77493   5.706   3.842  -0.028  0.7830 -0.0623  0.1981
  575MOL0     C77494   5.841   3.871  -0.043  0.7303 -0.7301  0.5413
  575MOL0     C77495   5.869   3.940  -0.160  0.1200  0.0683 -0.5090
  575MOL0     C77496   5.996   3.981  -0.181  0.2760 -0.4187  0.0099
  575MOL0     C77497   6.094   3.956  -0.095 -0.1238  0.5343 -0.1157
  575MOL0     O77498   6.225   3.998  -0.119  0.2451 -0.1386 -0.5909
  575MOL0     C77499   6.243   4.120  -0.192  0.7419 -0.6594 -0.6024
  575MOL0     C77500   6.385   4.171  -0.168 -0.1112 -0.8782  0.0192
  575MOL0     C77501   6.442   4.282  -0.261  0.3778 -0.5761 -0.0139
  575MOL0     C77502   6.460   4.222  -0.408 -0.4626  0.0292 -0.3681
  575MOL0     C77503   6.499   4.342  -0.502 -0.5481  0.8330  0.7150
  575MOL0     C77504   6.635   4.399  -0.473 -0.7836  0.2212 -0.0063
  575MOL0     C77505   6.755   4.308  -0.468 -0.1670 -0.2543 -0.3632
  575MOL0     C77506   6.885   4.374  -0.492 -0.2950  0.6646 -1.1957
  575MOL0     N77507   6.928   4.450  -0.369 -0.1622  0.2887  0.2619
  575MOL0     C77508   7.006   4.396  -0.272 -1.7208  0.1210  0.4788
  575MOL0     C77509   7.038   4.499  -0.189 -0.5242  0.5109 -0.2021
  575MOL0     C77510   7.149   4.499  -0.087 -0.0063  0.0270  0.5335
  575MOL0     C77511   7.247   4.383  -0.112 -0.1909  0.2814  0.0063
  575MOL0     C77512   7.370   4.390  -0.034 -0.7231 -1.3411  0.1999
  575MOL0     C77513   7.478   4.440  -0.128 -0.7949  0.1954  0.3811
  575MOL0     O77514   7.612   4.413  -0.076 -0.0670 -0.6137  0.2167
  575MOL0     C77515   7.716   4.446  -0.162 -0.0542  0.1326  0.0387
  575MOL0     C77516   7.705   4.497  -0.287 -0.2399 -0.1445  0.5134
  575MOL0     C77517   7.817   4.538  -0.367 -0.2772  0.4726  0.0863
  575MOL0     C77518   7.945   4.539  -0.303  0.0149 -0.7644  0.0879
  575MOL0     C77519   8.065   4.595  -0.381 -0.7428 -0.4298 -0.9030
  575MOL0     O77520   8.191   4.587  -0.327  0.2082 -0.0552 -0.3675
  575MOL0     C77521   8.286   4.660  -0.395 -0.0707 -0.2175 -0.5269
  575MOL0     C77522   8.366   4.585  -0.476 -0.4681 -0.1548  0.3744
  575MOL0     C77523   8.462   4.647  -0.556 -0.1433 -0.7555  1.6852
  575MOL0     C77524   8.485   4.791  -0.542  0.8821  0.5714 -0.1614
  575MOL0     O77525   8.592   4.861  -0.595 -0.1680  0.0154  0.6971
  575MOL0     C77526   8.682   4.788  -0.685 -0.2405  0.2680  0.1967
  575MOL0     C77527   8.791   4.701  -0.610 -0.7895 -0.2824  0.4530
  575MOL0     C77528   8.924   4.780  -0.566  0.4613  0.7734 -0.0910
  575MOL0     C77529   8.901   4.908  -0.491  0.6548 -0.1215 -0.8319
  575MOL0     C77530   8.850   4.889  -0.343 -0.4257 -0.7390  0.4416
  575MOL0     C77531   8.770   5.011  -0.308  0.8372  0.4526  0.1042
  575MOL0     C77532   8.714   5.002  -0.175  0.0904 -0.4909 -0.1446
  575MOL0     C77533   8.666   5.148  -0.139  0.7597 -0.5565  0.7973
  575MOL0    Cl77534   8.803   5.260  -0.144 -0.0312 -0.0865  0.1633
  575MOL0     C77535   8.403   4.862  -0.455  0.0255 -0.6542  0.7529
  575MOL0     C77536   8.307   4.793  -0.387  0.3111  0.0612  0.1458
  575MOL0     O77537   8.034   4.657  -0.484 -0.9528 -0.1600 -0.3439
  575MOL0     C77538   7.955   4.481  -0.167 -0.0768  0.0568 -0.4566
  575MOL0     C77539   7.843   4.432  -0.113  0.6864 -0.7573 -0.1206
  575MOL0     N77540   6.975   4.612  -0.233 -0.3095 -0.5187 -0.3264
  575MOL0     N77541   6.899   4.577  -0.336 -0.6999 -0.5445  0.7322
  575MOL0     C77542   6.064   3.909   0.026 -0.5368  0.4291 -0.7822
  575MOL0     C77543   5.934   3.860   0.055 -0.9152 -0.5363  0.0232
  575MOL0     C77544   5.510   3.707   0.044 -0.1129  0.0581 -0.9666
  575MOL0     C77545   5.439   3.779  -0.052 -0.2001 -0.2201  0.9841
  575MOL0     C77546   5.298   3.761  -0.056  0.1258 -0.5310 -0.2254
  575MOL0     C77547   5.225   3.690   0.047 -0.5099 -0.6324  0.3394
  575MOL0     O77548   5.089   3.671   0.055 -0.0294 -1.0790 -0.6376
  575MOL0     C77549   5.008   3.781   0.018  0.2821  0.2304  0.4109
  575MOL0     C77550   4.860   3.753   0.022  0.4593 -0.1523 -0.1398
  575MOL0     C77551   4.827   3.642  -0.089 -0.2427 -0.2696  0.1794
  575MOL0     C77552   4.806   3.694  -0.230 -0.1234  0.3369 -0.1297
  575MOL0     C77553   4.683   3.764  -0.236 -0.9322  0.2214 -0.2987
  575MOL0     C77554   4.580   3.828  -0.237  0.2033  0.5297 -0.7794
  575MOL0     C77555   5.308   3.630   0.140  0.1581  0.0158  0.6703
  575MOL0     C77556   5.446   3.628   0.140 -0.4124  0.0928 -0.4775
  575MOL0     C77557   5.517   3.524   0.236  0.6132  0.2733 -0.2127
  575MOL0     H77558   5.790   3.943  -0.234 -1.5038 -3.2341  0.8796
  575MOL0     H77559   6.011   4.033  -0.276 -1.6112 -2.6675 -1.6567
  575MOL0     H77560   6.241   4.096  -0.298 -1.0678 -0.3232 -0.6829
  575MOL0     H77561   6.169   4.198  -0.171  0.9382 -0.3127 -1.1716
  575MOL0     H77562   6.450   4.083  -0.173  1.5049 -0.1442  4.0998
  575MOL0     H77563   6.395   4.215  -0.068 -0.2298  3.2312 -1.5896
  575MOL0     H77564   6.541   4.315  -0.228  0.1980  3.3340 -2.7918
  575MOL0     H77565   6.388   4.377  -0.260  3.2999  1.2646  2.8329
  575MOL0     H77566   6.543   4.153  -0.393  0.4734  1.7273  3.5601
  575MOL0     H77567   6.361   4.183  -0.432 -0.9034 -0.2313  1.6630
  575MOL0     H77568   6.486   4.306  -0.605  0.0403 -0.8712  1.2090
  575MOL0     H77569   6.433   4.429  -0.496  1.0673  2.2151 -0.4631
  575MOL0     H77570   6.659   4.475  -0.548  2.6337 -0.5034  0.1561
  575MOL0     H77571   6.634   4.454  -0.379  0.2582 -0.2846  0.3133
  575MOL0     H77572   6.744   4.233  -0.546  0.0574 -0.7021  0.0301
  575MOL0     H77573   6.763   4.259  -0.370 -0.9380 -0.6621 -0.4987
  575MOL0     H77574   6.961   4.299  -0.514 -0.0817  0.8075 -0.9494
  575MOL0     H77575   6.874   4.447  -0.573 -4.0022 -0.1467 -1.6212
  575MOL0     H77576   7.041   4.293  -0.270 -0.1307  0.5600 -1.9903
  575MOL0     H77577   7.190   4.600  -0.095 -0.7807  0.3781  0.8638
  575MOL0     H77578   7.106   4.492   0.013 -0.6348 -0.6140  0.2256
  575MOL0     H77579   7.187   4.299  -0.077 -2.6898  1.9258 -0.1159
  575MOL0     H77580   7.262   4.366  -0.219 -2.7958 -1.4955 -0.1687
  575MOL0     H77581   7.394   4.288  -0.003  3.5933 -0.2964  1.0867
  575MOL0     H77582   7.359   4.464   0.046  0.0572  0.0781 -0.9458
  575MOL0     H77583   7.470   4.549  -0.138 -1.1256  0.3270  1.8714
  575MOL0     H77584   7.465   4.400  -0.229  0.5774  2.9628 -1.0079
  575MOL0     H77585   7.614   4.517  -0.343  2.2861 -0.0971 -3.9694
  575MOL0     H77586   7.798   4.584  -0.463 -0.8050 -1.7492 -0.9175
  575MOL0     H77587   8.359   4.477  -0.482 -0.8566 -0.0880 -0.7914
  575MOL0     H77588   8.516   4.575  -0.617 -2.7757 -1.8137  0.4687
  575MOL0     H77589   8.641   4.711  -0.751  2.5693 -0.8787 -0.3509
  575MOL0     H77590   8.733   4.857  -0.754  1.9074 -1.8796 -0.4790
  575MOL0     H77591   8.742   4.643  -0.532 -0.3627  0.4817  1.3113
  575MOL0     H77592   8.822   4.630  -0.688 -2.3161  1.6735 -2.0713
  575MOL0     H77593   8.983   4.699  -0.521 -0.6465 -1.1306 -1.8819
  575MOL0     H77594   8.977   4.809  -0.657  0.3348  0.4574 -0.2686
  575MOL0     H77595   8.838   4.974  -0.551 -0.8623 -0.5062  0.2977
  575MOL0     H77596   8.995   4.963  -0.479  0.0879  0.8770 -0.7836
  575MOL0     H77597   8.937   4.873  -0.279  0.5286  2.6922  0.1948
  575MOL0     H77598   8.786   4.800  -0.337  2.6506 -3.1170  0.4192
  575MOL0     H77599   8.830   5.102  -0.319  3.0371 -0.9763 -0.1614
  575MOL0     H77600   8.693   5.019  -0.385  2.4124  1.4722 -1.4604
  575MOL0     H77601   8.796   4.982  -0.105  0.1677  0.8061  0.1486
  575MOL0     H77602   8.635   4.927  -0.176 -1.0819  0.7073 -1.8009
  575MOL0     H77603   8.596   5.172  -0.220  1.0171 -0.0792  0.7100
  575MOL0     H77604   8.605   5.154  -0.049  1.2103 -1.4705  1.1668
  575MOL0     H77605   8.416   4.967  -0.430 -2.1609 -0.3807  1.0144
  575MOL0     H77606   8.237   4.844  -0.322 -0.9943 -1.9527  0.4289
  575MOL0     H77607   8.051   4.467  -0.117 -1.8100 -1.9781  2.6333
  575MOL0     H77608   7.850   4.389  -0.014 -0.4279  0.2249  0.4098
  575MOL0     H77609   6.151   3.914   0.091 -0.5913  2.8080 -0.8179
  575MOL0     H77610   5.908   3.828   0.155  0.5132  1.4682  1.1057
  575MOL0     H77611   5.495   3.838  -0.123  3.0167 -2.9078  1.0180
  575MOL0     H77612   5.246   3.806  -0.140  0.6579  1.8296  0.6253
  575MOL0     H77613   5.036   3.822  -0.079 -3.3385  1.9762 -0.0503
  575MOL0     H77614   5.021   3.851   0.101 -1.3734 -1.9026  2.6251
  575MOL0     H77615   4.811   3.851   0.010 -0.3493 -0.2664  1.8031
  575MOL0     H77616   4.845   3.716   0.124  0.6914  0.2779  0.0545
  575MOL0     H77617   4.751   3.574  -0.049 -0.4761 -0.7782 -1.0836
  575MOL0     H77618   4.905   3.566  -0.100 -0.1719 -0.0234 -1.1966
  575MOL0     H77619   4.893   3.753  -0.261  2.1373 -2.7902 -0.2759
  575MOL0     H77620   4.797   3.612  -0.303 -4.1990 -0.9662  1.6011
  575MOL0     H77621   4.487   3.881  -0.239 -0.6584 -0.9105 -0.4637
  575MOL0     H77622   5.253   3.573   0.215 -0.1054 -1.2443 -0.4306
  575MOL0     H77623   5.540   3.429   0.187 -0.7703 -0.7050  0.9491
  575MOL0     H77624   5.611   3.560   0.279 -0.8613 -0.4664  4.2479
  575MOL0     H77625   5.450   3.492   0.317 -0.6555 -5.2868 -2.9594
  576MOL0     O77626  10.976   5.467   0.338 -0.0888  0.7272 -0.0727
  576MOL0     C77627  10.936   5.446   0.224  0.1005  0.2493  0.2590
  576MOL0     O77628  11.018   5.465   0.109 -0.0050 -0.5886  0.5346
  576MOL0     C77629  11.138   5.526   0.124  0.0487 -0.3017 -0.0382
  576MOL0     C77630  11.245   5.458   0.190  0.6347  0.1538 -0.2425
  576MOL0     C77631  11.368   5.507   0.195  0.6131  0.2468 -0.6296
  576MOL0     C77632  11.403   5.624   0.122 -0.2172  0.6049  0.1403
  576MOL0     O77633  11.527   5.675   0.133 -0.2129  0.1104 -0.2890
  576MOL0     C77634  11.623   5.678   0.020  0.2627  0.8599  0.9432
  576MOL0     C77635  11.751   5.741   0.064  0.1315  0.3446  0.3645
  576MOL0     C77636  11.832   5.644   0.144  0.2439  0.4380 -0.4308
  576MOL0     C77637  11.962   5.706   0.208  0.1502  0.5076  0.4816
  576MOL0     C77638  12.029   5.608   0.298 -0.1604  0.6180  0.1605
  576MOL0     C77639  12.162   5.576   0.232  0.5812 -0.5285  0.1838
  576MOL0     C77640  12.269   5.505   0.324  0.0576 -0.8973  0.7271
  576MOL0     C77641  12.392   5.480   0.240  0.6136 -0.2497  0.5517
  576MOL0     N77642  12.370   5.348   0.168  0.2397 -0.8730  0.4506
  576MOL0     C77643  12.437   5.233   0.177  0.0372 -0.6121 -0.0389
  576MOL0     C77644  12.406   5.158   0.070 -0.1503 -0.6644 -0.0576
  576MOL0     C77645  12.468   5.020   0.045  0.1161 -1.3532  0.3356
  576MOL0     C77646  12.607   5.049  -0.028  1.1261 -0.2813 -0.1372
  576MOL0     C77647  12.665   4.914  -0.073  0.0964  1.2440  0.0520
  576MOL0     C77648  12.815   4.917  -0.089  0.2824  0.4560  0.4885
  576MOL0     O77649  12.854   4.786  -0.135  0.1844  0.6405 -0.7754
  576MOL0     C77650  12.988   4.756  -0.128  0.0527 -0.0486  0.4839
  576MOL0     C77651  13.013   4.628  -0.140  0.0761  0.5663  0.0981
  576MOL0     C77652  13.143   4.574  -0.149 -0.4461  0.1233  0.0398
  576MOL0     C77653  13.256   4.656  -0.129  0.2565 -0.1254  0.3459
  576MOL0     C77654  13.398   4.609  -0.152 -0.1367 -0.1835  0.5515
  576MOL0     O77655  13.498   4.703  -0.148  0.4601  0.5062 -0.5991
  576MOL0     C77656  13.630   4.664  -0.136  0.6200 -0.9094 -1.1558
  576MOL0     C77657  13.660   4.552  -0.065 -0.4976 -0.3038 -0.2908
  576MOL0     C77658  13.795   4.522  -0.055 -0.3367 -0.1045 -0.3211
  576MOL0     C77659  13.892   4.608  -0.109 -0.3043  0.5963  0.5628
  576MOL0     O77660  14.023   4.570  -0.095  0.1898 -0.3662 -0.3434
  576MOL0     C77661  14.133   4.657  -0.135  0.3760 -0.1215 -0.5699
  576MOL0     C77662  14.263   4.609  -0.082  0.0133 -0.1703 -0.0647
  576MOL0     C77663  14.301   4.464  -0.108 -1.0222 -0.5638 -0.4425
  576MOL0     C77664  14.452   4.451  -0.067  0.0141 -0.5874  0.7268
  576MOL0     C77665  14.490   4.303  -0.082 -0.6854 -0.5515  0.0252
  576MOL0     C77666  14.641   4.280  -0.061 -0.4161 -0.0409 -0.4405
  576MOL0     C77667  14.678   4.132  -0.071  0.7017 -0.6919 -1.6556
  576MOL0     C77668  14.655   4.076   0.079  0.1187 -0.7927 -1.0562
  576MOL0    Cl77669  14.769   4.144   0.207 -0.2786 -0.0001  0.2474
  576MOL0     C77670  13.860   4.719  -0.181 -0.0443  0.0035  0.5232
  576MOL0     C77671  13.724   4.745  -0.204 -0.4621 -0.5422  0.3031
  576MOL0     O77672  13.414   4.490  -0.171 -0.3282  0.2359  0.0068
  576MOL0     C77673  13.227   4.794  -0.102 -0.1175 -0.3305 -0.2722
  576MOL0     C77674  13.098   4.842  -0.095 -0.4366 -0.3995 -0.6357
  576MOL0     N77675  12.310   5.227   0.001  1.3208  0.3819 -0.5818
  576MOL0     N77676  12.288   5.337   0.063  0.5792  0.1228 -0.1254
  576MOL0     C77677  11.301   5.682   0.044 -0.0779 -0.2251 -0.0618
  576MOL0     C77678  11.172   5.631   0.047 -0.3930 -0.6980  0.0109
  576MOL0     C77679  10.798   5.411   0.203 -0.2600  0.2188  0.2506
  576MOL0     C77680  10.747   5.437   0.077  0.5676 -0.1910 -0.1411
  576MOL0     C77681  10.616   5.398   0.051 -0.1622 -0.1366  0.3930
  576MOL0     C77682  10.532   5.354   0.147  0.0023  0.0799 -0.4713
  576MOL0     O77683  10.399   5.319   0.127  0.6795 -0.0831  0.5047
  576MOL0     C77684  10.329   5.353   0.006 -0.0348  0.0082  1.0179
  576MOL0     C77685  10.180   5.352   0.022 -0.5546  0.1282 -0.5854
  576MOL0     C77686  10.126   5.219   0.087 -0.0621 -0.0939  0.2661
  576MOL0     C77687  10.017   5.238   0.195 -0.3520 -0.9368  0.8498
  576MOL0     C77688   9.899   5.305   0.144 -0.1094  0.5662  0.1395
  576MOL0     C77689   9.795   5.345   0.091 -0.3541  0.3317 -0.2100
  576MOL0     C77690  10.576   5.331   0.274 -0.1505  0.0759 -0.2160
  576MOL0     C77691  10.710   5.363   0.299 -0.5180  0.1079 -0.6850
  576MOL0     C77692  10.769   5.319   0.428  0.6734 -0.5666  1.0509
  576MOL0     H77693  11.233   5.364   0.243  1.4709 -1.0378 -2.0354
  576MOL0     H77694  11.445   5.462   0.257 -0.5143  2.6853  2.8045
  576MOL0     H77695  11.632   5.571   0.004 -3.2604  0.5167  0.3047
  576MOL0     H77696  11.576   5.727  -0.067 -0.7676 -2.9871 -0.8694
  576MOL0     H77697  11.726   5.828   0.126  0.4275  0.0536  0.9065
  576MOL0     H77698  11.806   5.767  -0.026 -0.4641  1.0589  0.1997
  576MOL0     H77699  11.860   5.559   0.080  0.7681  0.3352 -0.0745
  576MOL0     H77700  11.765   5.600   0.218  0.7911 -1.0891 -0.7974
  576MOL0     H77701  12.019   5.738   0.120 -1.7252 -0.0586 -1.0080
  576MOL0     H77702  11.937   5.792   0.270 -1.7298 -0.7916  1.6333
  576MOL0     H77703  12.040   5.654   0.396 -0.3671  3.5242 -1.0682
  576MOL0     H77704  11.970   5.516   0.309 -0.7427  0.8913 -0.5573
  576MOL0     H77705  12.136   5.512   0.147 -0.6962  1.2510 -0.8201
  576MOL0     H77706  12.210   5.665   0.189  2.8023  0.1384  3.5987
  576MOL0     H77707  12.222   5.415   0.364  1.8551 -2.2570 -0.0592
  576MOL0     H77708  12.285   5.578   0.403  1.8795  1.6321 -1.7983
  576MOL0     H77709  12.409   5.550   0.158 -0.1373 -1.5609 -0.7794
  576MOL0     H77710  12.477   5.481   0.309  0.8184  1.9311  0.3469
  576MOL0     H77711  12.511   5.205   0.251 -1.8795  1.4741  2.8840
  576MOL0     H77712  12.476   4.973   0.144 -0.1634 -0.1430  0.9427
  576MOL0     H77713  12.410   4.951  -0.017 -1.5714 -0.3318  0.7133
  576MOL0     H77714  12.590   5.119  -0.110  2.3896  2.6428  1.9053
  576MOL0     H77715  12.679   5.107   0.031  0.4816  0.7707 -0.3634
  576MOL0     H77716  12.620   4.882  -0.168 -1.1591  1.2496  0.6254
  576MOL0     H77717  12.633   4.843   0.004 -3.7914 -0.7000 -2.9756
  576MOL0     H77718  12.865   4.941   0.005  1.5945  0.5183 -0.1952
  576MOL0     H77719  12.850   4.987  -0.165 -0.3757 -0.1232 -0.3676
  576MOL0     H77720  12.918   4.576  -0.154  0.6873  0.1728 -3.4626
  576MOL0     H77721  13.161   4.467  -0.156  0.6772 -0.0045  3.2504
  576MOL0     H77722  13.593   4.501   0.004  0.0597  1.2321  1.4798
  576MOL0     H77723  13.831   4.433  -0.004  3.0753 -0.1687 -2.5064
  576MOL0     H77724  14.145   4.667  -0.243 -0.9459 -1.2576 -0.8547
  576MOL0     H77725  14.116   4.753  -0.086  1.9228 -0.4353  0.6646
  576MOL0     H77726  14.339   4.677  -0.121 -0.9842  0.2682 -1.2979
  576MOL0     H77727  14.257   4.615   0.027 -1.9504 -4.1908  0.2690
  576MOL0     H77728  14.238   4.398  -0.047 -1.2149  0.2270  0.2313
  576MOL0     H77729  14.295   4.425  -0.210  2.3515  0.4208 -1.1623
  576MOL0     H77730  14.466   4.470   0.039  2.1906 -0.6237  0.4985
  576MOL0     H77731  14.517   4.512  -0.131 -0.7654 -0.6465 -0.1466
  576MOL0     H77732  14.471   4.273  -0.185 -2.7445 -2.4532  0.8624
  576MOL0     H77733  14.429   4.243  -0.014 -0.8121  2.2275  2.6297
  576MOL0     H77734  14.691   4.336  -0.142  0.1133  2.7665  1.6608
  576MOL0     H77735  14.662   4.325   0.036 -3.0819  0.3592  0.0358
  576MOL0     H77736  14.784   4.121  -0.099  1.1988  0.1302 -0.2190
  576MOL0     H77737  14.612   4.086  -0.145 -0.1684 -2.0840 -0.0813
  576MOL0     H77738  14.553   4.098   0.109  0.9060  2.1073 -0.1528
  576MOL0     H77739  14.677   3.969   0.076 -1.6225 -1.2095  0.1637
  576MOL0     H77740  13.933   4.790  -0.219  0.4390  1.2328  3.4548
  576MOL0     H77741  13.693   4.826  -0.270 -0.4979 -2.3165 -1.9985
  576MOL0     H77742  13.306   4.868  -0.096 -0.6348  0.1321  1.4109
  576MOL0     H77743  13.078   4.945  -0.066 -0.1455 -0.7336  0.8292
  576MOL0     H77744  11.326   5.769  -0.017 -2.3336 -0.0057 -0.7501
  576MOL0     H77745  11.092   5.667  -0.017 -0.1327  0.6966  0.4166
  576MOL0     H77746  10.802   5.459  -0.014  0.7985 -3.6385 -0.9626
  576MOL0     H77747  10.584   5.390  -0.053  2.6437 -3.0450 -0.4380
  576MOL0     H77748  10.344   5.276  -0.071 -2.3537 -1.1766  1.6623
  576MOL0     H77749  10.368   5.446  -0.035  0.3844 -0.2452  0.8354
  576MOL0     H77750  10.140   5.370  -0.078  0.0656 -1.7936 -1.2240
  576MOL0     H77751  10.155   5.430   0.095 -0.6159  0.4111 -0.9083
  576MOL0     H77752  10.198   5.162   0.146 -0.8075  0.9107  2.2153
  576MOL0     H77753  10.086   5.152   0.011 -1.8356 -0.4207  1.4505
  576MOL0     H77754   9.985   5.140   0.231 -1.6439 -0.2787  1.5535
  576MOL0     H77755  10.056   5.293   0.281  1.1479 -2.4731  1.2170
  576MOL0     H77756   9.701   5.386   0.058 -1.0284  1.0836  2.3769
  576MOL0     H77757  10.504   5.303   0.351 -0.7138 -0.4188 -0.9044
  576MOL0     H77758  10.839   5.238   0.407 -0.0866 -1.1237  0.6395
  576MOL0     H77759  10.818   5.394   0.491  0.8245 -0.8545  1.2758
  576MOL0     H77760  10.694   5.282   0.499 -0.1850  0.1070  0.5293
  577MOL0     O77761   8.272   7.732  10.526  0.1291  0.3683  0.4343
  577MOL0     C77762   8.166   7.737  10.463  0.0186  0.5673 -0.1319
  577MOL0     O77763   8.151   7.768  10.331  0.3704  0.4706  0.3647
  577MOL0     C77764   8.268   7.763  10.258  0.2459  0.5750 -0.4776
  577MOL0     C77765   8.336   7.634  10.251 -0.1982  0.2078  0.4291
  577MOL0     C77766   8.438   7.615  10.164  0.4758  0.5578  0.3994
  577MOL0     C77767   8.488   7.719  10.079 -0.5253  0.4069 -0.3431
  577MOL0     O77768   8.614   7.685  10.027  0.2906 -0.9011  0.3470
  577MOL0     C77769   8.688   7.793   9.960 -0.4688  0.4387 -0.2232
  577MOL0     C77770   8.757   7.881  10.059  0.4452  0.4283  0.1803
  577MOL0     C77771   8.853   7.982   9.998  1.0423 -0.3798  0.2537
  577MOL0     C77772   8.998   7.939  10.024  0.7723  0.6705 -0.2351
  577MOL0     C77773   9.103   8.003   9.936  0.5625  0.4583  0.8197
  577MOL0     C77774   9.242   7.966   9.990 -0.7957  0.5630 -0.6201
  577MOL0     C77775   9.349   8.062   9.947  0.0704  0.2745  0.3754
  577MOL0     C77776   9.377   8.051   9.802  0.4295 -0.1630  0.2328
  577MOL0     N77777   9.431   7.929   9.739 -0.7664  0.1522  0.1530
  577MOL0     C77778   9.558   7.879   9.739 -0.6116 -0.7364 -0.0084
  577MOL0     C77779   9.562   7.780   9.649 -0.5465 -0.2003  0.2949
  577MOL0     C77780   9.690   7.697   9.618  0.3390  0.0645 -0.6081
  577MOL0     C77781   9.754   7.622   9.732  0.8862 -0.4571  0.0352
  577MOL0     C77782   9.833   7.708   9.831 -0.5388  0.3587 -0.2005
  577MOL0     C77783   9.916   7.622   9.927 -0.4242 -0.3800 -0.6170
  577MOL0     O77784  10.053   7.596   9.884  0.2078 -0.0613  0.4353
  577MOL0     C77785  10.130   7.506   9.959  0.5160  0.0813  0.0742
  577MOL0     C77786  10.255   7.462   9.913 -0.8490 -1.1406 -0.5102
  577MOL0     C77787  10.331   7.363   9.978 -0.6584 -0.4194  0.1248
  577MOL0     C77788  10.286   7.306  10.100  0.0717  0.5115 -1.0965
  577MOL0     C77789  10.367   7.196  10.169 -0.1587 -1.2542  0.8033
  577MOL0     O77790  10.499   7.201  10.128  0.6065  0.1881  0.0688
  577MOL0     C77791  10.587   7.101  10.171  0.4010 -0.8475 -0.1800
  577MOL0     C77792  10.600   6.977  10.106 -0.3648  0.4691  0.2017
  577MOL0     C77793  10.702   6.889  10.142  0.0544  0.0344 -0.1739
  577MOL0     C77794  10.791   6.931  10.245  0.9864 -0.1690 -0.1985
  577MOL0     O77795  10.880   6.833  10.277 -0.4568  0.0536  0.2411
  577MOL0     C77796  10.963   6.865  10.388  0.3473  0.6579 -0.6265
  577MOL0     C77797  11.043   6.739  10.418 -0.8071 -0.0309  0.1145
  577MOL0     C77798  11.148   6.761  10.522  0.5465 -0.2495 -0.0027
  577MOL0     C77799  11.284   6.804  10.454  0.4318  0.6288  0.8272
  577MOL0     C77800  11.396   6.837  10.560  0.7294 -0.5186 -1.1101
  577MOL0     C77801  11.438   6.726  10.648  0.1548 -0.1538  0.2674
  577MOL0     C77802  11.551   6.775  10.742 -0.2132 -0.2385 -0.5258
  577MOL0     C77803  11.504   6.833  10.874  0.2220  0.2767 -0.5535
  577MOL0    Cl77804  11.634   6.876  10.984 -0.3023  0.3304  0.2354
  577MOL0     C77805  10.786   7.060  10.300 -0.3699  0.5439  1.3407
  577MOL0     C77806  10.683   7.145  10.255 -0.2200 -0.9357  0.5974
  577MOL0     O77807  10.316   7.129  10.267  0.0539 -0.8087 -0.1272
  577MOL0     C77808  10.157   7.346  10.143 -0.7404  0.8027  0.1730
  577MOL0     C77809  10.078   7.441  10.073 -0.4183  1.1493  0.4560
  577MOL0     N77810   9.440   7.777   9.586 -0.3168  0.2205 -0.2046
  577MOL0     N77811   9.366   7.857   9.650  0.4471 -0.2492 -0.0130
  577MOL0     C77812   8.417   7.841  10.075 -0.5883 -0.1011  0.3829
  577MOL0     C77813   8.309   7.867  10.172 -0.0077 -0.0506  1.0907
  577MOL0     C77814   8.028   7.706  10.515  0.8886 -0.0412 -0.6553
  577MOL0     C77815   7.908   7.748  10.451  0.1998 -0.0484  1.1269
  577MOL0     C77816   7.784   7.705  10.502 -0.6910  0.0448  0.5041
  577MOL0     C77817   7.767   7.650  10.628  0.4386 -0.5225 -0.3762
  577MOL0     O77818   7.648   7.623  10.685  0.0091  1.2772  0.1982
  577MOL0     C77819   7.534   7.657  10.612  0.3119 -0.4694  0.3507
  577MOL0     C77820   7.408   7.631  10.700  0.5657  0.4738  0.6629
  577MOL0     C77821   7.406   7.715  10.822 -0.4873 -0.2564 -0.8916
  577MOL0     C77822   7.266   7.713  10.898 -0.9392  1.2173  0.5767
  577MOL0     C77823   7.268   7.655  11.032 -0.0070 -0.2398 -0.0807
  577MOL0     C77824   7.262   7.604  11.141  0.9907 -0.0382 -0.9589
  577MOL0     C77825   7.883   7.629  10.698 -0.4872  0.4011 -0.1408
  577MOL0     C77826   8.015   7.648  10.646 -0.0870 -0.6369  0.7641
  577MOL0     C77827   8.117   7.613  10.743  0.0375  0.7902 -0.4343
  577MOL0     H77828   8.305   7.543  10.301  0.2017 -1.6071 -2.3845
  577MOL0     H77829   8.493   7.522  10.149  1.3878  1.0167  0.8141
  577MOL0     H77830   8.756   7.742   9.891  0.0461  0.4690  0.2468
  577MOL0     H77831   8.624   7.848   9.892 -0.3873 -1.1197 -1.6097
  577MOL0     H77832   8.803   7.818  10.135  0.7329  0.2090 -0.1690
  577MOL0     H77833   8.688   7.952  10.105  1.3630  3.0612 -2.2166
  577MOL0     H77834   8.839   8.080  10.043 -1.4545 -0.0013 -1.1422
  577MOL0     H77835   8.835   8.004   9.892  0.6046 -0.5552  0.2860
  577MOL0     H77836   9.025   7.941  10.130  3.3839  0.5872 -0.8213
  577MOL0     H77837   9.002   7.836   9.990 -0.6658  0.2186  0.8622
  577MOL0     H77838   9.095   7.973   9.831 -1.5894  0.6825  0.8656
  577MOL0     H77839   9.078   8.110   9.939 -1.2846  0.0749  0.5519
  577MOL0     H77840   9.244   7.980  10.099  1.7727  3.4952 -0.9014
  577MOL0     H77841   9.271   7.866   9.956  1.0170  0.6461  0.5171
  577MOL0     H77842   9.443   8.052  10.002  0.5192  2.1316  0.0293
  577MOL0     H77843   9.315   8.164   9.967  1.1963  0.8741 -0.6186
  577MOL0     H77844   9.281   8.079   9.758  0.1422  2.7203  2.3684
  577MOL0     H77845   9.448   8.128   9.772 -0.4664 -0.5874 -3.5091
  577MOL0     H77846   9.644   7.917   9.792 -1.2208  0.7008  0.0101
  577MOL0     H77847   9.663   7.627   9.538  1.7024 -1.6218  0.3322
  577MOL0     H77848   9.767   7.765   9.581  2.0104 -2.3167 -1.8180
  577MOL0     H77849   9.677   7.563   9.783  0.0400 -1.5882 -2.3870
  577MOL0     H77850   9.826   7.550   9.691  2.3373 -0.0994  1.8255
  577MOL0     H77851   9.771   7.770   9.896 -0.2609  0.4692 -0.0378
  577MOL0     H77852   9.914   7.770   9.792  2.1302 -1.9261  1.3133
  577MOL0     H77853   9.869   7.524   9.938  2.1404 -1.4998  1.2769
  577MOL0     H77854   9.928   7.659  10.029  2.5750 -1.3920 -0.5000
  577MOL0     H77855  10.285   7.502   9.817 -1.3332  0.0026 -0.2079
  577MOL0     H77856  10.418   7.323   9.926  0.7867 -0.2009  2.2455
  577MOL0     H77857  10.542   6.944  10.020  0.5186 -0.6326  0.0152
  577MOL0     H77858  10.710   6.787  10.105 -1.0143 -0.6952  1.4596
  577MOL0     H77859  11.029   6.950  10.364  0.0423  0.8453 -0.8160
  577MOL0     H77860  10.908   6.889  10.479  2.2401 -1.5443  1.2254
  577MOL0     H77861  10.964   6.671  10.450  0.6592 -0.0429  4.2331
  577MOL0     H77862  11.093   6.705  10.326  2.5415  2.4130  0.8487
  577MOL0     H77863  11.112   6.836  10.593 -0.1238 -1.5411  1.0600
  577MOL0     H77864  11.170   6.671  10.580 -1.1289 -0.7424 -0.0540
  577MOL0     H77865  11.265   6.888  10.386 -0.8073 -0.7994 -0.6780
  577MOL0     H77866  11.311   6.719  10.390  0.7534  1.0019  0.4547
  577MOL0     H77867  11.366   6.924  10.619  1.2690 -0.1611 -1.3562
  577MOL0     H77868  11.489   6.861  10.509  3.0608 -1.1000  2.4981
  577MOL0     H77869  11.358   6.689  10.713 -2.5570  2.7195 -1.1611
  577MOL0     H77870  11.476   6.642  10.588 -0.0848  0.7549 -1.2161
  577MOL0     H77871  11.610   6.858  10.700  0.5827 -0.4229  0.1953
  577MOL0     H77872  11.618   6.691  10.763  0.3209  0.0324 -1.0885
  577MOL0     H77873  11.438   6.919  10.861 -1.0021 -0.7097 -1.0000
  577MOL0     H77874  11.459   6.740  10.909  2.9026 -1.3534 -1.1374
  577MOL0     H77875  10.858   7.104  10.368  0.3088  3.0371 -0.8110
  577MOL0     H77876  10.691   7.246  10.293 -1.2549 -0.5218 -0.2487
  577MOL0     H77877  10.120   7.296  10.231  1.8972 -1.4118  0.1680
  577MOL0     H77878   9.981   7.459  10.118  0.4389  1.2072  2.4000
  577MOL0     H77879   8.434   7.911   9.993  1.3784 -1.7368 -0.6808
  577MOL0     H77880   8.258   7.963  10.169  1.9564  1.0506 -1.9394
  577MOL0     H77881   7.918   7.811  10.364  2.8019 -2.2997 -0.3648
  577MOL0     H77882   7.698   7.721  10.438 -0.9802 -0.8412  0.6687
  577MOL0     H77883   7.541   7.597  10.520  5.1423  0.7388 -0.3356
  577MOL0     H77884   7.538   7.765  10.596  2.4689 -0.5314  0.2633
  577MOL0     H77885   7.408   7.527  10.732  0.3403 -0.0072 -0.8095
  577MOL0     H77886   7.318   7.653  10.642  1.7292  1.2700 -0.9297
  577MOL0     H77887   7.428   7.821  10.810 -1.2141  0.6364  3.8567
  577MOL0     H77888   7.489   7.675  10.881  1.6691  4.3493 -0.3441
  577MOL0     H77889   7.236   7.819  10.896  2.3693  2.2637 -1.3143
  577MOL0     H77890   7.193   7.652  10.843 -1.8733  1.9256  0.9870
  577MOL0     H77891   7.239   7.552  11.232 -1.7985  0.3484 -1.3528
  577MOL0     H77892   7.877   7.577  10.793  3.0807 -1.4042 -0.7472
  577MOL0     H77893   8.202   7.565  10.692  0.8277  0.6419  0.9858
  577MOL0     H77894   8.148   7.705  10.794 -1.9002  0.4771  1.4298
  577MOL0     H77895   8.082   7.535  10.811 -1.5570 -0.7367 -2.8374
  578MOL0     O77896  10.169   6.723   8.694  0.4011 -0.9821  0.4491
  578MOL0     C77897  10.163   6.622   8.628  0.9354 -0.4376  0.0106
  578MOL0     O77898  10.263   6.524   8.628 -0.5850 -0.0835 -0.0128
  578MOL0     C77899  10.394   6.560   8.612 -0.5961 -0.0819 -0.3755
  578MOL0     C77900  10.437   6.650   8.512 -1.0295  0.2064 -0.3229
  578MOL0     C77901  10.576   6.681   8.506 -0.3801  0.5896 -0.6803
  578MOL0     C77902  10.665   6.622   8.591 -0.0621 -0.5475 -0.5185
  578MOL0     O77903  10.794   6.675   8.576  0.0672 -0.3381 -0.4637
  578MOL0     C77904  10.899   6.630   8.664  0.6655  0.2403 -0.0733
  578MOL0     C77905  11.017   6.607   8.574 -0.9310  0.2768  0.0302
  578MOL0     C77906  11.141   6.535   8.652 -0.0539 -0.4063  0.3837
  578MOL0     C77907  11.252   6.648   8.668  0.3575 -1.0839  0.1256
  578MOL0     C77908  11.369   6.601   8.756 -0.2754 -0.1997  0.0876
  578MOL0     C77909  11.436   6.470   8.733 -0.3638  0.5169 -0.0102
  578MOL0     C77910  11.573   6.467   8.795  0.2041 -0.5781  0.0055
  578MOL0     C77911  11.684   6.515   8.699  0.0080  0.5075 -0.1015
  578MOL0     N77912  11.817   6.478   8.758  0.0635 -0.3728  1.0276
  578MOL0     C77913  11.856   6.349   8.772 -0.2246 -0.0987 -0.2165
  578MOL0     C77914  11.973   6.354   8.832 -0.2045 -0.1401 -0.5680
  578MOL0     C77915  12.054   6.236   8.884  0.6098  0.0853 -0.4269
  578MOL0     C77916  12.163   6.181   8.791 -0.2104  0.7795 -0.5504
  578MOL0     C77917  12.273   6.277   8.783  0.9924  0.4834 -0.5960
  578MOL0     C77918  12.377   6.218   8.690 -0.7238 -0.2995  0.1472
  578MOL0     O77919  12.507   6.260   8.735 -0.5212  0.2883 -0.2983
  578MOL0     C77920  12.615   6.256   8.647  1.1165 -0.2379 -0.5416
  578MOL0     C77921  12.739   6.298   8.686 -0.0720 -0.4288 -0.1509
  578MOL0     C77922  12.847   6.290   8.598 -0.7232  0.1709  0.0661
  578MOL0     C77923  12.830   6.237   8.468 -0.3497  0.0528 -0.2012
  578MOL0     C77924  12.947   6.224   8.374 -0.5509  0.1567 -0.3198
  578MOL0     O77925  13.063   6.288   8.414 -0.8488  0.0719  0.5552
  578MOL0     C77926  13.158   6.302   8.320 -0.4795  0.3491  0.3447
  578MOL0     C77927  13.198   6.432   8.293 -0.7645 -0.2881 -0.6284
  578MOL0     C77928  13.304   6.464   8.207 -0.1621 -0.3402 -0.1980
  578MOL0     C77929  13.381   6.361   8.148 -0.3776 -0.2203 -0.9437
  578MOL0     O77930  13.480   6.417   8.066  0.1662 -0.0417  0.2604
  578MOL0     C77931  13.545   6.330   7.977 -0.9896 -0.6694 -0.2056
  578MOL0     C77932  13.450   6.263   7.872  0.9509 -0.3624  0.4874
  578MOL0     C77933  13.519   6.217   7.744  0.0576  0.7177  0.2707
  578MOL0     C77934  13.425   6.184   7.625  0.0130  0.6406  1.4442
  578MOL0     C77935  13.314   6.081   7.656 -0.1793  0.1750 -0.3045
  578MOL0     C77936  13.235   6.033   7.537 -0.2009  0.2703 -0.0972
  578MOL0     C77937  13.327   5.984   7.421 -0.1869 -0.6239 -0.2679
  578MOL0     C77938  13.256   5.910   7.312  0.3872  0.4338 -0.5996
  578MOL0    Cl77939  13.198   5.743   7.357  0.2170  0.1006  0.0191
  578MOL0     C77940  13.355   6.228   8.178 -0.2244 -0.9543  0.0096
  578MOL0     C77941  13.244   6.203   8.267 -0.3058 -0.1242 -0.0559
  578MOL0     O77942  12.931   6.160   8.278 -0.3100 -0.0065  0.0931
  578MOL0     C77943  12.711   6.176   8.437 -0.0842 -0.9453  0.4751
  578MOL0     C77944  12.612   6.181   8.529  0.6756 -0.4443 -0.4095
  578MOL0     N77945  12.003   6.493   8.850 -0.0161 -0.0551  0.0151
  578MOL0     N77946  11.902   6.567   8.813  0.3956  0.7598  0.2172
  578MOL0     C77947  10.622   6.529   8.687  0.1350 -0.1707  0.7210
  578MOL0     C77948  10.485   6.495   8.691  0.5415 -0.1454  0.0096
  578MOL0     C77949  10.037   6.597   8.554 -0.2362  0.8913 -0.6676
  578MOL0     C77950  10.042   6.507   8.439 -0.4570 -0.3535  0.1911
  578MOL0     C77951   9.927   6.488   8.362  0.5833 -1.1710  0.0123
  578MOL0     C77952   9.804   6.546   8.393 -0.2669 -0.2936 -0.5841
  578MOL0     O77953   9.677   6.530   8.330 -0.5044 -0.2284 -0.2894
  578MOL0     C77954   9.675   6.589   8.200 -0.3765  0.1032  0.6501
  578MOL0     C77955   9.530   6.575   8.143 -0.3252  0.4575  0.5790
  578MOL0     C77956   9.423   6.611   8.240  0.0108 -0.3975 -0.9130
  578MOL0     C77957   9.289   6.604   8.167 -0.0573 -0.4465  0.6419
  578MOL0     C77958   9.172   6.608   8.252  0.4483 -0.3715 -0.7419
  578MOL0     C77959   9.073   6.592   8.315 -0.4720 -0.5153 -0.9378
  578MOL0     C77960   9.798   6.633   8.501 -0.0994  0.1356 -0.7525
  578MOL0     C77961   9.907   6.658   8.583 -0.0835  0.7153 -0.3643
  578MOL0     C77962   9.876   6.752   8.700  0.3182  0.0879 -0.4527
  578MOL0     H77963  10.376   6.695   8.435 -0.8423  0.1744 -0.4927
  578MOL0     H77964  10.606   6.765   8.443  1.8587  0.9393  0.7236
  578MOL0     H77965  10.923   6.707   8.738 -1.0261  0.7058  0.0160
  578MOL0     H77966  10.885   6.531   8.708  4.1844 -1.2885 -1.9294
  578MOL0     H77967  11.031   6.701   8.521 -1.2164 -0.5101 -1.4960
  578MOL0     H77968  10.993   6.534   8.496  0.4076  2.6672 -2.7747
  578MOL0     H77969  11.183   6.452   8.595  0.1385  0.5181 -0.8632
  578MOL0     H77970  11.094   6.490   8.740 -2.6246 -2.5483 -1.8840
  578MOL0     H77971  11.292   6.681   8.571  0.8415  2.1836  1.3083
  578MOL0     H77972  11.207   6.741   8.706  1.9010 -0.2652  0.0221
  578MOL0     H77973  11.439   6.684   8.744 -1.5217  0.8864  0.1490
  578MOL0     H77974  11.350   6.610   8.863  0.2594 -0.4193  0.2046
  578MOL0     H77975  11.370   6.398   8.780  1.9960 -0.7830  1.5041
  578MOL0     H77976  11.466   6.445   8.631  1.7370 -2.1558  1.1443
  578MOL0     H77977  11.594   6.367   8.833  0.9748  0.4630  2.5518
  578MOL0     H77978  11.566   6.522   8.889  0.0638  1.0422 -0.9032
  578MOL0     H77979  11.674   6.462   8.603 -0.5218  0.2855  0.0699
  578MOL0     H77980  11.667   6.623   8.691  0.1865  0.5100 -0.4740
  578MOL0     H77981  11.803   6.258   8.744  3.3663 -1.9453 -1.6316
  578MOL0     H77982  12.107   6.263   8.976  0.2789 -3.1193  0.8413
  578MOL0     H77983  11.979   6.161   8.913  1.7896  0.5300  4.7838
  578MOL0     H77984  12.202   6.093   8.843 -2.3968  0.8215  1.3028
  578MOL0     H77985  12.124   6.162   8.691  1.7830  1.0265 -1.4190
  578MOL0     H77986  12.328   6.280   8.877  0.2509  0.7577 -0.1620
  578MOL0     H77987  12.231   6.367   8.736 -1.8326 -0.5138 -0.1882
  578MOL0     H77988  12.363   6.253   8.587  0.3693 -2.3304 -0.7506
  578MOL0     H77989  12.362   6.110   8.679 -0.2429 -0.1135 -3.5863
  578MOL0     H77990  12.765   6.340   8.783 -2.1975  0.3038  0.1331
  578MOL0     H77991  12.945   6.336   8.608 -1.8790  2.7683  0.2718
  578MOL0     H77992  13.152   6.513   8.350  1.4941  1.4295 -1.1175
  578MOL0     H77993  13.342   6.565   8.196  0.1672 -0.4008  0.3637
  578MOL0     H77994  13.609   6.397   7.919  0.8029 -3.1544 -1.2641
  578MOL0     H77995  13.605   6.262   8.038 -0.3823  2.4367  2.9915
  578MOL0     H77996  13.407   6.175   7.920  0.1278 -0.8882 -1.1557
  578MOL0     H77997  13.376   6.339   7.846  1.9163  0.4260 -0.0343
  578MOL0     H77998  13.601   6.285   7.716  0.6979  0.3827  1.2907
  578MOL0     H77999  13.576   6.126   7.763  3.3076  2.3542 -0.7808
  578MOL0     H78000  13.487   6.132   7.552 -1.9794 -0.9020  0.7417
  578MOL0     H78001  13.378   6.269   7.575  2.9875  1.3225 -0.4628
  578MOL0     H78002  13.244   6.119   7.730 -2.3883 -3.0555 -0.5366
  578MOL0     H78003  13.373   5.999   7.699  3.2393  3.1606  1.2637
  578MOL0     H78004  13.153   5.961   7.551 -0.2359 -0.2707 -2.5258
  578MOL0     H78005  13.181   6.121   7.502  0.9784  1.0263 -0.0544
  578MOL0     H78006  13.399   5.916   7.467  0.5775  1.5278  1.9613
  578MOL0     H78007  13.375   6.071   7.377  1.2659 -0.5524  1.3738
  578MOL0     H78008  13.165   5.956   7.272 -1.3943 -1.6576  0.8028
  578MOL0     H78009  13.320   5.897   7.224 -2.8643  0.5189 -3.1812
  578MOL0     H78010  13.410   6.147   8.133 -0.5432 -0.1426 -1.9314
  578MOL0     H78011  13.225   6.099   8.291  1.0913 -0.2583  0.5919
  578MOL0     H78012  12.692   6.119   8.347 -2.8040  1.4821 -0.6538
  578MOL0     H78013  12.518   6.134   8.501 -0.4467  1.5757 -0.1768
  578MOL0     H78014  10.684   6.474   8.756 -0.4545 -0.6315  0.8943
  578MOL0     H78015  10.450   6.423   8.764  0.9632  0.3542  0.7217
  578MOL0     H78016  10.133   6.458   8.408  0.3697  1.8870 -1.1523
  578MOL0     H78017   9.935   6.430   8.271  1.1260  1.4235 -1.7273
  578MOL0     H78018   9.744   6.534   8.136  0.8608  2.1383  0.1306
  578MOL0     H78019   9.707   6.693   8.212  2.4837 -0.7658  1.1862
  578MOL0     H78020   9.520   6.478   8.094 -0.6755  1.4153 -1.3698
  578MOL0     H78021   9.513   6.638   8.055  2.0171  0.4740  0.0720
  578MOL0     H78022   9.436   6.706   8.292  3.1491 -1.8836  1.2975
  578MOL0     H78023   9.418   6.536   8.319 -1.1293  0.5194 -0.0879
  578MOL0     H78024   9.287   6.686   8.095  0.2276 -0.3375  0.7568
  578MOL0     H78025   9.297   6.513   8.107  1.3820 -1.6428  2.5427
  578MOL0     H78026   8.981   6.559   8.359  0.3048 -4.6909 -2.0221
  578MOL0     H78027   9.704   6.686   8.518 -0.5256 -1.3878  2.1955
  578MOL0     H78028   9.921   6.706   8.788 -1.6503 -2.1705 -0.5196
  578MOL0     H78029   9.928   6.843   8.671  0.0159  1.4876  2.9558
  578MOL0     H78030   9.769   6.773   8.714 -0.0317 -0.4794 -2.0662
  579MOL0     O78031   4.569   3.347   2.065  0.4058 -1.0052 -0.2466
  579MOL0     C78032   4.527   3.457   2.036  1.0600  0.1488  0.5565
  579MOL0     O78033   4.610   3.573   2.045  0.6994  0.1873 -0.0427
  579MOL0     C78034   4.745   3.559   2.083  0.8824  0.1394  0.9574
  579MOL0     C78035   4.794   3.663   2.160 -0.6145 -0.8242  0.3623
  579MOL0     C78036   4.933   3.671   2.207 -0.2362  0.2682  0.8255
  579MOL0     C78037   5.011   3.557   2.179  0.6024  0.1954 -0.4201
  579MOL0     O78038   5.146   3.560   2.217 -0.4567  0.0005 -0.1443
  579MOL0     C78039   5.214   3.449   2.280 -0.1612  0.8291  0.1213
  579MOL0     C78040   5.347   3.505   2.341  0.0628 -0.1817 -1.3856
  579MOL0     C78041   5.443   3.394   2.369 -0.2735 -0.4545 -0.2846
  579MOL0     C78042   5.549   3.444   2.474  0.4101  0.3964 -0.2354
  579MOL0     C78043   5.653   3.336   2.476  0.9528  0.3541  0.3423
  579MOL0     C78044   5.744   3.361   2.592 -0.8655 -0.2641 -0.0617
  579MOL0     C78045   5.861   3.253   2.594  0.0742 -0.3110 -0.4097
  579MOL0     C78046   5.815   3.113   2.629 -0.9982 -0.1566 -0.1889
  579MOL0     N78047   5.928   3.025   2.645 -0.1182  0.2186  0.0471
  579MOL0     C78048   6.019   2.982   2.545 -0.3929  0.4745  0.3047
  579MOL0     C78049   6.107   2.904   2.610  0.8806 -0.5757  0.0699
  579MOL0     C78050   6.229   2.849   2.541 -0.1318 -1.2062  0.5321
  579MOL0     C78051   6.325   2.762   2.630  0.4408 -0.3421 -0.1174
  579MOL0     C78052   6.437   2.679   2.552 -0.4486 -0.5724  0.7254
  579MOL0     C78053   6.513   2.780   2.462 -0.0796  0.3927  0.1305
  579MOL0     O78054   6.556   2.892   2.542  0.1601  1.0007  0.0226
  579MOL0     C78055   6.634   2.984   2.494 -0.0257 -0.4117 -0.3302
  579MOL0     C78056   6.694   3.068   2.580  0.1008 -0.5769  0.0593
  579MOL0     C78057   6.782   3.171   2.554 -0.7906  0.3105  0.6324
  579MOL0     C78058   6.818   3.185   2.415 -0.7544  0.2349 -0.6161
  579MOL0     C78059   6.933   3.278   2.376 -0.0744  0.0014  0.6670
  579MOL0     O78060   6.983   3.350   2.486 -0.2265  0.0257  0.0264
  579MOL0     C78061   7.061   3.457   2.462 -0.2803  0.1050 -0.1909
  579MOL0     C78062   7.201   3.441   2.440  0.0587 -0.5315  0.7242
  579MOL0     C78063   7.280   3.550   2.402 -0.5105 -0.0759 -0.0908
  579MOL0     C78064   7.219   3.678   2.397 -0.6476  0.5069  0.8126
  579MOL0     O78065   7.286   3.795   2.370 -0.1454  0.7729  0.3335
  579MOL0     C78066   7.424   3.786   2.349 -0.2368 -0.4014 -0.2374
  579MOL0     C78067   7.488   3.914   2.294 -0.7651  0.0631 -0.1010
  579MOL0     C78068   7.642   3.899   2.293  0.2166  0.6552 -0.2500
  579MOL0     C78069   7.693   4.030   2.247 -0.0863  0.0541  0.8421
  579MOL0     C78070   7.847   4.033   2.237  0.1100  0.1356 -0.3394
  579MOL0     C78071   7.898   4.168   2.194 -0.0200  0.3726 -0.0016
  579MOL0     C78072   8.047   4.166   2.201  0.0791  0.2648  0.8782
  579MOL0     C78073   8.078   4.316   2.177 -0.4337 -0.0977  0.5936
  579MOL0    Cl78074   8.262   4.330   2.223  0.4750 -0.2577 -0.2075
  579MOL0     C78075   7.087   3.687   2.407  0.6037  0.2112 -0.1703
  579MOL0     C78076   7.003   3.578   2.447 -0.1876 -0.7810 -0.0712
  579MOL0     O78077   6.957   3.298   2.260  0.3295  0.0615 -0.2031
  579MOL0     C78078   6.765   3.096   2.321 -0.3315  0.1023  0.0946
  579MOL0     C78079   6.665   3.004   2.359  0.4342 -0.1023  0.1943
  579MOL0     N78080   6.074   2.904   2.751  0.6728 -0.2519  0.5946
  579MOL0     N78081   5.969   2.980   2.765 -0.0198 -0.0703 -0.3696
  579MOL0     C78082   4.957   3.443   2.103  0.1370 -0.4495 -0.2649
  579MOL0     C78083   4.829   3.456   2.046  0.2318 -0.4397 -0.4931
  579MOL0     C78084   4.381   3.469   2.004 -0.0782 -0.3293 -0.0803
  579MOL0     C78085   4.304   3.358   1.966 -0.2857 -0.2808 -0.7027
  579MOL0     C78086   4.165   3.366   1.939  0.0717  0.6895  0.3427
  579MOL0     C78087   4.101   3.493   1.941  0.0703  0.3073  0.2462
  579MOL0     O78088   3.970   3.510   1.906  0.4211 -0.3449  0.5671
  579MOL0     C78089   3.904   3.397   1.842  1.1387  0.4554 -0.4648
  579MOL0     C78090   3.768   3.450   1.789 -0.2264 -0.3663 -0.2915
  579MOL0     C78091   3.687   3.525   1.898  0.0659  0.1710 -0.6495
  579MOL0     C78092   3.536   3.523   1.870  0.3643 -0.0279 -0.5216
  579MOL0     C78093   3.495   3.603   1.755  1.1065 -0.3856 -0.2578
  579MOL0     C78094   3.458   3.670   1.661 -0.2896 -0.3932 -0.0387
  579MOL0     C78095   4.176   3.607   1.964  0.3320  0.3767  0.2736
  579MOL0     C78096   4.313   3.592   1.997 -0.0200 -0.2466 -0.2026
  579MOL0     C78097   4.380   3.732   2.011 -0.3443  0.2913 -0.0329
  579MOL0     H78098   4.740   3.749   2.197  2.4974  1.3451  0.2824
  579MOL0     H78099   4.976   3.761   2.250 -0.1583  1.3945 -1.4852
  579MOL0     H78100   5.156   3.403   2.360  0.0013  0.4130  0.0013
  579MOL0     H78101   5.233   3.370   2.206  2.5782 -0.3730  1.9130
  579MOL0     H78102   5.323   3.555   2.435  1.6074 -2.9302  0.5950
  579MOL0     H78103   5.386   3.573   2.265 -0.3822  0.7984 -0.7599
  579MOL0     H78104   5.497   3.373   2.277 -0.8329 -3.3990 -0.0420
  579MOL0     H78105   5.389   3.302   2.394  1.1383 -2.0723 -2.7425
  579MOL0     H78106   5.590   3.541   2.444  2.6384  0.2618  2.0315
  579MOL0     H78107   5.499   3.455   2.571  3.0749  0.4494  1.2352
  579MOL0     H78108   5.587   3.251   2.497 -3.0809  2.8606 -0.9933
  579MOL0     H78109   5.705   3.326   2.380  0.6809 -1.3348  0.3370
  579MOL0     H78110   5.795   3.457   2.576  0.6142 -0.4578  2.8321
  579MOL0     H78111   5.683   3.350   2.682  0.0575 -2.2030  0.3817
  579MOL0     H78112   5.934   3.299   2.661 -2.0397  2.4044  0.2205
  579MOL0     H78113   5.899   3.258   2.492  0.2612  1.5023 -0.2852
  579MOL0     H78114   5.769   3.113   2.729  1.4200 -0.3608  1.0022
  579MOL0     H78115   5.743   3.080   2.553 -1.7161  2.9263 -0.9527
  579MOL0     H78116   6.008   3.001   2.439 -1.8219  0.0956  0.3551
  579MOL0     H78117   6.185   2.790   2.460  1.5352 -0.0716 -1.2614
  579MOL0     H78118   6.276   2.943   2.512 -0.1971 -0.5291  2.4609
  579MOL0     H78119   6.375   2.827   2.703  2.9677 -2.3518  0.0563
  579MOL0     H78120   6.262   2.693   2.687 -1.0982  0.3839 -0.8648
  579MOL0     H78121   6.397   2.596   2.493 -0.1770 -0.5546  0.5105
  579MOL0     H78122   6.504   2.646   2.631  2.4384 -0.2946 -1.4183
  579MOL0     H78123   6.456   2.811   2.374 -1.3315 -1.8492  0.0683
  579MOL0     H78124   6.605   2.736   2.423  1.2220  2.0378  1.1869
  579MOL0     H78125   6.662   3.041   2.680 -0.3513 -2.4182 -0.5403
  579MOL0     H78126   6.833   3.236   2.624  1.5247  2.1506 -2.4693
  579MOL0     H78127   7.259   3.350   2.454  0.0207 -0.8541 -1.0091
  579MOL0     H78128   7.388   3.541   2.388 -0.7402  0.9012 -3.2780
  579MOL0     H78129   7.466   3.763   2.447 -2.2870 -0.0853  0.7700
  579MOL0     H78130   7.440   3.704   2.279  1.5113 -0.6678  0.4398
  579MOL0     H78131   7.457   3.937   2.191  2.9181 -1.8783 -1.8584
  579MOL0     H78132   7.454   3.995   2.359 -1.5879 -0.9466  0.7433
  579MOL0     H78133   7.674   3.885   2.397  0.9548 -2.7357 -0.8110
  579MOL0     H78134   7.681   3.823   2.226 -1.2823  0.1229 -0.5555
  579MOL0     H78135   7.656   4.111   2.310 -3.5323 -0.4742 -0.2918
  579MOL0     H78136   7.649   4.044   2.147  3.0850  2.4194 -0.3874
  579MOL0     H78137   7.878   3.963   2.159  1.5750 -1.8581  1.9130
  579MOL0     H78138   7.897   4.001   2.329  0.2039 -0.4710 -0.5993
  579MOL0     H78139   7.862   4.200   2.096 -0.3906 -1.1756 -0.3973
  579MOL0     H78140   7.851   4.243   2.258 -1.1517 -0.7472  0.5309
  579MOL0     H78141   8.075   4.104   2.116 -0.0744  2.4326 -0.8496
  579MOL0     H78142   8.097   4.126   2.290  0.6038 -0.4297  0.2789
  579MOL0     H78143   8.054   4.343   2.074 -1.7972  0.6432  1.0842
  579MOL0     H78144   8.032   4.377   2.255 -1.3642 -0.2836  0.2045
  579MOL0     H78145   7.042   3.786   2.398 -2.2419 -1.1599 -2.7760
  579MOL0     H78146   6.902   3.597   2.481  1.2617  2.1845  3.1722
  579MOL0     H78147   6.806   3.103   2.221 -0.9334  0.0557 -0.1563
  579MOL0     H78148   6.620   2.933   2.290 -0.2285  1.1243 -0.6682
  579MOL0     H78149   5.025   3.359   2.094  1.9024  0.5564  2.4152
  579MOL0     H78150   4.800   3.393   1.963  0.8964  2.9595 -3.5442
  579MOL0     H78151   4.345   3.257   1.959  1.6413  0.4489 -0.5030
  579MOL0     H78152   4.110   3.274   1.917  1.6405 -0.5090  1.2266
  579MOL0     H78153   3.888   3.328   1.926 -1.5478  3.5334  1.8004
  579MOL0     H78154   3.953   3.350   1.757  1.5064  0.6971 -0.3885
  579MOL0     H78155   3.702   3.371   1.752 -2.1192 -0.2885  2.6390
  579MOL0     H78156   3.794   3.523   1.711  1.6877 -2.6957 -2.0052
  579MOL0     H78157   3.730   3.625   1.895  0.8411  0.2193  4.3770
  579MOL0     H78158   3.703   3.478   1.995 -3.4424 -1.1734 -0.5917
  579MOL0     H78159   3.503   3.421   1.848 -0.9477  0.3073 -0.2009
  579MOL0     H78160   3.485   3.561   1.959 -1.7563  1.6421 -2.3470
  579MOL0     H78161   3.424   3.720   1.573  2.5901  1.9310  0.0206
  579MOL0     H78162   4.135   3.707   1.959  0.3925  0.4600  1.2390
  579MOL0     H78163   4.461   3.737   2.085 -2.4099  2.0796  2.2451
  579MOL0     H78164   4.399   3.763   1.908  0.8827  1.9599  0.6604
  579MOL0     H78165   4.312   3.808   2.048  0.3232  0.6551  0.4701
  580MOL0     O78166   1.222   6.346   1.923 -0.6892  0.4447  0.4189
  580MOL0     C78167   1.204   6.362   2.038  0.3042  0.4063 -0.2258
  580MOL0     O78168   1.294   6.365   2.137  0.4026 -0.7333  0.5752
  580MOL0     C78169   1.430   6.357   2.109  0.8988  0.5855 -0.0532
  580MOL0     C78170   1.503   6.234   2.128 -0.0124  0.3820  0.3091
  580MOL0     C78171   1.644   6.225   2.118 -0.0871  0.2521 -0.5266
  580MOL0     C78172   1.720   6.333   2.092 -0.3671  0.8825 -0.2218
  580MOL0     O78173   1.856   6.314   2.086 -0.1821 -0.1082  0.4147
  580MOL0     C78174   1.937   6.433   2.091 -0.4433 -0.1204 -0.5906
  580MOL0     C78175   2.077   6.393   2.120 -1.4042  0.2539  0.1368
  580MOL0     C78176   2.120   6.295   2.007 -0.4567  0.6476 -0.8462
  580MOL0     C78177   2.274   6.272   2.030 -0.5211 -0.0560  0.0440
  580MOL0     C78178   2.338   6.194   1.919  0.0460  0.3875 -0.5502
  580MOL0     C78179   2.413   6.278   1.829 -0.9952  0.4240  0.5962
  580MOL0     C78180   2.503   6.195   1.737  0.1537  0.7303  0.3680
  580MOL0     C78181   2.534   6.265   1.601 -0.7587  0.2493  0.1708
  580MOL0     N78182   2.636   6.374   1.621 -0.2101  0.4654 -0.5377
  580MOL0     C78183   2.769   6.353   1.653 -0.8851 -1.0726 -0.3577
  580MOL0     C78184   2.830   6.473   1.630  0.2302 -0.7192 -0.2374
  580MOL0     C78185   2.976   6.507   1.653 -0.0016 -1.1008 -0.6126
  580MOL0     C78186   3.071   6.418   1.587 -0.0665 -0.1204  0.1448
  580MOL0     C78187   3.214   6.483   1.601  0.3642 -0.0241  0.6569
  580MOL0     C78188   3.302   6.390   1.507  0.6680 -0.3319 -0.4803
  580MOL0     O78189   3.432   6.441   1.535 -0.0456  0.1454 -0.0903
  580MOL0     C78190   3.543   6.376   1.486  0.0308 -0.0492 -0.9377
  580MOL0     C78191   3.671   6.421   1.536 -0.0627  0.6530  0.6200
  580MOL0     C78192   3.790   6.364   1.493 -0.3731  0.3091  0.0079
  580MOL0     C78193   3.784   6.255   1.395  0.0339  0.4590  0.1850
  580MOL0     C78194   3.911   6.212   1.335 -0.1079  0.1511 -0.2756
  580MOL0     O78195   4.033   6.253   1.397  0.8140 -0.3452  0.4317
  580MOL0     C78196   4.155   6.207   1.351  0.3636  0.1985  0.0832
  580MOL0     C78197   4.227   6.103   1.421  0.2622  0.1648 -0.0042
  580MOL0     C78198   4.363   6.083   1.385  0.8387  0.8479 -0.9386
  580MOL0     C78199   4.430   6.152   1.289  0.5547 -0.8929  0.5304
  580MOL0     O78200   4.562   6.124   1.264  0.5257  0.2131  0.1597
  580MOL0     C78201   4.587   6.100   1.124  0.1207  0.2560 -0.2286
  580MOL0     C78202   4.723   6.034   1.110  0.7115  0.6830 -0.2907
  580MOL0     C78203   4.768   6.018   0.963  0.7007  0.3231 -0.7925
  580MOL0     C78204   4.906   5.952   0.971 -0.6396 -0.2183  0.3382
  580MOL0     C78205   4.980   5.940   0.825  0.7647  0.0409 -0.4137
  580MOL0     C78206   5.135   5.903   0.837  0.3136  0.0577  0.7032
  580MOL0     C78207   5.212   6.016   0.891  0.4928 -0.2801  0.1352
  580MOL0     C78208   5.318   5.983   0.991  0.1118  0.2167 -0.4600
  580MOL0    Cl78209   5.271   5.916   1.157  0.4714 -0.0255  0.7169
  580MOL0     C78210   4.360   6.251   1.217 -0.2482  0.4388 -0.4250
  580MOL0     C78211   4.211   6.268   1.241 -1.3155 -0.3257 -0.5046
  580MOL0     O78212   3.898   6.134   1.237  0.0094  0.4634  1.2215
  580MOL0     C78213   3.656   6.208   1.351 -0.9662 -0.4010 -0.4077
  580MOL0     C78214   3.540   6.273   1.393  0.5198 -1.4357  0.6025
  580MOL0     N78215   2.731   6.574   1.611 -0.1749  0.3610  0.4862
  580MOL0     N78216   2.621   6.509   1.607 -0.1113  0.5394 -0.3977
  580MOL0     C78217   1.655   6.451   2.076 -1.2712 -0.3460  0.0230
  580MOL0     C78218   1.513   6.466   2.076  0.3025 -0.2595 -0.8783
  580MOL0     C78219   1.068   6.357   2.083 -0.6585  0.3647 -0.9482
  580MOL0     C78220   1.021   6.245   2.163  0.5392  0.7234  0.3442
  580MOL0     C78221   0.884   6.229   2.199 -0.0382  0.2419  0.3547
  580MOL0     C78222   0.785   6.320   2.156  0.5689 -0.3329  0.4643
  580MOL0     O78223   0.650   6.306   2.195 -0.0077  0.3341 -0.9373
  580MOL0     C78224   0.551   6.355   2.105 -0.2226 -0.0160 -1.5655
  580MOL0     C78225   0.416   6.293   2.163 -0.1700 -0.9685  0.1414
  580MOL0     C78226   0.305   6.290   2.064  0.4076 -0.7829  0.5794
  580MOL0     C78227   0.166   6.287   2.130  1.0502 -0.1006  0.0691
  580MOL0     C78228   0.053   6.334   2.047 -0.5862 -0.5419  0.0587
  580MOL0     C78229  -0.034   6.360   1.979 -0.2363  0.5292  1.0923
  580MOL0     C78230   0.823   6.420   2.059 -0.4073  0.2199 -0.0532
  580MOL0     C78231   0.965   6.432   2.032 -0.0145  0.9652 -0.4983
  580MOL0     C78232   0.996   6.550   1.953  0.1921 -0.2717  0.1098
  580MOL0     H78233   1.440   6.148   2.149 -0.9077  0.7263 -0.8424
  580MOL0     H78234   1.697   6.132   2.137 -1.0807 -0.0782  0.7444
  580MOL0     H78235   1.922   6.486   1.997 -0.7080  0.2132 -0.3645
  580MOL0     H78236   1.902   6.498   2.173  1.3710 -0.6417  0.6492
  580MOL0     H78237   2.095   6.343   2.215  0.7695  0.8555  0.0940
  580MOL0     H78238   2.152   6.472   2.113  1.6597 -2.4002  0.7076
  580MOL0     H78239   2.099   6.334   1.908  0.4548 -1.3441 -1.8803
  580MOL0     H78240   2.065   6.201   2.019  2.0947 -1.0398 -1.5215
  580MOL0     H78241   2.319   6.371   2.031 -1.3798  0.3777 -1.1724
  580MOL0     H78242   2.290   6.224   2.126 -1.2360 -2.4781 -0.9650
  580MOL0     H78243   2.393   6.111   1.964 -0.0815  0.9533  0.7061
  580MOL0     H78244   2.259   6.148   1.860 -1.6427  1.7457  0.5710
  580MOL0     H78245   2.344   6.334   1.765  1.7184  1.8585 -1.2218
  580MOL0     H78246   2.477   6.353   1.876 -0.0844  1.6483 -2.3851
  580MOL0     H78247   2.456   6.098   1.720 -3.6793  2.1154  1.8978
  580MOL0     H78248   2.597   6.178   1.791  0.1817 -0.8817 -0.1462
  580MOL0     H78249   2.570   6.200   1.521 -1.4162 -1.7826  1.4542
  580MOL0     H78250   2.443   6.314   1.566 -0.2851  1.5217  0.6352
  580MOL0     H78251   2.833   6.267   1.671  0.9752  0.3820  0.2035
  580MOL0     H78252   2.992   6.609   1.617  0.0463 -0.4652  1.1343
  580MOL0     H78253   2.991   6.515   1.761 -1.0052 -2.2645 -0.3582
  580MOL0     H78254   3.063   6.315   1.625  1.5920 -0.2680  0.1685
  580MOL0     H78255   3.049   6.412   1.480  1.9057  0.9182 -0.3743
  580MOL0     H78256   3.247   6.492   1.704  2.7500 -0.9325  0.0382
  580MOL0     H78257   3.218   6.584   1.558  0.6246  0.1374  1.0576
  580MOL0     H78258   3.273   6.392   1.401  1.2223 -1.4179 -0.6637
  580MOL0     H78259   3.297   6.286   1.540  0.6634  0.7089  3.2590
  580MOL0     H78260   3.668   6.506   1.604 -1.7394  0.9225  0.2637
  580MOL0     H78261   3.880   6.396   1.544 -0.6385  0.5052  0.3580
  580MOL0     H78262   4.195   6.056   1.513  1.5826 -1.2620 -0.2383
  580MOL0     H78263   4.416   6.010   1.445  0.6530 -0.3478 -2.2003
  580MOL0     H78264   4.511   6.033   1.081  1.2108 -0.7560 -0.6296
  580MOL0     H78265   4.592   6.193   1.068  0.7753  0.2401 -0.1972
  580MOL0     H78266   4.798   6.100   1.154 -0.7044  0.4690  2.6527
  580MOL0     H78267   4.720   5.935   1.156 -2.4984  0.0639 -1.5431
  580MOL0     H78268   4.696   5.978   0.891 -0.3991  2.1219 -0.7482
  580MOL0     H78269   4.790   6.119   0.928  2.7551  0.2402  0.1113
  580MOL0     H78270   4.902   5.851   1.011 -2.0984  0.5259  2.2217
  580MOL0     H78271   4.968   6.012   1.038 -2.7212 -1.0297  3.2030
  580MOL0     H78272   4.959   6.031   0.767  2.7178 -0.9367 -2.8485
  580MOL0     H78273   4.914   5.865   0.781 -2.7179  0.4356  3.5362
  580MOL0     H78274   5.160   5.807   0.884  1.7500 -0.7441 -1.5468
  580MOL0     H78275   5.156   5.901   0.730 -3.9697  2.0908 -0.3711
  580MOL0     H78276   5.137   6.089   0.924 -2.0707 -0.7292 -3.9641
  580MOL0     H78277   5.262   6.064   0.807 -1.3740 -1.1574 -1.5587
  580MOL0     H78278   5.383   5.917   0.933  1.9990  2.3971 -0.9681
  580MOL0     H78279   5.375   6.074   1.011  2.6150 -1.1254 -0.9468
  580MOL0     H78280   4.405   6.290   1.127 -0.0762  0.2955 -0.4017
  580MOL0     H78281   4.150   6.336   1.182 -1.2071 -2.3396 -3.1182
  580MOL0     H78282   3.660   6.124   1.282  0.6475 -1.6731  1.1344
  580MOL0     H78283   3.439   6.237   1.373 -0.0765  0.2511  0.3459
  580MOL0     H78284   1.715   6.538   2.053  0.0690 -0.8375  1.5032
  580MOL0     H78285   1.469   6.565   2.067 -2.0488 -0.8475  2.2807
  580MOL0     H78286   1.086   6.168   2.201  1.5382  2.5186  2.5251
  580MOL0     H78287   0.860   6.140   2.256  0.9312  0.0616  0.4996
  580MOL0     H78288   0.557   6.332   1.998 -2.4903 -1.7969 -1.3822
  580MOL0     H78289   0.541   6.464   2.115 -2.5940 -0.3897  1.8309
  580MOL0     H78290   0.381   6.353   2.247  0.0069  2.5835 -2.1010
  580MOL0     H78291   0.433   6.191   2.199 -3.4319 -1.5845  0.2684
  580MOL0     H78292   0.311   6.200   2.003 -1.1746 -1.0914  0.8228
  580MOL0     H78293   0.311   6.379   2.001  2.4686 -2.3336 -1.5659
  580MOL0     H78294   0.135   6.187   2.161 -0.4289  0.1277 -0.5929
  580MOL0     H78295   0.163   6.353   2.216 -2.9559  0.4962 -0.3401
  580MOL0     H78296  -0.116   6.391   1.917  1.3923  0.8132 -1.0680
  580MOL0     H78297   0.753   6.489   2.015  1.2686  1.3793 -1.0158
  580MOL0     H78298   1.028   6.520   1.853 -2.5299 -1.3359 -0.5200
  580MOL0     H78299   0.913   6.620   1.942  1.0807  1.2302  2.1844
  580MOL0     H78300   1.080   6.609   1.993 -0.4170  0.8731 -0.2412
  581MOL0     O78301  11.237   8.904   0.593 -0.3864 -0.3755 -0.3307
  581MOL0     C78302  11.255   8.813   0.675 -0.4356  0.7274 -0.1428
  581MOL0     O78303  11.360   8.727   0.677 -0.3192 -0.1210 -0.4625
  581MOL0     C78304  11.479   8.772   0.614 -0.2275  0.7918  0.0776
  581MOL0     C78305  11.553   8.888   0.647  0.8440  0.7464  0.3782
  581MOL0     C78306  11.679   8.932   0.589  0.6397 -0.3505  0.3854
  581MOL0     C78307  11.729   8.856   0.481  0.5241  0.1352  0.1021
  581MOL0     O78308  11.844   8.905   0.425  0.5068  0.7964  0.2904
  581MOL0     C78309  11.929   8.807   0.360 -0.1008  0.3886  0.0713
  581MOL0     C78310  12.024   8.747   0.471  0.6717  0.0348  0.8804
  581MOL0     C78311  12.110   8.851   0.533  0.0345  0.2540  0.3663
  581MOL0     C78312  12.244   8.806   0.592  0.0081  0.4322  0.8562
  581MOL0     C78313  12.352   8.903   0.626  0.2599  0.7850 -0.1480
  581MOL0     C78314  12.285   9.029   0.685  0.5959  0.2043 -0.3365
  581MOL0     C78315  12.247   9.021   0.828 -0.3072 -0.1352 -0.2180
  581MOL0     C78316  12.186   9.151   0.888  0.6813 -0.0594 -0.3873
  581MOL0     N78317  12.287   9.242   0.947  0.3082  0.5203 -0.3739
  581MOL0     C78318  12.258   9.353   1.035 -0.0056 -0.2107 -0.0544
  581MOL0     C78319  12.380   9.401   1.069 -0.1521  0.1055 -0.6651
  581MOL0     C78320  12.419   9.521   1.152 -0.7346 -0.2861  0.1810
  581MOL0     C78321  12.521   9.618   1.092  0.0102  0.5197 -0.6101
  581MOL0     C78322  12.525   9.757   1.167 -0.2955  1.0516 -0.6521
  581MOL0     C78323  12.598   9.746   1.304  0.3233 -0.0442  0.3320
  581MOL0     O78324  12.727   9.690   1.292 -0.2147 -0.5294 -0.5883
  581MOL0     C78325  12.831   9.744   1.376  0.1529 -0.3899 -0.5000
  581MOL0     C78326  12.955   9.696   1.339  0.4875  0.3814  0.6965
  581MOL0     C78327  13.063   9.742   1.401 -0.5821  0.6194 -0.2174
  581MOL0     C78328  13.059   9.838   1.502  0.6057 -0.2998  0.2613
  581MOL0     C78329  13.192   9.887   1.565  0.6853 -0.1136 -0.6216
  581MOL0     O78330  13.182   9.996   1.645  0.3628 -0.5100 -0.2581
  581MOL0     C78331  13.302  10.052   1.685  0.6476  0.2638 -0.8182
  581MOL0     C78332  13.355  10.171   1.638 -0.4087 -0.0995 -0.0117
  581MOL0     C78333  13.471  10.227   1.698 -0.4555  1.4511 -0.6701
  581MOL0     C78334  13.533  10.163   1.803 -0.9470  0.3773 -0.3135
  581MOL0     O78335  13.645  10.227   1.869 -0.2652 -0.4408 -0.1014
  581MOL0     C78336  13.680  10.190   2.006  0.1704 -0.3246 -0.2803
  581MOL0     C78337  13.760  10.286   2.084  0.2615  0.2184 -0.0209
  581MOL0     C78338  13.883  10.340   2.017 -0.1659 -0.4291  0.4679
  581MOL0     C78339  14.007  10.265   2.054 -0.1111 -0.0949  0.1808
  581MOL0     C78340  14.136  10.312   1.992  0.1761 -0.6191  0.2164
  581MOL0     C78341  14.148  10.252   1.851  0.5684  0.4783 -0.1292
  581MOL0     C78342  14.292  10.280   1.794 -0.0152  1.3234  0.0904
  581MOL0     C78343  14.400  10.169   1.826 -0.0779 -0.7126 -0.4901
  581MOL0    Cl78344  14.420  10.150   1.998  0.2041  0.0301  0.2305
  581MOL0     C78345  13.479  10.039   1.857  0.4356 -0.5323  0.2905
  581MOL0     C78346  13.360   9.990   1.797  0.6379 -0.6497 -1.0890
  581MOL0     O78347  13.298   9.825   1.535  1.1742 -0.3574  0.0009
  581MOL0     C78348  12.931   9.890   1.538  0.3542 -0.2218  0.1183
  581MOL0     C78349  12.814   9.844   1.476 -1.7572  0.1331 -1.1907
  581MOL0     N78350  12.475   9.321   1.009  0.2132  0.6788 -0.0722
  581MOL0     N78351  12.423   9.238   0.931  0.2514  0.6694  0.2801
  581MOL0     C78352  11.654   8.745   0.439  0.3468  0.7434 -0.4303
  581MOL0     C78353  11.535   8.708   0.499 -0.4791  1.1187 -0.4279
  581MOL0     C78354  11.124   8.775   0.745  0.1942 -0.3186  0.2299
  581MOL0     C78355  11.123   8.633   0.777 -0.3728 -0.5803 -0.3890
  581MOL0     C78356  11.027   8.596   0.869  0.1978 -0.4883  0.3090
  581MOL0     C78357  10.933   8.682   0.928 -0.8660  0.2109 -0.5044
  581MOL0     O78358  10.840   8.645   1.023  0.7165 -0.8498  0.2119
  581MOL0     C78359  10.820   8.501   1.054  0.4545 -0.1925  0.1849
  581MOL0     C78360  10.716   8.487   1.168 -0.0478 -0.0535  0.4801
  581MOL0     C78361  10.575   8.535   1.136  0.3708  0.3516  0.8744
  581MOL0     C78362  10.497   8.446   1.044 -0.1189 -0.7615 -0.5954
  581MOL0     C78363  10.347   8.476   1.041 -0.3405  0.9699 -0.2657
  581MOL0     C78364  10.232   8.503   1.032 -0.0768  0.3327 -0.5831
  581MOL0     C78365  10.930   8.817   0.889 -0.0240  0.0243 -1.1085
  581MOL0     C78366  11.034   8.873   0.806  0.2287  0.0307 -0.4071
  581MOL0     C78367  11.046   9.027   0.788  0.6788  0.0402 -0.3471
  581MOL0     H78368  11.513   8.944   0.730 -2.1132 -1.3471  0.4978
  581MOL0     H78369  11.737   9.014   0.629  0.2311 -0.1185  0.5134
  581MOL0     H78370  11.879   8.733   0.297  1.4578 -1.6149  1.0753
  581MOL0     H78371  11.983   8.873   0.291 -0.0549 -0.8781 -1.1381
  581MOL0     H78372  12.091   8.674   0.425  1.0480  1.3084 -0.6715
  581MOL0     H78373  11.970   8.696   0.551  1.3540 -3.2644 -0.6039
  581MOL0     H78374  12.054   8.903   0.612  0.8143  0.5144  0.7580
  581MOL0     H78375  12.134   8.922   0.453  3.4600  0.1736  1.1554
  581MOL0     H78376  12.212   8.750   0.681  1.5520  0.1252  1.2490
  581MOL0     H78377  12.292   8.746   0.514  0.8555  4.0335 -1.6173
  581MOL0     H78378  12.427   8.863   0.694 -1.1232  1.4899  1.8816
  581MOL0     H78379  12.395   8.923   0.527  0.7152 -2.3454 -0.6654
  581MOL0     H78380  12.354   9.114   0.689  1.7654 -0.7484  0.9078
  581MOL0     H78381  12.198   9.060   0.626  1.5237 -1.8016 -2.9467
  581MOL0     H78382  12.338   8.999   0.885 -1.1204 -0.6489  0.9320
  581MOL0     H78383  12.170   8.943   0.833 -2.4317  1.9000  0.5226
  581MOL0     H78384  12.137   9.212   0.812 -1.2189  0.6503  1.3274
  581MOL0     H78385  12.110   9.131   0.963  0.5026 -1.6291 -0.9438
  581MOL0     H78386  12.160   9.396   1.053 -0.6375  0.1318 -3.5712
  581MOL0     H78387  12.331   9.573   1.191 -0.0620  2.4447 -1.6803
  581MOL0     H78388  12.463   9.497   1.249 -0.3967  3.4133  1.0884
  581MOL0     H78389  12.614   9.561   1.084  0.2727  1.0654 -1.5675
  581MOL0     H78390  12.492   9.641   0.989 -2.9592 -1.4173 -0.3141
  581MOL0     H78391  12.426   9.802   1.173 -0.2977  1.1401 -1.2497
  581MOL0     H78392  12.569   9.829   1.097 -3.4755  1.8466 -2.0203
  581MOL0     H78393  12.532   9.690   1.371 -0.1963  0.8400  0.5759
  581MOL0     H78394  12.606   9.845   1.351  0.3936  0.2934 -0.3739
  581MOL0     H78395  12.964   9.621   1.262 -1.6404 -0.3803  1.1173
  581MOL0     H78396  13.161   9.708   1.371 -0.7831 -1.5614  1.2905
  581MOL0     H78397  13.302  10.225   1.561 -1.7928 -1.3228  0.0466
  581MOL0     H78398  13.512  10.324   1.670 -1.4774  2.5756  1.5055
  581MOL0     H78399  13.589  10.166   2.063 -0.5770 -1.3431 -1.8132
  581MOL0     H78400  13.735  10.096   2.008  1.1875  0.2702  0.7842
  581MOL0     H78401  13.694  10.370   2.107  2.3172  1.3024  2.3288
  581MOL0     H78402  13.790  10.240   2.178 -0.4701  0.5857  0.4011
  581MOL0     H78403  13.859  10.351   1.910 -3.5140  0.7446  1.2289
  581MOL0     H78404  13.900  10.444   2.044  2.4770 -0.7481  0.2723
  581MOL0     H78405  14.005  10.158   2.036  0.8678  0.1262 -1.4682
  581MOL0     H78406  14.013  10.277   2.163 -4.1200  1.6754  0.3916
  581MOL0     H78407  14.212  10.256   2.046  1.3542 -0.1390 -0.8740
  581MOL0     H78408  14.137  10.421   1.983  0.5253 -0.6808 -0.5315
  581MOL0     H78409  14.128  10.145   1.851 -0.6414  0.6794 -1.6129
  581MOL0     H78410  14.071  10.301   1.791  0.1385 -0.0208  0.0010
  581MOL0     H78411  14.324  10.378   1.830  2.9679 -0.8622  4.3419
  581MOL0     H78412  14.267  10.278   1.688 -0.4044  0.8125  0.1868
  581MOL0     H78413  14.367  10.077   1.777  0.6242  0.1249 -2.6810
  581MOL0     H78414  14.494  10.197   1.776  1.2575  2.3080  3.1923
  581MOL0     H78415  13.517   9.975   1.936  0.2755 -2.7677 -1.3326
  581MOL0     H78416  13.308   9.904   1.837  2.2200 -0.8265  0.6881
  581MOL0     H78417  12.927   9.972   1.609 -1.8353  0.0768 -0.2890
  581MOL0     H78418  12.714   9.868   1.513 -1.8439 -1.8240  0.0097
  581MOL0     H78419  11.680   8.694   0.347 -0.5579 -1.7214  0.6085
  581MOL0     H78420  11.474   8.628   0.457 -0.6639  1.5486 -0.9964
  581MOL0     H78421  11.190   8.556   0.742 -1.5444 -0.9501 -1.9722
  581MOL0     H78422  11.007   8.490   0.886 -1.1584 -0.6329 -1.7681
  581MOL0     H78423  10.909   8.444   1.079 -0.9571 -2.9997 -0.7678
  581MOL0     H78424  10.780   8.448   0.967  1.4537 -0.3733 -0.1707
  581MOL0     H78425  10.751   8.550   1.250 -2.8410 -0.1722  1.8997
  581MOL0     H78426  10.733   8.385   1.204  1.2782 -0.2808 -0.6970
  581MOL0     H78427  10.588   8.633   1.089  3.4568 -0.0137  0.7641
  581MOL0     H78428  10.529   8.555   1.233  3.6943  2.6235  2.1537
  581MOL0     H78429  10.532   8.464   0.942  0.6807  2.1068  0.1056
  581MOL0     H78430  10.518   8.340   1.063  0.4961 -0.8452 -1.6399
  581MOL0     H78431  10.126   8.501   1.018 -0.0931 -1.6923 -0.5517
  581MOL0     H78432  10.851   8.873   0.936 -2.3967 -0.5915 -4.0599
  581MOL0     H78433  11.149   9.056   0.811  1.0625  1.8412 -3.6352
  581MOL0     H78434  11.022   9.063   0.687 -0.1322  1.6641  0.3924
  581MOL0     H78435  10.980   9.077   0.859  0.9264 -0.1040 -0.0181
  582MOL0     O78436   1.899   3.686   4.366 -0.2572  0.1247 -0.7576
  582MOL0     C78437   1.852   3.591   4.304  0.1534  0.1989  0.7267
  582MOL0     O78438   1.866   3.460   4.338 -0.5197 -0.4721  0.1675
  582MOL0     C78439   1.965   3.414   4.423 -0.0443  0.1209  0.6973
  582MOL0     C78440   2.083   3.483   4.448 -0.0177  0.3646  0.6416
  582MOL0     C78441   2.181   3.425   4.528 -0.2400 -1.1451 -0.4643
  582MOL0     C78442   2.164   3.292   4.570 -0.6191 -0.3047  0.5528
  582MOL0     O78443   2.247   3.225   4.659 -0.4416  0.3558 -0.7674
  582MOL0     C78444   2.364   3.289   4.719  0.3099  0.1579  0.5411
  582MOL0     C78445   2.482   3.259   4.616  0.8391  0.6392  0.2741
  582MOL0     C78446   2.611   3.289   4.665  0.0047  0.4335 -0.1639
  582MOL0     C78447   2.713   3.313   4.548 -0.8867  0.5428  0.2757
  582MOL0     C78448   2.763   3.184   4.476  0.4431  0.2192 -0.2153
  582MOL0     C78449   2.834   3.075   4.562 -0.7377  0.0786  0.3181
  582MOL0     C78450   2.968   3.129   4.612 -0.1979  0.5084  0.3972
  582MOL0     C78451   3.045   3.021   4.682 -0.0546  0.7542  0.3052
  582MOL0     N78452   3.174   3.062   4.722 -0.2387 -0.4191  0.4036
  582MOL0     C78453   3.215   3.196   4.763 -0.2015  1.9132 -0.6041
  582MOL0     C78454   3.355   3.186   4.783 -0.0138  0.5316 -0.2383
  582MOL0     C78455   3.449   3.298   4.827  0.2505 -0.0323 -0.3591
  582MOL0     C78456   3.549   3.352   4.719 -0.2206 -0.4494 -0.1306
  582MOL0     C78457   3.591   3.493   4.763 -0.3363  0.7407  0.2087
  582MOL0     C78458   3.705   3.550   4.676  0.4318  0.5877 -0.0626
  582MOL0     O78459   3.805   3.623   4.748  0.3450 -0.0531 -0.6693
  582MOL0     C78460   3.909   3.678   4.670 -0.4579  0.0282  0.0223
  582MOL0     C78461   3.979   3.783   4.727 -0.2944 -0.9145 -0.3076
  582MOL0     C78462   4.094   3.834   4.674  0.4978 -0.4945  0.3921
  582MOL0     C78463   4.134   3.794   4.547  0.1264 -0.2028 -0.2685
  582MOL0     C78464   4.242   3.861   4.483  0.7274  1.2469  0.3494
  582MOL0     O78465   4.290   3.979   4.534 -0.3329  1.0271 -0.1793
  582MOL0     C78466   4.415   4.036   4.521  0.0122 -0.0875  0.5587
  582MOL0     C78467   4.523   3.960   4.474  0.3965 -0.1476  0.3279
  582MOL0     C78468   4.648   4.021   4.448  0.2177 -0.1652  0.3540
  582MOL0     C78469   4.671   4.159   4.478  0.1191  0.5744 -0.0237
  582MOL0     O78470   4.793   4.216   4.441  0.1303  0.0646 -0.0999
  582MOL0     C78471   4.875   4.259   4.555 -0.0540 -0.0741 -0.0217
  582MOL0     C78472   4.897   4.140   4.648  0.0849 -0.8475  0.0777
  582MOL0     C78473   5.016   4.179   4.740  0.7491  0.2474 -0.4064
  582MOL0     C78474   5.072   4.065   4.814  0.6387 -0.3387  0.9110
  582MOL0     C78475   5.164   4.099   4.934 -0.5707 -0.4386 -1.1965
  582MOL0     C78476   5.301   4.165   4.904 -0.7882  0.3193  0.2079
  582MOL0     C78477   5.394   4.148   5.033  0.8422 -0.5276  0.5397
  582MOL0     C78478   5.524   4.217   5.020 -0.0503  0.6178  0.1938
  582MOL0    Cl78479   5.609   4.163   4.878  0.0633  0.1737 -0.6363
  582MOL0     C78480   4.564   4.238   4.527  0.1047  0.0390  1.2545
  582MOL0     C78481   4.440   4.177   4.537  0.3509 -0.6658  0.3751
  582MOL0     O78482   4.288   3.791   4.389 -0.5616 -1.1699  0.4644
  582MOL0     C78483   4.055   3.698   4.478  0.5153  0.5155 -0.2163
  582MOL0     C78484   3.943   3.642   4.544  0.2395 -0.4410  0.3372
  582MOL0     N78485   3.401   3.067   4.745 -0.4598  0.0611 -0.0828
  582MOL0     N78486   3.295   2.998   4.704 -0.4183  0.0128 -0.9975
  582MOL0     C78487   2.051   3.219   4.532 -0.3436  0.4809 -0.8861
  582MOL0     C78488   1.947   3.284   4.468 -0.6614  0.3463 -0.3762
  582MOL0     C78489   1.764   3.615   4.184 -0.4211 -0.6629  0.7708
  582MOL0     C78490   1.657   3.527   4.166 -0.1388  0.7666  1.7007
  582MOL0     C78491   1.560   3.540   4.064 -0.5237 -0.2390 -0.5450
  582MOL0     C78492   1.580   3.646   3.971  0.0462  0.2528 -0.3267
  582MOL0     O78493   1.491   3.665   3.873  0.7131  0.1545  0.0725
  582MOL0     C78494   1.408   3.780   3.899  0.0112 -0.0272  0.5375
  582MOL0     C78495   1.272   3.716   3.922 -0.5361 -0.0554 -0.3997
  582MOL0     C78496   1.164   3.823   3.934 -0.3519  0.5569  0.3877
  582MOL0     C78497   1.071   3.792   4.052  0.8195 -0.3934 -0.0848
  582MOL0     C78498   1.133   3.800   4.184  1.1439 -0.0177 -0.5876
  582MOL0     C78499   1.195   3.797   4.285 -0.3156  0.8979 -0.1865
  582MOL0     C78500   1.701   3.716   3.982  0.1854  0.2529 -0.6727
  582MOL0     C78501   1.802   3.704   4.083  0.2594  0.3696  0.3587
  582MOL0     C78502   1.926   3.785   4.079 -0.1662 -0.6559 -0.2668
  582MOL0     H78503   2.098   3.582   4.407 -1.0643 -1.1992 -4.1538
  582MOL0     H78504   2.271   3.473   4.564 -1.2577 -1.4984  2.8965
  582MOL0     H78505   2.354   3.397   4.734  1.7499  0.5960 -1.2041
  582MOL0     H78506   2.382   3.243   4.816 -0.3444  0.9395  1.0516
  582MOL0     H78507   2.463   3.314   4.523  0.0284 -0.6185 -0.3372
  582MOL0     H78508   2.468   3.152   4.595 -2.0040  1.1514 -1.0339
  582MOL0     H78509   2.651   3.210   4.730  1.5371  1.4911  0.2397
  582MOL0     H78510   2.598   3.382   4.722 -2.4503 -0.6814  1.2678
  582MOL0     H78511   2.663   3.383   4.481 -3.1471 -0.4189  0.8594
  582MOL0     H78512   2.796   3.377   4.582 -0.8372  0.4364  0.3566
  582MOL0     H78513   2.670   3.148   4.429  0.7295  0.3549 -0.8953
  582MOL0     H78514   2.823   3.217   4.391 -0.2465  0.6482 -0.5468
  582MOL0     H78515   2.779   3.031   4.646 -0.2997  1.4554  1.3760
  582MOL0     H78516   2.864   2.995   4.495 -0.4575  1.5299 -1.3625
  582MOL0     H78517   2.959   3.221   4.669  1.3412  0.6626  0.4441
  582MOL0     H78518   3.030   3.158   4.526 -2.4952  0.7317 -1.2743
  582MOL0     H78519   2.986   2.989   4.768  0.4501  0.3262  0.4952
  582MOL0     H78520   3.063   2.932   4.622 -3.9246  0.4660 -0.6976
  582MOL0     H78521   3.156   3.283   4.789 -0.2104  0.9490  3.0785
  582MOL0     H78522   3.393   3.382   4.870  2.4518  1.0855  0.5266
  582MOL0     H78523   3.505   3.266   4.915  0.5608 -1.6954 -1.1158
  582MOL0     H78524   3.637   3.287   4.717  0.1060 -0.1413  1.6554
  582MOL0     H78525   3.495   3.355   4.624  0.0413 -1.2672 -0.3142
  582MOL0     H78526   3.633   3.481   4.864  1.1076  1.1190 -0.3262
  582MOL0     H78527   3.502   3.556   4.769 -1.3619 -0.7738  2.5328
  582MOL0     H78528   3.652   3.599   4.594 -0.9940 -1.6057 -0.5416
  582MOL0     H78529   3.758   3.467   4.628 -1.5121  0.0319 -1.3430
  582MOL0     H78530   3.955   3.824   4.824  2.3957 -1.3474  0.6312
  582MOL0     H78531   4.155   3.911   4.719  1.0525 -0.6197 -0.1341
  582MOL0     H78532   4.525   3.853   4.455 -1.4301 -0.2420  0.5325
  582MOL0     H78533   4.708   3.960   4.382  0.8699 -0.0577  0.8361
  582MOL0     H78534   4.971   4.302   4.526  1.1652 -2.1175  0.7837
  582MOL0     H78535   4.816   4.333   4.610 -1.0924  0.3252 -1.5966
  582MOL0     H78536   4.809   4.114   4.707  0.6010 -3.0740 -0.0542
  582MOL0     H78537   4.915   4.052   4.585  1.1524  1.1480 -2.6059
  582MOL0     H78538   5.096   4.218   4.677  0.0804  0.0725 -1.3892
  582MOL0     H78539   4.980   4.254   4.810 -1.8674 -1.4838  0.2585
  582MOL0     H78540   5.143   4.009   4.753  2.1858  2.3494  0.0964
  582MOL0     H78541   4.990   3.995   4.833  0.8816 -0.8393  0.1608
  582MOL0     H78542   5.179   4.002   4.984 -1.7307  0.7912  1.8101
  582MOL0     H78543   5.110   4.158   5.009 -0.3611 -0.2618 -1.1837
  582MOL0     H78544   5.352   4.106   4.827 -0.5043  1.8397 -0.8032
  582MOL0     H78545   5.308   4.269   4.873  1.8991  0.1192 -0.0900
  582MOL0     H78546   5.395   4.041   5.055 -1.4553 -0.4844  1.1481
  582MOL0     H78547   5.347   4.195   5.120 -0.4856  1.3202 -1.1013
  582MOL0     H78548   5.516   4.326   5.021  1.5117  0.8341 -2.2747
  582MOL0     H78549   5.578   4.187   5.110 -3.2351  1.3530  2.4959
  582MOL0     H78550   4.580   4.344   4.540  1.9826  0.6606 -3.8724
  582MOL0     H78551   4.368   4.251   4.571 -0.6122 -0.7390 -1.4056
  582MOL0     H78552   4.075   3.675   4.374 -2.2756  1.4326 -1.0445
  582MOL0     H78553   3.887   3.560   4.500  0.3594 -0.3553  0.0210
  582MOL0     H78554   2.053   3.116   4.568  2.2380  0.3619 -1.1581
  582MOL0     H78555   1.869   3.220   4.427  0.7393  0.5894 -3.8040
  582MOL0     H78556   1.631   3.446   4.233 -2.3324  0.9966  1.2064
  582MOL0     H78557   1.480   3.468   4.052  0.2471 -1.4584  1.2956
  582MOL0     H78558   1.417   3.853   3.818  1.2380  0.4894  1.1087
  582MOL0     H78559   1.430   3.837   3.990 -0.7895  1.7248 -0.3143
  582MOL0     H78560   1.288   3.653   4.010  0.3129 -2.1512 -1.9532
  582MOL0     H78561   1.231   3.661   3.837 -1.2091  2.2716 -1.6796
  582MOL0     H78562   1.109   3.833   3.840  1.9239 -0.2072 -1.0968
  582MOL0     H78563   1.212   3.918   3.959 -0.4697  0.7800 -0.2153
  582MOL0     H78564   0.981   3.855   4.055  0.1004 -1.3360 -1.0761
  582MOL0     H78565   1.031   3.695   4.021 -1.2947 -0.0001  1.2378
  582MOL0     H78566   1.263   3.785   4.367 -0.6926 -4.2193 -0.2817
  582MOL0     H78567   1.714   3.783   3.898 -1.1196 -0.1761 -1.2277
  582MOL0     H78568   1.946   3.831   3.982 -1.2527  1.6595  0.5417
  582MOL0     H78569   1.911   3.871   4.145  0.4903 -0.7183 -0.0220
  582MOL0     H78570   2.012   3.727   4.113  0.0836 -0.2567 -0.2091
  583MOL0     O78571   9.906   7.366   5.931  0.1489 -0.7204 -0.3453
  583MOL0     C78572   9.939   7.351   5.813  0.9503  0.3993 -0.4210
  583MOL0     O78573  10.028   7.427   5.749  0.0189  0.0034 -0.0513
  583MOL0     C78574  10.131   7.482   5.816 -0.3911  0.0151 -0.3673
  583MOL0     C78575  10.192   7.420   5.935  0.5452  0.3137 -0.2088
  583MOL0     C78576  10.288   7.487   6.008 -0.4554 -0.4790 -0.6102
  583MOL0     C78577  10.330   7.611   5.974  0.8156  0.5972  0.6985
  583MOL0     O78578  10.434   7.675   6.032 -0.2394  0.4329 -0.0573
  583MOL0     C78579  10.489   7.616   6.162  0.0033  0.0218  0.2329
  583MOL0     C78580  10.608   7.699   6.208  0.2411 -0.1821 -0.4188
  583MOL0     C78581  10.724   7.687   6.105  0.1569 -0.4215 -0.4922
  583MOL0     C78582  10.858   7.760   6.134 -0.3666 -0.1698 -0.6165
  583MOL0     C78583  10.990   7.696   6.089  0.4719  0.1010  0.5985
  583MOL0     C78584  11.000   7.547   6.124  0.5266 -0.0372  0.0645
  583MOL0     C78585  11.136   7.482   6.106 -0.4483  0.0170  0.8549
  583MOL0     C78586  11.244   7.510   6.222 -0.1360  0.2277 -0.1578
  583MOL0     N78587  11.375   7.468   6.181 -0.4421  0.5714 -0.2967
  583MOL0     C78588  11.466   7.555   6.126  0.1211  0.9409 -0.2474
  583MOL0     C78589  11.543   7.470   6.053 -0.3397  1.0103 -0.1399
  583MOL0     C78590  11.661   7.490   5.960  0.8735 -0.3609 -0.7962
  583MOL0     C78591  11.615   7.505   5.811 -0.0681  0.0957  0.3722
  583MOL0     C78592  11.719   7.573   5.716  0.4377  0.2016  1.0467
  583MOL0     C78593  11.860   7.494   5.738 -0.3178  0.9317 -0.2675
  583MOL0     O78594  11.954   7.566   5.653 -0.0873  0.1659  0.2808
  583MOL0     C78595  12.084   7.522   5.647 -0.1075  0.5338 -0.4615
  583MOL0     C78596  12.134   7.417   5.733 -0.3256 -0.2216  0.5919
  583MOL0     C78597  12.274   7.387   5.732  1.3747  0.3918 -0.5032
  583MOL0     C78598  12.363   7.451   5.646 -0.1679  1.1794 -0.0683
  583MOL0     C78599  12.513   7.425   5.642 -0.9735  0.5126 -0.6204
  583MOL0     O78600  12.581   7.477   5.536 -0.3283  0.2640  0.0446
  583MOL0     C78601  12.716   7.457   5.506 -0.3931 -0.5228  0.7986
  583MOL0     C78602  12.805   7.359   5.551 -0.9019  0.2459  0.5749
  583MOL0     C78603  12.941   7.364   5.508 -0.5939 -1.0375  0.6482
  583MOL0     C78604  12.990   7.466   5.428 -0.3759  0.6810  0.3646
  583MOL0     O78605  13.126   7.455   5.403  0.3422 -0.5631 -0.2402
  583MOL0     C78606  13.197   7.565   5.344 -0.7789  0.1975 -0.2917
  583MOL0     C78607  13.350   7.565   5.363  0.4861  0.5719  0.3643
  583MOL0     C78608  13.423   7.460   5.288  0.2369  0.1932  0.3541
  583MOL0     C78609  13.560   7.430   5.345  0.3298  0.4190  0.1509
  583MOL0     C78610  13.680   7.528   5.317  0.8331  0.8388 -0.6197
  583MOL0     C78611  13.695   7.544   5.166  0.0641  1.0316  0.0754
  583MOL0     C78612  13.825   7.626   5.139  0.7113  0.5147 -0.1549
  583MOL0     C78613  13.842   7.622   4.986  0.0478 -0.2955  0.0906
  583MOL0    Cl78614  13.996   7.693   4.938  0.1378 -0.3149 -0.0409
  583MOL0     C78615  12.909   7.558   5.382  0.6346 -0.0505  0.5536
  583MOL0     C78616  12.776   7.560   5.423 -0.0363 -0.1410 -0.6145
  583MOL0     O78617  12.563   7.380   5.745  0.0144 -0.4856 -0.2881
  583MOL0     C78618  12.303   7.547   5.560  2.1601 -0.3792 -0.1929
  583MOL0     C78619  12.171   7.581   5.564  0.6310  0.3111  0.5365
  583MOL0     N78620  11.508   7.334   6.091 -0.6609 -0.4454 -0.2722
  583MOL0     N78621  11.410   7.333   6.171 -0.4614  0.1049 -0.1259
  583MOL0     C78622  10.276   7.672   5.860  0.1466  0.4486 -0.3218
  583MOL0     C78623  10.182   7.607   5.778  0.0117  1.0177  0.8888
  583MOL0     C78624   9.848   7.257   5.740 -0.2052 -0.4242  0.0836
  583MOL0     C78625   9.782   7.157   5.817  0.4191  0.4106  0.3688
  583MOL0     C78626   9.695   7.077   5.754 -0.3313  0.5719  0.2062
  583MOL0     C78627   9.666   7.087   5.617 -0.5448  0.4908  0.4611
  583MOL0     O78628   9.590   6.994   5.548 -0.3840  0.0926  0.3654
  583MOL0     C78629   9.460   7.037   5.547  0.1985  0.1870 -0.7404
  583MOL0     C78630   9.374   6.966   5.452 -0.7308  0.4973  0.4060
  583MOL0     C78631   9.228   6.968   5.484  0.6297  0.1703 -0.1161
  583MOL0     C78632   9.192   6.854   5.584 -0.0683 -0.6258 -0.2926
  583MOL0     C78633   9.056   6.853   5.629 -0.7800 -0.2250  0.4494
  583MOL0     C78634   8.945   6.855   5.664  0.2908  0.8710 -0.4796
  583MOL0     C78635   9.734   7.180   5.541  1.2311 -0.6084  0.0128
  583MOL0     C78636   9.832   7.266   5.597  1.6847 -0.3602  0.1648
  583MOL0     C78637   9.919   7.337   5.501  0.2966 -0.0831 -0.6359
  583MOL0     H78638  10.162   7.319   5.957 -0.3762  0.1364 -2.1282
  583MOL0     H78639  10.330   7.429   6.089 -2.4290  0.9616  1.5489
  583MOL0     H78640  10.411   7.605   6.237 -2.2123 -0.3809 -1.9942
  583MOL0     H78641  10.525   7.516   6.137  2.1893  0.7574  0.2309
  583MOL0     H78642  10.636   7.666   6.308 -1.6429 -2.7448 -0.6212
  583MOL0     H78643  10.578   7.802   6.229  2.7797  0.7716 -1.1408
  583MOL0     H78644  10.693   7.709   6.003  1.1454 -1.1647 -0.9664
  583MOL0     H78645  10.744   7.579   6.105  0.4659 -0.3739 -1.8208
  583MOL0     H78646  10.859   7.864   6.098 -0.3995  0.2462  0.5448
  583MOL0     H78647  10.850   7.768   6.243 -1.3128 -0.1227 -0.6797
  583MOL0     H78648  11.000   7.710   5.981 -1.4206  0.9140  0.4915
  583MOL0     H78649  11.075   7.737   6.144  0.1270  0.2841  0.9991
  583MOL0     H78650  10.978   7.532   6.230  1.2096 -1.3529  0.0443
  583MOL0     H78651  10.930   7.485   6.067 -0.4054  1.3614 -0.3667
  583MOL0     H78652  11.186   7.520   6.016 -0.7929  1.0542  1.0854
  583MOL0     H78653  11.130   7.373   6.099  0.9164 -0.2536  2.8605
  583MOL0     H78654  11.234   7.612   6.260 -2.3583  0.0014 -0.0021
  583MOL0     H78655  11.224   7.449   6.310  0.9885 -1.2317 -0.8821
  583MOL0     H78656  11.469   7.664   6.128 -1.0160  0.9756  0.6671
  583MOL0     H78657  11.700   7.589   5.985  0.4257 -0.0140 -1.4437
  583MOL0     H78658  11.739   7.413   5.965 -1.3203 -2.8147 -2.1257
  583MOL0     H78659  11.599   7.402   5.779 -1.4644 -0.5280  2.8103
  583MOL0     H78660  11.519   7.558   5.807  0.4428  1.3605  3.0112
  583MOL0     H78661  11.726   7.678   5.743  1.1591  0.0681  1.3970
  583MOL0     H78662  11.693   7.553   5.611  2.3743 -1.1844  0.7702
  583MOL0     H78663  11.848   7.388   5.712 -5.3175  0.9919  0.7989
  583MOL0     H78664  11.906   7.495   5.837 -0.4480 -0.1552 -0.1793
  583MOL0     H78665  12.064   7.358   5.791 -1.5132  1.2401  0.6757
  583MOL0     H78666  12.318   7.320   5.805  0.9908  1.9429  1.2408
  583MOL0     H78667  12.770   7.284   5.621 -1.7595  0.8599  0.8235
  583MOL0     H78668  13.018   7.300   5.549  0.0051  0.5714  2.1890
  583MOL0     H78669  13.182   7.562   5.236  0.4900  2.6919 -0.6002
  583MOL0     H78670  13.156   7.659   5.384 -1.3641 -0.2569  0.2064
  583MOL0     H78671  13.394   7.660   5.331  0.1647 -0.6402 -4.6602
  583MOL0     H78672  13.363   7.540   5.468 -0.0580  4.3100  1.4621
  583MOL0     H78673  13.359   7.371   5.293  1.3477 -0.6304  0.2894
  583MOL0     H78674  13.437   7.486   5.183  0.4456  0.1824  0.3783
  583MOL0     H78675  13.596   7.334   5.309  1.6168 -0.5520  3.6408
  583MOL0     H78676  13.550   7.423   5.453 -1.9462  1.0516  0.0311
  583MOL0     H78677  13.775   7.502   5.364  1.5654  1.2679 -1.8008
  583MOL0     H78678  13.651   7.620   5.367  2.3952 -0.4148  2.8619
  583MOL0     H78679  13.702   7.446   5.117  2.4173  0.3217  1.6749
  583MOL0     H78680  13.611   7.601   5.125 -0.9339  0.4268  1.2116
  583MOL0     H78681  13.899   7.576   5.203 -2.5742 -0.8463  2.9696
  583MOL0     H78682  13.818   7.728   5.179  0.4459  0.9021 -1.1622
  583MOL0     H78683  13.827   7.523   4.941 -0.3864 -0.7278  1.1469
  583MOL0     H78684  13.769   7.694   4.948 -1.0020 -0.0533  2.3963
  583MOL0     H78685  12.932   7.651   5.330 -0.8074 -0.0489 -0.1204
  583MOL0     H78686  12.712   7.637   5.382  1.7135  1.5948 -0.2023
  583MOL0     H78687  12.363   7.610   5.494  0.9050  1.7543  0.5786
  583MOL0     H78688  12.127   7.661   5.504 -1.7046 -0.9249  0.5128
  583MOL0     H78689  10.304   7.775   5.840 -1.2046  0.8722 -0.1333
  583MOL0     H78690  10.147   7.642   5.681  1.5092 -1.7422 -0.7893
  583MOL0     H78691   9.782   7.146   5.925 -0.4697 -0.1765  0.3148
  583MOL0     H78692   9.637   7.016   5.824 -3.5844  3.2023  0.0103
  583MOL0     H78693   9.457   7.144   5.525 -0.2430  0.2299 -0.4833
  583MOL0     H78694   9.408   7.030   5.643 -0.7994 -0.2616 -1.2964
  583MOL0     H78695   9.402   6.860   5.450  0.4196  0.7287  2.2841
  583MOL0     H78696   9.403   7.002   5.353  0.0441  1.0284  0.8222
  583MOL0     H78697   9.171   6.955   5.392  0.8973  1.4256 -0.4807
  583MOL0     H78698   9.196   7.066   5.523  4.0037  1.0360  0.8261
  583MOL0     H78699   9.201   6.760   5.529  4.0624  0.4693 -1.9381
  583MOL0     H78700   9.261   6.846   5.669 -0.3862 -2.5345 -0.1697
  583MOL0     H78701   8.838   6.863   5.669  0.1118 -0.7553 -1.0365
  583MOL0     H78702   9.722   7.169   5.434  2.7413 -1.9589 -0.0502
  583MOL0     H78703   9.905   7.446   5.497 -2.1717 -0.3190  0.0478
  583MOL0     H78704  10.023   7.313   5.522 -0.0478 -0.6994  0.4227
  583MOL0     H78705   9.894   7.306   5.399 -2.5208 -0.7348  0.1772
  584MOL0     O78706   4.218   2.895   4.144  0.7194 -0.0434 -0.0069
  584MOL0     C78707   4.199   2.776   4.173 -0.5774 -0.0940 -0.5518
  584MOL0     O78708   4.294   2.678   4.158 -0.0353 -0.3611 -0.7769
  584MOL0     C78709   4.412   2.709   4.090 -0.1452 -0.7070 -0.2251
  584MOL0     C78710   4.520   2.760   4.161  1.1525  0.8858 -0.3386
  584MOL0     C78711   4.639   2.797   4.097  0.5597 -0.2784 -0.2036
  584MOL0     C78712   4.662   2.756   3.964  0.8524 -0.8639 -0.0464
  584MOL0     O78713   4.793   2.773   3.923 -0.2713 -0.2477  0.2940
  584MOL0     C78714   4.798   2.777   3.782 -0.3677  1.0691  0.8144
  584MOL0     C78715   4.928   2.817   3.733 -0.3117 -0.4445  0.4745
  584MOL0     C78716   5.055   2.738   3.787 -0.9725 -0.7501 -0.4278
  584MOL0     C78717   5.134   2.813   3.895  0.1106  0.8978 -0.4012
  584MOL0     C78718   5.206   2.931   3.837  0.5207  0.0497 -1.0306
  584MOL0     C78719   5.303   2.992   3.942  0.6005 -0.2543  0.1155
  584MOL0     C78720   5.380   3.116   3.880  0.2244  0.2068  0.2128
  584MOL0     C78721   5.500   3.149   3.978 -0.2165 -0.3995  0.4293
  584MOL0     N78722   5.606   3.046   3.969  0.0708 -0.7861 -0.1274
  584MOL0     C78723   5.671   2.996   4.078 -0.8947 -0.8654  0.2378
  584MOL0     C78724   5.721   2.875   4.044  0.6382 -0.3240  0.5574
  584MOL0     C78725   5.785   2.780   4.135 -1.3993  0.4286 -0.7562
  584MOL0     C78726   5.938   2.757   4.101 -0.0521  0.7536 -0.5318
  584MOL0     C78727   6.021   2.860   4.166  0.0927  0.4590  0.8983
  584MOL0     C78728   6.151   2.877   4.096  0.8719  0.4926  0.5296
  584MOL0     O78729   6.226   2.755   4.090 -0.3739  0.5218  0.6245
  584MOL0     C78730   6.363   2.767   4.092  0.2591 -0.1298 -0.5075
  584MOL0     C78731   6.444   2.655   4.123 -1.3822 -0.4385  0.8846
  584MOL0     C78732   6.584   2.658   4.108 -0.3160  0.4299 -0.7123
  584MOL0     C78733   6.647   2.775   4.048 -0.3158 -0.4590 -0.8686
  584MOL0     C78734   6.789   2.784   4.030  0.5089  0.6876 -0.2943
  584MOL0     O78735   6.840   2.883   3.939 -0.5790 -0.1539  0.0875
  584MOL0     C78736   6.974   2.883   3.897  0.0592  0.0155  0.5259
  584MOL0     C78737   7.078   2.899   3.987  0.1196 -0.6246  1.4461
  584MOL0     C78738   7.203   2.911   3.929 -0.2936  0.0080  0.1097
  584MOL0     C78739   7.235   2.916   3.797  0.2915 -0.1847 -0.0945
  584MOL0     O78740   7.371   2.934   3.774  0.1697  0.2809  0.6124
  584MOL0     C78741   7.394   3.001   3.650  1.3311 -0.3538  0.0526
  584MOL0     C78742   7.539   3.017   3.623 -0.1051 -0.1246  0.4892
  584MOL0     C78743   7.615   3.136   3.689  0.2613  0.1541 -0.9322
  584MOL0     C78744   7.755   3.107   3.747  0.3566 -0.0487  0.0772
  584MOL0     C78745   7.864   3.099   3.644 -0.8548 -0.2177  0.4337
  584MOL0     C78746   7.887   3.230   3.560 -0.1959  0.1870 -0.4987
  584MOL0     C78747   7.993   3.226   3.450 -0.5275 -0.2826 -0.1345
  584MOL0     C78748   7.994   3.351   3.365 -0.2714  0.4993 -0.0846
  584MOL0    Cl78749   8.076   3.495   3.435 -0.2974  0.6159  0.0656
  584MOL0     C78750   7.122   2.905   3.710 -0.2066  0.3725  0.1314
  584MOL0     C78751   6.997   2.890   3.761  0.0821  0.4585  0.3721
  584MOL0     O78752   6.852   2.705   4.097  0.5683  0.1525  0.2982
  584MOL0     C78753   6.567   2.886   4.023  0.5320 -0.7595  0.4605
  584MOL0     C78754   6.424   2.880   4.035 -0.6071 -0.1114 -0.2654
  584MOL0     N78755   5.696   2.854   3.908 -0.1361  0.9306 -0.7025
  584MOL0     N78756   5.624   2.954   3.866 -0.2910  0.7100 -0.6402
  584MOL0     C78757   4.553   2.691   3.900  0.0717  0.2493 -0.1863
  584MOL0     C78758   4.425   2.673   3.956 -0.5001  0.4497  0.0183
  584MOL0     C78759   4.078   2.748   4.260  1.2170  0.5032  0.0042
  584MOL0     C78760   4.079   2.741   4.406  0.6682  0.2405  0.7858
  584MOL0     C78761   3.954   2.720   4.474 -0.3172 -1.0723 -0.4141
  584MOL0     C78762   3.832   2.698   4.408  0.8758 -1.0281 -0.3005
  584MOL0     O78763   3.709   2.665   4.460  0.9138  0.2631 -0.0089
  584MOL0     C78764   3.660   2.749   4.565  0.4658 -0.9343 -0.7936
  584MOL0     C78765   3.595   2.873   4.501 -0.1060 -0.7238 -0.7298
  584MOL0     C78766   3.448   2.847   4.449  0.5240  0.3187  0.0735
  584MOL0     C78767   3.424   2.774   4.308  0.5749 -0.0907  0.0910
  584MOL0     C78768   3.275   2.759   4.281  0.0202  0.3982  0.1891
  584MOL0     C78769   3.157   2.770   4.254 -0.1809  0.0202  0.4715
  584MOL0     C78770   3.837   2.704   4.270 -0.2773 -0.4696 -0.0821
  584MOL0     C78771   3.952   2.735   4.197  0.3231 -0.7377 -0.2779
  584MOL0     C78772   3.950   2.732   4.047  0.3237  0.2036 -0.9847
  584MOL0     H78773   4.495   2.790   4.263 -3.8563  0.3523 -1.1275
  584MOL0     H78774   4.723   2.846   4.145  1.9845 -1.0753 -1.7817
  584MOL0     H78775   4.777   2.677   3.744  1.2091  1.7965 -2.2765
  584MOL0     H78776   4.722   2.847   3.748 -0.6718 -0.0777 -0.9568
  584MOL0     H78777   4.940   2.923   3.758 -1.6024  0.0381 -0.8206
  584MOL0     H78778   4.932   2.816   3.623 -0.7912  1.1779  0.4195
  584MOL0     H78779   5.128   2.731   3.706  3.7420  4.1097  2.7016
  584MOL0     H78780   5.042   2.638   3.828  1.0161 -1.6923 -1.9442
  584MOL0     H78781   5.056   2.838   3.968  0.4423  1.2791 -0.1757
  584MOL0     H78782   5.201   2.749   3.953  1.1895  2.6545  0.3451
  584MOL0     H78783   5.269   2.896   3.755  1.6034  0.4568 -0.3872
  584MOL0     H78784   5.142   3.013   3.801 -0.5529  0.5819  1.8323
  584MOL0     H78785   5.257   3.011   4.039 -1.0644 -0.8813 -0.5276
  584MOL0     H78786   5.374   2.912   3.965  0.4623 -0.0477  1.3450
  584MOL0     H78787   5.307   3.197   3.889 -0.5888 -0.6268  1.8011
  584MOL0     H78788   5.405   3.107   3.774 -0.6251 -0.3424  0.0443
  584MOL0     H78789   5.551   3.239   3.943  2.6027 -2.2806 -0.7029
  584MOL0     H78790   5.473   3.156   4.083  1.8329  1.4451  0.8972
  584MOL0     H78791   5.669   3.037   4.179 -2.2895  0.0675 -0.1412
  584MOL0     H78792   5.780   2.809   4.240  1.9076 -0.4212 -0.2368
  584MOL0     H78793   5.739   2.682   4.126 -0.7956  0.1316 -0.6661
  584MOL0     H78794   5.970   2.660   4.140  3.0726  1.7456 -0.3241
  584MOL0     H78795   5.947   2.748   3.992  2.6111 -2.8899 -0.1958
  584MOL0     H78796   6.039   2.839   4.272 -0.3160  1.7164  1.2324
  584MOL0     H78797   5.976   2.960   4.161  0.5579  0.7014 -4.4915
  584MOL0     H78798   6.206   2.959   4.143 -1.3627  1.4965  1.5199
  584MOL0     H78799   6.144   2.908   3.992  2.7242 -1.6485 -0.3105
  584MOL0     H78800   6.380   2.577   4.165 -2.5001 -0.6031 -0.9860
  584MOL0     H78801   6.644   2.573   4.139 -0.8100  0.5935  0.7338
  584MOL0     H78802   7.072   2.909   4.095 -1.8544  0.9123  1.2680
  584MOL0     H78803   7.290   2.932   3.991 -1.7557 -0.3777  2.3771
  584MOL0     H78804   7.352   2.944   3.567  0.7331 -3.5425  2.3514
  584MOL0     H78805   7.355   3.103   3.656  0.3473 -0.7641  0.7852
  584MOL0     H78806   7.588   2.925   3.655  0.3497  0.1261  0.5258
  584MOL0     H78807   7.564   3.010   3.517  3.4709  1.4861  1.0891
  584MOL0     H78808   7.609   3.220   3.619 -0.9280  1.2787  0.4441
  584MOL0     H78809   7.555   3.160   3.778  1.4455  0.2227 -0.1193
  584MOL0     H78810   7.752   3.008   3.794 -0.2361  0.6230  1.5081
  584MOL0     H78811   7.787   3.182   3.821  0.5258 -2.2834  2.4145
  584MOL0     H78812   7.845   3.012   3.581 -1.9320 -0.6056  1.2510
  584MOL0     H78813   7.952   3.079   3.706 -0.6571  0.8130  0.5078
  584MOL0     H78814   7.792   3.256   3.513  0.5808  0.4211 -2.0035
  584MOL0     H78815   7.917   3.308   3.631  2.0062  0.5586 -1.7327
  584MOL0     H78816   7.974   3.132   3.397 -2.4872  0.0653 -0.1465
  584MOL0     H78817   8.093   3.218   3.493  0.0179  0.6353 -1.1598
  584MOL0     H78818   8.040   3.323   3.269 -0.7358  0.6172 -0.3473
  584MOL0     H78819   7.894   3.389   3.342 -0.5061 -0.4643 -0.7091
  584MOL0     H78820   7.140   2.910   3.603 -0.7641 -0.3124  0.0005
  584MOL0     H78821   6.909   2.885   3.698  0.1646  1.5042  0.1475
  584MOL0     H78822   6.608   2.983   3.995 -0.9708 -0.2662 -0.1368
  584MOL0     H78823   6.370   2.968   4.001  0.1988  0.5872  0.2085
  584MOL0     H78824   4.558   2.648   3.800  2.4087 -0.9129  0.3592
  584MOL0     H78825   4.342   2.632   3.900  1.1086 -1.5102 -1.0494
  584MOL0     H78826   4.179   2.743   4.448  1.7819 -0.1102 -1.6642
  584MOL0     H78827   3.957   2.698   4.580 -0.0778 -0.1755 -0.2243
  584MOL0     H78828   3.742   2.788   4.625  1.5912  0.6096 -3.1928
  584MOL0     H78829   3.596   2.688   4.630  0.9724 -1.3190 -0.6535
  584MOL0     H78830   3.664   2.905   4.423 -0.7358 -1.4878 -1.6265
  584MOL0     H78831   3.593   2.954   4.575  1.1520 -2.6177  1.5034
  584MOL0     H78832   3.407   2.947   4.436  2.9405  1.3111 -0.4197
  584MOL0     H78833   3.384   2.794   4.520 -1.8279  0.0032 -2.1189
  584MOL0     H78834   3.466   2.828   4.223 -1.6721  1.1790 -0.2828
  584MOL0     H78835   3.477   2.678   4.306 -1.7201 -1.4272 -2.2158
  584MOL0     H78836   3.059   2.789   4.215  0.1861 -1.3025 -1.2368
  584MOL0     H78837   3.746   2.684   4.213  0.4369 -0.1363 -1.3731
  584MOL0     H78838   4.031   2.668   4.010 -0.7856 -0.9515 -1.4843
  584MOL0     H78839   3.856   2.697   4.004 -0.2461  2.1628 -1.4335
  584MOL0     H78840   3.966   2.838   4.024  1.6830  0.1770 -0.2842
  585MOL0     O78841   4.816   7.033   9.247 -0.8610 -0.2495  0.8157
  585MOL0     C78842   4.792   7.058   9.132 -0.4269 -0.0280  0.1433
  585MOL0     O78843   4.867   7.029   9.024  0.8159  0.1057  0.1381
  585MOL0     C78844   4.996   6.988   9.043 -0.2762 -0.7937 -0.1824
  585MOL0     C78845   5.091   7.052   8.954  0.6476 -0.0345  0.6324
  585MOL0     C78846   5.213   6.992   8.935  1.2215 -0.0150 -0.1389
  585MOL0     C78847   5.249   6.877   9.009  0.2919  0.0609  0.2096
  585MOL0     O78848   5.358   6.801   8.999  0.1255  0.9820 -0.5343
  585MOL0     C78849   5.443   6.825   8.887 -0.3520 -0.6927 -0.4346
  585MOL0     C78850   5.582   6.755   8.918 -0.7837  0.2789  0.0213
  585MOL0     C78851   5.692   6.784   8.811 -0.0209  0.3972  0.4067
  585MOL0     C78852   5.754   6.919   8.827 -1.0508  0.0620  0.8967
  585MOL0     C78853   5.860   6.948   8.716 -0.2642 -0.4147  0.0303
  585MOL0     C78854   5.989   6.891   8.780  0.4261 -0.6064 -0.0196
  585MOL0     C78855   6.110   6.919   8.698 -0.2294 -0.2047 -0.0630
  585MOL0     C78856   6.231   6.885   8.786 -0.8251  0.1293 -0.1146
  585MOL0     N78857   6.353   6.913   8.709  0.2911 -0.1497  0.0855
  585MOL0     C78858   6.483   6.885   8.754  0.8721  0.6844  1.2180
  585MOL0     C78859   6.561   6.977   8.692 -0.4401  0.2743  0.1199
  585MOL0     C78860   6.706   7.000   8.729 -0.4644  0.3821 -0.1787
  585MOL0     C78861   6.710   7.053   8.879  0.0142 -0.1803 -0.0666
  585MOL0     C78862   6.856   7.079   8.919 -0.7203 -0.4362 -0.3813
  585MOL0     C78863   6.883   7.146   9.052  0.5423 -0.3024 -0.2208
  585MOL0     O78864   7.013   7.202   9.059  0.0216  0.2279  0.5975
  585MOL0     C78865   7.111   7.108   9.042 -0.0134  0.6542  0.2133
  585MOL0     C78866   7.116   6.982   9.099  0.3663 -0.2021 -0.1539
  585MOL0     C78867   7.208   6.884   9.062 -0.0394 -0.3145 -0.6867
  585MOL0     C78868   7.314   6.917   8.977 -0.8000 -1.2965 -0.4829
  585MOL0     C78869   7.424   6.819   8.961  0.4099  0.2943  0.4411
  585MOL0     O78870   7.525   6.854   8.868 -0.1608 -0.1497 -0.5276
  585MOL0     C78871   7.621   6.762   8.832  0.8941 -0.0034 -0.4857
  585MOL0     C78872   7.642   6.732   8.699 -0.4069  0.3327 -0.5587
  585MOL0     C78873   7.744   6.636   8.676 -0.1369 -0.6044  0.1188
  585MOL0     C78874   7.827   6.573   8.766  0.3078  0.9821 -0.4446
  585MOL0     O78875   7.940   6.506   8.745 -0.0788 -0.0748 -0.7004
  585MOL0     C78876   7.913   6.392   8.669  0.8570 -0.5774  0.3122
  585MOL0     C78877   8.027   6.295   8.672  1.4756 -0.1751 -0.7259
  585MOL0     C78878   8.156   6.358   8.631  0.2690 -0.0721  0.6490
  585MOL0     C78879   8.168   6.382   8.483 -0.5689 -0.0942  0.2336
  585MOL0     C78880   8.291   6.471   8.445  1.4141 -0.9335 -0.2003
  585MOL0     C78881   8.420   6.399   8.452 -0.8238  0.6732 -0.3906
  585MOL0     C78882   8.543   6.501   8.442  1.0097 -0.1909 -1.4271
  585MOL0     C78883   8.673   6.441   8.413 -0.6063 -0.0606  0.1989
  585MOL0    Cl78884   8.689   6.406   8.226  0.1340  0.0104  0.0121
  585MOL0     C78885   7.802   6.603   8.898  0.6109 -0.3606  0.6335
  585MOL0     C78886   7.696   6.691   8.938  0.1098  0.0204  0.6479
  585MOL0     O78887   7.411   6.704   9.001 -0.3249  0.6667 -0.1945
  585MOL0     C78888   7.321   7.051   8.933  0.4536  0.7756  0.0659
  585MOL0     C78889   7.219   7.142   8.963  0.0847  0.5694  0.3567
  585MOL0     N78890   6.481   7.060   8.613 -0.2917  0.7921  0.1855
  585MOL0     N78891   6.358   7.017   8.622  0.1294  0.7945 -0.6482
  585MOL0     C78892   5.156   6.821   9.091 -0.9556  0.2850  0.2510
  585MOL0     C78893   5.030   6.870   9.115 -0.6578  0.1987 -0.4127
  585MOL0     C78894   4.655   7.116   9.094 -0.0948 -0.1659 -0.3307
  585MOL0     C78895   4.624   7.145   8.959  0.4677 -0.0202 -0.1989
  585MOL0     C78896   4.499   7.204   8.916  0.2187  0.1162 -0.0978
  585MOL0     C78897   4.408   7.229   9.006 -0.5052 -0.2597  0.2984
  585MOL0     O78898   4.297   7.290   8.956  0.0341  0.5787 -0.3562
  585MOL0     C78899   4.194   7.314   9.044  0.2092  0.0696  0.6538
  585MOL0     C78900   4.091   7.407   8.983 -0.2744 -0.3099 -0.0025
  585MOL0     C78901   4.161   7.549   8.958 -0.5731  0.0471  0.2735
  585MOL0     C78902   4.062   7.656   8.902 -1.2575 -0.0805 -0.0135
  585MOL0     C78903   4.023   7.631   8.759 -0.5492 -0.1569 -0.0614
  585MOL0     C78904   3.992   7.608   8.646  0.0700 -0.3708  0.2629
  585MOL0     C78905   4.428   7.194   9.143  0.9102  0.2136  0.1235
  585MOL0     C78906   4.550   7.136   9.189  0.1467  0.1481 -0.1793
  585MOL0     C78907   4.547   7.099   9.335  1.0092  0.9649 -0.1707
  585MOL0     H78908   5.061   7.133   8.889 -2.8284 -3.5275 -2.5769
  585MOL0     H78909   5.283   7.022   8.857  0.8097 -3.1316 -1.8732
  585MOL0     H78910   5.390   6.781   8.802  1.4944 -3.1814 -0.4140
  585MOL0     H78911   5.462   6.932   8.872 -2.1050 -0.1714  0.7368
  585MOL0     H78912   5.583   6.648   8.938 -0.2173 -0.0855 -1.7246
  585MOL0     H78913   5.634   6.794   9.006  0.0288 -2.5932  0.9399
  585MOL0     H78914   5.645   6.773   8.713 -0.9182  0.2506  0.8378
  585MOL0     H78915   5.763   6.701   8.820 -2.8497 -2.0472  2.3103
  585MOL0     H78916   5.678   6.997   8.825 -0.6689  0.4692  1.7743
  585MOL0     H78917   5.801   6.926   8.925  3.1909  0.4181 -0.9836
  585MOL0     H78918   5.831   6.916   8.615  1.1720 -0.2667 -0.4525
  585MOL0     H78919   5.882   7.054   8.701 -0.4261 -0.3640  0.1462
  585MOL0     H78920   6.010   6.945   8.872  0.4078  2.9111 -1.8851
  585MOL0     H78921   5.984   6.783   8.798  0.8563 -0.5823  0.2483
  585MOL0     H78922   6.103   7.027   8.679 -1.7317  0.1728  2.1745
  585MOL0     H78923   6.117   6.861   8.606  0.1805  2.4735 -1.8537
  585MOL0     H78924   6.239   6.951   8.873 -0.9324 -1.2798  0.9871
  585MOL0     H78925   6.230   6.780   8.814  0.2556 -0.6152 -2.6054
  585MOL0     H78926   6.506   6.818   8.836 -0.3057  0.5158  1.4203
  585MOL0     H78927   6.769   6.912   8.714 -1.4876 -0.0943 -1.9029
  585MOL0     H78928   6.740   7.076   8.658  1.4559  0.2604  0.5367
  585MOL0     H78929   6.679   7.158   8.884 -0.1642 -0.2924  1.3888
  585MOL0     H78930   6.660   6.983   8.946  0.3865 -1.1173 -0.7420
  585MOL0     H78931   6.901   7.144   8.844  2.4730  0.8860  2.3891
  585MOL0     H78932   6.904   6.982   8.902 -2.9999 -1.7467  0.2286
  585MOL0     H78933   6.872   7.085   9.142  1.0125  1.3233  0.9808
  585MOL0     H78934   6.810   7.225   9.069  0.7059  1.0191 -4.4445
  585MOL0     H78935   7.027   6.960   9.157 -1.6276  3.6351 -1.3764
  585MOL0     H78936   7.199   6.780   9.094  2.4665 -0.6981 -1.0065
  585MOL0     H78937   7.595   6.778   8.613  0.6669 -0.7825 -1.7926
  585MOL0     H78938   7.757   6.618   8.569 -3.8601 -3.7813 -0.0029
  585MOL0     H78939   7.827   6.331   8.698 -1.9259  1.2743 -3.2287
  585MOL0     H78940   7.904   6.431   8.567  0.2301 -2.5121 -0.4312
  585MOL0     H78941   8.046   6.235   8.761  0.2055  0.5505  0.0540
  585MOL0     H78942   7.999   6.225   8.593 -3.1209  0.0341  0.4562
  585MOL0     H78943   8.166   6.455   8.681 -0.7063 -0.4467  1.6032
  585MOL0     H78944   8.234   6.285   8.653 -1.1846 -2.2465 -0.9891
  585MOL0     H78945   8.082   6.445   8.458  0.3100  0.9869 -0.1131
  585MOL0     H78946   8.170   6.289   8.426 -1.3828 -0.7567  1.2439
  585MOL0     H78947   8.295   6.549   8.522 -1.5626 -2.1403  1.3442
  585MOL0     H78948   8.275   6.517   8.347  0.6189 -0.9462 -0.0856
  585MOL0     H78949   8.417   6.341   8.545 -0.6011 -1.6719 -1.7738
  585MOL0     H78950   8.431   6.329   8.368  0.0701  2.3711 -1.7461
  585MOL0     H78951   8.541   6.559   8.535  0.3416 -0.6403 -1.1499
  585MOL0     H78952   8.524   6.576   8.365  1.2398  0.9199 -0.4186
  585MOL0     H78953   8.753   6.512   8.437 -0.0927 -0.8587  0.8825
  585MOL0     H78954   8.688   6.349   8.470 -1.3029 -0.0490  0.4109
  585MOL0     H78955   7.872   6.570   8.974 -0.1935  0.9683  1.9960
  585MOL0     H78956   7.682   6.708   9.044  1.4125 -2.9622  1.4031
  585MOL0     H78957   7.408   7.073   8.872 -0.6810 -1.6236 -2.6765
  585MOL0     H78958   7.222   7.246   8.933 -0.3331  0.7736  0.9800
  585MOL0     H78959   5.197   6.739   9.150 -1.3874 -0.3711 -0.3420
  585MOL0     H78960   4.955   6.829   9.182 -0.5836  1.4887  0.4940
  585MOL0     H78961   4.705   7.144   8.887  0.8140  1.8524  0.1342
  585MOL0     H78962   4.492   7.242   8.815  1.0199  2.0987  0.5337
  585MOL0     H78963   4.235   7.355   9.137  0.2563 -2.3908  1.7979
  585MOL0     H78964   4.149   7.217   9.066 -0.9799  0.5106  0.2722
  585MOL0     H78965   4.019   7.413   9.065  1.1055  2.4363  1.1566
  585MOL0     H78966   4.054   7.371   8.887 -5.1414  1.8252  0.7639
  585MOL0     H78967   4.243   7.544   8.887  0.5122 -1.0851  1.5448
  585MOL0     H78968   4.212   7.585   9.048  0.1784  0.2438 -0.2292
  585MOL0     H78969   3.968   7.644   8.957 -1.1991  0.8860  0.3232
  585MOL0     H78970   4.108   7.753   8.922 -2.2488 -0.0432  2.5908
  585MOL0     H78971   3.971   7.570   8.548  0.1281 -1.1262  0.5371
  585MOL0     H78972   4.350   7.224   9.212 -0.6872 -2.5547 -0.3251
  585MOL0     H78973   4.454   7.121   9.387  1.3281 -0.4645  1.0847
  585MOL0     H78974   4.569   6.994   9.358  1.8567  1.2973  0.5634
  585MOL0     H78975   4.620   7.152   9.397  1.4758 -2.9171  3.0464
  586MOL0     O78976   4.070   9.954   1.877 -0.1213  0.4113  0.0927
  586MOL0     C78977   4.056   9.853   1.949 -0.1663  0.0267 -0.6679
  586MOL0     O78978   4.154   9.800   2.019  0.6168 -0.2954  0.5862
  586MOL0     C78979   4.276   9.786   1.945  0.3422  0.8339 -0.4793
  586MOL0     C78980   4.362   9.900   1.923  0.4022 -0.4778 -1.2395
  586MOL0     C78981   4.480   9.880   1.845 -0.0290 -0.4447  0.0056
  586MOL0     C78982   4.504   9.755   1.787  0.1311  0.5784  0.2789
  586MOL0     O78983   4.612   9.716   1.712  0.0687 -0.0549  0.3384
  586MOL0     C78984   4.720   9.804   1.700  0.2871 -0.4282  0.2734
  586MOL0     C78985   4.805   9.756   1.585  0.1337 -0.3291  0.2817
  586MOL0     C78986   4.944   9.813   1.575  0.4566  1.0282 -0.0307
  586MOL0     C78987   5.033   9.705   1.513 -0.4763 -1.0953 -0.7073
  586MOL0     C78988   5.188   9.742   1.522  0.0370  0.4886 -0.4034
  586MOL0     C78989   5.257   9.612   1.469  0.6525  0.1470  0.3506
  586MOL0     C78990   5.388   9.638   1.397 -0.0869  0.4759  0.1621
  586MOL0     C78991   5.513   9.633   1.481  0.0342  0.1712 -0.2849
  586MOL0     N78992   5.643   9.660   1.410  0.6584  0.3574  0.5120
  586MOL0     C78993   5.664   9.735   1.298  0.3966 -0.4761  0.2269
  586MOL0     C78994   5.790   9.707   1.249  0.2960 -0.2835  0.2764
  586MOL0     C78995   5.839   9.747   1.108  0.6119  0.2169 -1.4103
  586MOL0     C78996   5.982   9.739   1.097  0.1826  0.1010 -0.5688
  586MOL0     C78997   6.029   9.779   0.953  0.0922  0.6863  0.0516
  586MOL0     C78998   6.183   9.797   0.943  0.3425  0.3041 -0.2213
  586MOL0     O78999   6.252   9.695   1.017 -0.4706  0.9578  0.0891
  586MOL0     C79000   6.400   9.702   1.020  0.0026  0.8529  0.1094
  586MOL0     C79001   6.449   9.643   1.136  0.6595  0.9489 -0.7249
  586MOL0     C79002   6.583   9.628   1.155  0.3457  1.0205 -0.3401
  586MOL0     C79003   6.683   9.689   1.071  1.0169 -0.4142 -0.6225
  586MOL0     C79004   6.829   9.691   1.086 -1.2560 -0.0899  0.0465
  586MOL0     O79005   6.908   9.673   0.979  0.3468  0.2678 -0.4441
  586MOL0     C79006   7.041   9.692   0.994 -1.2522 -0.4168  1.1035
  586MOL0     C79007   7.121   9.611   1.070 -0.1224  0.9179  0.0899
  586MOL0     C79008   7.259   9.631   1.065 -0.5048 -0.2018 -0.3978
  586MOL0     C79009   7.320   9.730   0.995 -0.3483 -0.1399 -0.2618
  586MOL0     O79010   7.458   9.734   1.000 -0.1823 -0.0261  0.0540
  586MOL0     C79011   7.527   9.816   0.901 -0.4255  0.2485 -0.0201
  586MOL0     C79012   7.663   9.762   0.909 -0.2955 -0.8003 -0.4084
  586MOL0     C79013   7.762   9.862   0.840  0.2494 -0.5494  0.6960
  586MOL0     C79014   7.759   9.827   0.692  0.8196 -0.7710  0.8400
  586MOL0     C79015   7.869   9.885   0.616 -0.2403 -0.2004  0.1212
  586MOL0     C79016   7.897   9.812   0.488  0.3933 -0.5203  0.0930
  586MOL0     C79017   8.028   9.864   0.421 -0.9567  0.2243 -0.8954
  586MOL0     C79018   8.031   9.818   0.278  0.5460  0.3638  0.4522
  586MOL0    Cl79019   8.029   9.635   0.268 -0.0673  0.0661  0.2068
  586MOL0     C79020   7.239   9.815   0.914 -1.1383 -0.4242 -0.3858
  586MOL0     C79021   7.103   9.801   0.920  0.4439  0.3114  0.3975
  586MOL0     O79022   6.871   9.696   1.203 -0.6867  0.3459  1.2077
  586MOL0     C79023   6.624   9.757   0.957  0.7869 -0.2633  0.7609
  586MOL0     C79024   6.487   9.754   0.925  0.7995 -0.9141  0.5819
  586MOL0     N79025   5.835   9.601   1.335  0.5669  0.9105 -0.2790
  586MOL0     N79026   5.751   9.578   1.429  0.0721 -0.7704 -0.3705
  586MOL0     C79027   4.410   9.656   1.802 -0.5121  0.2929 -0.0036
  586MOL0     C79028   4.300   9.670   1.882  0.5741 -0.0650 -0.2310
  586MOL0     C79029   3.919   9.801   1.965 -0.3343  0.4818 -0.1928
  586MOL0     C79030   3.829   9.907   1.957 -0.0377 -0.2362 -1.3909
  586MOL0     C79031   3.692   9.880   1.954  0.9001 -0.1717 -0.2067
  586MOL0     C79032   3.645   9.743   1.956 -0.1874  0.1164  0.2361
  586MOL0     O79033   3.510   9.732   1.937 -0.2218  0.0962  0.2743
  586MOL0     C79034   3.435   9.711   2.058 -1.0371  0.2796 -0.3385
  586MOL0     C79035   3.282   9.695   2.034  0.7026  1.2364  0.1646
  586MOL0     C79036   3.216   9.822   1.978  0.0046 -0.5113 -0.8889
  586MOL0     C79037   3.074   9.779   1.942 -1.1757 -0.2743 -0.4796
  586MOL0     C79038   3.004   9.757   2.067  0.5674 -0.3154  0.6201
  586MOL0     C79039   2.945   9.723   2.173 -0.2384 -0.1466  0.0796
  586MOL0     C79040   3.742   9.642   1.969 -0.0483  1.0527  0.3316
  586MOL0     C79041   3.874   9.667   1.982 -0.0454 -0.5611  0.3222
  586MOL0     C79042   3.968   9.546   1.985 -0.1235  0.5085  0.1405
  586MOL0     H79043   4.328   9.992   1.969  3.2717 -0.0974  0.4261
  586MOL0     H79044   4.525   9.974   1.814 -1.9050 -0.1276 -1.9832
  586MOL0     H79045   4.675   9.901   1.677  0.6437  0.2593  2.2872
  586MOL0     H79046   4.770   9.823   1.796  1.6355 -0.7447 -0.3392
  586MOL0     H79047   4.753   9.788   1.494  0.6577 -0.5038 -0.0820
  586MOL0     H79048   4.797   9.647   1.585 -2.0282 -0.2884 -2.1929
  586MOL0     H79049   4.982   9.826   1.677  0.5097  0.4308  0.0251
  586MOL0     H79050   4.956   9.905   1.517 -0.9211 -0.2624 -2.5605
  586MOL0     H79051   5.021   9.616   1.575 -1.8505  0.5262  1.5103
  586MOL0     H79052   5.003   9.687   1.410  0.5229 -0.4041 -1.1460
  586MOL0     H79053   5.207   9.819   1.448 -0.7780 -0.9133 -2.1419
  586MOL0     H79054   5.225   9.770   1.621  1.4192 -2.3200 -0.0343
  586MOL0     H79055   5.250   9.535   1.547 -2.1276  0.0794  0.1503
  586MOL0     H79056   5.185   9.576   1.395  1.5271 -1.8167  0.3948
  586MOL0     H79057   5.386   9.730   1.338  1.5042  1.5340  1.6542
  586MOL0     H79058   5.402   9.569   1.314  0.8269  0.9137 -0.0577
  586MOL0     H79059   5.497   9.713   1.553 -2.4916 -0.2067 -0.3478
  586MOL0     H79060   5.527   9.535   1.529  1.9819 -0.3946 -1.8676
  586MOL0     H79061   5.603   9.814   1.254  1.0175 -1.2739 -2.2471
  586MOL0     H79062   5.801   9.678   1.032 -2.4023  0.3261 -0.1567
  586MOL0     H79063   5.804   9.847   1.080 -1.7846  0.6406  2.3906
  586MOL0     H79064   6.031   9.809   1.164 -1.9211  0.9551  0.1503
  586MOL0     H79065   6.018   9.636   1.108  0.7888  0.4879  1.3746
  586MOL0     H79066   5.984   9.876   0.931  0.2827  1.0106  1.0423
  586MOL0     H79067   6.000   9.702   0.881  2.5000  0.0331 -0.3363
  586MOL0     H79068   6.219   9.886   0.995 -1.5082  0.0453  1.6592
  586MOL0     H79069   6.206   9.803   0.836 -1.3570 -3.7542 -1.0175
  586MOL0     H79070   6.380   9.597   1.207 -0.3954 -0.0672 -2.3546
  586MOL0     H79071   6.616   9.577   1.245  0.0952  1.5381  0.0517
  586MOL0     H79072   7.070   9.530   1.120  0.1881  1.2996  1.0442
  586MOL0     H79073   7.314   9.564   1.131  0.0918 -1.9003 -2.5181
  586MOL0     H79074   7.488   9.800   0.800  0.6493  3.7255 -1.1314
  586MOL0     H79075   7.521   9.925   0.899  1.5038  0.4136 -2.5128
  586MOL0     H79076   7.695   9.755   1.013  0.3553 -1.3792 -0.6379
  586MOL0     H79077   7.679   9.659   0.876 -1.0859 -0.7569 -0.9521
  586MOL0     H79078   7.732   9.965   0.857  2.7746  0.3281  0.1884
  586MOL0     H79079   7.861   9.849   0.883  0.2693  0.8678  1.1286
  586MOL0     H79080   7.662   9.850   0.646  1.3750 -2.1342 -1.1651
  586MOL0     H79081   7.780   9.720   0.687  1.6565 -0.7073  2.3338
  586MOL0     H79082   7.964   9.900   0.668  1.2679  0.8354 -2.7195
  586MOL0     H79083   7.839   9.983   0.579 -1.2047 -1.4702 -2.8044
  586MOL0     H79084   7.929   9.711   0.514  1.6596  0.5349  3.0010
  586MOL0     H79085   7.821   9.814   0.409  1.0483 -0.6485 -0.5436
  586MOL0     H79086   8.123   9.834   0.466 -1.9406 -0.8846  0.5463
  586MOL0     H79087   8.025   9.973   0.412  0.1699  0.1865 -2.0863
  586MOL0     H79088   7.949   9.867   0.224  2.3202  3.7672  0.6236
  586MOL0     H79089   8.119   9.857   0.227  2.1691 -2.0763  1.1987
  586MOL0     H79090   7.280   9.903   0.866 -1.9004  2.4890  3.7632
  586MOL0     H79091   7.034   9.862   0.862 -0.2913  0.2999  1.2361
  586MOL0     H79092   6.681   9.814   0.885 -2.1261 -0.4024 -1.8987
  586MOL0     H79093   6.441   9.798   0.837 -0.5624  0.1759  1.7787
  586MOL0     H79094   4.415   9.556   1.760 -1.9347 -0.3600  1.3268
  586MOL0     H79095   4.233   9.585   1.898  0.9885 -0.1854  0.9055
  586MOL0     H79096   3.851  10.012   1.968 -0.9243 -0.3178  3.6301
  586MOL0     H79097   3.614   9.954   1.971  0.7923 -0.6624  1.6363
  586MOL0     H79098   3.464   9.787   2.132 -1.6617  0.3761 -0.1869
  586MOL0     H79099   3.458   9.611   2.096 -1.6947 -0.0843 -0.8795
  586MOL0     H79100   3.241   9.657   2.128 -1.2111 -1.4437 -1.6053
  586MOL0     H79101   3.268   9.615   1.961  0.3152 -1.0357  2.5552
  586MOL0     H79102   3.280   9.868   1.902  2.4710 -0.8188  0.8614
  586MOL0     H79103   3.203   9.904   2.049  0.9405 -1.6102  0.6253
  586MOL0     H79104   3.028   9.862   1.888  2.0423  1.7695 -0.3339
  586MOL0     H79105   3.065   9.692   1.877  0.6850  0.0228 -1.2032
  586MOL0     H79106   2.914   9.706   2.274  1.1264  0.0160  0.5534
  586MOL0     H79107   3.706   9.540   1.975  0.9267  0.7235  0.8015
  586MOL0     H79108   4.048   9.572   2.054  2.2616 -0.1131 -2.2071
  586MOL0     H79109   3.921   9.457   2.028  1.2828 -0.0927  0.4830
  586MOL0     H79110   4.014   9.520   1.889  0.0102  0.7592  0.1371
  587MOL0     O79111  11.237   5.398   5.089 -0.0727 -0.1927  0.2882
  587MOL0     C79112  11.283   5.362   4.977  0.0137 -1.3642 -1.4334
  587MOL0     O79113  11.411   5.333   4.951 -0.6848  0.6080 -0.2963
  587MOL0     C79114  11.513   5.410   5.013 -1.6448 -0.5264  0.1894
  587MOL0     C79115  11.499   5.531   5.081 -0.4438  0.0984  0.7927
  587MOL0     C79116  11.603   5.598   5.148  0.2958  1.1135 -0.9294
  587MOL0     C79117  11.736   5.555   5.129 -0.5901  0.0811  0.1231
  587MOL0     O79118  11.850   5.601   5.186  0.3429  0.1993  0.5725
  587MOL0     C79119  11.876   5.739   5.207 -0.8521 -0.1788  0.3764
  587MOL0     C79120  12.026   5.751   5.216 -0.6368  0.3473  0.7149
  587MOL0     C79121  12.095   5.669   5.328 -0.1800  0.6068 -0.2384
  587MOL0     C79122  12.225   5.738   5.355  0.6042  0.2385 -0.1538
  587MOL0     C79123  12.304   5.686   5.479 -0.1616  0.2710 -0.2087
  587MOL0     C79124  12.377   5.558   5.454 -0.1515  0.2406 -0.1199
  587MOL0     C79125  12.425   5.503   5.589  0.0449  0.4041  0.0166
  587MOL0     C79126  12.536   5.587   5.666  0.1616 -0.2703 -0.0215
  587MOL0     N79127  12.665   5.539   5.598 -0.2564  0.4278 -0.0711
  587MOL0     C79128  12.700   5.573   5.473  0.9412 -0.6420  1.2434
  587MOL0     C79129  12.819   5.518   5.452  0.5473 -0.1194  0.2586
  587MOL0     C79130  12.896   5.561   5.329  0.0225  0.0706  0.0342
  587MOL0     C79131  12.987   5.449   5.271  0.1712 -0.0420  0.5342
  587MOL0     C79132  13.092   5.398   5.366  0.8342 -0.0835 -0.4285
  587MOL0     C79133  13.205   5.329   5.300  0.6667 -0.1740  0.0285
  587MOL0     O79134  13.294   5.417   5.231  0.0109 -0.4834  0.8338
  587MOL0     C79135  13.425   5.388   5.212 -0.3232  0.5819 -0.8293
  587MOL0     C79136  13.474   5.248   5.208  0.6841  0.1883 -0.1297
  587MOL0     C79137  13.607   5.229   5.163  0.2327  0.1869  0.3327
  587MOL0     C79138  13.697   5.328   5.133 -0.1247  0.0076 -0.9551
  587MOL0     C79139  13.837   5.293   5.106  1.3856 -0.3233 -0.5724
  587MOL0     O79140  13.927   5.392   5.100  0.7094 -0.3821 -0.1549
  587MOL0     C79141  14.063   5.368   5.117 -0.5029  0.0534  1.1983
  587MOL0     C79142  14.129   5.428   5.225 -1.3543  0.1690 -0.2175
  587MOL0     C79143  14.270   5.410   5.226 -0.5968  0.2788  0.2813
  587MOL0     C79144  14.345   5.334   5.126 -0.4904  0.5451 -0.1881
  587MOL0     O79145  14.481   5.329   5.124 -0.4481 -0.7890 -0.7527
  587MOL0     C79146  14.540   5.303   5.252 -0.3200 -1.0657 -0.2148
  587MOL0     C79147  14.691   5.288   5.223 -0.3804  0.0581 -0.7565
  587MOL0     C79148  14.747   5.419   5.165 -0.1476 -0.5742  0.0730
  587MOL0     C79149  14.891   5.441   5.211 -0.1997 -0.3832  1.1625
  587MOL0     C79150  14.926   5.576   5.147 -0.8492 -0.2435  0.0446
  587MOL0     C79151  15.081   5.590   5.163 -0.5458  0.2041 -0.0720
  587MOL0     C79152  15.125   5.585   5.305  0.7282 -0.1176  1.0138
  587MOL0     C79153  15.265   5.627   5.323  0.1261  0.6353 -0.1268
  587MOL0    Cl79154  15.397   5.538   5.242  0.1665  0.2538 -0.3602
  587MOL0     C79155  14.269   5.277   5.026 -0.0743 -0.3475 -0.2706
  587MOL0     C79156  14.132   5.297   5.021 -0.7750  0.1521  1.1898
  587MOL0     O79157  13.856   5.169   5.095  0.2070 -0.7385  0.5478
  587MOL0     C79158  13.656   5.465   5.157 -0.1012  0.6706 -0.5848
  587MOL0     C79159  13.520   5.492   5.199  0.6813  1.3076  0.1662
  587MOL0     N79160  12.868   5.466   5.572  0.2945  0.3129 -0.7486
  587MOL0     N79161  12.776   5.478   5.656  0.2725  0.5416 -0.7729
  587MOL0     C79162  11.755   5.449   5.048  0.3746  1.2846 -0.0178
  587MOL0     C79163  11.649   5.367   4.999  0.4940  0.6453  0.6922
  587MOL0     C79164  11.187   5.322   4.871  0.1265 -0.9827 -0.1346
  587MOL0     C79165  11.078   5.241   4.910 -0.4121  0.0392  0.4459
  587MOL0     C79166  10.975   5.201   4.823 -0.5083  0.1984 -0.0966
  587MOL0     C79167  10.989   5.243   4.691  0.0289  0.5806  0.2131
  587MOL0     O79168  10.904   5.203   4.586 -0.5108 -0.1306  0.1495
  587MOL0     C79169  10.787   5.121   4.604  0.2717  0.8051  0.2293
  587MOL0     C79170  10.719   5.106   4.463 -0.0890 -0.2157 -1.0755
  587MOL0     C79171  10.581   5.028   4.493 -0.0434 -0.2762 -0.0871
  587MOL0     C79172  10.500   5.037   4.373  1.1308  0.7896 -0.0545
  587MOL0     C79173  10.353   5.017   4.407 -0.1342  0.1571  0.3865
  587MOL0     C79174  10.243   4.996   4.442 -0.6032 -0.3715 -0.3536
  587MOL0     C79175  11.097   5.324   4.651 -0.5075  0.2346  0.1376
  587MOL0     C79176  11.205   5.357   4.737 -0.1736  0.1118 -0.2156
  587MOL0     C79177  11.318   5.438   4.677  0.7920  0.2000 -0.5443
  587MOL0     H79178  11.399   5.572   5.087 -0.6565  0.1467 -1.9249
  587MOL0     H79179  11.583   5.690   5.202  0.9087  0.4360  0.4907
  587MOL0     H79180  11.838   5.796   5.122  1.1933 -3.3592 -3.0057
  587MOL0     H79181  11.842   5.767   5.307  0.1650  1.1698  0.3832
  587MOL0     H79182  12.046   5.856   5.239  1.8463 -0.2100  1.4279
  587MOL0     H79183  12.078   5.724   5.123  0.6515 -0.1004  1.5356
  587MOL0     H79184  12.108   5.564   5.300 -0.0306  0.4099  0.5185
  587MOL0     H79185  12.035   5.668   5.420 -0.5395  3.9552 -0.2986
  587MOL0     H79186  12.291   5.732   5.268  2.3749 -0.3908  1.1761
  587MOL0     H79187  12.204   5.843   5.380 -0.5177  0.2171 -0.9089
  587MOL0     H79188  12.378   5.765   5.497  2.0874 -1.4984 -1.0783
  587MOL0     H79189  12.227   5.684   5.556  0.1360  1.9260  0.1582
  587MOL0     H79190  12.311   5.484   5.408 -0.1583 -1.0354  1.8262
  587MOL0     H79191  12.462   5.573   5.387  1.8185  0.5948  2.2942
  587MOL0     H79192  12.450   5.397   5.581 -1.8580 -0.0781 -0.0742
  587MOL0     H79193  12.344   5.507   5.663 -0.4053  0.0068 -0.4467
  587MOL0     H79194  12.520   5.694   5.652  1.2824 -0.1277 -0.3017
  587MOL0     H79195  12.531   5.555   5.770  0.7531 -1.5047 -0.3537
  587MOL0     H79196  12.647   5.642   5.408  0.7720  0.8130  2.8294
  587MOL0     H79197  12.834   5.593   5.245 -0.6274 -2.5382 -0.6020
  587MOL0     H79198  12.962   5.641   5.362 -0.6167  1.3520 -1.6614
  587MOL0     H79199  12.922   5.364   5.246 -0.7757  0.7431  0.2418
  587MOL0     H79200  13.041   5.493   5.186  2.1562  1.2178  2.3426
  587MOL0     H79201  13.038   5.323   5.425  0.7533 -0.3283 -0.8118
  587MOL0     H79202  13.129   5.480   5.429 -0.5444 -0.5819  1.0942
  587MOL0     H79203  13.167   5.249   5.237 -1.5173 -0.8252  2.0003
  587MOL0     H79204  13.263   5.284   5.381 -2.2051  1.4571  3.2704
  587MOL0     H79205  13.406   5.169   5.237  0.0340  0.6110 -0.4645
  587MOL0     H79206  13.632   5.126   5.142  0.3870  0.4445 -0.7826
  587MOL0     H79207  14.072   5.475   5.304 -0.7823  1.2315 -0.4267
  587MOL0     H79208  14.327   5.470   5.297 -0.4794  0.1733  0.2758
  587MOL0     H79209  14.537   5.392   5.315 -1.1286 -0.2384 -1.3986
  587MOL0     H79210  14.505   5.207   5.292  2.1486 -3.1793 -2.6889
  587MOL0     H79211  14.743   5.274   5.318 -1.3676 -2.6952 -0.5397
  587MOL0     H79212  14.712   5.204   5.156  1.3051  0.1658 -0.4180
  587MOL0     H79213  14.731   5.407   5.057 -1.1162  0.0725  0.1375
  587MOL0     H79214  14.698   5.513   5.188 -0.0838 -0.2988 -0.8602
  587MOL0     H79215  14.943   5.348   5.184 -2.2875 -1.8838  2.0685
  587MOL0     H79216  14.918   5.441   5.318  2.0862 -2.8843  0.7093
  587MOL0     H79217  14.867   5.652   5.201 -0.8378 -1.2706  1.5685
  587MOL0     H79218  14.895   5.587   5.042  0.4144  0.5720 -0.2630
  587MOL0     H79219  15.134   5.515   5.104  1.4163  2.1886 -1.0134
  587MOL0     H79220  15.115   5.686   5.121 -1.5510 -0.5688 -2.9280
  587MOL0     H79221  15.129   5.480   5.335 -5.1382 -1.0574 -0.2488
  587MOL0     H79222  15.059   5.640   5.373 -1.0308 -1.2297  0.2588
  587MOL0     H79223  15.271   5.734   5.301 -4.3654  1.4679  1.7401
  587MOL0     H79224  15.290   5.613   5.429  2.0240  0.5995 -0.5349
  587MOL0     H79225  14.316   5.223   4.944 -0.4210  0.2950 -0.8999
  587MOL0     H79226  14.077   5.245   4.943 -0.2531 -2.0978  2.2178
  587MOL0     H79227  13.735   5.538   5.140  1.5166 -0.6279  0.9933
  587MOL0     H79228  13.501   5.598   5.211 -0.1728  1.1336  0.3914
  587MOL0     H79229  11.857   5.418   5.029  0.2937  0.6895  0.4964
  587MOL0     H79230  11.678   5.284   4.935 -0.4470  0.1182  0.9430
  587MOL0     H79231  11.073   5.199   5.009  3.2083  0.2428  0.8400
  587MOL0     H79232  10.891   5.143   4.860  0.2114 -0.7475  0.1003
  587MOL0     H79233  10.728   5.162   4.685  2.5013  2.9479  0.9011
  587MOL0     H79234  10.822   5.022   4.634  0.9838  0.0387 -2.7589
  587MOL0     H79235  10.776   5.048   4.390  0.0348 -2.6423  0.8186
  587MOL0     H79236  10.702   5.209   4.429 -1.2810  0.1956  0.6219
  587MOL0     H79237  10.537   5.065   4.586  4.2254  1.3304  1.5317
  587MOL0     H79238  10.600   4.921   4.506 -0.3463 -0.4605 -1.0413
  587MOL0     H79239  10.502   5.140   4.337 -0.9117  0.4142 -1.4600
  587MOL0     H79240  10.530   4.961   4.300 -2.3537  1.0308 -1.9583
  587MOL0     H79241  10.141   4.998   4.472  0.0965  1.8750  2.2616
  587MOL0     H79242  11.093   5.367   4.552  0.5773 -1.2688 -0.5969
  587MOL0     H79243  11.297   5.466   4.573 -3.9434  0.4591  0.2387
  587MOL0     H79244  11.331   5.533   4.731  2.2198  0.9048 -2.0399
  587MOL0     H79245  11.408   5.377   4.687  1.3672  1.2739  1.4954
  588MOL0     O79246   6.009   5.185   0.022 -0.0250  0.0292 -0.0559
  588MOL0     C79247   6.017   5.083   0.092  0.0279 -0.2157  0.7468
  588MOL0     O79248   6.139   5.040   0.149 -0.3866  0.1100 -0.8107
  588MOL0     C79249   6.258   5.111   0.145 -0.4148  1.3562  0.2618
  588MOL0     C79250   6.358   5.057   0.239  0.2179  0.2478  0.1134
  588MOL0     C79251   6.484   5.120   0.265  0.2766 -0.1927  0.5662
  588MOL0     C79252   6.520   5.225   0.184 -0.0803  0.5001 -0.4838
  588MOL0     O79253   6.642   5.288   0.217  0.0004  0.5294  0.2579
  588MOL0     C79254   6.745   5.312   0.105 -0.1054 -0.3336 -0.2480
  588MOL0     C79255   6.833   5.194   0.076 -0.2002  0.0188 -0.7959
  588MOL0     C79256   6.898   5.148   0.200  0.5907  0.5755  0.9410
  588MOL0     C79257   7.007   5.042   0.172  0.1338 -0.5613 -0.0755
  588MOL0     C79258   7.083   5.016   0.307 -0.2283  0.6096  0.3977
  588MOL0     C79259   7.210   5.109   0.317  1.2143 -0.5913  0.0009
  588MOL0     C79260   7.315   5.060   0.418  0.6707 -0.2606 -0.5240
  588MOL0     C79261   7.429   5.158   0.443  0.1526  0.5236 -0.2499
  588MOL0     N79262   7.543   5.079   0.486 -0.6391  1.0236  0.2494
  588MOL0     C79263   7.646   5.037   0.407 -0.3698  0.0408 -0.0930
  588MOL0     C79264   7.736   4.970   0.481  0.1688 -0.6203 -0.1030
  588MOL0     C79265   7.869   4.914   0.453 -0.3818  0.3474  0.1614
  588MOL0     C79266   7.874   4.800   0.351  1.0674 -0.3758  0.2543
  588MOL0     C79267   8.018   4.743   0.329  0.5377 -0.6249 -0.4535
  588MOL0     C79268   8.059   4.659   0.452  0.2831  0.2915 -0.6390
  588MOL0     O79269   8.177   4.572   0.421 -0.3849  0.1106 -0.2758
  588MOL0     C79270   8.304   4.616   0.460 -0.5630 -0.5470  0.3145
  588MOL0     C79271   8.349   4.749   0.458  0.5728 -0.0232 -0.4305
  588MOL0     C79272   8.476   4.779   0.494 -0.1417  0.7961 -0.6179
  588MOL0     C79273   8.575   4.677   0.523  1.3424 -0.1949  0.3265
  588MOL0     C79274   8.710   4.705   0.561  0.1183 -0.1511 -0.3189
  588MOL0     O79275   8.804   4.602   0.558  0.0893  0.2804 -0.1499
  588MOL0     C79276   8.938   4.623   0.577 -0.2620 -0.0968  0.6297
  588MOL0     C79277   8.984   4.715   0.679 -0.0038  0.6155 -0.1998
  588MOL0     C79278   9.119   4.726   0.704 -0.1302 -0.1819  0.1808
  588MOL0     C79279   9.219   4.652   0.626  0.4664 -0.1322 -0.1921
  588MOL0     O79280   9.355   4.670   0.626  0.0675  0.5687 -0.1100
  588MOL0     C79281   9.406   4.747   0.723  0.0334  0.4647 -1.0976
  588MOL0     C79282   9.562   4.735   0.729  0.2090  0.6052  0.3270
  588MOL0     C79283   9.636   4.767   0.602  0.4477 -0.6399  0.5961
  588MOL0     C79284   9.779   4.706   0.597 -1.0541 -0.5259 -0.1100
  588MOL0     C79285   9.880   4.786   0.685 -0.7280 -0.0950  0.1111
  588MOL0     C79286  10.009   4.702   0.678 -0.0502  0.1858  0.3384
  588MOL0     C79287   9.995   4.572   0.762  0.1048 -0.0688 -0.4979
  588MOL0     C79288  10.140   4.549   0.812  0.2408 -0.6221  0.5309
  588MOL0    Cl79289  10.208   4.677   0.920  0.1118  0.0243  0.0625
  588MOL0     C79290   9.166   4.569   0.522  0.3216  0.0289 -0.5652
  588MOL0     C79291   9.035   4.551   0.505  0.0530 -0.4372 -0.0350
  588MOL0     O79292   8.741   4.828   0.582  0.0813 -0.5014 -0.4931
  588MOL0     C79293   8.536   4.545   0.499  0.0725  0.5154 -0.0309
  588MOL0     C79294   8.400   4.518   0.478 -0.4683  0.1335  0.2231
  588MOL0     N79295   7.686   4.975   0.611  0.0026 -0.2977  0.7674
  588MOL0     N79296   7.579   5.039   0.611  0.1400 -0.5688  0.4156
  588MOL0     C79297   6.432   5.271   0.090  0.9218  0.3558 -0.0244
  588MOL0     C79298   6.302   5.222   0.066  0.8521  0.3575 -0.1795
  588MOL0     C79299   5.909   4.983   0.105 -0.4528  0.3505 -1.1669
  588MOL0     C79300   5.924   4.868   0.193 -0.2087  0.2003 -0.0270
  588MOL0     C79301   5.821   4.779   0.217  0.0200  0.2415 -0.6076
  588MOL0     C79302   5.697   4.798   0.150  0.0870 -0.4636  0.3520
  588MOL0     O79303   5.589   4.713   0.189 -0.0832 -0.4370  0.0450
  588MOL0     C79304   5.474   4.730   0.118  0.1399  0.3552  0.1695
  588MOL0     C79305   5.358   4.646   0.176  0.0465 -0.3353  0.1214
  588MOL0     C79306   5.244   4.632   0.074 -0.0792 -1.4248 -0.2975
  588MOL0     C79307   5.142   4.531   0.126 -0.1871 -0.4878 -0.3916
  588MOL0     C79308   5.056   4.491   0.013  0.8517  0.7100 -0.0483
  588MOL0     C79309   4.985   4.467  -0.083  0.0035  0.4576 -0.6716
  588MOL0     C79310   5.685   4.903   0.054  0.4047 -0.1007 -0.8826
  588MOL0     C79311   5.788   4.998   0.038 -0.1504  0.5842  0.3140
  588MOL0     C79312   5.752   5.100  -0.068  0.0670  0.6389 -0.4728
  588MOL0     H79313   6.337   4.976   0.308  0.5621  0.3631  0.3563
  588MOL0     H79314   6.536   5.071   0.347  0.7317  0.5496  0.7370
  588MOL0     H79315   6.688   5.335   0.014 -1.4074 -0.7274  0.4443
  588MOL0     H79316   6.806   5.399   0.128 -1.5885  0.0298  2.7539
  588MOL0     H79317   6.899   5.229  -0.004  0.6179  0.8132  0.2035
  588MOL0     H79318   6.768   5.114   0.038 -2.7626 -1.8230  6.0285
  588MOL0     H79319   6.819   5.099   0.259 -0.8886  1.2154 -0.4198
  588MOL0     H79320   6.928   5.240   0.251 -2.2274  2.4090 -0.4307
  588MOL0     H79321   6.953   4.957   0.129 -0.0618 -1.1813  1.3443
  588MOL0     H79322   7.083   5.078   0.102  0.5285 -3.9914 -1.5880
  588MOL0     H79323   7.017   5.008   0.394 -1.1235  1.1619 -0.2182
  588MOL0     H79324   7.125   4.915   0.296  1.6598  1.6696 -4.6322
  588MOL0     H79325   7.266   5.113   0.223  0.3223 -1.7730 -0.6142
  588MOL0     H79326   7.179   5.209   0.348  2.1945 -0.3731  0.3082
  588MOL0     H79327   7.349   4.960   0.387  0.5879 -0.0960 -1.1744
  588MOL0     H79328   7.264   5.045   0.513  1.1969  1.7838  0.1222
  588MOL0     H79329   7.458   5.208   0.350 -1.4702  0.1545 -0.9908
  588MOL0     H79330   7.401   5.240   0.511  0.9862  1.0729 -0.5567
  588MOL0     H79331   7.654   5.056   0.300  0.2768  0.2321 -0.0132
  588MOL0     H79332   7.925   5.002   0.418 -2.5638  0.9955 -1.9886
  588MOL0     H79333   7.906   4.885   0.552 -1.6787  4.3047  2.0236
  588MOL0     H79334   7.811   4.717   0.384 -1.9391  1.1482 -1.2735
  588MOL0     H79335   7.843   4.835   0.253 -0.6374  1.3704  1.3515
  588MOL0     H79336   8.086   4.824   0.301  1.0619 -1.8835 -3.2580
  588MOL0     H79337   8.011   4.679   0.240  0.4153 -0.5694 -0.4839
  588MOL0     H79338   7.979   4.588   0.473  1.3532 -0.2423  2.1087
  588MOL0     H79339   8.080   4.737   0.527 -1.2861 -0.3613  0.5354
  588MOL0     H79340   8.277   4.830   0.458 -0.0868 -0.3625  4.0390
  588MOL0     H79341   8.505   4.884   0.501 -0.5181  0.9623 -1.4541
  588MOL0     H79342   8.922   4.778   0.741 -0.2279  0.5957 -0.3985
  588MOL0     H79343   9.144   4.798   0.781  1.8690  0.4501 -0.9888
  588MOL0     H79344   9.384   4.850   0.694  1.2211  1.0206 -0.1402
  588MOL0     H79345   9.364   4.707   0.815 -0.4371 -1.9946 -2.3018
  588MOL0     H79346   9.592   4.801   0.812  1.0519 -2.3361  2.5236
  588MOL0     H79347   9.590   4.633   0.754  2.4108  0.5185 -2.1167
  588MOL0     H79348   9.583   4.718   0.519 -1.5418  1.1208  0.7282
  588MOL0     H79349   9.640   4.875   0.581  0.3879 -0.5906  0.8402
  588MOL0     H79350   9.801   4.730   0.492 -1.8916  1.9238  0.2079
  588MOL0     H79351   9.779   4.597   0.605  1.6108 -0.5998 -0.3891
  588MOL0     H79352   9.854   4.778   0.791  1.1942  2.3748  0.8523
  588MOL0     H79353   9.886   4.890   0.654 -1.8513  0.4051  1.4412
  588MOL0     H79354  10.040   4.666   0.580 -0.1529 -4.1187  1.6796
  588MOL0     H79355  10.081   4.769   0.727  0.4722  0.6340 -0.9959
  588MOL0     H79356   9.969   4.489   0.695  1.9434 -0.7994 -0.3718
  588MOL0     H79357   9.921   4.576   0.842 -2.5256  3.5453 -2.8041
  588MOL0     H79358  10.152   4.450   0.856 -3.5359 -0.8887  1.3235
  588MOL0     H79359  10.195   4.558   0.718  0.9123 -0.6668  0.9150
  588MOL0     H79360   9.238   4.529   0.450  0.0912  0.1847 -0.8869
  588MOL0     H79361   9.004   4.476   0.433  0.6288 -1.0011  0.2942
  588MOL0     H79362   8.610   4.469   0.521  1.0388  1.8942  1.8072
  588MOL0     H79363   8.371   4.415   0.468  1.1681 -0.2178 -1.4690
  588MOL0     H79364   6.474   5.346   0.025  2.0948  0.9202  1.3426
  588MOL0     H79365   6.241   5.258  -0.016 -0.4398 -4.6539 -1.8030
  588MOL0     H79366   6.012   4.864   0.256 -1.1097 -2.1159  1.1781
  588MOL0     H79367   5.830   4.689   0.276 -1.4430 -1.0246 -2.1873
  588MOL0     H79368   5.501   4.685   0.022  0.3395 -0.6208  0.6786
  588MOL0     H79369   5.437   4.832   0.104 -1.7717 -0.1503  1.1661
  588MOL0     H79370   5.319   4.677   0.273 -2.6066 -3.9472  0.3946
  588MOL0     H79371   5.396   4.547   0.202 -2.0115 -0.9181  1.0289
  588MOL0     H79372   5.294   4.601  -0.018  3.8734 -0.9217  1.4755
  588MOL0     H79373   5.193   4.729   0.065  1.4623 -0.7244 -2.2805
  588MOL0     H79374   5.203   4.444   0.153  0.8115  0.0698 -0.7949
  588MOL0     H79375   5.072   4.573   0.198 -1.5571  0.6460 -2.2974
  588MOL0     H79376   4.920   4.444  -0.165 -0.9843 -0.5977  0.3585
  588MOL0     H79377   5.593   4.922   0.000  1.4107  0.0298 -2.6299
  588MOL0     H79378   5.824   5.097  -0.150  2.4343 -1.1887  1.5161
  588MOL0     H79379   5.656   5.080  -0.116 -0.9925  0.4284  1.6048
  588MOL0     H79380   5.750   5.202  -0.030 -2.8710  0.6262 -0.3572
  589MOL0     O79381   1.050   0.132   5.431  0.5208  0.9473 -0.3736
  589MOL0     C79382   1.065   0.195   5.325 -0.2255 -0.4819 -0.9587
  589MOL0     O79383   1.181   0.240   5.282 -0.2091  0.2758 -0.2378
  589MOL0     C79384   1.292   0.212   5.353 -0.6776  0.2577 -0.0207
  589MOL0     C79385   1.355   0.311   5.422  0.4315  0.6370 -0.0560
  589MOL0     C79386   1.481   0.286   5.470  0.9569  0.2246 -0.4572
  589MOL0     C79387   1.538   0.160   5.453  1.0598  0.2730 -0.1390
  589MOL0     O79388   1.665   0.145   5.503  0.3462  0.1154  1.4012
  589MOL0     C79389   1.770   0.121   5.399  0.7779  1.0233 -0.1916
  589MOL0     C79390   1.898   0.088   5.470 -0.2277 -0.3760 -0.3698
  589MOL0     C79391   2.010   0.034   5.380 -0.3457  0.0342 -0.0163
  589MOL0     C79392   1.986  -0.113   5.345  0.7749 -0.4485  0.8164
  589MOL0     C79393   2.104  -0.165   5.277  0.2417 -0.2222 -0.0513
  589MOL0     C79394   2.084  -0.305   5.250  0.2762  0.0795  0.5935
  589MOL0     C79395   2.206  -0.376   5.192 -0.2270 -0.1587 -0.2926
  589MOL0     C79396   2.190  -0.501   5.106 -0.7183  1.0749 -0.5356
  589MOL0     N79397   2.302  -0.535   5.017  1.3437  0.7747 -0.1200
  589MOL0     C79398   2.437  -0.553   5.045 -0.2345  0.3318  0.3383
  589MOL0     C79399   2.500  -0.593   4.929  0.6111 -0.3571  0.1979
  589MOL0     C79400   2.646  -0.629   4.908 -0.4863 -0.6973 -0.3524
  589MOL0     C79401   2.663  -0.765   4.856  0.2354  0.7283 -0.5280
  589MOL0     C79402   2.803  -0.826   4.850 -1.4261 -0.7433 -0.2849
  589MOL0     C79403   2.868  -0.839   4.992  0.1818 -0.3522 -0.2169
  589MOL0     O79404   3.007  -0.880   4.993  0.6883  0.4177 -0.4517
  589MOL0     C79405   3.111  -0.797   4.942  0.0522  0.1333 -0.6392
  589MOL0     C79406   3.235  -0.858   4.935  0.1080 -0.6458  0.6077
  589MOL0     C79407   3.349  -0.782   4.900  0.4423  0.4524 -0.2890
  589MOL0     C79408   3.333  -0.647   4.863  0.6694  0.6878  0.1878
  589MOL0     C79409   3.449  -0.573   4.824 -0.0719 -0.5655  0.1837
  589MOL0     O79410   3.561  -0.647   4.789 -0.1584  0.0401 -0.7778
  589MOL0     C79411   3.680  -0.594   4.740 -0.0805  0.1094  0.0509
  589MOL0     C79412   3.697  -0.476   4.677  0.7957  0.4964  1.1758
  589MOL0     C79413   3.820  -0.432   4.635  0.5550  0.9536  0.0904
  589MOL0     C79414   3.939  -0.501   4.662  0.3317 -0.0236 -1.0216
  589MOL0     O79415   4.066  -0.463   4.618 -0.4386 -0.3028 -0.8905
  589MOL0     C79416   4.072  -0.336   4.545 -0.0153  0.3162  0.8227
  589MOL0     C79417   4.211  -0.274   4.556 -0.3418  0.1362  0.6560
  589MOL0     C79418   4.308  -0.355   4.464 -0.2920 -0.0376 -0.5685
  589MOL0     C79419   4.444  -0.292   4.453  0.3062  0.0305  0.1348
  589MOL0     C79420   4.542  -0.377   4.369  0.2294  0.1666  0.8254
  589MOL0     C79421   4.678  -0.318   4.356 -0.2238 -0.0232 -0.1243
  589MOL0     C79422   4.771  -0.398   4.275 -0.9211 -0.1155  0.4226
  589MOL0     C79423   4.791  -0.349   4.132 -0.4095  0.2987 -0.1965
  589MOL0    Cl79424   4.937  -0.425   4.078 -0.1111 -0.2008  0.3456
  589MOL0     C79425   3.920  -0.635   4.716 -0.1557 -0.1818 -1.1118
  589MOL0     C79426   3.797  -0.674   4.760  0.0870 -0.2196  0.2267
  589MOL0     O79427   3.434  -0.450   4.816  0.1049 -1.0802 -0.5567
  589MOL0     C79428   3.206  -0.592   4.855 -0.2981 -0.3921  0.1795
  589MOL0     C79429   3.093  -0.667   4.901  0.0436 -0.1739  0.2018
  589MOL0     N79430   2.396  -0.599   4.839  0.0560  0.6170  0.7955
  589MOL0     N79431   2.284  -0.558   4.887  0.3546  0.8751  0.1640
  589MOL0     C79432   1.470   0.056   5.393  0.4710  0.8242 -1.3816
  589MOL0     C79433   1.344   0.075   5.342  0.3056  0.4466  0.3431
  589MOL0     C79434   0.952   0.216   5.238  0.8792 -0.2700 -0.4357
  589MOL0     C79435   0.852   0.122   5.232  0.4482  0.9104 -0.8549
  589MOL0     C79436   0.745   0.122   5.140  0.2575  0.0872 -0.3611
  589MOL0     C79437   0.734   0.231   5.052 -0.7957 -0.9377 -0.6451
  589MOL0     O79438   0.623   0.261   4.979  0.0093 -0.2665 -1.0715
  589MOL0     C79439   0.569   0.147   4.901 -1.0114 -0.6969 -0.4852
  589MOL0     C79440   0.458   0.199   4.807  0.6873 -0.5499 -0.5232
  589MOL0     C79441   0.337   0.252   4.893  0.0563 -0.1770 -0.5819
  589MOL0     C79442   0.233   0.326   4.810 -1.2537 -0.5907 -0.4929
  589MOL0     C79443   0.116   0.341   4.900 -0.9251 -0.6172  0.8850
  589MOL0     C79444   0.040   0.364   4.991 -0.2960  0.2184 -0.4475
  589MOL0     C79445   0.831   0.332   5.065 -0.0534 -0.0050 -0.9899
  589MOL0     C79446   0.942   0.323   5.145  0.3004  0.0915 -0.2589
  589MOL0     C79447   1.049   0.417   5.118 -0.3705 -0.6309  0.0942
  589MOL0     H79448   1.306   0.408   5.420 -2.7345 -0.8330  0.3787
  589MOL0     H79449   1.533   0.362   5.526  4.5704 -1.3232 -1.4472
  589MOL0     H79450   1.736   0.039   5.334 -0.9394  0.7182  1.0050
  589MOL0     H79451   1.792   0.209   5.340  1.1810  1.8615  1.1693
  589MOL0     H79452   1.879   0.018   5.552 -0.2206  0.1165  0.0574
  589MOL0     H79453   1.942   0.175   5.520  0.4165 -1.0844  0.3152
  589MOL0     H79454   2.099   0.040   5.444 -1.7775 -1.3623  2.2523
  589MOL0     H79455   2.029   0.101   5.296 -2.5724 -0.3247 -0.8606
  589MOL0     H79456   1.963  -0.170   5.435 -1.3132 -1.7978 -0.4831
  589MOL0     H79457   1.892  -0.116   5.288  0.2656 -2.9174  1.6620
  589MOL0     H79458   2.123  -0.100   5.191  1.9035  0.2000  0.6074
  589MOL0     H79459   2.194  -0.169   5.339  1.1252 -3.2704 -1.3417
  589MOL0     H79460   2.054  -0.351   5.345 -3.0294  2.4084  0.8465
  589MOL0     H79461   2.000  -0.322   5.181  0.4154  0.7856  0.2410
  589MOL0     H79462   2.264  -0.403   5.281  0.4786  3.8580  0.6847
  589MOL0     H79463   2.265  -0.307   5.131  2.2273 -3.3127 -1.7367
  589MOL0     H79464   2.191  -0.581   5.181  2.9294 -0.1879 -1.7297
  589MOL0     H79465   2.095  -0.502   5.052 -1.5814  0.6580  0.9226
  589MOL0     H79466   2.487  -0.549   5.141 -0.4480 -1.3401  0.5632
  589MOL0     H79467   2.685  -0.565   4.828  0.3535  0.4862  0.9632
  589MOL0     H79468   2.704  -0.604   4.997  0.1148  1.7015 -1.3302
  589MOL0     H79469   2.609  -0.832   4.924  1.0857 -0.0411 -0.5869
  589MOL0     H79470   2.618  -0.769   4.756 -0.2371  0.8343 -0.3208
  589MOL0     H79471   2.867  -0.769   4.782  0.5252 -0.3126  1.8040
  589MOL0     H79472   2.800  -0.926   4.804 -1.3879 -0.7161 -0.3472
  589MOL0     H79473   2.808  -0.912   5.047  1.0149 -1.0727 -0.2495
  589MOL0     H79474   2.862  -0.741   5.041  1.1405 -0.3712 -0.0446
  589MOL0     H79475   3.252  -0.960   4.967 -0.3958 -0.5920  1.0603
  589MOL0     H79476   3.445  -0.831   4.896  0.2672 -0.2897  2.2297
  589MOL0     H79477   3.611  -0.414   4.652  1.0874  0.4415 -0.0421
  589MOL0     H79478   3.817  -0.340   4.577 -2.2872 -0.4937 -2.2415
  589MOL0     H79479   4.037  -0.345   4.442 -0.3669  1.5641  0.8194
  589MOL0     H79480   4.003  -0.269   4.597 -2.4108  0.2070 -1.9176
  589MOL0     H79481   4.203  -0.171   4.519  0.6893 -1.3082 -4.3541
  589MOL0     H79482   4.240  -0.262   4.660  0.8586 -3.8903  0.9461
  589MOL0     H79483   4.304  -0.459   4.496 -4.2802 -0.3885 -1.6327
  589MOL0     H79484   4.256  -0.354   4.368 -2.3527  0.0313  0.4777
  589MOL0     H79485   4.492  -0.289   4.551 -2.4166 -0.5089  1.5805
  589MOL0     H79486   4.434  -0.190   4.415 -0.7077  0.3127  1.1238
  589MOL0     H79487   4.505  -0.378   4.266  0.6744  1.6615  0.6280
  589MOL0     H79488   4.539  -0.477   4.414  1.4934 -0.3746 -0.2163
  589MOL0     H79489   4.686  -0.213   4.327 -0.6820  0.2464  0.6847
  589MOL0     H79490   4.734  -0.298   4.448 -0.3953  2.3828 -0.4954
  589MOL0     H79491   4.740  -0.502   4.265  2.7964 -1.4501  1.2155
  589MOL0     H79492   4.874  -0.404   4.313 -0.3852  2.1734 -0.4990
  589MOL0     H79493   4.703  -0.379   4.074 -1.0062  0.3649  0.6518
  589MOL0     H79494   4.821  -0.244   4.120  5.2757 -0.9436  0.2258
  589MOL0     H79495   4.003  -0.705   4.723 -0.5709 -0.9047 -2.9113
  589MOL0     H79496   3.788  -0.767   4.814  0.1611 -0.8562 -0.8460
  589MOL0     H79497   3.201  -0.488   4.823  2.1203 -0.7651 -1.7299
  589MOL0     H79498   2.997  -0.619   4.908  0.4885  0.8506 -0.5436
  589MOL0     H79499   1.528  -0.036   5.388  0.2582  0.5862  0.1202
  589MOL0     H79500   1.286  -0.005   5.296  1.6580  0.2766 -1.1572
  589MOL0     H79501   0.861   0.033   5.295  2.0766 -0.0714 -2.3926
  589MOL0     H79502   0.673   0.041   5.147  3.0278 -2.4265  1.3122
  589MOL0     H79503   0.542   0.056   4.955  1.5526 -0.1072  2.0474
  589MOL0     H79504   0.650   0.122   4.832 -0.4121  1.7628 -0.7692
  589MOL0     H79505   0.431   0.117   4.741 -2.6391 -0.4108  0.4435
  589MOL0     H79506   0.496   0.282   4.748 -0.5439  0.7522  0.4238
  589MOL0     H79507   0.383   0.315   4.969 -1.0884  0.5240 -0.4489
  589MOL0     H79508   0.281   0.166   4.931  0.5431 -0.8066 -1.2574
  589MOL0     H79509   0.275   0.424   4.785 -1.8454  0.0524  0.9423
  589MOL0     H79510   0.195   0.273   4.721 -1.8078 -1.7703  0.4218
  589MOL0     H79511  -0.024   0.368   5.077 -2.1738 -0.4938 -1.7367
  589MOL0     H79512   0.824   0.414   4.993 -0.8284  0.2346 -0.6482
  589MOL0     H79513   1.005   0.510   5.080  2.0387  0.4270 -0.2782
  589MOL0     H79514   1.090   0.456   5.212 -2.9760  0.6856  0.7721
  589MOL0     H79515   1.124   0.380   5.047  0.2041 -1.2456  0.9946
  590MOL0     O79516   1.358   1.579   8.713  0.5097 -0.9015  0.1063
  590MOL0     C79517   1.298   1.549   8.814 -0.2608 -0.1128 -0.0132
  590MOL0     O79518   1.348   1.489   8.917 -0.0673  0.1251 -0.3720
  590MOL0     C79519   1.482   1.482   8.922  0.0520  0.4532 -0.1933
  590MOL0     C79520   1.547   1.395   8.835 -0.5289  0.0519 -0.2874
  590MOL0     C79521   1.685   1.390   8.819 -0.6268  0.3079 -0.0273
  590MOL0     C79522   1.765   1.467   8.906  0.2761 -0.7401  0.2070
  590MOL0     O79523   1.905   1.472   8.899 -0.0309  0.1392 -0.1558
  590MOL0     C79524   1.981   1.393   8.804  1.3823 -0.9617 -0.0017
  590MOL0     C79525   2.123   1.435   8.815  0.5594 -0.3065 -0.5928
  590MOL0     C79526   2.209   1.351   8.728 -0.9893 -0.1784 -0.2509
  590MOL0     C79527   2.285   1.445   8.625  1.2596  0.8656  0.2958
  590MOL0     C79528   2.351   1.356   8.522 -0.1530  0.1524  0.2211
  590MOL0     C79529   2.476   1.418   8.454 -0.0405 -0.3309 -0.8081
  590MOL0     C79530   2.448   1.550   8.389  0.4807  0.9518 -0.1511
  590MOL0     C79531   2.348   1.545   8.259  0.9556 -0.0370 -0.5679
  590MOL0     N79532   2.369   1.437   8.158  0.6693 -0.3450  0.0152
  590MOL0     C79533   2.475   1.418   8.079 -0.0083 -0.5973  0.0050
  590MOL0     C79534   2.437   1.315   8.002  0.9356 -0.7091 -0.0821
  590MOL0     C79535   2.533   1.267   7.896 -0.2727 -0.0326  0.0693
  590MOL0     C79536   2.544   1.116   7.902  0.4809 -0.9643 -0.6076
  590MOL0     C79537   2.615   1.071   8.021 -0.7716 -0.6803 -0.3606
  590MOL0     C79538   2.623   0.916   8.029  0.2545 -0.7051 -0.5996
  590MOL0     O79539   2.705   0.864   7.923 -0.1567 -0.3305 -0.2171
  590MOL0     C79540   2.839   0.856   7.932  0.9140  0.0846  0.2485
  590MOL0     C79541   2.889   0.786   7.826 -0.3728 -0.0032 -0.2161
  590MOL0     C79542   3.027   0.759   7.833  0.5408  0.5435 -0.8318
  590MOL0     C79543   3.110   0.818   7.925  0.5419  0.5067 -0.2425
  590MOL0     C79544   3.262   0.803   7.927  0.2974 -0.4421  0.0295
  590MOL0     O79545   3.299   0.683   7.872 -0.9447  0.2135  0.4499
  590MOL0     C79546   3.434   0.656   7.861  0.8741 -0.3732 -0.2625
  590MOL0     C79547   3.474   0.522   7.862 -0.2510  0.4111 -1.0809
  590MOL0     C79548   3.603   0.475   7.844 -0.2162 -0.1907  0.2639
  590MOL0     C79549   3.708   0.570   7.843  1.1999 -0.7471  0.4123
  590MOL0     O79550   3.832   0.517   7.847 -0.3927  0.0611  0.3908
  590MOL0     C79551   3.944   0.593   7.777  0.3135 -0.8372 -0.1453
  590MOL0     C79552   4.036   0.508   7.696 -0.0086  0.8533  0.9693
  590MOL0     C79553   4.133   0.417   7.786  0.1548 -0.5879  0.2345
  590MOL0     C79554   4.201   0.304   7.706  0.0029  0.2859 -0.2988
  590MOL0     C79555   4.355   0.306   7.711 -0.6208 -0.2362  0.6036
  590MOL0     C79556   4.412   0.429   7.643  0.3005 -0.5932 -0.2082
  590MOL0     C79557   4.563   0.461   7.680  0.3666  0.1470  0.0747
  590MOL0     C79558   4.641   0.567   7.601 -0.6466 -0.4972  0.5317
  590MOL0    Cl79559   4.675   0.528   7.440  0.6309  0.2119 -0.4213
  590MOL0     C79560   3.674   0.702   7.835 -0.3079  0.0607 -0.9214
  590MOL0     C79561   3.537   0.742   7.836 -0.6924  0.6139 -1.2175
  590MOL0     O79562   3.333   0.889   7.978 -1.0019  0.1113 -0.0571
  590MOL0     C79563   3.045   0.882   8.030 -0.0231 -0.3566  0.2311
  590MOL0     C79564   2.911   0.892   8.041  0.0083  0.3634 -0.1930
  590MOL0     N79565   2.313   1.268   8.036 -0.4737 -0.1788 -0.4414
  590MOL0     N79566   2.270   1.345   8.124  0.1074 -0.0392  0.1035
  590MOL0     C79567   1.702   1.556   8.992 -0.2815 -0.2604 -0.6762
  590MOL0     C79568   1.563   1.559   9.005  0.6616  0.2213  0.7628
  590MOL0     C79569   1.152   1.572   8.833 -0.4646 -0.3319 -0.4965
  590MOL0     C79570   1.099   1.585   8.970  0.3232 -0.8316  0.3524
  590MOL0     C79571   0.965   1.596   8.993 -0.0918  0.9927 -0.5147
  590MOL0     C79572   0.875   1.610   8.890 -0.7729  0.0001  0.6290
  590MOL0     O79573   0.740   1.621   8.901 -0.2133 -0.5210 -0.4014
  590MOL0     C79574   0.691   1.686   9.021  0.6490 -0.8432  0.5624
  590MOL0     C79575   0.552   1.738   9.010  0.0640 -0.5791  0.6163
  590MOL0     C79576   0.461   1.617   9.003  0.9813  0.9846  0.2542
  590MOL0     C79577   0.316   1.657   9.020  0.0821 -0.1852  0.0334
  590MOL0     C79578   0.281   1.674   9.160  0.2097  0.4032 -0.2908
  590MOL0     C79579   0.248   1.691   9.276  0.1646 -0.0069  0.4981
  590MOL0     C79580   0.920   1.597   8.759  0.2360 -0.0027  0.2684
  590MOL0     C79581   1.052   1.585   8.727  0.4787  0.5781  0.0870
  590MOL0     C79582   1.103   1.588   8.582 -0.3239 -0.8993  0.9508
  590MOL0     H79583   1.477   1.327   8.789 -0.2891 -0.2180 -0.2546
  590MOL0     H79584   1.728   1.315   8.754  2.1817  1.2612  0.6144
  590MOL0     H79585   1.972   1.292   8.846 -0.9957 -0.3245  1.2099
  590MOL0     H79586   1.939   1.410   8.704  2.4423 -1.1501 -0.4878
  590MOL0     H79587   2.157   1.432   8.919  2.6122  0.1216 -1.2097
  590MOL0     H79588   2.128   1.543   8.797  0.4893  0.4084  2.8901
  590MOL0     H79589   2.139   1.276   8.688 -2.3437  0.7283  0.3438
  590MOL0     H79590   2.285   1.302   8.789 -0.7089 -1.7953 -1.8012
  590MOL0     H79591   2.210   1.505   8.572  2.9257  3.0358  0.2835
  590MOL0     H79592   2.349   1.515   8.679  1.2116 -0.8918  2.8469
  590MOL0     H79593   2.390   1.265   8.568  2.3525  1.5443  1.0437
  590MOL0     H79594   2.273   1.325   8.451 -2.7000  1.0038  2.4766
  590MOL0     H79595   2.562   1.427   8.521 -1.3618  2.2339  0.6880
  590MOL0     H79596   2.516   1.350   8.378  1.4573  1.9369 -2.1852
  590MOL0     H79597   2.544   1.580   8.347  0.4120  1.5505  0.1119
  590MOL0     H79598   2.418   1.624   8.464  0.6099  0.6725  0.1769
  590MOL0     H79599   2.249   1.548   8.306  1.0513  0.9776 -0.4098
  590MOL0     H79600   2.378   1.642   8.217  0.4198  1.2172  1.7815
  590MOL0     H79601   2.560   1.482   8.059 -2.2586  2.3374 -0.7736
  590MOL0     H79602   2.492   1.294   7.799  0.8071 -3.4267 -1.4915
  590MOL0     H79603   2.630   1.318   7.894 -0.7347  0.8376 -0.2984
  590MOL0     H79604   2.448   1.064   7.898 -0.4981  0.7724 -0.6659
  590MOL0     H79605   2.595   1.088   7.809 -1.3061 -0.8555 -1.6666
  590MOL0     H79606   2.570   1.110   8.112 -1.2340  1.8394 -1.5707
  590MOL0     H79607   2.717   1.109   8.009 -0.0993 -2.1295  0.4719
  590MOL0     H79608   2.522   0.875   8.020  0.1533 -0.9671  1.2181
  590MOL0     H79609   2.658   0.882   8.127 -2.3671  0.5071  0.8594
  590MOL0     H79610   2.838   0.727   7.751  0.1374 -2.0471  0.9846
  590MOL0     H79611   3.069   0.692   7.759  2.1590  1.5591 -0.8642
  590MOL0     H79612   3.399   0.445   7.878  1.0509 -0.6516  0.2374
  590MOL0     H79613   3.612   0.367   7.851 -0.1406 -0.2571 -0.7288
  590MOL0     H79614   3.912   0.673   7.710  1.6543  0.5941  0.8479
  590MOL0     H79615   4.005   0.648   7.850 -1.0030  0.1381  0.2639
  590MOL0     H79616   3.970   0.440   7.643  1.0105 -0.6355  1.5506
  590MOL0     H79617   4.093   0.574   7.630  0.9052  0.8492  1.7233
  590MOL0     H79618   4.209   0.482   7.830 -0.6809  0.9088 -0.4375
  590MOL0     H79619   4.079   0.371   7.870  0.0812 -2.7056 -0.9274
  590MOL0     H79620   4.172   0.305   7.600 -0.2345  0.0708 -0.2356
  590MOL0     H79621   4.175   0.204   7.739 -0.9343  0.1915 -1.2638
  590MOL0     H79622   4.397   0.222   7.656 -0.6510 -1.1902  1.9944
  590MOL0     H79623   4.387   0.305   7.815  0.0839 -2.4157  0.4067
  590MOL0     H79624   4.410   0.415   7.534  3.1691 -0.1882 -0.3828
  590MOL0     H79625   4.356   0.520   7.665  0.9917 -0.0751 -0.5392
  590MOL0     H79626   4.620   0.368   7.686  0.2470 -0.0359 -1.3620
  590MOL0     H79627   4.555   0.498   7.783 -1.7696 -0.5590  0.2033
  590MOL0     H79628   4.585   0.661   7.596 -0.3912 -0.1524  3.0247
  590MOL0     H79629   4.735   0.569   7.657  0.0324 -2.4571 -0.4292
  590MOL0     H79630   3.747   0.781   7.819  0.5316  0.6399  4.0496
  590MOL0     H79631   3.509   0.843   7.810  0.0614  2.1736  3.1765
  590MOL0     H79632   3.113   0.934   8.096  1.5760  1.3639 -2.5882
  590MOL0     H79633   2.868   0.939   8.129 -0.6879 -0.0962 -0.2903
  590MOL0     H79634   1.777   1.606   9.052 -0.2827 -2.0576  0.8908
  590MOL0     H79635   1.514   1.629   9.073 -1.1349 -0.4589  0.2243
  590MOL0     H79636   1.160   1.578   9.060  1.4638 -3.3013 -0.5183
  590MOL0     H79637   0.936   1.596   9.098  0.3733 -2.7571 -0.2461
  590MOL0     H79638   0.742   1.779   9.049  0.3915 -1.1052  1.9610
  590MOL0     H79639   0.696   1.614   9.103  0.0041 -2.9605 -1.1598
  590MOL0     H79640   0.540   1.801   8.921  2.4406  0.0980  0.7100
  590MOL0     H79641   0.536   1.802   9.097  0.4831 -1.7351  1.5668
  590MOL0     H79642   0.481   1.541   9.078  0.4604  2.2662  1.7454
  590MOL0     H79643   0.467   1.582   8.900  3.8869  1.8211  0.0324
  590MOL0     H79644   0.298   1.751   8.967  1.9095  0.2927  0.1936
  590MOL0     H79645   0.249   1.582   8.977 -0.0117 -0.4095  0.5632
  590MOL0     H79646   0.226   1.705   9.380  0.7850  0.9726  0.5127
  590MOL0     H79647   0.843   1.606   8.683  0.1570 -2.4202 -0.0122
  590MOL0     H79648   1.139   1.488   8.556  1.2488  0.2609 -1.7693
  590MOL0     H79649   1.025   1.611   8.509  0.0321 -3.7456 -0.4518
  590MOL0     H79650   1.188   1.655   8.570 -0.2548 -1.0506  0.5862
  591MOL0     O79651   7.203   8.505   4.051 -0.8890  0.2052  0.2693
  591MOL0     C79652   7.221   8.528   3.934  0.0212 -0.1243  0.4502
  591MOL0     O79653   7.334   8.598   3.893 -0.5591  0.3065 -0.1631
  591MOL0     C79654   7.430   8.615   3.988 -0.0090  0.9768  0.5668
  591MOL0     C79655   7.440   8.715   4.086  0.0510  0.2740  0.5991
  591MOL0     C79656   7.549   8.719   4.172  0.1921 -0.2931  0.2334
  591MOL0     C79657   7.650   8.628   4.166 -0.7351 -0.0725 -0.4522
  591MOL0     O79658   7.771   8.644   4.240 -0.6942  0.4744 -0.3891
  591MOL0     C79659   7.894   8.609   4.183 -0.2259  0.1297 -0.1813
  591MOL0     C79660   8.001   8.698   4.245  0.3583  0.3232  1.1799
  591MOL0     C79661   8.148   8.653   4.202 -0.8209 -0.9091 -0.2715
  591MOL0     C79662   8.251   8.732   4.279 -0.9038 -0.9748 -0.0328
  591MOL0     C79663   8.382   8.688   4.222 -0.0190  0.0624  0.4876
  591MOL0     C79664   8.439   8.555   4.272  0.7746 -1.3071  0.2347
  591MOL0     C79665   8.591   8.578   4.261  0.1766 -0.8140  0.2885
  591MOL0     C79666   8.668   8.458   4.309  0.0992  0.4094  0.3698
  591MOL0     N79667   8.673   8.428   4.452  0.1719  0.0702 -0.0174
  591MOL0     C79668   8.717   8.518   4.534 -0.1244  0.1532  0.8426
  591MOL0     C79669   8.747   8.436   4.638  0.8152 -1.2719  1.1534
  591MOL0     C79670   8.817   8.484   4.759  0.0303  0.3016  0.6799
  591MOL0     C79671   8.971   8.478   4.744 -0.9230 -0.8784  0.3856
  591MOL0     C79672   9.045   8.537   4.867  0.0884  0.0306 -0.3556
  591MOL0     C79673   9.198   8.559   4.836  0.1559 -0.5237 -0.4995
  591MOL0     O79674   9.277   8.444   4.847  0.2222 -1.0497  0.1728
  591MOL0     C79675   9.404   8.442   4.800 -0.5057  0.3011 -0.5742
  591MOL0     C79676   9.473   8.548   4.732 -0.7131  0.6884 -0.3175
  591MOL0     C79677   9.617   8.543   4.708 -0.3111  0.5502  0.7474
  591MOL0     C79678   9.690   8.431   4.745 -0.0568  0.3211  0.1853
  591MOL0     C79679   9.834   8.417   4.711 -1.1716  0.1236  0.5134
  591MOL0     O79680   9.879   8.520   4.630 -0.0938  0.5376 -0.4510
  591MOL0     C79681  10.010   8.537   4.604 -0.6031  0.4270  0.5026
  591MOL0     C79682  10.051   8.548   4.473 -0.1734  0.6004  0.1329
  591MOL0     C79683  10.191   8.577   4.438  0.1237  0.7047  0.2897
  591MOL0     C79684  10.284   8.599   4.538  0.1392  0.4736  0.0016
  591MOL0     O79685  10.406   8.636   4.501  0.3221 -0.1106 -0.5289
  591MOL0     C79686  10.471   8.733   4.585  0.4803 -0.0415  0.0037
  591MOL0     C79687  10.590   8.786   4.511 -0.7579 -0.8412 -0.2402
  591MOL0     C79688  10.697   8.670   4.467 -0.1895 -0.1169  0.2463
  591MOL0     C79689  10.829   8.726   4.415 -0.2011  0.0481  0.9681
  591MOL0     C79690  10.927   8.615   4.390 -0.2274 -0.0535 -0.2434
  591MOL0     C79691  10.983   8.533   4.502  0.1573  0.3214 -0.3631
  591MOL0     C79692  11.097   8.438   4.454 -0.9412 -0.1925 -0.3212
  591MOL0     C79693  11.179   8.387   4.574 -0.1700 -0.4016  0.0024
  591MOL0    Cl79694  11.285   8.237   4.541  0.1677  0.1310 -0.2728
  591MOL0     C79695  10.234   8.578   4.664  0.0166 -0.1036  0.4769
  591MOL0     C79696  10.104   8.562   4.704 -0.3056  0.1521  0.9952
  591MOL0     O79697   9.896   8.317   4.738  0.0130 -0.0692  0.2290
  591MOL0     C79698   9.620   8.326   4.803 -0.1174 -1.0014 -0.7359
  591MOL0     C79699   9.481   8.330   4.833 -0.9002 -0.0453  0.9140
  591MOL0     N79700   8.716   8.302   4.623  0.0122 -0.4276 -0.4111
  591MOL0     N79701   8.665   8.297   4.499  0.8875 -0.4274 -0.8245
  591MOL0     C79702   7.635   8.518   4.082 -0.8105 -0.1596  0.1748
  591MOL0     C79703   7.531   8.524   3.988 -1.1393  0.3292  1.0499
  591MOL0     C79704   7.117   8.484   3.832  0.2303 -0.5465  0.2726
  591MOL0     C79705   7.126   8.534   3.705 -1.1087 -0.0202  1.0869
  591MOL0     C79706   7.020   8.519   3.614 -1.2232 -0.2777 -0.0665
  591MOL0     C79707   6.903   8.443   3.642  0.4584  0.1728 -0.5330
  591MOL0     O79708   6.796   8.427   3.561 -0.4366 -0.0984  0.5832
  591MOL0     C79709   6.774   8.530   3.466  0.6719 -0.9111 -0.0854
  591MOL0     C79710   6.632   8.510   3.412  0.0690  0.3456 -1.0758
  591MOL0     C79711   6.570   8.628   3.331 -0.4006  0.2665 -0.2256
  591MOL0     C79712   6.559   8.758   3.407  0.5519 -0.1088  0.3921
  591MOL0     C79713   6.447   8.846   3.377 -0.3621 -0.2020 -0.3608
  591MOL0     C79714   6.350   8.926   3.387 -0.6130 -1.1258  0.5699
  591MOL0     C79715   6.894   8.399   3.775  0.4579 -0.5136 -0.4163
  591MOL0     C79716   6.998   8.416   3.863 -0.1840 -0.1088 -0.0299
  591MOL0     C79717   6.969   8.349   4.002  0.2444 -0.3179  0.2274
  591MOL0     H79718   7.370   8.798   4.090 -1.3770 -0.7836 -0.9723
  591MOL0     H79719   7.552   8.793   4.251 -5.5276 -2.2639  2.7902
  591MOL0     H79720   7.911   8.502   4.203 -0.8482 -0.3375 -1.9641
  591MOL0     H79721   7.886   8.618   4.075  1.0399  0.2389 -0.2728
  591MOL0     H79722   7.989   8.685   4.353 -0.8425  1.5214  1.2207
  591MOL0     H79723   7.985   8.802   4.215  1.7141  0.4210  0.7331
  591MOL0     H79724   8.161   8.671   4.095  1.4296 -0.2457  0.0530
  591MOL0     H79725   8.156   8.549   4.237 -2.3745 -0.1340  2.7949
  591MOL0     H79726   8.221   8.834   4.254 -2.9378 -1.6407 -0.5394
  591MOL0     H79727   8.239   8.704   4.385 -4.0463  0.0863  0.0086
  591MOL0     H79728   8.384   8.691   4.113 -0.4913  0.1627  0.4797
  591MOL0     H79729   8.450   8.763   4.264  0.4272 -0.6465  1.0634
  591MOL0     H79730   8.395   8.532   4.369 -0.7042 -4.5349 -1.0834
  591MOL0     H79731   8.413   8.478   4.198 -0.8202 -0.5802 -0.0013
  591MOL0     H79732   8.623   8.663   4.322  0.3927 -0.2946 -0.5343
  591MOL0     H79733   8.629   8.594   4.160  0.4612  1.2312  0.6755
  591MOL0     H79734   8.626   8.370   4.260  1.3840  0.5997 -1.1544
  591MOL0     H79735   8.771   8.472   4.276  0.2683 -0.1775  0.6372
  591MOL0     H79736   8.728   8.625   4.518  1.2424 -0.0202  0.5247
  591MOL0     H79737   8.792   8.590   4.771  1.7717  0.7100  0.9577
  591MOL0     H79738   8.773   8.427   4.841  0.7003 -1.4692 -0.1488
  591MOL0     H79739   9.000   8.374   4.728  0.3699 -0.5700  0.6466
  591MOL0     H79740   9.009   8.528   4.655  0.2262 -0.9099  0.8518
  591MOL0     H79741   9.030   8.464   4.948  0.1302 -1.4384 -1.6236
  591MOL0     H79742   9.009   8.636   4.893  2.0582  0.9704 -1.0116
  591MOL0     H79743   9.234   8.637   4.904 -0.0730  1.0279 -2.0848
  591MOL0     H79744   9.202   8.599   4.734  1.7894 -0.6271 -0.4926
  591MOL0     H79745   9.427   8.642   4.705 -0.1077  1.3141  0.7475
  591MOL0     H79746   9.675   8.624   4.664  0.7675  1.7030  3.9871
  591MOL0     H79747   9.988   8.528   4.386  0.3973 -1.5753  0.1638
  591MOL0     H79748  10.217   8.576   4.333 -2.4682  3.1372 -0.4940
  591MOL0     H79749  10.396   8.813   4.584  0.2898 -0.1763 -2.3017
  591MOL0     H79750  10.499   8.692   4.683  1.9639  0.3676 -0.2308
  591MOL0     H79751  10.568   8.848   4.423 -2.9776 -1.3629 -0.1049
  591MOL0     H79752  10.642   8.852   4.580  0.5028 -1.7395 -0.2916
  591MOL0     H79753  10.708   8.609   4.557 -0.8142  0.7621  0.9286
  591MOL0     H79754  10.650   8.616   4.385  0.5950  2.4834 -2.0820
  591MOL0     H79755  10.873   8.801   4.482  1.2642  0.2743 -0.2045
  591MOL0     H79756  10.809   8.784   4.325  0.1041 -0.5112  0.5407
  591MOL0     H79757  11.014   8.665   4.346  0.3299  0.2877  1.1989
  591MOL0     H79758  10.883   8.538   4.325 -1.9985 -1.2320  2.2004
  591MOL0     H79759  11.024   8.602   4.575  0.6254 -0.1127 -0.2078
  591MOL0     H79760  10.897   8.485   4.550 -0.5081  0.4170 -1.4044
  591MOL0     H79761  11.166   8.483   4.382  1.1844 -1.7149  0.6586
  591MOL0     H79762  11.061   8.352   4.395  0.7027  0.2503 -2.0737
  591MOL0     H79763  11.238   8.471   4.612  1.1677 -1.2464 -0.1494
  591MOL0     H79764  11.117   8.354   4.658  1.2040  2.7734  2.5066
  591MOL0     H79765  10.300   8.606   4.746  1.0339 -1.0414 -0.0055
  591MOL0     H79766  10.077   8.572   4.809 -1.3048 -0.8996  0.8624
  591MOL0     H79767   9.671   8.242   4.849  1.3101  1.3873  2.4629
  591MOL0     H79768   9.433   8.252   4.891  0.4795 -0.0112  2.1677
  591MOL0     H79769   7.718   8.451   4.060 -0.7737  0.2670 -1.0700
  591MOL0     H79770   7.506   8.438   3.926 -1.9930  1.0468  0.3803
  591MOL0     H79771   7.208   8.597   3.672 -1.9316 -0.1008 -1.3682
  591MOL0     H79772   7.026   8.574   3.521 -1.3011  2.2981  1.3823
  591MOL0     H79773   6.851   8.532   3.387  0.0522 -1.3371 -0.7131
  591MOL0     H79774   6.777   8.624   3.521  2.1061 -0.7789 -0.3556
  591MOL0     H79775   6.566   8.493   3.498  2.9804  1.6897  1.6156
  591MOL0     H79776   6.626   8.426   3.342 -5.2383 -0.4495 -0.1150
  591MOL0     H79777   6.471   8.587   3.307  0.6434 -0.8309 -3.0986
  591MOL0     H79778   6.614   8.643   3.232 -1.6516 -2.7634 -1.3792
  591MOL0     H79779   6.550   8.738   3.514 -2.1718  1.8856  0.6498
  591MOL0     H79780   6.649   8.816   3.382 -0.9182  2.1189 -0.0808
  591MOL0     H79781   6.262   8.987   3.392 -0.6734 -1.3414  3.3618
  591MOL0     H79782   6.798   8.358   3.806  0.4238  2.2279  4.1679
  591MOL0     H79783   6.927   8.419   4.076  0.2855 -0.9221  0.8387
  591MOL0     H79784   6.894   8.271   3.988  1.8480 -1.8411 -0.1996
  591MOL0     H79785   7.064   8.304   4.030 -0.4963 -0.4898  2.7117
  592MOL0     O79786  11.140  10.374   8.375 -0.8959  0.1393 -0.5438
  592MOL0     C79787  11.129  10.477   8.445  0.8337 -0.8117 -0.3524
  592MOL0     O79788  11.232  10.543   8.500 -0.1540  0.1435 -0.1444
  592MOL0     C79789  11.356  10.475   8.489 -0.1571  0.1576  0.9249
  592MOL0     C79790  11.396  10.366   8.571 -0.7252  0.3780  0.1359
  592MOL0     C79791  11.536  10.317   8.578  0.8635 -0.0945 -0.3673
  592MOL0     C79792  11.625  10.400   8.505 -1.2091 -0.3298 -0.4587
  592MOL0     O79793  11.757  10.361   8.498  0.4658  0.4758 -0.8261
  592MOL0     C79794  11.851  10.414   8.599  0.2163 -0.3530  0.2068
  592MOL0     C79795  11.988  10.398   8.548  0.3923 -0.6314 -0.4745
  592MOL0     C79796  12.033  10.515   8.466  0.1859  0.0502 -0.6234
  592MOL0     C79797  12.170  10.489   8.405  0.2467 -0.6356 -1.3250
  592MOL0     C79798  12.287  10.526   8.491  0.0064  0.8273 -0.6993
  592MOL0     C79799  12.421  10.481   8.435 -0.6085  0.6266 -0.6489
  592MOL0     C79800  12.523  10.544   8.523  0.2576 -0.6147 -0.1395
  592MOL0     C79801  12.669  10.534   8.484  0.7726 -0.2908  0.4012
  592MOL0     N79802  12.716  10.624   8.384  1.0304  0.1945 -0.1819
  592MOL0     C79803  12.715  10.607   8.245 -0.3789  0.2477  0.7213
  592MOL0     C79804  12.821  10.679   8.202  0.5719 -0.6737 -0.3940
  592MOL0     C79805  12.870  10.698   8.053 -0.2214  0.0625 -0.1639
  592MOL0     C79806  13.025  10.700   8.055  0.6059  0.2644 -0.0081
  592MOL0     C79807  13.084  10.698   7.921 -1.2281  0.2237 -0.0756
  592MOL0     C79808  13.076  10.835   7.856  0.5542 -0.5666  0.2349
  592MOL0     O79809  13.117  10.845   7.715  0.2775  0.4576  0.0606
  592MOL0     C79810  13.248  10.828   7.678 -0.4632 -0.0340  0.3002
  592MOL0     C79811  13.356  10.827   7.761  0.2324  0.4830  0.2546
  592MOL0     C79812  13.490  10.821   7.707  0.0451  0.2614 -0.3620
  592MOL0     C79813  13.514  10.789   7.563  0.8179 -0.2676 -0.2925
  592MOL0     C79814  13.650  10.784   7.505  0.2235  0.3939 -0.1909
  592MOL0     O79815  13.671  10.729   7.383 -0.0087 -0.5993  0.7709
  592MOL0     C79816  13.802  10.734   7.341  0.3003 -0.2206 -0.4295
  592MOL0     C79817  13.838  10.835   7.261 -0.1433 -0.3558  0.3597
  592MOL0     C79818  13.971  10.850   7.220 -0.0477 -0.3888 -0.0605
  592MOL0     C79819  14.060  10.747   7.251  0.2398 -0.0974 -0.0741
  592MOL0     O79820  14.191  10.752   7.212  0.7547  0.3815 -1.2013
  592MOL0     C79821  14.261  10.865   7.258 -0.0504  0.7261  0.3699
  592MOL0     C79822  14.385  10.889   7.174  0.2160 -0.3631 -0.2765
  592MOL0     C79823  14.356  10.965   7.042  0.0351  0.1377  0.7766
  592MOL0     C79824  14.484  10.986   6.956 -0.4670  1.1739  0.0707
  592MOL0     C79825  14.470  11.047   6.812  0.1746  0.0571 -0.1163
  592MOL0     C79826  14.424  11.194   6.828 -0.3563 -0.9673 -0.1968
  592MOL0     C79827  14.418  11.250   6.694 -0.7840  0.2113  0.3427
  592MOL0     C79828  14.372  11.396   6.704  0.1759 -0.5158 -0.3388
  592MOL0    Cl79829  14.361  11.461   6.542 -0.1897  0.2286  0.0831
  592MOL0     C79830  14.017  10.634   7.313  0.0734 -0.6725  0.2582
  592MOL0     C79831  13.894  10.633   7.368  0.6125 -0.5912 -0.3143
  592MOL0     O79832  13.743  10.821   7.573  0.4788  0.1069  0.0693
  592MOL0     C79833  13.401  10.781   7.479  0.0572  0.1563  0.0598
  592MOL0     C79834  13.272  10.807   7.534  0.1398 -0.2136 -0.2145
  592MOL0     N79835  12.879  10.751   8.312  0.0341  0.2891  0.8431
  592MOL0     N79836  12.808  10.725   8.414 -0.4617 -0.0885 -0.3269
  592MOL0     C79837  11.586  10.503   8.420 -0.1794  0.1991  0.1350
  592MOL0     C79838  11.455  10.540   8.411  0.0013  0.3256 -0.0367
  592MOL0     C79839  10.992  10.527   8.484  0.8704  0.1446  0.5587
  592MOL0     C79840  10.983  10.625   8.578 -0.2304  0.5785  0.5008
  592MOL0     C79841  10.867  10.709   8.600  0.1926  0.4500 -0.4436
  592MOL0     C79842  10.751  10.675   8.527  0.9499 -0.2752  0.5002
  592MOL0     O79843  10.644  10.758   8.533  0.4773 -0.4261 -0.2508
  592MOL0     C79844  10.545  10.696   8.623 -0.2919  0.2206 -0.1870
  592MOL0     C79845  10.433  10.641   8.534 -0.5714  0.1873 -0.0125
  592MOL0     C79846  10.402  10.721   8.406 -0.3328  0.2311  0.5418
  592MOL0     C79847  10.275  10.680   8.337 -0.2451  0.3786  0.3858
  592MOL0     C79848  10.161  10.713   8.429  0.0619 -0.6841  0.1485
  592MOL0     C79849  10.080  10.736   8.520  0.2249 -0.2652  0.5273
  592MOL0     C79850  10.753  10.577   8.434  0.2228 -0.8558  0.3225
  592MOL0     C79851  10.872  10.507   8.414  0.0550  0.2811  0.1310
  592MOL0     C79852  10.871  10.409   8.294  0.8354 -0.2658  0.3523
  592MOL0     H79853  11.318  10.313   8.624 -0.2308  1.1291  1.6921
  592MOL0     H79854  11.568  10.230   8.634  0.1961  0.6023  1.1577
  592MOL0     H79855  11.820  10.516   8.622 -2.1893 -0.2706 -2.7432
  592MOL0     H79856  11.831  10.361   8.692 -3.9780  3.7099  2.0326
  592MOL0     H79857  12.013  10.310   8.487  2.4630 -0.6976  0.3649
  592MOL0     H79858  12.052  10.392   8.637 -0.2880  0.2583  0.0893
  592MOL0     H79859  12.037  10.605   8.527  0.0921 -0.4613  0.1527
  592MOL0     H79860  11.960  10.540   8.389  1.5870  0.0813 -1.9807
  592MOL0     H79861  12.176  10.384   8.376  1.7474 -0.6236 -1.1402
  592MOL0     H79862  12.182  10.550   8.315  2.2266 -0.1190 -0.7584
  592MOL0     H79863  12.288  10.634   8.510 -0.7568  0.2234  3.7991
  592MOL0     H79864  12.271  10.483   8.590  2.3064  1.5675  0.0584
  592MOL0     H79865  12.427  10.373   8.443 -4.0003  0.4246  0.4070
  592MOL0     H79866  12.432  10.531   8.339  2.1621  0.8747 -0.2797
  592MOL0     H79867  12.506  10.509   8.625 -1.6193  1.5639  0.3791
  592MOL0     H79868  12.512  10.652   8.524 -1.7991 -0.7642 -1.0563
  592MOL0     H79869  12.737  10.548   8.569  0.1839  1.2286  0.6512
  592MOL0     H79870  12.685  10.437   8.435 -0.1772 -0.1906 -0.1174
  592MOL0     H79871  12.658  10.535   8.186 -0.6416  3.9070 -4.1696
  592MOL0     H79872  12.821  10.628   7.985 -0.0534  0.1868 -0.4138
  592MOL0     H79873  12.836  10.796   8.018  0.2284  0.3575  0.2100
  592MOL0     H79874  13.071  10.780   8.113 -0.4528  1.0647 -0.2249
  592MOL0     H79875  13.053  10.606   8.104 -2.7509 -0.9338 -0.1080
  592MOL0     H79876  13.050  10.623   7.849  0.5023  1.9061 -2.8541
  592MOL0     H79877  13.189  10.674   7.944 -1.7769  0.7917  3.4846
  592MOL0     H79878  13.120  10.922   7.905  0.9582  0.5268 -1.9494
  592MOL0     H79879  12.970  10.857   7.864  0.4372 -0.7780 -0.6317
  592MOL0     H79880  13.350  10.852   7.867 -0.3182  0.7547  0.1653
  592MOL0     H79881  13.582  10.835   7.762  1.7084 -0.6278 -2.7264
  592MOL0     H79882  13.761  10.910   7.247  0.8874  0.3640 -1.8630
  592MOL0     H79883  14.008  10.928   7.155  1.3820 -0.4282  0.6783
  592MOL0     H79884  14.197  10.953   7.263  1.1821  1.6425  0.7468
  592MOL0     H79885  14.302  10.844   7.357  4.0217  4.6544 -0.1808
  592MOL0     H79886  14.452  10.958   7.227 -1.5361  1.2936 -0.0940
  592MOL0     H79887  14.439  10.796   7.156  2.9700  1.0211  0.1347
  592MOL0     H79888  14.296  10.896   6.982  0.4114 -1.6579  2.3504
  592MOL0     H79889  14.310  11.061   7.067  0.1431 -0.1288  2.0831
  592MOL0     H79890  14.530  10.888   6.938  4.6143  3.3405 -0.3372
  592MOL0     H79891  14.557  11.039   7.018 -0.5468 -0.1828  1.3937
  592MOL0     H79892  14.387  10.997   6.761  0.7135  0.2742 -1.2317
  592MOL0     H79893  14.564  11.037   6.759  0.4285  0.7868  0.1898
  592MOL0     H79894  14.329  11.198   6.882 -0.5799 -1.8614 -0.5203
  592MOL0     H79895  14.498  11.244   6.893 -1.3304  0.5345 -0.1814
  592MOL0     H79896  14.340  11.197   6.638  0.7496  0.5092 -2.2488
  592MOL0     H79897  14.512  11.248   6.638 -1.8461  0.5361 -1.5398
  592MOL0     H79898  14.279  11.397   6.761  0.7043 -1.8581  0.5997
  592MOL0     H79899  14.435  11.459   6.768 -1.9652  1.4056 -0.0132
  592MOL0     H79900  14.090  10.555   7.325  0.8927  0.3974  3.2952
  592MOL0     H79901  13.856  10.548   7.425 -2.6732  1.7329  1.3083
  592MOL0     H79902  13.401  10.760   7.373  0.1896 -1.8466  0.4298
  592MOL0     H79903  13.191  10.810   7.462 -0.1230 -0.1535  0.0815
  592MOL0     H79904  11.668  10.548   8.364 -0.1300  1.0022  0.8462
  592MOL0     H79905  11.427  10.629   8.356  0.9821 -0.5882 -2.1025
  592MOL0     H79906  11.068  10.658   8.637 -1.7863 -1.1599  4.0586
  592MOL0     H79907  10.862  10.796   8.665 -1.3457 -0.6722  0.9868
  592MOL0     H79908  10.505  10.770   8.693 -0.4948  1.8904 -1.9851
  592MOL0     H79909  10.592  10.615   8.680 -0.5898 -2.1678 -3.0559
  592MOL0     H79910  10.343  10.629   8.595 -0.3497 -3.5922 -0.1848
  592MOL0     H79911  10.461  10.541   8.499 -1.9831 -0.7145  1.3259
  592MOL0     H79912  10.477  10.702   8.329 -1.0180  1.4908 -0.4700
  592MOL0     H79913  10.412  10.829   8.419  1.7341  0.0441  0.8533
  592MOL0     H79914  10.259  10.733   8.242 -2.8986  1.2241  1.2025
  592MOL0     H79915  10.276  10.573   8.312  1.3037  0.5591 -0.4796
  592MOL0     H79916  10.007  10.762   8.594  0.5992  2.6924 -0.0300
  592MOL0     H79917  10.661  10.566   8.377  0.6698 -0.6515 -0.4583
  592MOL0     H79918  10.767  10.387   8.270  0.4098  1.2941  0.6134
  592MOL0     H79919  10.928  10.444   8.208  1.1347  2.0742  1.4168
  592MOL0     H79920  10.913  10.313   8.325 -0.3924 -1.0928 -0.4999
  593MOL0     O79921   9.164   2.392   9.772  0.5589 -0.7508  0.0422
  593MOL0     C79922   9.106   2.305   9.839 -0.3418 -0.3218 -0.7174
  593MOL0     O79923   9.168   2.198   9.898  0.2493  0.4818 -0.7497
  593MOL0     C79924   9.295   2.183   9.858  0.4302 -0.4658  0.6546
  593MOL0     C79925   9.386   2.200   9.954 -0.1588  0.3208 -0.2174
  593MOL0     C79926   9.523   2.157   9.935 -0.2444 -0.0093 -0.0379
  593MOL0     C79927   9.552   2.102   9.801 -0.4840 -0.6416  0.5632
  593MOL0     O79928   9.669   2.043   9.776 -0.3465 -0.3383 -0.1637
  593MOL0     C79929   9.757   2.105   9.685 -0.5967  0.9062 -1.2787
  593MOL0     C79930   9.901   2.062   9.721 -0.1026 -0.4251 -0.3233
  593MOL0     C79931  10.006   2.142   9.645 -0.0820 -0.5996  0.1647
  593MOL0     C79932  10.150   2.076   9.668  0.1203  0.7644 -0.2001
  593MOL0     C79933  10.263   2.166   9.603 -0.3623  0.4458 -0.4231
  593MOL0     C79934  10.399   2.131   9.654 -0.8653 -0.1683 -0.1177
  593MOL0     C79935  10.524   2.193   9.586  0.2338  0.1152  0.6087
  593MOL0     C79936  10.571   2.094   9.478 -0.1122 -0.3295 -0.0269
  593MOL0     N79937  10.700   2.129   9.417  0.0160 -0.2249 -0.0181
  593MOL0     C79938  10.824   2.135   9.478  0.8979 -0.4088 -0.1372
  593MOL0     C79939  10.920   2.140   9.374  0.2429 -0.6583 -0.4021
  593MOL0     C79940  11.065   2.154   9.387 -0.1316 -0.0085  0.2035
  593MOL0     C79941  11.133   2.036   9.456  0.0374 -0.2420 -0.7408
  593MOL0     C79942  11.288   2.047   9.461  0.8855 -0.0335 -0.5769
  593MOL0     C79943  11.349   2.065   9.326 -0.3229  0.1234 -0.3497
  593MOL0     O79944  11.489   2.060   9.343 -0.8588 -0.7777  0.4372
  593MOL0     C79945  11.571   2.069   9.240 -0.6010 -0.0010  0.4668
  593MOL0     C79946  11.700   2.035   9.273  0.4374 -0.5433  0.4256
  593MOL0     C79947  11.807   2.044   9.180  0.7058  0.0626 -0.2019
  593MOL0     C79948  11.788   2.105   9.054  0.4539  1.3464 -0.1990
  593MOL0     C79949  11.902   2.110   8.959  0.4450  0.7184  0.2734
  593MOL0     O79950  12.023   2.058   8.991  0.0637  0.3119 -0.4260
  593MOL0     C79951  12.128   2.060   8.908 -0.3643  0.5867  0.2886
  593MOL0     C79952  12.238   1.991   8.961 -0.5930 -0.0479 -0.7181
  593MOL0     C79953  12.354   1.975   8.886 -0.4270 -0.1284  0.3325
  593MOL0     C79954  12.371   2.036   8.758 -0.2054 -0.1497 -0.4024
  593MOL0     O79955  12.482   2.040   8.681 -0.5256 -0.1872 -0.0483
  593MOL0     C79956  12.533   1.921   8.617 -0.1758 -0.1363 -0.4894
  593MOL0     C79957  12.651   1.947   8.528  0.5909  0.0857 -0.1871
  593MOL0     C79958  12.608   2.027   8.399 -0.2683 -0.4350  0.4080
  593MOL0     C79959  12.727   2.100   8.321 -0.7460  0.0664  0.2260
  593MOL0     C79960  12.794   2.211   8.402 -1.3511 -0.1279 -0.2480
  593MOL0     C79961  12.918   2.262   8.337  0.7677 -0.2688  1.3019
  593MOL0     C79962  13.041   2.181   8.367  0.0303  0.1239 -0.2220
  593MOL0     C79963  13.093   2.204   8.507 -0.1982  0.4124 -0.8974
  593MOL0    Cl79964  13.168   2.356   8.538 -0.1249 -0.4346  0.1857
  593MOL0     C79965  12.258   2.098   8.709  1.1387  0.3295 -0.5670
  593MOL0     C79966  12.134   2.111   8.771 -0.2316 -0.3774  0.5034
  593MOL0     O79967  11.866   2.153   8.848 -0.4389 -0.0356  0.2630
  593MOL0     C79968  11.651   2.130   9.021 -0.1902 -0.9535  0.0965
  593MOL0     C79969  11.549   2.109   9.106  0.8183  0.5980 -0.3257
  593MOL0     N79970  10.848   2.158   9.258  0.1711  0.4941 -0.3011
  593MOL0     N79971  10.719   2.152   9.286  0.5832 -0.2624  0.4573
  593MOL0     C79972   9.457   2.084   9.707  0.2100  0.9770  0.1268
  593MOL0     C79973   9.326   2.120   9.736  0.3225  0.9921  0.2874
  593MOL0     C79974   8.956   2.312   9.868 -0.6465  0.8710  0.7090
  593MOL0     C79975   8.899   2.220   9.960  0.8510 -0.5856  0.4638
  593MOL0     C79976   8.764   2.236   9.993  0.2612 -0.0241 -0.4923
  593MOL0     C79977   8.678   2.324   9.925  0.2774 -0.4194  0.2889
  593MOL0     O79978   8.542   2.313   9.950 -0.6580  0.3281 -0.2422
  593MOL0     C79979   8.446   2.396   9.891 -0.3734  0.7362 -0.0390
  593MOL0     C79980   8.309   2.359   9.943 -0.1219 -0.6488 -0.6814
  593MOL0     C79981   8.258   2.218   9.935  0.7103  0.2647 -0.6807
  593MOL0     C79982   8.263   2.158   9.800 -0.5509 -0.8402  0.2744
  593MOL0     C79983   8.195   2.034   9.804  0.3803  0.2851 -0.1314
  593MOL0     C79984   8.163   1.918   9.807  0.1665 -0.7242 -0.0367
  593MOL0     C79985   8.729   2.405   9.823  0.1641 -0.4832 -0.4320
  593MOL0     C79986   8.866   2.399   9.795  0.2338  0.1586  0.2231
  593MOL0     C79987   8.909   2.495   9.689 -0.1827 -0.7459 -0.3316
  593MOL0     H79988   9.357   2.249  10.046  2.4428  3.3040 -0.8162
  593MOL0     H79989   9.595   2.174  10.014 -2.1814  0.1107  1.7756
  593MOL0     H79990   9.741   2.076   9.580 -0.8019  0.5461 -1.1518
  593MOL0     H79991   9.742   2.213   9.689 -0.0028  1.0136  3.0454
  593MOL0     H79992   9.915   1.955   9.702  0.5602 -0.2485 -0.8470
  593MOL0     H79993   9.918   2.079   9.828 -0.6306  2.2354 -0.5918
  593MOL0     H79994  10.005   2.245   9.681 -0.5304 -0.6163  0.2093
  593MOL0     H79995   9.974   2.143   9.541  3.3690  0.0591 -1.0120
  593MOL0     H79996  10.165   2.069   9.776 -4.3846  1.4013  0.6615
  593MOL0     H79997  10.164   1.972   9.640 -1.1139  0.1158  1.3904
  593MOL0     H79998  10.264   2.171   9.494 -2.8766  1.4410 -0.4702
  593MOL0     H79999  10.242   2.268   9.637 -3.1740 -0.7103  1.7256
  593MOL0     H80000  10.402   2.161   9.759 -0.6226  1.9026 -0.6673
  593MOL0     H80001  10.407   2.022   9.665  1.3881 -0.0983 -0.5589
  593MOL0     H80002  10.606   2.220   9.653 -0.1170  1.6249  0.4677
  593MOL0     H80003  10.496   2.283   9.531 -0.5105  0.3647  1.3792
  593MOL0     H80004  10.577   1.991   9.514 -0.1910  0.1816  1.5428
  593MOL0     H80005  10.499   2.083   9.396 -0.1808 -0.7615  0.0887
  593MOL0     H80006  10.842   2.127   9.584 -1.0417 -0.3030  0.2338
  593MOL0     H80007  11.102   2.171   9.286 -1.0952  1.6679  0.0948
  593MOL0     H80008  11.088   2.246   9.441  0.4755 -1.0226  1.7649
  593MOL0     H80009  11.085   2.040   9.555 -0.7995  0.5371 -1.1642
  593MOL0     H80010  11.097   1.940   9.417 -0.2337 -0.6936  0.5768
  593MOL0     H80011  11.327   1.951   9.496  0.3680  0.2428  0.8218
  593MOL0     H80012  11.320   2.125   9.532 -0.7511  0.0050  0.1644
  593MOL0     H80013  11.318   2.160   9.282 -0.7951  0.9408  1.6234
  593MOL0     H80014  11.303   1.986   9.266 -1.1793 -1.2330  1.9547
  593MOL0     H80015  11.725   2.006   9.375 -1.5492  0.7709  1.3632
  593MOL0     H80016  11.903   2.002   9.209  0.0695 -0.0309  1.9171
  593MOL0     H80017  12.231   1.949   9.061 -1.6295  0.3336 -0.6290
  593MOL0     H80018  12.440   1.923   8.927 -1.5632 -1.1031  1.5866
  593MOL0     H80019  12.559   1.853   8.698 -0.9775  0.7557  0.5418
  593MOL0     H80020  12.454   1.874   8.559 -1.5157 -2.6563  3.0534
  593MOL0     H80021  12.723   1.997   8.594  0.3709  0.7394 -0.4265
  593MOL0     H80022  12.703   1.854   8.504  1.1409 -0.2375  2.0472
  593MOL0     H80023  12.552   1.959   8.334 -0.3524 -0.4619  0.5081
  593MOL0     H80024  12.537   2.106   8.425  1.7269  1.9820 -1.0781
  593MOL0     H80025  12.683   2.137   8.228 -0.5124  1.3678  0.6106
  593MOL0     H80026  12.797   2.025   8.282  1.2409  1.2357  1.4069
  593MOL0     H80027  12.811   2.172   8.503  2.2393 -3.1041 -1.7626
  593MOL0     H80028  12.731   2.298   8.421 -0.4522  0.2557  1.1073
  593MOL0     H80029  12.893   2.262   8.230 -0.3399 -0.3519  1.5440
  593MOL0     H80030  12.934   2.370   8.352  2.0161  0.2332 -2.5605
  593MOL0     H80031  13.112   2.203   8.287  1.3950  1.9995  1.4158
  593MOL0     H80032  13.012   2.077   8.349 -1.7236  0.5518 -0.1298
  593MOL0     H80033  13.019   2.193   8.588  0.3944 -5.2544 -0.7437
  593MOL0     H80034  13.170   2.129   8.529 -1.4582 -0.5236  0.5563
  593MOL0     H80035  12.267   2.137   8.608  1.3673 -0.1283 -0.7302
  593MOL0     H80036  12.062   2.174   8.720 -0.6059 -1.7125 -0.6834
  593MOL0     H80037  11.619   2.181   8.931 -2.1887 -1.3448  0.5432
  593MOL0     H80038  11.450   2.150   9.088  0.4765  0.5713  1.2843
  593MOL0     H80039   9.486   2.036   9.614 -1.0857  3.6609 -1.7925
  593MOL0     H80040   9.251   2.093   9.662  0.8093 -1.6295  0.6599
  593MOL0     H80041   8.964   2.146  10.004  0.1072 -2.7996 -1.8796
  593MOL0     H80042   8.719   2.176  10.072 -1.3360 -0.8636 -1.9532
  593MOL0     H80043   8.454   2.387   9.782  1.0158  2.0869 -0.0837
  593MOL0     H80044   8.460   2.501   9.918  0.7611  0.5213  0.2488
  593MOL0     H80045   8.244   2.427   9.888  1.3462 -0.9401 -2.8941
  593MOL0     H80046   8.295   2.389  10.047 -0.1561  1.7876 -1.3473
  593MOL0     H80047   8.152   2.216   9.960  1.2102 -0.2586  1.5557
  593MOL0     H80048   8.307   2.144   9.998  2.9539  0.8500 -1.6400
  593MOL0     H80049   8.220   2.222   9.723 -0.9095 -2.1916 -0.6747
  593MOL0     H80050   8.368   2.145   9.772 -0.5557 -1.2203  0.4315
  593MOL0     H80051   8.119   1.821   9.798 -0.1316 -0.6592  0.6238
  593MOL0     H80052   8.669   2.481   9.773 -0.1176  0.5292  1.3423
  593MOL0     H80053   8.824   2.533   9.633 -1.2378  0.7575  2.1296
  593MOL0     H80054   8.959   2.579   9.739 -2.7601 -0.3707  1.8251
  593MOL0     H80055   8.981   2.454   9.617  2.0957 -0.8516  1.8563
  594MOL0     O80056   8.651   6.442   4.483 -1.2664 -0.2661 -0.3313
  594MOL0     C80057   8.596   6.470   4.376 -0.3517  0.1766 -0.2633
  594MOL0     O80058   8.638   6.433   4.249 -0.0818  0.3067 -0.1005
  594MOL0     C80059   8.726   6.330   4.246 -0.0483 -0.5869 -0.3989
  594MOL0     C80060   8.861   6.354   4.206 -0.1592 -0.3873 -0.4507
  594MOL0     C80061   8.951   6.244   4.201  0.6202 -0.0830 -0.2192
  594MOL0     C80062   8.906   6.109   4.215  0.8071 -0.6080 -0.5805
  594MOL0     O80063   8.985   5.996   4.219  0.3572 -0.0513 -1.0549
  594MOL0     C80064   9.131   6.022   4.214  0.1935  0.7638 -0.1369
  594MOL0     C80065   9.206   5.888   4.256 -0.0661  0.0982  0.7268
  594MOL0     C80066   9.352   5.890   4.219 -0.0381 -0.1208  0.1396
  594MOL0     C80067   9.437   5.972   4.318 -0.2002  0.0637  0.0014
  594MOL0     C80068   9.584   5.964   4.272 -0.4556 -0.7104 -0.0724
  594MOL0     C80069   9.669   6.065   4.357  0.3059  0.7239 -0.2126
  594MOL0     C80070   9.810   6.060   4.305  0.5257 -0.2031 -0.8766
  594MOL0     C80071   9.901   6.131   4.394  0.4718 -0.7586 -0.8706
  594MOL0     N80072  10.039   6.124   4.329  0.1666  0.3542 -0.0826
  594MOL0     C80073  10.121   6.019   4.311 -0.0188 -0.5409 -0.4932
  594MOL0     C80074  10.211   6.052   4.215  0.1439 -0.0842 -0.4361
  594MOL0     C80075  10.310   5.956   4.154  0.6041  0.5734 -0.4910
  594MOL0     C80076  10.437   5.947   4.247  0.2752 -0.0079  0.0081
  594MOL0     C80077  10.524   6.069   4.221 -0.3216  0.3082  0.3242
  594MOL0     C80078  10.637   6.079   4.319  0.1957 -0.1253  0.8444
  594MOL0     O80079  10.721   5.973   4.294 -0.0473 -0.0523 -0.0177
  594MOL0     C80080  10.820   5.950   4.386 -0.6747  0.5614  0.3120
  594MOL0     C80081  10.895   5.831   4.371  0.0306 -0.3196 -0.1236
  594MOL0     C80082  10.986   5.790   4.469  0.1476  0.7566  0.1125
  594MOL0     C80083  11.016   5.863   4.582 -0.4925  0.3411 -0.1796
  594MOL0     C80084  11.127   5.815   4.679  0.0329 -0.4367 -0.0295
  594MOL0     O80085  11.144   5.874   4.798 -0.3089  0.8225  0.4533
  594MOL0     C80086  11.266   5.887   4.859  0.2180  0.0361 -0.4409
  594MOL0     C80087  11.263   5.973   4.971  0.4644  0.6835  0.0198
  594MOL0     C80088  11.376   6.004   5.041  0.8567  1.0036  0.4104
  594MOL0     C80089  11.496   5.935   5.020  0.4811  0.3739  0.1785
  594MOL0     O80090  11.612   5.948   5.092  0.2366 -0.5660 -0.2935
  594MOL0     C80091  11.633   6.072   5.167  0.4059  0.1575 -0.8108
  594MOL0     C80092  11.586   6.051   5.317  0.2901  0.1201 -0.5691
  594MOL0     C80093  11.618   6.166   5.414  0.4986 -0.5131 -0.5654
  594MOL0     C80094  11.756   6.159   5.473 -0.1387  0.2795  0.3618
  594MOL0     C80095  11.780   6.295   5.547 -0.8336  0.7163  0.1111
  594MOL0     C80096  11.920   6.325   5.586  0.0599  0.3839  0.0068
  594MOL0     C80097  11.940   6.283   5.733  0.1454  0.2908 -0.6308
  594MOL0     C80098  12.070   6.335   5.787  0.4646  0.8605 -0.4963
  594MOL0    Cl80099  12.092   6.246   5.936 -0.5752 -0.1234  0.1251
  594MOL0     C80100  11.493   5.832   4.915 -0.0588 -0.6648 -0.3814
  594MOL0     C80101  11.381   5.816   4.830 -0.4280  0.4601 -1.0709
  594MOL0     O80102  11.203   5.735   4.627 -0.2539  0.6756  0.4920
  594MOL0     C80103  10.954   5.987   4.595 -0.0622  0.1701  0.2538
  594MOL0     C80104  10.859   6.029   4.498 -0.2900  0.2460  0.1510
  594MOL0     N80105  10.193   6.191   4.184  0.1508  0.6436 -0.1983
  594MOL0     N80106  10.085   6.232   4.250 -0.4210  0.9095 -0.4124
  594MOL0     C80107   8.770   6.089   4.240  0.0179 -0.7267 -0.9538
  594MOL0     C80108   8.680   6.196   4.263  1.0089 -0.0581 -0.0394
  594MOL0     C80109   8.473   6.555   4.394  0.1060  0.4717  0.1475
  594MOL0     C80110   8.379   6.527   4.487 -0.6613  0.1303 -0.7927
  594MOL0     C80111   8.268   6.608   4.498 -0.7761  1.2442  0.1937
  594MOL0     C80112   8.246   6.722   4.423 -0.1251  0.1661 -0.4619
  594MOL0     O80113   8.128   6.788   4.443  0.0524  0.3282 -0.3895
  594MOL0     C80114   8.099   6.905   4.369 -0.6178  0.3298  0.4138
  594MOL0     C80115   7.967   6.978   4.420 -0.0556  0.7415  0.4583
  594MOL0     C80116   7.843   6.881   4.418 -0.1236  0.8841 -0.3503
  594MOL0     C80117   7.821   6.795   4.293 -0.0686  0.2430  0.2678
  594MOL0     C80118   7.687   6.745   4.278  0.1183 -0.0422 -0.1989
  594MOL0     C80119   7.574   6.705   4.260 -0.4675 -0.0234  0.4872
  594MOL0     C80120   8.343   6.758   4.330  0.5204  0.7196 -0.0333
  594MOL0     C80121   8.452   6.665   4.312  0.5201  0.0474  0.6835
  594MOL0     C80122   8.554   6.705   4.203  0.3676 -0.4364  0.2358
  594MOL0     H80123   8.895   6.454   4.178 -2.8120  1.5194  2.3692
  594MOL0     H80124   9.058   6.261   4.193  0.3457  0.7416 -3.3069
  594MOL0     H80125   9.170   6.042   4.114  3.5990 -1.0549  0.6528
  594MOL0     H80126   9.179   6.100   4.274  0.7201  0.5713 -0.2923
  594MOL0     H80127   9.155   5.801   4.213 -0.4849  0.7523 -0.1387
  594MOL0     H80128   9.205   5.879   4.365  0.5530 -0.3389  0.7024
  594MOL0     H80129   9.371   5.927   4.118 -1.3797  0.5907  0.1277
  594MOL0     H80130   9.385   5.785   4.222 -0.7676 -0.3475  0.4868
  594MOL0     H80131   9.402   6.076   4.317  0.4645  0.3421  1.7998
  594MOL0     H80132   9.431   5.937   4.422  1.2844 -0.2508  0.0088
  594MOL0     H80133   9.624   5.865   4.294 -1.5373 -1.0723  0.3026
  594MOL0     H80134   9.595   5.988   4.166  0.8254  0.7268  0.3404
  594MOL0     H80135   9.620   6.162   4.357 -0.9349  0.1648  1.4991
  594MOL0     H80136   9.666   6.034   4.462 -3.6656 -2.4586 -1.0318
  594MOL0     H80137   9.804   6.104   4.206 -0.7508 -1.4443 -1.3901
  594MOL0     H80138   9.829   5.952   4.300 -3.5666 -1.0619 -2.5456
  594MOL0     H80139   9.867   6.232   4.415 -1.7212 -1.9430  1.9748
  594MOL0     H80140   9.907   6.082   4.491 -0.8475  1.6731  0.5241
  594MOL0     H80141  10.115   5.917   4.347 -0.1953  0.2982  2.0827
  594MOL0     H80142  10.257   5.860   4.163  0.8892  0.4014 -0.6447
  594MOL0     H80143  10.318   5.969   4.045  0.3876  0.6577 -0.4993
  594MOL0     H80144  10.396   5.939   4.348  1.7323  1.4437  0.7429
  594MOL0     H80145  10.493   5.854   4.230  2.1673  1.1384 -0.2270
  594MOL0     H80146  10.460   6.156   4.232 -1.3035  0.1772 -3.1562
  594MOL0     H80147  10.573   6.077   4.124 -2.4318  1.4303 -0.7225
  594MOL0     H80148  10.587   6.084   4.416 -2.4690 -1.0884 -0.3675
  594MOL0     H80149  10.682   6.179   4.316 -4.0474  2.0226 -1.1813
  594MOL0     H80150  10.863   5.771   4.286 -0.7671  2.5717 -2.0026
  594MOL0     H80151  11.040   5.698   4.448 -1.3690  0.7198 -4.8170
  594MOL0     H80152  11.169   6.019   4.999  0.5619 -0.6092  2.8154
  594MOL0     H80153  11.368   6.085   5.113  0.8589  2.1035 -0.7963
  594MOL0     H80154  11.742   6.086   5.174  0.6740 -2.1355  0.6334
  594MOL0     H80155  11.589   6.153   5.107  1.3313  3.2911  2.3601
  594MOL0     H80156  11.480   6.023   5.324 -0.2957  2.2393 -0.0213
  594MOL0     H80157  11.644   5.969   5.359  1.3355  1.8534  1.5782
  594MOL0     H80158  11.616   6.260   5.357 -0.2712 -0.0946  0.1319
  594MOL0     H80159  11.544   6.164   5.494  0.8517 -0.1965 -0.2246
  594MOL0     H80160  11.826   6.163   5.389  0.6245  0.4722  0.9916
  594MOL0     H80161  11.777   6.074   5.538  1.7100  0.2744 -0.1868
  594MOL0     H80162  11.716   6.296   5.635 -1.6463 -2.2734 -0.3144
  594MOL0     H80163  11.753   6.376   5.478  1.8882  0.4952 -1.3706
  594MOL0     H80164  11.992   6.286   5.514 -0.7384 -1.4124  0.1480
  594MOL0     H80165  11.944   6.431   5.600  1.9816 -0.3097  2.8526
  594MOL0     H80166  11.952   6.175   5.739 -1.8128  0.1087  1.6205
  594MOL0     H80167  11.859   6.317   5.798 -0.5204  1.7331 -2.1306
  594MOL0     H80168  12.154   6.309   5.723  0.9527  1.0932  0.0424
  594MOL0     H80169  12.062   6.443   5.806  0.1480  0.5079  1.6920
  594MOL0     H80170  11.587   5.778   4.907 -0.5962 -1.9600  1.3619
  594MOL0     H80171  11.383   5.741   4.752 -1.1596  0.5092 -1.1509
  594MOL0     H80172  10.986   6.055   4.673 -0.8301 -0.3339  1.0327
  594MOL0     H80173  10.817   6.126   4.524  2.5495  1.9090 -1.0355
  594MOL0     H80174   8.727   5.991   4.257 -1.5783  0.3340  1.9559
  594MOL0     H80175   8.573   6.179   4.262  0.8357  0.9523 -1.3008
  594MOL0     H80176   8.387   6.441   4.552 -2.8732  1.1157  0.9030
  594MOL0     H80177   8.190   6.575   4.566  0.8150 -1.9550  0.6314
  594MOL0     H80178   8.080   6.878   4.265  1.8303 -1.0281  0.2347
  594MOL0     H80179   8.181   6.978   4.375 -0.8525  1.1778 -3.5420
  594MOL0     H80180   7.955   7.062   4.351 -1.4923 -2.4741 -3.6012
  594MOL0     H80181   7.995   7.017   4.518  3.2813  1.6274 -0.6751
  594MOL0     H80182   7.752   6.939   4.439 -2.0928 -0.6912 -3.7193
  594MOL0     H80183   7.866   6.817   4.503  0.5947  0.8632 -0.5539
  594MOL0     H80184   7.844   6.870   4.216 -0.3174  0.6043  0.5418
  594MOL0     H80185   7.896   6.717   4.280  2.9969  2.8235  1.1864
  594MOL0     H80186   7.472   6.672   4.268 -0.3172 -0.2952  1.4898
  594MOL0     H80187   8.324   6.854   4.284  0.2624  1.3734  1.3788
  594MOL0     H80188   8.550   6.640   4.115 -1.7570 -1.0313  0.7269
  594MOL0     H80189   8.550   6.809   4.169  1.7144  0.2377  1.9646
  594MOL0     H80190   8.654   6.688   4.244  1.9014  0.4347 -2.8328
  595MOL0     O80191  11.084   6.702   1.742 -0.5934 -0.0310 -0.2423
  595MOL0     C80192  11.106   6.675   1.621 -0.6868  0.1504 -0.2229
  595MOL0     O80193  11.233   6.655   1.568  1.0531  0.7177  0.3293
  595MOL0     C80194  11.331   6.708   1.636 -0.4209 -0.4268 -0.3918
  595MOL0     C80195  11.390   6.834   1.612 -0.9094 -0.3502  0.0702
  595MOL0     C80196  11.505   6.879   1.687  0.4344 -0.1393 -0.6841
  595MOL0     C80197  11.549   6.799   1.797  0.8381 -0.4290 -0.8034
  595MOL0     O80198  11.645   6.847   1.874  0.1261  0.8461 -0.6646
  595MOL0     C80199  11.608   6.871   2.011 -0.4364  0.1514 -0.5315
  595MOL0     C80200  11.723   6.934   2.096  0.2439  0.2399 -0.4059
  595MOL0     C80201  11.815   7.037   2.028 -0.3513 -0.1474  0.0302
  595MOL0     C80202  11.751   7.175   2.016 -1.0802 -0.3674  0.4835
  595MOL0     C80203  11.843   7.262   1.919  0.1430  0.2389 -0.0943
  595MOL0     C80204  11.994   7.264   1.952  0.3652 -0.3644 -0.0642
  595MOL0     C80205  12.069   7.326   1.831  0.4631  0.4693 -0.6742
  595MOL0     C80206  12.223   7.344   1.855  0.6093 -0.4911 -0.5636
  595MOL0     N80207  12.279   7.387   1.728  0.2272 -0.4687  0.5727
  595MOL0     C80208  12.329   7.508   1.680 -0.1403  0.4614 -0.2742
  595MOL0     C80209  12.374   7.491   1.553  0.5525  0.0619  0.4522
  595MOL0     C80210  12.408   7.607   1.461 -0.3924  0.3482  0.0952
  595MOL0     C80211  12.556   7.638   1.490 -1.1221 -0.0125 -0.5698
  595MOL0     C80212  12.581   7.721   1.617  0.8328  0.2638  0.8943
  595MOL0     C80213  12.722   7.772   1.632 -0.5572  0.7599  0.0357
  595MOL0     O80214  12.822   7.668   1.600  0.6314  0.5289  0.0645
  595MOL0     C80215  12.949   7.710   1.562  0.6390  0.7526  0.5488
  595MOL0     C80216  13.016   7.833   1.565 -0.6344  1.2859  0.7661
  595MOL0     C80217  13.148   7.843   1.518 -0.1671 -0.9126 -0.0823
  595MOL0     C80218  13.215   7.741   1.443 -0.1382  0.3996 -0.2152
  595MOL0     C80219  13.325   7.762   1.348 -1.2721  0.4444 -0.3399
  595MOL0     O80220  13.367   7.653   1.285 -0.2962  0.3231  0.2731
  595MOL0     C80221  13.480   7.659   1.208 -0.0633  0.6834 -0.4147
  595MOL0     C80222  13.608   7.685   1.259 -0.2533 -0.3010 -0.2165
  595MOL0     C80223  13.721   7.687   1.177  0.1418  0.6429  0.2001
  595MOL0     C80224  13.712   7.657   1.039  0.4629  0.0290 -0.1925
  595MOL0     O80225  13.806   7.672   0.943 -0.6794 -0.0655  0.4867
  595MOL0     C80226  13.945   7.681   0.983 -0.7906 -0.2571  0.4032
  595MOL0     C80227  14.003   7.546   1.020  0.1450  0.4510 -0.1111
  595MOL0     C80228  14.150   7.556   1.063 -1.1738 -0.2057  0.0147
  595MOL0     C80229  14.223   7.419   1.096  0.3082  1.2404  1.0420
  595MOL0     C80230  14.369   7.440   1.134  0.1985 -0.1405  1.1547
  595MOL0     C80231  14.424   7.312   1.187  0.2766  0.5645  0.6103
  595MOL0     C80232  14.560   7.276   1.136 -0.6681 -0.7848 -0.7483
  595MOL0     C80233  14.633   7.180   1.233  0.3789  0.0898  0.0066
  595MOL0    Cl80234  14.779   7.108   1.153 -0.2613  0.1744  0.2841
  595MOL0     C80235  13.590   7.617   0.993 -0.0309 -0.5475 -0.0002
  595MOL0     C80236  13.481   7.621   1.077  0.4219 -0.4413  0.2422
  595MOL0     O80237  13.375   7.873   1.343 -0.8288 -0.2248  0.5725
  595MOL0     C80238  13.138   7.622   1.450  0.1465  0.3600  0.0057
  595MOL0     C80239  13.011   7.596   1.509  0.1003 -0.5147 -0.2878
  595MOL0     N80240  12.365   7.356   1.523 -0.4054 -0.0536  0.0092
  595MOL0     N80241  12.314   7.294   1.633 -0.6312  0.2616 -0.2887
  595MOL0     C80242  11.482   6.674   1.821 -0.4430  0.0158  0.4709
  595MOL0     C80243  11.380   6.635   1.737  0.8443 -0.2830 -0.2034
  595MOL0     C80244  10.991   6.639   1.530  0.2135 -0.8404 -0.1068
  595MOL0     C80245  11.025   6.624   1.396 -0.9331  0.0554  0.0654
  595MOL0     C80246  10.927   6.601   1.299 -0.1769 -0.1294 -0.0706
  595MOL0     C80247  10.793   6.600   1.338 -0.1288  0.5266  0.8820
  595MOL0     O80248  10.697   6.574   1.236  0.4213  0.7351  0.0243
  595MOL0     C80249  10.595   6.480   1.249  0.7082 -0.1105 -0.2176
  595MOL0     C80250  10.646   6.343   1.195  0.2743 -0.7931  0.0587
  595MOL0     C80251  10.697   6.342   1.055 -0.0505 -0.6097  0.9647
  595MOL0     C80252  10.570   6.316   0.963 -0.0904 -0.0011 -0.8167
  595MOL0     C80253  10.609   6.293   0.822 -0.4653 -0.4582 -0.4728
  595MOL0     C80254  10.649   6.271   0.711  0.5533 -1.2650 -0.3548
  595MOL0     C80255  10.755   6.605   1.473  0.6524  0.1568 -0.3913
  595MOL0     C80256  10.854   6.626   1.573  0.0592  0.0352  0.6061
  595MOL0     C80257  10.794   6.636   1.718  0.3412 -0.5067  0.0225
  595MOL0     H80258  11.352   6.901   1.534  0.0233  1.1733  0.8777
  595MOL0     H80259  11.526   6.985   1.680 -0.5747  0.0885 -0.5159
  595MOL0     H80260  11.535   6.952   2.001 -1.2332 -0.7299 -2.3238
  595MOL0     H80261  11.564   6.787   2.066  1.3367  0.4280  1.3912
  595MOL0     H80262  11.775   6.840   2.118 -2.5397 -1.6184 -1.3117
  595MOL0     H80263  11.696   6.969   2.197 -0.0983 -0.1062 -0.3759
  595MOL0     H80264  11.831   6.992   1.929 -0.7534  0.3365 -0.2569
  595MOL0     H80265  11.907   7.046   2.086 -1.3349  0.3776  1.5547
  595MOL0     H80266  11.644   7.171   1.991 -0.6647 -0.8796 -1.3421
  595MOL0     H80267  11.739   7.216   2.117 -3.4776 -1.7688  0.8495
  595MOL0     H80268  11.828   7.217   1.821 -0.9502 -1.8648  0.9759
  595MOL0     H80269  11.809   7.366   1.925  0.8378  0.5627 -1.3859
  595MOL0     H80270  12.006   7.321   2.045  3.4320  2.1492 -1.7992
  595MOL0     H80271  12.037   7.165   1.970  0.4799 -0.0386  1.5727
  595MOL0     H80272  12.023   7.424   1.821 -0.1274  0.3672  0.7501
  595MOL0     H80273  12.058   7.278   1.734 -1.9589 -0.3105 -0.0776
  595MOL0     H80274  12.240   7.414   1.937  1.7901 -1.0031 -0.3600
  595MOL0     H80275  12.264   7.247   1.882  0.2928  0.2214  2.8639
  595MOL0     H80276  12.332   7.604   1.731 -0.7562 -0.3667  1.3930
  595MOL0     H80277  12.399   7.575   1.357 -2.7301  1.4311 -0.0842
  595MOL0     H80278  12.351   7.696   1.487  0.3423  0.5969  0.9110
  595MOL0     H80279  12.619   7.549   1.497 -0.8367  0.2203 -0.2035
  595MOL0     H80280  12.594   7.684   1.398 -1.6991 -0.8333 -1.2407
  595MOL0     H80281  12.568   7.655   1.703  0.0965  1.0806  1.4311
  595MOL0     H80282  12.516   7.809   1.618  1.0918  0.5325 -1.1125
  595MOL0     H80283  12.728   7.799   1.737  2.8758 -2.9346  1.0552
  595MOL0     H80284  12.740   7.864   1.576 -0.7131  0.5107 -0.4321
  595MOL0     H80285  12.966   7.914   1.618 -0.1867  1.9557  0.1797
  595MOL0     H80286  13.198   7.939   1.524  1.2235 -1.6835  1.3609
  595MOL0     H80287  13.620   7.735   1.354 -0.6347 -0.8621  0.1326
  595MOL0     H80288  13.818   7.717   1.214  2.3801 -1.5728 -3.3075
  595MOL0     H80289  13.999   7.711   0.892 -2.0318 -0.2820 -0.3603
  595MOL0     H80290  13.962   7.765   1.050 -0.8898  1.7130 -1.8932
  595MOL0     H80291  13.947   7.504   1.104  0.4469  0.3593  0.0443
  595MOL0     H80292  13.989   7.474   0.940 -0.2175 -0.7115  0.9595
  595MOL0     H80293  14.208   7.611   0.988 -1.9145  0.0757 -0.3620
  595MOL0     H80294  14.161   7.621   1.150  2.7289 -0.6953  0.0612
  595MOL0     H80295  14.222   7.347   1.014 -1.0484  0.5608  1.6135
  595MOL0     H80296  14.165   7.372   1.176  1.0584  0.9504  1.4226
  595MOL0     H80297  14.375   7.510   1.218  3.4834  1.0833  0.0745
  595MOL0     H80298  14.421   7.480   1.046 -0.3429  0.7061  1.2152
  595MOL0     H80299  14.412   7.321   1.296 -2.1539  1.3876  0.3531
  595MOL0     H80300  14.368   7.226   1.148  3.4936 -1.9035  1.0475
  595MOL0     H80301  14.622   7.363   1.114 -2.1597  0.0659 -1.8086
  595MOL0     H80302  14.553   7.218   1.043  1.6135 -1.5088 -0.5118
  595MOL0     H80303  14.645   7.230   1.329  0.6306  0.1690 -0.0633
  595MOL0     H80304  14.572   7.091   1.254  3.4734 -1.2161  5.4219
  595MOL0     H80305  13.561   7.603   0.889 -1.6239  1.6059  0.1000
  595MOL0     H80306  13.391   7.598   1.022 -0.3325  0.2684  1.1332
  595MOL0     H80307  13.180   7.534   1.401 -1.6705 -0.3612 -0.3305
  595MOL0     H80308  12.961   7.500   1.513  0.9739 -0.9559  0.4945
  595MOL0     H80309  11.520   6.602   1.893  0.3090 -0.8317 -0.7248
  595MOL0     H80310  11.335   6.541   1.768  0.0005 -0.0325 -0.6404
  595MOL0     H80311  11.131   6.621   1.373 -0.0909 -0.2194  3.4644
  595MOL0     H80312  10.959   6.589   1.196 -0.4277 -0.8475 -0.0684
  595MOL0     H80313  10.500   6.514   1.205  0.1024 -2.0921 -0.5204
  595MOL0     H80314  10.556   6.461   1.349  2.2317 -2.7485 -0.0557
  595MOL0     H80315  10.569   6.266   1.209 -1.2855  0.9889  2.0114
  595MOL0     H80316  10.727   6.318   1.263  2.5142  0.2277 -2.0946
  595MOL0     H80317  10.779   6.270   1.044  0.0974 -0.7488  2.7285
  595MOL0     H80318  10.734   6.441   1.027  0.2879 -1.2774 -1.1461
  595MOL0     H80319  10.514   6.230   1.001 -0.1192  1.6567  3.3928
  595MOL0     H80320  10.511   6.406   0.979  0.6697  1.0074 -3.2647
  595MOL0     H80321  10.677   6.254   0.609  0.4994 -1.2875 -0.3656
  595MOL0     H80322  10.652   6.602   1.504  0.6384 -1.0953 -0.5262
  595MOL0     H80323  10.847   6.567   1.784  0.0466 -1.3765 -0.6408
  595MOL0     H80324  10.812   6.737   1.756  2.2228 -0.8521  0.1665
  595MOL0     H80325  10.688   6.609   1.716 -0.3344  1.7787 -3.5008
  596MOL0     O80326   7.037   8.751   3.365 -0.2304 -0.1369 -0.8493
  596MOL0     C80327   7.097   8.852   3.362  0.1670 -0.8267  1.0117
  596MOL0     O80328   7.234   8.863   3.340 -0.3057  0.5247  0.1308
  596MOL0     C80329   7.308   8.752   3.312  0.2689  0.1366 -0.4787
  596MOL0     C80330   7.281   8.661   3.210  0.0118  0.1370  0.3681
  596MOL0     C80331   7.369   8.550   3.185 -0.0235 -0.3201  0.1278
  596MOL0     C80332   7.481   8.525   3.263  0.4174 -0.5349  0.3300
  596MOL0     O80333   7.565   8.418   3.260  0.2222 -0.3425 -0.2320
  596MOL0     C80334   7.676   8.438   3.171 -0.1531  0.2553  0.6491
  596MOL0     C80335   7.805   8.365   3.211  0.3920 -0.1657 -0.2160
  596MOL0     C80336   7.908   8.447   3.289  0.6122 -0.7092  0.5978
  596MOL0     C80337   7.972   8.540   3.184  0.9794  1.0869 -0.0125
  596MOL0     C80338   8.019   8.668   3.248 -0.7563 -0.0172  0.7197
  596MOL0     C80339   7.908   8.762   3.276  0.1477 -0.3644 -0.1831
  596MOL0     C80340   7.964   8.898   3.320  0.3814  0.3891 -0.2117
  596MOL0     C80341   7.996   9.002   3.216  0.0744  0.3488  0.6436
  596MOL0     N80342   8.063   9.116   3.265 -0.0093  0.1990  0.0829
  596MOL0     C80343   8.031   9.192   3.373 -0.4179 -0.2197 -0.0382
  596MOL0     C80344   8.116   9.295   3.368  0.7009 -0.5905  0.6113
  596MOL0     C80345   8.127   9.410   3.450  0.4388 -0.5640 -0.4373
  596MOL0     C80346   8.266   9.428   3.523 -0.1441 -0.2658  0.1633
  596MOL0     C80347   8.287   9.575   3.573 -0.2529 -0.4106  0.4165
  596MOL0     C80348   8.421   9.600   3.641  0.6752  0.0777 -0.1481
  596MOL0     O80349   8.427   9.518   3.766  0.4591 -0.2166 -0.1110
  596MOL0     C80350   8.554   9.511   3.824 -0.7857 -0.0570 -1.0095
  596MOL0     C80351   8.663   9.581   3.779 -0.2090 -0.1014  0.1366
  596MOL0     C80352   8.795   9.562   3.824  0.2283 -0.3103 -0.3325
  596MOL0     C80353   8.826   9.459   3.908  1.4184 -0.5257 -0.2254
  596MOL0     C80354   8.964   9.420   3.954  0.2119 -0.4006 -0.0015
  596MOL0     O80355   8.985   9.291   3.996 -0.2355 -0.2832  0.6164
  596MOL0     C80356   9.111   9.242   4.020  0.7347  0.6511 -0.4700
  596MOL0     C80357   9.121   9.170   4.143 -0.3093  0.6495 -0.1578
  596MOL0     C80358   9.244   9.125   4.190 -0.3542  1.4827  0.5895
  596MOL0     C80359   9.361   9.146   4.114 -0.8743  0.6884 -0.1631
  596MOL0     O80360   9.489   9.122   4.161 -0.1796  0.6457  0.3894
  596MOL0     C80361   9.514   9.019   4.252 -0.2352 -0.2300 -0.0099
  596MOL0     C80362   9.662   9.013   4.303  0.1502 -0.3343 -0.3518
  596MOL0     C80363   9.761   8.995   4.188  0.0539  0.1368 -0.1353
  596MOL0     C80364   9.891   8.934   4.236 -0.6436  0.2713 -0.0707
  596MOL0     C80365   9.979   9.042   4.305  0.2375  0.5273 -0.4455
  596MOL0     C80366  10.122   9.002   4.351  1.0300  0.4482 -0.2653
  596MOL0     C80367  10.201   9.125   4.391 -0.0285 -0.0994 -0.4437
  596MOL0     C80368  10.347   9.088   4.401  0.1959  0.7413  0.4948
  596MOL0    Cl80369  10.417   9.234   4.468  0.1842 -0.0362  0.1558
  596MOL0     C80370   9.352   9.223   3.995  0.7641  0.1086 -0.5239
  596MOL0     C80371   9.227   9.271   3.949  0.0825 -0.0525 -0.6439
  596MOL0     O80372   9.051   9.501   3.942  0.0136 -0.1493  0.2923
  596MOL0     C80373   8.715   9.394   3.967 -0.2254  0.6054 -0.1888
  596MOL0     C80374   8.584   9.418   3.920  0.4183 -0.4753 -0.4977
  596MOL0     N80375   8.202   9.286   3.259 -0.5700 -0.1004  0.2699
  596MOL0     N80376   8.169   9.179   3.200 -0.6014 -0.4616  0.5779
  596MOL0     C80377   7.511   8.637   3.342 -0.6020  0.0109  0.5263
  596MOL0     C80378   7.434   8.741   3.374  0.0438  0.6313  0.4445
  596MOL0     C80379   7.022   8.976   3.384 -0.0019  0.1078 -0.3245
  596MOL0     C80380   6.893   8.984   3.325  0.7454 -1.0843  0.6696
  596MOL0     C80381   6.813   9.095   3.342  1.0820 -0.0573 -0.0898
  596MOL0     C80382   6.854   9.204   3.415 -0.7466  0.3545  1.3144
  596MOL0     O80383   6.765   9.301   3.452  0.1263 -0.8731  0.0862
  596MOL0     C80384   6.655   9.329   3.365 -0.4492 -0.0186 -0.1598
  596MOL0     C80385   6.526   9.262   3.408 -0.3545  0.0729  0.0195
  596MOL0     C80386   6.408   9.284   3.307 -0.7397 -0.6866 -0.6320
  596MOL0     C80387   6.430   9.216   3.168 -0.9300 -0.5887 -0.2261
  596MOL0     C80388   6.314   9.205   3.087  0.1534 -0.3882  0.6508
  596MOL0     C80389   6.216   9.173   3.018 -0.9466 -0.2913 -0.2609
  596MOL0     C80390   6.984   9.199   3.468 -0.5111 -0.1801  0.3865
  596MOL0     C80391   7.071   9.091   3.449  0.5622  0.5581 -0.1198
  596MOL0     C80392   7.197   9.093   3.537  0.5530  0.4964  0.5104
  596MOL0     H80393   7.194   8.671   3.146  0.7929 -0.3355 -0.8095
  596MOL0     H80394   7.335   8.465   3.126 -5.3217  0.4009  1.6168
  596MOL0     H80395   7.649   8.418   3.067  0.9356  1.0427  0.1968
  596MOL0     H80396   7.700   8.545   3.160 -1.6020  0.5294 -0.1422
  596MOL0     H80397   7.852   8.328   3.120  2.3896  0.3313  0.5533
  596MOL0     H80398   7.779   8.276   3.270 -1.3899  0.8777  0.6655
  596MOL0     H80399   7.988   8.383   3.328  0.8975 -0.5573  0.2694
  596MOL0     H80400   7.861   8.492   3.377 -1.7764  1.2949 -1.5273
  596MOL0     H80401   8.066   8.487   3.171 -0.7549 -2.0599 -0.6661
  596MOL0     H80402   7.928   8.544   3.083  0.8159 -1.7224 -0.1359
  596MOL0     H80403   8.065   8.640   3.343  1.8671  1.2509 -0.0945
  596MOL0     H80404   8.103   8.710   3.192 -0.4202 -3.4414 -1.6148
  596MOL0     H80405   7.843   8.770   3.188 -0.5681 -0.5766  0.3187
  596MOL0     H80406   7.855   8.724   3.364  1.4286  1.5725  1.4949
  596MOL0     H80407   8.056   8.887   3.379  0.4271 -0.6836 -0.4639
  596MOL0     H80408   7.884   8.948   3.376 -1.8931  1.6175 -4.2104
  596MOL0     H80409   8.064   8.961   3.142 -1.5439 -1.1725 -0.0734
  596MOL0     H80410   7.912   9.040   3.158  0.0220 -2.1784 -1.0947
  596MOL0     H80411   7.955   9.187   3.451 -1.5904 -2.0432 -1.2395
  596MOL0     H80412   8.109   9.496   3.385 -1.6252  0.4880  1.4347
  596MOL0     H80413   8.055   9.426   3.530  0.0184 -3.1258 -0.2172
  596MOL0     H80414   8.266   9.372   3.617 -4.6714  2.4415  2.1424
  596MOL0     H80415   8.348   9.398   3.458  0.6970 -0.7151  1.3871
  596MOL0     H80416   8.205   9.624   3.626  0.4078  1.5168 -0.2571
  596MOL0     H80417   8.297   9.626   3.477  2.1704  1.1712  1.4038
  596MOL0     H80418   8.443   9.706   3.655  0.9604  0.2816 -1.8637
  596MOL0     H80419   8.498   9.564   3.572  1.1070  0.9383 -0.1268
  596MOL0     H80420   8.662   9.658   3.702  0.7897  0.2153  0.4176
  596MOL0     H80421   8.873   9.633   3.797 -0.4993  1.0658  1.0474
  596MOL0     H80422   9.037   9.161   4.211 -0.9020 -0.9409 -1.0447
  596MOL0     H80423   9.254   9.095   4.294 -2.5560  1.4853  0.8442
  596MOL0     H80424   9.451   9.035   4.340  2.1964  0.9689  1.6408
  596MOL0     H80425   9.488   8.922   4.210 -0.8811  0.6458 -1.7692
  596MOL0     H80426   9.680   9.090   4.379  0.4703 -1.9295  1.2695
  596MOL0     H80427   9.659   8.919   4.358  0.7088  0.0630  0.3839
  596MOL0     H80428   9.715   8.927   4.116  0.3432  1.2012 -1.3692
  596MOL0     H80429   9.774   9.090   4.136 -3.9405 -0.0363 -1.7853
  596MOL0     H80430   9.944   8.900   4.146  0.4086  0.2995  0.5278
  596MOL0     H80431   9.876   8.843   4.294 -1.1712 -0.5879 -1.5124
  596MOL0     H80432   9.919   9.082   4.387  0.6992  1.8363 -0.7307
  596MOL0     H80433   9.993   9.121   4.231  2.3651  0.4485 -0.1815
  596MOL0     H80434  10.115   8.940   4.440 -2.2631  0.9787 -0.0544
  596MOL0     H80435  10.168   8.951   4.265  2.1772  2.4824 -0.9269
  596MOL0     H80436  10.155   9.160   4.483 -1.7464  2.2184 -2.0561
  596MOL0     H80437  10.203   9.210   4.322 -0.0993 -0.7328 -1.2463
  596MOL0     H80438  10.367   9.001   4.464 -0.5054  0.6649  0.6130
  596MOL0     H80439  10.400   9.075   4.306  1.1196  0.3687  1.0472
  596MOL0     H80440   9.441   9.252   3.939  1.1494  0.4709  0.2613
  596MOL0     H80441   9.226   9.336   3.861  2.6836 -0.4093 -1.0200
  596MOL0     H80442   8.733   9.325   4.048 -0.6415  0.7887  0.0622
  596MOL0     H80443   8.509   9.347   3.955  2.5723 -2.8422 -0.4239
  596MOL0     H80444   7.606   8.627   3.395 -1.4072 -0.9413  1.8691
  596MOL0     H80445   7.456   8.814   3.451 -0.7077  2.2181 -0.7943
  596MOL0     H80446   6.856   8.903   3.263  2.9437  0.6020 -3.2746
  596MOL0     H80447   6.709   9.093   3.311  1.1636 -3.0858 -0.4463
  596MOL0     H80448   6.683   9.296   3.264 -0.8264 -0.5275 -0.1026
  596MOL0     H80449   6.643   9.438   3.361  1.5835  0.3310  1.3311
  596MOL0     H80450   6.495   9.295   3.508  2.4074 -1.0553  1.3380
  596MOL0     H80451   6.541   9.155   3.421 -0.6096  0.1197  0.7401
  596MOL0     H80452   6.394   9.391   3.289  0.3075 -0.3161  0.5638
  596MOL0     H80453   6.316   9.247   3.353  0.8056 -3.3007  0.5901
  596MOL0     H80454   6.501   9.272   3.106  0.3504  0.9909  2.5151
  596MOL0     H80455   6.482   9.121   3.182 -1.4032 -0.8018  0.1029
  596MOL0     H80456   6.138   9.141   2.952 -2.8088 -0.4377  1.8776
  596MOL0     H80457   7.008   9.283   3.534 -0.6298  0.4606 -0.3730
  596MOL0     H80458   7.275   9.138   3.476 -0.9549 -0.0782 -1.9917
  596MOL0     H80459   7.188   9.159   3.624 -1.1184 -0.4127  1.0717
  596MOL0     H80460   7.232   8.992   3.560  2.5801  0.4032 -2.4650
  597MOL0     O80461  10.278   3.858   1.650  0.6276  0.5090 -0.1371
  597MOL0     C80462  10.216   3.749   1.640  0.0704  0.2328 -0.3800
  597MOL0     O80463  10.187   3.660   1.742 -0.4127  0.1604 -0.5937
  597MOL0     C80464  10.230   3.695   1.869  0.3533 -0.9266 -0.5073
  597MOL0     C80465  10.372   3.705   1.901  0.2137 -0.2892  0.5213
  597MOL0     C80466  10.419   3.714   2.031  0.5486 -0.0652 -0.7124
  597MOL0     C80467  10.329   3.730   2.134 -0.0578  0.6614 -0.2818
  597MOL0     O80468  10.358   3.725   2.270  0.2576  0.2614 -0.1807
  597MOL0     C80469  10.502   3.716   2.302  1.8433  0.4097 -0.2128
  597MOL0     C80470  10.493   3.757   2.449 -0.2750 -0.0243  0.7074
  597MOL0     C80471  10.632   3.780   2.509 -0.0398 -0.0061 -0.5347
  597MOL0     C80472  10.627   3.813   2.659  0.4928  0.2682  1.0547
  597MOL0     C80473  10.757   3.863   2.713 -1.0519 -0.3972  0.4815
  597MOL0     C80474  10.779   3.842   2.860  0.3861 -0.2992  0.3819
  597MOL0     C80475  10.923   3.891   2.912 -0.5219 -0.3409 -0.7762
  597MOL0     C80476  11.033   3.792   2.885  0.7814 -0.7417 -0.2484
  597MOL0     N80477  11.159   3.853   2.925  0.0773  0.1119  0.0693
  597MOL0     C80478  11.215   3.972   2.881  0.7785 -0.0693 -0.3477
  597MOL0     C80479  11.337   3.965   2.917 -0.5742  0.1920 -0.2375
  597MOL0     C80480  11.435   4.068   2.865 -0.6704 -0.0919 -0.2010
  597MOL0     C80481  11.568   4.060   2.949  0.6712 -0.0721 -0.5871
  597MOL0     C80482  11.676   4.141   2.876 -0.2119 -0.4827  0.0479
  597MOL0     C80483  11.825   4.119   2.932 -0.1468  0.4295  0.1457
  597MOL0     O80484  11.897   4.200   2.836 -0.1720  0.2773 -0.9354
  597MOL0     C80485  12.037   4.196   2.842 -0.4629 -1.0128  1.1122
  597MOL0     C80486  12.103   4.283   2.752  0.6230  0.3508 -0.4873
  597MOL0     C80487  12.234   4.282   2.755 -0.3062  0.3067 -0.3455
  597MOL0     C80488  12.320   4.219   2.843 -0.0192  0.6004 -0.6554
  597MOL0     C80489  12.469   4.225   2.841 -0.0664 -0.2332  0.8476
  597MOL0     O80490  12.530   4.202   2.956  0.3307 -0.9017  0.4978
  597MOL0     C80491  12.664   4.198   2.944 -0.1395 -0.4366 -0.2170
  597MOL0     C80492  12.742   4.318   2.953 -0.1701 -0.5586 -0.2026
  597MOL0     C80493  12.880   4.310   2.951 -0.5252 -0.5457 -0.9945
  597MOL0     C80494  12.945   4.189   2.916 -0.0563 -0.1054 -0.4035
  597MOL0     O80495  13.083   4.184   2.914 -0.4831 -0.4277 -1.0181
  597MOL0     C80496  13.160   4.070   2.927  0.2042  0.2487 -0.6625
  597MOL0     C80497  13.182   3.991   2.795 -1.0062 -0.1841  0.8175
  597MOL0     C80498  13.275   3.870   2.827  0.4023  0.8185  0.5535
  597MOL0     C80499  13.232   3.775   2.942  0.7625  0.4568 -0.5804
  597MOL0     C80500  13.304   3.637   2.938  0.4201  0.2728 -0.3682
  597MOL0     C80501  13.236   3.519   3.013 -0.2642  0.3697 -0.2181
  597MOL0     C80502  13.296   3.390   2.963 -0.3766 -0.0815 -0.1279
  597MOL0     C80503  13.228   3.279   3.039 -0.2578  0.2549  0.1899
  597MOL0    Cl80504  13.289   3.127   2.971  0.4919  0.4529 -0.5622
  597MOL0     C80505  12.870   4.075   2.893  0.2779 -1.2963 -0.2569
  597MOL0     C80506  12.732   4.074   2.920  0.1326 -0.9825  0.0550
  597MOL0     O80507  12.515   4.273   2.734 -0.4818 -0.2350 -0.3168
  597MOL0     C80508  12.256   4.145   2.934 -0.1358  0.0031  0.5127
  597MOL0     C80509  12.112   4.123   2.939  0.2833  0.2705  0.0117
  597MOL0     N80510  11.367   3.836   2.965 -0.2679  0.3264  0.1038
  597MOL0     N80511  11.257   3.778   2.975 -0.4339  0.0874 -0.1985
  597MOL0     C80512  10.186   3.717   2.111  0.3620 -0.5267 -0.9279
  597MOL0     C80513  10.141   3.696   1.979 -0.5848  1.1487 -0.4665
  597MOL0     C80514  10.147   3.714   1.513  0.0272  0.2243  0.3187
  597MOL0     C80515  10.072   3.593   1.496  0.2784 -0.5913  0.4939
  597MOL0     C80516  10.004   3.566   1.377  0.4327 -0.1648  0.6075
  597MOL0     C80517  10.022   3.644   1.264 -1.5960 -0.3652  0.0770
  597MOL0     O80518   9.976   3.604   1.148  0.1304  0.4165  0.6800
  597MOL0     C80519   9.945   3.689   1.037 -0.5479 -0.6990  0.6319
  597MOL0     C80520   9.820   3.629   0.972  0.2151 -0.3971 -0.3337
  597MOL0     C80521   9.736   3.735   0.909  0.4436 -0.6592  1.0531
  597MOL0     C80522   9.664   3.824   1.004  0.6833 -0.4980  0.4212
  597MOL0     C80523   9.588   3.758   1.114  0.8699  0.0779  0.5625
  597MOL0     C80524   9.518   3.698   1.194 -0.0036 -0.2828  0.4092
  597MOL0     C80525  10.094   3.768   1.277 -0.0275  0.7923  1.8868
  597MOL0     C80526  10.154   3.799   1.390 -0.1358  0.2314 -0.0481
  597MOL0     C80527  10.233   3.926   1.382 -0.6820 -0.1483  0.5686
  597MOL0     H80528  10.442   3.689   1.820 -0.0513 -0.2759  0.2873
  597MOL0     H80529  10.526   3.721   2.047  0.1620  3.9223  1.1898
  597MOL0     H80530  10.538   3.613   2.292  2.0810  0.7243 -4.5401
  597MOL0     H80531  10.559   3.791   2.245 -1.0825  3.6582  0.8090
  597MOL0     H80532  10.447   3.686   2.519 -1.1179 -0.5394 -0.3419
  597MOL0     H80533  10.433   3.846   2.471 -2.1497 -1.1241  0.2928
  597MOL0     H80534  10.683   3.864   2.460 -0.1074  1.3133  1.5264
  597MOL0     H80535  10.698   3.694   2.495  0.1276  0.2917 -1.7462
  597MOL0     H80536  10.545   3.885   2.671 -2.1507 -2.1451 -1.0720
  597MOL0     H80537  10.596   3.719   2.708 -0.7622 -0.4424 -0.9732
  597MOL0     H80538  10.839   3.809   2.664 -0.7953 -0.8765  1.3956
  597MOL0     H80539  10.757   3.972   2.704 -1.8001  0.1550  4.9420
  597MOL0     H80540  10.703   3.897   2.916 -1.9417 -3.5840  0.7517
  597MOL0     H80541  10.761   3.737   2.887 -1.1945  0.3511  2.0395
  597MOL0     H80542  10.922   3.910   3.019 -1.9346  0.4955 -0.9053
  597MOL0     H80543  10.929   3.990   2.865 -1.1440  0.2251  0.2927
  597MOL0     H80544  11.019   3.697   2.939  1.4078 -0.5851  0.2011
  597MOL0     H80545  11.036   3.770   2.778 -3.5816 -0.1175 -0.7060
  597MOL0     H80546  11.164   4.058   2.840 -2.3930  0.7379  4.4011
  597MOL0     H80547  11.463   4.052   2.761  0.0809  2.1505 -0.4045
  597MOL0     H80548  11.390   4.165   2.890 -0.7490  0.2360 -1.5559
  597MOL0     H80549  11.552   4.091   3.052 -1.9237 -0.2510 -0.8847
  597MOL0     H80550  11.592   3.953   2.956 -2.4111 -1.0038 -2.1861
  597MOL0     H80551  11.659   4.248   2.883  0.5520 -0.4439  1.8823
  597MOL0     H80552  11.679   4.113   2.770  0.2037 -3.0357  0.6535
  597MOL0     H80553  11.856   4.014   2.927 -0.7701  0.2090  0.7331
  597MOL0     H80554  11.841   4.142   3.038  0.2865  0.3877  0.0908
  597MOL0     H80555  12.045   4.332   2.674  1.1025  0.7305 -0.6096
  597MOL0     H80556  12.282   4.346   2.682 -2.3363  0.5012 -1.5703
  597MOL0     H80557  12.682   4.407   2.972 -2.3590 -2.2977  1.4823
  597MOL0     H80558  12.919   4.407   2.978 -0.8842 -0.4955 -0.6401
  597MOL0     H80559  13.258   4.101   2.965 -0.3941  1.6262 -0.2200
  597MOL0     H80560  13.115   3.999   2.997  1.9302 -0.0563  0.2042
  597MOL0     H80561  13.085   3.954   2.760 -1.1621  0.6282  0.3480
  597MOL0     H80562  13.226   4.062   2.724  0.3014 -0.4582  1.3332
  597MOL0     H80563  13.276   3.814   2.733 -1.9578  0.7593  0.5054
  597MOL0     H80564  13.372   3.908   2.859 -0.0991  0.7764  2.2326
  597MOL0     H80565  13.124   3.759   2.944  1.1319 -2.3554  0.2818
  597MOL0     H80566  13.255   3.819   3.040  1.7112  0.4056 -0.7679
  597MOL0     H80567  13.400   3.648   2.989 -0.7245  0.3291  1.9363
  597MOL0     H80568  13.318   3.618   2.832 -0.2657  0.1769 -0.4471
  597MOL0     H80569  13.259   3.531   3.119  0.1729 -1.1347 -0.1101
  597MOL0     H80570  13.127   3.521   3.013 -0.2537  1.4409  0.1136
  597MOL0     H80571  13.401   3.390   2.995 -0.2270 -1.5028 -0.5279
  597MOL0     H80572  13.289   3.381   2.855  0.4909  2.5442 -0.4591
  597MOL0     H80573  13.243   3.282   3.148 -1.4513 -2.1697  0.4903
  597MOL0     H80574  13.120   3.291   3.024  0.1303  0.3362 -3.3934
  597MOL0     H80575  12.905   3.977   2.861  0.5159 -2.3085  2.8070
  597MOL0     H80576  12.664   3.990   2.920 -1.7273  0.3796  2.4578
  597MOL0     H80577  12.308   4.090   3.012  0.2791 -2.4516 -1.3517
  597MOL0     H80578  12.075   4.066   3.023  0.7821  1.0288  0.7574
  597MOL0     H80579  10.122   3.705   2.197  1.6257 -0.1500  0.1026
  597MOL0     H80580  10.038   3.669   1.960 -0.7514 -0.1708  1.8315
  597MOL0     H80581  10.054   3.526   1.579 -0.1077 -0.2516  0.6897
  597MOL0     H80582   9.943   3.477   1.364 -1.2840  0.1781  4.6487
  597MOL0     H80583  10.020   3.698   0.958 -1.6621  1.9312 -0.2389
  597MOL0     H80584   9.937   3.794   1.064 -0.6158 -0.8347  1.1589
  597MOL0     H80585   9.774   3.565   1.047 -0.3157  0.3469 -0.0104
  597MOL0     H80586   9.843   3.559   0.891 -1.3613 -1.4959  0.1217
  597MOL0     H80587   9.666   3.697   0.834  3.2320  0.3496 -2.3946
  597MOL0     H80588   9.792   3.797   0.838 -1.7019  0.7142  0.4491
  597MOL0     H80589   9.726   3.904   1.046 -0.0483  0.4491 -0.2473
  597MOL0     H80590   9.589   3.886   0.953  1.4883  0.0685 -0.0932
  597MOL0     H80591   9.454   3.656   1.269 -1.0488 -0.0771 -0.3325
  597MOL0     H80592  10.123   3.833   1.195 -0.7789 -0.8209  0.2483
  597MOL0     H80593  10.206   3.997   1.462 -2.4740 -0.1564  0.0235
  597MOL0     H80594  10.338   3.898   1.387 -1.0759 -2.3793 -1.8690
  597MOL0     H80595  10.224   3.988   1.292 -1.0484  2.1288  2.0701
  598MOL0     O80596  10.920   6.453   0.227  0.2105 -1.0322 -0.1873
  598MOL0     C80597  10.871   6.408   0.328 -0.5014  0.1562  0.2552
  598MOL0     O80598  10.906   6.446   0.457  0.4450 -1.2068  0.7143
  598MOL0     C80599  11.025   6.504   0.475  0.5249  0.0682 -0.4955
  598MOL0     C80600  11.138   6.422   0.467  0.4838 -0.0367 -0.2182
  598MOL0     C80601  11.258   6.474   0.511  0.1440  0.1467 -0.0066
  598MOL0     C80602  11.284   6.608   0.546 -0.5690  0.6803  0.1547
  598MOL0     O80603  11.413   6.661   0.575  0.2900  0.3375 -0.4404
  598MOL0     C80604  11.497   6.587   0.661  0.0510 -0.2048  0.1156
  598MOL0     C80605  11.616   6.679   0.693 -0.0008 -0.0539 -0.0052
  598MOL0     C80606  11.709   6.695   0.569 -0.2456 -0.0242  0.3833
  598MOL0     C80607  11.821   6.797   0.602 -0.0187 -0.3008  0.5670
  598MOL0     C80608  11.929   6.791   0.499 -0.1401 -0.9126  0.2566
  598MOL0     C80609  12.049   6.876   0.558 -0.0815  0.2562 -0.3950
  598MOL0     C80610  12.180   6.815   0.514 -0.2494 -0.0754 -0.9961
  598MOL0     C80611  12.290   6.910   0.546 -0.8807 -0.4563 -0.0902
  598MOL0     N80612  12.408   6.871   0.469  0.5797 -0.2509 -0.2723
  598MOL0     C80613  12.434   6.893   0.339  0.3240  0.3002  0.6679
  598MOL0     C80614  12.555   6.838   0.313 -0.1919 -0.0653 -0.2553
  598MOL0     C80615  12.623   6.844   0.180  1.0301  0.3164 -0.8291
  598MOL0     C80616  12.771   6.836   0.209 -0.3677  0.0669 -0.7900
  598MOL0     C80617  12.837   6.809   0.078 -0.4739  0.7270  0.0447
  598MOL0     C80618  12.990   6.833   0.083 -0.4606  0.7128 -0.8640
  598MOL0     O80619  13.060   6.726   0.157 -0.0421  0.1498  0.1176
  598MOL0     C80620  13.195   6.748   0.187 -0.9839  1.4076  0.0528
  598MOL0     C80621  13.254   6.666   0.289  0.3314  0.3514 -0.4367
  598MOL0     C80622  13.386   6.664   0.295 -0.3320 -0.2665 -0.1577
  598MOL0     C80623  13.468   6.749   0.235  0.4862 -1.0481  0.5824
  598MOL0     C80624  13.613   6.759   0.267 -1.5540 -0.3483 -0.0921
  598MOL0     O80625  13.681   6.854   0.199 -0.1502  0.6790  0.0801
  598MOL0     C80626  13.801   6.893   0.251 -0.1461 -0.5604  0.0190
  598MOL0     C80627  13.810   6.944   0.379 -0.8030  0.3521 -0.3788
  598MOL0     C80628  13.936   6.988   0.426 -0.9901 -0.9227  0.7218
  598MOL0     C80629  14.056   6.987   0.351  0.6655 -0.6034 -0.8207
  598MOL0     O80630  14.179   7.027   0.403  0.2544  0.2004 -0.4784
  598MOL0     C80631  14.302   6.960   0.362 -0.0852  0.8565 -0.1714
  598MOL0     C80632  14.417   6.984   0.464  0.9599  0.5048 -1.0027
  598MOL0     C80633  14.550   6.920   0.413  0.1115  0.3217 -0.5434
  598MOL0     C80634  14.664   6.969   0.514  0.4135 -0.1686 -0.2766
  598MOL0     C80635  14.796   6.915   0.481 -0.4665  0.8151  0.7489
  598MOL0     C80636  14.854   6.976   0.352  0.7283  1.0512  0.7375
  598MOL0     C80637  15.011   6.948   0.347  0.3511  0.0009  0.2937
  598MOL0     C80638  15.053   6.955   0.201  0.3388  0.3170  0.8647
  598MOL0    Cl80639  15.228   6.999   0.191 -0.1457  0.1077  0.1586
  598MOL0     C80640  14.035   6.951   0.219  0.7726 -0.0004  0.3140
  598MOL0     C80641  13.915   6.897   0.167 -0.2052  0.8418  0.1031
  598MOL0     O80642  13.662   6.686   0.353 -0.4380 -0.0317 -0.3467
  598MOL0     C80643  13.415   6.842   0.140 -0.4615 -0.3427 -0.3759
  598MOL0     C80644  13.279   6.827   0.113 -0.2832 -0.4226 -0.6461
  598MOL0     N80645  12.601   6.789   0.435 -0.7707  0.6472 -0.1048
  598MOL0     N80646  12.512   6.806   0.525  0.1741 -0.2634  0.3173
  598MOL0     C80647  11.165   6.690   0.530  0.0480  0.5259  0.0285
  598MOL0     C80648  11.038   6.644   0.497  0.6422  0.3008  0.4194
  598MOL0     C80649  10.753   6.324   0.320 -0.1784 -0.0693  0.5480
  598MOL0     C80650  10.770   6.183   0.315  0.1115 -0.0907  0.5228
  598MOL0     C80651  10.663   6.095   0.323 -0.4375  0.4323  0.4555
  598MOL0     C80652  10.541   6.144   0.351  0.2982 -0.6308  0.8154
  598MOL0     O80653  10.440   6.044   0.359  0.6067  0.2268  0.6038
  598MOL0     C80654  10.335   6.081   0.450 -0.1401 -0.4077  0.5009
  598MOL0     C80655  10.367   6.054   0.586 -0.0754  0.0509  0.4741
  598MOL0     C80656  10.243   6.062   0.668 -0.0407  0.6975 -0.0780
  598MOL0     C80657  10.272   6.112   0.808  1.4090 -0.8118 -0.0464
  598MOL0     C80658  10.334   6.015   0.904  0.8504  0.3826  0.5615
  598MOL0     C80659  10.373   5.943   0.993  0.6389  0.6390 -0.2775
  598MOL0     C80660  10.522   6.279   0.346 -0.4443  0.7190 -0.5003
  598MOL0     C80661  10.628   6.374   0.332  0.1172  0.4463  0.4978
  598MOL0     C80662  10.621   6.520   0.354  0.7777 -0.2525 -0.0689
  598MOL0     H80663  11.134   6.318   0.439  1.1881 -1.2446  3.6109
  598MOL0     H80664  11.350   6.418   0.501 -2.7868 -5.9208  2.0697
  598MOL0     H80665  11.452   6.554   0.755  2.2256 -0.7660  1.0163
  598MOL0     H80666  11.537   6.496   0.615 -2.2297 -0.7567 -0.9031
  598MOL0     H80667  11.661   6.629   0.779  0.1215  0.4083  0.2018
  598MOL0     H80668  11.583   6.775   0.735 -0.0234 -0.7108  1.5224
  598MOL0     H80669  11.646   6.719   0.482  2.3677  1.4157 -1.2564
  598MOL0     H80670  11.749   6.599   0.535 -3.2931 -0.5943 -2.1899
  598MOL0     H80671  11.781   6.898   0.598 -0.8585 -0.6624 -1.1859
  598MOL0     H80672  11.860   6.774   0.702  1.1572 -1.3727 -0.1088
  598MOL0     H80673  11.968   6.692   0.474 -0.1528 -0.4849 -1.5930
  598MOL0     H80674  11.897   6.842   0.408  0.2382 -2.0642 -0.5424
  598MOL0     H80675  12.038   6.976   0.513  2.9054  0.9023  0.1257
  598MOL0     H80676  12.048   6.883   0.667  0.4236 -1.2349 -0.2832
  598MOL0     H80677  12.184   6.785   0.409 -1.5032 -0.5950 -0.9078
  598MOL0     H80678  12.202   6.722   0.567 -0.5911 -0.3869 -1.3968
  598MOL0     H80679  12.273   7.016   0.523  2.2773  0.1845  0.0717
  598MOL0     H80680  12.306   6.900   0.653 -0.3951  0.6190 -0.0465
  598MOL0     H80681  12.374   6.922   0.253 -1.2951 -1.4098  1.1487
  598MOL0     H80682  12.592   6.757   0.122  1.8724 -1.3538  1.1047
  598MOL0     H80683  12.597   6.935   0.123 -2.3296  1.3751  2.0655
  598MOL0     H80684  12.809   6.924   0.262  1.2481 -0.6575 -0.6891
  598MOL0     H80685  12.784   6.748   0.272  3.7316  1.8160  1.1859
  598MOL0     H80686  12.804   6.884   0.006  1.0474 -0.0156 -1.5064
  598MOL0     H80687  12.811   6.709   0.041 -0.2109  0.5386  0.3575
  598MOL0     H80688  13.002   6.934   0.122 -0.1627  1.2747 -2.3253
  598MOL0     H80689  13.017   6.832  -0.023 -1.3148  2.3753 -1.1245
  598MOL0     H80690  13.188   6.605   0.350  1.8565 -0.4925  0.4404
  598MOL0     H80691  13.429   6.601   0.373 -0.2173  0.4304  0.3480
  598MOL0     H80692  13.723   6.941   0.444 -1.0989  1.3251 -0.7271
  598MOL0     H80693  13.947   7.029   0.526  0.4234 -1.4291  0.8039
  598MOL0     H80694  14.288   6.854   0.341 -0.6928  1.4855 -3.6099
  598MOL0     H80695  14.340   7.010   0.272  1.3101 -1.5333 -1.0057
  598MOL0     H80696  14.438   7.088   0.488  2.0834 -0.3507  2.3189
  598MOL0     H80697  14.398   6.934   0.560  0.8554  1.5137 -0.4807
  598MOL0     H80698  14.545   6.812   0.425  1.9577  0.3549  1.0495
  598MOL0     H80699  14.581   6.958   0.314  1.3208  1.2430  0.1510
  598MOL0     H80700  14.650   6.935   0.617 -1.3737  2.0979  0.3125
  598MOL0     H80701  14.675   7.077   0.522  0.1298  0.1212 -3.0397
  598MOL0     H80702  14.780   6.807   0.470 -2.8288  1.0046  1.8560
  598MOL0     H80703  14.871   6.926   0.560  0.0242 -3.1996  1.0492
  598MOL0     H80704  14.806   6.922   0.270  1.0241  1.4242  0.3090
  598MOL0     H80705  14.837   7.083   0.338  0.1088  0.7595 -0.9000
  598MOL0     H80706  15.049   6.851   0.382  4.5664  0.9282 -1.0394
  598MOL0     H80707  15.052   7.027   0.411 -0.7497  0.7430  0.0931
  598MOL0     H80708  15.030   6.858   0.156 -0.8516  0.8329  0.3353
  598MOL0     H80709  14.993   7.032   0.152 -0.8724 -1.2244 -0.1544
  598MOL0     H80710  14.121   6.972   0.155 -0.4308  2.3118 -0.6517
  598MOL0     H80711  13.915   6.863   0.063 -3.4469 -0.7314  0.5042
  598MOL0     H80712  13.471   6.911   0.076 -1.1588 -0.8100 -1.5157
  598MOL0     H80713  13.229   6.890   0.040  0.1541 -0.0777 -0.6529
  598MOL0     H80714  11.181   6.795   0.555  0.0625 -0.0376  2.6633
  598MOL0     H80715  10.944   6.698   0.509 -1.1087 -2.3777 -0.4405
  598MOL0     H80716  10.872   6.146   0.310  0.3368  0.5254  0.4159
  598MOL0     H80717  10.663   5.990   0.299 -1.2239  0.2115  1.3492
  598MOL0     H80718  10.250   6.017   0.426 -0.1426 -0.2683  0.1230
  598MOL0     H80719  10.298   6.181   0.424 -0.8239 -1.2993 -2.2210
  598MOL0     H80720  10.445   6.125   0.613  0.4380 -0.3830  0.1577
  598MOL0     H80721  10.407   5.953   0.596 -1.3096 -0.3832  1.2672
  598MOL0     H80722  10.207   5.959   0.682 -1.0817  0.6503 -2.5793
  598MOL0     H80723  10.164   6.121   0.620 -1.2747 -1.0514 -0.3019
  598MOL0     H80724  10.324   6.207   0.800 -1.3840  0.8112 -0.1087
  598MOL0     H80725  10.180   6.126   0.865  2.0795 -1.4978  1.2650
  598MOL0     H80726  10.416   5.878   1.067  2.7562  1.7510 -0.4599
  598MOL0     H80727  10.423   6.321   0.351 -0.4464  0.6212  0.6121
  598MOL0     H80728  10.521   6.542   0.392  1.8011 -2.1608  4.3554
  598MOL0     H80729  10.691   6.558   0.429 -0.0261 -2.1783  1.7689
  598MOL0     H80730  10.635   6.565   0.255  3.5581 -1.6273 -0.4005
  599MOL0     O80731   9.662   5.530   7.941  0.6668 -0.1184  0.6900
  599MOL0     C80732   9.644   5.414   7.966 -0.9138 -0.5614 -0.5775
  599MOL0     O80733   9.739   5.319   7.957  0.3425  0.6832  0.5614
  599MOL0     C80734   9.869   5.354   7.951  0.5161 -0.8470 -0.1349
  599MOL0     C80735   9.940   5.419   8.048 -0.0272 -1.0509 -0.2592
  599MOL0     C80736  10.080   5.448   8.040  0.6136 -0.2825 -0.2299
  599MOL0     C80737  10.141   5.402   7.923 -0.7384 -0.5577 -0.2570
  599MOL0     O80738  10.272   5.422   7.898 -0.5997 -0.2034  0.2514
  599MOL0     C80739  10.338   5.520   7.974 -0.7110  0.2081  1.3827
  599MOL0     C80740  10.480   5.529   7.927 -1.0594 -0.0166 -1.2268
  599MOL0     C80741  10.567   5.602   8.033 -0.6188  0.5785 -0.5270
  599MOL0     C80742  10.703   5.627   7.975 -0.1871 -0.5888  0.5377
  599MOL0     C80743  10.793   5.711   8.066  0.2486  1.4219 -0.0649
  599MOL0     C80744  10.824   5.644   8.201 -0.2598  0.1815  0.2946
  599MOL0     C80745  10.855   5.742   8.307 -0.5922  0.1361 -0.0221
  599MOL0     C80746  10.873   5.676   8.443  0.2787  1.1360 -0.2702
  599MOL0     N80747  10.920   5.764   8.547  0.4115  0.1233 -0.6717
  599MOL0     C80748  11.026   5.847   8.527  0.6441 -0.1233 -0.0604
  599MOL0     C80749  11.076   5.879   8.648  0.3010  0.2370 -1.1536
  599MOL0     C80750  11.177   5.978   8.683 -0.0544  0.4402  1.0852
  599MOL0     C80751  11.306   5.918   8.722 -0.8011  0.1412 -0.5590
  599MOL0     C80752  11.414   6.036   8.731  0.5113  0.0248 -0.4227
  599MOL0     C80753  11.561   5.980   8.746 -0.1381 -0.3224  1.2242
  599MOL0     O80754  11.593   5.963   8.887 -0.8200 -0.2856  0.4388
  599MOL0     C80755  11.724   5.931   8.915 -0.2278  0.2389  0.9224
  599MOL0     C80756  11.756   5.927   9.047  0.0301  0.0928  0.3916
  599MOL0     C80757  11.887   5.898   9.087 -0.2338  0.0659 -0.2998
  599MOL0     C80758  11.993   5.876   8.999 -0.1865 -0.2152  0.4216
  599MOL0     C80759  12.132   5.839   9.040 -0.0834  1.1265  0.4345
  599MOL0     O80760  12.225   5.825   8.942  1.1427 -0.5951 -0.2836
  599MOL0     C80761  12.358   5.818   8.959  0.1201  0.2619 -0.2621
  599MOL0     C80762  12.438   5.915   9.025 -0.4885 -0.4225  0.0339
  599MOL0     C80763  12.577   5.912   9.015  0.3326 -0.1061 -0.2934
  599MOL0     C80764  12.636   5.799   8.953 -0.0862  0.7485 -0.5325
  599MOL0     O80765  12.771   5.794   8.963  0.7974 -0.0910  0.4745
  599MOL0     C80766  12.847   5.679   8.920 -0.3018  0.1120 -0.4550
  599MOL0     C80767  12.994   5.698   8.942 -0.9849  0.3524 -0.2227
  599MOL0     C80768  13.075   5.585   8.875  0.2219  1.4135 -0.0608
  599MOL0     C80769  13.214   5.604   8.813  0.4505  0.0957 -1.1730
  599MOL0     C80770  13.322   5.652   8.917 -0.2177 -0.2453  0.4434
  599MOL0     C80771  13.446   5.713   8.837  0.5645  0.4591 -0.2257
  599MOL0     C80772  13.561   5.753   8.939  0.0244  0.6235 -0.2496
  599MOL0     C80773  13.675   5.836   8.883  0.0040 -1.0269 -0.0744
  599MOL0    Cl80774  13.746   5.748   8.755 -0.2153  0.1131 -0.1999
  599MOL0     C80775  12.556   5.696   8.903 -0.8548  0.1403  0.3508
  599MOL0     C80776  12.419   5.710   8.904 -0.6336 -0.1396 -0.3791
  599MOL0     O80777  12.159   5.842   9.158  0.0921  0.3013  0.6631
  599MOL0     C80778  11.963   5.883   8.857  0.1829 -0.1284  0.0047
  599MOL0     C80779  11.834   5.909   8.814  0.0383 -0.3712 -0.8241
  599MOL0     N80780  10.989   5.824   8.742 -0.0108  0.0340 -0.3122
  599MOL0     N80781  10.909   5.737   8.682 -0.3693  0.1645  0.5702
  599MOL0     C80782  10.075   5.342   7.820 -0.9042 -0.5135  0.1791
  599MOL0     C80783   9.940   5.308   7.838 -0.1652  0.2325  0.4786
  599MOL0     C80784   9.498   5.373   7.985  0.2794  0.5653  0.3719
  599MOL0     C80785   9.460   5.238   7.963 -0.2482  0.2851  0.1186
  599MOL0     C80786   9.329   5.191   7.994 -0.2579  0.1379 -0.1334
  599MOL0     C80787   9.230   5.281   8.027  0.1715  0.3462 -0.9965
  599MOL0     O80788   9.105   5.217   8.053 -0.0460 -0.6343  0.2272
  599MOL0     C80789   8.988   5.302   8.071  0.3125 -0.6772 -1.1896
  599MOL0     C80790   8.932   5.347   7.935  0.6714 -0.3675  0.2390
  599MOL0     C80791   8.871   5.228   7.862 -0.1518  0.1477  0.0047
  599MOL0     C80792   8.854   5.248   7.716 -0.0581  0.1025 -0.2446
  599MOL0     C80793   8.747   5.346   7.687  0.3819  0.5135  0.7460
  599MOL0     C80794   8.652   5.424   7.666  0.3099  0.6294 -0.5055
  599MOL0     C80795   9.263   5.411   8.034 -0.4514 -0.3795  1.3554
  599MOL0     C80796   9.391   5.461   8.013 -0.1138  0.0824  0.6446
  599MOL0     C80797   9.409   5.613   8.021 -0.1882  0.0496 -0.8217
  599MOL0     H80798   9.875   5.466   8.121  0.6887 -0.0547 -0.2392
  599MOL0     H80799  10.124   5.492   8.129  3.1417 -0.3728 -1.3526
  599MOL0     H80800  10.288   5.615   7.957 -0.7147 -0.3571 -2.7043
  599MOL0     H80801  10.318   5.490   8.077 -3.8978  1.0256  1.0938
  599MOL0     H80802  10.495   5.569   7.826  0.4481 -0.8624 -1.3766
  599MOL0     H80803  10.524   5.430   7.912 -1.2750  0.0421 -2.3182
  599MOL0     H80804  10.580   5.535   8.118  1.1525  0.5687 -0.7759
  599MOL0     H80805  10.505   5.688   8.058 -0.0002  0.7918  0.3103
  599MOL0     H80806  10.756   5.532   7.960 -0.5741 -1.3556  3.4014
  599MOL0     H80807  10.697   5.682   7.881 -1.6752  0.8318  1.4058
  599MOL0     H80808  10.883   5.743   8.013  1.6076 -0.0638  1.2244
  599MOL0     H80809  10.728   5.799   8.078  0.1321  1.3829 -0.3981
  599MOL0     H80810  10.744   5.577   8.234  1.9365 -0.9247  3.8163
  599MOL0     H80811  10.904   5.570   8.196  0.3221  0.6994  1.5994
  599MOL0     H80812  10.779   5.820   8.318  1.1283  1.5683  2.8823
  599MOL0     H80813  10.953   5.788   8.294 -0.8882  1.4628  1.9902
  599MOL0     H80814  10.785   5.619   8.475  0.2889  1.9026  1.2176
  599MOL0     H80815  10.946   5.597   8.425  2.4379  2.5333  1.7666
  599MOL0     H80816  11.068   5.867   8.430 -0.3615 -1.0937 -0.7275
  599MOL0     H80817  11.195   6.041   8.596 -0.2642 -0.4704  0.3616
  599MOL0     H80818  11.141   6.043   8.763 -2.5063  3.1311 -1.9528
  599MOL0     H80819  11.286   5.880   8.823 -1.7949  1.0477 -0.3932
  599MOL0     H80820  11.346   5.846   8.650 -1.3536  1.0903 -1.8493
  599MOL0     H80821  11.390   6.097   8.819  3.7900  0.6832  0.1217
  599MOL0     H80822  11.405   6.099   8.642 -0.1583  1.5514  0.6623
  599MOL0     H80823  11.624   6.059   8.705  0.2527 -0.0037  2.3888
  599MOL0     H80824  11.578   5.885   8.694  0.6743 -1.4312  3.3831
  599MOL0     H80825  11.680   5.948   9.121 -1.4849  0.1955 -1.1517
  599MOL0     H80826  11.916   5.904   9.192 -0.0042 -0.1165 -0.3513
  599MOL0     H80827  12.391   6.001   9.071 -0.1194 -1.5384  2.7425
  599MOL0     H80828  12.632   5.996   9.057 -1.3348  2.0382 -2.0759
  599MOL0     H80829  12.826   5.598   8.991  2.1239 -0.0180  0.2166
  599MOL0     H80830  12.822   5.668   8.815 -3.0415  0.3483  0.1173
  599MOL0     H80831  13.028   5.791   8.894 -1.5878 -0.3356 -2.0731
  599MOL0     H80832  13.014   5.704   9.049 -2.1521  0.1728  0.0247
  599MOL0     H80833  13.098   5.499   8.940  1.4211  0.3003 -1.8786
  599MOL0     H80834  13.002   5.553   8.800  1.2425  1.4112 -1.0716
  599MOL0     H80835  13.203   5.677   8.732 -0.3436 -2.5035 -3.5683
  599MOL0     H80836  13.234   5.511   8.759  0.5251 -1.9470  2.1606
  599MOL0     H80837  13.362   5.563   8.967  1.1401 -0.2340 -0.5500
  599MOL0     H80838  13.279   5.723   8.988 -1.7407 -1.3191  0.6525
  599MOL0     H80839  13.480   5.638   8.765 -2.4777 -2.0597  0.6937
  599MOL0     H80840  13.410   5.798   8.779 -2.5197  1.0794  2.2690
  599MOL0     H80841  13.602   5.663   8.987  0.6209  1.8800  1.6910
  599MOL0     H80842  13.528   5.809   9.027  0.4194  1.4290 -0.6101
  599MOL0     H80843  13.642   5.929   8.837  1.2601 -0.1957  0.6421
  599MOL0     H80844  13.750   5.861   8.960  0.1805  0.1991 -0.6177
  599MOL0     H80845  12.595   5.601   8.869 -1.1262 -0.0173  0.4710
  599MOL0     H80846  12.346   5.637   8.871  1.3405 -1.6483 -1.6720
  599MOL0     H80847  12.045   5.863   8.789  0.1471  1.7660 -0.6658
  599MOL0     H80848  11.812   5.900   8.708  2.6255 -0.2567 -1.4425
  599MOL0     H80849  10.123   5.316   7.726  0.6185 -1.0201  1.0646
  599MOL0     H80850   9.888   5.245   7.767  2.2413 -1.9994  0.5649
  599MOL0     H80851   9.536   5.174   7.919 -0.6660  0.0013 -0.2078
  599MOL0     H80852   9.319   5.088   7.961 -3.2716  0.4381 -0.4828
  599MOL0     H80853   9.009   5.392   8.128  0.3924  1.0422 -3.7751
  599MOL0     H80854   8.907   5.257   8.130 -0.4830  1.8223 -0.2344
  599MOL0     H80855   9.008   5.391   7.870 -1.1843  2.9254  0.1011
  599MOL0     H80856   8.855   5.425   7.942 -0.3346 -1.2362 -0.7223
  599MOL0     H80857   8.771   5.214   7.903  0.0393 -1.5518 -0.0286
  599MOL0     H80858   8.924   5.134   7.879 -1.7312 -1.2079 -2.0644
  599MOL0     H80859   8.944   5.274   7.661  0.8605  0.3692  1.3117
  599MOL0     H80860   8.812   5.152   7.684 -2.2292 -0.1289  2.7784
  599MOL0     H80861   8.584   5.507   7.664  0.4196  0.9782  3.3371
  599MOL0     H80862   9.186   5.487   8.044 -0.8406 -0.6531  0.4491
  599MOL0     H80863   9.438   5.661   7.927  0.0316  1.6442  0.0271
  599MOL0     H80864   9.321   5.669   8.052 -1.2926 -0.8062 -2.2607
  599MOL0     H80865   9.494   5.642   8.083  0.0003 -0.1601 -0.9818
  600MOL0     O80866   4.525   0.382   2.774  0.1257  0.1593 -0.1234
  600MOL0     C80867   4.462   0.490   2.769  0.6238  0.3225 -0.0018
  600MOL0     O80868   4.508   0.599   2.698  0.3176 -0.3550 -0.2398
  600MOL0     C80869   4.639   0.604   2.684 -0.7556 -1.0371  0.2233
  600MOL0     C80870   4.734   0.614   2.781  0.0139 -0.3190 -0.6661
  600MOL0     C80871   4.862   0.651   2.756 -0.0406 -0.2239 -0.0594
  600MOL0     C80872   4.903   0.658   2.634  0.5781 -0.1260  0.5818
  600MOL0     O80873   5.035   0.688   2.608 -0.1698  0.6028 -0.0216
  600MOL0     C80874   5.101   0.789   2.675 -0.1048 -1.1909  0.8389
  600MOL0     C80875   5.250   0.769   2.679  0.0484 -0.5119 -0.8035
  600MOL0     C80876   5.287   0.645   2.763  0.5501  0.5180  0.1755
  600MOL0     C80877   5.437   0.615   2.772  0.2573  0.2484  0.3416
  600MOL0     C80878   5.453   0.490   2.859 -0.1189  0.5913  0.0800
  600MOL0     C80879   5.598   0.463   2.904 -0.9050  0.3406  0.9260
  600MOL0     C80880   5.695   0.439   2.785 -0.3856 -0.0327 -1.3477
  600MOL0     C80881   5.844   0.456   2.824 -0.4875  0.4657 -0.0097
  600MOL0     N80882   5.939   0.457   2.713 -0.7217  0.7875 -0.4101
  600MOL0     C80883   6.051   0.532   2.690  1.4131 -0.0422 -0.0309
  600MOL0     C80884   6.111   0.492   2.575  0.1736 -0.0015  0.6824
  600MOL0     C80885   6.241   0.539   2.514  1.0069  0.0824 -0.7247
  600MOL0     C80886   6.361   0.514   2.602  0.0621  0.6875 -0.0961
  600MOL0     C80887   6.414   0.367   2.588  0.3552 -0.3047  0.7792
  600MOL0     C80888   6.543   0.350   2.680  1.0993  0.5174  0.3698
  600MOL0     O80889   6.634   0.440   2.622 -0.3368 -0.0746  0.7248
  600MOL0     C80890   6.769   0.409   2.652 -0.2229  0.7988  0.4555
  600MOL0     C80891   6.804   0.373   2.784  0.3712  0.2045 -0.1746
  600MOL0     C80892   6.941   0.352   2.815  0.0386  0.4140  0.3153
  600MOL0     C80893   7.035   0.382   2.713  0.9331 -0.3960 -0.3576
  600MOL0     C80894   7.182   0.375   2.740 -0.8237  0.3778  0.3069
  600MOL0     O80895   7.275   0.364   2.641 -0.6840  0.0373  0.6689
  600MOL0     C80896   7.411   0.407   2.644  0.5382  0.3455 -0.5413
  600MOL0     C80897   7.460   0.505   2.734  0.8284 -0.2865 -0.1669
  600MOL0     C80898   7.593   0.549   2.726  0.9900  1.1099 -0.8149
  600MOL0     C80899   7.681   0.484   2.638  0.6645  0.3631  0.2721
  600MOL0     O80900   7.816   0.516   2.619  0.1422 -0.1258 -0.5714
  600MOL0     C80901   7.864   0.643   2.678  0.3950  0.6230  0.1100
  600MOL0     C80902   7.999   0.692   2.620 -0.0811  0.2952 -0.1451
  600MOL0     C80903   8.124   0.599   2.647  0.6083 -0.0032  0.0380
  600MOL0     C80904   8.252   0.686   2.658  0.4415 -0.1376 -0.6094
  600MOL0     C80905   8.382   0.608   2.658 -0.5144  0.0119 -0.5083
  600MOL0     C80906   8.425   0.556   2.797 -0.2179  0.3146  1.2808
  600MOL0     C80907   8.543   0.462   2.786 -0.1544  0.1470  0.0735
  600MOL0     C80908   8.613   0.432   2.916  0.0329  0.8592  0.8336
  600MOL0    Cl80909   8.513   0.328   3.015 -0.2070 -0.2043 -0.4499
  600MOL0     C80910   7.630   0.383   2.545  0.0069  0.5710  0.1115
  600MOL0     C80911   7.494   0.346   2.547 -0.3143 -0.4876 -0.5848
  600MOL0     O80912   7.216   0.368   2.858 -0.7186 -0.4103 -0.1847
  600MOL0     C80913   7.004   0.441   2.596 -0.2351 -0.4687  0.3309
  600MOL0     C80914   6.872   0.447   2.564  0.0550 -0.0032 -0.4755
  600MOL0     N80915   6.035   0.389   2.527 -0.2727 -0.3968  0.7813
  600MOL0     N80916   5.936   0.373   2.606 -0.1202 -0.3121  0.2139
  600MOL0     C80917   4.818   0.644   2.524  0.0379  0.0335 -0.1746
  600MOL0     C80918   4.683   0.626   2.550  0.1461  0.3846 -0.1617
  600MOL0     C80919   4.332   0.489   2.832  0.0983  0.5526  0.3489
  600MOL0     C80920   4.237   0.588   2.798 -0.0559  0.2163 -0.9442
  600MOL0     C80921   4.119   0.617   2.862  0.0537 -0.4408 -0.3478
  600MOL0     C80922   4.082   0.531   2.966  0.2796 -0.8599  0.0578
  600MOL0     O80923   3.965   0.574   3.032 -0.0241  0.7849  0.3542
  600MOL0     C80924   3.911   0.474   3.121  0.1727 -0.0207 -0.2618
  600MOL0     C80925   3.772   0.520   3.150 -0.3070 -0.2024 -0.1102
  600MOL0     C80926   3.740   0.635   3.244  0.5280 -0.1271  0.2233
  600MOL0     C80927   3.833   0.653   3.369  0.0803  0.0506 -0.6995
  600MOL0     C80928   3.969   0.698   3.348 -0.5222  0.1007 -0.8091
  600MOL0     C80929   4.084   0.728   3.317 -0.2270  1.0098 -0.3078
  600MOL0     C80930   4.172   0.429   3.011 -0.9501  0.1025 -0.1103
  600MOL0     C80931   4.293   0.407   2.944 -0.2124 -0.4228  0.3498
  600MOL0     C80932   4.389   0.303   3.004 -0.0839  0.3585 -0.9106
  600MOL0     H80933   4.703   0.601   2.884  1.7517  1.1106  0.0868
  600MOL0     H80934   4.926   0.660   2.843  0.2499 -0.2184 -0.2693
  600MOL0     H80935   5.077   0.871   2.608  0.2211 -1.1253  0.8017
  600MOL0     H80936   5.067   0.811   2.777 -2.1623  0.0108 -0.0375
  600MOL0     H80937   5.291   0.859   2.726 -4.2731 -0.2240  3.1311
  600MOL0     H80938   5.277   0.762   2.573 -2.0469 -0.6388 -1.3723
  600MOL0     H80939   5.237   0.557   2.723  0.4085  1.1661 -1.1197
  600MOL0     H80940   5.254   0.663   2.866  0.4378 -1.8957  0.6286
  600MOL0     H80941   5.481   0.598   2.673  3.2082 -0.0419  1.5881
  600MOL0     H80942   5.483   0.703   2.819 -1.0975  0.7183  0.8310
  600MOL0     H80943   5.396   0.506   2.951 -2.5322 -2.5162 -0.6976
  600MOL0     H80944   5.418   0.399   2.810 -1.2673  1.1314 -0.1484
  600MOL0     H80945   5.635   0.555   2.952  1.9846  0.3701 -1.0794
  600MOL0     H80946   5.606   0.393   2.988 -1.4684 -0.5889  0.2183
  600MOL0     H80947   5.679   0.502   2.697  2.4405  2.1494 -0.4371
  600MOL0     H80948   5.698   0.336   2.747 -0.2360 -0.4782 -0.1688
  600MOL0     H80949   5.855   0.545   2.886 -1.7207  1.3747 -1.0439
  600MOL0     H80950   5.874   0.370   2.885 -0.8620  0.2084 -0.1809
  600MOL0     H80951   6.085   0.611   2.756  1.5461  0.4022 -0.6307
  600MOL0     H80952   6.248   0.486   2.419  0.7598  1.5268 -1.5717
  600MOL0     H80953   6.227   0.647   2.502 -2.5201 -0.1795  0.0515
  600MOL0     H80954   6.441   0.576   2.560  0.8835 -0.6691 -0.6209
  600MOL0     H80955   6.339   0.556   2.700 -1.9874  1.4430 -0.8276
  600MOL0     H80956   6.445   0.348   2.485  1.3609 -1.0077  1.1928
  600MOL0     H80957   6.340   0.290   2.609  1.6903 -2.3462 -1.5274
  600MOL0     H80958   6.574   0.245   2.673 -0.1493  0.2202 -1.9199
  600MOL0     H80959   6.515   0.367   2.784  0.0457  2.4729 -0.1794
  600MOL0     H80960   6.741   0.367   2.872  0.4691  0.3595 -0.0918
  600MOL0     H80961   6.973   0.326   2.916  0.2916  2.4245  0.7980
  600MOL0     H80962   7.390   0.553   2.801 -0.9771 -0.2264 -1.9962
  600MOL0     H80963   7.625   0.629   2.791  2.6487  2.0987 -2.7459
  600MOL0     H80964   7.790   0.721   2.662 -1.0213 -0.8388 -0.7817
  600MOL0     H80965   7.871   0.620   2.785 -1.3455  3.3505  0.9227
  600MOL0     H80966   7.989   0.705   2.512 -3.2336 -1.0807 -0.1288
  600MOL0     H80967   8.016   0.787   2.672 -0.4549 -1.6494  3.9436
  600MOL0     H80968   8.130   0.551   2.745  2.2968  1.9332  0.9725
  600MOL0     H80969   8.128   0.525   2.567 -1.2521 -3.2417  2.7062
  600MOL0     H80970   8.249   0.750   2.747  1.0074 -1.7479  0.6161
  600MOL0     H80971   8.261   0.763   2.581  1.6030  0.3394 -0.0141
  600MOL0     H80972   8.461   0.673   2.619 -0.4645  0.3658  0.1642
  600MOL0     H80973   8.370   0.522   2.591 -0.9751  2.1802 -3.4216
  600MOL0     H80974   8.449   0.649   2.851 -2.3328  1.4239  0.4155
  600MOL0     H80975   8.336   0.507   2.837 -1.2134  1.4280  0.4914
  600MOL0     H80976   8.625   0.510   2.733 -1.6093  2.4003 -0.2678
  600MOL0     H80977   8.503   0.368   2.748  0.5167  0.5544 -1.7367
  600MOL0     H80978   8.708   0.378   2.903 -1.3651 -1.6958  0.5745
  600MOL0     H80979   8.634   0.528   2.964  1.4245  0.3359  1.3441
  600MOL0     H80980   7.700   0.327   2.484  0.9314  1.1319  0.6519
  600MOL0     H80981   7.452   0.277   2.475 -0.1696 -0.3693 -0.7819
  600MOL0     H80982   7.084   0.465   2.526  2.0063 -2.6166  1.9571
  600MOL0     H80983   6.847   0.487   2.466 -0.2500 -1.0117 -0.8222
  600MOL0     H80984   4.853   0.651   2.421 -0.8527 -0.0559 -0.4908
  600MOL0     H80985   4.613   0.615   2.469 -0.2476 -0.8952  0.3398
  600MOL0     H80986   4.245   0.641   2.704 -1.0351 -0.1663 -1.2529
  600MOL0     H80987   4.054   0.698   2.833 -1.6832 -1.6779 -0.0947
  600MOL0     H80988   3.979   0.472   3.207  1.4238 -1.3549 -1.2496
  600MOL0     H80989   3.900   0.374   3.080 -0.7373 -0.0559  0.0337
  600MOL0     H80990   3.724   0.433   3.197 -1.1512 -0.5401 -1.5366
  600MOL0     H80991   3.711   0.539   3.062  0.6686  1.6531 -0.4233
  600MOL0     H80992   3.637   0.626   3.279  0.9037  0.2414  1.4740
  600MOL0     H80993   3.755   0.726   3.185  1.2287 -0.1203  0.3961
  600MOL0     H80994   3.783   0.721   3.438 -0.2025 -0.1252 -0.7252
  600MOL0     H80995   3.837   0.555   3.418 -1.1258  0.6678  0.6676
  600MOL0     H80996   4.189   0.743   3.299 -0.2207  1.6647  0.2391
  600MOL0     H80997   4.144   0.354   3.085  2.6597 -0.5551  0.7997
  600MOL0     H80998   4.351   0.272   3.102 -0.3990  2.6089 -0.2619
  600MOL0     H80999   4.400   0.217   2.938 -1.2109 -1.1949  0.8302
  600MOL0     H81000   4.486   0.351   3.021 -1.0069  2.5255 -1.4841
  601MOL0     O81001  10.962   5.863   2.170  0.3333  0.3361 -0.4178
  601MOL0     C81002  10.929   5.955   2.095 -0.2866  0.4737 -0.4500
  601MOL0     O81003  11.009   6.024   2.011 -0.5660  0.4175  0.4399
  601MOL0     C81004  11.150   5.997   1.993  0.4064 -1.0976  0.3824
  601MOL0     C81005  11.239   5.947   2.089  0.9184  0.2336 -0.0030
  601MOL0     C81006  11.374   5.941   2.059  0.4154 -1.0820 -0.1954
  601MOL0     C81007  11.420   5.965   1.936  0.3300  1.0665  0.3242
  601MOL0     O81008  11.549   5.944   1.924 -0.5358 -0.2487  0.5309
  601MOL0     C81009  11.617   5.982   1.801  0.3376  0.0897  0.6886
  601MOL0     C81010  11.764   5.938   1.787 -1.0867  0.3441 -0.5136
  601MOL0     C81011  11.848   5.938   1.913  0.6922  0.4618  0.1013
  601MOL0     C81012  11.998   5.941   1.877 -0.0995 -0.4252  0.4438
  601MOL0     C81013  12.040   6.088   1.887 -0.4426 -0.3963  0.5857
  601MOL0     C81014  12.179   6.118   1.820  0.1120 -0.4624  0.4932
  601MOL0     C81015  12.164   6.240   1.724 -0.2438  0.5269 -0.0652
  601MOL0     C81016  12.306   6.267   1.672 -0.4695 -0.6781  0.4662
  601MOL0     N81017  12.312   6.360   1.562  0.1806 -0.0488  0.2186
  601MOL0     C81018  12.414   6.451   1.553  0.3033  0.2873  0.9285
  601MOL0     C81019  12.364   6.543   1.473 -0.9982  0.2657  0.0418
  601MOL0     C81020  12.437   6.670   1.447 -0.5148 -1.4836  0.3349
  601MOL0     C81021  12.354   6.782   1.373  0.1308 -0.2569 -0.4914
  601MOL0     C81022  12.372   6.920   1.433  0.7230 -0.0420  0.0297
  601MOL0     C81023  12.293   7.025   1.357 -0.0269  0.0448  0.8493
  601MOL0     O81024  12.347   7.024   1.218 -0.5786  0.3635 -0.4323
  601MOL0     C81025  12.475   7.055   1.189 -0.1562 -0.0284  0.3206
  601MOL0     C81026  12.556   7.144   1.253  0.7485  0.3013  0.0481
  601MOL0     C81027  12.687   7.165   1.218 -0.5488 -0.4056 -0.2072
  601MOL0     C81028  12.740   7.091   1.112 -0.9747  0.0477  0.2235
  601MOL0     C81029  12.880   7.097   1.080  0.0468 -0.0416  0.3901
  601MOL0     O81030  12.961   7.190   1.152  0.3568  0.2015  0.3787
  601MOL0     C81031  13.092   7.174   1.160 -0.2753 -0.0113  0.6944
  601MOL0     C81032  13.170   7.278   1.205 -0.0766 -0.4433 -0.3299
  601MOL0     C81033  13.304   7.272   1.221  0.1627  0.1698  0.8792
  601MOL0     C81034  13.374   7.154   1.197 -0.1961 -0.4558 -0.5025
  601MOL0     O81035  13.508   7.130   1.216 -0.7978 -0.3946 -0.0738
  601MOL0     C81036  13.590   7.254   1.213 -0.2113 -0.0719  0.1336
  601MOL0     C81037  13.741   7.242   1.205  0.0163  0.7622 -0.2851
  601MOL0     C81038  13.778   7.127   1.112 -0.0146 -0.9851  0.4787
  601MOL0     C81039  13.931   7.126   1.097  0.3059  0.1973  0.5494
  601MOL0     C81040  13.974   7.001   1.013 -0.1375  0.5046  0.8412
  601MOL0     C81041  14.119   7.034   0.980  0.2230 -0.2404  0.3782
  601MOL0     C81042  14.193   6.932   0.912 -0.0188  0.5011  0.4397
  601MOL0     C81043  14.313   6.985   0.847 -0.2176  0.1105  0.4845
  601MOL0    Cl81044  14.437   6.847   0.826 -0.4365 -0.2594  0.0458
  601MOL0     C81045  13.296   7.045   1.174 -0.0746  1.1309 -0.8098
  601MOL0     C81046  13.161   7.047   1.154 -0.3163  0.2907 -0.1920
  601MOL0     O81047  12.919   7.019   0.994  0.2437  0.6072 -0.2748
  601MOL0     C81048  12.649   7.015   1.034 -0.0135 -0.4084  0.5143
  601MOL0     C81049  12.518   7.000   1.071  0.5900 -0.1580  0.0000
  601MOL0     N81050  12.236   6.519   1.442  0.2423 -0.5130  0.2255
  601MOL0     N81051  12.202   6.409   1.494 -0.1119 -0.4987  0.1636
  601MOL0     C81052  11.328   6.034   1.841  0.2027  0.4672 -0.5615
  601MOL0     C81053  11.198   6.050   1.873 -0.3268  0.1006  0.0160
  601MOL0     C81054  10.786   5.991   2.071  0.6618 -0.4776 -1.2976
  601MOL0     C81055  10.694   5.973   2.173  0.3998  1.1588  0.1618
  601MOL0     C81056  10.555   6.000   2.162  0.4359 -0.3577  0.0947
  601MOL0     C81057  10.499   6.055   2.046 -0.5672 -0.1159 -0.6241
  601MOL0     O81058  10.367   6.078   2.051  0.1393 -1.2135 -0.4960
  601MOL0     C81059  10.288   6.131   1.943  0.1306  0.2148 -0.6142
  601MOL0     C81060  10.210   6.251   2.000  0.0024 -0.8800 -0.3101
  601MOL0     C81061  10.131   6.327   1.894  0.4932  0.4368  0.2604
  601MOL0     C81062  10.004   6.253   1.850  0.6172 -0.3709  0.4819
  601MOL0     C81063   9.886   6.288   1.934 -0.9370  0.3258  0.3067
  601MOL0     C81064   9.788   6.320   2.001 -0.5931 -0.3064  0.7109
  601MOL0     C81065  10.588   6.076   1.941 -0.3736 -0.3315 -0.0059
  601MOL0     C81066  10.728   6.051   1.952  0.0720  0.1325  0.2474
  601MOL0     C81067  10.801   6.047   1.823  0.3984  0.1729  0.0222
  601MOL0     H81068  11.209   5.909   2.186  4.0110  1.3789  1.5513
  601MOL0     H81069  11.433   5.898   2.139 -0.2289  1.1545  1.5906
  601MOL0     H81070  11.559   5.958   1.711 -2.5360  1.3909  2.0711
  601MOL0     H81071  11.626   6.090   1.811  4.1807  0.1339 -1.3425
  601MOL0     H81072  11.805   6.010   1.716 -0.2203  1.3664  0.9750
  601MOL0     H81073  11.777   5.835   1.754  2.3070  0.9089 -1.2807
  601MOL0     H81074  11.822   5.846   1.966  2.8249 -0.3121 -0.1252
  601MOL0     H81075  11.822   6.023   1.976  1.2557 -1.1451  2.6286
  601MOL0     H81076  12.050   5.873   1.945  0.3561 -0.9485 -0.4076
  601MOL0     H81077  12.009   5.893   1.779 -1.6088 -0.3975  0.2329
  601MOL0     H81078  11.965   6.133   1.821 -0.1449 -2.1445 -1.0145
  601MOL0     H81079  12.036   6.133   1.987 -3.1960  3.0316 -0.8381
  601MOL0     H81080  12.251   6.146   1.897  1.6020 -0.1910 -0.9443
  601MOL0     H81081  12.214   6.026   1.772 -0.9210 -1.4643  1.5947
  601MOL0     H81082  12.126   6.330   1.772  2.0086  0.8955  1.1548
  601MOL0     H81083  12.099   6.205   1.643 -0.1503 -0.5073  0.2914
  601MOL0     H81084  12.357   6.317   1.756  0.4111  0.8917 -0.9317
  601MOL0     H81085  12.362   6.177   1.646  1.3670  0.5190  0.1065
  601MOL0     H81086  12.506   6.459   1.610  1.0037 -2.3694  0.3337
  601MOL0     H81087  12.462   6.712   1.546 -3.1012 -2.3560  1.4591
  601MOL0     H81088  12.534   6.657   1.399 -0.5197 -0.8565  0.1457
  601MOL0     H81089  12.397   6.778   1.273  1.6230 -0.9714  0.1386
  601MOL0     H81090  12.249   6.754   1.361  0.5327 -2.2901  0.3099
  601MOL0     H81091  12.479   6.944   1.439  0.5012  1.2407 -0.8577
  601MOL0     H81092  12.334   6.916   1.535 -1.0408 -2.3948 -0.6158
  601MOL0     H81093  12.300   7.128   1.393 -4.0890  1.8648 -2.5827
  601MOL0     H81094  12.190   6.989   1.359  0.3579 -1.2540 -0.6759
  601MOL0     H81095  12.525   7.201   1.340  0.9168  1.1844 -0.4627
  601MOL0     H81096  12.755   7.227   1.276  1.4580 -2.2145 -0.5108
  601MOL0     H81097  13.123   7.374   1.224  0.9736  0.5154 -2.3009
  601MOL0     H81098  13.357   7.358   1.261  1.4556 -0.3005  0.2317
  601MOL0     H81099  13.550   7.316   1.132 -2.6897 -1.5346  0.1386
  601MOL0     H81100  13.570   7.308   1.305  1.1098 -0.9565  0.9871
  601MOL0     H81101  13.779   7.341   1.177 -3.2579  2.2577  0.0927
  601MOL0     H81102  13.779   7.217   1.305 -0.2448 -1.6618 -0.7254
  601MOL0     H81103  13.746   7.030   1.150  1.4546 -1.5291  0.4039
  601MOL0     H81104  13.735   7.150   1.014 -0.4634  4.0276  1.5888
  601MOL0     H81105  13.987   7.130   1.191 -0.3226  0.6864  0.9116
  601MOL0     H81106  13.958   7.219   1.046 -1.5450  0.9526  0.8421
  601MOL0     H81107  13.906   6.996   0.928  0.0877  1.8146  0.5593
  601MOL0     H81108  13.961   6.914   1.078  1.5053 -0.2893  0.1446
  601MOL0     H81109  14.117   7.125   0.919  2.2329  0.1690  0.8280
  601MOL0     H81110  14.170   7.064   1.072 -0.7079 -1.5309  1.3434
  601MOL0     H81111  14.138   6.882   0.832  0.8876  1.1553 -0.6266
  601MOL0     H81112  14.223   6.859   0.988  0.1184  2.6012  2.4887
  601MOL0     H81113  14.282   7.031   0.753 -2.9072 -1.2051  0.6174
  601MOL0     H81114  14.362   7.057   0.913 -0.8429  0.0892  0.9778
  601MOL0     H81115  13.345   6.948   1.164  2.4297  1.6187  3.6524
  601MOL0     H81116  13.113   6.953   1.131  2.1609 -1.1045 -0.0498
  601MOL0     H81117  12.680   6.970   0.940  0.6559  0.1045  0.4783
  601MOL0     H81118  12.446   6.943   1.013 -2.3693  1.5401  1.7670
  601MOL0     H81119  11.359   6.076   1.746 -1.7516  1.5952 -0.7563
  601MOL0     H81120  11.131   6.100   1.803 -2.0754 -0.2199  1.3999
  601MOL0     H81121  10.745   5.937   2.261  2.0471  0.9073 -0.8520
  601MOL0     H81122  10.476   5.982   2.234  0.2660  1.0200  0.2705
  601MOL0     H81123  10.218   6.061   1.896  2.2216 -0.6583 -2.5967
  601MOL0     H81124  10.356   6.167   1.866  0.3693  0.5806 -0.2352
  601MOL0     H81125  10.286   6.308   2.055 -1.8560 -0.6902  2.2441
  601MOL0     H81126  10.144   6.210   2.077 -0.4150  0.3501  0.0157
  601MOL0     H81127  10.200   6.341   1.811  0.7529  0.2239  0.4358
  601MOL0     H81128  10.097   6.424   1.932 -0.7120  0.2908 -0.3969
  601MOL0     H81129   9.976   6.279   1.748  1.3905  3.5522  1.1162
  601MOL0     H81130  10.009   6.145   1.864 -3.4116 -0.8627 -0.4393
  601MOL0     H81131   9.709   6.356   2.064 -0.3476  2.1456 -0.2859
  601MOL0     H81132  10.550   6.117   1.848  0.9640 -1.2093 -0.9653
  601MOL0     H81133  10.841   5.947   1.802  1.0695  0.9315 -2.7910
  601MOL0     H81134  10.738   6.055   1.734 -0.0373  0.0321  0.3181
  601MOL0     H81135  10.888   6.113   1.819 -0.7840  1.7510 -0.8989
  602MOL0     O81136   1.150   0.137   6.496 -0.3092  0.5018  0.1897
  602MOL0     C81137   1.100   0.028   6.503  0.3507  0.2937 -0.4105
  602MOL0     O81138   1.150  -0.084   6.464 -0.2554  0.2073 -0.7570
  602MOL0     C81139   1.287  -0.112   6.454 -0.4256 -1.1871  0.4581
  602MOL0     C81140   1.385  -0.015   6.416  0.2180  0.3019  0.8812
  602MOL0     C81141   1.517  -0.043   6.413  0.5610  0.5873  0.5229
  602MOL0     C81142   1.561  -0.174   6.444  0.2451 -0.3959 -0.5288
  602MOL0     O81143   1.688  -0.214   6.435  0.5171  0.0505  0.0814
  602MOL0     C81144   1.758  -0.162   6.543 -1.1385 -0.4502  0.4752
  602MOL0     C81145   1.880  -0.250   6.566 -0.7385  0.5497  0.8959
  602MOL0     C81146   1.846  -0.385   6.634  0.2083 -0.0412 -0.4333
  602MOL0     C81147   1.984  -0.463   6.669  0.5522  0.3975 -0.0219
  602MOL0     C81148   1.969  -0.596   6.746 -0.0970 -0.2144  0.2135
  602MOL0     C81149   1.908  -0.714   6.673 -0.1221  0.6169 -0.8968
  602MOL0     C81150   1.883  -0.821   6.780  0.6818  0.0422  0.0637
  602MOL0     C81151   1.854  -0.957   6.706  0.3665  0.2914  0.1202
  602MOL0     N81152   1.979  -0.997   6.643  0.8928 -0.8195  0.0170
  602MOL0     C81153   2.098  -1.038   6.693  0.6861  0.4457 -0.7846
  602MOL0     C81154   2.178  -1.049   6.594  0.2151  1.1830  0.8373
  602MOL0     C81155   2.320  -1.087   6.603 -0.4852 -0.5513  0.2626
  602MOL0     C81156   2.411  -0.962   6.608  0.3549  0.2988 -0.1801
  602MOL0     C81157   2.410  -0.891   6.480 -0.4379 -0.5084  0.2110
  602MOL0     C81158   2.494  -0.758   6.478  0.1397  0.8917 -0.7636
  602MOL0     O81159   2.413  -0.650   6.517  0.0568  0.2147  0.4284
  602MOL0     C81160   2.481  -0.537   6.534  0.5699 -0.8577  0.5402
  602MOL0     C81161   2.610  -0.505   6.494 -0.0436  0.3008  0.2820
  602MOL0     C81162   2.661  -0.380   6.506  0.4938 -0.7735 -0.3894
  602MOL0     C81163   2.583  -0.280   6.575 -0.2172 -0.5458 -0.3202
  602MOL0     C81164   2.641  -0.150   6.623  0.1767  0.1744  0.4645
  602MOL0     O81165   2.580  -0.096   6.730 -0.1187 -0.0890  0.8086
  602MOL0     C81166   2.637   0.016   6.799  0.2081 -0.1033  0.5200
  602MOL0     C81167   2.685   0.126   6.730  0.1487 -0.4169  0.5635
  602MOL0     C81168   2.717   0.243   6.796 -0.0014 -0.5651 -0.1869
  602MOL0     C81169   2.701   0.252   6.931  0.7333  0.4570  0.1235
  602MOL0     O81170   2.748   0.356   7.008 -0.2825 -0.0497 -0.0473
  602MOL0     C81171   2.783   0.473   6.933 -0.2192 -0.0284 -0.1507
  602MOL0     C81172   2.796   0.577   7.039  0.3031 -0.5750 -0.2318
  602MOL0     C81173   2.660   0.645   7.086 -0.0881  0.3492 -0.4745
  602MOL0     C81174   2.700   0.787   7.134 -0.4032  0.7844 -0.2601
  602MOL0     C81175   2.575   0.866   7.183 -0.0752 -0.0748  0.7838
  602MOL0     C81176   2.482   0.925   7.073 -0.3371  0.6757 -0.2159
  602MOL0     C81177   2.382   1.027   7.137  0.4128 -0.6689  0.3087
  602MOL0     C81178   2.300   1.106   7.025  0.2444 -0.6696 -0.0622
  602MOL0    Cl81179   2.192   1.209   7.134 -0.5134 -0.0722 -0.1294
  602MOL0     C81180   2.652   0.140   6.998 -0.4115  0.3840  0.2910
  602MOL0     C81181   2.622   0.020   6.934 -0.7000 -0.0879  0.0514
  602MOL0     O81182   2.745  -0.114   6.570 -0.3703 -0.3344 -0.0923
  602MOL0     C81183   2.448  -0.308   6.615  0.3630  0.0266  0.0404
  602MOL0     C81184   2.401  -0.437   6.583  0.1476  0.7594 -0.5906
  602MOL0     N81185   2.108  -1.041   6.477  0.1159 -0.6320 -0.5937
  602MOL0     N81186   1.988  -1.013   6.514  0.0853  0.0036  0.4018
  602MOL0     C81187   1.467  -0.271   6.465 -0.2346 -0.2745  0.8525
  602MOL0     C81188   1.331  -0.239   6.467 -0.0476 -0.0352  1.0109
  602MOL0     C81189   0.958   0.023   6.541 -0.3447  0.0278  0.1075
  602MOL0     C81190   0.901  -0.107   6.564 -0.1614 -0.2735 -0.1129
  602MOL0     C81191   0.766  -0.123   6.601  0.4692  0.2416 -0.1130
  602MOL0     C81192   0.679  -0.010   6.617  0.5775  0.1374  0.6919
  602MOL0     O81193   0.551  -0.048   6.651  0.9078  0.1536  0.0943
  602MOL0     C81194   0.462   0.066   6.651  0.3277  1.0191 -0.5951
  602MOL0     C81195   0.325   0.036   6.716 -0.4290  0.0638  1.0150
  602MOL0     C81196   0.229   0.148   6.697  0.0607 -0.1962 -0.5205
  602MOL0     C81197   0.090   0.107   6.734  0.2060 -0.4019  0.0079
  602MOL0     C81198   0.028   0.011   6.644 -0.5994 -0.7858  0.9492
  602MOL0     C81199  -0.024  -0.056   6.557 -0.5889 -0.5845 -0.1088
  602MOL0     C81200   0.732   0.119   6.593 -0.0421  0.0123  0.0132
  602MOL0     C81201   0.870   0.140   6.552  0.2781 -0.3876 -0.0884
  602MOL0     C81202   0.899   0.279   6.513 -0.6628 -0.6345 -0.1583
  602MOL0     H81203   1.349   0.085   6.393 -0.5069  0.4187  2.3669
  602MOL0     H81204   1.585   0.035   6.381  0.2612  0.6461  0.0093
  602MOL0     H81205   1.809  -0.069   6.517  3.3942 -2.7637  0.2097
  602MOL0     H81206   1.700  -0.146   6.635 -3.3753 -0.0154 -0.9266
  602MOL0     H81207   1.948  -0.193   6.630  0.5558 -1.3878  1.3617
  602MOL0     H81208   1.920  -0.271   6.466  0.3675  0.7107  1.2889
  602MOL0     H81209   1.773  -0.442   6.576  0.9473 -2.0408  0.5263
  602MOL0     H81210   1.781  -0.369   6.722 -1.9818  0.6303 -2.0671
  602MOL0     H81211   2.042  -0.483   6.579  0.6560 -0.4020  0.2117
  602MOL0     H81212   2.033  -0.390   6.733 -0.4587  1.2065 -0.1469
  602MOL0     H81213   2.070  -0.626   6.775  0.4054  0.2928 -0.9810
  602MOL0     H81214   1.914  -0.571   6.837 -1.5662  1.6801 -1.1326
  602MOL0     H81215   1.824  -0.690   6.607 -0.6338 -2.3998 -1.4905
  602MOL0     H81216   1.984  -0.752   6.603  0.0094  0.9634 -0.9425
  602MOL0     H81217   1.795  -0.799   6.842  1.3440  1.0238  0.6757
  602MOL0     H81218   1.965  -0.825   6.852  0.8488  1.1466 -0.0413
  602MOL0     H81219   1.815  -1.039   6.767  0.4316 -1.3922 -1.9740
  602MOL0     H81220   1.786  -0.952   6.621 -0.3920 -2.9846  0.3848
  602MOL0     H81221   2.121  -1.052   6.798 -1.4705  1.0372 -0.1672
  602MOL0     H81222   2.344  -1.152   6.687 -0.3538 -3.8512 -2.1011
  602MOL0     H81223   2.331  -1.145   6.510 -0.6005 -0.6219  0.2928
  602MOL0     H81224   2.364  -0.902   6.687 -1.6427 -2.2833  0.7284
  602MOL0     H81225   2.513  -0.988   6.637  0.4231  1.0244  0.2473
  602MOL0     H81226   2.313  -0.847   6.456  0.0654 -0.9467 -3.0525
  602MOL0     H81227   2.437  -0.952   6.394  0.0383  1.7163 -1.3231
  602MOL0     H81228   2.548  -0.750   6.384  1.0840  1.3165 -0.1967
  602MOL0     H81229   2.577  -0.768   6.548 -2.0936  2.0719  2.3045
  602MOL0     H81230   2.676  -0.583   6.455  0.5007 -0.1444  2.0115
  602MOL0     H81231   2.767  -0.373   6.483  1.8200 -2.7374  3.9862
  602MOL0     H81232   2.686   0.134   6.621  3.3629  2.7426  0.6316
  602MOL0     H81233   2.745   0.332   6.741 -1.9654  0.7528  0.7992
  602MOL0     H81234   2.880   0.456   6.885 -1.5849  0.1050 -3.1981
  602MOL0     H81235   2.716   0.504   6.852 -1.1381 -1.5308  0.0128
  602MOL0     H81236   2.847   0.537   7.127 -1.7591  0.4366  1.5150
  602MOL0     H81237   2.849   0.663   6.996  0.2575 -0.4294  0.0053
  602MOL0     H81238   2.587   0.651   7.004  3.0022 -1.0581 -3.5656
  602MOL0     H81239   2.622   0.588   7.172  2.7024 -2.1067 -0.7237
  602MOL0     H81240   2.744   0.837   7.047  1.7110 -1.0275 -0.2957
  602MOL0     H81241   2.774   0.777   7.214 -0.6093 -0.0554 -0.1714
  602MOL0     H81242   2.609   0.946   7.250 -0.0213  0.4739  0.1040
  602MOL0     H81243   2.513   0.796   7.240  1.8048 -1.7738  0.8546
  602MOL0     H81244   2.539   0.972   6.993 -1.9845  2.8625 -0.1738
  602MOL0     H81245   2.435   0.830   7.044 -0.7396 -0.1239  2.7071
  602MOL0     H81246   2.434   1.092   7.209  2.1192 -0.6330 -0.8996
  602MOL0     H81247   2.299   0.984   7.194 -0.2686 -0.2825 -0.3638
  602MOL0     H81248   2.364   1.164   6.958 -0.3869 -0.5813 -0.5990
  602MOL0     H81249   2.236   1.049   6.957 -2.0180 -1.0203  2.1835
  602MOL0     H81250   2.664   0.155   7.105 -1.6177 -1.2485  0.6918
  602MOL0     H81251   2.586  -0.076   6.971 -0.1674 -0.8001 -1.2183
  602MOL0     H81252   2.387  -0.233   6.664 -1.3180 -1.5882  0.5329
  602MOL0     H81253   2.300  -0.469   6.608  0.8870 -1.0256  0.3641
  602MOL0     H81254   1.511  -0.370   6.471  1.6470  0.2154 -2.6995
  602MOL0     H81255   1.256  -0.317   6.474  0.4535 -0.9563 -2.2265
  602MOL0     H81256   0.963  -0.196   6.560 -1.2586 -1.2698  2.5619
  602MOL0     H81257   0.720  -0.222   6.603 -1.5162  1.1308  0.4986
  602MOL0     H81258   0.434   0.105   6.553 -2.1839  1.1144  0.0994
  602MOL0     H81259   0.497   0.152   6.709 -1.0824 -0.0694  2.0451
  602MOL0     H81260   0.337   0.019   6.823 -1.3220  2.0761  1.4807
  602MOL0     H81261   0.280  -0.055   6.676 -0.6718  1.2925 -1.7893
  602MOL0     H81262   0.235   0.181   6.593  4.1340  0.5078 -0.2262
  602MOL0     H81263   0.262   0.237   6.751 -2.0907  0.0788  0.4694
  602MOL0     H81264   0.098   0.058   6.831  0.1862  1.4181  0.9767
  602MOL0     H81265   0.018   0.188   6.744 -2.5263 -2.6886 -0.0563
  602MOL0     H81266  -0.067  -0.122   6.485  0.3099 -1.2565 -0.0450
  602MOL0     H81267   0.662   0.200   6.611  0.5002  0.3985  0.3897
  602MOL0     H81268   0.814   0.339   6.480  0.9192  0.7718 -1.9401
  602MOL0     H81269   0.942   0.328   6.601 -0.6479 -1.9069  0.5650
  602MOL0     H81270   0.971   0.277   6.430 -0.6926 -2.6445 -0.1686
  603MOL0     O81271   7.780   0.158   8.843  0.1340  0.0472  0.0847
  603MOL0     C81272   7.836   0.122   8.946  0.1449  0.5070 -0.0372
  603MOL0     O81273   7.779   0.054   9.045  0.3305 -0.5571 -0.1118
  603MOL0     C81274   7.650   0.070   9.054  0.5671 -0.7008  0.0095
  603MOL0     C81275   7.559  -0.028   9.016 -0.5399  0.0951  0.2639
  603MOL0     C81276   7.424  -0.009   9.042 -0.7881 -0.0407 -0.4592
  603MOL0     C81277   7.378   0.108   9.108 -0.1013 -0.1483  0.1113
  603MOL0     O81278   7.252   0.134   9.138  0.7619 -0.4153 -0.0500
  603MOL0     C81279   7.166   0.018   9.174 -0.1259 -0.0249 -0.1844
  603MOL0     C81280   7.029   0.060   9.224 -0.1011  0.4798  0.2271
  603MOL0     C81281   6.938  -0.067   9.243 -0.5831  0.8036  1.0784
  603MOL0     C81282   6.959  -0.140   9.379 -0.1945  0.4804  0.2003
  603MOL0     C81283   6.899  -0.281   9.375  0.1895 -0.3771 -0.0408
  603MOL0     C81284   6.912  -0.353   9.502  0.4664  0.2382  0.1883
  603MOL0     C81285   6.898  -0.505   9.479 -0.1253  0.0326 -0.0030
  603MOL0     C81286   6.872  -0.588   9.599 -1.2683  0.2043  0.2535
  603MOL0     N81287   6.995  -0.623   9.670  0.5257  0.3542  0.3370
  603MOL0     C81288   7.055  -0.537   9.770 -0.5317  0.3056  0.1027
  603MOL0     C81289   7.150  -0.616   9.822  0.7663 -0.1310 -0.0052
  603MOL0     C81290   7.242  -0.574   9.938  0.4168 -0.0484 -0.8645
  603MOL0     C81291   7.388  -0.561   9.900 -0.4274 -0.2721  0.0700
  603MOL0     C81292   7.451  -0.700   9.889  0.4770  1.2895  0.0151
  603MOL0     C81293   7.598  -0.707   9.918  0.1982  0.7605 -1.3969
  603MOL0     O81294   7.685  -0.630   9.838  0.5682 -0.5178 -0.4809
  603MOL0     C81295   7.818  -0.632   9.866 -0.8081 -0.6313 -0.6434
  603MOL0     C81296   7.903  -0.580   9.772 -0.0758  0.3694 -0.1345
  603MOL0     C81297   8.040  -0.610   9.768 -0.1286 -0.6844  0.5833
  603MOL0     C81298   8.100  -0.675   9.871  0.7909  0.0819 -0.4946
  603MOL0     C81299   8.249  -0.697   9.879 -0.6590 -0.7552  0.9696
  603MOL0     O81300   8.292  -0.779   9.980  0.0193 -0.7749  0.0027
  603MOL0     C81301   8.428  -0.787   9.998  0.3185  0.2082  0.0652
  603MOL0     C81302   8.509  -0.881   9.930 -0.1028 -0.2156 -0.5408
  603MOL0     C81303   8.650  -0.896   9.957  0.3160 -0.0721 -0.2245
  603MOL0     C81304   8.705  -0.808  10.058  0.2079  0.4298  0.3091
  603MOL0     O81305   8.837  -0.815  10.094 -0.7517 -0.1932 -0.0361
  603MOL0     C81306   8.910  -0.690  10.084 -0.8307  0.4586  0.3357
  603MOL0     C81307   9.064  -0.710  10.124 -0.1455 -0.0839 -0.2814
  603MOL0     C81308   9.141  -0.575  10.152 -0.7272  0.2537  0.1120
  603MOL0     C81309   9.156  -0.565  10.305  0.0152  0.7574 -0.3827
  603MOL0     C81310   9.239  -0.448  10.353 -0.8948 -0.2145 -0.3513
  603MOL0     C81311   9.219  -0.408  10.499 -0.5398 -0.2090  0.0607
  603MOL0     C81312   9.221  -0.528  10.588  0.9081  1.1449 -0.0607
  603MOL0     C81313   9.227  -0.494  10.729  0.4287  0.6045  0.0863
  603MOL0    Cl81314   9.362  -0.396  10.778 -0.4199 -0.1619 -0.2430
  603MOL0     C81315   8.619  -0.715  10.118 -0.8761 -0.2413  0.8189
  603MOL0     C81316   8.483  -0.701  10.090  0.2012  0.4980  0.6521
  603MOL0     O81317   8.317  -0.643   9.795  0.3046 -0.4234  0.2547
  603MOL0     C81318   8.025  -0.708   9.986 -0.3836 -0.0835  0.4807
  603MOL0     C81319   7.886  -0.686   9.980  0.2030 -0.4182 -0.7172
  603MOL0     N81320   7.158  -0.733   9.747 -0.3253 -0.4147  0.7334
  603MOL0     N81321   7.072  -0.735   9.650  0.0804 -0.6137  0.1293
  603MOL0     C81322   7.476   0.206   9.137  0.4248  0.4168  0.3823
  603MOL0     C81323   7.611   0.189   9.104 -0.1868  0.3282  0.6642
  603MOL0     C81324   7.981   0.140   8.953 -0.3600 -0.3989 -0.3696
  603MOL0     C81325   8.040   0.261   8.908 -0.8631 -0.0266 -0.5638
  603MOL0     C81326   8.182   0.281   8.914  0.3017 -0.0453 -0.2852
  603MOL0     C81327   8.267   0.175   8.942 -0.0871  0.0928 -0.0326
  603MOL0     O81328   8.394   0.212   8.937  0.0052 -0.3451  0.6216
  603MOL0     C81329   8.497   0.113   8.950  0.5532 -0.0782 -0.4170
  603MOL0     C81330   8.540   0.053   8.815  0.3561 -0.4987  0.7132
  603MOL0     C81331   8.548   0.157   8.707 -0.5213 -1.1324 -0.0270
  603MOL0     C81332   8.651   0.262   8.748 -0.7361  0.5205  0.2735
  603MOL0     C81333   8.663   0.341   8.631  0.2865  0.7128  0.3198
  603MOL0     C81334   8.675   0.421   8.540 -0.0600 -0.5959 -0.5302
  603MOL0     C81335   8.212   0.050   8.976  0.1304 -0.6834  0.7902
  603MOL0     C81336   8.074   0.033   8.990 -0.2168  0.3130  0.6545
  603MOL0     C81337   8.030  -0.106   9.029 -0.5765 -0.2865  0.7939
  603MOL0     H81338   7.585  -0.125   8.974 -0.8742 -0.1581  0.6238
  603MOL0     H81339   7.348  -0.080   9.014 -0.6404 -0.1994 -0.4630
  603MOL0     H81340   7.167  -0.047   9.086  2.3754  1.2124 -1.1565
  603MOL0     H81341   7.199  -0.037   9.263 -1.8633  1.0684  1.2113
  603MOL0     H81342   6.988   0.124   9.145  1.6994  2.6983  0.9778
  603MOL0     H81343   7.038   0.126   9.311 -0.9426 -1.8644  2.2012
  603MOL0     H81344   6.965  -0.146   9.172  1.6809  1.0058  1.6139
  603MOL0     H81345   6.835  -0.031   9.237  0.3599  3.4497 -1.0334
  603MOL0     H81346   7.066  -0.158   9.393  0.0245 -0.2144 -1.9305
  603MOL0     H81347   6.925  -0.081   9.464  1.0392  2.6458 -0.7167
  603MOL0     H81348   6.793  -0.281   9.348 -0.3240 -2.9963  1.5718
  603MOL0     H81349   6.944  -0.338   9.294  1.8090  0.9348 -0.1227
  603MOL0     H81350   7.008  -0.331   9.549 -0.5771  0.4432  2.3614
  603MOL0     H81351   6.844  -0.314   9.578 -0.8090 -0.3505 -0.6220
  603MOL0     H81352   6.991  -0.541   9.435 -1.3143 -1.3529 -1.4850
  603MOL0     H81353   6.813  -0.515   9.411 -0.2065  1.0165 -0.0556
  603MOL0     H81354   6.808  -0.535   9.670 -0.1873 -0.0702  1.4522
  603MOL0     H81355   6.827  -0.685   9.575  1.0262 -1.6998  3.0855
  603MOL0     H81356   7.030  -0.437   9.805 -0.8874 -0.2333  1.4797
  603MOL0     H81357   7.215  -0.474   9.974  1.0114 -0.5975  1.2551
  603MOL0     H81358   7.230  -0.646  10.019 -0.1726  0.9628 -0.0273
  603MOL0     H81359   7.396  -0.502   9.808 -1.0044 -2.8929 -1.7794
  603MOL0     H81360   7.442  -0.505   9.977  1.6620  0.0988 -1.5835
  603MOL0     H81361   7.445  -0.737   9.786  2.3784 -1.7600  0.8858
  603MOL0     H81362   7.399  -0.771   9.954 -1.8903  0.2258 -2.7925
  603MOL0     H81363   7.633  -0.811   9.908  1.1942  0.7727  1.2000
  603MOL0     H81364   7.617  -0.690  10.024  1.4436 -3.1616 -0.8101
  603MOL0     H81365   7.864  -0.520   9.690  0.6642 -0.2830 -0.9893
  603MOL0     H81366   8.095  -0.558   9.690  1.6109 -1.6319  1.1138
  603MOL0     H81367   8.467  -0.942   9.851  0.3165 -0.0536 -0.8963
  603MOL0     H81368   8.707  -0.977   9.911 -0.0847 -0.9736  0.8083
  603MOL0     H81369   8.898  -0.650   9.983  0.1375  1.6894  0.6782
  603MOL0     H81370   8.875  -0.620  10.161  0.8841  1.8690 -0.1036
  603MOL0     H81371   9.061  -0.766  10.218 -1.9378  3.2702  1.8800
  603MOL0     H81372   9.127  -0.753  10.045  2.9321  1.2114  1.2821
  603MOL0     H81373   9.241  -0.574  10.106 -1.2568 -2.1513 -1.2793
  603MOL0     H81374   9.073  -0.494  10.123 -3.0820 -0.5826  2.8778
  603MOL0     H81375   9.185  -0.664  10.341 -1.4802 -0.6613 -2.7857
  603MOL0     H81376   9.053  -0.552  10.339  0.0702 -0.5488  0.3613
  603MOL0     H81377   9.209  -0.360  10.295 -0.6092  2.0740  2.7109
  603MOL0     H81378   9.341  -0.460  10.317 -0.4279  1.2850  0.3844
  603MOL0     H81379   9.297  -0.336  10.526 -2.1987  1.4110  0.7261
  603MOL0     H81380   9.130  -0.345  10.509  0.9219  1.5887  3.5359
  603MOL0     H81381   9.306  -0.591  10.558  0.9322  1.8068 -1.4879
  603MOL0     H81382   9.133  -0.591  10.576  1.2972  0.1473  1.9158
  603MOL0     H81383   9.130  -0.451  10.755  0.2076  0.8802 -1.1528
  603MOL0     H81384   9.233  -0.597  10.766  1.6336  0.9647  0.9811
  603MOL0     H81385   8.657  -0.640  10.187  0.3696  0.5398 -0.6468
  603MOL0     H81386   8.433  -0.615  10.132  0.7055  1.0887  0.0610
  603MOL0     H81387   8.067  -0.772  10.064 -0.0711 -0.2181  0.2072
  603MOL0     H81388   7.831  -0.730  10.062 -0.2544  1.5467  0.1030
  603MOL0     H81389   7.456   0.305   9.176  0.3658  0.3129  0.6256
  603MOL0     H81390   7.686   0.265   9.123  0.3757 -0.3707  1.3207
  603MOL0     H81391   7.986   0.352   8.885  0.0491  1.5166  2.7016
  603MOL0     H81392   8.236   0.375   8.903  0.0679  0.6587  3.3185
  603MOL0     H81393   8.485   0.034   9.025  0.2439 -2.1234 -2.5228
  603MOL0     H81394   8.588   0.169   8.975 -0.5214  2.2599 -1.4815
  603MOL0     H81395   8.476  -0.030   8.785  1.3278 -0.8317 -0.5692
  603MOL0     H81396   8.641   0.010   8.815  1.7790  2.5441  0.7037
  603MOL0     H81397   8.449   0.202   8.695 -0.0160  0.0464  0.1145
  603MOL0     H81398   8.579   0.116   8.611 -1.0783  1.7059 -1.5053
  603MOL0     H81399   8.627   0.316   8.840  0.7496 -0.9009  1.5779
  603MOL0     H81400   8.748   0.212   8.760 -0.4029  0.8336 -0.9597
  603MOL0     H81401   8.700   0.480   8.454  2.1049  1.6072  1.4387
  603MOL0     H81402   8.277  -0.028   9.013 -1.8425 -3.3570 -0.9945
  603MOL0     H81403   7.979  -0.099   9.126 -0.2184 -2.5250  1.2137
  603MOL0     H81404   7.955  -0.148   8.962 -0.2938  1.9445 -1.0521
  603MOL0     H81405   8.112  -0.178   9.036 -1.0786 -1.3581 -2.7814
  604MOL0     O81406   1.469   2.402  10.645  0.0569 -0.1932  0.1228
  604MOL0     C81407   1.432   2.336  10.736  0.6542 -0.3954 -0.3478
  604MOL0     O81408   1.504   2.290  10.837  0.7151  0.5682  0.2170
  604MOL0     C81409   1.642   2.315  10.840  0.6394  0.2300  0.0082
  604MOL0     C81410   1.706   2.366  10.959 -0.4187  0.0701  0.2155
  604MOL0     C81411   1.851   2.394  10.961  0.5056  0.4294 -0.4485
  604MOL0     C81412   1.922   2.356  10.844 -0.2431 -0.2680 -0.9804
  604MOL0     O81413   2.058   2.373  10.830 -0.0195  0.8207  0.2596
  604MOL0     C81414   2.136   2.459  10.915 -0.4429  0.2749 -0.7013
  604MOL0     C81415   2.287   2.423  10.882 -0.0788  0.5430 -0.4432
  604MOL0     C81416   2.385   2.464  10.990 -0.3520 -0.0312  0.1099
  604MOL0     C81417   2.525   2.428  10.938 -0.6293 -0.1611 -0.3200
  604MOL0     C81418   2.635   2.449  11.046 -0.6466 -0.3657  0.3457
  604MOL0     C81419   2.769   2.404  10.987 -0.4492  0.2044  0.4169
  604MOL0     C81420   2.883   2.428  11.093 -1.2465 -0.3050  0.8624
  604MOL0     C81421   3.016   2.472  11.027 -0.3969 -0.9601 -0.0604
  604MOL0     N81422   3.119   2.488  11.127 -0.5482 -0.2354 -0.1590
  604MOL0     C81423   3.134   2.593  11.214  0.2138  0.9442  0.0300
  604MOL0     C81424   3.253   2.565  11.276  0.0545 -0.3888  0.5971
  604MOL0     C81425   3.326   2.652  11.371  0.3756 -0.3091 -0.2962
  604MOL0     C81426   3.240   2.770  11.418  0.5508  0.3736  0.3501
  604MOL0     C81427   3.126   2.734  11.512 -0.3248  0.2013 -0.1360
  604MOL0     C81428   3.043   2.858  11.542 -0.8431  0.7372 -0.4256
  604MOL0     O81429   2.960   2.874  11.427  0.6149  0.3335 -0.4000
  604MOL0     C81430   2.860   2.970  11.437  0.5146  0.0405 -0.0676
  604MOL0     C81431   2.843   3.069  11.539 -0.4885 -0.1872  0.5304
  604MOL0     C81432   2.730   3.148  11.543 -0.7235 -0.4531 -0.1485
  604MOL0     C81433   2.628   3.126  11.451 -0.4494  0.1923  0.7799
  604MOL0     C81434   2.501   3.196  11.458 -0.1009 -1.1172 -0.3610
  604MOL0     O81435   2.501   3.306  11.536  0.6247  0.0143 -0.2675
  604MOL0     C81436   2.383   3.378  11.540  0.0833  0.3079 -0.5797
  604MOL0     C81437   2.372   3.496  11.464  0.2120  0.4446  0.0882
  604MOL0     C81438   2.253   3.568  11.457 -0.2659  0.4038  0.3084
  604MOL0     C81439   2.136   3.515  11.520  0.3035  0.3004 -0.1648
  604MOL0     O81440   2.005   3.561  11.501 -0.1767  0.3569  0.1608
  604MOL0     C81441   1.978   3.645  11.389 -0.4429 -0.9037  0.7515
  604MOL0     C81442   1.824   3.654  11.371 -0.2395 -0.2001 -0.8875
  604MOL0     C81443   1.776   3.556  11.259  0.1675  0.2624 -0.1667
  604MOL0     C81444   1.805   3.411  11.303 -1.4192 -0.5773 -0.0571
  604MOL0     C81445   1.692   3.314  11.283  0.1591 -0.6976  0.3304
  604MOL0     C81446   1.576   3.342  11.382  0.4349 -0.8846 -0.1766
  604MOL0     C81447   1.460   3.241  11.378  0.0612  0.1491 -0.1592
  604MOL0     C81448   1.507   3.113  11.447 -0.0197  0.2753  0.0849
  604MOL0    Cl81449   1.377   2.985  11.465  0.3339  0.1976  0.1380
  604MOL0     C81450   2.142   3.397  11.600 -0.3509 -0.1749  0.4794
  604MOL0     C81451   2.271   3.332  11.603  0.1450  0.2333 -0.2512
  604MOL0     O81452   2.401   3.141  11.400  0.3027 -0.2528 -0.3699
  604MOL0     C81453   2.646   3.035  11.347  0.2191  0.1652  0.2530
  604MOL0     C81454   2.760   2.961  11.342 -0.2742  0.4954 -0.2063
  604MOL0     N81455   3.298   2.443  11.241  0.4290  0.0448  0.5849
  604MOL0     N81456   3.216   2.394  11.151 -0.0848  0.6211 -0.0531
  604MOL0     C81457   1.864   2.301  10.732  0.4127 -0.4938 -0.1974
  604MOL0     C81458   1.728   2.290  10.728  0.1495  0.3197  0.2083
  604MOL0     C81459   1.278   2.317  10.753 -1.0928 -0.3134 -0.5071
  604MOL0     C81460   1.204   2.372  10.647 -0.5830 -0.1485  0.0338
  604MOL0     C81461   1.068   2.366  10.636 -0.4738  0.3738 -0.0829
  604MOL0     C81462   0.998   2.306  10.734  0.3530  0.0289 -0.7051
  604MOL0     O81463   0.865   2.305  10.715 -0.6280  0.3553 -0.2448
  604MOL0     C81464   0.766   2.248  10.806 -0.1817 -0.1795 -0.7278
  604MOL0     C81465   0.732   2.341  10.931  0.2855  0.5450 -0.1574
  604MOL0     C81466   0.659   2.267  11.039 -0.6287 -0.5205  0.9050
  604MOL0     C81467   0.511   2.239  11.005  0.0147 -0.4436 -0.2200
  604MOL0     C81468   0.459   2.151  11.104 -0.0713  0.2610  0.6107
  604MOL0     C81469   0.423   2.086  11.198 -0.0113  0.3468 -0.3668
  604MOL0     C81470   1.065   2.249  10.838  0.1040  0.8091  0.5147
  604MOL0     C81471   1.208   2.254  10.862 -0.7543 -0.3664  0.5902
  604MOL0     C81472   1.276   2.208  10.990  0.4448  0.6940 -0.7925
  604MOL0     H81473   1.655   2.380  11.055 -3.9132 -1.3379 -1.2527
  604MOL0     H81474   1.903   2.440  11.044 -0.7452 -0.7778  1.0612
  604MOL0     H81475   2.126   2.566  10.895  2.5653  1.4761  3.1735
  604MOL0     H81476   2.115   2.439  11.020  2.2513 -1.1723 -0.3672
  604MOL0     H81477   2.315   2.475  10.790  2.0593  2.5818  1.2215
  604MOL0     H81478   2.294   2.314  10.876  1.6972  0.5592  0.6729
  604MOL0     H81479   2.367   2.416  11.087  1.6126 -0.8076  0.1272
  604MOL0     H81480   2.375   2.573  10.994  1.3062  0.1648 -0.6112
  604MOL0     H81481   2.535   2.324  10.905 -1.9800 -0.8497  1.2981
  604MOL0     H81482   2.533   2.496  10.852  0.1208 -1.1461 -1.0671
  604MOL0     H81483   2.647   2.548  11.090 -1.4253 -0.9777  2.0107
  604MOL0     H81484   2.612   2.394  11.138  0.9042  1.1503  1.6937
  604MOL0     H81485   2.775   2.296  10.970  4.2833  0.3563 -0.3189
  604MOL0     H81486   2.795   2.452  10.893  0.8928 -0.5949  0.3472
  604MOL0     H81487   2.901   2.337  11.150 -1.2261 -1.0217 -0.2567
  604MOL0     H81488   2.856   2.501  11.171  0.8229  0.2260  1.1459
  604MOL0     H81489   3.047   2.387  10.966  1.6234 -2.1649  2.4468
  604MOL0     H81490   3.004   2.562  10.965  0.8794 -1.3286 -0.8969
  604MOL0     H81491   3.067   2.678  11.214 -2.8109 -1.2797  0.6291
  604MOL0     H81492   3.367   2.589  11.449 -0.8873 -1.3841 -0.4723
  604MOL0     H81493   3.417   2.692  11.325  2.5660 -3.1034  1.3047
  604MOL0     H81494   3.307   2.839  11.472  1.3581 -0.8151  0.9317
  604MOL0     H81495   3.203   2.825  11.331 -1.5153 -0.0052  0.9495
  604MOL0     H81496   3.172   2.691  11.601  1.0475 -2.9133 -2.1419
  604MOL0     H81497   3.061   2.654  11.474  0.7379 -0.8269  0.1628
  604MOL0     H81498   3.112   2.940  11.559 -2.7936  2.4967 -0.6061
  604MOL0     H81499   2.982   2.844  11.632 -2.3469  1.1472 -1.3440
  604MOL0     H81500   2.918   3.095  11.612 -0.2565  1.4895 -0.2567
  604MOL0     H81501   2.709   3.217  11.624  0.8890 -1.6317  1.3510
  604MOL0     H81502   2.459   3.540  11.416 -1.2414  2.2906 -0.9818
  604MOL0     H81503   2.243   3.661  11.403 -0.0768  0.6907  0.7622
  604MOL0     H81504   2.014   3.746  11.411  1.2950 -0.5957 -2.8019
  604MOL0     H81505   2.031   3.613  11.299 -0.4793  0.3160  0.2809
  604MOL0     H81506   1.771   3.637  11.465  2.2606  0.3916  0.7304
  604MOL0     H81507   1.801   3.758  11.344  2.1590  0.6774  0.0979
  604MOL0     H81508   1.670   3.574  11.239  0.1125 -0.7117 -0.8260
  604MOL0     H81509   1.832   3.576  11.167  3.2892 -0.8760  1.3556
  604MOL0     H81510   1.829   3.406  11.409  0.0534 -2.2324 -0.4255
  604MOL0     H81511   1.891   3.368  11.251 -1.9206 -1.9982  0.2435
  604MOL0     H81512   1.731   3.214  11.303  2.7266  0.0423 -0.4969
  604MOL0     H81513   1.653   3.314  11.181 -0.8879 -0.4487  0.7199
  604MOL0     H81514   1.612   3.345  11.485 -0.2942  0.3593  0.0726
  604MOL0     H81515   1.530   3.441  11.366 -2.9315 -2.2928 -0.0238
  604MOL0     H81516   1.434   3.224  11.273  2.5717 -4.0674 -0.2906
  604MOL0     H81517   1.369   3.280  11.426  0.3881  0.5573  0.1416
  604MOL0     H81518   1.589   3.066  11.392 -0.7694 -0.4722 -0.4273
  604MOL0     H81519   1.554   3.128  11.545  0.4083  1.0775 -0.2360
  604MOL0     H81520   2.058   3.343  11.641  0.2015 -0.8635  0.7222
  604MOL0     H81521   2.271   3.241  11.662  0.3867 -0.3989 -1.2152
  604MOL0     H81522   2.573   3.026  11.267 -1.4155  0.9935  1.5942
  604MOL0     H81523   2.778   2.892  11.260  1.6908  1.1700 -0.4033
  604MOL0     H81524   1.935   2.288  10.651 -0.4842  1.2143 -1.3212
  604MOL0     H81525   1.691   2.244  10.637  0.7154 -2.5835  1.3424
  604MOL0     H81526   1.243   2.426  10.561 -2.8387  1.3301 -0.1514
  604MOL0     H81527   1.011   2.415  10.558  1.0574  2.2641 -0.0904
  604MOL0     H81528   0.790   2.147  10.838 -0.3970 -0.2942 -0.9223
  604MOL0     H81529   0.678   2.236  10.742 -1.3119  0.5442  0.6385
  604MOL0     H81530   0.673   2.426  10.897 -3.4149 -1.9613 -0.6412
  604MOL0     H81531   0.821   2.379  10.982 -0.0540 -0.3996  1.1724
  604MOL0     H81532   0.666   2.332  11.127  2.5435  0.9850 -0.3125
  604MOL0     H81533   0.708   2.174  11.070 -1.7518 -1.0721  1.0962
  604MOL0     H81534   0.457   2.334  11.006 -0.6397 -0.7486 -2.2504
  604MOL0     H81535   0.501   2.209  10.900 -1.4650  2.7961 -1.1309
  604MOL0     H81536   0.381   2.042  11.286 -1.7790  2.7591  0.1010
  604MOL0     H81537   1.016   2.196  10.920  2.7247 -1.4587  0.7928
  604MOL0     H81538   1.203   2.173  11.064  1.5841 -0.0496  0.0033
  604MOL0     H81539   1.344   2.124  10.972  0.7153  0.9772 -1.0996
  604MOL0     H81540   1.325   2.287  11.046 -3.6003  2.6705  0.2996
  605MOL0     O81541   0.902   9.898   0.404  0.3963 -0.8423  0.5186
  605MOL0     C81542   0.783   9.936   0.425 -0.0955 -0.3130  0.1813
  605MOL0     O81543   0.753  10.057   0.482  0.5294 -0.3385 -0.3972
  605MOL0     C81544   0.853  10.143   0.526  0.7280  0.1562  1.3290
  605MOL0     C81545   0.884  10.152   0.661  0.1766  0.2751 -0.0881
  605MOL0     C81546   1.009  10.218   0.684  0.5274  0.3753  0.0297
  605MOL0     C81547   1.073  10.295   0.589  0.3328  0.0049 -0.0517
  605MOL0     O81548   1.179  10.361   0.639 -0.1044 -0.6610  0.1400
  605MOL0     C81549   1.228  10.478   0.567  0.6019  0.0048  0.3468
  605MOL0     C81550   1.295  10.559   0.680 -0.1969  0.2978 -0.5288
  605MOL0     C81551   1.194  10.612   0.777  0.6244  1.2356 -0.0499
  605MOL0     C81552   1.135  10.745   0.740  0.3345  0.7499  0.6245
  605MOL0     C81553   1.040  10.792   0.846  0.0348  0.9904 -0.0292
  605MOL0     C81554   1.009  10.938   0.829 -0.1207 -0.6453  0.4049
  605MOL0     C81555   0.922  11.010   0.939 -0.8582  0.3837  0.4490
  605MOL0     C81556   0.893  11.154   0.901 -0.0387 -0.4895 -0.3908
  605MOL0     N81557   0.947  11.255   0.996 -0.0375 -0.5868  0.2384
  605MOL0     C81558   0.901  11.290   1.124 -0.0402 -0.0740  0.2733
  605MOL0     C81559   0.976  11.394   1.160  0.5708 -0.4764 -0.5018
  605MOL0     C81560   0.964  11.465   1.297 -0.4758  0.7086 -0.2951
  605MOL0     C81561   0.999  11.610   1.293 -0.0396 -0.5732  0.2013
  605MOL0     C81562   1.020  11.660   1.434  0.7389 -0.1835 -0.1194
  605MOL0     C81563   1.035  11.814   1.430  0.0416  0.0443 -0.1698
  605MOL0     O81564   1.142  11.849   1.340 -0.8224  0.8209  0.5932
  605MOL0     C81565   1.274  11.838   1.379  1.0165  0.9494  0.3220
  605MOL0     C81566   1.369  11.820   1.278 -0.0736 -0.1494 -0.5941
  605MOL0     C81567   1.508  11.834   1.309  0.0690  0.9365 -0.0491
  605MOL0     C81568   1.561  11.867   1.439  0.0527  1.3409  0.0129
  605MOL0     C81569   1.708  11.895   1.466  0.0885  0.2271 -0.2364
  605MOL0     O81570   1.784  11.886   1.358 -0.5275  0.1137  0.0125
  605MOL0     C81571   1.915  11.939   1.359 -0.3459  0.5461  0.4720
  605MOL0     C81572   2.006  11.930   1.463 -0.0941  0.5854 -0.0112
  605MOL0     C81573   2.129  11.989   1.452 -0.6229  0.1911 -0.2683
  605MOL0     C81574   2.171  12.049   1.336  0.8370  0.2459  0.2103
  605MOL0     O81575   2.300  12.097   1.336 -0.4599 -0.0313  0.3622
  605MOL0     C81576   2.322  12.210   1.259  0.5549 -0.0153 -0.3142
  605MOL0     C81577   2.467  12.256   1.292 -0.3372 -0.3183  0.4321
  605MOL0     C81578   2.564  12.148   1.240 -0.9435 -0.2414  0.4153
  605MOL0     C81579   2.702  12.204   1.250  0.3386 -0.3123  1.9074
  605MOL0     C81580   2.798  12.101   1.195 -0.5479  0.5508  0.0124
  605MOL0     C81581   2.941  12.152   1.172 -0.4009 -0.3891  0.4505
  605MOL0     C81582   3.038  12.033   1.163 -0.2491  0.1860  0.3849
  605MOL0     C81583   3.164  12.067   1.076 -0.1281 -0.4121 -0.9724
  605MOL0    Cl81584   3.256  12.213   1.121 -0.3974 -0.1721 -0.4612
  605MOL0     C81585   2.077  12.059   1.231  0.3511  0.9230 -1.0852
  605MOL0     C81586   1.948  11.994   1.243 -0.2697 -0.1093  0.3215
  605MOL0     O81587   1.742  11.924   1.575  0.1816  0.6512 -0.1721
  605MOL0     C81588   1.467  11.876   1.541  0.1297 -0.1788  0.3112
  605MOL0     C81589   1.329  11.863   1.506 -0.0205  0.1722  0.4111
  605MOL0     N81590   1.070  11.423   1.063  0.1012 -0.1025 -0.2415
  605MOL0     N81591   1.040  11.350   0.960  0.1272 -0.2929  0.0253
  605MOL0     C81592   1.033  10.297   0.458  0.9481 -0.0636 -0.3113
  605MOL0     C81593   0.918  10.220   0.430  0.7238  0.2394  0.1499
  605MOL0     C81594   0.669   9.858   0.360 -0.1365  0.3133 -0.5364
  605MOL0     C81595   0.561   9.930   0.322 -0.7134 -0.5610 -0.1651
  605MOL0     C81596   0.443   9.878   0.280 -0.0134  0.1551  0.1270
  605MOL0     C81597   0.431   9.740   0.261 -0.5439 -0.2715  0.6594
  605MOL0     O81598   0.316   9.678   0.215 -0.9086  0.5674 -0.1654
  605MOL0     C81599   0.268   9.578   0.308  0.8022 -0.4986  0.2493
  605MOL0     C81600   0.150   9.506   0.251 -0.1629  0.3772 -0.6704
  605MOL0     C81601   0.021   9.592   0.278  0.9033 -0.1834  0.0648
  605MOL0     C81602  -0.101   9.510   0.219 -0.2643  0.6735 -0.2032
  605MOL0     C81603  -0.228   9.591   0.199 -0.3457  0.7462 -0.3018
  605MOL0     C81604  -0.320   9.670   0.182  0.2147 -0.2968 -0.5868
  605MOL0     C81605   0.549   9.666   0.289  0.5438  0.4225  0.2383
  605MOL0     C81606   0.666   9.725   0.339  0.5344 -0.1162 -0.3692
  605MOL0     C81607   0.770   9.634   0.384 -0.1271 -0.5931 -0.1809
  605MOL0     H81608   0.830  10.091   0.732 -3.9034  1.1351 -2.1269
  605MOL0     H81609   1.053  10.221   0.784 -0.2451 -0.2779  0.4041
  605MOL0     H81610   1.302  10.443   0.494 -2.4068  0.7560 -3.4192
  605MOL0     H81611   1.153  10.546   0.526 -0.9673 -0.4405  2.3141
  605MOL0     H81612   1.350  10.646   0.642 -0.2900  0.6219  0.0689
  605MOL0     H81613   1.351  10.489   0.742 -0.9311 -1.3917 -1.7096
  605MOL0     H81614   1.236  10.618   0.878 -1.9185 -1.1637  1.2728
  605MOL0     H81615   1.118  10.536   0.797  1.6933  0.7284  2.5841
  605MOL0     H81616   1.221  10.812   0.725  0.7337 -0.1594 -1.4592
  605MOL0     H81617   1.083  10.736   0.644  2.6202 -0.6437 -0.5717
  605MOL0     H81618   0.954  10.726   0.835  2.1660 -2.9848  3.9193
  605MOL0     H81619   1.088  10.769   0.942  0.1501  3.5264  0.6023
  605MOL0     H81620   1.104  10.992   0.821 -0.5129 -0.1717 -1.7741
  605MOL0     H81621   0.955  10.945   0.734 -1.5018 -1.6743  1.0766
  605MOL0     H81622   0.979  11.004   1.032 -1.4032 -1.7369  0.7034
  605MOL0     H81623   0.834  10.945   0.945 -0.8662  0.5296  2.8013
  605MOL0     H81624   0.921  11.181   0.799 -0.1944  1.9676  0.1595
  605MOL0     H81625   0.784  11.168   0.909 -0.3125 -0.8749 -2.6348
  605MOL0     H81626   0.826  11.237   1.182 -0.6697  0.7407  0.2212
  605MOL0     H81627   0.863  11.451   1.337  0.5741 -1.2218  1.9157
  605MOL0     H81628   1.032  11.412   1.364  1.1100 -1.5698 -3.4047
  605MOL0     H81629   1.092  11.620   1.238  0.5393  0.0037  1.2517
  605MOL0     H81630   0.926  11.673   1.242 -0.2255 -0.8976  0.0631
  605MOL0     H81631   1.111  11.614   1.476  0.2021 -0.1060  1.1940
  605MOL0     H81632   0.935  11.639   1.499  1.8250 -0.9666  1.1036
  605MOL0     H81633   1.055  11.842   1.533  0.1162 -0.3023 -0.0911
  605MOL0     H81634   0.950  11.870   1.389  0.6865 -0.0110 -1.6750
  605MOL0     H81635   1.345  11.813   1.173  0.2305 -0.6635 -0.6316
  605MOL0     H81636   1.575  11.829   1.223  0.1449 -3.8801  0.0250
  605MOL0     H81637   1.969  11.890   1.557 -3.4019  1.6654 -0.7085
  605MOL0     H81638   2.197  11.993   1.536  1.7562 -1.2275 -2.0257
  605MOL0     H81639   2.302  12.193   1.153 -1.5059  1.3151 -0.1895
  605MOL0     H81640   2.255  12.292   1.286  0.6547 -0.1425  0.3223
  605MOL0     H81641   2.484  12.347   1.235 -0.6036 -0.6039 -0.1145
  605MOL0     H81642   2.454  12.296   1.393 -1.1745  3.4947 -1.0106
  605MOL0     H81643   2.546  12.065   1.309 -0.2793  1.4880  2.7808
  605MOL0     H81644   2.545  12.122   1.135 -1.1666 -2.1520  0.8861
  605MOL0     H81645   2.731  12.239   1.350  1.5208  0.6343  1.2705
  605MOL0     H81646   2.710  12.284   1.176  1.0590 -1.3867  0.7859
  605MOL0     H81647   2.763  12.053   1.103 -0.5586 -1.5058  1.0118
  605MOL0     H81648   2.793  12.020   1.269  0.9441 -2.2044 -2.6883
  605MOL0     H81649   2.941  12.207   1.078 -0.1739 -0.9639  0.1113
  605MOL0     H81650   2.974  12.208   1.260  0.0580  1.3083 -0.7607
  605MOL0     H81651   2.980  11.952   1.117 -1.1228  1.6474 -1.2029
  605MOL0     H81652   3.065  11.990   1.260 -0.4519  2.5998  1.5823
  605MOL0     H81653   3.227  11.980   1.101  2.2424  1.9368  2.2112
  605MOL0     H81654   3.141  12.077   0.970  0.9360 -0.9508 -1.2661
  605MOL0     H81655   2.110  12.090   1.132 -0.2832 -1.8524 -2.2890
  605MOL0     H81656   1.871  12.010   1.168 -1.1316  0.5565  1.3195
  605MOL0     H81657   1.489  11.895   1.646 -0.7774 -1.3821  0.7402
  605MOL0     H81658   1.262  11.887   1.588  0.3358 -0.5747  0.9319
  605MOL0     H81659   1.078  10.357   0.380 -2.9159  2.7585 -0.6529
  605MOL0     H81660   0.890  10.202   0.326 -1.6555 -0.7514  0.8915
  605MOL0     H81661   0.563  10.039   0.329 -4.5175 -0.4282  2.1150
  605MOL0     H81662   0.363   9.942   0.248 -0.7329  0.2114  1.9271
  605MOL0     H81663   0.226   9.621   0.400  1.4524  0.6422  0.0283
  605MOL0     H81664   0.351   9.513   0.335  0.9644 -1.2652 -1.9569
  605MOL0     H81665   0.161   9.410   0.303  1.9534  1.9541  2.1380
  605MOL0     H81666   0.159   9.498   0.142  3.3583  1.3658 -0.5978
  605MOL0     H81667   0.029   9.686   0.221 -0.6408  0.6234  1.1035
  605MOL0     H81668   0.002   9.613   0.383  0.8401  2.3542 -0.3722
  605MOL0     H81669  -0.071   9.472   0.121 -3.6895 -1.5671 -0.5401
  605MOL0     H81670  -0.132   9.422   0.275  0.6068 -3.9040 -6.0212
  605MOL0     H81671  -0.410   9.729   0.184 -1.4499 -2.4252  4.4876
  605MOL0     H81672   0.549   9.558   0.281 -1.7917  0.4894 -1.7060
  605MOL0     H81673   0.812   9.667   0.480 -0.5757 -0.0436 -0.1740
  605MOL0     H81674   0.738   9.530   0.394 -0.4592 -0.7202 -2.2505
  605MOL0     H81675   0.852   9.626   0.312 -0.0021 -0.2567 -0.0781
  606MOL0     O81676   8.641   2.770   2.151 -0.7922 -0.5786  0.2721
  606MOL0     C81677   8.531   2.830   2.163 -0.0372  0.0967 -0.0538
  606MOL0     O81678   8.521   2.967   2.188  0.3377  0.5313 -0.1141
  606MOL0     C81679   8.636   3.037   2.196 -0.1740  0.2408  0.6681
  606MOL0     C81680   8.658   3.093   2.318 -0.2981 -0.0464  0.4395
  606MOL0     C81681   8.773   3.162   2.349  0.7302 -0.0722 -0.6388
  606MOL0     C81682   8.863   3.182   2.243  0.2958 -0.1738  0.1053
  606MOL0     O81683   8.978   3.249   2.280  0.0375  0.6407  0.3717
  606MOL0     C81684   9.065   3.297   2.177 -0.3269 -0.5096  0.2652
  606MOL0     C81685   9.172   3.380   2.253 -1.6001  0.1868  0.0045
  606MOL0     C81686   9.226   3.315   2.381  0.1983 -0.4873 -0.2520
  606MOL0     C81687   9.364   3.370   2.424  0.3855 -0.1972 -0.0740
  606MOL0     C81688   9.407   3.341   2.564 -0.1472  0.2310  0.4105
  606MOL0     C81689   9.410   3.187   2.589 -0.4232  0.0271  0.3035
  606MOL0     C81690   9.455   3.126   2.724  0.3001 -0.7406  1.0913
  606MOL0     C81691   9.605   3.131   2.731  0.5190 -0.4021 -0.4559
  606MOL0     N81692   9.662   3.080   2.859  0.1568  0.5500 -0.0780
  606MOL0     C81693   9.643   3.115   2.994 -0.0071  0.2936 -0.5346
  606MOL0     C81694   9.715   3.029   3.069  0.2636  0.2571  0.4818
  606MOL0     C81695   9.731   3.023   3.214  0.6973 -0.3359 -0.0707
  606MOL0     C81696   9.645   2.926   3.282  1.0269  0.2414 -0.5094
  606MOL0     C81697   9.640   2.942   3.427 -0.8695 -1.2688  0.5645
  606MOL0     C81698   9.782   2.972   3.483  0.0477 -0.4418 -0.9209
  606MOL0     O81699   9.766   2.968   3.633 -0.1033  0.0224  0.3993
  606MOL0     C81700   9.877   2.981   3.712 -0.6012  0.3449  0.0714
  606MOL0     C81701   9.998   3.025   3.663  0.1940 -0.0319 -0.6914
  606MOL0     C81702  10.120   3.030   3.740  0.3255 -0.0501  0.4824
  606MOL0     C81703  10.117   2.988   3.881  0.0539 -0.3952  0.5503
  606MOL0     C81704  10.236   2.995   3.962  0.5152  0.1493 -0.3297
  606MOL0     O81705  10.345   3.043   3.896  0.8124 -0.6682  0.1631
  606MOL0     C81706  10.470   3.058   3.956 -0.2513 -0.2107  0.4463
  606MOL0     C81707  10.589   3.010   3.905  0.1585 -0.5169  0.0908
  606MOL0     C81708  10.713   3.030   3.972  0.0457  0.1678  0.5446
  606MOL0     C81709  10.727   3.112   4.087 -0.1710  0.6129  1.0441
  606MOL0     O81710  10.851   3.128   4.142 -0.2523 -0.4483  0.4005
  606MOL0     C81711  10.966   3.054   4.100  0.8992  0.4856  0.5521
  606MOL0     C81712  11.084   3.092   4.189  0.5197  0.3910  0.3746
  606MOL0     C81713  11.206   3.094   4.097 -0.0726 -0.1314  0.5430
  606MOL0     C81714  11.324   3.128   4.187  0.1551 -0.5187 -0.1393
  606MOL0     C81715  11.338   3.272   4.232  0.6413 -0.0810  0.4907
  606MOL0     C81716  11.474   3.303   4.292 -0.3857  0.3132 -0.5723
  606MOL0     C81717  11.481   3.450   4.348 -0.6810  0.1194 -0.2181
  606MOL0     C81718  11.607   3.455   4.445  0.4362  0.3678 -0.3201
  606MOL0    Cl81719  11.756   3.443   4.354 -0.3058 -0.9332 -0.0544
  606MOL0     C81720  10.598   3.177   4.126 -0.3056 -0.1549  0.3593
  606MOL0     C81721  10.483   3.140   4.066 -0.1349 -0.7233  0.0535
  606MOL0     O81722  10.231   2.941   4.073 -0.7426 -0.3170 -0.3813
  606MOL0     C81723   9.997   2.944   3.923  0.7196  1.4308 -0.5544
  606MOL0     C81724   9.879   2.933   3.841 -0.1128  0.3190 -0.1475
  606MOL0     N81725   9.787   2.948   2.974 -0.7090 -0.1593 -0.7560
  606MOL0     N81726   9.751   2.977   2.861  0.4636  0.2930 -0.8601
  606MOL0     C81727   8.838   3.142   2.113  0.3495  0.6274 -0.2388
  606MOL0     C81728   8.729   3.052   2.093 -0.1755  0.3839 -0.0150
  606MOL0     C81729   8.399   2.769   2.132  0.5336 -0.5083  0.4882
  606MOL0     C81730   8.280   2.844   2.110 -0.0902  0.1748 -0.4776
  606MOL0     C81731   8.169   2.786   2.053 -0.4924  0.2744  0.2598
  606MOL0     C81732   8.155   2.648   2.049 -0.0382  0.4561 -0.2238
  606MOL0     O81733   8.040   2.586   2.010  0.2951  0.2398 -0.4487
  606MOL0     C81734   7.922   2.654   1.980  0.0041 -0.1835  0.4494
  606MOL0     C81735   7.805   2.558   1.973  0.1392  1.0562 -0.1686
  606MOL0     C81736   7.677   2.630   1.937 -0.3508  0.1645 -0.0264
  606MOL0     C81737   7.571   2.527   1.904 -0.4770 -0.6005 -0.0452
  606MOL0     C81738   7.514   2.475   2.030 -0.6936 -0.5479 -0.3638
  606MOL0     C81739   7.460   2.445   2.131 -0.3267 -0.2586 -0.4119
  606MOL0     C81740   8.256   2.569   2.090 -0.4144 -0.8432 -0.0051
  606MOL0     C81741   8.385   2.624   2.134  0.3247  0.0597  0.0782
  606MOL0     C81742   8.491   2.528   2.178 -0.2619 -0.9279  0.0143
  606MOL0     H81743   8.579   3.085   2.392 -0.3741  2.9106  0.8053
  606MOL0     H81744   8.789   3.217   2.441 -0.0239  0.6836 -0.9461
  606MOL0     H81745   9.117   3.225   2.113  0.8252 -0.0598  0.6580
  606MOL0     H81746   9.008   3.364   2.112  2.0491 -2.3835 -4.1376
  606MOL0     H81747   9.133   3.479   2.276 -1.6061  0.1276  0.2528
  606MOL0     H81748   9.257   3.399   2.187  0.5352 -1.5318  2.1035
  606MOL0     H81749   9.236   3.206   2.382  3.6654 -0.2652 -0.6525
  606MOL0     H81750   9.152   3.331   2.460  0.8808 -1.8913  0.7190
  606MOL0     H81751   9.439   3.325   2.359  0.0901  1.1358 -1.4047
  606MOL0     H81752   9.373   3.477   2.405 -2.7374  0.1041 -0.4695
  606MOL0     H81753   9.510   3.374   2.580  0.6714 -1.3170 -1.3380
  606MOL0     H81754   9.341   3.400   2.630 -0.5431  3.0255 -2.2917
  606MOL0     H81755   9.305   3.157   2.594  0.5642 -4.0288  0.2971
  606MOL0     H81756   9.446   3.123   2.507  0.8046 -1.4324  1.9024
  606MOL0     H81757   9.430   3.020   2.729 -0.8336 -0.4827  1.1963
  606MOL0     H81758   9.401   3.189   2.796 -3.2032 -1.8101 -0.4287
  606MOL0     H81759   9.646   3.087   2.640 -1.4027 -0.6247 -1.2577
  606MOL0     H81760   9.644   3.233   2.727  3.6849 -1.3864  1.3293
  606MOL0     H81761   9.594   3.206   3.025  1.8390  1.6521 -1.4462
  606MOL0     H81762   9.836   2.998   3.231  1.0615 -0.0779 -1.7935
  606MOL0     H81763   9.713   3.123   3.254 -1.8158 -0.3619 -1.0006
  606MOL0     H81764   9.552   2.938   3.226 -0.1635 -3.8878  0.2898
  606MOL0     H81765   9.691   2.830   3.255  1.6085  0.6170 -0.8968
  606MOL0     H81766   9.594   2.849   3.462 -1.0368 -1.1983  0.5340
  606MOL0     H81767   9.565   3.019   3.444 -1.0329 -0.7397 -2.1128
  606MOL0     H81768   9.802   3.069   3.437 -0.3050  0.0325 -0.1089
  606MOL0     H81769   9.862   2.904   3.455  0.5822 -0.2742  0.1272
  606MOL0     H81770  10.011   3.054   3.559 -2.7471  2.0844 -0.6031
  606MOL0     H81771  10.215   3.059   3.695  1.4263 -0.9532  2.0855
  606MOL0     H81772  10.595   2.935   3.827 -2.1857 -0.8097  0.1264
  606MOL0     H81773  10.794   2.966   3.941 -2.4090 -2.1614 -1.5449
  606MOL0     H81774  10.949   2.946   4.107 -1.1480  0.7340  0.3095
  606MOL0     H81775  10.978   3.086   3.996 -0.7162  2.8634  1.0206
  606MOL0     H81776  11.076   3.197   4.220  2.9850  1.6580 -2.6943
  606MOL0     H81777  11.090   3.020   4.270  2.2223  0.0420 -0.0048
  606MOL0     H81778  11.218   2.993   4.058  0.2601  1.0658 -2.7661
  606MOL0     H81779  11.195   3.163   4.013  1.9095  0.5549  0.7914
  606MOL0     H81780  11.412   3.095   4.131 -0.9520 -3.1960 -0.4575
  606MOL0     H81781  11.323   3.060   4.272 -1.9288  0.7443  0.9387
  606MOL0     H81782  11.259   3.301   4.303  1.4404  1.3165  0.8514
  606MOL0     H81783  11.323   3.341   4.149  2.0078 -0.5710 -0.1935
  606MOL0     H81784  11.490   3.240   4.380 -1.4157 -1.3623 -1.5553
  606MOL0     H81785  11.554   3.275   4.223  1.3456 -1.5142  1.9867
  606MOL0     H81786  11.387   3.451   4.403 -0.3234  0.7348  0.3955
  606MOL0     H81787  11.490   3.531   4.275 -4.4656 -0.0852 -1.1189
  606MOL0     H81788  11.607   3.551   4.497  1.4975  0.4980 -0.5262
  606MOL0     H81789  11.612   3.378   4.523  5.1585  0.2424 -0.4343
  606MOL0     H81790  10.596   3.228   4.221  2.4329  1.2026 -0.2060
  606MOL0     H81791  10.392   3.189   4.101  1.1087  2.6568 -1.0726
  606MOL0     H81792   9.989   2.903   4.022  0.3066  1.1267 -0.7111
  606MOL0     H81793   9.790   2.879   3.872  0.0825 -0.0287 -0.1877
  606MOL0     H81794   8.909   3.158   2.032  1.1399 -0.6250  0.1679
  606MOL0     H81795   8.712   3.012   1.993  1.7642 -1.8388  0.4531
  606MOL0     H81796   8.276   2.952   2.103  2.9813  0.7987  3.4033
  606MOL0     H81797   8.090   2.846   2.009  2.3972  3.9108 -0.5202
  606MOL0     H81798   7.936   2.711   1.887  0.3731  1.4694  1.4734
  606MOL0     H81799   7.902   2.734   2.052  1.9973  1.3637 -0.5940
  606MOL0     H81800   7.799   2.496   2.063  2.8676  1.5000  0.3814
  606MOL0     H81801   7.819   2.492   1.886  0.8720  0.7677  0.1656
  606MOL0     H81802   7.687   2.691   1.847 -0.3348 -1.8099 -1.4193
  606MOL0     H81803   7.651   2.695   2.021  2.3478  0.4770  0.6485
  606MOL0     H81804   7.485   2.571   1.852 -2.2959 -2.3663  1.3220
  606MOL0     H81805   7.621   2.445   1.850  1.2169 -0.5046  1.2780
  606MOL0     H81806   7.414   2.432   2.226 -2.0674  2.1089 -0.8387
  606MOL0     H81807   8.240   2.462   2.100  0.6304 -1.2660 -2.1586
  606MOL0     H81808   8.448   2.432   2.208 -0.6781 -0.3993  1.1640
  606MOL0     H81809   8.566   2.513   2.100 -0.1018 -0.8937  0.1611
  606MOL0     H81810   8.554   2.560   2.262  0.3758  0.6035 -0.9965
  607MOL0     O81811   9.553   2.001   0.332 -0.0460  0.4149  0.4427
  607MOL0     C81812   9.543   2.051   0.218 -0.3989  0.7898 -0.2536
  607MOL0     O81813   9.630   2.145   0.167 -0.2073  1.1560  0.3003
  607MOL0     C81814   9.721   2.191   0.255 -0.0287  0.4104  0.0995
  607MOL0     C81815   9.859   2.150   0.261  0.1058  0.4117  0.7028
  607MOL0     C81816   9.951   2.211   0.346 -0.4959 -0.7522  0.6089
  607MOL0     C81817   9.906   2.294   0.447  0.0379  0.0587 -0.2209
  607MOL0     O81818  10.006   2.354   0.516 -0.5743  0.2078 -0.0594
  607MOL0     C81819   9.985   2.399   0.655  0.7924 -0.1412  0.0893
  607MOL0     C81820  10.102   2.476   0.723 -0.2915 -0.6614  0.1229
  607MOL0     C81821  10.237   2.401   0.728 -0.6221 -0.5530  0.2703
  607MOL0     C81822  10.307   2.370   0.588  0.1874 -0.2185 -0.0603
  607MOL0     C81823  10.425   2.279   0.594 -0.4820  0.4099 -0.3152
  607MOL0     C81824  10.554   2.314   0.658  0.6950 -0.1194 -0.3663
  607MOL0     C81825  10.664   2.230   0.607  0.3253  0.3005  0.5492
  607MOL0     C81826  10.795   2.258   0.672  0.2281 -0.3191 -0.5578
  607MOL0     N81827  10.905   2.183   0.606  0.3355  0.3750  0.3087
  607MOL0     C81828  11.041   2.209   0.620 -0.6711 -0.1958  0.2329
  607MOL0     C81829  11.100   2.109   0.547  0.4945  0.0069 -0.3874
  607MOL0     C81830  11.247   2.083   0.536 -0.9223 -0.2674 -0.4315
  607MOL0     C81831  11.308   2.203   0.468 -0.2740  0.3094  0.7169
  607MOL0     C81832  11.455   2.166   0.433 -0.3067  0.2327  0.2938
  607MOL0     C81833  11.541   2.292   0.416  0.9720  0.3963  0.3436
  607MOL0     O81834  11.564   2.355   0.543 -0.3300  0.3815 -0.1555
  607MOL0     C81835  11.622   2.476   0.540  1.1033 -0.1057 -0.6400
  607MOL0     C81836  11.712   2.517   0.642 -0.7644  0.1412  0.9911
  607MOL0     C81837  11.772   2.647   0.642 -0.2235 -0.0558 -0.0955
  607MOL0     C81838  11.746   2.733   0.530 -0.4850  0.7774  0.2842
  607MOL0     C81839  11.829   2.855   0.522  0.3321  0.2322 -0.3090
  607MOL0     O81840  11.873   2.921   0.632 -0.3989 -0.0246 -0.2369
  607MOL0     C81841  11.985   3.003   0.634 -1.0339  0.3097  0.5410
  607MOL0     C81842  12.088   3.001   0.526  0.8065  0.7514  0.1146
  607MOL0     C81843  12.201   3.073   0.543  0.3989 -0.6094  0.5734
  607MOL0     C81844  12.230   3.153   0.655 -0.1381  0.1642  1.0028
  607MOL0     O81845  12.350   3.218   0.653  0.7580 -0.0056 -0.6180
  607MOL0     C81846  12.404   3.250   0.784 -0.4340  0.3377  0.8183
  607MOL0     C81847  12.559   3.239   0.761  0.0636  0.0512 -1.3390
  607MOL0     C81848  12.641   3.274   0.889 -0.0863 -0.3021  0.6759
  607MOL0     C81849  12.785   3.247   0.869 -0.6094  0.4066 -0.3563
  607MOL0     C81850  12.842   3.272   1.010  0.5894  0.6420 -0.0254
  607MOL0     C81851  12.988   3.243   1.016  0.8479 -0.0024  0.1479
  607MOL0     C81852  13.048   3.277   1.149 -0.2695 -0.1171  0.0675
  607MOL0     C81853  13.204   3.277   1.151 -0.4428 -0.5457  0.2633
  607MOL0    Cl81854  13.270   3.127   1.108  0.0775  0.4081  0.4985
  607MOL0     C81855  12.133   3.153   0.756  0.1819  0.8620  0.2634
  607MOL0     C81856  12.014   3.081   0.742  0.1137  0.8461  0.0764
  607MOL0     O81857  11.839   2.898   0.409 -0.0462 -0.5475  0.5556
  607MOL0     C81858  11.651   2.694   0.428 -0.9127 -0.2650 -0.6138
  607MOL0     C81859  11.581   2.575   0.447  0.3282  0.2133 -0.3712
  607MOL0     N81860  10.996   2.040   0.482  0.2743  0.5919  0.4805
  607MOL0     N81861  10.884   2.084   0.514  0.0381 -0.5429  0.1656
  607MOL0     C81862   9.765   2.319   0.451  0.6305 -0.5829  0.1135
  607MOL0     C81863   9.679   2.271   0.355 -0.8297  0.3253 -1.2165
  607MOL0     C81864   9.419   2.035   0.142  0.2682  0.2332 -0.6189
  607MOL0     C81865   9.374   2.137   0.061  0.1287 -0.0647  0.3743
  607MOL0     C81866   9.265   2.112  -0.030 -0.4865  0.5211 -0.5329
  607MOL0     C81867   9.196   1.988  -0.035 -0.5652  0.2674 -0.0694
  607MOL0     O81868   9.081   1.979  -0.108 -0.3739  0.4759 -0.3217
  607MOL0     C81869   8.989   1.879  -0.066 -0.7342  0.0495  0.1538
  607MOL0     C81870   8.842   1.884  -0.129 -0.2022  0.9464  0.0242
  607MOL0     C81871   8.825   1.881  -0.283  0.1999  0.8473  0.9780
  607MOL0     C81872   8.837   1.734  -0.335 -0.7350 -0.6916  0.3989
  607MOL0     C81873   8.726   1.650  -0.293 -0.4593  0.3909 -0.2721
  607MOL0     C81874   8.623   1.579  -0.271 -0.5540  0.1087  0.6926
  607MOL0     C81875   9.246   1.884   0.045  0.3848 -0.1494 -0.0483
  607MOL0     C81876   9.357   1.904   0.124 -0.1695  0.4754  0.2730
  607MOL0     C81877   9.408   1.782   0.193 -0.5463  0.0940  0.4789
  607MOL0     H81878   9.898   2.091   0.179 -1.0961  1.9252 -1.0499
  607MOL0     H81879  10.057   2.191   0.342 -0.3466  0.1561 -0.4339
  607MOL0     H81880   9.894   2.461   0.652  3.6551  4.5229 -0.0564
  607MOL0     H81881   9.981   2.306   0.711  1.8196 -0.7873 -0.8754
  607MOL0     H81882  10.080   2.507   0.826  0.8881  0.5327  0.0366
  607MOL0     H81883  10.100   2.570   0.668  2.8654 -0.5435  0.0543
  607MOL0     H81884  10.217   2.309   0.783 -0.9796 -1.8362 -1.8714
  607MOL0     H81885  10.311   2.460   0.782 -1.0590  0.3168 -0.0666
  607MOL0     H81886  10.244   2.339   0.504 -0.0339  0.6657 -0.2412
  607MOL0     H81887  10.350   2.465   0.555 -3.7261  1.7652 -0.0511
  607MOL0     H81888  10.386   2.185   0.633 -2.3008  1.0079 -0.6050
  607MOL0     H81889  10.427   2.255   0.487 -2.9884  0.5122 -0.4410
  607MOL0     H81890  10.578   2.417   0.632 -1.9131  0.4099 -0.9909
  607MOL0     H81891  10.537   2.318   0.765  0.2748 -2.3439 -0.3068
  607MOL0     H81892  10.669   2.238   0.498  2.1067 -1.6009  0.4202
  607MOL0     H81893  10.643   2.123   0.619  0.1689  0.4503  1.6697
  607MOL0     H81894  10.799   2.368   0.669 -2.0527 -0.0466  2.1490
  607MOL0     H81895  10.815   2.231   0.776  3.8082  0.4736 -0.9207
  607MOL0     H81896  11.085   2.277   0.693 -0.3628 -0.7343  0.5514
  607MOL0     H81897  11.280   2.060   0.637 -1.5265  2.1051  0.3747
  607MOL0     H81898  11.252   1.993   0.474 -3.9072 -0.6094 -0.3373
  607MOL0     H81899  11.270   2.234   0.371  1.5638  1.4279  0.2920
  607MOL0     H81900  11.303   2.283   0.542 -2.1981 -2.1526  3.4628
  607MOL0     H81901  11.467   2.101   0.346  1.8194  1.3319 -0.3001
  607MOL0     H81902  11.509   2.117   0.515  1.5409  0.5444 -0.6855
  607MOL0     H81903  11.507   2.354   0.333  2.3864  1.1132  0.2864
  607MOL0     H81904  11.634   2.258   0.371 -0.7329 -0.7068 -2.6398
  607MOL0     H81905  11.749   2.443   0.712 -0.2017 -0.1526  0.3988
  607MOL0     H81906  11.847   2.685   0.711  2.1867 -0.0604 -2.5408
  607MOL0     H81907  12.073   2.946   0.434 -2.8249  1.4752  0.1220
  607MOL0     H81908  12.287   3.071   0.477  0.8860  2.8291  0.9470
  607MOL0     H81909  12.371   3.353   0.801 -1.5534  0.0455  0.4771
  607MOL0     H81910  12.364   3.201   0.874  1.7667  0.1263  1.7406
  607MOL0     H81911  12.591   3.136   0.740  1.5572 -0.5876  3.0186
  607MOL0     H81912  12.591   3.310   0.684  0.4873  0.0024 -1.2110
  607MOL0     H81913  12.633   3.381   0.911  1.4507  0.2419 -1.0921
  607MOL0     H81914  12.603   3.216   0.973 -1.3196  1.4357  1.3766
  607MOL0     H81915  12.826   3.317   0.795  0.0870  1.3271  0.8702
  607MOL0     H81916  12.798   3.148   0.824 -4.6455 -0.8990  0.9271
  607MOL0     H81917  12.798   3.213   1.091  2.7564 -1.2186 -0.1260
  607MOL0     H81918  12.817   3.375   1.039  0.2779 -0.3655  3.8263
  607MOL0     H81919  13.001   3.134   1.018  1.6585  0.0954  1.1892
  607MOL0     H81920  13.045   3.297   0.941 -1.6642 -1.6042 -3.1562
  607MOL0     H81921  13.015   3.217   1.234 -1.1152  0.2711  0.0215
  607MOL0     H81922  13.017   3.379   1.173 -2.5357 -0.8173  0.3417
  607MOL0     H81923  13.238   3.358   1.086  0.5183 -0.9179  0.2757
  607MOL0     H81924  13.246   3.311   1.246 -0.9550  0.3320  0.1803
  607MOL0     H81925  12.154   3.224   0.836  0.5883  0.6328  0.3592
  607MOL0     H81926  11.948   3.071   0.828  0.7393 -0.9009  0.3976
  607MOL0     H81927  11.617   2.756   0.346  0.5934 -1.9685 -2.6566
  607MOL0     H81928  11.501   2.558   0.377 -0.8563  2.4299  0.3545
  607MOL0     H81929   9.721   2.364   0.539  1.2969 -0.6018  0.4631
  607MOL0     H81930   9.575   2.290   0.376 -0.4229  2.5238 -1.0041
  607MOL0     H81931   9.418   2.235   0.054 -1.5501  0.6388 -0.8338
  607MOL0     H81932   9.230   2.182  -0.106 -2.6737  0.0893  0.0109
  607MOL0     H81933   8.982   1.895   0.042  0.2444 -0.7232  0.3437
  607MOL0     H81934   9.035   1.782  -0.087 -2.8927 -1.6093  2.4332
  607MOL0     H81935   8.784   1.971  -0.100 -2.4021 -0.0964 -1.0218
  607MOL0     H81936   8.788   1.795  -0.096  2.0900 -1.0858 -1.3269
  607MOL0     H81937   8.904   1.942  -0.327  1.7440 -1.4082  0.4788
  607MOL0     H81938   8.727   1.915  -0.319 -0.3189 -0.9985  0.5677
  607MOL0     H81939   8.852   1.736  -0.443 -0.1249  2.0789  0.4667
  607MOL0     H81940   8.930   1.690  -0.297  0.8842 -0.9090 -3.4423
  607MOL0     H81941   8.538   1.514  -0.264 -1.0629  0.7682  0.7248
  607MOL0     H81942   9.209   1.782   0.040  1.9996 -0.7041 -2.0644
  607MOL0     H81943   9.516   1.771   0.184 -0.7898 -1.9382 -0.3553
  607MOL0     H81944   9.362   1.801   0.291 -1.6776  1.6623 -0.3069
  607MOL0     H81945   9.379   1.683   0.158 -0.7306  0.7079 -1.2222
  608MOL0     O81946   3.621   5.603   3.541  0.4147  0.1310  0.1630
  608MOL0     C81947   3.536   5.688   3.505  0.1996  0.4899  0.0927
  608MOL0     O81948   3.560   5.823   3.491  0.1053  0.2263 -0.2109
  608MOL0     C81949   3.684   5.867   3.517  0.5204  0.1678 -0.8973
  608MOL0     C81950   3.727   5.863   3.650  0.1232  0.3251  0.3305
  608MOL0     C81951   3.857   5.907   3.680 -0.0852 -0.7659  0.2152
  608MOL0     C81952   3.936   5.954   3.585  0.2767 -0.4778  0.1830
  608MOL0     O81953   4.057   5.979   3.624  0.7076  0.4867 -0.1338
  608MOL0     C81954   4.169   6.011   3.537  0.2599 -0.0048 -0.5473
  608MOL0     C81955   4.300   6.037   3.604 -0.6006 -0.4529  0.2999
  608MOL0     C81956   4.319   5.955   3.733 -0.4196  0.0493  0.2664
  608MOL0     C81957   4.470   5.933   3.762  0.7783  0.6219  0.6199
  608MOL0     C81958   4.488   5.874   3.902  0.6559  0.2791 -0.1730
  608MOL0     C81959   4.629   5.815   3.903  0.5474 -0.0865 -0.4067
  608MOL0     C81960   4.742   5.918   3.912  0.5102 -0.4781  0.3956
  608MOL0     C81961   4.876   5.849   3.896 -0.1081 -0.9594 -0.1202
  608MOL0     N81962   4.894   5.744   3.993  0.3649  0.2246 -0.0629
  608MOL0     C81963   4.921   5.757   4.126  0.0511 -0.0538  0.6883
  608MOL0     C81964   4.941   5.634   4.168 -0.5885 -0.2313 -0.4674
  608MOL0     C81965   5.011   5.595   4.298  0.2915  0.3928  0.8651
  608MOL0     C81966   5.166   5.615   4.304 -0.0941  0.3714  0.6741
  608MOL0     C81967   5.238   5.548   4.419 -0.0579 -0.2747  0.1037
  608MOL0     C81968   5.396   5.538   4.396  0.1716  0.5282 -0.2966
  608MOL0     O81969   5.415   5.452   4.284  0.1453  0.3148  0.1743
  608MOL0     C81970   5.550   5.412   4.254  0.7485 -0.3013 -0.0833
  608MOL0     C81971   5.569   5.312   4.157  0.1597  0.2019 -0.2556
  608MOL0     C81972   5.695   5.277   4.119  0.7988 -0.6161 -0.2923
  608MOL0     C81973   5.806   5.342   4.161 -0.2055  0.3854 -0.1810
  608MOL0     C81974   5.946   5.310   4.110 -0.4912 -1.4359 -0.0725
  608MOL0     O81975   5.973   5.185   4.063  0.7488  0.8496 -0.1234
  608MOL0     C81976   6.091   5.164   4.008 -0.3728 -0.5951  0.4186
  608MOL0     C81977   6.116   5.209   3.880 -0.3378 -0.3214  0.0403
  608MOL0     C81978   6.247   5.199   3.822  0.5010  1.0735  0.0516
  608MOL0     C81979   6.347   5.121   3.879 -0.1768 -0.3313  0.6808
  608MOL0     O81980   6.462   5.106   3.809 -0.0550  0.0149  0.0372
  608MOL0     C81981   6.495   4.967   3.783 -0.1617 -0.5038 -0.2187
  608MOL0     C81982   6.583   4.963   3.655 -0.6748 -0.1198 -0.3172
  608MOL0     C81983   6.726   5.011   3.692  0.0527 -0.4952  0.2823
  608MOL0     C81984   6.821   4.958   3.592  0.4149 -1.4579  0.9764
  608MOL0     C81985   6.954   5.036   3.617 -0.5219 -0.0583  0.7443
  608MOL0     C81986   7.057   4.963   3.692  1.1976  0.1517 -0.4007
  608MOL0     C81987   7.192   5.044   3.691  0.0132 -0.3132 -0.4007
  608MOL0     C81988   7.308   4.955   3.729 -0.0404 -0.2861  0.0622
  608MOL0    Cl81989   7.456   5.063   3.745 -0.3078 -0.0361 -0.0451
  608MOL0     C81990   6.308   5.070   4.006 -0.2492  0.7692 -0.7192
  608MOL0     C81991   6.189   5.089   4.071  0.6315  0.0122 -0.4505
  608MOL0     O81992   6.026   5.396   4.130 -0.3706 -0.1978  1.1154
  608MOL0     C81993   5.788   5.436   4.262  0.3056 -0.4977 -0.6789
  608MOL0     C81994   5.664   5.473   4.305 -0.3015 -0.2193 -0.7250
  608MOL0     N81995   4.919   5.544   4.064  0.0379 -0.8560 -0.0205
  608MOL0     N81996   4.889   5.613   3.960 -0.3783  0.0603  0.4537
  608MOL0     C81997   3.892   5.954   3.451  0.3094  0.1503 -0.1911
  608MOL0     C81998   3.759   5.916   3.423 -0.0513 -1.0485  0.3745
  608MOL0     C81999   3.403   5.639   3.474 -0.9235  1.1773  0.2442
  608MOL0     C82000   3.305   5.736   3.460  0.0988  0.4480  0.6380
  608MOL0     C82001   3.172   5.709   3.441  0.3133  0.4037  0.1481
  608MOL0     C82002   3.133   5.577   3.423  0.2185  0.1338  0.3255
  608MOL0     O82003   3.004   5.547   3.381  1.2082 -0.1124  0.3515
  608MOL0     C82004   2.931   5.465   3.473  0.3160 -0.8370 -0.1091
  608MOL0     C82005   2.805   5.401   3.410 -0.4923 -0.3942 -1.3275
  608MOL0     C82006   2.709   5.489   3.332  0.6811  0.1637  0.5175
  608MOL0     C82007   2.563   5.442   3.309  0.4232  0.2204  0.0833
  608MOL0     C82008   2.542   5.340   3.200  0.5317  0.2426 -0.8185
  608MOL0     C82009   2.525   5.259   3.108  0.9974 -0.7564 -0.4615
  608MOL0     C82010   3.225   5.478   3.432 -0.0023 -0.3389  0.2741
  608MOL0     C82011   3.362   5.502   3.455  0.0445  0.2418  0.0424
  608MOL0     C82012   3.454   5.386   3.445 -0.2059 -0.6697  0.2970
  608MOL0     H82013   3.672   5.822   3.735  1.5315 -1.1974  0.5708
  608MOL0     H82014   3.896   5.903   3.781  0.3850  3.2396  0.3284
  608MOL0     H82015   4.180   5.927   3.467 -0.9349 -0.7607  0.1304
  608MOL0     H82016   4.156   6.101   3.476  1.1486  2.0279  2.0485
  608MOL0     H82017   4.316   6.142   3.632 -1.2679 -0.8785  2.4524
  608MOL0     H82018   4.376   6.007   3.532  1.9147  3.8414  0.7988
  608MOL0     H82019   4.270   5.858   3.743  1.9778 -1.1098  1.9037
  608MOL0     H82020   4.274   6.020   3.808 -0.0719  0.7144 -0.0948
  608MOL0     H82021   4.514   5.862   3.691  2.1681  2.3199 -0.3128
  608MOL0     H82022   4.525   6.026   3.746  1.1097  0.2826 -0.3221
  608MOL0     H82023   4.466   5.950   3.978  2.6586  0.0532  0.6988
  608MOL0     H82024   4.412   5.795   3.908  1.6939 -0.8155 -1.0612
  608MOL0     H82025   4.628   5.751   3.992 -4.0338  0.8594  0.4689
  608MOL0     H82026   4.644   5.756   3.813 -0.6313  1.3593 -1.6002
  608MOL0     H82027   4.731   5.979   4.003 -2.8541 -2.7181  1.6949
  608MOL0     H82028   4.734   5.985   3.826 -2.4273  0.2129  1.0822
  608MOL0     H82029   4.893   5.808   3.796  2.8568 -2.3491  0.8527
  608MOL0     H82030   4.958   5.919   3.917  0.7044 -2.2578  1.1956
  608MOL0     H82031   4.943   5.851   4.175  2.6927 -0.1011 -0.2086
  608MOL0     H82032   4.972   5.649   4.385  1.9154 -1.1780  2.6687
  608MOL0     H82033   4.989   5.489   4.316  0.9189  0.7271  4.2868
  608MOL0     H82034   5.193   5.564   4.211  1.6137 -1.8512  2.2726
  608MOL0     H82035   5.190   5.719   4.284 -1.7315  0.2932 -2.2087
  608MOL0     H82036   5.207   5.443   4.423  0.5515 -0.5121 -1.0518
  608MOL0     H82037   5.205   5.607   4.505 -3.1167 -1.8000  0.1019
  608MOL0     H82038   5.441   5.489   4.483  0.9673  1.0788 -0.3863
  608MOL0     H82039   5.448   5.633   4.385  2.7606 -0.6341  1.0127
  608MOL0     H82040   5.494   5.245   4.118  0.4504 -0.3974  0.2066
  608MOL0     H82041   5.708   5.187   4.061  1.5443 -0.7045  0.0004
  608MOL0     H82042   6.038   5.265   3.829  0.5057  1.2927  0.4653
  608MOL0     H82043   6.273   5.249   3.729  2.2233  0.6103  0.2486
  608MOL0     H82044   6.541   4.914   3.867 -0.5937  0.5923  0.7187
  608MOL0     H82045   6.397   4.921   3.767 -2.4196  3.4420  0.9052
  608MOL0     H82046   6.589   4.858   3.627  0.0421 -1.1177  3.0633
  608MOL0     H82047   6.541   5.017   3.569  0.2403 -1.0206 -1.3543
  608MOL0     H82048   6.718   5.120   3.693  0.9365 -0.4072  2.1325
  608MOL0     H82049   6.755   4.977   3.792  1.1971 -1.6254 -0.4035
  608MOL0     H82050   6.781   4.985   3.494  0.2290 -3.5255  0.4395
  608MOL0     H82051   6.847   4.852   3.595  0.5581 -1.4549  0.0504
  608MOL0     H82052   6.937   5.134   3.661 -3.5819  0.5123 -1.3419
  608MOL0     H82053   6.987   5.045   3.513 -1.4616  0.9401  0.5102
  608MOL0     H82054   7.020   4.963   3.795  0.7770  0.9155 -0.5441
  608MOL0     H82055   7.055   4.859   3.659 -2.7937  0.4156 -1.4596
  608MOL0     H82056   7.188   5.132   3.755  0.6438 -1.4348  1.2364
  608MOL0     H82057   7.216   5.074   3.588 -2.5108 -0.8033 -1.1958
  608MOL0     H82058   7.290   4.902   3.823 -2.3820  3.1356  1.7426
  608MOL0     H82059   7.317   4.886   3.645  1.9071  1.1960 -1.0452
  608MOL0     H82060   6.387   5.015   4.056 -0.8212  1.3351  0.8595
  608MOL0     H82061   6.171   5.045   4.168 -0.9759  1.4636 -0.0241
  608MOL0     H82062   5.880   5.478   4.303  2.1175 -3.4891 -1.3223
  608MOL0     H82063   5.651   5.550   4.380  1.5948  1.1527 -1.7105
  608MOL0     H82064   3.966   5.969   3.373  2.0744  0.5267  1.4605
  608MOL0     H82065   3.723   5.919   3.320  1.6966  1.9285 -0.2918
  608MOL0     H82066   3.311   5.844   3.460 -2.0394  0.6235  0.2850
  608MOL0     H82067   3.097   5.787   3.432 -0.4699 -0.3660 -0.1068
  608MOL0     H82068   2.898   5.528   3.557  0.2321  0.4509 -1.0800
  608MOL0     H82069   2.988   5.379   3.508 -0.4869 -2.0441 -1.6516
  608MOL0     H82070   2.749   5.351   3.489 -2.8461  0.4420 -2.3693
  608MOL0     H82071   2.834   5.313   3.351  0.4653 -1.0342  0.0598
  608MOL0     H82072   2.747   5.492   3.229  0.9803 -0.1274  0.6203
  608MOL0     H82073   2.715   5.590   3.372  1.2922  0.9112 -1.3426
  608MOL0     H82074   2.531   5.391   3.400 -1.1946 -0.2890 -0.7385
  608MOL0     H82075   2.499   5.528   3.285 -1.2665 -1.1434 -0.4821
  608MOL0     H82076   2.514   5.190   3.026  0.9159  0.6994 -1.7206
  608MOL0     H82077   3.202   5.373   3.422 -1.8187  0.0111  0.3639
  608MOL0     H82078   3.416   5.296   3.396  0.9704 -0.5012 -0.9809
  608MOL0     H82079   3.527   5.407   3.366  0.5333 -2.9543  0.2813
  608MOL0     H82080   3.488   5.371   3.548 -0.1630  0.7217  0.5017
  609MOL0     O82081   8.600  10.168   9.140  0.3647  0.4145 -0.3710
  609MOL0     C82082   8.472  10.182   9.148 -0.6949 -0.5290 -0.3836
  609MOL0     O82083   8.393  10.237   9.047  1.0505  0.0853  0.3236
  609MOL0     C82084   8.458  10.289   8.937  0.1206  0.7407  0.3542
  609MOL0     C82085   8.538  10.402   8.946  0.7269  0.3619 -0.5452
  609MOL0     C82086   8.608  10.443   8.832  0.3509  0.5245 -0.4516
  609MOL0     C82087   8.619  10.366   8.717  0.3373 -0.8070  0.0788
  609MOL0     O82088   8.702  10.416   8.614 -0.6865 -0.0530 -0.4226
  609MOL0     C82089   8.790  10.327   8.541  0.7032 -0.0652  0.1000
  609MOL0     C82090   8.897  10.407   8.476 -0.6559  0.1984  0.5183
  609MOL0     C82091   9.009  10.444   8.575  0.5017  0.0643  0.0100
  609MOL0     C82092   9.057  10.325   8.669 -0.3324 -0.6707  0.6514
  609MOL0     C82093   9.204  10.355   8.723  0.2157  0.0147  0.2777
  609MOL0     C82094   9.257  10.241   8.804  0.5261 -0.0267  0.3602
  609MOL0     C82095   9.388  10.276   8.874 -0.5396  0.7359 -0.6063
  609MOL0     C82096   9.423  10.160   8.957  0.4953  0.5446 -0.4857
  609MOL0     N82097   9.529  10.202   9.049  0.1565  0.5802  0.6438
  609MOL0     C82098   9.653  10.135   9.052  0.0643 -0.8046  0.1913
  609MOL0     C82099   9.713  10.179   9.161 -0.5649  0.9418 -0.9136
  609MOL0     C82100   9.851  10.122   9.212  0.4657 -0.4949 -0.3401
  609MOL0     C82101   9.965  10.226   9.167  0.9618 -0.2244  0.5727
  609MOL0     C82102  10.104  10.201   9.229  0.2085 -0.3471  0.1015
  609MOL0     C82103  10.178  10.084   9.157  0.0042  0.3189 -0.9202
  609MOL0     O82104  10.275  10.027   9.249  0.3355 -0.0664  0.1514
  609MOL0     C82105  10.224   9.952   9.349  0.1355  0.4996 -0.5101
  609MOL0     C82106  10.098   9.886   9.346 -0.9274 -0.3191  1.2673
  609MOL0     C82107  10.047   9.806   9.441  0.9571  0.1410 -0.3753
  609MOL0     C82108  10.137   9.775   9.555 -0.3778 -1.0207 -0.0698
  609MOL0     C82109  10.092   9.689   9.661  0.2414 -1.2744 -0.3098
  609MOL0     O82110   9.952   9.671   9.676  0.5119 -0.4059 -1.0163
  609MOL0     C82111   9.898   9.586   9.768  0.6391  0.7368  0.1857
  609MOL0     C82112   9.960   9.462   9.804  0.9023  0.8919  0.8860
  609MOL0     C82113   9.912   9.365   9.896 -0.0963  0.0434  0.2495
  609MOL0     C82114   9.790   9.393   9.960 -1.0644  0.5815 -1.0155
  609MOL0     O82115   9.723   9.303  10.037 -0.5618 -0.0999  0.3307
  609MOL0     C82116   9.776   9.283  10.163 -0.2329 -0.1722  0.1943
  609MOL0     C82117   9.702   9.164  10.227  0.8173 -0.5701 -0.8899
  609MOL0     C82118   9.745   9.135  10.375 -0.3119 -0.0586  0.5739
  609MOL0     C82119   9.663   9.006  10.417 -0.2801  0.1176  0.3349
  609MOL0     C82120   9.680   9.001  10.565  0.3559  0.1542 -0.8386
  609MOL0     C82121   9.646   8.872  10.642 -0.5495 -1.1218  0.1637
  609MOL0     C82122   9.499   8.851  10.627 -0.0882  0.0651 -0.2342
  609MOL0     C82123   9.427   8.749  10.727 -0.4496 -0.5012  0.1767
  609MOL0    Cl82124   9.252   8.751  10.689 -0.1222  0.0823  0.2866
  609MOL0     C82125   9.731   9.517   9.931 -0.6292 -0.1321  0.3119
  609MOL0     C82126   9.775   9.609   9.828 -1.1617 -0.8382 -0.3889
  609MOL0     O82127  10.184   9.636   9.735  0.4827  0.0279  0.4487
  609MOL0     C82128  10.272   9.830   9.546 -0.0787 -0.6896 -0.3723
  609MOL0     C82129  10.307   9.933   9.460 -0.3269  0.1831 -0.1461
  609MOL0     N82130   9.635  10.260   9.233  0.5459  0.4493  0.3504
  609MOL0     N82131   9.525  10.274   9.165  0.7415  0.2574  0.9119
  609MOL0     C82132   8.541  10.253   8.710  0.2332  1.0837 -0.3169
  609MOL0     C82133   8.461  10.214   8.818  0.3765  0.5040  0.3646
  609MOL0     C82134   8.410  10.127   9.271  0.0230  0.3897  0.5443
  609MOL0     C82135   8.472  10.028   9.343  0.2900  0.3960 -0.3106
  609MOL0     C82136   8.422   9.970   9.459 -0.2833 -0.5388 -0.2699
  609MOL0     C82137   8.293   9.999   9.500 -1.4840 -0.3659 -0.8097
  609MOL0     O82138   8.219   9.939   9.603  0.0573 -0.1301 -0.1464
  609MOL0     C82139   8.283   9.829   9.686 -0.7832 -0.9277  0.0827
  609MOL0     C82140   8.188   9.812   9.813  0.3674 -0.7785 -0.0106
  609MOL0     C82141   8.217   9.928   9.910 -0.0965 -0.3674  0.3786
  609MOL0     C82142   8.105   9.956  10.008 -0.2066  0.0326  0.6385
  609MOL0     C82143   8.069   9.827  10.077  0.4828 -0.7484  0.5798
  609MOL0     C82144   8.030   9.736  10.141 -0.3353  0.3116  1.0572
  609MOL0     C82145   8.218  10.085   9.426 -0.5742 -0.7733  0.0843
  609MOL0     C82146   8.278  10.157   9.321  1.2436 -0.0771  0.7090
  609MOL0     C82147   8.198  10.274   9.271 -1.0610 -0.1599 -0.0871
  609MOL0     H82148   8.527  10.455   9.040 -0.9332  3.9890 -2.6054
  609MOL0     H82149   8.677  10.527   8.834  1.8068 -0.6266  1.7610
  609MOL0     H82150   8.833  10.249   8.604 -0.1499 -1.8587 -1.4244
  609MOL0     H82151   8.729  10.269   8.471  0.3345  0.2774  0.1279
  609MOL0     H82152   8.858  10.501   8.437  0.1034 -0.2305 -1.3898
  609MOL0     H82153   8.928  10.335   8.399 -4.1597 -0.4064 -0.4988
  609MOL0     H82154   8.974  10.517   8.649  0.8918  1.0215 -0.7439
  609MOL0     H82155   9.090  10.481   8.513  0.7449 -3.4620 -2.0305
  609MOL0     H82156   8.986  10.312   8.751 -2.6598  5.3890  0.0712
  609MOL0     H82157   9.057  10.232   8.610 -3.0713  0.4807 -1.3798
  609MOL0     H82158   9.266  10.397   8.643 -0.8988  2.3469  0.5307
  609MOL0     H82159   9.188  10.438   8.794  1.7305  0.6998 -0.1357
  609MOL0     H82160   9.186  10.223   8.885 -0.5546  1.5641 -0.1855
  609MOL0     H82161   9.257  10.157   8.735 -1.8088  0.4318 -0.2843
  609MOL0     H82162   9.377  10.369   8.931  0.2660  0.3350  0.2184
  609MOL0     H82163   9.463  10.295   8.798  0.3749 -1.4809 -0.3384
  609MOL0     H82164   9.337  10.120   9.011  0.8509 -1.1920 -1.1286
  609MOL0     H82165   9.445  10.071   8.897 -0.2154  0.5813 -0.8125
  609MOL0     H82166   9.697  10.070   8.977 -0.5467  0.0788 -0.9585
  609MOL0     H82167   9.849  10.116   9.322 -1.5236  1.8093 -0.1643
  609MOL0     H82168   9.878  10.019   9.185 -0.4792 -1.8159  3.1204
  609MOL0     H82169   9.973  10.224   9.058 -4.0920  0.8650 -0.0614
  609MOL0     H82170   9.927  10.324   9.198 -1.1734 -1.0288  0.6867
  609MOL0     H82171  10.075  10.171   9.330  0.1298  2.5282  1.0219
  609MOL0     H82172  10.163  10.293   9.238 -0.7331  0.0709  2.9769
  609MOL0     H82173  10.233  10.124   9.072  0.6206 -1.8798 -1.6175
  609MOL0     H82174  10.103  10.014   9.119  1.4602 -1.8453 -0.0137
  609MOL0     H82175  10.030   9.902   9.262  1.4880  0.9085 -0.5928
  609MOL0     H82176   9.942   9.785   9.425  0.6929  2.0940 -1.5070
  609MOL0     H82177  10.058   9.439   9.762  0.1528 -0.9446 -0.0155
  609MOL0     H82178   9.956   9.267   9.915  1.7214  0.2927 -2.1755
  609MOL0     H82179   9.877   9.240  10.160 -1.4745 -3.5139  1.5084
  609MOL0     H82180   9.774   9.373  10.225  0.9625  0.0178 -0.0095
  609MOL0     H82181   9.595   9.188  10.217  1.1492  0.1801 -3.1152
  609MOL0     H82182   9.717   9.079  10.161  0.4131 -0.7584 -0.7455
  609MOL0     H82183   9.851   9.112  10.383  0.4942  2.2657 -1.8568
  609MOL0     H82184   9.731   9.227  10.433  2.6219  0.9268 -0.0921
  609MOL0     H82185   9.710   8.917  10.374 -3.1704 -1.7714  0.7809
  609MOL0     H82186   9.556   8.997  10.393  0.1970  0.9883 -2.4644
  609MOL0     H82187   9.630   9.084  10.617  2.0481 -1.0376  3.1339
  609MOL0     H82188   9.782   9.026  10.595 -1.2210  1.9933  3.9970
  609MOL0     H82189   9.716   8.796  10.608  0.3987 -0.1863 -0.0045
  609MOL0     H82190   9.664   8.890  10.749 -1.4820 -0.8029  0.2865
  609MOL0     H82191   9.479   8.821  10.524 -1.1312  0.2346 -0.0910
  609MOL0     H82192   9.451   8.946  10.654  2.1520  0.8793  1.1924
  609MOL0     H82193   9.466   8.647  10.732 -0.1704 -0.7077 -3.3775
  609MOL0     H82194   9.433   8.795  10.826  1.0224 -1.0231  0.3456
  609MOL0     H82195   9.628   9.536   9.961 -0.8909  4.4092 -2.4658
  609MOL0     H82196   9.713   9.693   9.799 -2.5338 -0.6177  2.7493
  609MOL0     H82197  10.342   9.795   9.621  0.6826 -0.1826 -0.8297
  609MOL0     H82198  10.408   9.971   9.469  0.5241 -2.3065  1.9146
  609MOL0     H82199   8.551  10.195   8.618  0.3647  2.3742 -1.1352
  609MOL0     H82200   8.397  10.128   8.805 -1.6104  1.2031  4.2785
  609MOL0     H82201   8.560   9.984   9.297  0.7029  0.2673  0.5592
  609MOL0     H82202   8.476   9.888   9.505  0.9988 -0.6106 -1.7948
  609MOL0     H82203   8.372   9.871   9.732 -0.8742 -1.5892  0.8874
  609MOL0     H82204   8.282   9.733   9.633  2.3379 -0.9817 -0.0313
  609MOL0     H82205   8.203   9.714   9.859 -2.2353  0.4723  4.0710
  609MOL0     H82206   8.088   9.821   9.770 -0.0525 -0.1192  1.0702
  609MOL0     H82207   8.228  10.021   9.853 -1.1877  0.1783  1.0168
  609MOL0     H82208   8.312   9.915   9.963  1.2178  0.4933 -1.6342
  609MOL0     H82209   8.137  10.030  10.081 -0.2379  1.1051 -0.4027
  609MOL0     H82210   8.026  10.010   9.955  2.1514  0.0857 -3.1829
  609MOL0     H82211   7.996   9.649  10.193  1.0835 -0.3614  0.8864
  609MOL0     H82212   8.118  10.113   9.457 -0.6747  1.2748 -1.8164
  609MOL0     H82213   8.149  10.255   9.175  0.1104  0.1093 -0.7592
  609MOL0     H82214   8.123  10.308   9.343 -2.4585  0.1576 -1.6323
  609MOL0     H82215   8.264  10.358   9.249 -1.9893  0.8351  0.8056
  610MOL0     O82216   1.580   6.555   6.987 -0.0598  0.1383 -0.2313
  610MOL0     C82217   1.560   6.633   7.081 -0.5638  0.3636 -0.1712
  610MOL0     O82218   1.657   6.718   7.125 -0.8493 -0.8254  0.4024
  610MOL0     C82219   1.786   6.721   7.068 -0.3567 -0.1692 -0.6682
  610MOL0     C82220   1.854   6.596   7.082 -0.1237 -0.0168 -0.7245
  610MOL0     C82221   1.991   6.580   7.045  0.0317 -0.2438 -0.0202
  610MOL0     C82222   2.056   6.695   6.979  0.0162 -0.8352  0.7998
  610MOL0     O82223   2.185   6.698   6.940  0.2553 -0.0735  0.4836
  610MOL0     C82224   2.232   6.584   6.868  0.6598 -1.0655 -0.0513
  610MOL0     C82225   2.385   6.593   6.841 -0.1105 -0.1202 -0.3079
  610MOL0     C82226   2.416   6.708   6.755 -0.1576 -0.0078  0.3063
  610MOL0     C82227   2.563   6.698   6.718  0.3707  0.5815  0.3677
  610MOL0     C82228   2.663   6.765   6.814  0.7744  0.3758 -0.6446
  610MOL0     C82229   2.799   6.740   6.775  0.6521 -0.1400  1.0014
  610MOL0     C82230   2.898   6.796   6.876  0.7621 -0.1111  0.1710
  610MOL0     C82231   2.888   6.728   7.019 -0.3185  0.6469  0.8709
  610MOL0     N82232   2.924   6.586   7.011 -0.7996 -0.5242  0.2657
  610MOL0     C82233   2.816   6.492   7.013 -0.4695 -0.0035 -0.0796
  610MOL0     C82234   2.887   6.374   6.993 -1.0513  0.3686 -0.0730
  610MOL0     C82235   2.825   6.237   6.982 -0.7029  0.3416 -0.8361
  610MOL0     C82236   2.758   6.208   6.849  0.6364 -0.7194 -0.5281
  610MOL0     C82237   2.858   6.235   6.734 -0.3725 -0.4906 -0.1419
  610MOL0     C82238   2.803   6.224   6.594  0.6389 -0.5052 -0.5496
  610MOL0     O82239   2.705   6.331   6.571  0.2738 -0.1730 -0.0866
  610MOL0     C82240   2.635   6.328   6.454  0.3760 -0.1261 -0.0355
  610MOL0     C82241   2.553   6.440   6.432 -0.3916 -0.2506  0.0667
  610MOL0     C82242   2.443   6.442   6.345  0.3375  0.0306 -0.8083
  610MOL0     C82243   2.420   6.324   6.267 -0.2522 -0.6818  0.2255
  610MOL0     C82244   2.312   6.320   6.173  0.0527 -0.3495  0.3555
  610MOL0     O82245   2.242   6.432   6.168  1.3478 -0.0808 -0.3130
  610MOL0     C82246   2.120   6.425   6.112 -0.1024  0.2649  0.2267
  610MOL0     C82247   2.100   6.404   5.974 -0.4074  0.3062 -0.8745
  610MOL0     C82248   1.976   6.415   5.925 -0.4605  0.4754  0.2478
  610MOL0     C82249   1.859   6.435   6.006 -0.3642  0.1935 -0.2860
  610MOL0     O82250   1.742   6.451   5.944 -0.3011 -0.1913 -0.0745
  610MOL0     C82251   1.619   6.432   6.014  0.3679  0.1482 -0.1428
  610MOL0     C82252   1.524   6.373   5.906  0.6751 -0.0046 -0.3032
  610MOL0     C82253   1.388   6.336   5.978 -0.3878  0.4597  0.3703
  610MOL0     C82254   1.314   6.450   6.042 -0.0740  0.3632  0.8548
  610MOL0     C82255   1.170   6.428   6.064 -0.2715  0.4682 -0.9084
  610MOL0     C82256   1.110   6.530   6.161  0.1381 -0.1146  1.0773
  610MOL0     C82257   0.960   6.562   6.135 -0.3794 -0.4316  0.0459
  610MOL0     C82258   0.939   6.658   6.018  0.1151  0.4626  0.0950
  610MOL0    Cl82259   0.775   6.655   5.952 -0.3304 -0.0360  0.2063
  610MOL0     C82260   1.881   6.447   6.138 -0.1453  0.9451  0.7140
  610MOL0     C82261   2.003   6.441   6.191 -0.1291  0.4173 -0.5841
  610MOL0     O82262   2.290   6.218   6.110 -0.3730 -0.2778  0.2692
  610MOL0     C82263   2.502   6.206   6.288  0.7233 -0.1429 -0.0366
  610MOL0     C82264   2.607   6.213   6.381 -0.1246  0.2738 -0.0941
  610MOL0     N82265   3.022   6.398   6.976  0.3618 -0.7646 -0.2125
  610MOL0     N82266   3.044   6.530   6.978 -0.0263 -0.2480 -0.6811
  610MOL0     C82267   1.983   6.813   6.968  0.0983 -0.0622 -0.3632
  610MOL0     C82268   1.858   6.834   7.022  0.0512  0.6174  1.0013
  610MOL0     C82269   1.434   6.640   7.167 -0.1254  0.6501 -0.0327
  610MOL0     C82270   1.400   6.747   7.256  0.2117  0.0772  0.4006
  610MOL0     C82271   1.285   6.754   7.339  0.1210 -0.8605  0.4958
  610MOL0     C82272   1.198   6.643   7.338 -0.0000  0.8954 -0.3099
  610MOL0     O82273   1.085   6.641   7.417  0.9065 -0.1556 -0.2415
  610MOL0     C82274   1.118   6.621   7.553 -0.5366 -0.1278 -0.6461
  610MOL0     C82275   0.994   6.640   7.642  0.6219 -0.4244  0.3299
  610MOL0     C82276   0.948   6.791   7.655 -0.2374 -0.6463  0.3619
  610MOL0     C82277   1.038   6.896   7.703  0.4742 -0.1068 -0.6392
  610MOL0     C82278   1.102   6.853   7.835 -0.5381  0.4431 -0.1421
  610MOL0     C82279   1.175   6.842   7.934  0.7933  0.1389 -0.2143
  610MOL0     C82280   1.218   6.544   7.244  0.6506  0.0421  0.1674
  610MOL0     C82281   1.334   6.537   7.162 -0.1009  0.4839  0.0916
  610MOL0     C82282   1.326   6.427   7.062  0.0968  0.2294  0.0319
  610MOL0     H82283   1.803   6.516   7.136  1.5461 -0.2743  0.5411
  610MOL0     H82284   2.040   6.484   7.059  0.2816 -0.0973  0.1172
  610MOL0     H82285   2.215   6.493   6.927  1.9867 -0.7200  0.9255
  610MOL0     H82286   2.194   6.576   6.766  2.7755 -0.2617 -0.9591
  610MOL0     H82287   2.413   6.501   6.789 -0.6267 -0.8580  0.6854
  610MOL0     H82288   2.437   6.581   6.936  1.9555 -3.7422 -1.6760
  610MOL0     H82289   2.392   6.804   6.800 -1.2860  1.0270 -2.2770
  610MOL0     H82290   2.364   6.705   6.659  2.0570  0.3969 -0.9703
  610MOL0     H82291   2.584   6.591   6.712  1.4832  0.5542  3.1856
  610MOL0     H82292   2.568   6.754   6.624 -2.2008  2.1901  1.0842
  610MOL0     H82293   2.648   6.873   6.803  1.9824  0.5001 -1.1881
  610MOL0     H82294   2.624   6.731   6.911  0.3193  2.7748  0.0711
  610MOL0     H82295   2.817   6.635   6.750  0.5150  0.0286  0.1637
  610MOL0     H82296   2.815   6.792   6.680  1.1124  0.7498  1.5606
  610MOL0     H82297   2.889   6.904   6.887 -2.6283 -0.3044  0.2604
  610MOL0     H82298   2.996   6.773   6.834 -0.2791 -0.6019 -2.1712
  610MOL0     H82299   2.954   6.788   7.083  0.8769  0.8807 -0.5220
  610MOL0     H82300   2.786   6.730   7.058 -0.8429 -1.7142 -0.2059
  610MOL0     H82301   2.708   6.488   7.013 -0.4879 -4.1694 -1.5384
  610MOL0     H82302   2.909   6.170   7.003 -0.1774  1.3273  0.3590
  610MOL0     H82303   2.753   6.229   7.065  2.4621  1.1877  2.2377
  610MOL0     H82304   2.743   6.099   6.850 -0.9629 -0.5382 -1.3997
  610MOL0     H82305   2.662   6.256   6.830  1.8814  1.9820 -0.4442
  610MOL0     H82306   2.944   6.167   6.741 -0.9679 -1.4090 -1.2270
  610MOL0     H82307   2.899   6.336   6.739  4.2445 -2.1623  0.6167
  610MOL0     H82308   2.774   6.120   6.583  1.1499 -0.6837 -0.2391
  610MOL0     H82309   2.884   6.245   6.523  1.4207  0.1154  0.4973
  610MOL0     H82310   2.565   6.526   6.497  1.7401  0.7237 -1.5243
  610MOL0     H82311   2.381   6.531   6.349  1.8695  1.1192 -0.7188
  610MOL0     H82312   2.178   6.393   5.899 -1.0734  1.8884 -1.8525
  610MOL0     H82313   1.960   6.401   5.819 -1.1564  1.9675  0.1327
  610MOL0     H82314   1.633   6.358   6.094 -0.8565  0.3970  0.3318
  610MOL0     H82315   1.580   6.526   6.054 -0.1163  0.0333 -0.3424
  610MOL0     H82316   1.500   6.448   5.830  3.2326  0.7274 -0.4831
  610MOL0     H82317   1.560   6.279   5.863  0.8265 -1.1217  2.0916
  610MOL0     H82318   1.311   6.303   5.908 -0.0242 -0.2141  0.2718
  610MOL0     H82319   1.404   6.259   6.054  0.0641 -0.1534 -0.3270
  610MOL0     H82320   1.321   6.554   6.008  0.8239  0.1146  0.2366
  610MOL0     H82321   1.360   6.457   6.141 -2.7863  1.4159  2.1136
  610MOL0     H82322   1.157   6.326   6.102 -0.1387  0.0283 -2.0193
  610MOL0     H82323   1.125   6.448   5.967 -0.6937  0.4083 -0.7249
  610MOL0     H82324   1.124   6.495   6.263 -1.0246  1.3118  1.7601
  610MOL0     H82325   1.162   6.626   6.152  0.7747 -0.4195  1.4690
  610MOL0     H82326   0.909   6.610   6.219 -0.1835  1.3928 -0.8236
  610MOL0     H82327   0.909   6.465   6.129  0.0262 -0.7559  1.5219
  610MOL0     H82328   0.966   6.759   6.050  1.1967  0.9338 -2.0821
  610MOL0     H82329   1.001   6.630   5.933  0.7840 -1.6030  1.1826
  610MOL0     H82330   1.801   6.463   6.211 -1.0198  4.4646 -0.7828
  610MOL0     H82331   2.005   6.458   6.298  1.7588 -5.6596  0.7253
  610MOL0     H82332   2.486   6.108   6.244  0.4274 -0.0409 -0.1630
  610MOL0     H82333   2.662   6.121   6.398 -0.4297  0.0790 -0.1441
  610MOL0     H82334   2.032   6.900   6.925  1.1792 -1.0017 -1.1248
  610MOL0     H82335   1.801   6.924   7.000 -1.3064 -0.7267 -1.4606
  610MOL0     H82336   1.483   6.816   7.267  0.4530  0.1568 -1.6172
  610MOL0     H82337   1.264   6.841   7.399  0.6145  1.2668 -2.2035
  610MOL0     H82338   1.200   6.674   7.602 -0.5914 -1.0865  0.5162
  610MOL0     H82339   1.138   6.514   7.542 -1.3551 -0.1496 -2.3273
  610MOL0     H82340   1.007   6.593   7.740  3.3001  1.0507  0.7749
  610MOL0     H82341   0.903   6.585   7.617 -1.5491  1.9914  2.4271
  610MOL0     H82342   0.855   6.796   7.714 -0.0145  0.6532  0.6384
  610MOL0     H82343   0.911   6.818   7.556  0.7558 -0.0042  0.1561
  610MOL0     H82344   1.120   6.918   7.635  1.4360 -0.2933  0.4270
  610MOL0     H82345   0.981   6.989   7.713 -0.7996 -0.7850 -1.2893
  610MOL0     H82346   1.237   6.840   8.021 -0.5572 -1.0468  0.7468
  610MOL0     H82347   1.143   6.467   7.231  2.5484 -2.0197  0.7362
  610MOL0     H82348   1.332   6.452   6.956  1.0595  0.5647  0.1556
  610MOL0     H82349   1.405   6.355   7.088 -2.3977 -2.0852  1.8301
  610MOL0     H82350   1.231   6.374   7.068 -1.2569  1.8835 -3.9255
  611MOL0     O82351   6.227   6.142   9.524  0.3377  0.6285 -0.3775
  611MOL0     C82352   6.201   6.201   9.630 -0.2259  0.0237 -0.3113
  611MOL0     O82353   6.288   6.200   9.738 -0.7724 -0.5245  0.0713
  611MOL0     C82354   6.416   6.151   9.706  0.0775 -1.3303 -0.1072
  611MOL0     C82355   6.490   6.227   9.614 -0.3672 -0.8420  0.4156
  611MOL0     C82356   6.617   6.183   9.575 -0.7152 -0.6164  0.3175
  611MOL0     C82357   6.684   6.079   9.647  0.0405  0.5685  0.3149
  611MOL0     O82358   6.813   6.058   9.605  0.2112 -0.3748  0.0750
  611MOL0     C82359   6.899   5.968   9.675  0.2321 -0.3848  0.8690
  611MOL0     C82360   6.890   5.835   9.601  0.2598  0.4519 -1.5971
  611MOL0     C82361   6.935   5.831   9.455  0.2394 -0.2527 -0.2894
  611MOL0     C82362   6.990   5.701   9.414  0.1759 -0.9276  0.2577
  611MOL0     C82363   7.016   5.680   9.260  0.4096  0.1742  0.3080
  611MOL0     C82364   6.889   5.623   9.185 -0.4700 -0.4466 -1.2283
  611MOL0     C82365   6.910   5.616   9.035  0.1898 -0.5981  0.3576
  611MOL0     C82366   6.786   5.556   8.970  0.4121  0.9534  0.0452
  611MOL0     N82367   6.806   5.588   8.827  0.6896 -0.2764  1.2560
  611MOL0     C82368   6.756   5.707   8.780  0.0559 -0.3034  0.5411
  611MOL0     C82369   6.754   5.693   8.645 -1.2007 -0.1670  0.5308
  611MOL0     C82370   6.698   5.806   8.556  0.3269  0.3971 -0.3235
  611MOL0     C82371   6.811   5.885   8.473 -0.9707 -0.0002  0.6073
  611MOL0     C82372   6.766   5.989   8.377 -0.1288 -0.1085  0.3890
  611MOL0     C82373   6.891   6.072   8.318  0.0394  0.3661 -0.6560
  611MOL0     O82374   6.958   5.998   8.219  0.2196 -0.3610  0.5253
  611MOL0     C82375   7.084   6.018   8.187  0.5394 -0.0341  0.0381
  611MOL0     C82376   7.166   5.903   8.156  0.3695 -1.6492  0.0343
  611MOL0     C82377   7.306   5.922   8.132  0.6162  0.0559 -0.1713
  611MOL0     C82378   7.359   6.051   8.121  1.4213  0.0051  0.9164
  611MOL0     C82379   7.497   6.053   8.099 -0.3059  0.1334  0.7721
  611MOL0     O82380   7.554   5.935   8.061  0.6050  0.6548  0.5700
  611MOL0     C82381   7.683   5.917   8.041 -1.2719  0.1153  0.0008
  611MOL0     C82382   7.757   6.006   7.958  1.2230 -1.1444  0.1522
  611MOL0     C82383   7.891   5.974   7.926 -0.0532 -0.0849  0.0399
  611MOL0     C82384   7.946   5.859   7.988  0.0377 -0.0708 -0.5250
  611MOL0     O82385   8.071   5.809   7.953  0.3328  0.0708 -0.2692
  611MOL0     C82386   8.177   5.837   8.041  0.4192  0.2745 -0.6333
  611MOL0     C82387   8.314   5.801   7.984  0.3959  0.3449 -0.4698
  611MOL0     C82388   8.417   5.805   8.095 -0.3168  0.0252 -0.0777
  611MOL0     C82389   8.552   5.749   8.045 -0.1704  0.2256  0.4191
  611MOL0     C82390   8.623   5.841   7.943 -0.0068 -0.0039 -1.2602
  611MOL0     C82391   8.762   5.787   7.914 -0.6794  0.3395  0.5250
  611MOL0     C82392   8.826   5.866   7.801  0.0042 -0.3602  0.4464
  611MOL0     C82393   8.964   5.821   7.757 -0.5086 -0.1974 -0.1681
  611MOL0    Cl82394   9.038   5.931   7.656 -0.1410 -0.3438 -0.5472
  611MOL0     C82395   7.877   5.778   8.080  0.1060  0.0881  0.7162
  611MOL0     C82396   7.746   5.803   8.097 -0.0502  0.5883 -0.2714
  611MOL0     O82397   7.562   6.151   8.124  0.0849  0.0709 -1.0044
  611MOL0     C82398   7.276   6.158   8.136 -0.6294 -0.1689 -0.2614
  611MOL0     C82399   7.145   6.143   8.177  1.0978  1.0961 -0.1932
  611MOL0     N82400   6.803   5.572   8.611 -0.2422 -0.0798  0.2151
  611MOL0     N82401   6.812   5.503   8.717 -0.1927 -0.2564 -0.4435
  611MOL0     C82402   6.612   6.016   9.743  0.6044  0.0928 -0.6430
  611MOL0     C82403   6.480   6.050   9.775 -0.6024 -0.4675  0.6553
  611MOL0     C82404   6.062   6.268   9.640 -0.1400  0.5172  0.2735
  611MOL0     C82405   5.995   6.280   9.758 -0.0203 -0.7961 -0.2581
  611MOL0     C82406   5.865   6.340   9.777  0.1282  0.5532 -0.2079
  611MOL0     C82407   5.804   6.382   9.652  0.5535  1.2250 -0.2634
  611MOL0     O82408   5.683   6.437   9.642 -0.5743 -0.2233  0.6624
  611MOL0     C82409   5.595   6.455   9.760  0.2271 -0.8936  0.6235
  611MOL0     C82410   5.448   6.458   9.697 -0.0323  0.4144  0.2457
  611MOL0     C82411   5.402   6.596   9.645 -0.1539  0.4240 -0.6346
  611MOL0     C82412   5.260   6.586   9.595  0.6612  1.0666 -0.2206
  611MOL0     C82413   5.223   6.712   9.533 -0.6350 -0.2179  0.3386
  611MOL0     C82414   5.193   6.806   9.469  0.6188 -0.2092  1.2313
  611MOL0     C82415   5.867   6.359   9.527  0.1603 -0.3654  0.0245
  611MOL0     C82416   5.991   6.310   9.521 -0.7630 -0.5565 -0.1601
  611MOL0     C82417   6.039   6.290   9.374  0.5227  0.5112  0.0744
  611MOL0     H82418   6.447   6.316   9.570  2.6574  0.8558  0.6177
  611MOL0     H82419   6.673   6.232   9.496 -2.5113 -0.8130 -1.1355
  611MOL0     H82420   7.002   6.005   9.667 -0.5284  1.6954  0.0057
  611MOL0     H82421   6.883   5.969   9.783  1.1956  2.0621  1.0525
  611MOL0     H82422   6.786   5.802   9.606  0.2125  0.3036 -3.1260
  611MOL0     H82423   6.951   5.764   9.658 -1.5541  1.0838  1.3715
  611MOL0     H82424   7.016   5.903   9.437 -0.6395  1.0883  0.9401
  611MOL0     H82425   6.844   5.850   9.397 -1.2033  1.2571  2.2942
  611MOL0     H82426   7.082   5.695   9.472  0.9003  1.4182 -0.5053
  611MOL0     H82427   6.926   5.619   9.448 -2.2603  1.0304  0.6890
  611MOL0     H82428   7.036   5.778   9.217 -2.4787 -0.0193 -1.7683
  611MOL0     H82429   7.108   5.622   9.244 -0.1234 -0.7848  0.6072
  611MOL0     H82430   6.875   5.525   9.230 -2.0428 -0.2675 -1.2502
  611MOL0     H82431   6.806   5.685   9.221  1.8172  1.1383  1.8265
  611MOL0     H82432   6.998   5.557   9.009  0.7296  0.2735  0.1455
  611MOL0     H82433   6.938   5.716   9.001  2.2328 -0.7789  1.3381
  611MOL0     H82434   6.788   5.447   8.967 -1.2928  0.9018 -0.0718
  611MOL0     H82435   6.690   5.591   9.008  0.5814  1.9004 -0.3560
  611MOL0     H82436   6.712   5.789   8.836 -0.1486  0.5764 -0.8509
  611MOL0     H82437   6.622   5.753   8.497 -2.7420 -0.6101  4.0070
  611MOL0     H82438   6.640   5.866   8.626  1.1713  0.0888  0.6610
  611MOL0     H82439   6.878   5.936   8.543  2.6626 -0.9970 -1.8553
  611MOL0     H82440   6.867   5.815   8.409  3.5298  2.0900  1.8694
  611MOL0     H82441   6.693   6.056   8.423 -1.6753 -0.4852 -1.3897
  611MOL0     H82442   6.710   5.939   8.297 -0.0092  0.0366  0.2154
  611MOL0     H82443   6.954   6.119   8.393 -1.4237  3.0466 -0.9788
  611MOL0     H82444   6.855   6.164   8.270  2.1617  1.6023 -0.0268
  611MOL0     H82445   7.133   5.802   8.177 -2.1899 -0.5816  1.8058
  611MOL0     H82446   7.354   5.832   8.094  2.7024  0.9964  0.0898
  611MOL0     H82447   7.718   6.099   7.917 -0.5932 -2.6867 -1.8787
  611MOL0     H82448   7.953   6.039   7.866  1.3824 -0.4014  1.1357
  611MOL0     H82449   8.182   5.943   8.068 -1.1943  0.2909 -0.3185
  611MOL0     H82450   8.159   5.781   8.133 -0.8327  1.1073 -0.3432
  611MOL0     H82451   8.308   5.699   7.946 -0.1502  0.7564 -1.5252
  611MOL0     H82452   8.333   5.870   7.902  2.1016  1.0831  0.4984
  611MOL0     H82453   8.436   5.910   8.117  1.6777 -0.0176 -1.3465
  611MOL0     H82454   8.375   5.752   8.182  3.5557  2.2094  3.4618
  611MOL0     H82455   8.538   5.654   7.993  3.2546 -0.9950  1.4813
  611MOL0     H82456   8.611   5.719   8.132  1.7605 -2.1659 -1.5453
  611MOL0     H82457   8.625   5.946   7.972 -0.4651  0.4369 -2.7661
  611MOL0     H82458   8.566   5.835   7.850 -3.2139 -2.6033  0.6551
  611MOL0     H82459   8.822   5.781   8.005 -1.3809 -1.1350  0.9357
  611MOL0     H82460   8.767   5.681   7.889  1.5490  0.7694 -1.1795
  611MOL0     H82461   8.834   5.966   7.844 -3.4866  1.3979 -2.4527
  611MOL0     H82462   8.765   5.871   7.710  2.3220 -3.3924 -1.4525
  611MOL0     H82463   9.019   5.784   7.844  0.3924  0.2942 -0.5122
  611MOL0     H82464   8.948   5.736   7.689  0.2964 -0.0244 -0.5799
  611MOL0     H82465   7.916   5.683   8.113  1.5265  0.7853  1.1125
  611MOL0     H82466   7.677   5.742   8.155  2.2103 -0.8032  1.1174
  611MOL0     H82467   7.322   6.251   8.106 -1.9425 -0.1320 -2.4034
  611MOL0     H82468   7.075   6.223   8.197 -1.3990 -0.7583 -1.0640
  611MOL0     H82469   6.652   5.939   9.808 -2.1994 -0.4809  0.5540
  611MOL0     H82470   6.427   5.982   9.841 -1.4795 -1.3554 -0.9046
  611MOL0     H82471   6.057   6.231   9.833 -0.9730 -0.0458  1.0600
  611MOL0     H82472   5.815   6.344   9.874 -0.7678  0.1021 -0.6385
  611MOL0     H82473   5.626   6.548   9.808  1.6929 -0.6689 -0.6737
  611MOL0     H82474   5.602   6.375   9.834 -0.3258 -0.5419  1.0682
  611MOL0     H82475   5.381   6.427   9.777  0.9245 -0.4554  0.7395
  611MOL0     H82476   5.447   6.384   9.616 -0.0303 -0.4065  0.9904
  611MOL0     H82477   5.472   6.630   9.568 -0.5380  2.3879 -0.1466
  611MOL0     H82478   5.389   6.662   9.731 -3.8383 -1.1959  0.2385
  611MOL0     H82479   5.254   6.515   9.511 -0.6528  1.6205 -0.6162
  611MOL0     H82480   5.192   6.556   9.674 -0.0414  0.1332 -1.1521
  611MOL0     H82481   5.173   6.896   9.415  2.7214  2.0259  3.8263
  611MOL0     H82482   5.807   6.371   9.437 -0.0901 -1.8150 -0.0230
  611MOL0     H82483   6.040   6.186   9.341  3.5030 -0.0376  1.4933
  611MOL0     H82484   5.986   6.351   9.300 -1.6834  2.4909  3.0642
  611MOL0     H82485   6.142   6.324   9.359  0.6525 -0.8908 -3.1246
  612MOL0     O82486   6.445   5.827  10.240 -0.2742  0.6484 -0.0512
  612MOL0     C82487   6.398   5.858  10.133 -0.2813 -0.1363 -0.0471
  612MOL0     O82488   6.452   5.821  10.012  0.2645 -0.6983  0.3994
  612MOL0     C82489   6.574   5.777  10.010 -0.4193 -0.7390 -0.3935
  612MOL0     C82490   6.599   5.654   9.945 -1.1683 -0.6742  0.5935
  612MOL0     C82491   6.722   5.588   9.947  0.5482 -0.9736  0.4811
  612MOL0     C82492   6.838   5.650  10.002  0.3197 -1.0870 -0.2199
  612MOL0     O82493   6.956   5.590  10.022  0.0194 -1.0106 -0.2157
  612MOL0     C82494   6.998   5.499   9.928 -0.2339  0.5275  0.4012
  612MOL0     C82495   7.145   5.477   9.967 -0.2116  0.1468  0.3015
  612MOL0     C82496   7.202   5.356   9.910 -0.3403  0.7545  1.4652
  612MOL0     C82497   7.354   5.330   9.965  0.7921 -0.1847 -0.8359
  612MOL0     C82498   7.425   5.217   9.890 -0.3409 -0.0441 -0.4476
  612MOL0     C82499   7.528   5.160   9.987 -0.2706 -0.2784  0.3557
  612MOL0     C82500   7.605   5.054   9.915 -0.1829  0.2340  1.0862
  612MOL0     C82501   7.715   4.983   9.992 -0.0016  0.4441  0.3685
  612MOL0     N82502   7.841   5.056   9.975 -0.5098  0.0506 -0.0432
  612MOL0     C82503   7.931   5.054   9.872 -0.0155  0.3369 -0.1958
  612MOL0     C82504   8.029   5.139   9.909  0.0006  0.8906 -0.5574
  612MOL0     C82505   8.163   5.149   9.845 -0.4023 -0.7460 -0.4602
  612MOL0     C82506   8.228   5.290   9.862  0.2871 -0.0235 -0.3212
  612MOL0     C82507   8.369   5.266   9.804 -0.2293  0.2617 -0.9253
  612MOL0     C82508   8.472   5.375   9.842 -0.5397  0.6993  0.2310
  612MOL0     O82509   8.601   5.320   9.819 -0.4526  0.2070  0.0723
  612MOL0     C82510   8.659   5.294   9.693 -0.4792 -0.1777 -0.0133
  612MOL0     C82511   8.672   5.393   9.599  0.4107 -0.2379  0.5123
  612MOL0     C82512   8.745   5.376   9.481  0.3282 -0.3766 -0.2436
  612MOL0     C82513   8.818   5.259   9.460  0.7398  0.3739 -0.4550
  612MOL0     C82514   8.918   5.241   9.351  0.1007  0.1140  0.7105
  612MOL0     O82515   8.986   5.115   9.349 -0.3962 -0.3146  0.5343
  612MOL0     C82516   9.094   5.087   9.267 -0.2341 -0.3608 -0.1016
  612MOL0     C82517   9.195   5.180   9.235 -0.1231 -0.3162 -1.0456
  612MOL0     C82518   9.302   5.145   9.150 -0.0487  0.0537 -0.5227
  612MOL0     C82519   9.311   5.019   9.101 -0.1440  0.2202  0.1711
  612MOL0     O82520   9.412   4.977   9.023  0.2543  0.2282  0.4195
  612MOL0     C82521   9.546   5.004   9.058  0.7913 -0.2825 -0.4962
  612MOL0     C82522   9.630   4.921   8.965 -0.2855  0.0947  0.4477
  612MOL0     C82523   9.601   4.772   8.941 -0.1017 -0.1812  1.0611
  612MOL0     C82524   9.585   4.687   9.071  0.1922  0.2738 -0.2559
  612MOL0     C82525   9.548   4.540   9.038 -0.0094  0.1817  0.3013
  612MOL0     C82526   9.402   4.542   8.982  0.1712 -0.3855  0.4257
  612MOL0     C82527   9.352   4.395   8.964  0.2524 -0.1257  0.2722
  612MOL0     C82528   9.211   4.384   8.888 -0.3243 -0.1057  0.0671
  612MOL0    Cl82529   9.230   4.419   8.707  0.4202 -0.2774 -0.0216
  612MOL0     C82530   9.210   4.926   9.129 -0.1957 -0.7563 -0.0525
  612MOL0     C82531   9.102   4.963   9.213 -0.2497  0.6087  0.8743
  612MOL0     O82532   8.946   5.339   9.288 -0.2730 -0.1631  0.2483
  612MOL0     C82533   8.800   5.163   9.554  1.2311 -0.1099  0.0989
  612MOL0     C82534   8.722   5.171   9.675  0.8917 -0.1505 -1.2625
  612MOL0     N82535   7.990   5.190  10.036 -0.1406  0.0948 -0.6217
  612MOL0     N82536   7.876   5.150  10.070  0.2929  0.1905  0.2760
  612MOL0     C82537   6.819   5.778  10.048  0.3496 -0.2800  0.6039
  612MOL0     C82538   6.685   5.835  10.068 -0.5022 -0.4240  0.7631
  612MOL0     C82539   6.267   5.927  10.134 -0.1239  0.1241  1.0271
  612MOL0     C82540   6.204   5.934  10.007 -0.1161 -0.3775 -0.1725
  612MOL0     C82541   6.078   6.004   9.993 -1.0131 -0.3602  0.3618
  612MOL0     C82542   6.018   6.062  10.106  0.1658 -1.1981 -0.5598
  612MOL0     O82543   5.911   6.140  10.085 -0.2788 -0.3411  0.5292
  612MOL0     C82544   5.852   6.215  10.193  0.2740 -0.8390 -0.6822
  612MOL0     C82545   5.698   6.232  10.147  0.3492  0.1501  0.0935
  612MOL0     C82546   5.629   6.105  10.102  0.1535  0.0422  0.4461
  612MOL0     C82547   5.633   5.985  10.194 -0.1130 -0.0022  0.6899
  612MOL0     C82548   5.537   6.001  10.301  0.8363  0.3861  0.0506
  612MOL0     C82549   5.460   6.034  10.390 -0.1061  0.3808  0.3123
  612MOL0     C82550   6.093   6.057  10.228  0.0902 -0.4417 -0.2956
  612MOL0     C82551   6.217   5.994  10.242  0.2381 -0.1094  0.8391
  612MOL0     C82552   6.297   6.016  10.375  0.2003  0.8247  0.3902
  612MOL0     H82553   6.523   5.605   9.884  3.1626  0.8352 -7.4146
  612MOL0     H82554   6.731   5.492   9.897  2.9278  0.0727 -1.3057
  612MOL0     H82555   6.943   5.405   9.929  0.2475  0.2012 -1.0795
  612MOL0     H82556   7.012   5.553   9.833 -0.6458 -0.1815 -0.0648
  612MOL0     H82557   7.151   5.474  10.076  1.3831  2.3716  0.3578
  612MOL0     H82558   7.203   5.565   9.937  1.5926 -0.9653  0.3976
  612MOL0     H82559   7.216   5.378   9.803  0.1972 -0.1875  1.3327
  612MOL0     H82560   7.139   5.268   9.923 -0.4182  0.8197  1.5292
  612MOL0     H82561   7.424   5.414   9.966  0.8669 -0.1463  2.6406
  612MOL0     H82562   7.349   5.298  10.069  2.9386  2.5747  0.2501
  612MOL0     H82563   7.353   5.138   9.865 -0.4614  0.5889 -2.2444
  612MOL0     H82564   7.472   5.255   9.799 -0.6310 -0.3175 -0.7155
  612MOL0     H82565   7.603   5.236  10.012 -0.7741  0.7031 -1.0333
  612MOL0     H82566   7.474   5.109  10.067 -3.1909  1.6179 -0.2625
  612MOL0     H82567   7.644   5.092   9.819 -2.5408 -2.3196 -1.0575
  612MOL0     H82568   7.536   4.973   9.892  0.1312  0.4159 -0.6466
  612MOL0     H82569   7.690   4.975  10.098 -1.7685 -1.4306 -0.1248
  612MOL0     H82570   7.719   4.881   9.952 -3.3136 -0.5464  2.2584
  612MOL0     H82571   7.932   4.986   9.787 -0.2166 -3.1128  2.3222
  612MOL0     H82572   8.225   5.078   9.900  0.0264 -1.5602 -1.9478
  612MOL0     H82573   8.158   5.117   9.741  2.2841 -0.3391 -0.7856
  612MOL0     H82574   8.183   5.375   9.810  0.5728 -0.0465 -0.6120
  612MOL0     H82575   8.232   5.310   9.970 -1.4535 -4.8603  0.9255
  612MOL0     H82576   8.363   5.262   9.695  3.7656 -2.2266 -1.2778
  612MOL0     H82577   8.411   5.171   9.839 -0.6655 -0.0333 -1.2039
  612MOL0     H82578   8.461   5.396   9.948  0.9027 -1.2174  0.8185
  612MOL0     H82579   8.461   5.473   9.794  0.4489  2.4020  3.2624
  612MOL0     H82580   8.627   5.488   9.623  1.0897 -0.0405  1.0130
  612MOL0     H82581   8.766   5.465   9.422  0.7242  1.2524  2.1863
  612MOL0     H82582   9.195   5.278   9.280  0.2700 -0.4722 -0.6987
  612MOL0     H82583   9.379   5.214   9.116  1.0279 -0.9352 -0.1649
  612MOL0     H82584   9.565   5.111   9.047 -2.8046  0.6344  0.8997
  612MOL0     H82585   9.557   4.985   9.165  2.4476  2.4760 -0.0736
  612MOL0     H82586   9.628   4.959   8.863  0.8318 -5.0440 -1.8094
  612MOL0     H82587   9.730   4.941   9.003  0.2056  1.6355 -1.4825
  612MOL0     H82588   9.506   4.777   8.886  1.6789  1.5700 -2.1687
  612MOL0     H82589   9.676   4.724   8.878 -1.7874 -0.6070 -0.6974
  612MOL0     H82590   9.506   4.724   9.138 -1.7024 -0.4718 -1.9529
  612MOL0     H82591   9.682   4.690   9.121  0.3269 -2.6728 -0.1487
  612MOL0     H82592   9.542   4.471   9.122 -0.7194  1.6373  1.4926
  612MOL0     H82593   9.618   4.501   8.963 -1.7168 -0.3336 -1.1027
  612MOL0     H82594   9.333   4.608   9.035 -0.8295  1.3276 -2.8085
  612MOL0     H82595   9.422   4.581   8.882 -1.0664  0.3162  0.4455
  612MOL0     H82596   9.341   4.350   9.063  1.1619  1.2058  1.0231
  612MOL0     H82597   9.427   4.338   8.909 -2.6130  0.0575 -4.3137
  612MOL0     H82598   9.174   4.281   8.896  0.7086 -0.5783 -1.0015
  612MOL0     H82599   9.131   4.444   8.933  1.4983  2.6931 -0.2047
  612MOL0     H82600   9.206   4.827   9.085 -1.7721 -0.6585 -0.2007
  612MOL0     H82601   9.040   4.877   9.238  1.6597 -1.2328 -0.3297
  612MOL0     H82602   8.847   5.065   9.550 -1.2486 -1.3734 -1.6318
  612MOL0     H82603   8.719   5.086   9.743  1.4569  0.0184 -1.0202
  612MOL0     H82604   6.903   5.838  10.083 -0.4634  1.3122 -0.0455
  612MOL0     H82605   6.686   5.932  10.116 -1.5665 -0.2200  0.3986
  612MOL0     H82606   6.255   5.894   9.921 -0.6026 -2.1480  0.3205
  612MOL0     H82607   6.032   6.020   9.896  1.5919 -2.7308 -1.4432
  612MOL0     H82608   5.908   6.308  10.208  1.3719 -1.5592 -0.1779
  612MOL0     H82609   5.848   6.161  10.288 -2.2163 -1.0724 -0.8415
  612MOL0     H82610   5.697   6.311  10.072  0.5430  1.2304  1.2029
  612MOL0     H82611   5.634   6.266  10.229  0.1478 -1.1286  0.4867
  612MOL0     H82612   5.680   6.069  10.012  2.1033 -0.0745  1.5535
  612MOL0     H82613   5.525   6.129  10.077  0.6947  0.8120 -1.1983
  612MOL0     H82614   5.617   5.894  10.135 -0.2152  1.2350 -1.2724
  612MOL0     H82615   5.737   5.967  10.221 -0.8548 -1.1090  3.0579
  612MOL0     H82616   5.398   6.077  10.467  0.4331  0.2025  0.8526
  612MOL0     H82617   6.071   6.119  10.314  1.9968  0.5822 -0.5122
  612MOL0     H82618   6.339   5.924  10.416  0.2507  0.4790 -0.4065
  612MOL0     H82619   6.374   6.091  10.353 -0.2020  1.2822  0.5083
  612MOL0     H82620   6.240   6.060  10.458  0.0281  1.5089 -0.0759
  613MOL0     O82621   9.563   9.878   8.525  0.0581  0.6894 -0.9051
  613MOL0     C82622   9.541   9.772   8.472 -0.7140  0.4018 -0.0809
  613MOL0     O82623   9.638   9.694   8.415  0.7317 -0.0306 -0.2571
  613MOL0     C82624   9.759   9.754   8.382  0.4659 -0.2092  0.8563
  613MOL0     C82625   9.768   9.845   8.281  0.3999  0.5924  0.4789
  613MOL0     C82626   9.902   9.891   8.246  0.1259  0.2210 -0.1957
  613MOL0     C82627  10.012   9.851   8.323 -0.1440  0.0225 -0.8061
  613MOL0     O82628  10.135   9.903   8.290 -0.3654 -0.3435 -0.4690
  613MOL0     C82629  10.263   9.842   8.326 -0.1715 -0.1650 -0.2914
  613MOL0     C82630  10.371   9.863   8.223  0.0126  0.7656 -0.0616
  613MOL0     C82631  10.501   9.785   8.253  0.3611 -0.1298 -0.4909
  613MOL0     C82632  10.620   9.848   8.171  0.1926  1.5413  0.1222
  613MOL0     C82633  10.734   9.747   8.138 -0.2848 -0.4202 -0.0798
  613MOL0     C82634  10.874   9.794   8.165  0.1261  0.3547 -0.0218
  613MOL0     C82635  10.984   9.698   8.124  0.2862 -0.8167 -0.3113
  613MOL0     C82636  11.001   9.686   7.978  0.1495  0.7869 -0.8671
  613MOL0     N82637  11.130   9.615   7.938  0.3047 -0.3106  0.0100
  613MOL0     C82638  11.156   9.480   7.971  0.4715 -0.5227 -0.7373
  613MOL0     C82639  11.273   9.455   7.906  0.4339  0.3029 -0.0510
  613MOL0     C82640  11.345   9.325   7.901 -1.0630 -0.9271 -0.5748
  613MOL0     C82641  11.484   9.332   7.956  0.4239 -0.0400  0.2084
  613MOL0     C82642  11.555   9.190   7.968 -1.1698 -0.1440  0.1940
  613MOL0     C82643  11.701   9.208   8.026  0.3591  0.5320 -0.6250
  613MOL0     O82644  11.801   9.273   7.947  0.3342  0.2244  0.2249
  613MOL0     C82645  11.930   9.246   7.973  0.9048  0.2542 -0.8275
  613MOL0     C82646  12.022   9.250   7.877 -0.4933  0.1250  0.3981
  613MOL0     C82647  12.154   9.247   7.909 -0.3188  0.1950 -0.3631
  613MOL0     C82648  12.201   9.226   8.042 -0.0644 -0.0663  0.2967
  613MOL0     C82649  12.343   9.238   8.073  0.2596 -0.0670  0.0803
  613MOL0     O82650  12.420   9.270   7.960 -0.0470  0.5847 -0.1249
  613MOL0     C82651  12.550   9.242   7.972 -0.1034  0.5464  0.8616
  613MOL0     C82652  12.631   9.339   7.932  0.3671 -0.5606  0.6620
  613MOL0     C82653  12.774   9.333   7.948  1.4222  0.0165 -0.2542
  613MOL0     C82654  12.828   9.218   7.998  0.0747 -0.1334 -0.5938
  613MOL0     O82655  12.959   9.212   8.010 -0.9217 -0.0928 -0.0539
  613MOL0     C82656  13.015   9.115   8.101 -0.0864 -0.2520  1.0930
  613MOL0     C82657  13.165   9.131   8.107 -0.4935  0.0834 -0.2444
  613MOL0     C82658  13.245   9.122   7.973 -0.1549  0.0905  0.6933
  613MOL0     C82659  13.400   9.156   7.978  0.1634  0.0080 -0.3667
  613MOL0     C82660  13.470   9.171   7.846 -0.3982  0.5590 -0.7084
  613MOL0     C82661  13.602   9.261   7.852  0.2216 -0.0719 -0.8192
  613MOL0     C82662  13.650   9.286   7.706  0.0727  0.2502  0.8240
  613MOL0     C82663  13.678   9.167   7.627  0.6236 -0.1115  0.1697
  613MOL0    Cl82664  13.782   9.216   7.475  0.6831  0.3365  0.0991
  613MOL0     C82665  12.738   9.108   8.025  0.2689  0.3842 -0.7090
  613MOL0     C82666  12.600   9.116   7.999 -1.3790 -0.1966 -1.6130
  613MOL0     O82667  12.378   9.206   8.186 -0.0021  0.3752  0.9078
  613MOL0     C82668  12.108   9.196   8.138  0.0355  0.4048 -0.9621
  613MOL0     C82669  11.978   9.212   8.106  0.1821 -0.6174 -0.3908
  613MOL0     N82670  11.299   9.568   7.831 -0.4457  0.9251 -0.2377
  613MOL0     N82671  11.227   9.665   7.861  0.6460 -1.0921 -0.5499
  613MOL0     C82672   9.996   9.785   8.442  0.3429 -0.6110  0.3512
  613MOL0     C82673   9.868   9.727   8.457 -1.3333 -0.1009 -0.0025
  613MOL0     C82674   9.405   9.712   8.472  0.2950  0.0393 -0.3015
  613MOL0     C82675   9.379   9.616   8.375  0.6559  0.4580  0.2914
  613MOL0     C82676   9.262   9.543   8.377 -0.2639 -0.4786  0.1772
  613MOL0     C82677   9.154   9.579   8.458  0.6283 -0.2487 -0.5912
  613MOL0     O82678   9.029   9.521   8.447 -0.5771 -0.1304  0.2465
  613MOL0     C82679   8.918   9.609   8.444  0.2876  0.4481 -0.3271
  613MOL0     C82680   8.809   9.558   8.354 -0.0462  0.4877 -0.0709
  613MOL0     C82681   8.692   9.661   8.351 -0.3725  0.2469  0.1027
  613MOL0     C82682   8.579   9.618   8.262  1.0025  0.8099  0.4962
  613MOL0     C82683   8.486   9.733   8.254  0.6469 -0.0427 -0.7008
  613MOL0     C82684   8.410   9.824   8.278 -0.3177  0.0213  0.0287
  613MOL0     C82685   9.166   9.687   8.543  0.8017  0.0357 -0.3590
  613MOL0     C82686   9.300   9.748   8.564  0.4357  0.3202  0.4611
  613MOL0     C82687   9.328   9.848   8.672  0.7623  0.6990  0.7017
  613MOL0     H82688   9.678   9.885   8.235 -0.8783 -1.0891  1.4101
  613MOL0     H82689   9.909   9.956   8.159 -2.8039 -0.4878 -1.0895
  613MOL0     H82690  10.309   9.884   8.415  2.3890 -1.1006 -1.0835
  613MOL0     H82691  10.252   9.734   8.344 -2.0813 -0.0834 -0.7537
  613MOL0     H82692  10.384   9.972   8.217  3.0243  0.4191 -3.0056
  613MOL0     H82693  10.336   9.832   8.124  1.8909  0.2221 -0.5881
  613MOL0     H82694  10.486   9.683   8.217  1.7596 -0.4035 -0.3275
  613MOL0     H82695  10.526   9.781   8.359  2.1673  0.6770 -0.8470
  613MOL0     H82696  10.588   9.889   8.074  2.0214 -0.9341 -1.6483
  613MOL0     H82697  10.660   9.930   8.231  0.9266  0.7809  0.6990
  613MOL0     H82698  10.728   9.663   8.209 -1.2887  0.1858  0.5784
  613MOL0     H82699  10.728   9.712   8.035  2.3284 -0.7300 -0.2106
  613MOL0     H82700  10.894   9.890   8.116 -2.1452 -0.5065 -2.8962
  613MOL0     H82701  10.885   9.815   8.272  1.4822  1.6973 -0.3780
  613MOL0     H82702  10.971   9.595   8.161 -1.0654 -0.1826  1.0797
  613MOL0     H82703  11.079   9.737   8.163  0.3536  0.0850 -1.3389
  613MOL0     H82704  10.919   9.631   7.933  2.3060 -1.0450 -2.8394
  613MOL0     H82705  11.007   9.786   7.933  4.6342  0.9059 -0.4985
  613MOL0     H82706  11.106   9.415   8.042 -0.4890  1.6775  0.7225
  613MOL0     H82707  11.285   9.252   7.955  0.0837  0.3417  2.6494
  613MOL0     H82708  11.369   9.289   7.800  1.8506 -1.5418  0.2653
  613MOL0     H82709  11.540   9.402   7.894  0.0334 -0.1498 -0.2736
  613MOL0     H82710  11.480   9.371   8.058  0.8368  2.9461 -0.8262
  613MOL0     H82711  11.564   9.153   7.865  0.6416  1.8250 -0.4278
  613MOL0     H82712  11.498   9.122   8.031 -1.4214  0.1369  0.2735
  613MOL0     H82713  11.732   9.105   8.046  0.9425  1.1872  2.3605
  613MOL0     H82714  11.687   9.265   8.119 -2.0258 -1.1568  0.1570
  613MOL0     H82715  11.978   9.242   7.778  0.4103 -3.8398  0.1512
  613MOL0     H82716  12.225   9.281   7.834  0.1458  3.9004  1.4716
  613MOL0     H82717  12.590   9.430   7.890  3.2023  0.2933 -0.5179
  613MOL0     H82718  12.835   9.422   7.939  1.1219  0.0493 -2.9894
  613MOL0     H82719  12.956   9.128   8.192 -2.4531 -1.3310 -0.2125
  613MOL0     H82720  12.997   9.009   8.079  1.4255 -0.9088  2.7344
  613MOL0     H82721  13.173   9.231   8.150 -1.7996 -0.3945  1.1731
  613MOL0     H82722  13.195   9.052   8.177 -1.8999 -1.2523 -1.0804
  613MOL0     H82723  13.229   9.019   7.940 -2.9538  0.9525 -0.9188
  613MOL0     H82724  13.201   9.179   7.890  1.9949 -3.1491 -3.0598
  613MOL0     H82725  13.453   9.089   8.046  0.7433  0.5505 -0.2819
  613MOL0     H82726  13.407   9.252   8.029 -0.3396 -0.7066  1.1083
  613MOL0     H82727  13.406   9.209   7.766 -3.6726 -2.9945 -0.0637
  613MOL0     H82728  13.507   9.072   7.818  0.1405 -0.5727  3.3744
  613MOL0     H82729  13.574   9.360   7.890 -1.4106 -0.1427 -1.7386
  613MOL0     H82730  13.676   9.212   7.916  1.1303 -0.9700 -2.4919
  613MOL0     H82731  13.744   9.341   7.707  0.2124  0.0096  0.6965
  613MOL0     H82732  13.578   9.353   7.657  0.2556  1.9221  2.7148
  613MOL0     H82733  13.743   9.096   7.680  1.2705  0.6914  0.4645
  613MOL0     H82734  13.587   9.119   7.590  2.6598 -4.1234 -0.2519
  613MOL0     H82735  12.780   9.015   8.062  2.6770  1.6638 -0.0434
  613MOL0     H82736  12.535   9.030   8.013 -0.5099 -1.2787 -3.6727
  613MOL0     H82737  12.146   9.170   8.237 -1.4975 -0.6483 -0.6281
  613MOL0     H82738  11.900   9.190   8.178  0.2335 -0.8560 -0.4069
  613MOL0     H82739  10.078   9.756   8.506 -0.0373  1.2210  1.7809
  613MOL0     H82740   9.853   9.657   8.538  0.5528 -0.2138  0.2968
  613MOL0     H82741   9.450   9.589   8.297  1.4719  1.7631  0.5467
  613MOL0     H82742   9.240   9.474   8.296  0.2434  0.9158 -1.1850
  613MOL0     H82743   8.941   9.711   8.411  1.1154  1.2002  2.2740
  613MOL0     H82744   8.884   9.611   8.548  2.1855 -1.3446  0.3963
  613MOL0     H82745   8.765   9.463   8.388  1.4851 -1.0106 -2.0341
  613MOL0     H82746   8.842   9.519   8.258  0.5062 -0.6568  0.5541
  613MOL0     H82747   8.736   9.759   8.330 -0.0150  0.8556  3.0960
  613MOL0     H82748   8.659   9.672   8.455  0.3244  0.4655  0.3098
  613MOL0     H82749   8.615   9.602   8.160 -1.0162 -0.6336 -0.0617
  613MOL0     H82750   8.536   9.525   8.301  3.3875 -0.6608 -0.2261
  613MOL0     H82751   8.341   9.904   8.297  0.6053  0.9401 -0.3370
  613MOL0     H82752   9.078   9.722   8.596 -0.1494 -0.0419 -1.8493
  613MOL0     H82753   9.226   9.859   8.710 -1.3758 -1.8954 -3.6205
  613MOL0     H82754   9.392   9.813   8.753 -2.1716 -1.2031  2.3769
  613MOL0     H82755   9.349   9.949   8.635 -0.9105  0.7948 -0.0474
  614MOL0     O82756  10.730   4.696  11.315  0.7462 -0.8433  0.3110
  614MOL0     C82757  10.662   4.798  11.308  0.9122 -0.4966  0.0780
  614MOL0     O82758  10.707   4.929  11.314  0.2577 -0.1622 -0.5980
  614MOL0     C82759  10.838   4.947  11.336 -0.5991  0.7677 -0.1530
  614MOL0     C82760  10.898   5.028  11.435 -0.8456 -0.2810 -0.1189
  614MOL0     C82761  11.035   5.047  11.447 -0.6347  0.1431 -0.0589
  614MOL0     C82762  11.129   5.007  11.351 -0.0506  0.1652  0.5073
  614MOL0     O82763  11.265   5.027  11.378 -0.1279 -0.0479 -0.5060
  614MOL0     C82764  11.347   5.049  11.263  0.0178  0.4884  0.4950
  614MOL0     C82765  11.493   5.077  11.302 -0.0152 -1.3584 -0.0978
  614MOL0     C82766  11.495   5.217  11.378 -0.0426  0.3164 -0.3445
  614MOL0     C82767  11.634   5.275  11.386  0.6935  0.1344 -0.6654
  614MOL0     C82768  11.736   5.178  11.457  0.1400  0.3108  0.3982
  614MOL0     C82769  11.883   5.217  11.422 -0.5790 -1.3765 -0.3255
  614MOL0     C82770  11.975   5.110  11.472 -0.1527  0.0104 -0.1945
  614MOL0     C82771  12.036   5.161  11.605 -0.0514 -0.6160  0.4918
  614MOL0     N82772  12.129   5.068  11.668 -0.9155 -0.0440 -0.2173
  614MOL0     C82773  12.110   4.934  11.714  0.5880  0.5204  0.1074
  614MOL0     C82774  12.228   4.894  11.764  0.0077  0.0380 -0.0983
  614MOL0     C82775  12.248   4.755  11.816  0.4779 -0.6962 -0.1515
  614MOL0     C82776  12.304   4.659  11.716  0.0483  0.2379  0.2055
  614MOL0     C82777  12.427   4.703  11.646  0.0067  0.8887  1.1650
  614MOL0     C82778  12.559   4.666  11.726  0.1479 -0.9945  0.0596
  614MOL0     O82779  12.667   4.709  11.644 -0.4188  0.0412  0.4252
  614MOL0     C82780  12.784   4.646  11.664 -0.4150 -0.3474 -0.6309
  614MOL0     C82781  12.869   4.658  11.562 -0.0219  0.0710  0.5325
  614MOL0     C82782  12.998   4.615  11.564  0.2651  0.3407  0.3731
  614MOL0     C82783  13.048   4.549  11.679 -0.2207  0.2858 -0.0657
  614MOL0     C82784  13.184   4.503  11.683  0.3242 -0.4577 -0.1706
  614MOL0     O82785  13.275   4.535  11.587 -1.0131 -0.4551 -0.5692
  614MOL0     C82786  13.404   4.481  11.605  1.0462 -0.4841 -0.7712
  614MOL0     C82787  13.432   4.347  11.571  0.1414  0.3701 -0.4021
  614MOL0     C82788  13.563   4.299  11.572  1.1864 -0.1488  0.2512
  614MOL0     C82789  13.673   4.389  11.604 -0.4867 -0.2345  0.5706
  614MOL0     O82790  13.802   4.350  11.613 -0.7466 -0.2649 -0.1339
  614MOL0     C82791  13.850   4.240  11.534  0.5761  0.0756 -0.4766
  614MOL0     C82792  13.989   4.267  11.481  0.1432  0.2320 -0.4618
  614MOL0     C82793  14.093   4.204  11.577  0.1869  0.0013  1.5233
  614MOL0     C82794  14.237   4.245  11.537  0.7733 -0.1283  0.3398
  614MOL0     C82795  14.342   4.211  11.639 -0.0753  0.3787 -0.0250
  614MOL0     C82796  14.352   4.062  11.654  1.1057 -0.0431  0.6253
  614MOL0     C82797  14.463   4.014  11.749  0.1429 -0.1644 -0.6686
  614MOL0     C82798  14.423   3.940  11.873 -0.7941  0.2499  0.5568
  614MOL0    Cl82799  14.370   3.778  11.822  0.4299  0.4024 -0.1294
  614MOL0     C82800  13.645   4.521  11.636  0.5394 -0.6730  0.0759
  614MOL0     C82801  13.507   4.564  11.640 -0.6973  0.5244 -0.3012
  614MOL0     O82802  13.210   4.445  11.783 -0.7200 -0.5188  0.2865
  614MOL0     C82803  12.961   4.543  11.788  0.0840 -0.2126  0.0663
  614MOL0     C82804  12.833   4.590  11.780 -0.3696  0.0380 -0.2068
  614MOL0     N82805  12.315   5.002  11.757 -0.2486  0.4327 -0.5938
  614MOL0     N82806  12.257   5.104  11.702  0.1178 -0.3653 -0.5831
  614MOL0     C82807  11.076   4.929  11.246 -0.2535  0.2450  0.6447
  614MOL0     C82808  10.936   4.895  11.242  0.2585  0.5926 -0.2298
  614MOL0     C82809  10.518   4.790  11.287  0.5257  0.9322  0.0697
  614MOL0     C82810  10.430   4.891  11.340 -0.3688  0.0438  0.5413
  614MOL0     C82811  10.294   4.875  11.338  0.2691 -0.1496  0.4545
  614MOL0     C82812  10.230   4.780  11.267  0.7392  0.7293 -0.1117
  614MOL0     O82813  10.093   4.757  11.257  0.3298 -0.7754 -0.4729
  614MOL0     C82814  10.004   4.845  11.333  0.1966 -0.0368  0.0931
  614MOL0     C82815   9.857   4.805  11.315  0.4612 -0.5827  0.4922
  614MOL0     C82816   9.762   4.911  11.359  0.0090 -0.5868  0.1749
  614MOL0     C82817   9.763   4.899  11.517  0.7913  0.0788 -0.2904
  614MOL0     C82818   9.663   4.994  11.570  0.3608 -0.9321 -0.5533
  614MOL0     C82819   9.578   5.052  11.635 -0.0752 -0.1529  0.0056
  614MOL0     C82820  10.309   4.694  11.193 -0.1966  0.7610 -0.5073
  614MOL0     C82821  10.450   4.690  11.211  0.0471  0.4573  0.3881
  614MOL0     C82822  10.508   4.573  11.127  0.2699  0.8139 -0.3798
  614MOL0     H82823  10.832   5.069  11.511 -1.0145 -1.2087  0.2454
  614MOL0     H82824  11.075   5.077  11.543  4.4132 -0.9483 -1.5202
  614MOL0     H82825  11.350   4.957  11.203  0.3146 -0.8067  2.4004
  614MOL0     H82826  11.305   5.135  11.211  0.2743 -1.2205 -2.7644
  614MOL0     H82827  11.552   5.084  11.211  1.3176  0.5644  0.8492
  614MOL0     H82828  11.531   5.001  11.371  3.9589 -1.2018 -1.8763
  614MOL0     H82829  11.445   5.203  11.475 -1.5810  4.2687 -0.3561
  614MOL0     H82830  11.430   5.287  11.324  0.2791  0.1438 -0.9563
  614MOL0     H82831  11.668   5.296  11.284 -0.5989  0.6623 -0.9992
  614MOL0     H82832  11.622   5.365  11.448 -2.9096 -0.2755 -0.5952
  614MOL0     H82833  11.720   5.181  11.565 -2.7998 -0.1209  0.0457
  614MOL0     H82834  11.723   5.075  11.424  2.8350 -0.6793  2.0869
  614MOL0     H82835  11.892   5.216  11.313  1.6398 -0.1397 -0.2121
  614MOL0     H82836  11.906   5.319  11.456 -2.4264  0.2326 -3.4223
  614MOL0     H82837  12.056   5.098  11.399  1.4539  1.9428  1.1427
  614MOL0     H82838  11.934   5.010  11.486 -1.4505 -0.1992 -4.2216
  614MOL0     H82839  12.080   5.260  11.590 -0.8365  0.0574  2.4120
  614MOL0     H82840  11.955   5.174  11.676 -1.4212  0.4582 -1.1857
  614MOL0     H82841  12.013   4.884  11.711  0.0971  1.3862  0.8992
  614MOL0     H82842  12.314   4.757  11.904  0.5496 -0.0281 -0.2184
  614MOL0     H82843  12.159   4.707  11.858 -0.4173  1.2202  0.2277
  614MOL0     H82844  12.324   4.560  11.758 -0.0056 -0.3129 -1.0487
  614MOL0     H82845  12.236   4.635  11.634  2.9663 -4.1262 -1.2808
  614MOL0     H82846  12.416   4.810  11.628 -2.5832  0.6219  0.8498
  614MOL0     H82847  12.442   4.663  11.545  4.9509 -2.3226  2.7607
  614MOL0     H82848  12.576   4.564  11.762 -0.7697  0.0157  3.8788
  614MOL0     H82849  12.554   4.736  11.811  1.4965  0.4257 -0.9710
  614MOL0     H82850  12.841   4.710  11.471  1.6015 -0.8032 -0.5231
  614MOL0     H82851  13.059   4.630  11.476  1.4568  2.4358  1.4830
  614MOL0     H82852  13.346   4.282  11.559  0.6178 -0.3600  0.0584
  614MOL0     H82853  13.567   4.199  11.530 -2.9425 -0.1770 -0.4979
  614MOL0     H82854  13.845   4.144  11.586  2.8462  0.2517  0.1971
  614MOL0     H82855  13.792   4.236  11.442  0.6191  0.7466 -0.5367
  614MOL0     H82856  14.000   4.219  11.384  4.2204 -0.4995  0.2062
  614MOL0     H82857  14.017   4.373  11.481 -0.2250  0.3613  1.3998
  614MOL0     H82858  14.058   4.237  11.676 -1.8089 -0.0547  0.8824
  614MOL0     H82859  14.093   4.095  11.585  2.4819  0.0267  2.5900
  614MOL0     H82860  14.244   4.352  11.517  1.8049  0.1444  1.9856
  614MOL0     H82861  14.249   4.200  11.438 -4.9047  0.7132 -1.1034
  614MOL0     H82862  14.325   4.263  11.734 -3.4902  2.5349 -1.6063
  614MOL0     H82863  14.434   4.250  11.593 -0.9755  1.4212 -1.0122
  614MOL0     H82864  14.256   4.020  11.685 -0.4448  1.9421 -1.1346
  614MOL0     H82865  14.358   4.020  11.553 -2.8972  0.4899 -0.0052
  614MOL0     H82866  14.503   4.103  11.797  0.0830  0.2289 -1.3321
  614MOL0     H82867  14.537   3.958  11.692  0.9641 -1.6841  1.7515
  614MOL0     H82868  14.511   3.925  11.937 -1.3722 -0.8603  1.1138
  614MOL0     H82869  14.345   4.001  11.920  0.2158  3.0670 -1.1623
  614MOL0     H82870  13.728   4.587  11.659 -0.8507  1.8380 -1.5771
  614MOL0     H82871  13.482   4.668  11.661  2.6901  1.4362 -0.1907
  614MOL0     H82872  12.992   4.503  11.884  0.0295 -0.1585  0.1055
  614MOL0     H82873  12.776   4.571  11.870 -1.6184 -1.8100 -1.3221
  614MOL0     H82874  11.144   4.886  11.174  1.9629  0.3147  2.5712
  614MOL0     H82875  10.900   4.839  11.156 -2.2458  1.5582  0.1032
  614MOL0     H82876  10.473   4.965  11.407 -2.1447  0.0054  1.7658
  614MOL0     H82877  10.234   4.943  11.398 -0.7821  0.3356 -1.0890
  614MOL0     H82878  10.022   4.941  11.285  0.4080 -0.1717 -0.1036
  614MOL0     H82879  10.026   4.854  11.439 -2.6448  1.4891  0.6400
  614MOL0     H82880   9.837   4.710  11.364  0.1812  0.2918  2.1403
  614MOL0     H82881   9.836   4.784  11.210 -2.6554 -0.3143  0.9596
  614MOL0     H82882   9.664   4.901  11.312 -0.4409 -1.2553  1.2321
  614MOL0     H82883   9.804   5.007  11.326  2.8946 -0.4646  3.5881
  614MOL0     H82884   9.745   4.793  11.537 -3.2913  0.0814 -2.8105
  614MOL0     H82885   9.859   4.934  11.557 -1.0439  0.5452  4.2924
  614MOL0     H82886   9.508   5.116  11.686 -0.2350 -0.6641  0.4380
  614MOL0     H82887  10.262   4.619  11.130 -0.2365 -0.5685  1.0332
  614MOL0     H82888  10.504   4.602  11.022 -4.5497  2.1583 -0.0218
  614MOL0     H82889  10.611   4.557  11.162  0.7051  1.4655 -1.3284
  614MOL0     H82890  10.461   4.476  11.145  3.8890 -0.5186  4.1321
  615MOL0     O82891  10.566   4.469   8.533 -0.2567 -0.0845 -0.7102
  615MOL0     C82892  10.523   4.467   8.415  0.4619 -1.3160  0.2154
  615MOL0     O82893  10.590   4.505   8.308  0.5848  0.1352  0.2770
  615MOL0     C82894  10.716   4.548   8.311  0.2174  0.3642 -0.0313
  615MOL0     C82895  10.814   4.459   8.334 -0.1905  0.2846  0.9325
  615MOL0     C82896  10.947   4.489   8.323 -0.3303  0.6759 -0.7975
  615MOL0     C82897  10.995   4.619   8.293  0.3017 -0.1878 -0.0522
  615MOL0     O82898  11.126   4.662   8.288  0.3280  0.6645  0.7775
  615MOL0     C82899  11.220   4.617   8.385  0.0501 -0.7877  1.0289
  615MOL0     C82900  11.318   4.720   8.454  0.4277 -0.0440 -0.6806
  615MOL0     C82901  11.411   4.796   8.360  0.7559  0.0536 -0.2006
  615MOL0     C82902  11.443   4.925   8.439 -0.0062 -0.0534  0.1449
  615MOL0     C82903  11.463   5.041   8.338 -0.4889  0.0095  0.4895
  615MOL0     C82904  11.493   5.170   8.412 -0.2084 -0.7239  0.8888
  615MOL0     C82905  11.504   5.285   8.315 -0.4133 -0.0414  0.5927
  615MOL0     C82906  11.568   5.410   8.379  0.5297  0.0592 -0.5977
  615MOL0     N82907  11.715   5.407   8.385 -0.4469  0.2693  0.0919
  615MOL0     C82908  11.796   5.431   8.282  1.1967 -0.1668  0.6560
  615MOL0     C82909  11.917   5.446   8.338  0.0748 -0.6562  0.7149
  615MOL0     C82910  12.048   5.456   8.259  0.2780 -0.2599 -0.3047
  615MOL0     C82911  12.171   5.439   8.350 -0.5913  0.6521  0.7619
  615MOL0     C82912  12.293   5.461   8.257  0.1901  0.3659  0.1716
  615MOL0     C82913  12.417   5.409   8.313 -0.5855  0.1668 -0.3113
  615MOL0     O82914  12.512   5.401   8.201 -0.3639  0.1688 -0.1624
  615MOL0     C82915  12.639   5.431   8.226  0.5392  0.9571  0.1014
  615MOL0     C82916  12.709   5.342   8.307 -0.8514  0.1440 -0.0091
  615MOL0     C82917  12.842   5.348   8.331  0.4146 -0.5710  0.2384
  615MOL0     C82918  12.909   5.462   8.274 -0.2570  0.4469  0.2766
  615MOL0     C82919  13.055   5.488   8.299  0.1831  0.2639  0.4539
  615MOL0     O82920  13.123   5.385   8.364  0.2628  0.1751 -0.2145
  615MOL0     C82921  13.254   5.401   8.410 -1.0373 -1.2039 -0.1160
  615MOL0     C82922  13.328   5.283   8.407 -0.3651 -1.0427  1.3153
  615MOL0     C82923  13.466   5.279   8.449 -0.0236 -1.0210 -0.5155
  615MOL0     C82924  13.522   5.402   8.482 -0.9781 -0.3748 -0.8096
  615MOL0     O82925  13.663   5.411   8.512  0.3127  0.1324  0.0764
  615MOL0     C82926  13.750   5.340   8.427 -0.1336 -0.0751  0.1079
  615MOL0     C82927  13.893   5.384   8.441  0.3761  0.0134  0.3671
  615MOL0     C82928  13.917   5.538   8.449 -0.3244 -0.0133 -0.8977
  615MOL0     C82929  14.061   5.578   8.444  0.1974 -0.5193 -0.8145
  615MOL0     C82930  14.083   5.731   8.462 -0.1751 -0.6061  0.3982
  615MOL0     C82931  14.072   5.810   8.326 -0.5277 -0.5960  0.3987
  615MOL0     C82932  14.195   5.797   8.242 -0.1523  0.2559  0.7342
  615MOL0     C82933  14.169   5.867   8.111 -0.6306  0.2723  0.4653
  615MOL0    Cl82934  14.321   5.881   8.006  0.0062 -0.0498 -0.3836
  615MOL0     C82935  13.446   5.515   8.498  0.1760  0.5148  0.1758
  615MOL0     C82936  13.313   5.517   8.458 -0.1667 -0.8962 -0.4800
  615MOL0     O82937  13.102   5.592   8.256 -0.2451 -0.1562  0.0835
  615MOL0     C82938  12.843   5.547   8.183  0.7629 -0.9605 -0.3047
  615MOL0     C82939  12.708   5.534   8.164  0.9147 -0.3082 -0.3138
  615MOL0     N82940  11.907   5.437   8.474  0.6496  0.4745  0.4284
  615MOL0     N82941  11.792   5.403   8.501  0.8279 -0.0380  0.3730
  615MOL0     C82942  10.889   4.717   8.283  0.1251  0.0248 -0.3854
  615MOL0     C82943  10.752   4.677   8.279  0.0620  0.0446  0.0722
  615MOL0     C82944  10.383   4.425   8.391 -0.0626 -0.7741  0.2294
  615MOL0     C82945  10.315   4.471   8.266  0.5055  0.0278 -0.5724
  615MOL0     C82946  10.184   4.428   8.236 -0.1973 -0.3407  0.0458
  615MOL0     C82947  10.116   4.334   8.326  0.2649 -0.8927  0.8755
  615MOL0     O82948   9.988   4.283   8.299 -0.4938  0.0952  0.7436
  615MOL0     C82949   9.912   4.323   8.183  0.3978 -0.3930 -0.2040
  615MOL0     C82950   9.828   4.444   8.225  0.0118 -0.2258  0.5045
  615MOL0     C82951   9.732   4.418   8.343  1.0154  1.1476 -0.2361
  615MOL0     C82952   9.643   4.544   8.360  0.1462  0.3785 -0.3136
  615MOL0     C82953   9.563   4.521   8.485 -0.7257  0.8775 -0.1111
  615MOL0     C82954   9.524   4.486   8.592 -0.4191 -0.6685 -0.4561
  615MOL0     C82955  10.181   4.305   8.442 -0.5666  0.1015  0.2032
  615MOL0     C82956  10.308   4.345   8.477  0.4489 -0.2508  0.0594
  615MOL0     C82957  10.371   4.295   8.610  0.2676  0.3803 -0.6694
  615MOL0     H82958  10.774   4.358   8.336 -2.5723  1.0126 -2.3761
  615MOL0     H82959  11.014   4.405   8.341  1.8621  2.2342 -1.1713
  615MOL0     H82960  11.179   4.552   8.463  1.7054 -3.1477  0.0244
  615MOL0     H82961  11.279   4.550   8.323  0.5075  1.2899 -0.8888
  615MOL0     H82962  11.372   4.667   8.533  0.2869  1.1558  0.2397
  615MOL0     H82963  11.250   4.781   8.514  1.3117 -0.6738  1.0248
  615MOL0     H82964  11.366   4.819   8.263  0.2068  0.5771  0.1679
  615MOL0     H82965  11.501   4.746   8.324  2.0637  1.4221  1.0157
  615MOL0     H82966  11.364   4.959   8.507  0.3258  2.0778 -0.4551
  615MOL0     H82967  11.533   4.914   8.501 -0.9565 -1.2883  1.3709
  615MOL0     H82968  11.550   5.016   8.277 -0.3332  1.4677  0.0823
  615MOL0     H82969  11.380   5.043   8.266 -0.7250  2.3784  0.7373
  615MOL0     H82970  11.417   5.201   8.484  0.2335  2.0043  0.2639
  615MOL0     H82971  11.591   5.171   8.460 -0.9584 -2.7142  2.6731
  615MOL0     H82972  11.405   5.307   8.276 -0.5831 -1.1629  0.3347
  615MOL0     H82973  11.563   5.247   8.230  1.2047  1.4173  1.0015
  615MOL0     H82974  11.552   5.495   8.311  1.0019  0.8699  0.2738
  615MOL0     H82975  11.516   5.430   8.473 -0.4907 -2.0239 -0.6720
  615MOL0     H82976  11.762   5.436   8.179 -0.4795  0.6015  1.2114
  615MOL0     H82977  12.060   5.377   8.184  1.0573  0.4449 -0.9572
  615MOL0     H82978  12.060   5.552   8.207  1.0144 -0.7796 -1.1308
  615MOL0     H82979  12.164   5.486   8.448  0.4350 -1.0029  1.6710
  615MOL0     H82980  12.170   5.333   8.378 -1.2440  1.1958  2.9664
  615MOL0     H82981  12.308   5.569   8.249 -0.3040  0.5299  1.3246
  615MOL0     H82982  12.269   5.416   8.160 -2.0888 -1.3705  1.4619
  615MOL0     H82983  12.409   5.308   8.355 -1.0619  0.1843 -0.3545
  615MOL0     H82984  12.449   5.483   8.386 -0.2991 -1.9495  1.8174
  615MOL0     H82985  12.652   5.260   8.351 -0.9265  0.6719  0.9062
  615MOL0     H82986  12.891   5.265   8.383  0.5258 -0.3647  0.4680
  615MOL0     H82987  13.273   5.193   8.379  1.6189 -2.3461  1.4091
  615MOL0     H82988  13.538   5.199   8.436  1.2954 -0.5813  2.9541
  615MOL0     H82989  13.747   5.232   8.444  0.4761 -0.6029 -2.6445
  615MOL0     H82990  13.730   5.350   8.320 -2.0707 -2.8279  0.1155
  615MOL0     H82991  13.930   5.339   8.534  0.0719  1.3148  1.1416
  615MOL0     H82992  13.949   5.346   8.355 -1.3476 -3.5241  0.6411
  615MOL0     H82993  13.867   5.577   8.360 -2.2823 -0.8866 -0.2455
  615MOL0     H82994  13.874   5.582   8.540  2.0920  0.3739  0.1424
  615MOL0     H82995  14.116   5.540   8.357  0.0374 -1.2433 -0.6092
  615MOL0     H82996  14.102   5.537   8.537 -1.3465  1.8214  1.0208
  615MOL0     H82997  14.189   5.729   8.490  1.0654 -3.4978 -3.4981
  615MOL0     H82998  14.019   5.771   8.540  1.5822  0.6467  1.2702
  615MOL0     H82999  13.983   5.777   8.272 -0.9758 -0.6152  1.1328
  615MOL0     H83000  14.053   5.914   8.354  0.6808 -0.2708  0.0492
  615MOL0     H83001  14.231   5.695   8.228  0.0507  0.5449 -1.2575
  615MOL0     H83002  14.281   5.849   8.285 -0.1116  1.6222 -0.8710
  615MOL0     H83003  14.089   5.813   8.059 -3.0811  3.2649  0.8538
  615MOL0     H83004  14.129   5.967   8.129  2.9613  1.3187  4.0429
  615MOL0     H83005  13.474   5.611   8.539 -3.5196  0.8728  2.2835
  615MOL0     H83006  13.258   5.608   8.481  1.3277 -0.1633  0.3158
  615MOL0     H83007  12.899   5.631   8.142 -1.1516  0.4473 -0.1549
  615MOL0     H83008  12.654   5.600   8.097 -1.6167 -1.1129  0.8204
  615MOL0     H83009  10.921   4.815   8.252 -0.2416  0.3350  0.1901
  615MOL0     H83010  10.686   4.756   8.244  1.8648  0.5267 -2.5830
  615MOL0     H83011  10.363   4.526   8.186  0.4630 -0.6286 -1.0497
  615MOL0     H83012  10.142   4.437   8.137 -2.4087 -3.8652  0.4717
  615MOL0     H83013   9.844   4.243   8.152  1.0855 -0.5781 -1.2764
  615MOL0     H83014   9.975   4.335   8.094 -1.4149 -2.0833 -1.8175
  615MOL0     H83015   9.773   4.483   8.139  2.3646  1.1370 -0.4592
  615MOL0     H83016   9.896   4.524   8.254  0.0868 -0.2684  0.4418
  615MOL0     H83017   9.790   4.402   8.434  3.1030 -0.3419 -1.7465
  615MOL0     H83018   9.662   4.336   8.323  1.8550  0.5992 -1.0252
  615MOL0     H83019   9.708   4.631   8.359  1.8994 -0.8796 -1.7453
  615MOL0     H83020   9.566   4.561   8.285 -1.3477 -0.3361  0.9873
  615MOL0     H83021   9.480   4.458   8.686  0.5637  2.5591  1.1266
  615MOL0     H83022  10.131   4.237   8.511  2.1086 -0.9628  1.2438
  615MOL0     H83023  10.449   4.218   8.605 -0.8477 -0.7130 -2.3704
  615MOL0     H83024  10.398   4.372   8.682 -2.6935  1.2452 -0.3288
  615MOL0     H83025  10.284   4.258   8.665  0.1830  4.9545  2.8790
  616MOL0     O83026   0.878   5.854   3.941  0.9559 -0.1169  1.0838
  616MOL0     C83027   0.852   5.973   3.923 -1.1705 -0.7446 -0.5164
  616MOL0     O83028   0.952   6.062   3.904  0.4503 -0.5281  0.0337
  616MOL0     C83029   1.068   6.028   3.843 -0.4498 -0.6624  0.5025
  616MOL0     C83030   1.159   5.950   3.911  0.2125 -0.0507  0.5914
  616MOL0     C83031   1.280   5.909   3.855  0.0088 -0.6453 -0.9449
  616MOL0     C83032   1.317   5.960   3.728  0.1352  0.1481  0.2225
  616MOL0     O83033   1.444   5.932   3.681 -1.0103  0.2468 -0.6505
  616MOL0     C83034   1.485   5.980   3.547  0.2391 -0.5683  0.0440
  616MOL0     C83035   1.613   5.923   3.506 -0.3998 -0.3491 -0.6075
  616MOL0     C83036   1.596   5.781   3.454 -0.6575 -0.1263 -0.6773
  616MOL0     C83037   1.723   5.700   3.428  0.4012  0.1051  0.2846
  616MOL0     C83038   1.681   5.564   3.365  0.1191  1.0292  0.1443
  616MOL0     C83039   1.802   5.477   3.331  0.1782 -0.1529 -0.6946
  616MOL0     C83040   1.786   5.379   3.212 -0.2585  0.6980 -0.3278
  616MOL0     C83041   1.798   5.451   3.078 -0.3042  0.3706 -0.0596
  616MOL0     N83042   1.934   5.515   3.059  0.0201  0.1299  0.2370
  616MOL0     C83043   2.055   5.455   3.060  0.1138  0.2398  0.0522
  616MOL0     C83044   2.140   5.547   3.011  0.8257  0.0245  0.5398
  616MOL0     C83045   2.282   5.535   3.004  0.8947  1.0831  0.3613
  616MOL0     C83046   2.357   5.668   3.013 -1.2292  1.2775 -0.2256
  616MOL0     C83047   2.512   5.641   2.974  0.1322  0.1993 -0.6474
  616MOL0     C83048   2.597   5.761   2.994 -0.5673 -0.2452 -0.6879
  616MOL0     O83049   2.578   5.811   3.118 -0.0677  0.5791 -0.5045
  616MOL0     C83050   2.684   5.887   3.168 -0.1426  0.1640 -0.0624
  616MOL0     C83051   2.682   5.908   3.304  0.1935  0.7148 -0.4269
  616MOL0     C83052   2.789   5.967   3.370 -0.2514 -1.2034 -0.0123
  616MOL0     C83053   2.902   6.009   3.296  0.1806 -0.2014  0.2904
  616MOL0     C83054   3.030   6.050   3.369  0.0754 -0.1442  0.6160
  616MOL0     O83055   3.034   6.032   3.498 -0.6187  0.0694 -0.7457
  616MOL0     C83056   3.131   6.074   3.588  0.1758  1.0166  0.3564
  616MOL0     C83057   3.229   6.165   3.566 -0.7841  0.3501 -0.1820
  616MOL0     C83058   3.321   6.199   3.665  0.5224  0.1052 -0.5590
  616MOL0     C83059   3.309   6.142   3.794  0.2587  0.5096  0.3660
  616MOL0     O83060   3.401   6.184   3.890  0.0184  0.0513 -0.5512
  616MOL0     C83061   3.407   6.119   4.012  0.2994  0.6156 -0.0653
  616MOL0     C83062   3.522   6.165   4.099  0.4342  0.1358  0.3627
  616MOL0     C83063   3.651   6.120   4.035  0.0705 -0.2602  0.2389
  616MOL0     C83064   3.771   6.153   4.131 -0.7393 -0.3282 -0.5074
  616MOL0     C83065   3.909   6.115   4.058  0.8996  0.2922 -0.2042
  616MOL0     C83066   3.981   6.000   4.138  0.3455  0.2242  0.2620
  616MOL0     C83067   4.126   5.966   4.094  0.1290 -0.6778 -0.3247
  616MOL0     C83068   4.190   5.847   4.162  0.4421 -0.3703 -0.9092
  616MOL0    Cl83069   4.218   5.886   4.338  0.1701 -0.1717 -0.3688
  616MOL0     C83070   3.205   6.048   3.820  0.3649  0.3108  0.6833
  616MOL0     C83071   3.115   6.019   3.713 -0.0693  0.0682  0.1449
  616MOL0     O83072   3.100   6.115   3.297  0.2470 -0.1761  0.6622
  616MOL0     C83073   2.905   5.982   3.155 -1.0706  0.7681  0.6059
  616MOL0     C83074   2.788   5.935   3.087 -0.7070  0.6894 -0.8864
  616MOL0     N83075   2.070   5.666   2.994  0.3522  0.1131  0.1375
  616MOL0     N83076   1.947   5.644   3.023  0.8001 -0.6875 -0.0130
  616MOL0     C83077   1.230   6.051   3.662  0.2532  0.2350 -0.3897
  616MOL0     C83078   1.105   6.080   3.718 -0.0755  0.4188 -0.0001
  616MOL0     C83079   0.713   6.021   3.930  0.2967  0.0431 -0.1991
  616MOL0     C83080   0.624   5.941   4.014 -0.4989  0.0288  0.8425
  616MOL0     C83081   0.489   5.981   4.028  0.3572 -0.0960  0.2541
  616MOL0     C83082   0.434   6.096   3.969 -0.1163  1.5097  0.1442
  616MOL0     O83083   0.302   6.130   3.986 -0.1407  0.1712 -0.0901
  616MOL0     C83084   0.249   6.240   3.914  0.3230 -0.5141 -0.3121
  616MOL0     C83085   0.097   6.243   3.927  0.3155  0.4912 -0.6626
  616MOL0     C83086   0.061   6.235   4.081 -0.7054  0.5809 -0.2562
  616MOL0     C83087   0.016   6.092   4.110  0.1735  0.3146 -0.7050
  616MOL0     C83088  -0.026   6.084   4.251  0.1051  0.1263  0.1938
  616MOL0     C83089  -0.050   6.052   4.371  0.7571 -0.5202  0.3676
  616MOL0     C83090   0.528   6.170   3.897 -0.7395  0.4155 -0.7374
  616MOL0     C83091   0.665   6.139   3.873  0.8621  0.4216  0.7510
  616MOL0     C83092   0.742   6.245   3.793 -0.3071  0.3667 -0.1057
  616MOL0     H83093   1.128   5.911   4.008 -0.6153  2.2543  1.3208
  616MOL0     H83094   1.345   5.839   3.906 -0.1398 -0.5319 -0.5986
  616MOL0     H83095   1.411   5.960   3.469  0.6774 -2.1342  0.0084
  616MOL0     H83096   1.504   6.088   3.540 -1.9286 -0.2141 -1.3854
  616MOL0     H83097   1.680   5.924   3.593  1.3668  0.9768 -1.9070
  616MOL0     H83098   1.657   5.988   3.431  0.9521 -1.4981 -0.8457
  616MOL0     H83099   1.534   5.786   3.364 -0.8677  3.2726 -0.4900
  616MOL0     H83100   1.552   5.722   3.534 -0.8070 -1.5866 -1.8024
  616MOL0     H83101   1.795   5.751   3.363 -0.0401 -1.2982 -1.4100
  616MOL0     H83102   1.770   5.677   3.524  0.7847 -0.0220  0.0709
  616MOL0     H83103   1.627   5.513   3.445 -0.2282 -0.2608 -0.8765
  616MOL0     H83104   1.616   5.578   3.279 -0.3183 -1.8000 -0.1024
  616MOL0     H83105   1.887   5.538   3.302  0.5015  1.6399  3.2597
  616MOL0     H83106   1.828   5.433   3.428  0.0728  4.2546  1.6095
  616MOL0     H83107   1.686   5.337   3.223  0.1224  0.1512  1.3061
  616MOL0     H83108   1.860   5.299   3.215  0.9855  1.8465  1.3071
  616MOL0     H83109   1.773   5.378   3.000  0.1821  0.5744 -0.4102
  616MOL0     H83110   1.721   5.528   3.079 -0.6374  0.0475 -0.3911
  616MOL0     H83111   2.093   5.356   3.082  2.0531  1.0823  0.6456
  616MOL0     H83112   2.315   5.463   3.080 -2.2706 -2.1599 -1.0899
  616MOL0     H83113   2.308   5.479   2.914  1.7781 -3.0539  2.8759
  616MOL0     H83114   2.325   5.749   2.947 -1.3767 -0.2989 -2.1936
  616MOL0     H83115   2.358   5.692   3.119 -0.8862 -1.6507  0.5094
  616MOL0     H83116   2.515   5.608   2.870 -2.9899 -1.6453 -0.2777
  616MOL0     H83117   2.553   5.564   3.041  0.5225  0.0760 -1.0279
  616MOL0     H83118   2.566   5.846   2.932 -0.4628  2.6357  2.8392
  616MOL0     H83119   2.701   5.727   2.982 -0.4705 -0.0731 -0.3333
  616MOL0     H83120   2.589   5.876   3.349 -0.1421 -1.8881 -2.7447
  616MOL0     H83121   2.790   5.976   3.478 -1.9335  0.5786 -0.0939
  616MOL0     H83122   3.243   6.203   3.466 -0.4650  1.3511  0.2333
  616MOL0     H83123   3.395   6.277   3.650  1.0291 -0.7532 -3.1864
  616MOL0     H83124   3.314   6.133   4.066  0.9781 -2.0901  2.0281
  616MOL0     H83125   3.417   6.011   3.993  0.5372  0.2975  1.7485
  616MOL0     H83126   3.524   6.274   4.110 -0.0392  0.6008 -3.0442
  616MOL0     H83127   3.510   6.114   4.195 -0.0938 -2.7727 -1.1337
  616MOL0     H83128   3.647   6.012   4.014  2.1909 -0.8322  2.3146
  616MOL0     H83129   3.670   6.163   3.937  1.8511  1.4481  1.2663
  616MOL0     H83130   3.763   6.089   4.219  0.1384  2.0933  1.4512
  616MOL0     H83131   3.767   6.253   4.177 -0.7179 -0.3484 -0.4606
  616MOL0     H83132   3.966   6.208   4.061  0.6723  0.4466 -0.4876
  616MOL0     H83133   3.890   6.095   3.952  0.5755  2.3425 -0.5816
  616MOL0     H83134   3.993   6.035   4.241  0.7238  0.4096  0.1583
  616MOL0     H83135   3.916   5.913   4.136  1.1041 -0.4176  1.9934
  616MOL0     H83136   4.196   6.050   4.089 -1.2521  0.4776 -0.6637
  616MOL0     H83137   4.108   5.941   3.989  0.0215 -0.5167 -0.3444
  616MOL0     H83138   4.125   5.759   4.162  2.8855 -2.3124  0.1128
  616MOL0     H83139   4.279   5.822   4.102  0.5468 -0.6704 -0.6367
  616MOL0     H83140   3.177   6.021   3.922 -0.1868  2.7182  1.2303
  616MOL0     H83141   3.026   5.959   3.732  0.7267 -0.1633  3.7583
  616MOL0     H83142   2.990   6.015   3.097 -0.3078 -2.2789 -0.2103
  616MOL0     H83143   2.800   5.933   2.979  3.5742 -0.5400 -0.5754
  616MOL0     H83144   1.243   6.092   3.563  1.6126 -0.8486 -0.7005
  616MOL0     H83145   1.041   6.149   3.664  1.0812  0.7842 -0.9387
  616MOL0     H83146   0.664   5.849   4.054  2.1453  0.4717 -0.5751
  616MOL0     H83147   0.419   5.923   4.087  0.2233 -1.5515 -1.2478
  616MOL0     H83148   0.279   6.253   3.810  1.3279  1.2454  0.1576
  616MOL0     H83149   0.290   6.327   3.966 -1.0782 -0.2684  0.4268
  616MOL0     H83150   0.059   6.160   3.865 -3.5455  2.0177 -0.6407
  616MOL0     H83151   0.052   6.338   3.895  1.1162  1.6179  1.4208
  616MOL0     H83152  -0.021   6.301   4.110 -0.6195 -0.1031  1.6623
  616MOL0     H83153   0.144   6.272   4.141 -2.1286  2.3257  0.7139
  616MOL0     H83154  -0.073   6.078   4.048 -1.1306  1.9738  0.7164
  616MOL0     H83155   0.091   6.014   4.093  0.0657 -0.2196  1.0066
  616MOL0     H83156  -0.078   6.043   4.474 -0.1894  2.4041  0.4380
  616MOL0     H83157   0.495   6.266   3.858  1.2826  1.1057 -0.8395
  616MOL0     H83158   0.676   6.313   3.739 -2.9800 -0.5673  1.7496
  616MOL0     H83159   0.801   6.312   3.856 -0.4887  0.3232  0.1142
  616MOL0     H83160   0.804   6.202   3.713  0.7425  0.6339  0.5475
  617MOL0     O83161   3.596   6.011   7.941 -0.4225  0.3140  0.7393
  617MOL0     C83162   3.507   5.991   7.860  0.1370  0.2112  0.1034
  617MOL0     O83163   3.401   6.077   7.828 -0.4332 -0.1539 -0.7868
  617MOL0     C83164   3.434   6.207   7.864  0.4133  0.0150 -0.9016
  617MOL0     C83165   3.372   6.268   7.970  0.1611 -0.1894 -0.3405
  617MOL0     C83166   3.374   6.407   7.993  0.4128 -0.2568 -0.3034
  617MOL0     C83167   3.465   6.490   7.914 -0.0857  0.3660  0.4588
  617MOL0     O83168   3.485   6.623   7.924  0.3136  0.6263  0.5087
  617MOL0     C83169   3.395   6.697   8.006 -0.0649 -0.6605  0.0455
  617MOL0     C83170   3.408   6.852   8.012  0.5651  0.5514  0.4951
  617MOL0     C83171   3.397   6.919   7.874  0.6636 -0.1863  0.9254
  617MOL0     C83172   3.454   7.062   7.886  0.1285  0.1124  0.1832
  617MOL0     C83173   3.394   7.159   7.793 -0.3261  0.5515 -0.7283
  617MOL0     C83174   3.462   7.294   7.822  0.6731  0.2524  0.7158
  617MOL0     C83175   3.442   7.387   7.700  0.1995 -0.8306  0.1210
  617MOL0     C83176   3.471   7.532   7.737  0.5223 -0.3196 -1.3726
  617MOL0     N83177   3.409   7.613   7.636  0.1148  0.6866 -1.1774
  617MOL0     C83178   3.475   7.631   7.514  0.4972  0.1138 -0.6215
  617MOL0     C83179   3.391   7.711   7.451  0.9732  0.4935  0.6871
  617MOL0     C83180   3.397   7.782   7.324 -0.1128  0.8812  0.8400
  617MOL0     C83181   3.523   7.760   7.246 -0.4954  0.2562 -0.2095
  617MOL0     C83182   3.510   7.826   7.108  0.7121  0.9502  0.0477
  617MOL0     C83183   3.532   7.978   7.119  0.2422 -0.5306  0.4995
  617MOL0     O83184   3.674   8.006   7.139 -0.1316 -0.2148 -0.3151
  617MOL0     C83185   3.750   8.047   7.030  0.0517  0.0765 -0.9353
  617MOL0     C83186   3.708   8.005   6.901 -0.8896 -0.0970  0.2800
  617MOL0     C83187   3.792   8.048   6.794 -0.4889 -0.2702  0.1914
  617MOL0     C83188   3.915   8.116   6.826 -0.1234  0.4867 -0.7335
  617MOL0     C83189   4.023   8.147   6.722  1.1458 -0.3402 -0.3343
  617MOL0     O83190   4.143   8.124   6.759  0.7313  0.1206  0.3616
  617MOL0     C83191   4.255   8.191   6.699  0.3206 -0.3430 -0.8719
  617MOL0     C83192   4.373   8.127   6.723  0.5995 -0.8488  0.4464
  617MOL0     C83193   4.503   8.176   6.683  0.6883  0.1513  0.0793
  617MOL0     C83194   4.499   8.292   6.609  0.5590  0.6336 -0.5676
  617MOL0     O83195   4.606   8.370   6.584 -0.0803  0.2739  0.5190
  617MOL0     C83196   4.731   8.332   6.656  0.3454 -0.5439  0.5555
  617MOL0     C83197   4.843   8.416   6.594 -0.1889  0.9056 -0.4604
  617MOL0     C83198   4.974   8.394   6.673 -0.2102 -0.1064  1.0131
  617MOL0     C83199   5.080   8.478   6.586  0.8899  0.2940 -0.0165
  617MOL0     C83200   5.221   8.463   6.650 -0.4634 -0.3973 -0.6810
  617MOL0     C83201   5.310   8.580   6.608  0.3479 -0.5114  0.7731
  617MOL0     C83202   5.442   8.554   6.678  0.1917  0.0533  0.6086
  617MOL0     C83203   5.556   8.605   6.601  0.5505 -0.1265  0.6753
  617MOL0    Cl83204   5.694   8.573   6.696  0.0159  0.2883  0.2436
  617MOL0     C83205   4.374   8.352   6.577 -0.0405  0.3513 -0.3531
  617MOL0     C83206   4.248   8.307   6.616  0.4239  0.5953  0.3414
  617MOL0     O83207   3.986   8.203   6.617 -0.5107 -0.2305  0.0715
  617MOL0     C83208   3.944   8.163   6.958  0.3136  0.2112  0.4386
  617MOL0     C83209   3.861   8.126   7.060  0.2695 -0.2440 -0.1796
  617MOL0     N83210   3.269   7.725   7.517  0.3392 -0.4912 -0.2303
  617MOL0     N83211   3.282   7.664   7.629  0.2875 -0.4091 -0.2344
  617MOL0     C83212   3.524   6.422   7.803 -1.2898 -0.5026 -0.5014
  617MOL0     C83213   3.515   6.283   7.773 -0.0084 -0.2621 -0.4131
  617MOL0     C83214   3.501   5.855   7.796  0.1652 -0.0141 -0.6247
  617MOL0     C83215   3.486   5.858   7.661  0.3477  0.4396 -0.3588
  617MOL0     C83216   3.481   5.747   7.589 -0.0714 -0.8620  0.2781
  617MOL0     C83217   3.486   5.624   7.652  0.2435 -0.6944  0.1335
  617MOL0     O83218   3.462   5.516   7.565  0.3944 -0.0486  0.9494
  617MOL0     C83219   3.493   5.383   7.601  0.4554  0.6387  0.0046
  617MOL0     C83220   3.487   5.318   7.465  0.8468 -0.1444  0.5295
  617MOL0     C83221   3.367   5.320   7.375 -0.1818  0.4394 -0.6218
  617MOL0     C83222   3.247   5.237   7.417 -0.2369  0.2321  0.1098
  617MOL0     C83223   3.278   5.095   7.406  0.0013 -1.0783 -0.3961
  617MOL0     C83224   3.312   4.981   7.395  0.3270  0.0656 -0.3317
  617MOL0     C83225   3.489   5.616   7.785 -0.4495 -1.2203 -1.0568
  617MOL0     C83226   3.494   5.736   7.862 -0.9435  0.0561 -0.3917
  617MOL0     C83227   3.500   5.720   8.012  0.5095  0.1150 -0.6397
  617MOL0     H83228   3.301   6.218   8.036 -0.7835 -0.3426 -1.4429
  617MOL0     H83229   3.323   6.452   8.078  2.0635  3.5473 -1.0935
  617MOL0     H83230   3.294   6.664   7.981 -0.5318 -1.0232  2.2359
  617MOL0     H83231   3.408   6.658   8.107 -0.7982 -1.2118 -0.0650
  617MOL0     H83232   3.507   6.887   8.044  2.2109 -2.8786 -0.3491
  617MOL0     H83233   3.335   6.899   8.078 -0.6533 -0.1759 -0.2990
  617MOL0     H83234   3.299   6.934   7.828  1.4027  1.4237 -0.1957
  617MOL0     H83235   3.453   6.863   7.799  2.9534 -1.3649  3.3337
  617MOL0     H83236   3.424   7.096   7.986  1.1577 -0.3198  0.6555
  617MOL0     H83237   3.563   7.050   7.881 -0.1865 -3.2343 -1.5956
  617MOL0     H83238   3.395   7.130   7.688 -0.5621  0.1319 -0.6161
  617MOL0     H83239   3.290   7.179   7.822  0.1414 -0.4193  1.9537
  617MOL0     H83240   3.421   7.325   7.919  2.6020 -1.0768  2.0297
  617MOL0     H83241   3.568   7.287   7.846  1.0669 -2.3076 -1.3409
  617MOL0     H83242   3.343   7.386   7.652  0.2953  0.5213 -0.1559
  617MOL0     H83243   3.514   7.351   7.626  0.5564 -2.2235  1.0947
  617MOL0     H83244   3.412   7.571   7.821  1.1568  3.2842 -2.4334
  617MOL0     H83245   3.577   7.552   7.754  0.6124  0.7496 -2.9271
  617MOL0     H83246   3.564   7.583   7.475 -0.6683  0.1814 -3.6261
  617MOL0     H83247   3.307   7.754   7.269  0.8332  2.1472 -1.4621
  617MOL0     H83248   3.390   7.887   7.353  2.5263  1.6177 -0.8327
  617MOL0     H83249   3.611   7.797   7.298  0.9487 -2.6010 -0.3940
  617MOL0     H83250   3.538   7.652   7.233 -1.1638 -0.3869  3.3790
  617MOL0     H83251   3.414   7.788   7.073  1.1572 -2.1705  1.7814
  617MOL0     H83252   3.589   7.775   7.052 -0.5373 -1.3719  0.2593
  617MOL0     H83253   3.476   8.007   7.209 -2.1342  0.3349 -1.1571
  617MOL0     H83254   3.498   8.042   7.037 -1.9823 -1.5033  0.5823
  617MOL0     H83255   3.633   7.932   6.872 -0.2417 -0.4633 -0.5023
  617MOL0     H83256   3.766   8.019   6.693  2.1138  1.4933 -1.1078
  617MOL0     H83257   4.345   8.036   6.777 -3.6529 -0.8830 -1.3936
  617MOL0     H83258   4.589   8.122   6.721 -0.2810 -3.3618 -2.1932
  617MOL0     H83259   4.711   8.354   6.762  3.9941 -1.5833  1.5951
  617MOL0     H83260   4.761   8.228   6.649  1.0178 -0.3241  0.1349
  617MOL0     H83261   4.855   8.399   6.487  1.4074 -1.0738 -0.0304
  617MOL0     H83262   4.821   8.523   6.604 -0.1642  1.0747 -2.0044
  617MOL0     H83263   4.955   8.430   6.775 -0.7437 -1.6808  1.4982
  617MOL0     H83264   5.003   8.290   6.687  0.0441 -0.2181 -0.2315
  617MOL0     H83265   5.048   8.582   6.592  0.8690  0.2201  1.8109
  617MOL0     H83266   5.076   8.435   6.485 -0.3180  1.2073 -0.3831
  617MOL0     H83267   5.264   8.364   6.632 -1.6486 -1.2825  1.1002
  617MOL0     H83268   5.207   8.488   6.756  1.3583  4.2347 -1.2979
  617MOL0     H83269   5.322   8.580   6.499 -0.7163  3.1817  0.5248
  617MOL0     H83270   5.262   8.673   6.642  0.3948 -1.6132  4.2603
  617MOL0     H83271   5.469   8.454   6.714  0.9273 -0.5563 -1.5119
  617MOL0     H83272   5.438   8.622   6.764 -3.6352 -0.5234  1.0628
  617MOL0     H83273   5.568   8.553   6.506 -1.5990 -2.3917  1.5529
  617MOL0     H83274   5.544   8.712   6.583  1.3432  0.1203  1.4894
  617MOL0     H83275   4.363   8.442   6.518  1.8716  0.4284 -0.6402
  617MOL0     H83276   4.157   8.359   6.590  0.5805  1.7951  2.0355
  617MOL0     H83277   4.034   8.215   6.988  1.3410 -2.5478  2.5712
  617MOL0     H83278   3.881   8.159   7.161 -0.5334 -2.5069  0.7589
  617MOL0     H83279   3.578   6.488   7.736 -0.6425  0.1746  0.6484
  617MOL0     H83280   3.565   6.231   7.692 -1.3894 -1.4782 -0.5341
  617MOL0     H83281   3.476   5.954   7.611 -1.3423  0.7221  0.4593
  617MOL0     H83282   3.469   5.767   7.483 -1.3593  1.7877  0.8429
  617MOL0     H83283   3.421   5.331   7.665 -0.5563 -0.0365 -1.6225
  617MOL0     H83284   3.594   5.364   7.638  1.1984  0.2157 -2.0762
  617MOL0     H83285   3.506   5.213   7.490 -0.8687 -0.8849 -1.0331
  617MOL0     H83286   3.571   5.340   7.398  1.6205 -1.5125  0.9964
  617MOL0     H83287   3.399   5.296   7.273  2.9885  0.8482  0.1637
  617MOL0     H83288   3.331   5.424   7.374  1.9061  1.2046 -1.3019
  617MOL0     H83289   3.224   5.260   7.521 -0.2103  1.8661 -0.2235
  617MOL0     H83290   3.157   5.257   7.359 -1.3368 -0.0679  1.6676
  617MOL0     H83291   3.338   4.878   7.383  0.5998  0.2264 -1.2214
  617MOL0     H83292   3.481   5.520   7.835  0.7659 -1.7246 -1.7949
  617MOL0     H83293   3.603   5.726   8.048  0.8318  2.3596 -1.8026
  617MOL0     H83294   3.443   5.797   8.064  0.3875 -1.4448  1.7013
  617MOL0     H83295   3.451   5.625   8.036  0.3213 -0.2057 -2.1679
  618MOL0     O83296   8.183   1.634   0.170 -0.9155  0.1013  0.1255
  618MOL0     C83297   8.101   1.660   0.091  0.5967 -0.2715  0.2385
  618MOL0     O83298   8.125   1.755  -0.011 -0.8195 -1.0790 -0.1533
  618MOL0     C83299   8.241   1.833   0.002  0.3563  0.1562 -0.5773
  618MOL0     C83300   8.360   1.776  -0.047 -0.3643 -0.4263  0.4227
  618MOL0     C83301   8.483   1.835  -0.020 -0.0737  0.8246 -0.6218
  618MOL0     C83302   8.486   1.959   0.049  0.0680 -0.0474 -0.4121
  618MOL0     O83303   8.614   2.002   0.084  0.0806 -0.0075 -0.0517
  618MOL0     C83304   8.632   2.097   0.183  0.0849 -0.2291  0.1979
  618MOL0     C83305   8.775   2.099   0.236  0.2177  0.6132  0.0651
  618MOL0     C83306   8.863   2.165   0.141 -0.1406  0.1555  0.8294
  618MOL0     C83307   8.841   2.318   0.152 -0.5161 -0.0744  0.4498
  618MOL0     C83308   8.930   2.400   0.061  0.4451  0.4862 -0.0110
  618MOL0     C83309   8.898   2.543   0.071 -0.0906 -0.0657  0.0872
  618MOL0     C83310   8.971   2.628  -0.030 -0.6782 -0.9892  1.1926
  618MOL0     C83311   9.110   2.666   0.016 -0.8332 -0.2541 -0.0816
  618MOL0     N83312   9.194   2.707  -0.097 -0.0408 -0.1547 -0.4852
  618MOL0     C83313   9.244   2.615  -0.183 -0.1718  0.6025 -0.3743
  618MOL0     C83314   9.311   2.694  -0.273 -0.6631 -0.6442 -0.3414
  618MOL0     C83315   9.408   2.650  -0.376 -0.6958  0.0395  0.2839
  618MOL0     C83316   9.547   2.711  -0.344  0.1787  0.6056 -0.8595
  618MOL0     C83317   9.613   2.681  -0.215 -0.0628  1.0227  0.4553
  618MOL0     C83318   9.764   2.725  -0.217  0.3060 -0.5897  0.7402
  618MOL0     O83319   9.833   2.664  -0.107  0.1125  0.4178  0.3677
  618MOL0     C83320   9.965   2.691  -0.086 -0.2988 -0.7621  0.2758
  618MOL0     C83321  10.060   2.749  -0.174  0.5304  0.4070  0.2437
  618MOL0     C83322  10.192   2.768  -0.137  0.3297 -0.6836 -0.5838
  618MOL0     C83323  10.232   2.720  -0.010  0.1791 -0.2535 -0.3583
  618MOL0     C83324  10.380   2.717   0.032  0.6824  0.9958 -0.0295
  618MOL0     O83325  10.405   2.659   0.158  0.0687 -0.5101  0.3662
  618MOL0     C83326  10.540   2.641   0.197 -0.1781 -0.8862  0.1300
  618MOL0     C83327  10.562   2.520   0.263 -1.3355 -0.3171  0.0483
  618MOL0     C83328  10.682   2.488   0.325 -0.0876 -0.3520 -0.1808
  618MOL0     C83329  10.788   2.584   0.318  0.7463  0.5792 -0.7773
  618MOL0     O83330  10.898   2.551   0.390 -0.2501 -0.2206 -1.1106
  618MOL0     C83331  11.000   2.642   0.396 -0.2322  0.5163 -0.4734
  618MOL0     C83332  11.115   2.584   0.484 -0.1653 -0.0932  0.3425
  618MOL0     C83333  11.095   2.603   0.638 -0.5080 -0.3490  0.0619
  618MOL0     C83334  11.229   2.566   0.705 -0.4061 -0.0746 -0.3522
  618MOL0     C83335  11.286   2.680   0.805  0.2019 -0.0899  0.0026
  618MOL0     C83336  11.350   2.615   0.931  0.4956 -0.5312 -0.0689
  618MOL0     C83337  11.493   2.576   0.901  0.4950  0.1697  0.3410
  618MOL0     C83338  11.553   2.513   1.021  0.1882 -0.3825  0.2947
  618MOL0    Cl83339  11.728   2.514   1.018 -0.2104  0.7245 -0.6621
  618MOL0     C83340  10.773   2.705   0.252 -0.0109  0.5511  0.6123
  618MOL0     C83341  10.648   2.740   0.199 -0.1072  0.3988  0.0380
  618MOL0     O83342  10.464   2.763  -0.043 -0.3686 -0.2997 -0.1621
  618MOL0     C83343  10.147   2.650   0.072 -0.2555 -1.1482 -0.1409
  618MOL0     C83344  10.009   2.644   0.038  0.3278 -0.3749  0.9556
  618MOL0     N83345   9.290   2.831  -0.238  0.0063 -0.7053  0.3229
  618MOL0     N83346   9.208   2.832  -0.139 -1.2218 -0.0610  0.1012
  618MOL0     C83347   8.368   2.021   0.091 -0.1916 -0.0614  0.7539
  618MOL0     C83348   8.245   1.956   0.071 -0.3685  0.6489 -0.9365
  618MOL0     C83349   7.963   1.620   0.100 -0.6178 -1.0314 -0.1151
  618MOL0     C83350   7.884   1.643  -0.014  0.2001 -0.4760 -0.7653
  618MOL0     C83351   7.751   1.620  -0.017 -0.0996 -0.3584 -0.4949
  618MOL0     C83352   7.686   1.556   0.090  0.1976  0.3068 -0.3894
  618MOL0     O83353   7.559   1.519   0.083 -0.4450 -0.1148  0.3266
  618MOL0     C83354   7.480   1.569  -0.023  0.4886  0.1212  0.5035
  618MOL0     C83355   7.341   1.532   0.012 -0.5654  0.5239 -0.9773
  618MOL0     C83356   7.233   1.593  -0.074  0.5439 -1.1810  0.1304
  618MOL0     C83357   7.086   1.568  -0.025 -0.0305  0.6725  0.2196
  618MOL0     C83358   7.054   1.427  -0.049  0.5124 -0.2773  0.1655
  618MOL0     C83359   7.036   1.309  -0.080 -0.3613 -0.4173 -0.0132
  618MOL0     C83360   7.758   1.535   0.214 -0.3321 -0.7358 -0.0386
  618MOL0     C83361   7.901   1.570   0.218  0.2911  0.6486  0.4316
  618MOL0     C83362   7.978   1.560   0.349  0.6511  0.4554 -0.2284
  618MOL0     H83363   8.347   1.678  -0.093  1.1497 -1.0582  1.2721
  618MOL0     H83364   8.571   1.799  -0.071 -0.1928 -1.6504  0.7090
  618MOL0     H83365   8.594   2.197   0.161  0.3525  0.0651  1.0462
  618MOL0     H83366   8.560   2.070   0.262 -1.9394  0.7302 -1.2232
  618MOL0     H83367   8.799   1.992   0.236 -0.6400  0.4081 -0.2652
  618MOL0     H83368   8.786   2.139   0.337  1.1392 -1.3872  0.8146
  618MOL0     H83369   8.849   2.123   0.041 -2.8827  2.3848  0.1179
  618MOL0     H83370   8.969   2.141   0.145  0.3886  1.2942 -2.4876
  618MOL0     H83371   8.746   2.349   0.108  0.6297  1.5460 -0.9815
  618MOL0     H83372   8.850   2.359   0.253  0.2621  1.8050 -0.3429
  618MOL0     H83373   9.030   2.383   0.102  0.9703  4.3130  0.7175
  618MOL0     H83374   8.919   2.377  -0.046  0.4671 -1.1907  0.3305
  618MOL0     H83375   8.792   2.563   0.058 -0.7177 -1.2129  2.6848
  618MOL0     H83376   8.917   2.568   0.176  3.4938 -1.6210 -0.0189
  618MOL0     H83377   8.919   2.722  -0.052 -1.5927 -1.4388  1.3677
  618MOL0     H83378   8.979   2.567  -0.121 -2.1572 -1.6718  1.4869
  618MOL0     H83379   9.099   2.746   0.090  0.3334 -0.2629  0.1232
  618MOL0     H83380   9.164   2.581   0.060  0.1537  0.0891 -0.6145
  618MOL0     H83381   9.253   2.507  -0.178  0.8722  0.7279  0.9158
  618MOL0     H83382   9.410   2.540  -0.380  0.2059 -0.0570  2.2349
  618MOL0     H83383   9.389   2.686  -0.477  0.7757 -2.5407 -1.0152
  618MOL0     H83384   9.610   2.681  -0.428 -0.9952 -1.5206 -1.0430
  618MOL0     H83385   9.531   2.819  -0.347  2.5142  1.1017  1.4953
  618MOL0     H83386   9.601   2.573  -0.205 -0.7307  0.3483 -4.6847
  618MOL0     H83387   9.560   2.731  -0.134  1.8864  0.3093  2.2780
  618MOL0     H83388   9.779   2.832  -0.199  2.0675 -0.3113 -1.8182
  618MOL0     H83389   9.805   2.698  -0.314 -0.2573  0.1889  0.2708
  618MOL0     H83390  10.030   2.756  -0.278 -2.7771 -0.7451  0.9821
  618MOL0     H83391  10.268   2.807  -0.205 -0.7524  1.3104 -0.7206
  618MOL0     H83392  10.483   2.447   0.280 -1.8146  0.5169  1.5923
  618MOL0     H83393  10.701   2.392   0.373 -2.9224 -1.4160 -0.9717
  618MOL0     H83394  11.049   2.671   0.302  2.6931 -1.7784  0.1771
  618MOL0     H83395  10.964   2.737   0.438  0.6767  0.1449  1.2159
  618MOL0     H83396  11.130   2.477   0.466 -3.7455 -0.8781  1.1334
  618MOL0     H83397  11.199   2.649   0.460  0.7256 -1.2194  0.3479
  618MOL0     H83398  11.054   2.701   0.665 -0.9392 -0.0341 -1.5915
  618MOL0     H83399  11.014   2.538   0.674 -1.8049  1.3677  0.3707
  618MOL0     H83400  11.300   2.526   0.632 -0.4632 -0.9019  0.0286
  618MOL0     H83401  11.201   2.488   0.778 -1.7812 -0.3023 -1.0905
  618MOL0     H83402  11.201   2.735   0.845 -0.3141 -1.4282  0.7999
  618MOL0     H83403  11.348   2.743   0.740 -2.2379 -1.7354 -4.3482
  618MOL0     H83404  11.360   2.691   1.009  1.1836  1.3058 -1.8518
  618MOL0     H83405  11.290   2.531   0.965 -1.4378  0.3535 -1.1213
  618MOL0     H83406  11.520   2.677   0.871 -2.3024  1.1049  0.6956
  618MOL0     H83407  11.488   2.506   0.816  2.3300 -3.5649  3.0050
  618MOL0     H83408  11.522   2.570   1.108  1.7933  0.3787  0.3956
  618MOL0     H83409  11.511   2.413   1.034 -0.1206 -0.6183 -2.0204
  618MOL0     H83410  10.850   2.778   0.228  0.1892  0.2671  0.3913
  618MOL0     H83411  10.646   2.835   0.147 -0.6433  1.4286  1.8541
  618MOL0     H83412  10.168   2.608   0.170  0.1798 -1.5120 -0.3893
  618MOL0     H83413   9.936   2.589   0.097  0.9433 -2.2030  0.1065
  618MOL0     H83414   8.371   2.115   0.146 -0.5772 -0.1378  0.9074
  618MOL0     H83415   8.159   2.016   0.100 -0.5276  0.4257 -0.9402
  618MOL0     H83416   7.935   1.681  -0.102  0.1337 -0.0034 -0.6045
  618MOL0     H83417   7.697   1.659  -0.103 -0.6701 -1.3117 -0.5804
  618MOL0     H83418   7.495   1.525  -0.122 -0.1748  0.0150  0.4492
  618MOL0     H83419   7.481   1.679  -0.022  3.0945  0.1943 -1.1509
  618MOL0     H83420   7.331   1.575   0.113  2.3655  2.9502 -1.5658
  618MOL0     H83421   7.325   1.425   0.000 -0.5923  0.2193  1.3088
  618MOL0     H83422   7.241   1.566  -0.180 -3.7647  1.7772 -1.1843
  618MOL0     H83423   7.240   1.700  -0.053 -0.4784 -1.4897  2.2923
  618MOL0     H83424   7.077   1.586   0.083 -1.3035  2.0228 -0.0676
  618MOL0     H83425   7.026   1.631  -0.093  1.1909 -1.4617 -3.0813
  618MOL0     H83426   7.017   1.204  -0.089 -0.3521 -0.2288 -3.6527
  618MOL0     H83427   7.709   1.465   0.282 -3.0839 -1.4326 -2.5480
  618MOL0     H83428   8.009   1.657   0.388  2.6088 -0.1580 -0.1305
  618MOL0     H83429   7.908   1.520   0.423 -0.9123  3.7487  0.2319
  618MOL0     H83430   8.056   1.484   0.338 -0.1144 -0.8899  2.5194
  619MOL0     O83431   0.158   7.930   8.809  0.4011  0.4733 -0.9879
  619MOL0     C83432   0.093   8.035   8.808 -0.4515  0.8021  0.3344
  619MOL0     O83433   0.150   8.167   8.795 -0.0897 -0.2489  0.2964
  619MOL0     C83434   0.277   8.182   8.844 -0.4441 -0.1759 -0.1952
  619MOL0     C83435   0.380   8.189   8.753 -0.0775 -0.1380 -0.4118
  619MOL0     C83436   0.514   8.213   8.801 -0.3426 -0.1625  0.0863
  619MOL0     C83437   0.544   8.214   8.936 -0.3965  0.1417 -0.6479
  619MOL0     O83438   0.677   8.219   8.973 -0.7839  0.1687  0.5148
  619MOL0     C83439   0.714   8.132   9.074  0.2901  0.5894  0.7789
  619MOL0     C83440   0.864   8.111   9.073  0.7989 -0.1901  0.2747
  619MOL0     C83441   0.948   8.242   9.083  0.8064  0.4858  0.0199
  619MOL0     C83442   1.097   8.226   9.059  1.2467  0.7284 -1.0444
  619MOL0     C83443   1.123   8.215   8.910 -0.1460  0.1494 -0.7385
  619MOL0     C83444   1.279   8.230   8.885  0.6503  0.3094  0.0373
  619MOL0     C83445   1.359   8.115   8.946  0.0969  0.5409  0.4802
  619MOL0     C83446   1.507   8.126   8.958  0.4325 -0.8207  0.7889
  619MOL0     N83447   1.558   8.050   9.073 -0.7152 -0.0948 -0.0251
  619MOL0     C83448   1.584   7.919   9.077 -0.1168 -0.8396  0.4454
  619MOL0     C83449   1.649   7.902   9.194 -0.2715  0.7912 -0.9963
  619MOL0     C83450   1.709   7.779   9.250 -0.5006 -1.4303 -0.1284
  619MOL0     C83451   1.859   7.767   9.224 -0.1535  0.2519  0.1045
  619MOL0     C83452   1.930   7.652   9.294  0.2672  0.3157  0.2784
  619MOL0     C83453   2.088   7.649   9.272  0.3699 -0.1996  0.4581
  619MOL0     O83454   2.148   7.776   9.316  0.2205 -0.2494 -0.0556
  619MOL0     C83455   2.284   7.776   9.320 -0.4332 -0.5488  1.1839
  619MOL0     C83456   2.350   7.885   9.377  0.9920  0.3880 -0.4896
  619MOL0     C83457   2.481   7.893   9.401 -0.6033  0.0995 -0.9758
  619MOL0     C83458   2.563   7.792   9.349 -0.2339 -0.1234  0.6087
  619MOL0     C83459   2.709   7.804   9.357  1.1952  1.0636  0.0534
  619MOL0     O83460   2.757   7.929   9.375  0.5102  0.7040 -0.2418
  619MOL0     C83461   2.895   7.944   9.388  1.0404 -0.6197  0.2215
  619MOL0     C83462   2.994   7.868   9.320  0.3185  0.4900  0.6877
  619MOL0     C83463   3.121   7.920   9.304  0.3650 -0.6271  0.1042
  619MOL0     C83464   3.149   8.048   9.334 -0.3223  0.0767 -0.5944
  619MOL0     O83465   3.271   8.094   9.286 -0.1554  0.4882 -0.4242
  619MOL0     C83466   3.314   8.227   9.319  0.0111  0.1661 -1.2354
  619MOL0     C83467   3.441   8.264   9.250 -0.0413  0.5771 -0.9138
  619MOL0     C83468   3.518   8.391   9.299  0.0206  0.0393  0.2016
  619MOL0     C83469   3.665   8.390   9.244  0.0777  0.8566  0.4575
  619MOL0     C83470   3.760   8.465   9.334  0.1057 -0.4473  0.1947
  619MOL0     C83471   3.896   8.455   9.295 -0.1141  0.1635 -0.7123
  619MOL0     C83472   3.995   8.543   9.383  0.4455 -0.5145 -0.5179
  619MOL0     C83473   4.128   8.549   9.314  0.3495  0.2559  0.0890
  619MOL0    Cl83474   4.222   8.408   9.357  0.2856 -0.0264  0.2415
  619MOL0     C83475   3.060   8.120   9.419 -0.5210 -0.6311  0.0344
  619MOL0     C83476   2.936   8.069   9.439  1.1149 -0.3008 -0.0576
  619MOL0     O83477   2.766   7.694   9.353  0.0361 -0.5799 -0.1054
  619MOL0     C83478   2.505   7.683   9.275 -0.1531  0.4248  0.4818
  619MOL0     C83479   2.367   7.672   9.260 -0.5441 -1.0330 -0.3546
  619MOL0     N83480   1.667   8.019   9.258 -0.4209 -0.6492 -0.0794
  619MOL0     N83481   1.619   8.109   9.179  0.4517  0.0852 -0.4913
  619MOL0     C83482   0.436   8.197   9.025  0.3239 -0.2203 -0.1313
  619MOL0     C83483   0.305   8.181   8.979 -0.8604 -0.8411 -0.0726
  619MOL0     C83484  -0.059   8.029   8.794  0.0890  0.5412  0.4292
  619MOL0     C83485  -0.135   8.149   8.819  0.4476 -0.1635  0.3317
  619MOL0     C83486  -0.270   8.161   8.792 -0.0645 -0.4222 -0.3192
  619MOL0     C83487  -0.341   8.045   8.755 -0.5762  0.1736  0.8131
  619MOL0     O83488  -0.480   8.054   8.720  0.1245  0.3979  0.1702
  619MOL0     C83489  -0.559   8.160   8.784 -0.0082 -0.6214 -0.4816
  619MOL0     C83490  -0.709   8.113   8.798  0.8829  1.3310 -0.0352
  619MOL0     C83491  -0.807   8.217   8.737  0.3480  0.7781 -0.6673
  619MOL0     C83492  -0.947   8.150   8.730  0.2393  0.4295  0.4632
  619MOL0     C83493  -1.030   8.239   8.646 -0.6233  0.0491 -0.9424
  619MOL0     C83494  -1.100   8.312   8.585 -0.9600 -0.3571 -0.2785
  619MOL0     C83495  -0.275   7.919   8.735 -0.5678 -1.0951 -0.6575
  619MOL0     C83496  -0.138   7.912   8.747 -0.0694 -0.4478 -0.0411
  619MOL0     C83497  -0.073   7.775   8.732  0.8048  0.1875  0.4637
  619MOL0     H83498   0.358   8.203   8.648  3.2910 -3.4179 -1.8004
  619MOL0     H83499   0.587   8.229   8.722 -0.9496 -0.6659 -0.5896
  619MOL0     H83500   0.668   8.152   9.171 -0.2947  1.6810  0.2979
  619MOL0     H83501   0.664   8.041   9.040  1.0726  0.8267 -1.1366
  619MOL0     H83502   0.878   8.061   8.977  0.5639  0.9290 -0.3726
  619MOL0     H83503   0.883   8.045   9.158  2.4941  0.5631  0.5229
  619MOL0     H83504   0.946   8.283   9.185  0.1288  0.7414 -0.0844
  619MOL0     H83505   0.907   8.320   9.017 -2.4603 -0.7691  0.3528
  619MOL0     H83506   1.154   8.310   9.098 -1.9494  1.7762  1.9627
  619MOL0     H83507   1.129   8.134   9.107 -2.3501  1.1737  2.8519
  619MOL0     H83508   1.084   8.123   8.865  0.3725  0.1096 -1.1186
  619MOL0     H83509   1.076   8.303   8.865  0.0561  0.8849  0.4299
  619MOL0     H83510   1.305   8.238   8.779 -0.4514 -0.3769 -0.2999
  619MOL0     H83511   1.314   8.325   8.926 -5.2160  3.2202 -0.5526
  619MOL0     H83512   1.324   8.025   8.894 -1.7113  0.1596  2.2572
  619MOL0     H83513   1.326   8.097   9.048 -0.1561  0.1725  0.3354
  619MOL0     H83514   1.560   8.095   8.867  1.0427 -0.1750  0.9148
  619MOL0     H83515   1.525   8.234   8.963  0.4311 -0.6554 -1.3953
  619MOL0     H83516   1.561   7.839   9.008  0.6742 -1.3737  0.7729
  619MOL0     H83517   1.682   7.779   9.356 -1.0957 -0.1630 -0.2648
  619MOL0     H83518   1.661   7.690   9.208  1.8635 -2.6927 -0.3362
  619MOL0     H83519   1.884   7.777   9.118 -1.5424 -0.0027 -0.2605
  619MOL0     H83520   1.914   7.849   9.272  2.6192 -0.8549 -0.9802
  619MOL0     H83521   1.896   7.562   9.243  4.0246 -0.0294 -1.9925
  619MOL0     H83522   1.910   7.651   9.402 -2.6688 -0.7144 -0.1904
  619MOL0     H83523   2.115   7.644   9.166 -1.8424  1.8054 -0.3095
  619MOL0     H83524   2.131   7.574   9.339  0.7300  0.5266  1.0613
  619MOL0     H83525   2.284   7.963   9.412 -3.2795 -2.1019 -2.2108
  619MOL0     H83526   2.512   7.969   9.472  0.1446 -0.1291 -1.0494
  619MOL0     H83527   2.975   7.779   9.261 -3.6185  1.3413  0.3885
  619MOL0     H83528   3.199   7.862   9.255  0.7275  1.6342 -2.2239
  619MOL0     H83529   3.255   8.316   9.295 -0.4478  0.7390  1.6695
  619MOL0     H83530   3.325   8.213   9.427 -0.2977  0.3294 -1.1817
  619MOL0     H83531   3.506   8.176   9.253 -3.2746 -2.0525 -2.0325
  619MOL0     H83532   3.415   8.277   9.145 -2.0081  0.5025 -0.4682
  619MOL0     H83533   3.464   8.484   9.282  1.6982  1.3826  1.8249
  619MOL0     H83534   3.520   8.388   9.408 -2.7543  2.3709  0.4418
  619MOL0     H83535   3.664   8.449   9.152  2.3653 -0.0198 -0.1861
  619MOL0     H83536   3.702   8.294   9.208 -1.1378  0.8393 -0.8348
  619MOL0     H83537   3.749   8.425   9.435 -0.1120  1.3926  0.9487
  619MOL0     H83538   3.735   8.572   9.334  0.7747 -0.2787 -0.3446
  619MOL0     H83539   3.925   8.349   9.302  1.3586  0.6294  0.7725
  619MOL0     H83540   3.905   8.484   9.190  0.3716 -0.8473 -0.9627
  619MOL0     H83541   4.007   8.505   9.485 -0.6118  0.0354 -0.1752
  619MOL0     H83542   3.951   8.642   9.390 -2.7004 -1.7270 -1.4760
  619MOL0     H83543   4.102   8.547   9.208 -0.1707 -4.6796  0.0902
  619MOL0     H83544   4.178   8.642   9.344  0.7559  0.8934 -2.3413
  619MOL0     H83545   3.086   8.220   9.452  1.2591 -0.9678 -0.2968
  619MOL0     H83546   2.857   8.126   9.488 -1.1518 -2.8096 -0.5752
  619MOL0     H83547   2.574   7.619   9.220 -1.2465 -0.4337  0.0679
  619MOL0     H83548   2.331   7.579   9.219 -0.2782 -1.1590 -0.3077
  619MOL0     H83549   0.459   8.200   9.131  1.8836  1.1868 -0.4567
  619MOL0     H83550   0.226   8.177   9.054  1.1229 -1.1284  2.1218
  619MOL0     H83551  -0.099   8.243   8.860 -2.1833  1.7483 -1.4849
  619MOL0     H83552  -0.332   8.250   8.793 -0.9167 -1.0039 -0.3813
  619MOL0     H83553  -0.562   8.255   8.731  2.2238 -0.7229 -0.8682
  619MOL0     H83554  -0.516   8.171   8.883  4.8057 -0.2111 -2.3619
  619MOL0     H83555  -0.737   8.081   8.899 -0.8168  0.8775 -0.6212
  619MOL0     H83556  -0.713   8.018   8.743  0.6573 -0.0774  2.2649
  619MOL0     H83557  -0.773   8.254   8.641 -1.0547 -2.1359 -2.4468
  619MOL0     H83558  -0.816   8.307   8.799  0.5061  1.1308 -1.1535
  619MOL0     H83559  -0.947   8.058   8.670  1.6173  0.9520 -0.3987
  619MOL0     H83560  -0.997   8.134   8.825 -1.3767  5.1186  0.6657
  619MOL0     H83561  -1.158   8.386   8.534  0.1827  1.0049  0.3275
  619MOL0     H83562  -0.337   7.834   8.708  1.0577 -2.3829 -0.4646
  619MOL0     H83563  -0.143   7.693   8.713  1.1026  0.1533 -0.5114
  619MOL0     H83564  -0.012   7.786   8.642  1.0466 -0.9518  0.4716
  619MOL0     H83565  -0.013   7.750   8.820  1.5311 -0.7617 -0.2710
  620MOL0     O83566   7.379  10.576   5.563  0.6782 -0.4528 -0.0388
  620MOL0     C83567   7.453  10.488   5.527  0.5665 -0.2892  0.3441
  620MOL0     O83568   7.572  10.511   5.462  0.3016 -0.0411 -0.2218
  620MOL0     C83569   7.597  10.601   5.363  0.4607  0.0391  0.6899
  620MOL0     C83570   7.734  10.622   5.331 -0.2276 -0.4528 -0.3562
  620MOL0     C83571   7.779  10.719   5.243  0.2309 -1.2276  0.1068
  620MOL0     C83572   7.690  10.804   5.176 -0.4892 -0.3569 -0.4517
  620MOL0     O83573   7.733  10.916   5.107 -0.0382 -0.3933 -0.0208
  620MOL0     C83574   7.650  11.035   5.078  0.1110  0.3327 -0.0429
  620MOL0     C83575   7.747  11.138   5.022 -0.8547 -0.2592  0.6446
  620MOL0     C83576   7.889  11.139   5.076  0.3186  0.0141 -0.8160
  620MOL0     C83577   7.971  11.252   5.011 -0.3068 -0.2962 -0.4935
  620MOL0     C83578   8.107  11.269   5.069 -0.1570  0.0325 -0.2871
  620MOL0     C83579   8.169  11.395   5.011  0.2344 -0.0613 -1.4363
  620MOL0     C83580   8.324  11.402   5.026  0.0277  1.4109 -0.0978
  620MOL0     C83581   8.370  11.537   5.000 -0.5675 -0.7447 -0.5815
  620MOL0     N83582   8.516  11.546   4.968 -0.3951  0.0369 -0.7938
  620MOL0     C83583   8.574  11.589   4.847 -0.1844  0.4028  0.3823
  620MOL0     C83584   8.707  11.554   4.865 -0.9069  0.0891  0.0728
  620MOL0     C83585   8.815  11.566   4.763 -0.3393  0.1047  0.0344
  620MOL0     C83586   8.842  11.425   4.699 -0.2469 -0.2632  0.2338
  620MOL0     C83587   8.864  11.318   4.801 -0.0801 -0.1095  0.2570
  620MOL0     C83588   8.989  11.358   4.879 -0.0091  0.3573  0.1592
  620MOL0     O83589   9.109  11.342   4.801  0.2413 -0.0160  0.4179
  620MOL0     C83590   9.232  11.354   4.842 -0.0253  0.5448 -0.6555
  620MOL0     C83591   9.338  11.358   4.752 -0.0020  0.1491 -0.3636
  620MOL0     C83592   9.470  11.372   4.794  0.6856  0.4009  0.5872
  620MOL0     C83593   9.498  11.386   4.933 -0.2568  0.0311 -0.4778
  620MOL0     C83594   9.639  11.400   4.974  0.6131 -0.4660  0.0399
  620MOL0     O83595   9.728  11.399   4.871 -0.1976 -0.5262 -0.6004
  620MOL0     C83596   9.854  11.453   4.886  0.5367  0.0057 -0.3023
  620MOL0     C83597   9.901  11.549   4.978 -1.0405 -0.3303  0.5017
  620MOL0     C83598  10.030  11.614   4.979  0.1111 -0.4531 -0.5241
  620MOL0     C83599  10.118  11.570   4.882 -0.1250 -0.0846  0.0159
  620MOL0     O83600  10.256  11.604   4.877  0.5365  0.3205 -0.0641
  620MOL0     C83601  10.323  11.650   4.994 -0.5264 -1.4628  0.1250
  620MOL0     C83602  10.327  11.541   5.102 -0.4091  0.1218  0.6037
  620MOL0     C83603  10.460  11.536   5.174  0.1485  0.2086 -1.5670
  620MOL0     C83604  10.440  11.417   5.273  0.5852 -0.4323  0.0867
  620MOL0     C83605  10.585  11.377   5.318  0.7752  0.7048  0.6030
  620MOL0     C83606  10.573  11.257   5.417  0.3635 -0.2280 -0.2274
  620MOL0     C83607  10.700  11.246   5.508 -0.1430  0.4962  1.0430
  620MOL0     C83608  10.833  11.257   5.418 -0.1351  0.1550 -0.5131
  620MOL0    Cl83609  10.965  11.193   5.525  0.0494 -0.4303  0.2383
  620MOL0     C83610  10.081  11.470   4.786  1.4796  0.8674 -0.6102
  620MOL0     C83611   9.948  11.425   4.789 -0.9257  0.3583 -0.0634
  620MOL0     O83612   9.670  11.393   5.095  0.3910  0.2786 -0.9524
  620MOL0     C83613   9.394  11.387   5.030  0.2958  0.9319  0.0241
  620MOL0     C83614   9.264  11.352   4.984 -0.6308 -0.8317  0.5664
  620MOL0     N83615   8.727  11.509   4.993 -0.5542  0.8186 -0.2894
  620MOL0     N83616   8.606  11.489   5.048  0.0681  0.4258  0.1872
  620MOL0     C83617   7.553  10.784   5.203  1.4804 -0.1150 -0.0283
  620MOL0     C83618   7.510  10.677   5.286  0.2086 -0.7833 -1.3130
  620MOL0     C83619   7.410  10.356   5.567  0.8971  0.7917 -0.2124
  620MOL0     C83620   7.273  10.311   5.556 -1.1449  1.1978  1.1288
  620MOL0     C83621   7.235  10.189   5.617 -0.1031 -0.8379  0.1445
  620MOL0     C83622   7.327  10.106   5.686  0.3557 -0.1916 -0.5985
  620MOL0     O83623   7.300   9.986   5.755  0.3303  0.2821  0.0545
  620MOL0     C83624   7.172   9.924   5.732  0.3448 -0.0569 -0.0207
  620MOL0     C83625   7.072   9.991   5.834 -0.2581 -1.0300  0.2785
  620MOL0     C83626   7.060   9.924   5.975  0.2796 -0.3807 -0.2747
  620MOL0     C83627   6.953   9.816   5.966  0.2677  0.0700  0.5130
  620MOL0     C83628   6.916   9.765   6.102 -0.4037  0.1123 -0.1358
  620MOL0     C83629   6.896   9.727   6.214 -0.1095 -0.1033 -0.1013
  620MOL0     C83630   7.459  10.147   5.695  0.4380 -0.3467 -0.2618
  620MOL0     C83631   7.503  10.269   5.632 -0.1961 -0.4721 -0.5805
  620MOL0     C83632   7.647  10.313   5.672 -0.1119 -0.8321  0.0025
  620MOL0     H83633   7.800  10.558   5.387 -2.9692 -1.5874  1.8488
  620MOL0     H83634   7.884  10.743   5.253  0.2754 -1.1604 -0.4794
  620MOL0     H83635   7.575  11.004   5.005  1.0475 -1.0504 -0.4370
  620MOL0     H83636   7.605  11.067   5.173 -3.2887 -1.2673 -0.9752
  620MOL0     H83637   7.712  11.242   5.023 -0.0059  0.0768 -0.8957
  620MOL0     H83638   7.756  11.121   4.915  1.6265 -1.4456  0.9763
  620MOL0     H83639   7.944  11.047   5.054  1.5146  1.3267 -3.9743
  620MOL0     H83640   7.892  11.154   5.184 -0.9220  2.7839 -1.0746
  620MOL0     H83641   7.985  11.234   4.904  2.6044  0.1888 -0.2994
  620MOL0     H83642   7.920  11.348   5.014 -0.3124 -0.3028 -0.3568
  620MOL0     H83643   8.117  11.279   5.178  3.7326  1.0487 -0.5570
  620MOL0     H83644   8.170  11.186   5.038 -3.8340 -3.3298  0.4904
  620MOL0     H83645   8.157  11.415   4.904  2.5289  0.5461 -1.6384
  620MOL0     H83646   8.133  11.482   5.067  1.2641 -0.0224 -0.8062
  620MOL0     H83647   8.386  11.334   4.967 -2.2879 -0.7510 -0.1740
  620MOL0     H83648   8.347  11.396   5.133 -2.4690  0.0756  0.4281
  620MOL0     H83649   8.320  11.580   4.913 -1.4924 -3.2319 -1.3605
  620MOL0     H83650   8.345  11.614   5.074 -0.6556  0.3910 -1.7724
  620MOL0     H83651   8.523  11.634   4.763  0.1183 -1.4388 -0.8589
  620MOL0     H83652   8.779  11.615   4.672  2.7874 -0.4712 -1.6577
  620MOL0     H83653   8.903  11.618   4.802 -0.8230  0.8229  0.1954
  620MOL0     H83654   8.753  11.396   4.642  1.0023 -0.5930 -1.6352
  620MOL0     H83655   8.931  11.426   4.635 -0.9203 -0.9682 -0.7368
  620MOL0     H83656   8.886  11.228   4.744  1.5123 -0.4372  1.3191
  620MOL0     H83657   8.777  11.295   4.863 -0.0312 -2.7755 -0.5578
  620MOL0     H83658   8.995  11.293   4.967  0.2764 -1.1692 -0.9497
  620MOL0     H83659   8.985  11.456   4.927 -3.2525  0.4772 -0.1161
  620MOL0     H83660   9.307  11.337   4.650  1.8625 -0.1568 -0.9097
  620MOL0     H83661   9.538  11.368   4.710  0.1633 -1.0641  0.2124
  620MOL0     H83662   9.827  11.579   5.052 -1.7102  0.9479 -0.6181
  620MOL0     H83663  10.065  11.671   5.064 -0.7666  0.4912 -0.7593
  620MOL0     H83664  10.420  11.678   4.952 -1.6268  1.3756 -0.7545
  620MOL0     H83665  10.283  11.746   5.027  1.5110 -0.7775  0.7559
  620MOL0     H83666  10.236  11.561   5.160 -0.2714  0.9294  0.5606
  620MOL0     H83667  10.317  11.444   5.053  1.4518 -1.1918  2.6260
  620MOL0     H83668  10.543  11.526   5.104  1.8077 -0.4642  0.4017
  620MOL0     H83669  10.481  11.624   5.235 -1.6758 -0.8677  0.7948
  620MOL0     H83670  10.384  11.336   5.224 -0.9014  2.1243 -2.8395
  620MOL0     H83671  10.379  11.450   5.358 -0.2587 -2.3033  0.2693
  620MOL0     H83672  10.635  11.458   5.372  1.1137  0.8204  0.1289
  620MOL0     H83673  10.644  11.350   5.230  1.7730  0.9740  1.1818
  620MOL0     H83674  10.490  11.279   5.484  0.6213 -0.4424  0.1705
  620MOL0     H83675  10.562  11.168   5.355 -3.1362 -1.2961  1.7041
  620MOL0     H83676  10.693  11.146   5.553  0.8565  1.1259  2.7021
  620MOL0     H83677  10.698  11.316   5.592 -2.8284  1.9067 -0.0740
  620MOL0     H83678  10.829  11.193   5.329  2.1891  1.5516 -1.7325
  620MOL0     H83679  10.842  11.364   5.397  1.2522  0.3325  0.8192
  620MOL0     H83680  10.143  11.426   4.708  0.7465  0.7376 -1.1305
  620MOL0     H83681   9.909  11.363   4.708  1.7511 -0.3621 -0.9013
  620MOL0     H83682   9.400  11.404   5.137 -3.0561  2.0990  0.1354
  620MOL0     H83683   9.202  11.318   5.067 -0.9408 -1.4175  0.1072
  620MOL0     H83684   7.486  10.853   5.152  0.1875 -1.0671  0.3355
  620MOL0     H83685   7.404  10.658   5.298 -0.2125  2.0663  0.6991
  620MOL0     H83686   7.206  10.373   5.497 -1.2576 -0.6000 -0.7686
  620MOL0     H83687   7.131  10.160   5.613 -1.4978  3.5227 -2.6994
  620MOL0     H83688   7.165   9.815   5.746 -0.3481 -0.1143 -0.7614
  620MOL0     H83689   7.138   9.937   5.629 -2.6466 -2.5218  0.4996
  620MOL0     H83690   6.971   9.991   5.792  0.1054 -0.5636 -0.6334
  620MOL0     H83691   7.091  10.098   5.846  1.1199 -1.0116 -1.5379
  620MOL0     H83692   7.034   9.989   6.059  0.7924 -2.8294  1.9307
  620MOL0     H83693   7.155   9.883   6.013 -0.8328 -0.9884  1.9881
  620MOL0     H83694   6.858   9.843   5.919  0.0040  3.3020  2.5827
  620MOL0     H83695   6.985   9.728   5.910  1.7824  0.3163  0.9536
  620MOL0     H83696   6.882   9.689   6.314 -0.4834  0.0837 -0.0839
  620MOL0     H83697   7.517  10.077   5.755 -0.7726 -0.0094  1.3649
  620MOL0     H83698   7.673  10.241   5.751 -1.5540 -0.6838  0.6467
  620MOL0     H83699   7.714  10.309   5.586 -0.4296  0.4981 -0.3141
  620MOL0     H83700   7.663  10.414   5.712  1.8482 -0.1394 -2.2971
  621MOL0     O83701   2.061   0.178  10.092 -0.6353 -0.5205 -0.3338
  621MOL0     C83702   1.972   0.098  10.101  0.2838  0.0866 -1.0959
  621MOL0     O83703   1.981  -0.039  10.097  0.0301  0.4696  0.2895
  621MOL0     C83704   2.101  -0.102  10.072  0.1618  0.1660 -0.6415
  621MOL0     C83705   2.171  -0.092   9.948 -0.7116  0.7915 -0.0209
  621MOL0     C83706   2.301  -0.150   9.932  0.2643 -0.1654  0.0029
  621MOL0     C83707   2.351  -0.229  10.034 -0.0147  0.1125 -0.9916
  621MOL0     O83708   2.473  -0.281  10.001 -0.7245  0.1129 -0.1831
  621MOL0     C83709   2.536  -0.372  10.096  0.6638 -0.0838  0.4217
  621MOL0     C83710   2.611  -0.283  10.194 -0.1061 -0.0873 -0.7520
  621MOL0     C83711   2.709  -0.177  10.135 -0.3882 -0.2553  0.0268
  621MOL0     C83712   2.839  -0.242  10.075  0.2054  0.3722  0.0856
  621MOL0     C83713   2.954  -0.138  10.050 -0.7276  0.2840 -0.4960
  621MOL0     C83714   3.064  -0.209   9.974  0.1482  0.5393 -0.0982
  621MOL0     C83715   3.179  -0.121   9.942  0.0948  0.3465 -0.2223
  621MOL0     C83716   3.273  -0.110  10.052  0.0708  0.0283 -0.2930
  621MOL0     N83717   3.394  -0.045  10.007 -0.6833  0.4299  0.1691
  621MOL0     C83718   3.405   0.088   9.983  0.4590  0.9230  0.2360
  621MOL0     C83719   3.522   0.104   9.929  0.9467 -0.1590  0.7446
  621MOL0     C83720   3.592   0.236   9.914 -0.1170 -0.7463  0.0573
  621MOL0     C83721   3.728   0.252   9.989 -0.3634 -0.0065  0.6267
  621MOL0     C83722   3.843   0.158   9.945 -0.7639 -0.4839  0.0861
  621MOL0     C83723   3.983   0.186  10.003  0.3706  0.1635 -0.0884
  621MOL0     O83724   4.055   0.293   9.945  0.6553 -0.5484 -0.5143
  621MOL0     C83725   4.187   0.284   9.948 -0.3296 -0.1811  0.1209
  621MOL0     C83726   4.262   0.331   9.838 -0.7135  0.8487 -0.2139
  621MOL0     C83727   4.407   0.330   9.842 -0.0679  0.1137 -0.1647
  621MOL0     C83728   4.474   0.262   9.944 -0.3936 -0.7421  0.6324
  621MOL0     C83729   4.626   0.251   9.946  0.5660 -0.6470 -1.1587
  621MOL0     O83730   4.699   0.315   9.859  0.4769  0.7316 -0.3060
  621MOL0     C83731   4.837   0.307   9.828  0.3045 -0.8047 -0.6399
  621MOL0     C83732   4.930   0.246   9.911  0.1261  0.2589  1.2557
  621MOL0     C83733   5.066   0.259   9.881  0.8449  0.5287 -0.4440
  621MOL0     C83734   5.103   0.336   9.781 -0.5900 -0.2232 -0.1346
  621MOL0     O83735   5.242   0.364   9.776 -0.3251 -0.2525 -0.1487
  621MOL0     C83736   5.304   0.464   9.690 -0.4970  0.5170 -0.6229
  621MOL0     C83737   5.457   0.454   9.720 -0.2754 -0.3401  0.4712
  621MOL0     C83738   5.533   0.579   9.661 -1.0398  0.1882  1.0636
  621MOL0     C83739   5.686   0.568   9.672  0.4365  0.1873  0.0896
  621MOL0     C83740   5.745   0.684   9.591  0.6647 -0.0627 -0.2822
  621MOL0     C83741   5.685   0.821   9.618 -0.7353  0.2004 -0.0573
  621MOL0     C83742   5.777   0.940   9.598  0.6422 -0.5463 -0.2055
  621MOL0     C83743   5.694   1.077   9.599 -0.2076 -1.1240 -0.2225
  621MOL0    Cl83744   5.613   1.087   9.759 -0.2464 -0.1602  0.0137
  621MOL0     C83745   5.019   0.386   9.691 -0.3332 -0.5496 -0.0650
  621MOL0     C83746   4.881   0.382   9.715 -0.0339 -0.3990 -0.4923
  621MOL0     O83747   4.674   0.188  10.042 -0.0199 -0.2472  0.3580
  621MOL0     C83748   4.401   0.219  10.056  0.9106  0.5261  1.2197
  621MOL0     C83749   4.255   0.225  10.054 -0.0401  0.7022 -0.0481
  621MOL0     N83750   3.576  -0.021   9.913 -0.5142  0.4236 -0.4993
  621MOL0     N83751   3.495  -0.111   9.948 -0.0108 -1.0164  0.8217
  621MOL0     C83752   2.273  -0.245  10.153 -0.2488 -0.5244 -0.1934
  621MOL0     C83753   2.156  -0.177  10.173  0.2804  0.5486 -0.1996
  621MOL0     C83754   1.834   0.161  10.116 -1.1722  0.2643 -0.4396
  621MOL0     C83755   1.821   0.292  10.160  0.2311 -0.2051 -0.0457
  621MOL0     C83756   1.700   0.349  10.191  0.4418 -0.5082  0.4224
  621MOL0     C83757   1.583   0.289  10.183 -0.2690 -0.6819  0.3551
  621MOL0     O83758   1.463   0.359  10.205  0.5909  0.0808  0.5787
  621MOL0     C83759   1.355   0.347  10.105 -0.9816 -0.2302 -1.7675
  621MOL0     C83760   1.243   0.445  10.144 -0.0990 -1.4712  0.6017
  621MOL0     C83761   1.146   0.461  10.020  0.4690  1.1211 -0.5730
  621MOL0     C83762   1.058   0.334   9.994  0.1041  1.0336  0.1653
  621MOL0     C83763   0.977   0.293  10.104  0.5110 -0.4115 -0.3053
  621MOL0     C83764   0.907   0.263  10.198 -0.0146 -0.1959  0.3502
  621MOL0     C83765   1.597   0.154  10.122  0.5855 -0.2277 -0.3033
  621MOL0     C83766   1.720   0.085  10.093 -0.3626  0.2248 -0.4734
  621MOL0     C83767   1.717  -0.059  10.030  0.4836 -0.8795  0.3680
  621MOL0     H83768   2.137  -0.013   9.880 -1.7636  2.9264  2.8002
  621MOL0     H83769   2.353  -0.142   9.837 -0.4613 -3.1193 -0.7532
  621MOL0     H83770   2.462  -0.428  10.155 -0.8590  1.6066  0.2162
  621MOL0     H83771   2.602  -0.442  10.044 -2.0564 -2.6988  0.1937
  621MOL0     H83772   2.675  -0.341  10.261 -0.6446 -0.4531 -0.5485
  621MOL0     H83773   2.545  -0.221  10.255  0.1116  0.3696 -0.9686
  621MOL0     H83774   2.737  -0.107  10.214 -1.3852 -0.3904  0.5152
  621MOL0     H83775   2.660  -0.112  10.062  0.7877  2.3791  1.4278
  621MOL0     H83776   2.885  -0.311  10.147  0.2213  1.0184  0.7098
  621MOL0     H83777   2.826  -0.291   9.978  2.9252  3.7193 -2.2307
  621MOL0     H83778   2.925  -0.043  10.003  0.0402 -1.9400 -6.3083
  621MOL0     H83779   2.991  -0.115  10.150 -1.1686 -0.3627 -0.1769
  621MOL0     H83780   3.089  -0.302  10.026 -3.8155 -1.0342 -0.6297
  621MOL0     H83781   3.018  -0.237   9.878  0.1906  0.4665 -0.0977
  621MOL0     H83782   3.135  -0.022   9.926  0.1272  0.6657  1.5018
  621MOL0     H83783   3.234  -0.150   9.851 -0.9117 -0.2047 -0.6694
  621MOL0     H83784   3.227  -0.042  10.124 -0.4597  0.5322 -1.0864
  621MOL0     H83785   3.297  -0.204  10.102 -2.5561 -0.1465  0.7659
  621MOL0     H83786   3.338   0.169  10.009 -0.0094  0.1939  1.3872
  621MOL0     H83787   3.612   0.240   9.806 -1.7918 -0.6633 -0.2766
  621MOL0     H83788   3.530   0.320   9.944  0.0958 -0.0493 -1.3661
  621MOL0     H83789   3.751   0.358   9.973 -0.2077 -0.1506 -0.1607
  621MOL0     H83790   3.698   0.234  10.093 -1.5838 -0.4686  0.2213
  621MOL0     H83791   3.851   0.169   9.836 -2.9242  0.5708 -0.0191
  621MOL0     H83792   3.818   0.052   9.956 -0.5562 -0.5777 -0.3398
  621MOL0     H83793   4.037   0.091  10.002  0.6488  0.3233 -0.3196
  621MOL0     H83794   3.975   0.202  10.111  1.8824 -2.3471  0.4897
  621MOL0     H83795   4.210   0.374   9.754 -0.2453 -0.3110 -1.1257
  621MOL0     H83796   4.468   0.364   9.759  0.6704 -1.9147 -0.4953
  621MOL0     H83797   4.910   0.204  10.009  0.4242 -1.6915  0.5191
  621MOL0     H83798   5.140   0.220   9.951  3.2866 -0.1908 -3.2283
  621MOL0     H83799   5.284   0.447   9.584 -0.0865 -0.6999 -0.5170
  621MOL0     H83800   5.267   0.558   9.731 -1.3877 -0.2455  0.4008
  621MOL0     H83801   5.464   0.446   9.829  0.9272 -2.1965  0.3133
  621MOL0     H83802   5.490   0.364   9.667 -0.4696 -0.5111  0.6381
  621MOL0     H83803   5.498   0.613   9.563 -0.2777  1.8211  1.3139
  621MOL0     H83804   5.494   0.659   9.725 -0.2961 -0.2245  2.0763
  621MOL0     H83805   5.725   0.471   9.641  0.6532  0.0348  0.8209
  621MOL0     H83806   5.713   0.577   9.778  0.1403 -0.4152  0.2209
  621MOL0     H83807   5.726   0.670   9.483 -0.9618 -1.2364  0.1016
  621MOL0     H83808   5.853   0.684   9.604  0.6853  1.5674 -0.2675
  621MOL0     H83809   5.596   0.831   9.556 -1.6106  2.6857  1.4571
  621MOL0     H83810   5.663   0.831   9.724 -1.0448  3.8431 -0.3171
  621MOL0     H83811   5.830   0.931   9.503  0.0110 -1.7630 -0.4687
  621MOL0     H83812   5.853   0.950   9.676  0.8822  2.0729 -0.6721
  621MOL0     H83813   5.764   1.158   9.576 -2.4273  1.1025  0.4987
  621MOL0     H83814   5.620   1.072   9.519 -0.2055 -3.5142 -0.1441
  621MOL0     H83815   5.041   0.449   9.606 -3.6632  0.3997 -0.3570
  621MOL0     H83816   4.806   0.423   9.649 -0.0682  0.4233  0.0467
  621MOL0     H83817   4.452   0.184  10.146  0.2137 -1.2950  0.9513
  621MOL0     H83818   4.207   0.184  10.142  0.8760 -2.1860 -0.7940
  621MOL0     H83819   2.314  -0.296  10.241 -3.6258  0.6536  2.2635
  621MOL0     H83820   2.105  -0.175  10.269 -0.3663  1.2613 -0.5463
  621MOL0     H83821   1.913   0.348  10.171  0.4580 -0.6573  0.4347
  621MOL0     H83822   1.709   0.448  10.235  3.3989 -1.1208  1.4201
  621MOL0     H83823   1.321   0.243  10.115 -1.8285  0.0508 -1.6280
  621MOL0     H83824   1.400   0.355  10.006 -0.8497  1.6282 -1.5925
  621MOL0     H83825   1.285   0.546  10.152  0.2749 -1.6775  1.3517
  621MOL0     H83826   1.195   0.420  10.239 -0.0862  1.2398  1.4006
  621MOL0     H83827   1.209   0.473   9.932 -0.6251 -1.3755 -1.7987
  621MOL0     H83828   1.088   0.554  10.024  1.4073  1.8562 -2.6729
  621MOL0     H83829   1.001   0.349   9.901  0.4173 -0.3279 -0.2734
  621MOL0     H83830   1.128   0.252   9.978  0.4026  1.3589 -0.2445
  621MOL0     H83831   0.846   0.224  10.278 -1.5902 -2.2278 -1.7122
  621MOL0     H83832   1.503   0.110  10.093  1.0331 -1.2300 -0.2724
  621MOL0     H83833   1.781  -0.060   9.942  0.6950 -1.7043  0.5229
  621MOL0     H83834   1.738  -0.135  10.107  0.7041  1.4204  2.7278
  621MOL0     H83835   1.615  -0.077   9.995 -0.8117  0.3593  3.1259
  622MOL0     O83836   3.697   9.796   4.553  0.7572 -0.3791  0.2376
  622MOL0     C83837   3.631   9.711   4.607  0.3927  0.2746 -0.4720
  622MOL0     O83838   3.679   9.631   4.698  0.0330  0.4271 -0.4569
  622MOL0     C83839   3.810   9.652   4.748 -0.1382 -0.2027 -0.1745
  622MOL0     C83840   3.825   9.721   4.871 -0.1927  0.0868 -0.2169
  622MOL0     C83841   3.952   9.749   4.921 -0.7237 -0.6311  0.2395
  622MOL0     C83842   4.069   9.729   4.845 -0.4912  0.0097 -0.1778
  622MOL0     O83843   4.185   9.758   4.905  0.6668 -0.1375 -0.4141
  622MOL0     C83844   4.288   9.794   4.822 -0.3679 -0.2299  0.2267
  622MOL0     C83845   4.401   9.840   4.917  1.5066  0.4378  0.1176
  622MOL0     C83846   4.513   9.899   4.833 -0.1538  0.1245 -0.6662
  622MOL0     C83847   4.633   9.960   4.908 -0.4101  1.0617  1.0200
  622MOL0     C83848   4.753   9.992   4.805  0.6465 -0.5228 -0.4863
  622MOL0     C83849   4.855  10.091   4.867  0.4018  0.6855 -0.7354
  622MOL0     C83850   4.997  10.069   4.810 -0.0249 -0.1847 -1.0510
  622MOL0     C83851   5.084  10.170   4.888 -0.4324 -0.5382  0.4896
  622MOL0     N83852   5.226  10.168   4.848  0.6662  0.3069  0.4767
  622MOL0     C83853   5.295  10.260   4.780  0.0281 -0.0486  0.6884
  622MOL0     C83854   5.432  10.233   4.807 -0.0669  0.0919 -0.5015
  622MOL0     C83855   5.561  10.327   4.783 -0.7549  0.8501 -0.4729
  622MOL0     C83856   5.695  10.254   4.785  0.0926 -0.0859 -0.5856
  622MOL0     C83857   5.716  10.156   4.911  0.3208 -0.5180  0.0551
  622MOL0     C83858   5.871  10.142   4.945  0.7775 -0.9401 -0.3071
  622MOL0     O83859   5.918  10.017   4.898 -0.3996  0.4052  0.3175
  622MOL0     C83860   6.051  10.016   4.855 -0.0448  0.0250 -0.0626
  622MOL0     C83861   6.153  10.074   4.925 -1.3646 -0.3548 -0.4576
  622MOL0     C83862   6.288  10.059   4.884 -0.6814  1.2721  0.1261
  622MOL0     C83863   6.319   9.991   4.758 -0.4471  0.1415 -0.6573
  622MOL0     C83864   6.456   9.997   4.697  0.4345  0.6527 -0.3890
  622MOL0     O83865   6.551  10.058   4.770 -0.1744 -0.3197 -0.0558
  622MOL0     C83866   6.681  10.054   4.729  0.6243  0.0858  0.2157
  622MOL0     C83867   6.743  10.176   4.705  0.3947  0.3168  0.2894
  622MOL0     C83868   6.879  10.174   4.655  0.2644 -0.7658  0.7117
  622MOL0     C83869   6.945  10.056   4.631 -0.2053 -0.9132  0.4845
  622MOL0     O83870   7.079  10.063   4.598  0.5619  0.0251 -0.1740
  622MOL0     C83871   7.172   9.962   4.628 -0.0050  0.1727 -0.4650
  622MOL0     C83872   7.190   9.958   4.778 -0.2865 -0.1884 -0.5863
  622MOL0     C83873   7.300   9.865   4.814 -0.2398 -0.2065  0.2445
  622MOL0     C83874   7.442   9.930   4.793 -1.3653  0.0087  0.3972
  622MOL0     C83875   7.551   9.839   4.856  0.1494  0.2013 -0.6203
  622MOL0     C83876   7.691   9.889   4.817 -0.4041  0.0524 -0.6488
  622MOL0     C83877   7.795   9.814   4.910  0.1125  0.1205 -0.1754
  622MOL0     C83878   7.936   9.854   4.872  0.5212 -0.7401  0.6910
  622MOL0    Cl83879   7.972   9.837   4.685  0.1392  0.2772  0.1297
  622MOL0     C83880   6.882   9.940   4.656  0.4923  0.3914 -0.1390
  622MOL0     C83881   6.743   9.936   4.700 -0.6722 -0.0159 -0.8363
  622MOL0     O83882   6.464   9.943   4.585 -0.3274 -0.6500  0.3222
  622MOL0     C83883   6.216   9.931   4.689 -0.0479  0.2339  0.0986
  622MOL0     C83884   6.078   9.943   4.734 -0.7691 -0.6362 -0.0180
  622MOL0     N83885   5.436  10.125   4.893  0.3011  0.1586 -0.5705
  622MOL0     N83886   5.310  10.082   4.913 -1.2481 -0.6161  0.0807
  622MOL0     C83887   4.053   9.675   4.716  0.5178 -0.4613 -0.5154
  622MOL0     C83888   3.929   9.633   4.672  0.4779 -0.4833  0.8834
  622MOL0     C83889   3.477   9.701   4.596 -0.1573 -0.0970  0.3973
  622MOL0     C83890   3.401   9.612   4.675 -0.7108  0.0590  0.2584
  622MOL0     C83891   3.265   9.587   4.660  0.0464  0.6986  0.5077
  622MOL0     C83892   3.189   9.662   4.577 -0.6768  0.0164 -0.0931
  622MOL0     O83893   3.054   9.630   4.570  0.0287 -0.2121 -0.2609
  622MOL0     C83894   2.967   9.699   4.473 -0.6644 -0.0914 -1.0449
  622MOL0     C83895   2.815   9.683   4.502 -0.4399 -0.1063 -0.3271
  622MOL0     C83896   2.777   9.539   4.511 -1.3599  0.2840 -0.4638
  622MOL0     C83897   2.624   9.520   4.522 -0.0094  0.0430 -0.1337
  622MOL0     C83898   2.551   9.588   4.410 -0.3697  0.5964 -0.1671
  622MOL0     C83899   2.494   9.644   4.320  0.7084  0.0848  0.4530
  622MOL0     C83900   3.254   9.770   4.506 -1.9263  1.0253 -0.1613
  622MOL0     C83901   3.399   9.792   4.518  0.8821 -1.1142  0.3426
  622MOL0     C83902   3.456   9.914   4.448 -0.1724  0.1825 -1.0746
  622MOL0     H83903   3.739   9.733   4.936  0.2242 -4.7322  1.6422
  622MOL0     H83904   3.968   9.787   5.021  0.9155  0.7924 -0.5179
  622MOL0     H83905   4.323   9.718   4.751 -1.2821  1.2827 -1.9573
  622MOL0     H83906   4.268   9.872   4.747  2.0625 -0.3527 -0.6495
  622MOL0     H83907   4.427   9.749   4.972 -0.7592  0.8616  2.0463
  622MOL0     H83908   4.358   9.919   4.980 -3.4403  1.2889 -3.6931
  622MOL0     H83909   4.465   9.977   4.773 -1.6024 -0.1142  0.1300
  622MOL0     H83910   4.555   9.825   4.765  2.1371  1.4017 -0.7419
  622MOL0     H83911   4.595  10.058   4.941 -2.8122  0.8940 -0.9321
  622MOL0     H83912   4.666   9.894   4.988 -0.1594  0.0836  0.1195
  622MOL0     H83913   4.808   9.901   4.779  2.7886 -0.5234  3.2944
  622MOL0     H83914   4.710  10.033   4.713 -0.2666 -0.2660  0.0430
  622MOL0     H83915   4.822  10.192   4.844 -0.1153  0.0710 -2.9504
  622MOL0     H83916   4.856  10.096   4.977 -0.7530  1.8326 -0.7573
  622MOL0     H83917   4.994  10.088   4.703 -2.6222  0.6905 -0.9081
  622MOL0     H83918   5.026   9.964   4.818 -0.4535 -0.4134 -2.3221
  622MOL0     H83919   5.051  10.270   4.859  0.5891 -0.3844 -0.1919
  622MOL0     H83920   5.076  10.150   4.995  2.2115  0.4782  0.9599
  622MOL0     H83921   5.268  10.353   4.733 -1.7865 -0.0860  1.5723
  622MOL0     H83922   5.558  10.377   4.686  3.2440 -0.2637 -1.3609
  622MOL0     H83923   5.555  10.402   4.862 -1.7057  0.1960  0.0986
  622MOL0     H83924   5.702  10.196   4.693  0.6185  0.5273 -0.9446
  622MOL0     H83925   5.773  10.330   4.776  0.8048 -0.4579  1.7083
  622MOL0     H83926   5.676  10.055   4.896  1.6458 -1.3564  1.7458
  622MOL0     H83927   5.661  10.188   5.000 -1.3028  0.6885 -1.3107
  622MOL0     H83928   5.880  10.135   5.054 -1.5665 -0.3315 -0.0071
  622MOL0     H83929   5.928  10.230   4.915 -2.1080  2.4473  2.9338
  622MOL0     H83930   6.141  10.120   5.023 -1.8573  2.2360 -1.6584
  622MOL0     H83931   6.371  10.089   4.947  0.1864 -0.7649  0.0482
  622MOL0     H83932   6.685  10.266   4.718 -0.1955  0.1110 -0.8734
  622MOL0     H83933   6.919  10.273   4.638 -3.1467  0.3165 -2.3811
  622MOL0     H83934   7.142   9.865   4.590 -1.9509 -0.8843  3.2233
  622MOL0     H83935   7.262   9.994   4.576 -1.8803  0.9299 -3.4802
  622MOL0     H83936   7.206  10.052   4.832 -1.7702 -0.4037  0.2904
  622MOL0     H83937   7.096   9.921   4.820 -0.5302  0.3687 -0.6244
  622MOL0     H83938   7.290   9.841   4.920 -0.1487 -0.7426  0.1383
  622MOL0     H83939   7.289   9.769   4.763 -0.5090  0.5548 -1.1838
  622MOL0     H83940   7.444  10.026   4.845 -1.4790 -0.5836  1.5281
  622MOL0     H83941   7.463   9.954   4.689 -0.7501  0.0054  0.5151
  622MOL0     H83942   7.544   9.737   4.816  2.3608  0.3683 -1.5636
  622MOL0     H83943   7.536   9.836   4.964  0.0069  1.7349 -0.5815
  622MOL0     H83944   7.712   9.865   4.712  3.6134  3.7989 -1.0210
  622MOL0     H83945   7.703   9.998   4.827  2.1796 -0.2369  0.4060
  622MOL0     H83946   7.779   9.707   4.892 -0.5311 -0.4340  3.0761
  622MOL0     H83947   7.773   9.822   5.017 -1.7998 -2.4467 -0.2736
  622MOL0     H83948   7.957   9.960   4.888  0.9500 -0.6972 -0.1137
  622MOL0     H83949   8.002   9.789   4.930  2.6268 -0.1801 -0.9837
  622MOL0     H83950   6.936   9.847   4.636  2.0021  1.0406  0.7469
  622MOL0     H83951   6.687   9.846   4.725 -0.6595  0.4843  1.1451
  622MOL0     H83952   6.234   9.869   4.601 -2.5074  2.3896 -2.1096
  622MOL0     H83953   5.993   9.905   4.679 -2.7109  3.1223  0.0312
  622MOL0     H83954   4.133   9.661   4.643  0.7870 -1.0197 -0.1245
  622MOL0     H83955   3.923   9.610   4.566 -0.0719 -1.2317  1.0694
  622MOL0     H83956   3.442   9.551   4.754 -0.3234 -0.3893 -0.2773
  622MOL0     H83957   3.222   9.511   4.724 -0.7709  1.8188  1.3220
  622MOL0     H83958   2.979   9.659   4.371  2.5013  1.0247 -1.2172
  622MOL0     H83959   2.992   9.805   4.474 -0.2573 -0.1839 -1.1764
  622MOL0     H83960   2.760   9.739   4.425  0.7695  0.4890 -0.7821
  622MOL0     H83961   2.787   9.734   4.594 -0.0469 -2.2513  1.0552
  622MOL0     H83962   2.821   9.492   4.599 -0.4252  0.7861 -0.6609
  622MOL0     H83963   2.813   9.482   4.424 -2.8189  0.5259 -1.2688
  622MOL0     H83964   2.609   9.412   4.530  0.5333  0.0415  1.1236
  622MOL0     H83965   2.589   9.567   4.614 -0.6296  0.1084 -0.3965
  622MOL0     H83966   2.441   9.706   4.251 -1.3841  2.2138  3.6735
  622MOL0     H83967   3.197   9.844   4.451 -2.2020  1.1696  0.3154
  622MOL0     H83968   3.521   9.890   4.364  1.1610 -0.0118 -0.0179
  622MOL0     H83969   3.372   9.969   4.406 -0.7126 -0.3790 -0.7505
  622MOL0     H83970   3.512   9.979   4.516  3.4740 -0.1276 -3.5311
  623MOL0     O83971   0.282   4.079   6.895 -0.1316 -0.0116  0.4139
  623MOL0     C83972   0.176   4.131   6.883 -0.2551  0.1079  0.5612
  623MOL0     O83973   0.061   4.070   6.924  0.6329 -0.6418  0.7238
  623MOL0     C83974   0.073   3.951   6.999 -0.1132  0.6911 -0.6141
  623MOL0     C83975   0.098   3.825   6.950 -0.3699 -0.1345  0.2895
  623MOL0     C83976   0.086   3.709   7.031  0.0346 -0.5902 -0.3314
  623MOL0     C83977   0.049   3.713   7.165 -0.0806  0.4260  0.2530
  623MOL0     O83978   0.040   3.608   7.259  0.6911 -0.1575  0.4433
  623MOL0     C83979   0.101   3.489   7.217 -0.5430  0.1413 -0.0815
  623MOL0     C83980   0.006   3.409   7.132  0.2990 -0.3610  0.2368
  623MOL0     C83981  -0.006   3.254   7.171  0.6332  0.3693  0.2348
  623MOL0     C83982   0.123   3.185   7.132 -0.4322  0.0177  0.5812
  623MOL0     C83983   0.142   3.041   7.175 -0.4114  0.6346  0.0010
  623MOL0     C83984   0.265   2.981   7.105  0.5081 -0.1871  0.4682
  623MOL0     C83985   0.394   3.039   7.167 -0.7274  0.3466 -0.3260
  623MOL0     C83986   0.508   2.990   7.079 -0.2725  0.3311 -0.7971
  623MOL0     N83987   0.622   3.070   7.133  0.2511 -0.2217  0.1019
  623MOL0     C83988   0.740   3.022   7.188  0.3156 -0.4263  0.3392
  623MOL0     C83989   0.823   3.124   7.189  0.1639 -0.6262 -0.9167
  623MOL0     C83990   0.966   3.124   7.226 -0.3985  0.6615  0.2352
  623MOL0     C83991   0.988   3.202   7.354  0.3647  0.2334  0.3838
  623MOL0     C83992   1.139   3.219   7.387 -0.5197  0.0170 -0.4757
  623MOL0     C83993   1.155   3.354   7.460  1.4668 -0.1649  0.2568
  623MOL0     O83994   1.290   3.381   7.509  0.5617 -0.5742 -0.7476
  623MOL0     C83995   1.334   3.348   7.633  0.8635  0.2780  0.0448
  623MOL0     C83996   1.273   3.256   7.717 -0.6855  1.2395 -0.4771
  623MOL0     C83997   1.330   3.217   7.832 -0.5636  0.4203 -0.2873
  623MOL0     C83998   1.453   3.275   7.867 -0.6072 -0.0181  0.6008
  623MOL0     C83999   1.524   3.230   7.992  0.7176 -0.8701 -0.1767
  623MOL0     O84000   1.662   3.238   7.985 -0.6792  0.1186  0.4292
  623MOL0     C84001   1.751   3.200   8.084  0.8037  0.2279 -0.1437
  623MOL0     C84002   1.724   3.174   8.220 -0.6198  0.2218  0.1406
  623MOL0     C84003   1.822   3.117   8.310  0.7272 -0.5795 -0.1784
  623MOL0     C84004   1.951   3.113   8.264 -0.3398 -0.0097 -0.3286
  623MOL0     O84005   2.051   3.081   8.355  0.1306  0.5203  0.0354
  623MOL0     C84006   2.144   2.978   8.308 -0.5232 -0.8343 -0.1081
  623MOL0     C84007   2.282   3.038   8.285 -0.4842  0.5892  0.2430
  623MOL0     C84008   2.396   2.934   8.254  0.8610  0.1232  0.9067
  623MOL0     C84009   2.438   2.876   8.390  0.3074 -0.6078 -0.2333
  623MOL0     C84010   2.589   2.850   8.397 -0.1426 -0.1049  0.3367
  623MOL0     C84011   2.622   2.721   8.319  0.8614 -0.6165  0.6104
  623MOL0     C84012   2.769   2.706   8.273 -0.8994 -0.2899 -0.8937
  623MOL0     C84013   2.815   2.811   8.168  1.2530 -0.0712 -1.2444
  623MOL0    Cl84014   2.979   2.806   8.099  0.3097 -0.1440  0.5053
  623MOL0     C84015   1.984   3.165   8.141  1.1414  0.4617  0.7947
  623MOL0     C84016   1.884   3.204   8.048 -0.3255  0.2123 -0.1119
  623MOL0     O84017   1.460   3.207   8.095  0.1849 -0.0010 -0.3975
  623MOL0     C84018   1.517   3.372   7.786  1.1522  0.8252  0.7529
  623MOL0     C84019   1.455   3.404   7.669  0.2789 -0.3514  0.7277
  623MOL0     N84020   0.762   3.238   7.137 -1.1898 -0.0473  0.1145
  623MOL0     N84021   0.639   3.204   7.112 -0.1000 -0.4483  0.1685
  623MOL0     C84022   0.027   3.841   7.211  0.4209  0.1971 -0.0313
  623MOL0     C84023   0.035   3.956   7.131 -0.4776  0.2881 -0.4335
  623MOL0     C84024   0.162   4.264   6.828 -0.0627 -0.7404  0.5604
  623MOL0     C84025   0.027   4.326   6.824 -1.1315 -0.1820 -0.6183
  623MOL0     C84026  -0.001   4.443   6.761 -0.6926 -0.0307  0.4051
  623MOL0     C84027   0.095   4.514   6.696  0.2714 -0.2569  0.2388
  623MOL0     O84028   0.071   4.630   6.620  0.2517 -0.0312  0.2865
  623MOL0     C84029  -0.064   4.685   6.606 -0.0632 -0.8626  0.2954
  623MOL0     C84030  -0.059   4.803   6.498 -0.0675  0.5745 -0.9254
  623MOL0     C84031  -0.204   4.854   6.470 -0.7949  0.4933 -0.4042
  623MOL0     C84032  -0.237   4.900   6.320 -0.1963  0.7115 -1.0439
  623MOL0     C84033  -0.172   5.024   6.277  0.2916 -0.1932  0.6456
  623MOL0     C84034  -0.094   5.113   6.257  0.0148 -0.1257 -0.4791
  623MOL0     C84035   0.232   4.465   6.708  0.1340 -0.3623  0.6705
  623MOL0     C84036   0.271   4.344   6.770 -0.3648 -0.4418 -0.1176
  623MOL0     C84037   0.420   4.309   6.786  0.8104 -0.2580  0.7665
  623MOL0     H84038   0.126   3.814   6.846  1.4802 -3.4746  1.0146
  623MOL0     H84039   0.105   3.618   6.975  0.5762 -0.9401  0.3962
  623MOL0     H84040   0.198   3.505   7.171 -0.4948  0.3094  0.0748
  623MOL0     H84041   0.127   3.430   7.306  0.0301  1.5445  0.7096
  623MOL0     H84042   0.022   3.415   7.024  1.9003 -2.4060  0.2931
  623MOL0     H84043  -0.094   3.450   7.148  0.3607 -0.3242  0.5353
  623MOL0     H84044  -0.097   3.211   7.129 -1.1951  1.6545  2.6376
  623MOL0     H84045  -0.018   3.253   7.280  2.9163  0.8307  0.5386
  623MOL0     H84046   0.136   3.196   7.024 -2.3143 -1.9378  0.0815
  623MOL0     H84047   0.208   3.230   7.184  1.9431 -2.6858 -0.6506
  623MOL0     H84048   0.140   3.021   7.282 -2.6494 -1.4255 -0.3273
  623MOL0     H84049   0.066   2.977   7.128  2.4713 -0.2830 -3.9470
  623MOL0     H84050   0.251   2.873   7.116 -1.8849 -0.0412 -0.4989
  623MOL0     H84051   0.259   2.997   6.997 -1.9705  0.4782  0.6567
  623MOL0     H84052   0.409   3.007   7.271 -0.9579 -1.6971 -0.8733
  623MOL0     H84053   0.387   3.148   7.168  0.3763  0.4396  1.2046
  623MOL0     H84054   0.532   2.883   7.084 -0.2458  0.3418 -0.6830
  623MOL0     H84055   0.499   3.015   6.973 -1.4065 -1.2020 -1.0933
  623MOL0     H84056   0.752   2.915   7.207 -0.4948 -0.8568 -1.3679
  623MOL0     H84057   0.998   3.019   7.232  2.4041  1.5014  1.9414
  623MOL0     H84058   0.997   3.175   7.134  0.4321 -2.4449 -1.3608
  623MOL0     H84059   0.948   3.299   7.325  2.2652  1.1760  0.7445
  623MOL0     H84060   0.935   3.159   7.439  0.6725 -1.8229 -0.4084
  623MOL0     H84061   1.204   3.225   7.299  0.6058 -1.7662  0.1843
  623MOL0     H84062   1.187   3.136   7.440  2.6788 -0.1324 -3.2506
  623MOL0     H84063   1.083   3.361   7.542  1.6735 -1.7578  0.6072
  623MOL0     H84064   1.125   3.432   7.389 -2.2443 -3.1044 -1.7621
  623MOL0     H84065   1.168   3.236   7.698 -0.6902  0.9962 -0.2036
  623MOL0     H84066   1.272   3.153   7.898 -1.9912  1.1293 -0.8084
  623MOL0     H84067   1.626   3.177   8.265 -0.8960 -1.1477 -0.3246
  623MOL0     H84068   1.795   3.095   8.413 -2.7657 -0.3276 -0.9171
  623MOL0     H84069   2.155   2.895   8.378 -0.8723 -0.0820  0.8686
  623MOL0     H84070   2.115   2.929   8.215 -0.4507 -1.9152  0.4215
  623MOL0     H84071   2.265   3.108   8.203 -3.1030  0.0818  0.2735
  623MOL0     H84072   2.318   3.100   8.368 -2.4143  2.7479 -0.4365
  623MOL0     H84073   2.342   2.861   8.193 -0.1376 -0.8831  2.9094
  623MOL0     H84074   2.476   2.990   8.205 -2.0503  2.8516 -1.0775
  623MOL0     H84075   2.374   2.788   8.398 -2.9827  1.6447  0.2690
  623MOL0     H84076   2.404   2.930   8.480 -0.3723 -0.2362 -0.6993
  623MOL0     H84077   2.617   2.833   8.501  0.4547 -0.8222  0.0706
  623MOL0     H84078   2.651   2.935   8.365 -0.0398 -0.2805  0.0596
  623MOL0     H84079   2.586   2.645   8.388 -3.2667 -0.1742 -0.8010
  623MOL0     H84080   2.566   2.713   8.225  1.4383  2.8836 -0.1887
  623MOL0     H84081   2.793   2.603   8.242  1.0326 -0.3969  0.7606
  623MOL0     H84082   2.832   2.707   8.363 -0.3196 -1.0333 -1.2811
  623MOL0     H84083   2.738   2.809   8.091 -0.6126 -0.6080  0.5701
  623MOL0     H84084   2.803   2.913   8.207 -4.3830 -0.5689 -0.9578
  623MOL0     H84085   2.089   3.176   8.116  1.3069 -2.0458  0.0793
  623MOL0     H84086   1.912   3.218   7.944 -0.8293 -2.7547 -0.7333
  623MOL0     H84087   1.609   3.421   7.815  3.8697 -3.6451  0.6340
  623MOL0     H84088   1.504   3.475   7.603 -0.9018  1.2949  1.5161
  623MOL0     H84089   0.005   3.853   7.317  3.4416  1.0053  0.6018
  623MOL0     H84090   0.014   4.056   7.166 -0.9179  1.0338 -2.6648
  623MOL0     H84091  -0.055   4.273   6.871 -2.4050 -0.2663 -2.7830
  623MOL0     H84092  -0.104   4.475   6.753 -1.0598 -1.2366  0.1988
  623MOL0     H84093  -0.092   4.735   6.699  0.1711  1.4940 -0.8219
  623MOL0     H84094  -0.137   4.608   6.583  0.6910 -1.2711 -0.8139
  623MOL0     H84095  -0.016   4.765   6.405  0.4249  0.8829 -0.8283
  623MOL0     H84096   0.003   4.889   6.523  1.5769 -0.6667 -0.5027
  623MOL0     H84097  -0.214   4.939   6.538  0.4205 -0.0789  0.5282
  623MOL0     H84098  -0.270   4.775   6.505  1.5208 -0.2942  2.6078
  623MOL0     H84099  -0.213   4.818   6.251 -1.4882 -2.0620  1.5529
  623MOL0     H84100  -0.345   4.915   6.317 -0.6776 -2.1708 -0.9499
  623MOL0     H84101  -0.022   5.191   6.250  1.0578 -1.1084 -1.0669
  623MOL0     H84102   0.300   4.534   6.658 -0.3388  1.4127  2.3436
  623MOL0     H84103   0.452   4.312   6.891  0.9765  0.4894  0.6996
  623MOL0     H84104   0.448   4.213   6.740  1.4724  0.4114 -0.2663
  623MOL0     H84105   0.478   4.368   6.715 -0.9614 -0.5159 -0.9870
  624MOL0     O84106   0.687   2.837   1.196  0.0759 -0.0032  1.0278
  624MOL0     C84107   0.647   2.950   1.178 -0.3000  0.0190  0.0697
  624MOL0     O84108   0.733   3.056   1.180 -0.2794 -0.0430  0.0186
  624MOL0     C84109   0.865   3.022   1.165  0.5512  0.0334 -0.0777
  624MOL0     C84110   0.938   3.000   1.282 -0.9050 -0.4423  0.0863
  624MOL0     C84111   1.066   2.942   1.263 -0.4153 -0.2115 -0.2192
  624MOL0     C84112   1.127   2.925   1.136 -0.9617  0.3087  0.3222
  624MOL0     O84113   1.254   2.888   1.110 -0.9754  0.0278 -0.7254
  624MOL0     C84114   1.356   2.934   1.203 -0.1174  0.2150 -0.0877
  624MOL0     C84115   1.486   2.893   1.133 -0.3274  0.7904 -0.0041
  624MOL0     C84116   1.610   2.895   1.229 -0.1834 -0.1940 -0.0393
  624MOL0     C84117   1.725   2.831   1.156  0.1822 -0.7365 -0.6253
  624MOL0     C84118   1.848   2.801   1.245  0.1179  0.1809 -0.3638
  624MOL0     C84119   1.950   2.734   1.165  0.2553 -0.9671  0.1533
  624MOL0     C84120   2.078   2.689   1.245 -0.2757  0.7949  0.2031
  624MOL0     C84121   2.139   2.808   1.328  0.2989  0.3397 -0.0031
  624MOL0     N84122   2.286   2.790   1.336 -0.6378 -0.5320 -0.4348
  624MOL0     C84123   2.372   2.896   1.293  0.7632  0.0889  1.1419
  624MOL0     C84124   2.505   2.846   1.308  1.0720 -0.2193 -1.2012
  624MOL0     C84125   2.636   2.913   1.277 -0.4125 -0.3261 -0.9449
  624MOL0     C84126   2.717   2.831   1.176 -0.1526 -0.4838 -0.0983
  624MOL0     C84127   2.845   2.910   1.146 -0.5506  0.2205  0.4598
  624MOL0     C84128   2.949   2.833   1.044  0.8155  0.2661  0.1267
  624MOL0     O84129   3.084   2.883   1.047 -0.0869  0.6924 -0.5286
  624MOL0     C84130   3.185   2.798   1.008  0.5873  0.4003  0.0299
  624MOL0     C84131   3.168   2.677   0.937  0.0549  0.4924  0.2098
  624MOL0     C84132   3.277   2.594   0.901 -1.2851 -0.1009  0.5724
  624MOL0     C84133   3.408   2.623   0.948 -0.1797  0.3211 -0.7795
  624MOL0     C84134   3.519   2.525   0.927 -0.0992  1.3042  0.6758
  624MOL0     O84135   3.640   2.551   0.979 -0.6440  0.3721 -0.5356
  624MOL0     C84136   3.742   2.481   0.925 -0.3323  0.2388  0.3984
  624MOL0     C84137   3.836   2.531   0.838  0.8547  0.6133 -0.1404
  624MOL0     C84138   3.947   2.460   0.790 -0.1326 -0.7147 -0.1366
  624MOL0     C84139   3.970   2.329   0.833 -0.5605  0.5715  0.2796
  624MOL0     O84140   4.079   2.250   0.820  0.4350 -0.0113 -0.0745
  624MOL0     C84141   4.205   2.314   0.829  0.0131  0.6728 -0.4179
  624MOL0     C84142   4.285   2.218   0.913  0.2424 -0.5384  0.3865
  624MOL0     C84143   4.335   2.094   0.837  0.2210 -0.0977 -0.9626
  624MOL0     C84144   4.437   2.009   0.927  0.7811  0.2760  0.1746
  624MOL0     C84145   4.504   1.892   0.849  0.0067  0.3503 -0.0963
  624MOL0     C84146   4.592   1.921   0.726 -0.7184 -0.7034 -0.4254
  624MOL0     C84147   4.719   1.992   0.764 -0.1751 -0.7013  0.6430
  624MOL0     C84148   4.802   1.924   0.879  0.6006 -0.1512  0.0437
  624MOL0    Cl84149   4.858   1.766   0.808  0.0349 -0.5283 -0.0820
  624MOL0     C84150   3.857   2.274   0.899  0.1422 -0.0935  0.7107
  624MOL0     C84151   3.755   2.348   0.959  0.5893  0.7606  1.0386
  624MOL0     O84152   3.491   2.428   0.851  1.1379 -0.5718 -0.1099
  624MOL0     C84153   3.419   2.736   1.031 -0.1101  0.0317  0.1112
  624MOL0     C84154   3.308   2.818   1.067  0.3465 -0.0021  0.2889
  624MOL0     N84155   2.485   2.724   1.368 -0.2204  0.6845  0.4084
  624MOL0     N84156   2.357   2.682   1.375 -0.0908 -0.3479 -0.1752
  624MOL0     C84157   1.049   2.961   1.022 -0.2535  0.1644  0.3422
  624MOL0     C84158   0.919   2.987   1.035 -0.1217 -0.0714 -0.1027
  624MOL0     C84159   0.503   2.963   1.163  0.1486 -0.0407 -0.1167
  624MOL0     C84160   0.421   2.858   1.181  0.6342  0.1301 -0.8016
  624MOL0     C84161   0.283   2.875   1.170  0.6755  0.3306  0.2532
  624MOL0     C84162   0.222   2.997   1.152  0.2629 -0.1172 -0.3588
  624MOL0     O84163   0.086   3.003   1.154 -0.6790 -0.1220  0.3030
  624MOL0     C84164   0.021   3.129   1.158  0.1071  0.0159 -0.5986
  624MOL0     C84165  -0.126   3.094   1.196  0.0419 -0.2925 -0.2416
  624MOL0     C84166  -0.197   3.020   1.083  0.3165 -0.7252 -0.1501
  624MOL0     C84167  -0.314   2.930   1.126 -0.7958 -1.0293 -0.3419
  624MOL0     C84168  -0.380   2.899   1.006 -0.3220  0.9277 -0.4491
  624MOL0     C84169  -0.415   2.868   0.895 -0.4417 -0.1881  0.7362
  624MOL0     C84170   0.303   3.104   1.122  0.8423  0.4277 -0.6965
  624MOL0     C84171   0.444   3.088   1.121  0.4272  0.2647 -0.4280
  624MOL0     C84172   0.511   3.221   1.078  0.9072 -0.1860  0.0324
  624MOL0     H84173   0.901   3.029   1.380 -1.4891 -1.2370  0.1155
  624MOL0     H84174   1.126   2.914   1.349  3.0572 -2.4973 -3.0800
  624MOL0     H84175   1.363   3.042   1.221  1.0359  0.2787 -0.8209
  624MOL0     H84176   1.350   2.890   1.303 -0.3659  0.6537  0.0957
  624MOL0     H84177   1.496   2.957   1.045  0.2574 -1.6977 -1.8471
  624MOL0     H84178   1.472   2.792   1.093 -1.7736  1.5359 -1.5223
  624MOL0     H84179   1.594   2.839   1.322 -3.3296 -0.6009 -0.7209
  624MOL0     H84180   1.641   2.998   1.246  0.4917 -0.3027 -0.5587
  624MOL0     H84181   1.686   2.735   1.120  2.4232 -2.6792  1.7120
  624MOL0     H84182   1.746   2.903   1.076 -2.4889  0.3055 -0.5100
  624MOL0     H84183   1.885   2.893   1.293 -0.2250  0.0947  0.0758
  624MOL0     H84184   1.822   2.730   1.324  4.6834  0.7436  2.0214
  624MOL0     H84185   1.913   2.653   1.102 -3.4580  0.7079 -0.0439
  624MOL0     H84186   1.981   2.802   1.085  1.9365 -0.1453  1.4421
  624MOL0     H84187   2.150   2.628   1.190  0.0389  0.9502  0.4398
  624MOL0     H84188   2.049   2.623   1.329  3.4725 -1.5293 -0.1077
  624MOL0     H84189   2.111   2.895   1.268  0.2587  0.5339  0.2936
  624MOL0     H84190   2.093   2.822   1.427  0.5804  2.5153 -0.1172
  624MOL0     H84191   2.355   2.989   1.241  0.1643 -0.3952  0.4474
  624MOL0     H84192   2.627   3.016   1.239 -0.2721 -0.4035 -1.1927
  624MOL0     H84193   2.691   2.918   1.371  0.8411  2.7188 -1.7108
  624MOL0     H84194   2.738   2.731   1.215  3.3217  0.5911  1.1048
  624MOL0     H84195   2.651   2.816   1.090 -1.2036  0.4317  0.5168
  624MOL0     H84196   2.897   2.932   1.240 -1.5857  0.1972  1.0538
  624MOL0     H84197   2.822   3.007   1.101 -0.1826  0.6932  1.2484
  624MOL0     H84198   2.917   2.838   0.939  3.3612 -0.2485 -0.7459
  624MOL0     H84199   2.948   2.728   1.072  1.9505  0.4364  0.9001
  624MOL0     H84200   3.069   2.642   0.910 -0.1088  0.3890  0.9286
  624MOL0     H84201   3.257   2.509   0.836 -1.4411 -1.1625  1.9546
  624MOL0     H84202   3.819   2.637   0.819  0.7558  0.3639 -1.5098
  624MOL0     H84203   4.005   2.527   0.728 -1.6854 -3.4684 -5.1258
  624MOL0     H84204   4.250   2.346   0.735  3.2194  0.0349  0.7580
  624MOL0     H84205   4.192   2.412   0.876  0.4223  1.1156 -1.1975
  624MOL0     H84206   4.379   2.268   0.941  0.1172  1.0360 -1.7562
  624MOL0     H84207   4.232   2.195   1.006 -0.9289  0.5190  0.0148
  624MOL0     H84208   4.250   2.029   0.816 -0.3327  0.1523  0.3671
  624MOL0     H84209   4.387   2.131   0.748 -1.4941  1.0216 -1.5597
  624MOL0     H84210   4.392   1.966   1.016 -1.7253 -1.7496 -1.9314
  624MOL0     H84211   4.526   2.070   0.947  2.2850 -1.2545 -1.5282
  624MOL0     H84212   4.434   1.825   0.797  0.5126 -0.7299  0.5740
  624MOL0     H84213   4.565   1.831   0.917  3.2003  1.6728 -1.6160
  624MOL0     H84214   4.613   1.822   0.682  1.3766 -0.4785 -0.0484
  624MOL0     H84215   4.540   1.982   0.651  2.1617 -0.6035 -2.5280
  624MOL0     H84216   4.698   2.097   0.786  0.1235  0.1266 -2.5340
  624MOL0     H84217   4.791   1.990   0.682  2.4959 -0.7428  2.8407
  624MOL0     H84218   4.885   1.992   0.900  0.5891 -0.6085  1.7351
  624MOL0     H84219   4.749   1.907   0.974 -3.6561  2.1931 -1.6300
  624MOL0     H84220   3.867   2.174   0.940 -0.7012 -0.1901  0.6882
  624MOL0     H84221   3.697   2.311   1.043  0.8868 -1.4482  0.3406
  624MOL0     H84222   3.514   2.770   1.070 -0.4776  2.2478 -0.7727
  624MOL0     H84223   3.317   2.906   1.130  2.5540 -1.3321  1.9866
  624MOL0     H84224   1.102   2.928   0.933 -3.9663 -3.5234 -0.8137
  624MOL0     H84225   0.844   3.001   0.957  0.0675  1.6995 -0.0212
  624MOL0     H84226   0.451   2.755   1.192  1.2260  0.3648 -0.1624
  624MOL0     H84227   0.224   2.783   1.168 -1.7814  1.6538  3.2272
  624MOL0     H84228   0.033   3.185   1.065 -0.6013  0.2886 -0.5330
  624MOL0     H84229   0.063   3.190   1.239 -2.1972  1.0937 -0.1396
  624MOL0     H84230  -0.192   3.178   1.220  0.2041 -0.3765  0.5280
  624MOL0     H84231  -0.113   3.028   1.282  1.1335  1.3409  0.9034
  624MOL0     H84232  -0.123   2.959   1.030  1.1624  0.6666 -0.6054
  624MOL0     H84233  -0.231   3.087   1.005  1.4716 -0.1777 -0.2029
  624MOL0     H84234  -0.277   2.835   1.167 -0.9887 -0.4692  1.2182
  624MOL0     H84235  -0.383   2.982   1.193  1.3149  0.1702  1.0518
  624MOL0     H84236  -0.441   2.830   0.798 -1.4819  0.8704  0.5785
  624MOL0     H84237   0.256   3.201   1.104  0.0463  0.9236  3.1607
  624MOL0     H84238   0.513   3.278   1.171 -0.0950 -1.2498  0.7385
  624MOL0     H84239   0.612   3.214   1.038  0.1461 -0.0768 -1.9993
  624MOL0     H84240   0.451   3.274   1.004 -0.0070  2.3967  2.4344
  625MOL0     O84241   5.962   3.474  10.184  0.2756  0.6493 -0.0260
  625MOL0     C84242   5.893   3.560  10.132  0.4806 -0.3002 -0.6554
  625MOL0     O84243   5.909   3.620  10.013  0.1444 -0.4025  0.2019
  625MOL0     C84244   5.998   3.553   9.933  0.3221  0.6109  0.6642
  625MOL0     C84245   6.139   3.562   9.955  0.0817 -0.1792  1.1159
  625MOL0     C84246   6.232   3.505   9.858 -0.7319  0.3808 -1.2109
  625MOL0     C84247   6.176   3.436   9.747 -0.2240 -0.4840 -0.3272
  625MOL0     O84248   6.254   3.394   9.644  0.7257 -0.0122 -0.6623
  625MOL0     C84249   6.396   3.404   9.658  0.5064  0.2027  0.3052
  625MOL0     C84250   6.466   3.381   9.521 -0.5622  0.0876 -0.4860
  625MOL0     C84251   6.625   3.359   9.539  0.4902 -0.0044  0.2226
  625MOL0     C84252   6.690   3.435   9.424 -0.2880 -0.3512  0.3243
  625MOL0     C84253   6.840   3.421   9.429 -0.0729  0.1968 -0.7423
  625MOL0     C84254   6.902   3.472   9.297  0.4128  0.4943  0.0979
  625MOL0     C84255   7.052   3.437   9.279  0.3984  0.1270  0.0879
  625MOL0     C84256   7.124   3.510   9.161  0.0415 -0.1132 -0.5958
  625MOL0     N84257   7.274   3.494   9.168  0.5791 -0.4509  0.2563
  625MOL0     C84258   7.347   3.511   9.055 -0.4553 -0.4645 -0.0891
  625MOL0     C84259   7.477   3.506   9.097 -0.0079 -0.0142  0.4232
  625MOL0     C84260   7.592   3.518   9.015 -1.1384 -0.0430  1.1784
  625MOL0     C84261   7.703   3.416   9.053  0.0831  0.1415 -0.4424
  625MOL0     C84262   7.823   3.445   8.971  0.1473 -0.2846 -0.1886
  625MOL0     C84263   7.934   3.351   9.006  0.1482  0.4649 -1.2417
  625MOL0     O84264   8.017   3.412   9.107  1.0138 -0.1933 -0.4883
  625MOL0     C84265   8.146   3.411   9.098 -0.2269  0.1546  0.4501
  625MOL0     C84266   8.210   3.513   9.173  0.3459 -0.3805  0.2086
  625MOL0     C84267   8.347   3.526   9.162  0.0039  0.6338  0.4245
  625MOL0     C84268   8.429   3.439   9.087 -0.0123 -1.3566 -0.3826
  625MOL0     C84269   8.573   3.460   9.070  0.9435  0.2994  0.1533
  625MOL0     O84270   8.633   3.386   8.968 -0.1557 -0.0602 -0.6321
  625MOL0     C84271   8.768   3.386   8.950  0.6872 -0.0915 -0.5004
  625MOL0     C84272   8.869   3.458   9.007 -0.2666  0.1987  0.4593
  625MOL0     C84273   9.004   3.435   8.963 -0.1585 -0.3376 -0.0031
  625MOL0     C84274   9.043   3.332   8.868 -0.3414 -0.3581 -0.7871
  625MOL0     O84275   9.174   3.298   8.840 -0.3041  0.1828  0.0041
  625MOL0     C84276   9.284   3.384   8.880 -2.0953 -0.0732  0.4290
  625MOL0     C84277   9.413   3.304   8.848  0.0874 -0.0388  0.6269
  625MOL0     C84278   9.448   3.290   8.697  0.0910 -0.1097  0.2860
  625MOL0     C84279   9.573   3.199   8.672 -0.2173  0.2875 -0.5596
  625MOL0     C84280   9.544   3.058   8.713 -0.0381  0.7661 -0.3370
  625MOL0     C84281   9.628   2.951   8.631 -0.6198 -0.2550 -1.0717
  625MOL0     C84282   9.613   2.815   8.684  0.2268  0.5977  0.3953
  625MOL0     C84283   9.681   2.712   8.607  0.6028 -0.1671  0.0631
  625MOL0    Cl84284   9.852   2.746   8.604  0.2401 -0.0394  0.2081
  625MOL0     C84285   8.937   3.263   8.817  0.0802  0.8804 -0.1826
  625MOL0     C84286   8.803   3.292   8.851 -0.3524  0.0041  0.5077
  625MOL0     O84287   8.629   3.561   9.125 -0.2070  0.4219 -0.3452
  625MOL0     C84288   8.368   3.342   9.018  0.5325 -0.4000 -0.1957
  625MOL0     C84289   8.226   3.328   9.020  0.0206 -0.5984  0.2959
  625MOL0     N84290   7.473   3.495   9.240  0.1263  0.1588  0.3048
  625MOL0     N84291   7.352   3.485   9.280 -0.4624  0.4522 -0.1144
  625MOL0     C84292   6.040   3.424   9.731  0.4002 -0.1805  0.3613
  625MOL0     C84293   5.949   3.482   9.822  0.6146  0.4094 -0.1111
  625MOL0     C84294   5.756   3.593  10.200 -0.6958  0.1884  0.3429
  625MOL0     C84295   5.656   3.617  10.104 -0.5536  0.3095 -0.7601
  625MOL0     C84296   5.522   3.621  10.127 -0.0456 -0.0848  0.4206
  625MOL0     C84297   5.482   3.631  10.264  0.1687 -0.0557  0.5467
  625MOL0     O84298   5.350   3.642  10.300  0.4373  0.7505  0.2602
  625MOL0     C84299   5.255   3.552  10.232  1.1768 -0.7843  0.3936
  625MOL0     C84300   5.118   3.575  10.301 -0.0679 -0.5948 -0.3897
  625MOL0     C84301   5.112   3.525  10.442  0.0981  0.0504 -0.0338
  625MOL0     C84302   5.127   3.370  10.452 -0.7606  0.4638  0.0606
  625MOL0     C84303   5.118   3.324  10.595  0.6286  0.4014  0.1468
  625MOL0     C84304   5.126   3.271  10.704  0.1817  0.1317  0.7445
  625MOL0     C84305   5.578   3.606  10.367  0.6238 -0.6562  0.3780
  625MOL0     C84306   5.717   3.586  10.338 -0.0847 -0.2064  0.7699
  625MOL0     C84307   5.813   3.549  10.452 -0.3036 -0.3296  0.0214
  625MOL0     H84308   6.171   3.637  10.028 -0.5653  0.0021  1.2220
  625MOL0     H84309   6.336   3.526   9.879 -0.8167 -0.2108 -0.1071
  625MOL0     H84310   6.435   3.501   9.689  1.8205  0.6608 -2.4579
  625MOL0     H84311   6.435   3.327   9.726  1.1402  1.7144  1.7247
  625MOL0     H84312   6.433   3.449   9.441  0.3382  0.5233 -0.5121
  625MOL0     H84313   6.436   3.287   9.475  0.9103 -0.5981 -0.1154
  625MOL0     H84314   6.655   3.254   9.549  0.2009  0.0294  1.5170
  625MOL0     H84315   6.658   3.406   9.632  0.9418 -0.8344  0.4952
  625MOL0     H84316   6.658   3.407   9.323  3.3474  1.8950 -1.6980
  625MOL0     H84317   6.672   3.543   9.432 -2.7591 -0.4843 -1.8777
  625MOL0     H84318   6.890   3.480   9.506  2.5030 -0.6336 -1.6857
  625MOL0     H84319   6.860   3.314   9.444  3.4865  0.8205 -0.2344
  625MOL0     H84320   6.846   3.420   9.219 -0.3328 -0.3205  1.1465
  625MOL0     H84321   6.893   3.581   9.292 -0.4758  0.4077 -0.3739
  625MOL0     H84322   7.067   3.329   9.283  1.6777  0.3137  2.3560
  625MOL0     H84323   7.083   3.477   9.377  0.2874  0.0606  0.1495
  625MOL0     H84324   7.089   3.460   9.070  1.8893 -1.2013 -0.7539
  625MOL0     H84325   7.095   3.616   9.159  0.6040  0.0353 -1.1090
  625MOL0     H84326   7.312   3.518   8.953  2.1858  0.0690 -1.0401
  625MOL0     H84327   7.557   3.510   8.911  1.1252 -1.9905  0.4632
  625MOL0     H84328   7.630   3.621   9.023 -0.2988  0.0264 -2.0814
  625MOL0     H84329   7.717   3.432   9.160 -3.6835 -0.6357  0.3086
  625MOL0     H84330   7.673   3.312   9.036  2.3203 -1.3609  3.4682
  625MOL0     H84331   7.861   3.547   8.985  0.3779 -0.1253 -1.8115
  625MOL0     H84332   7.807   3.433   8.864 -1.2220 -0.8088  0.0510
  625MOL0     H84333   7.995   3.339   8.915  2.2126 -0.3040  0.1724
  625MOL0     H84334   7.897   3.251   9.029 -1.8220  1.1516 -1.2214
  625MOL0     H84335   8.148   3.578   9.235 -1.7861 -0.8492 -1.3060
  625MOL0     H84336   8.403   3.611   9.199 -0.1700  1.9355 -2.0691
  625MOL0     H84337   8.848   3.531   9.084 -0.3877 -1.8534  2.4856
  625MOL0     H84338   9.090   3.480   9.011  0.0211 -0.6330 -0.0455
  625MOL0     H84339   9.288   3.480   8.829  0.8701 -0.0164  0.6381
  625MOL0     H84340   9.297   3.413   8.985  2.2308  2.8987 -0.6734
  625MOL0     H84341   9.497   3.357   8.894  1.0859 -1.4687  0.5316
  625MOL0     H84342   9.392   3.208   8.896  0.8866  0.1136  1.2930
  625MOL0     H84343   9.358   3.249   8.651  0.1994 -1.4585  1.2341
  625MOL0     H84344   9.480   3.388   8.659  2.5819  0.4569  3.4600
  625MOL0     H84345   9.653   3.246   8.732 -1.0902 -2.5725  3.2399
  625MOL0     H84346   9.589   3.206   8.564 -2.1698 -0.7419 -0.9504
  625MOL0     H84347   9.440   3.028   8.695  0.3554  0.0677 -1.5549
  625MOL0     H84348   9.557   3.043   8.821 -1.7076 -2.9484 -0.5089
  625MOL0     H84349   9.599   2.952   8.526 -5.0129 -2.1773 -0.1007
  625MOL0     H84350   9.733   2.980   8.642 -0.7941  0.3653 -1.0102
  625MOL0     H84351   9.506   2.792   8.683 -0.8566  4.7918  1.0744
  625MOL0     H84352   9.655   2.824   8.785 -3.0095  1.6040  1.7769
  625MOL0     H84353   9.657   2.611   8.643  0.5911 -0.1725  0.0413
  625MOL0     H84354   9.634   2.722   8.508 -1.0704 -0.7122  0.7627
  625MOL0     H84355   8.963   3.186   8.745  0.9649  2.0083 -1.1208
  625MOL0     H84356   8.726   3.240   8.795  0.6457 -1.3223  0.3070
  625MOL0     H84357   8.421   3.264   8.964 -0.8532 -1.4876 -0.0586
  625MOL0     H84358   8.168   3.248   8.975 -3.4447  1.2997  0.9913
  625MOL0     H84359   5.999   3.360   9.653 -1.0567 -0.7134  1.5108
  625MOL0     H84360   5.841   3.490   9.815  0.5723 -1.0989 -1.7565
  625MOL0     H84361   5.681   3.627   9.999 -0.5744 -4.2796 -1.3799
  625MOL0     H84362   5.468   3.628  10.034  0.3143 -0.9931  0.1298
  625MOL0     H84363   5.278   3.446  10.249  0.2628 -0.5896  3.6870
  625MOL0     H84364   5.250   3.572  10.125 -0.1115  0.6470  0.6943
  625MOL0     H84365   5.046   3.531  10.232 -0.7309 -1.2024  0.6734
  625MOL0     H84366   5.080   3.677  10.299  0.3180 -0.3794  1.3676
  625MOL0     H84367   5.020   3.561  10.488 -0.5292 -1.6205  0.0726
  625MOL0     H84368   5.199   3.566  10.495  1.2045 -1.0831 -0.8889
  625MOL0     H84369   5.069   3.301  10.390  0.3268 -0.5442  0.1180
  625MOL0     H84370   5.229   3.338  10.425 -0.7218 -1.9791  2.5930
  625MOL0     H84371   5.143   3.221  10.797  1.2711 -0.2046  0.3755
  625MOL0     H84372   5.538   3.607  10.468  0.5899 -1.5697  0.3743
  625MOL0     H84373   5.758   3.560  10.546 -0.0363 -1.7853  0.3793
  625MOL0     H84374   5.844   3.445  10.438  1.9758  0.0259  1.9306
  625MOL0     H84375   5.906   3.605  10.450 -0.3291 -0.1143  2.2423
  626MOL0     O84376   9.756   8.146   3.003  0.6521 -0.3433  0.5640
  626MOL0     C84377   9.755   8.226   2.913 -0.5658 -0.0366  0.6649
  626MOL0     O84378   9.825   8.211   2.795  0.6283  0.1324 -0.4793
  626MOL0     C84379   9.918   8.109   2.790 -0.7247  0.0557  0.6538
  626MOL0     C84380  10.040   8.138   2.854  1.4709 -0.4495 -0.1101
  626MOL0     C84381  10.144   8.045   2.845  0.3440  0.2110 -0.9492
  626MOL0     C84382  10.140   7.919   2.770  0.8337 -0.5804 -0.2453
  626MOL0     O84383  10.251   7.838   2.771  0.1847 -0.5102  0.0407
  626MOL0     C84384  10.243   7.718   2.691  0.1650  0.9074  0.4998
  626MOL0     C84385  10.378   7.652   2.662  0.1147  0.0681  0.6309
  626MOL0     C84386  10.473   7.752   2.602  0.6069 -0.2702 -0.6444
  626MOL0     C84387  10.614   7.691   2.597  0.1814 -0.1835  0.1679
  626MOL0     C84388  10.696   7.775   2.500 -0.3271  0.5614 -0.0255
  626MOL0     C84389  10.837   7.724   2.506 -0.5898  1.0228 -0.0726
  626MOL0     C84390  10.929   7.796   2.413 -0.7076  0.2874  0.4048
  626MOL0     C84391  11.064   7.742   2.427  0.2281  0.0110 -0.0714
  626MOL0     N84392  11.162   7.817   2.348  0.2483 -0.3326 -0.5075
  626MOL0     C84393  11.295   7.783   2.329  0.5225 -0.2195  0.1152
  626MOL0     C84394  11.341   7.858   2.223  0.3105  0.0684 -0.7029
  626MOL0     C84395  11.476   7.848   2.168  0.1811  0.7550 -0.5986
  626MOL0     C84396  11.498   7.970   2.076 -0.1892 -0.7775  0.4373
  626MOL0     C84397  11.641   7.979   2.034 -1.1736 -0.3890  0.8769
  626MOL0     C84398  11.654   8.073   1.908  0.5116 -0.2087 -0.0655
  626MOL0     O84399  11.781   8.074   1.853 -0.2790  0.0640 -0.3978
  626MOL0     C84400  11.891   8.111   1.937  0.8508 -0.3234 -0.0159
  626MOL0     C84401  12.016   8.078   1.895 -0.2156  0.2587 -0.2484
  626MOL0     C84402  12.129   8.099   1.985  0.5559  0.1934  0.7392
  626MOL0     C84403  12.120   8.182   2.092 -0.3490  0.1886 -0.3060
  626MOL0     C84404  12.235   8.229   2.174 -0.3737 -0.2450 -0.7862
  626MOL0     O84405  12.358   8.183   2.129 -0.5727 -0.6700  0.0242
  626MOL0     C84406  12.467   8.210   2.201  0.0699  0.0634  0.4715
  626MOL0     C84407  12.573   8.253   2.125 -0.0265 -0.7152 -0.3490
  626MOL0     C84408  12.692   8.279   2.185 -0.4452 -0.5838 -0.6514
  626MOL0     C84409  12.710   8.255   2.325 -0.1873  0.4519  0.3630
  626MOL0     O84410  12.820   8.289   2.397  0.0419  0.9297  0.3147
  626MOL0     C84411  12.941   8.321   2.332 -0.1391 -0.0283 -0.0155
  626MOL0     C84412  13.044   8.311   2.448 -0.4336  0.0240 -0.1534
  626MOL0     C84413  13.175   8.295   2.380  0.1725 -0.0327  0.1216
  626MOL0     C84414  13.215   8.151   2.327  0.0087 -0.6741 -1.4978
  626MOL0     C84415  13.352   8.172   2.265 -0.5406 -0.4682  0.8942
  626MOL0     C84416  13.410   8.039   2.216 -0.4929 -0.5303  0.6077
  626MOL0     C84417  13.553   8.058   2.166 -0.2027 -0.3587 -0.3719
  626MOL0     C84418  13.596   7.947   2.075 -0.5842  0.5651 -0.2553
  626MOL0    Cl84419  13.592   7.776   2.143  0.0221 -0.0902 -0.8761
  626MOL0     C84420  12.599   8.198   2.401 -0.1633 -0.7689  0.3682
  626MOL0     C84421  12.482   8.175   2.339  0.3652  0.0395  0.6905
  626MOL0     O84422  12.217   8.304   2.271 -0.0293 -0.0949 -0.2573
  626MOL0     C84423  11.994   8.234   2.122  0.0748  0.1342 -0.9099
  626MOL0     C84424  11.881   8.185   2.053  0.7494  0.6369  0.1550
  626MOL0     N84425  11.233   7.938   2.179 -0.8733  1.0615 -0.5247
  626MOL0     N84426  11.129   7.915   2.252  0.7776 -0.8802 -1.1277
  626MOL0     C84427  10.006   7.895   2.716  0.5953  0.4268 -0.3454
  626MOL0     C84428   9.902   7.988   2.720  0.1099 -0.1703 -0.8840
  626MOL0     C84429   9.664   8.346   2.913 -0.2591 -0.4160  0.0841
  626MOL0     C84430   9.650   8.429   2.794 -0.3675 -0.2499  0.2822
  626MOL0     C84431   9.551   8.530   2.781 -1.0255 -0.4264 -0.7557
  626MOL0     C84432   9.478   8.565   2.891  1.2061  0.1059 -0.2623
  626MOL0     O84433   9.383   8.671   2.887  0.5319  0.1718  0.5165
  626MOL0     C84434   9.248   8.634   2.848 -0.0042  0.1741  0.4645
  626MOL0     C84435   9.177   8.755   2.794  0.5093  0.2782  0.2495
  626MOL0     C84436   9.044   8.709   2.730  0.2064 -0.2672  0.3318
  626MOL0     C84437   8.935   8.687   2.835  0.2639  0.3087 -0.0297
  626MOL0     C84438   8.814   8.652   2.762  0.3544 -1.3766 -0.1475
  626MOL0     C84439   8.716   8.646   2.693 -0.1489  0.3255  0.7661
  626MOL0     C84440   9.492   8.487   3.011  1.3065 -0.3020 -0.3846
  626MOL0     C84441   9.581   8.376   3.025  0.5572  0.0512  0.1344
  626MOL0     C84442   9.578   8.296   3.148 -0.1522  0.8878 -0.0544
  626MOL0     H84443  10.061   8.233   2.901 -2.6537  1.3799 -1.5403
  626MOL0     H84444  10.234   8.071   2.900 -1.2184  2.5187  0.7224
  626MOL0     H84445  10.185   7.642   2.744 -0.2736 -0.9627 -2.4444
  626MOL0     H84446  10.192   7.744   2.598 -1.5971  1.5185  1.5857
  626MOL0     H84447  10.364   7.572   2.588 -2.0878 -0.5461  1.6378
  626MOL0     H84448  10.420   7.605   2.751  0.2702  0.0043  0.5248
  626MOL0     H84449  10.486   7.840   2.666  1.9720  0.6869 -2.1721
  626MOL0     H84450  10.424   7.781   2.509 -0.2616 -1.4197 -0.5762
  626MOL0     H84451  10.661   7.687   2.696 -1.7245 -0.2384  1.1215
  626MOL0     H84452  10.604   7.588   2.563 -0.1162 -1.0033  2.5508
  626MOL0     H84453  10.651   7.773   2.400  0.2361  0.4995 -0.2812
  626MOL0     H84454  10.698   7.881   2.524 -0.6021  0.6538 -0.3969
  626MOL0     H84455  10.877   7.714   2.608 -1.5235 -0.4000  0.1732
  626MOL0     H84456  10.834   7.620   2.473 -0.3577  0.1613  2.4249
  626MOL0     H84457  10.923   7.902   2.441  0.7013  1.0961 -2.0565
  626MOL0     H84458  10.900   7.784   2.308 -2.4697 -0.8623  0.9820
  626MOL0     H84459  11.098   7.757   2.530 -1.5382  2.4607  0.2460
  626MOL0     H84460  11.064   7.639   2.391 -1.4421  0.4418 -1.4531
  626MOL0     H84461  11.352   7.705   2.378  1.2587  1.3773  1.9218
  626MOL0     H84462  11.550   7.844   2.248 -0.1662 -3.5398 -0.2552
  626MOL0     H84463  11.481   7.753   2.114 -1.0204  0.2631  0.1214
  626MOL0     H84464  11.433   7.964   1.988  0.8147  0.0109 -0.3841
  626MOL0     H84465  11.477   8.062   2.132 -1.7744 -2.2091  2.3537
  626MOL0     H84466  11.681   7.883   2.001 -3.4216  0.3146 -5.2115
  626MOL0     H84467  11.712   8.011   2.111  4.7354 -0.0145 -3.9224
  626MOL0     H84468  11.632   8.176   1.939 -2.1432 -0.3888 -1.0098
  626MOL0     H84469  11.586   8.038   1.829 -0.0886 -0.0824  0.3819
  626MOL0     H84470  12.029   8.020   1.804  1.8194  0.5876 -0.2148
  626MOL0     H84471  12.223   8.067   1.941 -0.1096  0.6062 -1.1049
  626MOL0     H84472  12.559   8.265   2.018  1.1135  0.4194 -0.3881
  626MOL0     H84473  12.771   8.329   2.131  0.8198 -0.3322  1.3190
  626MOL0     H84474  12.961   8.239   2.263  1.1245  1.4086 -1.4116
  626MOL0     H84475  12.940   8.419   2.285 -0.0299  0.5232  1.1161
  626MOL0     H84476  13.045   8.388   2.526  1.8814 -3.1951  3.3814
  626MOL0     H84477  13.027   8.221   2.508  4.7111 -0.9513  0.3039
  626MOL0     H84478  13.185   8.364   2.296 -1.3432 -0.7680 -0.6928
  626MOL0     H84479  13.255   8.323   2.449 -1.5725 -0.3990  2.3817
  626MOL0     H84480  13.141   8.110   2.257 -1.8159  1.2574 -0.7967
  626MOL0     H84481  13.228   8.095   2.420  1.0600  3.2073  0.9352
  626MOL0     H84482  13.412   8.212   2.346  1.2863  0.6989 -0.9303
  626MOL0     H84483  13.357   8.249   2.187  0.2700 -0.4340  0.9722
  626MOL0     H84484  13.408   7.971   2.302  2.3703  1.8802  2.8222
  626MOL0     H84485  13.357   7.985   2.137 -0.2168  0.3107 -0.1655
  626MOL0     H84486  13.627   8.067   2.246  1.9891  1.5395 -2.4398
  626MOL0     H84487  13.556   8.155   2.116 -3.6151  0.6402  1.0522
  626MOL0     H84488  13.536   7.958   1.984 -2.4674  1.2926  0.9970
  626MOL0     H84489  13.699   7.959   2.042 -1.1119 -0.0697 -2.2811
  626MOL0     H84490  12.615   8.193   2.508 -1.9478 -0.1285  0.7055
  626MOL0     H84491  12.390   8.150   2.390  0.3664  1.5962  1.4996
  626MOL0     H84492  11.986   8.294   2.212  0.2971  2.1832 -2.1898
  626MOL0     H84493  11.786   8.222   2.091 -0.0867  0.1066 -1.3435
  626MOL0     H84494   9.981   7.804   2.661  0.0260  0.2411  0.2109
  626MOL0     H84495   9.812   7.955   2.670  0.9924 -1.6771 -1.5243
  626MOL0     H84496   9.711   8.407   2.707 -3.5422 -1.7155 -1.7727
  626MOL0     H84497   9.537   8.593   2.693  1.7916  0.5406 -0.6270
  626MOL0     H84498   9.193   8.592   2.933 -2.1158  1.1202 -0.3643
  626MOL0     H84499   9.258   8.554   2.774  1.2595  0.9115 -0.1890
  626MOL0     H84500   9.224   8.811   2.713 -1.2861  1.8937  0.2595
  626MOL0     H84501   9.154   8.817   2.881 -0.9258  0.3491 -0.1497
  626MOL0     H84502   9.050   8.641   2.644  2.4352  1.1003 -0.6962
  626MOL0     H84503   9.005   8.797   2.678  0.5778  0.0533  0.5856
  626MOL0     H84504   8.952   8.606   2.906 -1.4383 -0.4842 -0.4778
  626MOL0     H84505   8.922   8.779   2.894 -0.8883  1.0228 -1.3460
  626MOL0     H84506   8.635   8.638   2.624  1.5217  1.2774 -1.4199
  626MOL0     H84507   9.421   8.511   3.090  0.1263 -1.7263 -0.9713
  626MOL0     H84508   9.532   8.199   3.126 -0.6710  1.2946 -0.8494
  626MOL0     H84509   9.672   8.282   3.202 -0.5966 -0.9505  0.3249
  626MOL0     H84510   9.505   8.324   3.225  2.0763  0.0879  2.4963
  627MOL0     O84511   8.626  11.322   0.094 -0.3914 -0.6613 -0.2784
  627MOL0     C84512   8.539  11.328   0.012  0.6711  0.1993 -0.5861
  627MOL0     O84513   8.561  11.375  -0.122  0.2543 -0.0931  0.0830
  627MOL0     C84514   8.694  11.428  -0.154  0.1191  0.1959  0.6436
  627MOL0     C84515   8.819  11.367  -0.130 -0.7570  0.0332 -0.5755
  627MOL0     C84516   8.935  11.436  -0.136  0.3779  0.1889 -1.1477
  627MOL0     C84517   8.933  11.573  -0.164 -0.4832 -0.2373  0.0034
  627MOL0     O84518   9.042  11.654  -0.152  0.1202 -0.1371 -0.1557
  627MOL0     C84519   9.077  11.680  -0.011 -0.6445  0.2994  0.6050
  627MOL0     C84520   9.209  11.752  -0.004  0.1691 -0.5855  0.5053
  627MOL0     C84521   9.188  11.892  -0.060 -0.2319 -0.3790 -0.7494
  627MOL0     C84522   9.306  11.980  -0.010 -0.3950  0.0622 -0.5768
  627MOL0     C84523   9.300  12.118  -0.076  1.4353  0.1401 -0.5502
  627MOL0     C84524   9.404  12.215  -0.018  0.3751 -0.6748  0.0014
  627MOL0     C84525   9.376  12.270   0.125 -0.5864  0.3565 -0.0187
  627MOL0     C84526   9.263  12.367   0.115  0.0449 -0.5980 -0.8793
  627MOL0     N84527   9.295  12.492   0.051 -0.3575  0.0496 -0.2553
  627MOL0     C84528   9.412  12.571   0.071  0.5806  0.4940 -1.0206
  627MOL0     C84529   9.415  12.660  -0.032 -0.0996  0.4072  0.2231
  627MOL0     C84530   9.524  12.766  -0.068 -0.2678  0.1830 -0.1339
  627MOL0     C84531   9.602  12.707  -0.183 -0.4737 -0.6179 -0.0354
  627MOL0     C84532   9.670  12.570  -0.157  0.2486 -0.3464 -0.6558
  627MOL0     C84533   9.797  12.590  -0.064  0.6706  0.0135  0.1491
  627MOL0     O84534   9.870  12.470  -0.067 -0.1613  0.2809 -0.6805
  627MOL0     C84535   9.998  12.486  -0.106  0.5211 -0.1579 -0.8482
  627MOL0     C84536  10.098  12.531  -0.017  0.6386  0.2631 -0.2307
  627MOL0     C84537  10.232  12.522  -0.060 -0.0487 -0.1799 -0.5686
  627MOL0     C84538  10.269  12.468  -0.186 -0.4988  0.5323  0.6342
  627MOL0     C84539  10.410  12.458  -0.223 -0.4085  1.4157 -0.4776
  627MOL0     O84540  10.490  12.552  -0.152 -0.0443 -0.3137 -0.5054
  627MOL0     C84541  10.620  12.553  -0.196 -0.6965 -0.7342 -0.9338
  627MOL0     C84542  10.708  12.522  -0.093  0.2375  0.0287 -0.3885
  627MOL0     C84543  10.844  12.528  -0.107 -0.3490 -0.0265 -0.0874
  627MOL0     C84544  10.901  12.577  -0.223 -0.1324 -0.9764  0.5359
  627MOL0     O84545  11.035  12.609  -0.243  0.5478 -0.3108  0.3724
  627MOL0     C84546  11.129  12.597  -0.134  0.4228  0.0496 -0.3391
  627MOL0     C84547  11.247  12.677  -0.157 -0.7270 -0.3641 -0.8457
  627MOL0     C84548  11.339  12.706  -0.040 -0.7036  0.9591 -0.7320
  627MOL0     C84549  11.479  12.739  -0.095  0.7780 -0.5064 -0.3113
  627MOL0     C84550  11.592  12.748   0.012  0.6514  0.5664 -0.0333
  627MOL0     C84551  11.725  12.735  -0.054 -0.1588  1.1495 -0.0505
  627MOL0     C84552  11.829  12.764   0.052 -0.6836  0.8283 -1.0155
  627MOL0     C84553  11.970  12.730   0.007 -0.0893 -0.6616  0.0731
  627MOL0    Cl84554  12.088  12.790   0.124  0.2767 -0.2985  0.3470
  627MOL0     C84555  10.813  12.608  -0.334 -0.1618  0.5136  0.0015
  627MOL0     C84556  10.675  12.591  -0.316 -0.0792  0.0031 -0.4534
  627MOL0     O84557  10.455  12.371  -0.304  0.5530  0.6266 -0.0682
  627MOL0     C84558  10.169  12.423  -0.276  1.0162 -0.0608  0.2482
  627MOL0     C84559  10.034  12.425  -0.226  0.1350 -0.0228  1.4430
  627MOL0     N84560   9.313  12.630  -0.121  0.0235  0.1672 -0.0384
  627MOL0     N84561   9.248  12.533  -0.077 -0.3581  0.4732 -0.4618
  627MOL0     C84562   8.812  11.631  -0.198 -0.3106 -0.5665  0.2227
  627MOL0     C84563   8.697  11.555  -0.205 -0.0335  0.8473  0.6459
  627MOL0     C84564   8.397  11.307   0.063  0.4801 -0.9250 -1.0612
  627MOL0     C84565   8.293  11.389   0.014 -0.9368  0.0339 -0.4052
  627MOL0     C84566   8.166  11.361   0.061  0.7789 -0.6200  0.0956
  627MOL0     C84567   8.138  11.258   0.156  0.0911 -0.1554 -0.2616
  627MOL0     O84568   8.014  11.222   0.205  0.3210 -0.0931  0.2819
  627MOL0     C84569   7.892  11.284   0.161  0.4030 -0.0710  1.4258
  627MOL0     C84570   7.763  11.216   0.204  0.1016  0.0222  0.2791
  627MOL0     C84571   7.632  11.261   0.142 -0.4325  0.1162  0.4283
  627MOL0     C84572   7.591  11.393   0.201 -0.3250  0.2418 -0.4816
  627MOL0     C84573   7.455  11.440   0.151 -0.7174  0.1022  0.0104
  627MOL0     C84574   7.338  11.461   0.130 -0.5617 -0.2593 -0.0253
  627MOL0     C84575   8.247  11.191   0.218 -0.0208 -0.0427 -0.0353
  627MOL0     C84576   8.375  11.207   0.165 -0.2149 -0.1395 -0.2791
  627MOL0     C84577   8.481  11.107   0.207  0.6001  0.1989  0.1835
  627MOL0     H84578   8.812  11.265  -0.096 -1.3599  0.6190  1.1888
  627MOL0     H84579   9.030  11.386  -0.120  0.2520  0.8871  2.9708
  627MOL0     H84580   8.996  11.736   0.035 -2.2420 -2.6913  1.6719
  627MOL0     H84581   9.096  11.585   0.040  2.6336  0.0464 -0.7951
  627MOL0     H84582   9.284  11.708  -0.071 -0.1143  1.3362 -1.1696
  627MOL0     H84583   9.239  11.751   0.101  1.0223 -0.5787  0.2653
  627MOL0     H84584   9.093  11.938  -0.030  0.9504 -0.0539  3.0747
  627MOL0     H84585   9.196  11.893  -0.169  1.5773  4.5452 -0.8170
  627MOL0     H84586   9.305  11.997   0.098  0.2572  0.7018 -0.6606
  627MOL0     H84587   9.403  11.932  -0.028 -0.3149 -0.0154  0.0335
  627MOL0     H84588   9.315  12.114  -0.184 -0.3533  0.3219 -0.8348
  627MOL0     H84589   9.204  12.170  -0.067  1.2151 -0.5303  1.9512
  627MOL0     H84590   9.502  12.167  -0.021  1.8457  2.1482 -0.5826
  627MOL0     H84591   9.413  12.299  -0.087  1.4745 -2.1291 -1.7270
  627MOL0     H84592   9.469  12.322   0.148 -1.3269  0.8877  1.9516
  627MOL0     H84593   9.354  12.194   0.201 -3.1333  1.0285 -0.0068
  627MOL0     H84594   9.169  12.338   0.067 -1.7669  1.9331  0.8783
  627MOL0     H84595   9.238  12.388   0.219 -0.0254  0.8510 -1.1778
  627MOL0     H84596   9.473  12.564   0.160 -2.0440  0.2954  0.8934
  627MOL0     H84597   9.485  12.867  -0.087 -0.2712 -0.1769 -2.2094
  627MOL0     H84598   9.591  12.769   0.018 -0.8825 -0.6981  0.3923
  627MOL0     H84599   9.538  12.707  -0.271 -1.3948  2.9000  0.4775
  627MOL0     H84600   9.689  12.766  -0.214  0.8121 -2.2241  0.3915
  627MOL0     H84601   9.698  12.545  -0.260 -0.8657 -0.3660 -0.9586
  627MOL0     H84602   9.609  12.491  -0.113 -0.4868  0.9472  0.7126
  627MOL0     H84603   9.775  12.620   0.038  0.1894  0.4148 -0.0686
  627MOL0     H84604   9.853  12.675  -0.102 -0.5149  1.2313  1.0289
  627MOL0     H84605  10.078  12.565   0.084  0.8608 -0.6631  0.1367
  627MOL0     H84606  10.304  12.561   0.011  0.4305 -1.7538 -0.1471
  627MOL0     H84607  10.670  12.487   0.003  1.3426  0.4303  0.2098
  627MOL0     H84608  10.906  12.496  -0.024  0.5441  0.2719 -0.6194
  627MOL0     H84609  11.077  12.642  -0.049 -0.9802 -3.4623  0.8615
  627MOL0     H84610  11.168  12.502  -0.094  4.8044  1.3890 -0.8999
  627MOL0     H84611  11.305  12.622  -0.232  0.3713 -1.1437  0.5423
  627MOL0     H84612  11.216  12.773  -0.200  0.7191  1.1133  1.2506
  627MOL0     H84613  11.301  12.792   0.017  2.0829  1.0639  1.1518
  627MOL0     H84614  11.337  12.617   0.023  3.0384  1.1373 -0.1690
  627MOL0     H84615  11.470  12.832  -0.152  2.5584  1.6630  2.6736
  627MOL0     H84616  11.505  12.679  -0.183  2.2192  2.0281 -1.7392
  627MOL0     H84617  11.582  12.668   0.086  0.1729 -0.6065 -1.3296
  627MOL0     H84618  11.584  12.842   0.068 -1.2506 -0.7215  1.9981
  627MOL0     H84619  11.731  12.636  -0.099 -1.1526  1.5813 -1.2234
  627MOL0     H84620  11.735  12.799  -0.143  0.6470  1.3630  0.1869
  627MOL0     H84621  11.809  12.720   0.150  0.9748 -0.5296 -1.2386
  627MOL0     H84622  11.842  12.872   0.063  3.8259  0.2612  1.3539
  627MOL0     H84623  11.974  12.622  -0.006 -1.2441 -0.4165 -3.7998
  627MOL0     H84624  11.995  12.771  -0.092  0.8761 -1.9788 -0.2629
  627MOL0     H84625  10.854  12.650  -0.425  2.3846  1.7135  1.5861
  627MOL0     H84626  10.615  12.594  -0.407 -1.2188 -0.5634  0.2626
  627MOL0     H84627  10.202  12.378  -0.370  2.9895  1.2592  0.2516
  627MOL0     H84628   9.953  12.378  -0.282 -0.0564  2.0600 -0.1152
  627MOL0     H84629   8.812  11.731  -0.241 -2.5156 -0.6933 -0.1662
  627MOL0     H84630   8.600  11.591  -0.236 -0.3439 -2.8326 -3.6045
  627MOL0     H84631   8.306  11.468  -0.059 -1.2953 -0.6997 -1.2906
  627MOL0     H84632   8.080  11.417   0.027 -0.4487 -2.5567 -0.1464
  627MOL0     H84633   7.878  11.282   0.052 -2.7286  3.0296  1.6260
  627MOL0     H84634   7.881  11.387   0.196  2.6247 -0.0095  2.1247
  627MOL0     H84635   7.749  11.221   0.313 -0.9218 -1.6648  0.2534
  627MOL0     H84636   7.767  11.110   0.176 -1.0634  0.8872 -3.8898
  627MOL0     H84637   7.553  11.187   0.158 -0.1732  0.0168  1.2741
  627MOL0     H84638   7.644  11.274   0.034 -0.3842  0.9538  0.5282
  627MOL0     H84639   7.582  11.378   0.309 -2.2288  0.6990 -0.5324
  627MOL0     H84640   7.660  11.473   0.174 -1.9147  0.9402 -2.7576
  627MOL0     H84641   7.235  11.493   0.125 -0.7034 -0.8655 -1.2979
  627MOL0     H84642   8.226  11.114   0.291 -0.0689  2.0649  2.3271
  627MOL0     H84643   8.543  11.075   0.122  1.2912 -0.8100  1.0365
  627MOL0     H84644   8.543  11.163   0.277 -0.3808  1.9720 -0.3055
  627MOL0     H84645   8.435  11.018   0.253 -0.0008  0.8075  0.7761
  628MOL0     O84646  10.193   1.089   2.182  0.0104 -0.5010 -0.1467
  628MOL0     C84647  10.121   1.142   2.100 -0.1480  0.5491 -0.7667
  628MOL0     O84648  10.151   1.152   1.966 -0.1188 -0.9967 -0.0675
  628MOL0     C84649  10.277   1.120   1.928 -0.8113  0.3277 -0.1975
  628MOL0     C84650  10.280   1.023   1.829 -0.7313 -0.0733 -0.5237
  628MOL0     C84651  10.405   0.979   1.779  0.8415 -0.2240  0.6300
  628MOL0     C84652  10.526   1.014   1.839  1.0868 -0.0709 -0.4058
  628MOL0     O84653  10.639   0.946   1.807 -1.1986  0.1595  0.3087
  628MOL0     C84654  10.652   0.886   1.681 -0.3624  1.1985  0.3968
  628MOL0     C84655  10.799   0.841   1.668  1.1572 -1.0321 -0.5164
  628MOL0     C84656  10.894   0.952   1.672  0.2001 -0.6120 -0.1802
  628MOL0     C84657  10.906   1.031   1.542 -1.1208 -0.2554  0.2448
  628MOL0     C84658  11.000   1.150   1.546 -0.4343  0.2289 -0.2482
  628MOL0     C84659  11.013   1.213   1.410 -0.0386 -0.0831  0.2672
  628MOL0     C84660  11.112   1.332   1.405  0.3576  0.2546 -0.4866
  628MOL0     C84661  11.252   1.296   1.452 -0.0818 -1.1622  0.5827
  628MOL0     N84662  11.306   1.186   1.379  0.4119 -0.6063 -0.2494
  628MOL0     C84663  11.401   1.102   1.416 -0.0342 -0.2842 -1.0133
  628MOL0     C84664  11.448   1.050   1.302 -0.0228 -0.1173  0.1654
  628MOL0     C84665  11.551   0.946   1.295  0.0711  0.4452  0.3422
  628MOL0     C84666  11.686   0.997   1.349 -0.5661 -1.0504  0.7928
  628MOL0     C84667  11.796   0.992   1.237 -0.4899 -0.3772  0.2762
  628MOL0     C84668  11.946   1.025   1.284 -0.5426 -0.5934 -0.1563
  628MOL0     O84669  11.993   0.933   1.381  0.1414 -0.3372  0.0930
  628MOL0     C84670  12.121   0.953   1.426  1.0595  0.1186  0.1522
  628MOL0     C84671  12.203   1.066   1.395 -0.3213 -0.5372 -0.1789
  628MOL0     C84672  12.331   1.083   1.451 -0.2863  0.6176  0.1727
  628MOL0     C84673  12.389   0.973   1.530  0.0425 -0.4505 -0.1532
  628MOL0     C84674  12.526   0.966   1.585 -0.3304 -0.3680 -0.6085
  628MOL0     O84675  12.574   0.848   1.643  0.1376  0.7550 -0.0253
  628MOL0     C84676  12.683   0.835   1.722  0.3795  0.7379  0.0204
  628MOL0     C84677  12.800   0.915   1.710  0.9174 -0.9409 -0.2094
  628MOL0     C84678  12.912   0.891   1.796  0.6206 -0.6657 -0.1249
  628MOL0     C84679  12.906   0.781   1.886  0.4517 -0.2404  0.0763
  628MOL0     O84680  12.999   0.763   1.981 -0.3612 -0.1132  0.2038
  628MOL0     C84681  13.111   0.857   1.997  0.1913 -0.0862 -0.2299
  628MOL0     C84682  13.154   0.840   2.144 -0.0730  0.1510  0.5488
  628MOL0     C84683  13.287   0.905   2.178 -0.5674  0.1204 -0.1730
  628MOL0     C84684  13.412   0.813   2.146 -0.3029 -0.0212  0.0535
  628MOL0     C84685  13.547   0.869   2.195  0.2527 -0.0491 -0.0626
  628MOL0     C84686  13.629   0.740   2.221 -0.5429 -0.6384  0.4894
  628MOL0     C84687  13.778   0.778   2.190 -0.2545  0.1752  0.6992
  628MOL0     C84688  13.866   0.660   2.196 -0.2762  0.4177 -0.5001
  628MOL0    Cl84689  14.043   0.693   2.184  0.0948 -0.4095  0.5216
  628MOL0     C84690  12.796   0.698   1.886 -0.2768  0.4943 -0.4177
  628MOL0     C84691  12.683   0.729   1.811  0.7324 -0.0195  0.1391
  628MOL0     O84692  12.593   1.065   1.558 -0.2059  0.3988  0.7883
  628MOL0     C84693  12.300   0.871   1.553 -0.2549  0.4268 -0.5930
  628MOL0     C84694  12.169   0.864   1.516 -0.0801  0.4592 -0.6903
  628MOL0     N84695  11.384   1.107   1.197 -0.4900  0.4643  0.3292
  628MOL0     N84696  11.297   1.183   1.240 -0.1998 -0.7288 -0.3074
  628MOL0     C84697  10.518   1.102   1.961 -0.0230  0.5288  0.3856
  628MOL0     C84698  10.397   1.167   1.986  1.2228 -0.0820 -0.9235
  628MOL0     C84699   9.989   1.176   2.153  0.6139 -0.3503  0.5981
  628MOL0     C84700   9.882   1.163   2.063 -0.4524 -0.0992  0.0016
  628MOL0     C84701   9.748   1.178   2.101 -0.3853 -0.4160 -0.1633
  628MOL0     C84702   9.730   1.235   2.233  0.0797 -0.0430 -0.5875
  628MOL0     O84703   9.596   1.256   2.259  0.4694 -0.0109  0.2194
  628MOL0     C84704   9.561   1.293   2.391  0.1260 -0.4081  0.8217
  628MOL0     C84705   9.400   1.284   2.401 -1.2281 -0.5706  0.1887
  628MOL0     C84706   9.358   1.376   2.286 -0.3930 -0.2694  0.6941
  628MOL0     C84707   9.220   1.395   2.253 -0.3733 -0.9051  0.0511
  628MOL0     C84708   9.151   1.276   2.220 -0.5100  0.9576 -0.0326
  628MOL0     C84709   9.095   1.166   2.212 -0.8476  0.3272 -0.2593
  628MOL0     C84710   9.835   1.255   2.326 -0.6009  0.6273  0.1818
  628MOL0     C84711   9.967   1.225   2.286 -0.0063 -0.1460 -0.3327
  628MOL0     C84712  10.081   1.238   2.390 -0.3945  1.2854 -0.8377
  628MOL0     H84713  10.185   0.978   1.804  0.7895 -4.4752  0.6224
  628MOL0     H84714  10.405   0.914   1.693  1.1165 -1.2516  1.3881
  628MOL0     H84715  10.593   0.794   1.682  2.0466 -0.4453 -0.5945
  628MOL0     H84716  10.621   0.954   1.600 -1.0119 -2.1530 -2.4127
  628MOL0     H84717  10.813   0.769   1.587  0.8443 -2.0502  0.3101
  628MOL0     H84718  10.823   0.779   1.755  2.7912  0.2624  0.0015
  628MOL0     H84719  10.986   0.898   1.699  0.8314 -0.5853 -2.1397
  628MOL0     H84720  10.879   1.022   1.755  0.5075  0.9394 -1.3840
  628MOL0     H84721  10.950   0.957   1.473 -1.6466  0.1062 -0.4954
  628MOL0     H84722  10.813   1.049   1.487 -0.9424 -1.0394 -0.3483
  628MOL0     H84723  10.947   1.209   1.622 -0.8867 -0.3557 -0.1030
  628MOL0     H84724  11.096   1.124   1.590  0.4359  1.7537 -1.1463
  628MOL0     H84725  11.046   1.136   1.340  0.3809  0.7337 -0.4614
  628MOL0     H84726  10.913   1.240   1.374 -1.3946 -1.7439  2.5603
  628MOL0     H84727  11.066   1.408   1.468  0.8503 -1.7950  2.5681
  628MOL0     H84728  11.117   1.373   1.304  0.4478  0.0821 -0.5524
  628MOL0     H84729  11.325   1.377   1.440  0.5968 -1.8012  0.2498
  628MOL0     H84730  11.237   1.259   1.554 -0.6220  1.8200  1.6967
  628MOL0     H84731  11.434   1.076   1.515 -0.6357 -0.9450 -0.9729
  628MOL0     H84732  11.526   0.851   1.343 -0.2603  0.2076 -0.2918
  628MOL0     H84733  11.564   0.923   1.189  0.6689  0.9853  0.2925
  628MOL0     H84734  11.682   1.102   1.379  3.1370 -0.6712  0.3618
  628MOL0     H84735  11.714   0.940   1.438 -1.2135 -2.0681  0.3659
  628MOL0     H84736  11.770   1.062   1.157 -0.2371  2.8063  2.7245
  628MOL0     H84737  11.800   0.891   1.197 -0.3905 -0.1148 -0.3987
  628MOL0     H84738  11.948   1.126   1.325 -2.9711 -0.5176 -0.0574
  628MOL0     H84739  12.001   1.026   1.189  2.0441  0.4665  1.2485
  628MOL0     H84740  12.166   1.147   1.332  2.4051  2.8678  2.1942
  628MOL0     H84741  12.388   1.175   1.440  0.5806 -0.1078 -2.0090
  628MOL0     H84742  12.799   1.003   1.647 -0.3824  0.1925  1.3113
  628MOL0     H84743  13.005   0.945   1.782 -0.3517  0.5399 -2.3730
  628MOL0     H84744  13.199   0.834   1.936  1.6656  0.7021  1.4946
  628MOL0     H84745  13.065   0.957   1.992  0.1604  0.1153  2.4227
  628MOL0     H84746  13.085   0.885   2.216  0.1018  2.1441 -0.4643
  628MOL0     H84747  13.162   0.734   2.169 -0.2614  0.1191  0.4790
  628MOL0     H84748  13.290   0.999   2.123 -1.9646  0.5514  0.4470
  628MOL0     H84749  13.292   0.938   2.282  1.5832 -0.3179 -0.0862
  628MOL0     H84750  13.410   0.788   2.040  1.4873 -1.2001  0.2484
  628MOL0     H84751  13.389   0.719   2.196 -1.0139 -0.2958 -0.7819
  628MOL0     H84752  13.542   0.922   2.291  5.5557 -0.0998  0.5361
  628MOL0     H84753  13.602   0.927   2.120  3.2747 -2.9935 -0.3883
  628MOL0     H84754  13.621   0.721   2.329  0.9413 -1.5861  0.4628
  628MOL0     H84755  13.598   0.655   2.161  3.3982 -1.4670 -0.6733
  628MOL0     H84756  13.817   0.858   2.254 -1.0718 -1.2940  3.1898
  628MOL0     H84757  13.788   0.807   2.085 -0.1274 -0.9873  0.3864
  628MOL0     H84758  13.854   0.598   2.286 -0.9056  0.7727 -0.3408
  628MOL0     H84759  13.833   0.597   2.113 -2.2301  0.1690  0.4249
  628MOL0     H84760  12.789   0.616   1.956  0.3217  1.0520  0.3242
  628MOL0     H84761  12.594   0.666   1.798  0.7929  0.1984 -1.6337
  628MOL0     H84762  12.326   0.794   1.624  1.3549  0.5458 -0.9998
  628MOL0     H84763  12.121   0.778   1.561  1.8890  0.5302  1.7415
  628MOL0     H84764  10.601   1.151   2.010  0.6811  1.8604 -1.9793
  628MOL0     H84765  10.378   1.243   2.061 -0.1670  0.0878 -1.4172
  628MOL0     H84766   9.899   1.133   1.960  0.3285 -0.1512  0.1388
  628MOL0     H84767   9.662   1.172   2.035  0.6500  2.3376 -1.9186
  628MOL0     H84768   9.602   1.392   2.413  1.1942 -0.2193 -1.6392
  628MOL0     H84769   9.601   1.223   2.465  0.5189 -1.3421 -0.2423
  628MOL0     H84770   9.359   1.327   2.493  0.8132 -1.3373  1.5569
  628MOL0     H84771   9.373   1.179   2.384  1.1304 -1.0740 -0.8664
  628MOL0     H84772   9.401   1.328   2.197  0.2150  0.3438  0.6469
  628MOL0     H84773   9.410   1.471   2.295 -0.1592 -0.1227 -1.5539
  628MOL0     H84774   9.177   1.438   2.343 -0.6764 -2.9203  0.9227
  628MOL0     H84775   9.218   1.464   2.168  0.9367 -2.2865 -1.1938
  628MOL0     H84776   9.045   1.075   2.186 -2.9416  1.0961  0.8041
  628MOL0     H84777   9.825   1.295   2.426 -1.6930 -0.2527  0.4462
  628MOL0     H84778  10.064   1.311   2.471 -0.2195 -0.7618  1.1505
  628MOL0     H84779  10.108   1.141   2.433 -0.7776  0.0468 -3.2031
  628MOL0     H84780  10.176   1.258   2.340  0.9819  2.5030  2.0256
  629MOL0     O84781   6.613   1.336  10.355  0.6191 -0.0039 -0.7641
  629MOL0     C84782   6.564   1.276  10.268 -0.7448 -0.6720 -0.2821
  629MOL0     O84783   6.616   1.286  10.131 -0.1541 -0.1424 -0.2610
  629MOL0     C84784   6.748   1.307  10.113  0.3651  0.6069  0.3132
  629MOL0     C84785   6.784   1.366  10.000  1.2397 -0.6369 -0.7720
  629MOL0     C84786   6.919   1.391   9.961  0.2776 -0.0753 -0.9207
  629MOL0     C84787   7.031   1.347  10.048 -0.1185  0.5895  1.0072
  629MOL0     O84788   7.165   1.353  10.013 -1.2081 -0.0273 -0.4909
  629MOL0     C84789   7.203   1.404   9.882  0.2004  0.5562  0.7944
  629MOL0     C84790   7.347   1.421   9.874 -1.1317  0.1052 -0.0082
  629MOL0     C84791   7.423   1.287   9.837 -0.4824  0.6826  0.6214
  629MOL0     C84792   7.569   1.297   9.889 -1.0499  0.2204 -0.0198
  629MOL0     C84793   7.663   1.396   9.819 -0.3565 -0.0149  0.2667
  629MOL0     C84794   7.716   1.358   9.674  0.9357 -0.3999  0.1526
  629MOL0     C84795   7.787   1.220   9.674 -0.3955 -0.4349  0.3607
  629MOL0     C84796   7.860   1.198   9.537  0.7538  0.5216 -0.3222
  629MOL0     N84797   7.763   1.176   9.429 -0.3631 -0.0441  0.5145
  629MOL0     C84798   7.663   1.082   9.418  0.0829 -0.1021  0.2241
  629MOL0     C84799   7.579   1.124   9.318 -0.3837 -0.6350 -0.4777
  629MOL0     C84800   7.454   1.068   9.278  0.2471  0.2228  1.0254
  629MOL0     C84801   7.358   1.054   9.395  0.4606  0.2084 -0.2120
  629MOL0     C84802   7.289   1.184   9.431  0.5790  0.1006  0.1108
  629MOL0     C84803   7.196   1.156   9.545  0.3578 -0.2031  0.4021
  629MOL0     O84804   7.096   1.062   9.502  0.9076  0.7936 -0.1590
  629MOL0     C84805   6.985   1.047   9.576  0.1891 -0.2375 -0.6948
  629MOL0     C84806   6.940   1.115   9.700 -0.1030  0.2977 -0.1974
  629MOL0     C84807   6.819   1.085   9.759  1.1202  0.3679 -0.1788
  629MOL0     C84808   6.730   0.987   9.708 -0.2516  0.4552  0.9780
  629MOL0     C84809   6.603   0.959   9.781  0.0847 -0.8995  0.2836
  629MOL0     O84810   6.510   0.892   9.706  0.3394 -0.1414 -0.0829
  629MOL0     C84811   6.391   0.887   9.762 -0.4808 -0.4980 -0.8181
  629MOL0     C84812   6.364   0.817   9.882  0.0291  0.1756 -0.4875
  629MOL0     C84813   6.233   0.796   9.923 -0.3240  0.0002  0.4004
  629MOL0     C84814   6.125   0.834   9.836 -0.2106  1.1902 -0.9031
  629MOL0     O84815   5.998   0.808   9.870  0.4659 -0.2164 -0.4478
  629MOL0     C84816   5.963   0.768  10.011  0.0031  0.5813  0.6321
  629MOL0     C84817   5.805   0.775  10.033  0.0225 -0.9316  1.2864
  629MOL0     C84818   5.762   0.757  10.179 -0.7402  0.2770 -0.6405
  629MOL0     C84819   5.618   0.742  10.199  0.1148  0.0421  0.1814
  629MOL0     C84820   5.532   0.851  10.135  0.2521 -0.5354 -0.4765
  629MOL0     C84821   5.529   0.980  10.215 -0.1858  0.5555  0.0159
  629MOL0     C84822   5.456   0.963  10.350 -0.1352  0.1774  0.3650
  629MOL0     C84823   5.376   1.084  10.396  0.9421  0.0104  0.4493
  629MOL0    Cl84824   5.482   1.209  10.441  0.3565 -0.3791  0.0397
  629MOL0     C84825   6.154   0.900   9.718  0.2020 -0.2617 -0.0179
  629MOL0     C84826   6.284   0.930   9.680  0.2035 -0.3894  0.2128
  629MOL0     O84827   6.593   1.008   9.891 -0.1778  0.4214 -0.5304
  629MOL0     C84828   6.767   0.927   9.585 -0.6795  0.7175  0.2199
  629MOL0     C84829   6.892   0.954   9.530 -0.4033 -1.1588  0.3914
  629MOL0     N84830   7.642   1.234   9.259  0.0637 -0.7643  0.2346
  629MOL0     N84831   7.748   1.269   9.329 -0.3360  0.0388  0.2795
  629MOL0     C84832   6.994   1.273  10.163 -0.2695  0.3214 -0.0411
  629MOL0     C84833   6.855   1.257  10.197  0.0805 -0.6089  0.6269
  629MOL0     C84834   6.478   1.155  10.304  0.4107 -0.3963  0.1128
  629MOL0     C84835   6.470   1.035  10.221  0.5722 -0.7370  0.3659
  629MOL0     C84836   6.396   0.919  10.253  0.8276 -0.1296 -0.9831
  629MOL0     C84837   6.305   0.932  10.361  1.0339 -0.4185  0.3123
  629MOL0     O84838   6.217   0.834  10.395 -0.1174 -0.2456  0.0235
  629MOL0     C84839   6.233   0.703  10.341  0.8786 -0.3710  0.1225
  629MOL0     C84840   6.114   0.624  10.388  0.3963  0.9948 -0.3725
  629MOL0     C84841   6.126   0.480  10.341 -0.7604  0.3032  1.0229
  629MOL0     C84842   6.046   0.384  10.431 -0.1198 -0.7026  0.0971
  629MOL0     C84843   6.039   0.244  10.382  0.2662 -0.6085 -0.2245
  629MOL0     C84844   6.021   0.133  10.340 -1.0598  0.1152  0.0882
  629MOL0     C84845   6.306   1.046  10.440 -0.5360 -0.1541  0.0374
  629MOL0     C84846   6.392   1.157  10.417 -0.2608  0.6152 -0.3897
  629MOL0     C84847   6.372   1.290  10.492 -0.0761  0.1732  0.0468
  629MOL0     H84848   6.705   1.398   9.933 -1.0471  2.7571  3.0751
  629MOL0     H84849   6.934   1.451   9.872  2.2579  0.1879 -0.4489
  629MOL0     H84850   7.161   1.344   9.802  0.8943  0.0342  0.8036
  629MOL0     H84851   7.168   1.507   9.869 -1.0830  0.1018  0.5296
  629MOL0     H84852   7.390   1.461   9.966  4.2233 -1.7520 -1.3490
  629MOL0     H84853   7.370   1.493   9.796 -1.3718  0.3903  0.1797
  629MOL0     H84854   7.426   1.276   9.728  1.0218  1.9566  0.5095
  629MOL0     H84855   7.369   1.200   9.876  0.9498  0.4716  2.2307
  629MOL0     H84856   7.568   1.316   9.997 -1.8708 -2.4663  0.5145
  629MOL0     H84857   7.604   1.194   9.898  0.4174  0.6489 -0.3912
  629MOL0     H84858   7.606   1.489   9.810 -0.9501 -0.3832  0.1295
  629MOL0     H84859   7.755   1.409   9.876 -1.0076  2.3678  0.9171
  629MOL0     H84860   7.628   1.371   9.611  1.8431 -0.1258 -1.0887
  629MOL0     H84861   7.785   1.438   9.645 -0.5092  1.1810  0.8835
  629MOL0     H84862   7.714   1.140   9.686  0.4515 -1.3034 -0.1493
  629MOL0     H84863   7.868   1.214   9.747  0.9179  2.1476 -0.7252
  629MOL0     H84864   7.923   1.284   9.515  1.9566 -0.8106 -2.5068
  629MOL0     H84865   7.920   1.108   9.551 -1.4024 -0.9831 -0.2701
  629MOL0     H84866   7.644   0.993   9.477 -3.0871  1.0163  1.0856
  629MOL0     H84867   7.414   1.136   9.201  0.8165  0.3852  0.8662
  629MOL0     H84868   7.472   0.970   9.232  3.3468  1.8063 -1.6522
  629MOL0     H84869   7.287   0.973   9.375 -0.8424  1.2728 -0.0354
  629MOL0     H84870   7.419   1.022   9.480 -0.3363  0.1481  0.3486
  629MOL0     H84871   7.213   1.191   9.352 -1.3387  0.8070  1.9225
  629MOL0     H84872   7.341   1.279   9.445 -1.5190  1.3824 -0.4737
  629MOL0     H84873   7.154   1.251   9.580 -1.2804 -1.6685  2.6973
  629MOL0     H84874   7.260   1.118   9.625  0.2812 -2.0952 -0.3898
  629MOL0     H84875   7.006   1.189   9.743  0.2454 -0.4067  0.4991
  629MOL0     H84876   6.806   1.133   9.856 -0.4314 -2.8745  1.3534
  629MOL0     H84877   6.433   0.769   9.950  0.2203  0.4422 -0.4884
  629MOL0     H84878   6.222   0.755  10.022  0.8342 -0.5944  0.2967
  629MOL0     H84879   5.982   0.660  10.011 -1.6352  0.2681  0.4206
  629MOL0     H84880   6.013   0.817  10.095  0.4125  0.2299  0.5970
  629MOL0     H84881   5.776   0.876  10.002  2.3910 -0.8452 -0.9995
  629MOL0     H84882   5.754   0.704   9.967 -0.8213  0.1908  0.7015
  629MOL0     H84883   5.816   0.674  10.225 -0.4040  0.7149 -0.2332
  629MOL0     H84884   5.789   0.851  10.228  4.2093 -0.1088 -2.1056
  629MOL0     H84885   5.591   0.740  10.305 -1.8654  0.0492 -0.2851
  629MOL0     H84886   5.583   0.649  10.153  5.0197 -1.9525 -0.2230
  629MOL0     H84887   5.430   0.817  10.115 -0.0440  1.0288 -1.8268
  629MOL0     H84888   5.565   0.886  10.037  0.0201 -0.0910 -0.3993
  629MOL0     H84889   5.625   1.027  10.238 -2.0638  3.3761  3.1773
  629MOL0     H84890   5.475   1.057  10.159 -2.4509  0.5172  1.9791
  629MOL0     H84891   5.530   0.964  10.430 -1.0473  0.9134  1.2289
  629MOL0     H84892   5.399   0.870  10.360  1.4874 -0.7929  0.9981
  629MOL0     H84893   5.312   1.125  10.317 -0.7024 -0.4109  1.5148
  629MOL0     H84894   5.303   1.069  10.476 -0.0920 -1.3401 -0.6867
  629MOL0     H84895   6.078   0.928   9.646  1.9804 -3.4767 -3.4841
  629MOL0     H84896   6.302   0.985   9.588  0.1075 -0.5982  0.0693
  629MOL0     H84897   6.699   0.851   9.548 -2.2524  1.1595  2.0723
  629MOL0     H84898   6.916   0.895   9.442 -0.0042 -0.6660  0.1644
  629MOL0     H84899   7.069   1.232  10.230 -2.3522 -1.8895  1.1163
  629MOL0     H84900   6.835   1.200  10.287 -3.1080  0.8291  0.9542
  629MOL0     H84901   6.548   1.021  10.147  1.4158 -0.9905  1.2775
  629MOL0     H84902   6.419   0.835  10.188  1.2827 -0.5139 -0.3418
  629MOL0     H84903   6.327   0.665  10.381  1.2208  1.9949  1.7778
  629MOL0     H84904   6.236   0.703  10.231 -1.8174 -2.6683 -0.0772
  629MOL0     H84905   6.021   0.671  10.355 -0.6298  0.2323  1.3110
  629MOL0     H84906   6.102   0.624  10.497  0.9822 -3.3276 -0.1380
  629MOL0     H84907   6.228   0.449  10.320 -1.3272  0.4895 -2.7977
  629MOL0     H84908   6.089   0.469  10.238 -0.7349  0.9191  0.9440
  629MOL0     H84909   6.091   0.384  10.531 -2.6602  0.6754  1.3331
  629MOL0     H84910   5.945   0.423  10.446  0.8293  0.8642  3.3978
  629MOL0     H84911   6.017   0.034  10.299  0.7830 -0.4305  1.1358
  629MOL0     H84912   6.223   1.057  10.509 -0.6567 -1.0714  0.0536
  629MOL0     H84913   6.451   1.311  10.565  0.2170 -0.0252 -0.2116
  629MOL0     H84914   6.379   1.364  10.413  0.9534  0.9793  0.8578
  629MOL0     H84915   6.275   1.305  10.540  0.6005 -0.3833  1.7014
  630MOL0     O84916   4.700   3.777   7.195 -0.0205 -0.1108  0.1841
  630MOL0     C84917   4.679   3.711   7.297 -0.2969 -0.8592  0.0439
  630MOL0     O84918   4.766   3.630   7.354  0.1890 -0.1283 -0.1844
  630MOL0     C84919   4.891   3.617   7.309 -0.7498 -0.4235  0.1794
  630MOL0     C84920   4.912   3.546   7.192 -0.1640  0.1360  0.1864
  630MOL0     C84921   5.037   3.530   7.131 -0.3222  0.1683 -0.6471
  630MOL0     C84922   5.148   3.579   7.199  0.2801  0.2433  0.2458
  630MOL0     O84923   5.274   3.573   7.153  0.5599  0.2755  0.3321
  630MOL0     C84924   5.300   3.508   7.031  0.0289  0.0686 -0.3630
  630MOL0     C84925   5.452   3.477   7.025 -0.5593 -0.2490  0.9470
  630MOL0     C84926   5.526   3.602   6.978 -0.2751 -0.1903 -0.1258
  630MOL0     C84927   5.678   3.568   6.971  0.9388 -0.0984 -0.4270
  630MOL0     C84928   5.760   3.698   6.965 -0.1218  0.2496 -0.0994
  630MOL0     C84929   5.893   3.665   6.909  0.7807 -0.0603  0.6390
  630MOL0     C84930   5.994   3.777   6.916  0.2497 -0.1346 -1.0305
  630MOL0     C84931   6.073   3.800   6.787  0.2746 -0.3781  0.8463
  630MOL0     N84932   6.196   3.881   6.810 -0.0622  0.5299 -0.5598
  630MOL0     C84933   6.314   3.836   6.863  0.0261  0.1497  0.2853
  630MOL0     C84934   6.395   3.939   6.861 -0.5047 -0.6432  0.2005
  630MOL0     C84935   6.532   3.929   6.907  0.2507 -0.3088  0.3976
  630MOL0     C84936   6.629   3.958   6.785 -0.6452  0.3536  0.4023
  630MOL0     C84937   6.605   3.875   6.659  0.1984 -0.7200  0.1902
  630MOL0     C84938   6.718   3.893   6.553  0.1011 -0.9354 -1.0374
  630MOL0     O84939   6.836   3.820   6.598 -0.2798  0.6679 -0.4499
  630MOL0     C84940   6.951   3.862   6.539  0.7091  0.3232  0.0885
  630MOL0     C84941   7.061   3.827   6.620  0.9358 -0.6485 -0.4276
  630MOL0     C84942   7.189   3.852   6.573  0.1958  0.2939 -0.8315
  630MOL0     C84943   7.202   3.914   6.452 -0.2252  0.5899  0.2041
  630MOL0     C84944   7.342   3.951   6.409 -0.2360 -0.2292  0.1058
  630MOL0     O84945   7.362   3.996   6.283 -0.5380 -0.0018  0.3050
  630MOL0     C84946   7.480   4.049   6.238 -0.2441  0.8208  0.2879
  630MOL0     C84947   7.486   4.061   6.093 -0.3245  0.5785  0.2125
  630MOL0     C84948   7.608   4.089   6.023  0.6429  0.0333  0.0314
  630MOL0     C84949   7.720   4.107   6.099  0.6242  0.5713 -0.9698
  630MOL0     O84950   7.841   4.129   6.042 -0.4565  0.7656 -0.7219
  630MOL0     C84951   7.863   4.065   5.915 -1.0051 -0.0411  0.6158
  630MOL0     C84952   8.013   4.087   5.879 -0.3848  0.2468  0.2649
  630MOL0     C84953   8.041   4.222   5.802 -0.8145 -0.4634  0.3606
  630MOL0     C84954   8.186   4.220   5.745  0.7515  0.0295 -0.4422
  630MOL0     C84955   8.212   4.358   5.699 -0.4409  0.2110 -0.2839
  630MOL0     C84956   8.375   4.367   5.671  0.5195 -0.0014 -0.2653
  630MOL0     C84957   8.437   4.264   5.574 -0.9355  0.6812  0.3102
  630MOL0     C84958   8.576   4.315   5.517  0.2108 -0.3240 -0.1531
  630MOL0    Cl84959   8.685   4.340   5.655 -0.3884 -0.3889 -0.2614
  630MOL0     C84960   7.714   4.106   6.238 -0.1703 -1.1927  0.6535
  630MOL0     C84961   7.594   4.085   6.308 -0.1358 -1.0974 -0.2834
  630MOL0     O84962   7.435   3.904   6.475 -0.5373 -0.5468 -0.2169
  630MOL0     C84963   7.093   3.954   6.375 -0.1637 -0.4376  0.4365
  630MOL0     C84964   6.968   3.930   6.421  0.0509 -0.4045 -0.0253
  630MOL0     N84965   6.328   4.052   6.810 -1.2238  0.0621  0.4026
  630MOL0     N84966   6.207   4.012   6.791  0.4855 -0.4977  0.1078
  630MOL0     C84967   5.128   3.645   7.318  0.3116  0.8147 -0.2502
  630MOL0     C84968   4.999   3.673   7.375 -0.4363 -0.3605  0.1960
  630MOL0     C84969   4.540   3.712   7.356  0.5033 -0.0181 -0.4206
  630MOL0     C84970   4.496   3.598   7.414 -0.0885  0.3206  0.4873
  630MOL0     C84971   4.375   3.600   7.480 -0.3088 -0.0842 -0.9003
  630MOL0     C84972   4.294   3.712   7.491 -0.5949  0.6653 -0.0288
  630MOL0     O84973   4.184   3.690   7.575 -0.0262 -0.5967 -0.0040
  630MOL0     C84974   4.057   3.736   7.519  0.4147  0.4888 -0.4984
  630MOL0     C84975   3.974   3.626   7.450  0.1825  0.0019  0.5752
  630MOL0     C84976   3.958   3.487   7.522 -0.1138  0.1126 -0.0576
  630MOL0     C84977   3.872   3.507   7.650 -0.4272 -0.2982  0.1534
  630MOL0     C84978   3.733   3.554   7.624  1.7602  0.1096 -0.0707
  630MOL0     C84979   3.618   3.584   7.583 -0.1604  0.1531 -0.2968
  630MOL0     C84980   4.335   3.826   7.440  0.1103  0.0672  0.2028
  630MOL0     C84981   4.452   3.833   7.364  0.1974  0.7936  0.6421
  630MOL0     C84982   4.501   3.969   7.317  0.0300 -0.0476 -1.0433
  630MOL0     H84983   4.822   3.506   7.144 -0.8732  2.7268 -0.8192
  630MOL0     H84984   5.052   3.481   7.035  1.0886  1.1500 -0.9508
  630MOL0     H84985   5.246   3.414   7.018  1.3656 -0.8443  0.4885
  630MOL0     H84986   5.265   3.573   6.950 -1.7045  0.5161  0.6718
  630MOL0     H84987   5.467   3.399   6.950 -1.3373 -0.2310  0.7661
  630MOL0     H84988   5.485   3.449   7.126  0.7578 -1.0210  0.3171
  630MOL0     H84989   5.506   3.682   7.051 -4.2173  0.9883 -2.2409
  630MOL0     H84990   5.484   3.630   6.881 -2.5468 -1.5970  0.3821
  630MOL0     H84991   5.720   3.507   7.052  0.9465 -0.3219 -0.5981
  630MOL0     H84992   5.705   3.531   6.872  1.1363  0.4028 -0.5608
  630MOL0     H84993   5.709   3.771   6.902  2.4933 -0.9597 -3.9824
  630MOL0     H84994   5.774   3.743   7.064  2.4357 -2.9480  1.1914
  630MOL0     H84995   5.935   3.569   6.939 -0.1553 -1.3118 -1.7133
  630MOL0     H84996   5.862   3.655   6.804  1.0316  1.5598  0.3776
  630MOL0     H84997   6.057   3.754   7.003 -0.2305 -1.3559 -0.9960
  630MOL0     H84998   5.940   3.869   6.940  0.2623  0.9536 -4.6664
  630MOL0     H84999   6.098   3.699   6.755 -1.9900 -1.5227  2.4342
  630MOL0     H85000   6.017   3.855   6.711  1.6072 -1.9927 -1.4232
  630MOL0     H85001   6.346   3.737   6.892  2.7485  0.8517 -0.0593
  630MOL0     H85002   6.547   4.008   6.981  1.8061 -1.0490  0.9061
  630MOL0     H85003   6.545   3.833   6.958 -1.7452  1.0745  3.8533
  630MOL0     H85004   6.619   4.062   6.755  0.4347 -0.2717 -2.4361
  630MOL0     H85005   6.732   3.954   6.820 -0.7426  0.1779  0.6719
  630MOL0     H85006   6.509   3.897   6.613 -0.7676 -2.1079  1.4556
  630MOL0     H85007   6.597   3.771   6.689 -1.4869  0.1770  3.2492
  630MOL0     H85008   6.740   3.999   6.543  0.8318 -0.8150  1.3115
  630MOL0     H85009   6.693   3.857   6.452  0.6625  1.7904 -2.2319
  630MOL0     H85010   7.044   3.796   6.723  1.0445  2.3940  0.6136
  630MOL0     H85011   7.277   3.838   6.634 -1.1328  1.0988  1.4361
  630MOL0     H85012   7.391   4.048   6.042  0.7893  3.4129 -2.8961
  630MOL0     H85013   7.605   4.082   5.915 -0.9269  3.1530 -0.2364
  630MOL0     H85014   7.852   3.957   5.928  0.8757 -0.1699  1.4859
  630MOL0     H85015   7.793   4.109   5.844 -0.9767  0.2971  0.7988
  630MOL0     H85016   8.057   4.096   5.978 -4.4714 -2.3301  2.6408
  630MOL0     H85017   8.045   4.000   5.820 -0.3886  1.1180 -1.0535
  630MOL0     H85018   7.976   4.227   5.714 -0.5626  0.9815  0.2224
  630MOL0     H85019   8.033   4.314   5.862 -1.1054  2.0940 -3.2411
  630MOL0     H85020   8.199   4.139   5.673 -0.4337  0.9487 -1.7542
  630MOL0     H85021   8.261   4.209   5.824  2.5069  0.3022 -2.0011
  630MOL0     H85022   8.194   4.434   5.776 -0.3653  0.7997 -0.8391
  630MOL0     H85023   8.165   4.392   5.606  0.2756  0.1481 -0.6798
  630MOL0     H85024   8.405   4.468   5.642 -0.4671 -0.1436 -1.8747
  630MOL0     H85025   8.432   4.338   5.760  1.9359 -1.5662 -1.6243
  630MOL0     H85026   8.374   4.239   5.489  0.4219 -1.9798 -0.0184
  630MOL0     H85027   8.435   4.172   5.633 -0.5311 -0.0570 -0.7843
  630MOL0     H85028   8.629   4.251   5.447  5.3526  1.3618  1.7046
  630MOL0     H85029   8.557   4.415   5.476 -1.1938 -0.9978 -1.2580
  630MOL0     H85030   7.800   4.141   6.294 -0.3433  3.2858 -1.4313
  630MOL0     H85031   7.602   4.103   6.415 -0.0076 -0.8780 -0.3295
  630MOL0     H85032   7.111   3.990   6.275  0.8267 -0.2217  0.6809
  630MOL0     H85033   6.894   3.963   6.349  0.2110  0.3876  0.1646
  630MOL0     H85034   5.204   3.703   7.371 -0.3229  1.7536 -0.3460
  630MOL0     H85035   4.989   3.739   7.461 -2.2472 -1.4643  0.8800
  630MOL0     H85036   4.554   3.507   7.402 -1.5012 -0.3273 -1.9221
  630MOL0     H85037   4.336   3.507   7.521  0.0671  0.9109  1.9131
  630MOL0     H85038   4.071   3.814   7.444 -1.7351 -0.9359 -2.5228
  630MOL0     H85039   4.004   3.776   7.606  1.8795 -0.2241  0.7691
  630MOL0     H85040   4.032   3.606   7.359 -3.2699 -0.7148 -1.6663
  630MOL0     H85041   3.878   3.664   7.414 -0.3514 -2.4175 -0.8068
  630MOL0     H85042   4.058   3.453   7.549 -0.3229 -0.2389  0.2754
  630MOL0     H85043   3.912   3.427   7.443  1.5951  0.7735 -1.6446
  630MOL0     H85044   3.862   3.408   7.695  0.0479 -0.9037 -1.0169
  630MOL0     H85045   3.924   3.580   7.712  0.4357 -0.2177 -0.6389
  630MOL0     H85046   3.522   3.601   7.539  0.1525  3.0697 -0.0463
  630MOL0     H85047   4.280   3.917   7.461  1.2823  0.2130  3.2567
  630MOL0     H85048   4.555   3.975   7.222 -0.4151  1.2138 -1.2343
  630MOL0     H85049   4.411   4.029   7.299 -0.9286 -1.4793 -1.2082
  630MOL0     H85050   4.566   4.013   7.393  0.0700  2.1814 -2.2645
  631MOL0     O85051   0.340  11.215   4.613 -0.0773  0.1644 -0.2171
  631MOL0     C85052   0.285  11.116   4.564  0.1950 -0.1907 -0.1195
  631MOL0     O85053   0.336  10.989   4.570 -0.7302  0.1892  0.1824
  631MOL0     C85054   0.453  10.985   4.632  0.1097  0.1483 -0.9930
  631MOL0     C85055   0.560  10.954   4.551  1.1734 -0.6313 -0.9911
  631MOL0     C85056   0.687  10.951   4.606  0.4229 -0.5214 -0.1563
  631MOL0     C85057   0.703  10.997   4.744 -0.0191  0.4552  1.0196
  631MOL0     O85058   0.836  11.021   4.785 -0.4996  0.9097  0.5544
  631MOL0     C85059   0.856  11.153   4.840  0.5200 -0.6560  0.5711
  631MOL0     C85060   1.002  11.153   4.876 -0.2748  0.5575  0.5020
  631MOL0     C85061   1.062  11.021   4.940  0.7174  0.1087  0.1623
  631MOL0     C85062   1.215  11.022   4.951 -0.0836 -0.2630 -0.4244
  631MOL0     C85063   1.279  11.149   5.029 -0.0042  0.4164 -0.0219
  631MOL0     C85064   1.431  11.152   5.026  0.3025  0.0071  0.5389
  631MOL0     C85065   1.493  11.044   5.121  0.5223 -0.1046  0.0880
  631MOL0     C85066   1.642  11.061   5.142  0.2707  0.3998  0.1398
  631MOL0     N85067   1.736  11.046   5.028 -0.1819  0.1109 -0.1013
  631MOL0     C85068   1.728  10.954   4.924  0.1084  0.4761  0.3385
  631MOL0     C85069   1.851  10.958   4.862  0.4003  0.0588  0.2999
  631MOL0     C85070   1.879  10.869   4.749 -0.1556 -0.2677 -0.9237
  631MOL0     C85071   1.920  10.947   4.626 -0.0489  0.3477  0.3481
  631MOL0     C85072   1.932  10.848   4.511  0.7896  0.2788  0.6590
  631MOL0     C85073   1.934  10.925   4.382 -0.5343 -0.0360 -0.1870
  631MOL0     O85074   1.943  10.834   4.271 -0.8309  1.0930 -0.5013
  631MOL0     C85075   2.062  10.816   4.201 -0.7280 -0.5113 -0.3551
  631MOL0     C85076   2.055  10.752   4.075 -0.4765  0.3982  0.8013
  631MOL0     C85077   2.169  10.706   4.008 -0.0984  0.1934 -0.6846
  631MOL0     C85078   2.297  10.732   4.057 -0.2847  0.0477 -0.4237
  631MOL0     C85079   2.411  10.679   3.981 -0.8304 -0.8236 -0.0638
  631MOL0     O85080   2.537  10.739   3.994 -0.2946  1.1401  0.2566
  631MOL0     C85081   2.637  10.665   3.931  0.0380 -0.0383  0.8161
  631MOL0     C85082   2.663  10.669   3.795  0.8944 -0.5226  0.0048
  631MOL0     C85083   2.779  10.610   3.745 -0.4628 -0.4265 -0.1222
  631MOL0     C85084   2.875  10.561   3.835 -0.1763  0.4091  0.3930
  631MOL0     O85085   2.995  10.520   3.778 -0.3047  0.1337 -0.5224
  631MOL0     C85086   3.105  10.611   3.812  0.1032  0.3272 -0.0219
  631MOL0     C85087   3.206  10.622   3.692  0.5406 -0.2096  0.6839
  631MOL0     C85088   3.301  10.744   3.705 -0.3266 -0.1416  0.3156
  631MOL0     C85089   3.443  10.704   3.756 -0.0532 -0.1535 -0.2171
  631MOL0     C85090   3.543  10.803   3.713 -0.6136  0.0622  0.2479
  631MOL0     C85091   3.684  10.785   3.786  0.1652 -0.2370  0.1657
  631MOL0     C85092   3.773  10.897   3.734  0.2821 -0.7168  0.5458
  631MOL0     C85093   3.826  10.888   3.589  0.7397 -0.4183 -0.7241
  631MOL0    Cl85094   3.919  10.742   3.546 -0.0350  0.0027 -0.0249
  631MOL0     C85095   2.843  10.542   3.972 -0.1853 -0.7713  0.5540
  631MOL0     C85096   2.725  10.602   4.016 -0.1560  1.1123  0.1496
  631MOL0     O85097   2.382  10.598   3.898  0.3710 -0.0296  0.2461
  631MOL0     C85098   2.306  10.796   4.176 -0.2639 -0.4879 -0.0586
  631MOL0     C85099   2.194  10.840   4.249  0.0712 -0.1043 -0.0736
  631MOL0     N85100   1.928  11.054   4.925  0.6080  0.1465 -0.0736
  631MOL0     N85101   1.860  11.104   5.024 -0.3086  0.9661 -0.0516
  631MOL0     C85102   0.591  11.024   4.822  0.2863  0.1075  0.0478
  631MOL0     C85103   0.463  11.019   4.769 -0.0601 -1.0792  0.2542
  631MOL0     C85104   0.157  11.120   4.493  0.2779  0.2939  0.0898
  631MOL0     C85105   0.110  11.017   4.406  0.0841  0.3504 -0.0233
  631MOL0     C85106  -0.015  11.012   4.351 -0.9960 -0.4310  0.1779
  631MOL0     C85107  -0.102  11.124   4.360 -0.5497 -0.5929  0.6003
  631MOL0     O85108  -0.217  11.142   4.292  0.8868 -0.5501  0.4800
  631MOL0     C85109  -0.273  11.022   4.209 -0.2399 -0.6831  0.3562
  631MOL0     C85110  -0.416  11.069   4.175  0.4807  0.2544 -0.1108
  631MOL0     C85111  -0.499  10.950   4.120  0.9080 -0.2900  0.7643
  631MOL0     C85112  -0.639  11.012   4.080  0.0460 -0.6768 -0.1141
  631MOL0     C85113  -0.742  10.908   4.068  0.1306 -0.2472  0.0161
  631MOL0     C85114  -0.821  10.815   4.079  0.3321 -0.5039  0.7782
  631MOL0     C85115  -0.063  11.220   4.443  0.4564 -0.2581 -0.3921
  631MOL0     C85116   0.063  11.230   4.498 -0.3623  0.1584 -0.4493
  631MOL0     C85117   0.087  11.347   4.595 -0.1735  0.0994  0.1349
  631MOL0     H85118   0.557  10.915   4.450  2.1878 -0.5145 -1.0809
  631MOL0     H85119   0.773  10.921   4.546  0.1601 -0.6242 -0.4894
  631MOL0     H85120   0.835  11.243   4.781 -3.2169 -0.4760  1.8904
  631MOL0     H85121   0.803  11.176   4.933  0.5469  1.4084  0.1201
  631MOL0     H85122   1.016  11.231   4.951  0.1164 -0.8350  1.9290
  631MOL0     H85123   1.058  11.172   4.784 -1.6479 -1.2253 -0.7725
  631MOL0     H85124   1.044  10.935   4.875 -0.7322  1.7965 -1.7731
  631MOL0     H85125   1.016  11.010   5.039  0.8413 -2.3343  0.0125
  631MOL0     H85126   1.254  10.928   4.990 -1.5898 -0.7527 -0.0525
  631MOL0     H85127   1.243  11.019   4.846 -1.2720 -0.6102 -0.7390
  631MOL0     H85128   1.236  11.233   4.973  0.6066  0.4219 -0.5021
  631MOL0     H85129   1.239  11.153   5.131  1.1839 -0.8010  0.5217
  631MOL0     H85130   1.481  11.145   4.929  0.0298 -0.1913  0.4105
  631MOL0     H85131   1.471  11.247   5.061 -1.2580 -0.0519  2.6241
  631MOL0     H85132   1.474  10.946   5.076 -1.3058  0.5868 -0.7536
  631MOL0     H85133   1.441  11.058   5.216  0.2629 -0.1319 -0.0484
  631MOL0     H85134   1.656  11.165   5.170  1.2656  0.7361 -1.4325
  631MOL0     H85135   1.676  10.983   5.211 -0.9530 -1.1316 -0.9030
  631MOL0     H85136   1.650  10.880   4.910 -1.1216  1.9388 -0.8041
  631MOL0     H85137   1.952  10.793   4.776 -1.0155 -0.0797  2.3724
  631MOL0     H85138   1.787  10.811   4.737  0.2140 -1.3107  0.9918
  631MOL0     H85139   1.838  11.017   4.611 -0.8881 -0.3361  1.5794
  631MOL0     H85140   2.013  11.003   4.636  1.1506 -1.2072 -1.3829
  631MOL0     H85141   1.849  10.777   4.513  1.1735 -0.1513  1.6994
  631MOL0     H85142   2.022  10.786   4.520  1.3832  1.3519  2.7490
  631MOL0     H85143   2.013  11.000   4.373  1.4793 -1.6935  2.1675
  631MOL0     H85144   1.842  10.985   4.379 -0.1803  0.6088  1.2742
  631MOL0     H85145   1.955  10.736   4.035 -0.4053  2.8921 -0.5259
  631MOL0     H85146   2.145  10.632   3.933  0.7589 -4.4550  3.1147
  631MOL0     H85147   2.595  10.721   3.728 -0.4815 -2.5064 -0.2354
  631MOL0     H85148   2.801  10.619   3.639  1.4851 -4.5137 -0.2513
  631MOL0     H85149   3.074  10.712   3.838  2.3408  0.9549  0.4295
  631MOL0     H85150   3.164  10.580   3.899  0.8931  1.5186 -0.1194
  631MOL0     H85151   3.255  10.527   3.668  0.2079 -0.0598 -0.6759
  631MOL0     H85152   3.133  10.636   3.612 -2.4396  2.2449  3.5484
  631MOL0     H85153   3.304  10.776   3.600  0.5420 -0.7907  0.1320
  631MOL0     H85154   3.259  10.828   3.762 -1.9947 -0.0470 -0.9584
  631MOL0     H85155   3.466  10.601   3.724  0.2042 -0.5521  1.1691
  631MOL0     H85156   3.439  10.702   3.866 -0.3426 -1.4142 -0.2367
  631MOL0     H85157   3.503  10.904   3.733  2.2179  1.4493 -0.6381
  631MOL0     H85158   3.562  10.814   3.606  1.8721  2.4107  0.8274
  631MOL0     H85159   3.665  10.794   3.893  1.9968  1.8211  0.3807
  631MOL0     H85160   3.727  10.686   3.766 -3.5621 -2.2818  1.3582
  631MOL0     H85161   3.856  10.915   3.803 -0.2132  1.0748  0.7179
  631MOL0     H85162   3.722  10.993   3.744  0.0493 -0.3303 -2.9310
  631MOL0     H85163   3.747  10.895   3.514 -1.7953  0.2295  1.7974
  631MOL0     H85164   3.878  10.984   3.577 -2.7543  1.6042 -1.3794
  631MOL0     H85165   2.915  10.496   4.039  0.6191 -0.0956  0.1709
  631MOL0     H85166   2.709  10.594   4.123  2.7799  2.4260  0.7882
  631MOL0     H85167   2.404  10.817   4.218 -0.9562 -1.4443  2.2151
  631MOL0     H85168   2.205  10.880   4.349 -0.5873 -2.5358  1.0418
  631MOL0     H85169   0.604  11.068   4.921  3.3417 -0.0991 -0.1740
  631MOL0     H85170   0.373  11.059   4.814  1.3497  0.2571  2.0299
  631MOL0     H85171   0.177  10.934   4.388 -0.0460  0.1566  0.3759
  631MOL0     H85172  -0.048  10.931   4.287  1.3009 -1.1947 -0.1193
  631MOL0     H85173  -0.272  10.942   4.284 -1.0444  1.2917  2.5551
  631MOL0     H85174  -0.214  11.000   4.119 -0.0748 -0.8699  0.5074
  631MOL0     H85175  -0.406  11.146   4.097 -0.5037  0.3561 -0.1434
  631MOL0     H85176  -0.471  11.111   4.259 -0.6772  1.2146 -1.2991
  631MOL0     H85177  -0.509  10.877   4.201 -1.8741 -0.0641  0.7226
  631MOL0     H85178  -0.457  10.905   4.030  1.5142 -0.7679  1.2749
  631MOL0     H85179  -0.662  11.091   4.153  1.4060  0.1327 -0.5223
  631MOL0     H85180  -0.631  11.063   3.984 -0.1954  1.9961  1.2058
  631MOL0     H85181  -0.884  10.728   4.082 -0.4712  0.0507  0.3513
  631MOL0     H85182  -0.134  11.300   4.459 -1.2175 -1.3433 -2.0126
  631MOL0     H85183   0.133  11.431   4.542  0.6065  1.1470  2.3413
  631MOL0     H85184  -0.006  11.391   4.630 -1.6172 -1.2877 -1.7253
  631MOL0     H85185   0.141  11.305   4.681  1.6291 -2.2024 -1.9616
  632MOL0     O85186   6.008   8.028   8.466 -0.0783 -0.2335  0.0625
  632MOL0     C85187   5.916   8.107   8.477 -0.4571 -1.2170  0.5467
  632MOL0     O85188   5.922   8.237   8.438  1.1414  0.4166  0.4704
  632MOL0     C85189   6.040   8.288   8.386 -0.3505 -0.2480 -0.6482
  632MOL0     C85190   6.113   8.225   8.277  0.8259  0.6338 -0.4851
  632MOL0     C85191   6.238   8.275   8.241 -0.6960 -0.6286 -0.7554
  632MOL0     C85192   6.287   8.397   8.304 -0.0773  0.3903  0.5732
  632MOL0     O85193   6.415   8.450   8.288  0.2332 -0.2120 -0.6305
  632MOL0     C85194   6.502   8.395   8.202 -0.0856 -0.3506 -0.3500
  632MOL0     C85195   6.629   8.471   8.182  0.2422 -0.9529 -0.6775
  632MOL0     C85196   6.668   8.502   8.040 -0.5162 -0.5596  0.3318
  632MOL0     C85197   6.819   8.533   8.035  0.7858  0.0600  0.2052
  632MOL0     C85198   6.862   8.544   7.886  0.1321  0.4634 -0.7147
  632MOL0     C85199   6.819   8.674   7.818  0.3246 -0.2892  0.8419
  632MOL0     C85200   6.867   8.807   7.877 -0.4009  1.1274 -0.6160
  632MOL0     C85201   6.820   8.921   7.787 -0.6307  1.6116  0.1032
  632MOL0     N85202   6.831   9.050   7.853  0.2229 -0.0523 -0.0690
  632MOL0     C85203   6.919   9.151   7.821  0.2557 -0.1852  0.1680
  632MOL0     C85204   6.888   9.257   7.900  0.4334  0.1035  0.1841
  632MOL0     C85205   6.949   9.395   7.933  0.7761 -0.1878  0.5384
  632MOL0     C85206   7.101   9.385   7.947 -0.2930 -0.2782 -0.0331
  632MOL0     C85207   7.154   9.531   7.975 -0.0135 -0.5204  0.2241
  632MOL0     C85208   7.313   9.539   7.956 -0.1058 -0.3351  0.6379
  632MOL0     O85209   7.355   9.471   7.837 -0.5933 -0.9919 -0.0048
  632MOL0     C85210   7.430   9.544   7.744 -0.5794 -0.5647 -0.4897
  632MOL0     C85211   7.570   9.544   7.743  0.8994 -0.2506  0.1119
  632MOL0     C85212   7.640   9.602   7.642  0.0870  0.6501  0.0258
  632MOL0     C85213   7.580   9.679   7.542  0.2012  0.6390 -1.0940
  632MOL0     C85214   7.662   9.741   7.441  0.2782 -0.9505  0.2670
  632MOL0     O85215   7.593   9.769   7.321  0.0085 -0.5275  0.0319
  632MOL0     C85216   7.662   9.855   7.237 -0.0244 -0.9703  0.5210
  632MOL0     C85217   7.630   9.990   7.256  0.0933  0.5385  0.1839
  632MOL0     C85218   7.689  10.081   7.165 -0.0217  0.0624 -0.8215
  632MOL0     C85219   7.782  10.042   7.079 -0.5493  0.4722 -0.1474
  632MOL0     O85220   7.846  10.139   7.007  0.2354 -0.2580 -0.0711
  632MOL0     C85221   7.988  10.135   6.988 -0.5881  0.3015  0.4544
  632MOL0     C85222   8.037  10.264   6.908 -0.2596  1.1054 -0.6127
  632MOL0     C85223   8.190  10.284   6.918 -0.5857 -0.8285  0.1909
  632MOL0     C85224   8.219  10.400   6.839  0.3367 -0.0882  0.7816
  632MOL0     C85225   8.376  10.423   6.843  0.4926  0.5280  0.8801
  632MOL0     C85226   8.425  10.539   6.755  0.0557  0.2167 -0.3529
  632MOL0     C85227   8.428  10.510   6.604 -0.1066  0.9643  0.0116
  632MOL0     C85228   8.449  10.620   6.500 -0.0788 -0.3475 -0.2371
  632MOL0    Cl85229   8.407  10.553   6.344  0.2262  0.0737  0.2173
  632MOL0     C85230   7.808   9.902   7.061 -0.6333  0.3482 -0.3246
  632MOL0     C85231   7.753   9.811   7.140 -0.0074  0.1669 -0.4096
  632MOL0     O85232   7.781   9.768   7.463 -0.9265  0.4327  0.1675
  632MOL0     C85233   7.444   9.690   7.552  0.0458 -0.3847 -0.9088
  632MOL0     C85234   7.365   9.627   7.651 -0.9363 -1.1450 -0.2922
  632MOL0     N85235   6.776   9.223   7.979 -0.8065  0.8300  0.0259
  632MOL0     N85236   6.741   9.099   7.941  0.0465 -0.3587  0.4078
  632MOL0     C85237   6.215   8.454   8.402  0.0425 -0.3670 -0.1445
  632MOL0     C85238   6.096   8.400   8.444 -0.2821  0.1725  0.0432
  632MOL0     C85239   5.797   8.061   8.557 -0.8233  0.3793  0.5355
  632MOL0     C85240   5.677   8.120   8.523 -0.6751  0.1815 -0.2481
  632MOL0     C85241   5.558   8.070   8.575  0.0652  0.2520  0.5291
  632MOL0     C85242   5.553   7.960   8.663 -0.5631 -1.1431  0.3857
  632MOL0     O85243   5.428   7.921   8.710 -0.0795  0.6732  0.3566
  632MOL0     C85244   5.446   7.838   8.820  0.0881  0.0540 -0.1419
  632MOL0     C85245   5.310   7.770   8.861 -0.1304  0.3804 -0.4002
  632MOL0     C85246   5.208   7.880   8.918 -0.1549  0.3419  1.0096
  632MOL0     C85247   5.062   7.822   8.933  0.5112 -0.1995  1.0908
  632MOL0     C85248   4.963   7.920   8.981  0.0191 -0.2642 -0.6212
  632MOL0     C85249   4.882   7.995   9.041  0.0837  0.7423 -0.2905
  632MOL0     C85250   5.682   7.915   8.702 -0.1559  0.4849  0.5660
  632MOL0     C85251   5.805   7.964   8.658  0.4989  0.2103 -0.1336
  632MOL0     C85252   5.936   7.902   8.708  0.6350  0.5109  1.2899
  632MOL0     H85253   6.067   8.141   8.226 -2.4183  0.6528  2.0540
  632MOL0     H85254   6.294   8.212   8.174  0.7063 -0.8777  0.5931
  632MOL0     H85255   6.526   8.295   8.240 -1.4993 -1.4650 -2.2490
  632MOL0     H85256   6.452   8.389   8.105  1.3282  1.1625 -1.2305
  632MOL0     H85257   6.706   8.426   8.246 -2.7474 -2.3459  2.2663
  632MOL0     H85258   6.624   8.567   8.233  2.2263 -1.7777  1.2061
  632MOL0     H85259   6.613   8.587   7.998 -0.7419 -1.4492 -1.2864
  632MOL0     H85260   6.649   8.411   7.983  1.2890 -1.5841  1.2931
  632MOL0     H85261   6.821   8.632   8.083 -2.3374 -1.5111  4.1368
  632MOL0     H85262   6.883   8.459   8.084  1.2273  0.0306 -0.4026
  632MOL0     H85263   6.972   8.549   7.884  0.1262  0.4466 -1.1983
  632MOL0     H85264   6.829   8.453   7.838 -0.6815  0.5784 -0.3855
  632MOL0     H85265   6.853   8.672   7.714  0.4959  0.0377  0.8924
  632MOL0     H85266   6.711   8.691   7.816 -0.1490 -2.8617  0.4533
  632MOL0     H85267   6.976   8.815   7.879 -0.3606  0.8267 -1.4235
  632MOL0     H85268   6.811   8.827   7.969 -1.4685 -2.2815 -0.4108
  632MOL0     H85269   6.878   8.916   7.695 -1.1067  0.3956 -0.1566
  632MOL0     H85270   6.715   8.907   7.759 -0.5956 -0.1923  0.7165
  632MOL0     H85271   7.008   9.153   7.759  0.6259  0.0017  0.7011
  632MOL0     H85272   6.921   9.468   7.857  2.7227  1.9613  1.7383
  632MOL0     H85273   6.908   9.436   8.026 -0.0243 -0.1956  0.1934
  632MOL0     H85274   7.123   9.322   8.034  1.8223  0.4734  0.0407
  632MOL0     H85275   7.152   9.342   7.860 -0.9497 -0.2230 -0.4499
  632MOL0     H85276   7.126   9.557   8.077  0.3330  1.0672 -0.0596
  632MOL0     H85277   7.107   9.601   7.906  3.2202  0.5030 -1.1582
  632MOL0     H85278   7.353   9.505   8.052  2.7918  0.1646 -0.3046
  632MOL0     H85279   7.347   9.643   7.949 -1.5973  0.1582  0.0936
  632MOL0     H85280   7.620   9.492   7.824 -2.7667 -0.0507  2.7401
  632MOL0     H85281   7.748   9.588   7.646  0.3707  1.5717 -2.7424
  632MOL0     H85282   7.567  10.011   7.342  0.0143 -1.7572  0.7531
  632MOL0     H85283   7.668  10.187   7.177 -0.9301  0.0685 -2.3061
  632MOL0     H85284   8.039  10.159   7.082  0.0194 -1.2107  0.5390
  632MOL0     H85285   8.025  10.038   6.953 -0.3534 -0.5355  2.8189
  632MOL0     H85286   8.022  10.240   6.803  1.7228 -0.0379 -0.6649
  632MOL0     H85287   7.970  10.346   6.935 -1.3580  0.0486 -0.0259
  632MOL0     H85288   8.225  10.288   7.021 -1.6752 -0.8249  0.5807
  632MOL0     H85289   8.232  10.196   6.868 -2.2021  0.4832 -3.9173
  632MOL0     H85290   8.162  10.490   6.862  0.2184  0.1782 -0.4552
  632MOL0     H85291   8.193  10.382   6.734  0.8686  1.9762  0.2662
  632MOL0     H85292   8.416  10.330   6.802  0.5241  0.8048  0.2706
  632MOL0     H85293   8.415  10.426   6.945  2.3923  1.1163  0.1903
  632MOL0     H85294   8.357  10.625   6.762  1.0978  0.9962  0.6943
  632MOL0     H85295   8.522  10.573   6.792 -1.5148  0.9258  3.6142
  632MOL0     H85296   8.337  10.457   6.575 -0.1788  0.8147  0.5046
  632MOL0     H85297   8.505  10.441   6.569  0.6182  1.0378  1.4036
  632MOL0     H85298   8.379  10.702   6.522  1.9558  2.0992 -2.1996
  632MOL0     H85299   8.549  10.662   6.513 -0.1694 -0.8337  2.7877
  632MOL0     H85300   7.877   9.872   6.982 -0.3055  0.0639  0.0692
  632MOL0     H85301   7.772   9.705   7.126  0.2557  0.5801 -3.8942
  632MOL0     H85302   7.394   9.761   7.486  0.0160  0.4236 -0.0503
  632MOL0     H85303   7.258   9.633   7.667 -0.9208  5.3668  0.1302
  632MOL0     H85304   6.251   8.542   8.454 -1.5440 -0.3045  0.9354
  632MOL0     H85305   6.047   8.446   8.529  0.9929 -1.0026  1.4584
  632MOL0     H85306   5.673   8.204   8.455 -2.7293  0.5788  0.2855
  632MOL0     H85307   5.477   8.134   8.541  1.7956  1.9657 -0.5668
  632MOL0     H85308   5.486   7.901   8.900  0.6673 -1.7309  1.0251
  632MOL0     H85309   5.512   7.753   8.801 -1.2922 -1.4058  1.3454
  632MOL0     H85310   5.321   7.699   8.943 -1.0173 -1.6864 -1.9878
  632MOL0     H85311   5.260   7.723   8.776 -2.0540  1.2827  0.1677
  632MOL0     H85312   5.210   7.964   8.848  0.9791 -1.1330 -0.8093
  632MOL0     H85313   5.243   7.904   9.019  0.8741 -0.9135  0.9797
  632MOL0     H85314   5.029   7.798   8.832  3.7937  2.4284 -0.8195
  632MOL0     H85315   5.053   7.730   8.990 -2.4401 -0.5634  0.2319
  632MOL0     H85316   4.811   8.051   9.099 -0.7097 -2.5145  2.1751
  632MOL0     H85317   5.691   7.842   8.782  2.0406 -0.1978 -0.2366
  632MOL0     H85318   5.975   7.842   8.625 -0.3353  1.6697 -0.0481
  632MOL0     H85319   6.003   7.987   8.725 -0.7203  1.7094  0.8493
  632MOL0     H85320   5.914   7.846   8.800 -1.0742 -2.2360 -0.6590
  633MOL0     O85321   8.185   1.765  10.424  0.7723  0.6719 -0.3166
  633MOL0     C85322   8.153   1.756  10.303 -0.0726  0.1397 -0.9732
  633MOL0     O85323   8.239   1.763  10.204 -0.7075 -1.0909 -0.5467
  633MOL0     C85324   8.374   1.793  10.210 -0.2576 -0.0251  0.0936
  633MOL0     C85325   8.460   1.768  10.316  0.8487  0.1441  0.7490
  633MOL0     C85326   8.598   1.795  10.312  0.5290 -0.7486  0.2646
  633MOL0     C85327   8.648   1.852  10.189  0.3658 -0.3980 -0.6822
  633MOL0     O85328   8.779   1.890  10.153  0.5891  0.3289 -0.2681
  633MOL0     C85329   8.882   1.836  10.235 -0.9176  0.9688 -1.0943
  633MOL0     C85330   9.015   1.868  10.161  0.3797  0.1995  0.0903
  633MOL0     C85331   9.138   1.867  10.246  1.0743 -0.0893 -1.3671
  633MOL0     C85332   9.265   1.895  10.174 -0.2701 -0.2495  0.0059
  633MOL0     C85333   9.398   1.871  10.244 -0.5520  0.1654  0.0960
  633MOL0     C85334   9.518   1.915  10.157  0.6868  0.6475  0.6264
  633MOL0     C85335   9.657   1.854  10.196  0.6579  0.3198  0.6803
  633MOL0     C85336   9.766   1.905  10.091  0.5680  0.9097 -0.5043
  633MOL0     N85337   9.856   2.019  10.138  0.9975  0.2606 -0.1546
  633MOL0     C85338   9.955   2.000  10.234 -0.3333 -0.4231 -0.9465
  633MOL0     C85339   9.992   2.120  10.285  0.2819 -0.0862  0.4268
  633MOL0     C85340  10.103   2.143  10.397  0.9752  0.5809  0.3152
  633MOL0     C85341  10.243   2.147  10.340 -0.2684 -0.8713  0.9222
  633MOL0     C85342  10.240   2.265  10.242 -0.1848 -0.5020  0.8819
  633MOL0     C85343  10.375   2.323  10.210  0.4107 -0.3833 -0.5112
  633MOL0     O85344  10.474   2.228  10.184 -0.5029  0.2893 -0.2164
  633MOL0     C85345  10.601   2.264  10.145 -0.1773  0.3143 -0.7652
  633MOL0     C85346  10.649   2.209  10.025 -0.0020 -0.0205 -0.2200
  633MOL0     C85347  10.770   2.249   9.970  0.0216 -0.1560 -0.1461
  633MOL0     C85348  10.855   2.333  10.043  0.6892 -0.4674  0.1520
  633MOL0     C85349  10.988   2.382   9.993  0.1404 -0.9775 -0.5962
  633MOL0     O85350  11.013   2.364   9.867  0.8697  0.5091  0.3914
  633MOL0     C85351  11.142   2.370   9.821 -0.0817  0.6896  0.0127
  633MOL0     C85352  11.169   2.414   9.690  0.1772 -0.3837  0.4829
  633MOL0     C85353  11.299   2.428   9.636  0.2843  0.7701 -0.4399
  633MOL0     C85354  11.410   2.376   9.709  0.3996 -0.2888 -0.1635
  633MOL0     O85355  11.537   2.375   9.663 -0.0721 -0.1043 -0.1334
  633MOL0     C85356  11.562   2.417   9.527  0.7686  0.4252  0.4412
  633MOL0     C85357  11.690   2.352   9.485 -0.6992  0.6171 -0.0171
  633MOL0     C85358  11.730   2.399   9.346  0.6397 -0.2162 -0.8889
  633MOL0     C85359  11.881   2.389   9.327  0.0184  0.5945  0.1922
  633MOL0     C85360  11.917   2.435   9.183 -0.0481 -0.2389  0.1107
  633MOL0     C85361  12.074   2.418   9.164  0.8430  0.1491  0.6114
  633MOL0     C85362  12.113   2.430   9.014 -0.0356 -0.6889  0.5431
  633MOL0     C85363  12.256   2.430   8.974 -0.5861 -0.0736 -0.4921
  633MOL0    Cl85364  12.337   2.557   9.068 -0.1863  0.0655  0.1506
  633MOL0     C85365  11.381   2.317   9.833  0.2315  0.7282  0.2019
  633MOL0     C85366  11.254   2.315   9.888  0.5285 -0.5878 -0.1940
  633MOL0     O85367  11.058   2.446  10.071 -0.4770  0.2871 -0.5202
  633MOL0     C85368  10.815   2.387  10.169  1.1736 -0.0913  0.0539
  633MOL0     C85369  10.688   2.350  10.214 -0.3289 -1.3065 -0.0583
  633MOL0     N85370   9.921   2.211  10.212 -0.0466 -0.6264  0.1266
  633MOL0     N85371   9.846   2.155  10.120  0.4575  0.2457  0.7306
  633MOL0     C85372   8.562   1.864  10.085  0.3640 -0.5159  0.1246
  633MOL0     C85373   8.428   1.838  10.090 -0.8401 -0.0929 -0.3089
  633MOL0     C85374   8.013   1.726  10.279 -0.0378  0.3168  0.7687
  633MOL0     C85375   7.978   1.667  10.154  0.1547  0.3625 -0.4457
  633MOL0     C85376   7.844   1.653  10.121 -0.2104 -0.2288  0.3795
  633MOL0     C85377   7.742   1.687  10.209  0.5309 -0.6615 -0.2113
  633MOL0     O85378   7.608   1.674  10.169  0.1730 -0.6525 -0.5776
  633MOL0     C85379   7.511   1.599  10.253  0.5408 -0.2720 -0.2310
  633MOL0     C85380   7.381   1.680  10.263 -0.9050 -0.3849  0.2720
  633MOL0     C85381   7.260   1.600  10.311 -0.4078 -0.1083  0.4234
  633MOL0     C85382   7.128   1.650  10.278  0.2238 -0.3446  0.2017
  633MOL0     C85383   7.010   1.589  10.349 -0.5710 -0.6324  1.0986
  633MOL0     C85384   6.915   1.543  10.411 -0.0087  0.1411  0.6647
  633MOL0     C85385   7.780   1.726  10.339 -0.2215  0.4447 -0.9901
  633MOL0     C85386   7.912   1.749  10.383 -0.2943 -0.8515 -0.8979
  633MOL0     C85387   7.927   1.798  10.528 -0.0800 -0.0259 -0.3676
  633MOL0     H85388   8.422   1.713  10.402  0.2125 -0.1513  0.2882
  633MOL0     H85389   8.667   1.763  10.389  1.1038 -1.2501 -0.4506
  633MOL0     H85390   8.874   1.882  10.334 -0.8120 -0.6127 -0.3364
  633MOL0     H85391   8.883   1.728  10.246 -0.9122  0.5020 -4.4676
  633MOL0     H85392   9.001   1.965  10.114 -0.2176  0.5332  0.9195
  633MOL0     H85393   9.032   1.794  10.082 -0.2784  0.8834 -0.7052
  633MOL0     H85394   9.154   1.765  10.283  0.4338  0.5791  0.8851
  633MOL0     H85395   9.124   1.935  10.330 -3.4665 -0.8777 -1.1976
  633MOL0     H85396   9.270   1.828  10.088 -0.5818  3.4199 -3.1574
  633MOL0     H85397   9.264   1.992  10.123  0.7869 -1.1181 -1.7407
  633MOL0     H85398   9.395   1.933  10.335 -0.7608  0.4009 -0.0686
  633MOL0     H85399   9.409   1.768  10.278  2.1642  0.6286  0.9184
  633MOL0     H85400   9.493   1.887  10.054 -4.2279  5.0162  0.1952
  633MOL0     H85401   9.525   2.024  10.152  2.5164  0.5085 -0.6666
  633MOL0     H85402   9.646   1.748  10.172 -0.8587  0.3634  1.1170
  633MOL0     H85403   9.678   1.870  10.302  2.5045  0.8286  0.2728
  633MOL0     H85404   9.828   1.821  10.060 -1.1676 -0.4846 -0.3767
  633MOL0     H85405   9.715   1.937  10.000  1.5881  0.4339 -1.2556
  633MOL0     H85406   9.994   1.905  10.268 -0.2372 -0.2404 -0.5399
  633MOL0     H85407  10.074   2.236  10.448  2.1779  1.5232 -0.6539
  633MOL0     H85408  10.104   2.060  10.469  0.4769  0.6632  0.4257
  633MOL0     H85409  10.312   2.169  10.421  1.1038  0.5388 -0.5636
  633MOL0     H85410  10.262   2.050  10.292  0.1217 -0.6905  0.7051
  633MOL0     H85411  10.187   2.350  10.286 -1.4906 -0.7223 -0.1930
  633MOL0     H85412  10.192   2.236  10.148  1.3224 -2.0211  0.5369
  633MOL0     H85413  10.417   2.394  10.281  3.3905 -0.6323 -1.8783
  633MOL0     H85414  10.361   2.378  10.117  1.3609 -1.2918 -1.2171
  633MOL0     H85415  10.590   2.129   9.981  2.2355 -2.5471  1.0711
  633MOL0     H85416  10.798   2.217   9.870 -0.6078  0.4526 -0.5315
  633MOL0     H85417  11.092   2.447   9.622  1.2858  0.6216 -0.3373
  633MOL0     H85418  11.305   2.473   9.538 -3.2595  2.0166 -0.2362
  633MOL0     H85419  11.487   2.364   9.468  1.3695 -0.9882  0.9163
  633MOL0     H85420  11.542   2.524   9.512 -3.2229 -0.0446  1.2147
  633MOL0     H85421  11.776   2.372   9.549  0.0781 -2.2557 -0.0344
  633MOL0     H85422  11.679   2.243   9.486 -3.8747  0.7253 -3.0947
  633MOL0     H85423  11.678   2.338   9.272 -1.0852 -2.5162  2.0307
  633MOL0     H85424  11.708   2.505   9.328  0.0664  0.3112  2.2616
  633MOL0     H85425  11.912   2.285   9.340 -2.7668 -0.4931 -0.8825
  633MOL0     H85426  11.934   2.454   9.397 -0.8225  0.9400  0.5289
  633MOL0     H85427  11.884   2.537   9.162 -2.2425 -0.7145  0.9300
  633MOL0     H85428  11.875   2.371   9.105  0.1960 -0.9897  0.5792
  633MOL0     H85429  12.124   2.494   9.224  1.9050  0.0754 -0.1531
  633MOL0     H85430  12.108   2.319   9.198  1.8264 -0.2012 -1.2673
  633MOL0     H85431  12.069   2.529   9.000  0.3775 -0.2277  2.2683
  633MOL0     H85432  12.066   2.349   8.958 -1.3223 -2.4222  3.8125
  633MOL0     H85433  12.293   2.333   9.007 -2.6998 -1.1265 -0.9994
  633MOL0     H85434  12.270   2.433   8.865  1.5777  0.4038 -0.2396
  633MOL0     H85435  11.472   2.277   9.878  0.5485 -0.8327 -1.7136
  633MOL0     H85436  11.230   2.262   9.979  3.7347 -1.6173  0.1810
  633MOL0     H85437  10.875   2.463  10.219  1.0031 -0.4083  0.7467
  633MOL0     H85438  10.657   2.390  10.310  0.5146 -1.8798  0.4703
  633MOL0     H85439   8.609   1.888   9.990  1.9439 -1.6829  0.5735
  633MOL0     H85440   8.367   1.844  10.000 -1.6772  1.4612  0.3310
  633MOL0     H85441   8.059   1.646  10.084  0.6065  2.3665 -0.5835
  633MOL0     H85442   7.817   1.627  10.019 -0.7084  0.2924  0.3731
  633MOL0     H85443   7.547   1.572  10.352  4.1106  0.1492 -1.2712
  633MOL0     H85444   7.494   1.508  10.195  1.0635 -0.0659 -0.7171
  633MOL0     H85445   7.360   1.715  10.161 -0.7020 -1.0963 -0.0195
  633MOL0     H85446   7.381   1.773  10.320 -0.9935 -0.1947 -0.0359
  633MOL0     H85447   7.275   1.589  10.419  0.9541 -1.2915  0.1612
  633MOL0     H85448   7.270   1.504  10.259  1.0427 -0.4086  1.1852
  633MOL0     H85449   7.125   1.756  10.304 -1.9119 -0.5725  1.1011
  633MOL0     H85450   7.111   1.646  10.170  2.9785  0.5319 -0.3350
  633MOL0     H85451   6.829   1.503  10.462 -0.1085 -0.2547  0.1884
  633MOL0     H85452   7.693   1.743  10.403  0.1166 -2.0511  0.2802
  633MOL0     H85453   7.976   1.894  10.547  1.4925 -0.7162 -0.7441
  633MOL0     H85454   7.825   1.804  10.566  0.5393 -0.1151  1.3635
  633MOL0     H85455   7.991   1.725  10.579  0.8844  0.6867 -0.5214
  634MOL0     O85456   6.629   7.098   2.579 -0.0239  0.0576 -0.2838
  634MOL0     C85457   6.669   7.206   2.542  0.2614 -0.1020  0.0606
  634MOL0     O85458   6.619   7.329   2.591  1.1549 -0.3660  0.0689
  634MOL0     C85459   6.500   7.336   2.662 -0.4424 -0.6239 -0.2004
  634MOL0     C85460   6.377   7.342   2.598  0.4965 -0.7014  0.1160
  634MOL0     C85461   6.258   7.362   2.665 -0.0999 -0.3312  0.0386
  634MOL0     C85462   6.256   7.392   2.803  0.1756 -0.6719 -0.1445
  634MOL0     O85463   6.149   7.423   2.888  0.2838  0.2548  0.3365
  634MOL0     C85464   6.022   7.460   2.824 -0.5501 -0.6939 -0.0492
  634MOL0     C85465   6.031   7.590   2.744 -0.4238  0.1759 -0.1285
  634MOL0     C85466   5.901   7.640   2.703 -0.8386 -0.1842  0.5516
  634MOL0     C85467   5.861   7.600   2.561  0.5623  0.3123  0.3660
  634MOL0     C85468   5.824   7.461   2.525  0.7328  0.2133 -0.4749
  634MOL0     C85469   5.683   7.439   2.584 -0.1454  0.0213 -0.6536
  634MOL0     C85470   5.642   7.290   2.559  0.6380 -0.7940 -0.8901
  634MOL0     C85471   5.521   7.260   2.644 -0.8063 -0.7972  0.0633
  634MOL0     N85472   5.450   7.141   2.608 -0.4060  0.9649  0.3127
  634MOL0     C85473   5.520   7.024   2.581  0.3707 -0.8467 -0.6486
  634MOL0     C85474   5.426   6.944   2.522 -0.3977  0.4905  0.3311
  634MOL0     C85475   5.446   6.793   2.486  0.1596 -0.0756 -0.2254
  634MOL0     C85476   5.444   6.702   2.603  0.6294 -0.8406  0.3610
  634MOL0     C85477   5.426   6.561   2.554  0.6618 -0.6874 -0.2299
  634MOL0     C85478   5.537   6.515   2.462 -0.4603  0.0180 -0.5635
  634MOL0     O85479   5.666   6.555   2.510 -0.3151 -0.7496  0.2732
  634MOL0     C85480   5.752   6.562   2.408  0.2511  0.0822 -0.2751
  634MOL0     C85481   5.762   6.473   2.301 -0.8888 -0.3686 -0.3930
  634MOL0     C85482   5.847   6.489   2.194  0.1835 -0.3556 -0.5820
  634MOL0     C85483   5.938   6.603   2.200 -1.4347  0.6176  0.4648
  634MOL0     C85484   6.033   6.618   2.086 -0.4907 -0.5865  0.1604
  634MOL0     O85485   6.029   6.530   1.979 -0.8653 -0.0522  0.2430
  634MOL0     C85486   6.135   6.538   1.893  0.3738  0.5451 -0.1088
  634MOL0     C85487   6.135   6.638   1.791 -1.0312 -0.7608 -0.9564
  634MOL0     C85488   6.255   6.647   1.710  1.1064 -0.5528  0.1861
  634MOL0     C85489   6.360   6.556   1.727 -0.2405 -1.1008  0.1355
  634MOL0     O85490   6.465   6.549   1.640  0.4807 -0.1555  0.0339
  634MOL0     C85491   6.426   6.543   1.502 -0.8008 -0.7951  0.1138
  634MOL0     C85492   6.547   6.503   1.417  0.4856  0.9043 -0.0937
  634MOL0     C85493   6.643   6.624   1.389 -0.4042 -0.1520  0.0869
  634MOL0     C85494   6.785   6.557   1.364 -0.5706  0.0858 -0.0017
  634MOL0     C85495   6.884   6.658   1.305  0.8536 -0.3078 -0.0037
  634MOL0     C85496   6.868   6.670   1.159  0.4538  0.0359  0.0079
  634MOL0     C85497   6.983   6.757   1.100  0.2139  1.2006 -0.7858
  634MOL0     C85498   6.961   6.798   0.956 -0.0335  0.2568  0.5439
  634MOL0    Cl85499   6.831   6.920   0.966 -0.1363 -0.5753  0.2633
  634MOL0     C85500   6.347   6.452   1.823 -0.1830 -0.4700 -0.7958
  634MOL0     C85501   6.233   6.440   1.897  0.1106  1.0342 -0.0142
  634MOL0     O85502   6.113   6.711   2.091  0.5567  0.3463 -0.5651
  634MOL0     C85503   5.933   6.694   2.303 -0.6939  0.3894  0.1362
  634MOL0     C85504   5.837   6.673   2.406  0.4861  1.6846  0.3119
  634MOL0     N85505   5.310   7.006   2.521  0.4600 -0.3378  0.1273
  634MOL0     N85506   5.327   7.128   2.558  0.1433 -0.3210 -1.2007
  634MOL0     C85507   6.378   7.371   2.867  0.0444  0.8047 -0.0632
  634MOL0     C85508   6.499   7.346   2.806  0.0765 -0.8389  0.5916
  634MOL0     C85509   6.798   7.227   2.468 -0.6983 -1.1782 -0.8850
  634MOL0     C85510   6.827   7.357   2.413  0.0195 -0.4709  0.3471
  634MOL0     C85511   6.943   7.389   2.344 -0.1977  0.0938  1.1222
  634MOL0     C85512   7.047   7.298   2.337  0.2601 -0.0965  0.2320
  634MOL0     O85513   7.162   7.316   2.261 -0.3511  0.3941  0.0257
  634MOL0     C85514   7.206   7.455   2.256  0.2173 -0.0452  0.3326
  634MOL0     C85515   7.333   7.474   2.179 -0.0278  0.5358  0.3768
  634MOL0     C85516   7.450   7.395   2.252  0.4149 -0.3390 -0.1966
  634MOL0     C85517   7.585   7.394   2.178  0.4375 -0.2457 -0.0165
  634MOL0     C85518   7.657   7.522   2.170 -0.1329 -0.9005  0.1804
  634MOL0     C85519   7.721   7.622   2.178  0.1272 -0.2772 -0.0997
  634MOL0     C85520   7.015   7.166   2.368 -0.3000  0.1134  0.1809
  634MOL0     C85521   6.900   7.129   2.441  0.9029  0.4246 -0.2880
  634MOL0     C85522   6.882   6.986   2.487  0.6958 -1.1470  0.0683
  634MOL0     H85523   6.382   7.326   2.491 -2.8141 -0.2313 -0.2125
  634MOL0     H85524   6.165   7.365   2.609 -0.4355  2.8757  0.5898
  634MOL0     H85525   5.985   7.383   2.755  0.3661  0.9928 -2.5794
  634MOL0     H85526   5.948   7.475   2.903  2.6049  1.9834  2.6814
  634MOL0     H85527   6.106   7.585   2.664 -0.1272 -2.6099  0.2121
  634MOL0     H85528   6.071   7.664   2.812  1.2770 -0.3989 -0.4556
  634MOL0     H85529   5.900   7.748   2.690  1.8968 -0.3262 -1.8489
  634MOL0     H85530   5.823   7.629   2.779 -4.1292  2.4813 -2.0705
  634MOL0     H85531   5.774   7.660   2.532  0.5785  0.4747  0.6482
  634MOL0     H85532   5.937   7.630   2.489  0.6579  4.3145  1.9113
  634MOL0     H85533   5.813   7.451   2.417 -0.0480  0.4783 -0.4322
  634MOL0     H85534   5.908   7.399   2.556  3.4466  2.9853 -1.8149
  634MOL0     H85535   5.680   7.464   2.691 -0.2618  1.1459 -0.9077
  634MOL0     H85536   5.606   7.499   2.534 -3.2687 -1.7391  1.6817
  634MOL0     H85537   5.721   7.221   2.590 -0.8505 -2.4997 -0.7507
  634MOL0     H85538   5.612   7.268   2.457 -1.6996 -4.8784  0.4350
  634MOL0     H85539   5.548   7.263   2.750 -0.9199 -2.4042  0.1574
  634MOL0     H85540   5.453   7.345   2.641 -0.4297 -0.4172  1.5128
  634MOL0     H85541   5.626   7.000   2.591  1.2507  2.8117  0.2883
  634MOL0     H85542   5.372   6.760   2.413 -0.9461  0.9285  0.4046
  634MOL0     H85543   5.538   6.791   2.429 -0.4724 -0.4100 -1.2533
  634MOL0     H85544   5.532   6.715   2.666 -0.5313  0.7745  1.7509
  634MOL0     H85545   5.362   6.740   2.665  1.4831  2.1792 -0.1690
  634MOL0     H85546   5.327   6.552   2.508 -0.1403 -1.8087  1.6448
  634MOL0     H85547   5.428   6.489   2.636 -0.4792  1.2097  1.5856
  634MOL0     H85548   5.537   6.548   2.357  1.5257  0.4440 -0.4714
  634MOL0     H85549   5.534   6.406   2.470  1.1861  0.0697  1.6817
  634MOL0     H85550   5.720   6.375   2.316 -0.3763 -0.3443  1.4991
  634MOL0     H85551   5.852   6.421   2.110  0.2554  1.0749 -1.7659
  634MOL0     H85552   6.053   6.708   1.776 -0.0331  1.4552  2.6619
  634MOL0     H85553   6.280   6.731   1.645  1.3315  0.6932  1.8219
  634MOL0     H85554   6.340   6.477   1.488 -2.0602  0.8254 -0.1112
  634MOL0     H85555   6.406   6.643   1.463 -0.2387 -0.5741  0.3692
  634MOL0     H85556   6.604   6.421   1.461 -1.4288 -1.5978 -2.0165
  634MOL0     H85557   6.512   6.470   1.319  1.3839  1.6990 -0.7023
  634MOL0     H85558   6.601   6.674   1.301 -1.6995  0.0723  0.8178
  634MOL0     H85559   6.650   6.689   1.477  0.4640 -2.1109  1.5410
  634MOL0     H85560   6.782   6.463   1.308  0.0554  1.0053 -1.6434
  634MOL0     H85561   6.825   6.535   1.464 -0.4221  3.1591  0.7021
  634MOL0     H85562   6.984   6.617   1.320  1.1604 -0.9186 -3.0449
  634MOL0     H85563   6.869   6.750   1.363 -2.1610  3.4911 -5.7405
  634MOL0     H85564   6.886   6.574   1.109 -0.2354  0.2194 -0.6110
  634MOL0     H85565   6.768   6.713   1.146  0.5130  0.6640  1.4787
  634MOL0     H85566   7.076   6.700   1.114  2.1632  4.4113  0.4588
  634MOL0     H85567   6.995   6.845   1.164  0.8780 -0.8923  2.1650
  634MOL0     H85568   7.048   6.845   0.909 -0.9417  1.2082 -0.2268
  634MOL0     H85569   6.931   6.716   0.890  0.7288  0.3648  0.0521
  634MOL0     H85570   6.429   6.380   1.826 -2.3716 -3.0934  0.2795
  634MOL0     H85571   6.221   6.360   1.970 -0.6272  1.7382  0.6434
  634MOL0     H85572   6.001   6.778   2.296  0.0434  0.1212  2.8567
  634MOL0     H85573   5.818   6.741   2.489 -0.8552 -0.3593  1.7726
  634MOL0     H85574   6.376   7.367   2.976  1.0666  3.5261  0.1468
  634MOL0     H85575   6.592   7.336   2.861 -0.1710 -0.2179  1.1378
  634MOL0     H85576   6.743   7.425   2.400  1.9734  1.7897 -1.2623
  634MOL0     H85577   6.954   7.480   2.286  0.0535 -1.3038 -1.1491
  634MOL0     H85578   7.211   7.510   2.351  0.4790 -0.2224  0.4227
  634MOL0     H85579   7.142   7.523   2.199  1.4685  0.2390 -0.7573
  634MOL0     H85580   7.354   7.582   2.178  0.2675  0.4762 -0.5119
  634MOL0     H85581   7.325   7.441   2.075  1.9097 -1.2939  0.7515
  634MOL0     H85582   7.420   7.291   2.269 -0.7395 -0.5788 -3.1363
  634MOL0     H85583   7.467   7.442   2.350  0.0667 -0.9829  0.1828
  634MOL0     H85584   7.656   7.331   2.233  1.1619  1.2783  0.8545
  634MOL0     H85585   7.554   7.350   2.082  1.2809 -0.3345 -0.2556
  634MOL0     H85586   7.760   7.718   2.204 -1.6277  0.5713 -0.4493
  634MOL0     H85587   7.081   7.091   2.326 -1.2448 -0.0992 -0.9693
  634MOL0     H85588   6.961   6.925   2.444  0.7071 -0.5364 -0.7983
  634MOL0     H85589   6.883   6.982   2.597 -0.1943  2.2391  0.3026
  634MOL0     H85590   6.787   6.941   2.456  0.1759 -2.2968  2.9322
  635MOL0     O85591   9.239   9.402   2.874 -0.4820 -0.3513  0.0560
  635MOL0     C85592   9.277   9.518   2.896  0.3977  0.8002 -0.4761
  635MOL0     O85593   9.374   9.554   2.994 -0.5583 -0.2765  0.3606
  635MOL0     C85594   9.442   9.455   3.055  0.8300  0.7500 -0.3500
  635MOL0     C85595   9.569   9.408   3.021  0.4665  0.6092  0.0110
  635MOL0     C85596   9.623   9.298   3.083  0.1406  0.4495 -0.0733
  635MOL0     C85597   9.560   9.240   3.188  0.3307 -0.4129  0.2205
  635MOL0     O85598   9.609   9.127   3.257 -0.3231  0.6018  0.1546
  635MOL0     C85599   9.744   9.150   3.306  0.3584 -0.1349  0.0505
  635MOL0     C85600   9.765   9.045   3.412 -0.3073  0.7453  0.3125
  635MOL0     C85601   9.782   8.902   3.354 -0.5993 -0.2736 -0.2469
  635MOL0     C85602   9.922   8.859   3.327  0.9281  0.0285 -0.3095
  635MOL0     C85603   9.928   8.718   3.279 -0.5706  0.3977  0.1425
  635MOL0     C85604   9.847   8.604   3.348  0.0919 -0.0603 -0.4420
  635MOL0     C85605   9.928   8.475   3.335  0.2957  0.4144  0.0828
  635MOL0     C85606   9.949   8.434   3.185 -0.1781 -0.0391 -0.5035
  635MOL0     N85607  10.032   8.317   3.182  0.6091 -0.3529  0.5985
  635MOL0     C85608   9.997   8.193   3.221  1.0663  0.5690 -0.4833
  635MOL0     C85609  10.109   8.117   3.217  0.0588 -0.6001 -0.4950
  635MOL0     C85610  10.133   7.971   3.251  0.0098  0.6588 -0.7785
  635MOL0     C85611  10.040   7.916   3.369 -0.2407 -0.2521  0.4263
  635MOL0     C85612  10.036   8.005   3.494 -0.4168  0.0937  0.0207
  635MOL0     C85613  10.184   8.027   3.540 -0.1904  0.4909 -0.0317
  635MOL0     O85614  10.259   7.905   3.555 -0.7402  0.4507  0.5539
  635MOL0     C85615  10.388   7.931   3.601 -0.8917  0.7409  0.4621
  635MOL0     C85616  10.481   7.841   3.548 -0.0452  0.1517 -0.4102
  635MOL0     C85617  10.615   7.859   3.578 -0.4037 -0.2876  0.7939
  635MOL0     C85618  10.664   7.962   3.654  0.6411 -0.1773 -1.3445
  635MOL0     C85619  10.800   7.965   3.677  0.8109  0.5877  0.3639
  635MOL0     O85620  10.879   7.885   3.601 -0.1767  0.0995 -0.0076
  635MOL0     C85621  11.013   7.870   3.618  0.2807 -0.3656 -1.2087
  635MOL0     C85622  11.103   7.958   3.684 -0.3298  0.6491  0.2827
  635MOL0     C85623  11.240   7.931   3.704 -1.1256 -1.0496 -0.4924
  635MOL0     C85624  11.289   7.813   3.652 -1.1110 -0.4308  0.0337
  635MOL0     O85625  11.420   7.778   3.642  0.2345  0.6983 -0.1382
  635MOL0     C85626  11.523   7.846   3.720 -0.5998  1.2394 -0.0532
  635MOL0     C85627  11.652   7.756   3.726  0.1186  0.3941 -0.1955
  635MOL0     C85628  11.753   7.762   3.605 -0.1404 -0.1547  0.0382
  635MOL0     C85629  11.860   7.658   3.612 -0.4400  0.2627 -0.2656
  635MOL0     C85630  11.897   7.573   3.479  0.3550 -0.0855  0.1081
  635MOL0     C85631  11.772   7.490   3.432  0.3036 -0.4706 -0.2554
  635MOL0     C85632  11.795   7.400   3.316 -0.3654  0.2846 -0.1478
  635MOL0     C85633  11.668   7.398   3.228 -0.0147 -0.4363  0.4146
  635MOL0    Cl85634  11.710   7.308   3.084  0.1371  0.1650 -0.0188
  635MOL0     C85635  11.208   7.725   3.594 -0.7208  0.5445  0.4693
  635MOL0     C85636  11.072   7.745   3.573 -0.7702  0.4249  0.3961
  635MOL0     O85637  10.836   8.032   3.775  0.1159  0.4630  0.0985
  635MOL0     C85638  10.571   8.060   3.706 -0.1471  0.7942  0.4146
  635MOL0     C85639  10.435   8.045   3.680  0.5173 -1.1230  0.7132
  635MOL0     N85640  10.211   8.196   3.178  0.7556 -0.2777 -0.3718
  635MOL0     N85641  10.163   8.318   3.158  0.5827  0.2479  0.0139
  635MOL0     C85642   9.439   9.295   3.229  0.6484 -0.0925 -0.6446
  635MOL0     C85643   9.381   9.401   3.168  0.1126 -0.1096 -0.8950
  635MOL0     C85644   9.225   9.627   2.812 -0.9806  0.1362 -0.2974
  635MOL0     C85645   9.318   9.723   2.763 -0.0411  0.0254 -0.8532
  635MOL0     C85646   9.274   9.829   2.686 -0.0123 -0.5906 -0.3701
  635MOL0     C85647   9.138   9.833   2.649  0.2989  0.2225 -0.1348
  635MOL0     O85648   9.096   9.937   2.569 -0.6283 -0.2892 -0.5325
  635MOL0     C85649   8.949   9.944   2.542  0.3075  0.0769  0.1204
  635MOL0     C85650   8.910  10.067   2.467  0.1053 -0.5378  0.6135
  635MOL0     C85651   8.947  10.053   2.316  0.7609 -0.0251 -0.7184
  635MOL0     C85652   8.955  10.181   2.236  0.5487  0.5434 -0.3951
  635MOL0     C85653   8.826  10.249   2.219  0.2803 -0.2797 -0.2711
  635MOL0     C85654   8.728  10.321   2.212 -0.2728  0.7656  0.7677
  635MOL0     C85655   9.047   9.724   2.682 -0.4508 -0.6161 -0.3896
  635MOL0     C85656   9.089   9.627   2.770  0.1124  0.8419 -0.2901
  635MOL0     C85657   8.988   9.517   2.799  0.1239 -0.2459 -0.5903
  635MOL0     H85658   9.617   9.446   2.931 -0.1618  0.1050 -0.5452
  635MOL0     H85659   9.713   9.252   3.042 -0.5329  0.2087 -1.3254
  635MOL0     H85660   9.823   9.135   3.232  2.3052  1.0900  1.7846
  635MOL0     H85661   9.749   9.252   3.344 -2.3509  0.0528  0.1027
  635MOL0     H85662   9.685   9.040   3.486  1.6099  0.0023  2.4892
  635MOL0     H85663   9.854   9.070   3.471  0.4421  1.9608 -1.2479
  635MOL0     H85664   9.732   8.890   3.258  0.0558 -1.4021 -0.4635
  635MOL0     H85665   9.734   8.839   3.429 -2.7316  1.0150 -0.4418
  635MOL0     H85666   9.981   8.923   3.261  3.4240 -1.5173  0.2796
  635MOL0     H85667   9.973   8.857   3.423 -1.3139  3.5580  1.1387
  635MOL0     H85668   9.886   8.708   3.179 -1.0616 -3.8204  0.5509
  635MOL0     H85669  10.034   8.694   3.289 -0.8222 -0.4073  1.0158
  635MOL0     H85670   9.833   8.621   3.455 -0.6544  2.1538 -0.8362
  635MOL0     H85671   9.746   8.594   3.306 -0.5042  2.7097  0.1354
  635MOL0     H85672   9.880   8.389   3.382  1.8695 -0.9460 -0.6841
  635MOL0     H85673  10.021   8.480   3.393 -0.4022 -0.1164  1.2713
  635MOL0     H85674   9.853   8.417   3.135  0.6941 -0.5161 -2.0666
  635MOL0     H85675  10.000   8.508   3.122  0.9385  0.1103  0.5624
  635MOL0     H85676   9.894   8.158   3.229  0.5868  2.0861  0.4777
  635MOL0     H85677  10.116   7.920   3.156  1.8692  2.1086 -1.9569
  635MOL0     H85678  10.237   7.961   3.284 -0.2412  0.9816  0.1314
  635MOL0     H85679   9.942   7.908   3.321 -0.8916 -2.4527  1.9683
  635MOL0     H85680  10.063   7.811   3.389  1.2904  0.0083  0.1552
  635MOL0     H85681   9.976   7.950   3.567 -1.2128 -0.3369 -0.9289
  635MOL0     H85682   9.984   8.100   3.481 -0.5448 -0.0071 -0.2073
  635MOL0     H85683  10.179   8.094   3.627 -4.1759 -2.2758  2.2327
  635MOL0     H85684  10.238   8.085   3.465  0.6160 -2.8820 -2.2655
  635MOL0     H85685  10.447   7.757   3.488 -1.0328  0.2408 -0.0059
  635MOL0     H85686  10.682   7.800   3.517 -1.4544  0.9077 -1.6714
  635MOL0     H85687  11.075   8.051   3.731 -0.5000 -0.1983  1.9348
  635MOL0     H85688  11.294   7.995   3.771 -3.5266 -1.1312  1.6593
  635MOL0     H85689  11.558   7.935   3.668 -1.8014  1.5156 -0.4366
  635MOL0     H85690  11.490   7.869   3.821 -1.3726  0.3232 -0.0702
  635MOL0     H85691  11.707   7.783   3.816 -0.2411  0.6817 -0.0600
  635MOL0     H85692  11.618   7.652   3.732 -1.0873  0.7544 -0.5542
  635MOL0     H85693  11.695   7.736   3.515 -2.1380 -0.0186  1.2213
  635MOL0     H85694  11.797   7.862   3.606  0.7812 -0.5493 -0.4041
  635MOL0     H85695  11.831   7.584   3.687  4.6457 -0.9294  0.9290
  635MOL0     H85696  11.953   7.704   3.648 -0.3239 -1.4000  1.6993
  635MOL0     H85697  11.972   7.499   3.506  0.3090  0.6253  2.4112
  635MOL0     H85698  11.935   7.632   3.395 -0.2073  0.4449  0.2184
  635MOL0     H85699  11.717   7.447   3.516 -2.4450  1.2928 -1.0148
  635MOL0     H85700  11.698   7.554   3.383  1.9589  1.4685 -0.3585
  635MOL0     H85701  11.817   7.294   3.330  1.6016  0.9410  2.4469
  635MOL0     H85702  11.877   7.444   3.259 -1.4600  0.9856 -1.2454
  635MOL0     H85703  11.591   7.335   3.274 -0.9991  0.0793 -0.4985
  635MOL0     H85704  11.630   7.496   3.200 -1.2689 -0.6796  1.1991
  635MOL0     H85705  11.260   7.635   3.563 -0.5992  0.0965  1.9119
  635MOL0     H85706  11.014   7.672   3.518  0.5315 -0.2674 -0.1166
  635MOL0     H85707  10.616   8.130   3.777  4.3399 -2.1328  0.9191
  635MOL0     H85708  10.379   8.134   3.709  1.1486 -0.0667 -1.1106
  635MOL0     H85709   9.392   9.243   3.312  1.2710 -0.6311 -0.6231
  635MOL0     H85710   9.297   9.454   3.211  2.5078  1.8243  1.8393
  635MOL0     H85711   9.420   9.728   2.800 -0.3724 -0.4519  0.1757
  635MOL0     H85712   9.340   9.912   2.664 -1.2686  0.4658 -0.2798
  635MOL0     H85713   8.898   9.932   2.637  1.3885  1.5129  0.9235
  635MOL0     H85714   8.915   9.858   2.483 -3.1212  0.3937  1.3991
  635MOL0     H85715   8.962  10.148   2.518 -0.8642  0.7334 -0.3330
  635MOL0     H85716   8.803  10.086   2.474 -0.0286 -0.3080 -1.3724
  635MOL0     H85717   8.866   9.987   2.285 -2.6724  1.9207  3.0948
  635MOL0     H85718   9.043  10.001   2.320  0.9248  0.2263  3.5639
  635MOL0     H85719   9.006  10.260   2.293  1.4588 -1.4413  1.7210
  635MOL0     H85720   9.002  10.168   2.138  0.9229  0.1135 -0.1646
  635MOL0     H85721   8.653  10.396   2.226  0.5698  1.4085  2.1642
  635MOL0     H85722   8.943   9.721   2.653 -1.0786 -0.3395  1.6607
  635MOL0     H85723   9.017   9.423   2.753 -2.1803 -0.6072 -1.4308
  635MOL0     H85724   8.984   9.509   2.908 -2.9589  0.6336 -0.5176
  635MOL0     H85725   8.884   9.534   2.770 -0.4208 -2.4059 -0.0699
  636MOL0     O85726   5.146  10.253   0.004  0.4158  1.0083  0.1238
  636MOL0     C85727   5.103  10.355  -0.052  0.1103  0.1049 -0.3129
  636MOL0     O85728   5.177  10.447  -0.126 -0.0525  0.6236 -0.1435
  636MOL0     C85729   5.302  10.412  -0.155 -1.2001  0.1914 -0.4349
  636MOL0     C85730   5.333  10.345  -0.276  0.6898  1.0840 -0.5052
  636MOL0     C85731   5.464  10.320  -0.301  0.6646 -0.0490  0.0039
  636MOL0     C85732   5.566  10.363  -0.216 -0.2032 -0.0400 -0.0257
  636MOL0     O85733   5.693  10.339  -0.267 -0.1858 -0.0931  0.4163
  636MOL0     C85734   5.788  10.332  -0.165 -0.4988  0.8233  0.4391
  636MOL0     C85735   5.930  10.318  -0.230 -0.4050  0.2273 -0.3929
  636MOL0     C85736   5.951  10.426  -0.338  0.0326  0.5235  0.4057
  636MOL0     C85737   6.086  10.412  -0.413 -1.4782 -0.2338 -0.5961
  636MOL0     C85738   6.163  10.540  -0.458 -0.5447 -0.7836 -0.5017
  636MOL0     C85739   6.314  10.517  -0.490  0.3118 -0.3745  0.5961
  636MOL0     C85740   6.329  10.394  -0.575 -1.0373 -0.0315 -0.0896
  636MOL0     C85741   6.475  10.392  -0.633 -0.3390  0.2154 -0.2192
  636MOL0     N85742   6.496  10.313  -0.753  0.4671 -0.3364 -0.8786
  636MOL0     C85743   6.504  10.178  -0.767  0.5794  0.5265  0.6157
  636MOL0     C85744   6.525  10.154  -0.894  0.3449  0.0032  1.0129
  636MOL0     C85745   6.566  10.017  -0.951 -0.2664 -0.6835  0.3730
  636MOL0     C85746   6.688   9.963  -0.867  0.2929  0.3181 -0.1570
  636MOL0     C85747   6.756   9.841  -0.941  0.3638 -0.3300  0.1520
  636MOL0     C85748   6.907   9.855  -0.942 -0.4120 -0.4440  0.7419
  636MOL0     O85749   6.957   9.979  -0.986 -0.3671 -0.0483 -0.0141
  636MOL0     C85750   7.099  10.002  -0.962  0.3936  0.1925  0.2418
  636MOL0     C85751   7.201   9.910  -0.980 -0.6119 -0.0623  0.2317
  636MOL0     C85752   7.338   9.936  -0.949 -0.2850  0.0577  0.5966
  636MOL0     C85753   7.374  10.068  -0.907  0.2126  0.0445 -0.3174
  636MOL0     C85754   7.511  10.100  -0.876  0.1335 -0.1198 -0.7642
  636MOL0     O85755   7.598  10.003  -0.848 -0.8458 -0.3863  0.2568
  636MOL0     C85756   7.728  10.022  -0.823 -0.2261 -0.7149  0.3508
  636MOL0     C85757   7.821   9.920  -0.863 -0.2721 -1.5549 -0.1775
  636MOL0     C85758   7.962   9.928  -0.824  0.2430 -0.7217 -0.6876
  636MOL0     C85759   8.000  10.034  -0.746  0.0646  0.4384  0.1539
  636MOL0     O85760   8.133  10.048  -0.727  0.0961  0.3871 -0.2793
  636MOL0     C85761   8.181  10.095  -0.602  0.2386  0.1972 -0.4637
  636MOL0     C85762   8.327  10.142  -0.607 -0.1635  0.4528  0.4436
  636MOL0     C85763   8.410  10.035  -0.678  0.7113 -0.3435 -0.0165
  636MOL0     C85764   8.558  10.046  -0.643  0.0925  0.1268 -0.0929
  636MOL0     C85765   8.658   9.945  -0.710 -0.4077  0.6995 -0.3622
  636MOL0     C85766   8.800   9.984  -0.692  0.1871  0.0566  0.2546
  636MOL0     C85767   8.858   9.944  -0.551 -0.0502  0.5682  0.3257
  636MOL0     C85768   9.016   9.949  -0.555  0.2341  0.7774  0.1529
  636MOL0    Cl85769   9.066   9.905  -0.394  0.2385  0.0308  0.5718
  636MOL0     C85770   7.912  10.129  -0.703 -0.0313 -0.7140  0.3938
  636MOL0     C85771   7.781  10.121  -0.747 -0.5279  0.1582 -0.3127
  636MOL0     O85772   7.543  10.216  -0.901 -0.5837  0.7229 -0.5037
  636MOL0     C85773   7.275  10.166  -0.907  1.5737  0.7176 -0.7674
  636MOL0     C85774   7.139  10.130  -0.934  0.2444 -0.3606 -0.2627
  636MOL0     N85775   6.516  10.279  -0.969  0.6143  0.4925  0.0409
  636MOL0     N85776   6.503  10.367  -0.873  0.4181  1.0518 -0.0858
  636MOL0     C85777   5.539  10.439  -0.098  0.3828  0.0276 -0.5722
  636MOL0     C85778   5.406  10.451  -0.064 -0.3625  0.6873  0.3620
  636MOL0     C85779   4.960  10.396  -0.035  1.1363  0.3859  0.5232
  636MOL0     C85780   4.848  10.305  -0.063 -0.3012  0.2268  0.1161
  636MOL0     C85781   4.717  10.355  -0.046 -0.4645 -0.2725  0.4381
  636MOL0     C85782   4.688  10.478   0.008 -0.1851 -1.0084 -0.4829
  636MOL0     O85783   4.559  10.522   0.000  0.0024 -0.6876  0.3972
  636MOL0     C85784   4.522  10.661   0.013 -0.4932  0.8148 -0.8625
  636MOL0     C85785   4.370  10.672  -0.019 -0.2085  0.2873  0.2387
  636MOL0     C85786   4.343  10.626  -0.165  0.0956  0.4191 -0.0382
  636MOL0     C85787   4.208  10.652  -0.226  0.5558 -1.5078  1.0351
  636MOL0     C85788   4.105  10.611  -0.139  0.9417 -0.3282  0.1978
  636MOL0     C85789   4.014  10.562  -0.077  0.0684  0.4595 -0.4615
  636MOL0     C85790   4.800  10.572   0.051  0.1292  0.2219 -0.7567
  636MOL0     C85791   4.935  10.517   0.031 -0.4001 -0.1650  1.3246
  636MOL0     C85792   5.049  10.605   0.074  0.1303 -0.4726  0.4054
  636MOL0     H85793   5.257  10.312  -0.347  1.4054 -1.1157 -0.3296
  636MOL0     H85794   5.492  10.261  -0.387  0.6642 -0.1488  0.0721
  636MOL0     H85795   5.794  10.407  -0.086  1.1823 -0.1267  1.2544
  636MOL0     H85796   5.779  10.242  -0.102 -1.2511  2.2176  2.4430
  636MOL0     H85797   5.946  10.216  -0.269  1.2998  0.6979 -1.0409
  636MOL0     H85798   5.996  10.340  -0.145 -0.0357 -3.4604  0.4627
  636MOL0     H85799   5.951  10.523  -0.288  1.5381  1.9906 -2.2252
  636MOL0     H85800   5.867  10.430  -0.408 -2.6517  6.2172  3.2343
  636MOL0     H85801   6.159  10.358  -0.352 -0.7615  1.8964  0.5279
  636MOL0     H85802   6.065  10.346  -0.498 -2.9480  0.6560 -0.9602
  636MOL0     H85803   6.122  10.578  -0.552  0.1077 -0.6803 -0.7483
  636MOL0     H85804   6.146  10.614  -0.379  0.6424 -1.9499  0.9197
  636MOL0     H85805   6.346  10.599  -0.554 -0.5173 -3.1018 -3.7340
  636MOL0     H85806   6.373  10.511  -0.397  1.3656  1.5942  0.1035
  636MOL0     H85807   6.251  10.405  -0.650 -3.3045 -0.5245  2.0462
  636MOL0     H85808   6.315  10.298  -0.525  4.3320 -1.4743 -0.6705
  636MOL0     H85809   6.506  10.496  -0.651 -1.5242  0.2546 -2.4460
  636MOL0     H85810   6.548  10.348  -0.565  2.1308  1.5539 -1.8632
  636MOL0     H85811   6.500  10.103  -0.688 -0.9739 -1.1668 -0.9778
  636MOL0     H85812   6.484   9.949  -0.974 -0.2288 -0.1807 -1.4182
  636MOL0     H85813   6.607  10.032  -1.051 -0.5295 -1.0497  0.2112
  636MOL0     H85814   6.751  10.048  -0.838 -1.3326  1.2521  0.7975
  636MOL0     H85815   6.651   9.934  -0.768  1.9595  2.0573  1.0455
  636MOL0     H85816   6.712   9.822  -1.039  0.3708  1.0357 -0.1361
  636MOL0     H85817   6.731   9.744  -0.897  1.0363 -1.1182 -1.1614
  636MOL0     H85818   6.932   9.776  -1.013 -5.2137 -0.3567 -1.4634
  636MOL0     H85819   6.945   9.840  -0.840  0.5609 -0.0062  0.4522
  636MOL0     H85820   7.181   9.807  -1.006  1.9576 -1.2714  2.5487
  636MOL0     H85821   7.408   9.854  -0.962  1.9068  1.9558 -0.3392
  636MOL0     H85822   7.776   9.850  -0.933 -0.1392 -1.4829 -0.3355
  636MOL0     H85823   8.036   9.857  -0.859  0.4091 -1.0868  0.3615
  636MOL0     H85824   8.126  10.177  -0.555  0.5002 -0.4802  1.0860
  636MOL0     H85825   8.176  10.012  -0.531 -2.1846 -0.2706 -1.0888
  636MOL0     H85826   8.332  10.238  -0.660 -3.1792  1.0351  1.0335
  636MOL0     H85827   8.360  10.150  -0.503  1.3951 -3.3320  0.4044
  636MOL0     H85828   8.362   9.937  -0.665 -1.6141  0.5602 -1.2018
  636MOL0     H85829   8.401  10.056  -0.784  0.2764 -0.6087 -0.0368
  636MOL0     H85830   8.559  10.008  -0.540 -0.5086  0.6235  0.0985
  636MOL0     H85831   8.594  10.148  -0.657 -3.0027  1.1850 -1.2600
  636MOL0     H85832   8.655   9.948  -0.819  0.0023  1.6481 -0.3534
  636MOL0     H85833   8.646   9.842  -0.676  3.1722 -0.1153 -1.1136
  636MOL0     H85834   8.867   9.926  -0.757  2.9161 -0.6894  3.4252
  636MOL0     H85835   8.806  10.089  -0.723  1.6469 -0.7959 -2.7318
  636MOL0     H85836   8.823   9.843  -0.531 -1.2981  0.9949  0.4176
  636MOL0     H85837   8.817  10.009  -0.472  1.3103  2.1555 -0.2043
  636MOL0     H85838   9.045   9.873  -0.627 -2.7438 -0.7978  0.4471
  636MOL0     H85839   9.049  10.045  -0.597 -0.8674  0.1862 -2.1958
  636MOL0     H85840   7.945  10.213  -0.643 -1.0236 -1.3464  1.9105
  636MOL0     H85841   7.713  10.194  -0.703  0.6898  0.9504  0.3209
  636MOL0     H85842   7.297  10.270  -0.884 -0.0571  1.4267 -2.2237
  636MOL0     H85843   7.067  10.211  -0.927  3.0217  2.2960 -0.7626
  636MOL0     H85844   5.616  10.471  -0.029 -0.0890 -2.0235  0.9965
  636MOL0     H85845   5.398  10.511   0.026  2.4610  2.3105 -0.3331
  636MOL0     H85846   4.851  10.201  -0.093 -0.3177  0.8223 -2.0996
  636MOL0     H85847   4.629  10.297  -0.073  0.9189 -1.5206 -1.7264
  636MOL0     H85848   4.576  10.724  -0.058  1.6052  1.0171  0.8247
  636MOL0     H85849   4.538  10.701   0.113 -1.6805 -0.1607 -0.2515
  636MOL0     H85850   4.335  10.775  -0.011  0.2083  0.3380  1.4957
  636MOL0     H85851   4.310  10.615   0.052 -0.0995  0.1073  0.1858
  636MOL0     H85852   4.356  10.518  -0.161  2.4361  0.6569  2.2092
  636MOL0     H85853   4.422  10.668  -0.228 -1.1477  0.2423 -1.7649
  636MOL0     H85854   4.196  10.761  -0.233  0.3069 -1.5721  0.3236
  636MOL0     H85855   4.204  10.619  -0.331 -0.5180  0.4918  0.3767
  636MOL0     H85856   3.927  10.518  -0.031  0.2566  0.9447  0.3874
  636MOL0     H85857   4.794  10.670   0.096  0.7056 -0.2211  0.3193
  636MOL0     H85858   5.018  10.665   0.160 -0.6126 -0.7891  0.3666
  636MOL0     H85859   5.137  10.547   0.103  2.0523 -1.1968 -5.4515
  636MOL0     H85860   5.092  10.671  -0.003  0.4435  0.4405  1.3385
  637MOL0     O85861   0.304   9.599   0.640  0.2470 -0.1236  0.3065
  637MOL0     C85862   0.256   9.488   0.622  0.9845 -0.3521 -0.1107
  637MOL0     O85863   0.331   9.379   0.583 -0.0159  0.6508  0.1843
  637MOL0     C85864   0.467   9.380   0.573  0.3443  0.3905 -0.7271
  637MOL0     C85865   0.527   9.310   0.476 -0.5216 -0.6182 -0.7672
  637MOL0     C85866   0.660   9.296   0.472 -0.1998  0.2504  0.6074
  637MOL0     C85867   0.736   9.344   0.579 -1.2647  0.4823 -0.4526
  637MOL0     O85868   0.864   9.298   0.575  0.1519  0.8342  0.6811
  637MOL0     C85869   0.967   9.397   0.594  1.3979 -0.4713 -1.2990
  637MOL0     C85870   1.092   9.374   0.507 -0.9157 -0.6918  0.0238
  637MOL0     C85871   1.185   9.492   0.505  0.4093 -0.5823 -0.1923
  637MOL0     C85872   1.311   9.456   0.437 -0.1907 -0.2543  0.0725
  637MOL0     C85873   1.414   9.578   0.432 -0.2176  0.5858  0.0181
  637MOL0     C85874   1.558   9.549   0.376  0.5854 -0.1681  0.0644
  637MOL0     C85875   1.658   9.665   0.394  0.0778 -0.3821  0.0529
  637MOL0     C85876   1.693   9.680   0.539  0.1936  0.4607  0.3458
  637MOL0     N85877   1.827   9.737   0.572 -0.4237 -0.6100  0.1383
  637MOL0     C85878   1.842   9.828   0.673  0.2232  0.5232 -0.0180
  637MOL0     C85879   1.961   9.884   0.658 -0.5914  0.0029 -0.2635
  637MOL0     C85880   2.017   9.996   0.735 -0.2469  0.1414 -0.0367
  637MOL0     C85881   2.172   9.991   0.753  0.1694 -0.1443 -0.6073
  637MOL0     C85882   2.202   9.858   0.816 -0.7582 -0.0193 -0.9136
  637MOL0     C85883   2.350   9.858   0.854  0.0501  0.0320 -0.6162
  637MOL0     O85884   2.433   9.828   0.729 -0.3775  0.4575 -0.8949
  637MOL0     C85885   2.567   9.825   0.757  0.0999  0.2008 -0.4567
  637MOL0     C85886   2.652   9.786   0.657 -0.2763  1.2412  0.1977
  637MOL0     C85887   2.790   9.771   0.684 -0.0937 -1.1763  0.3604
  637MOL0     C85888   2.849   9.811   0.807  0.1753  0.2679  0.8883
  637MOL0     C85889   2.994   9.805   0.824  0.9687  0.7533 -0.2490
  637MOL0     O85890   3.028   9.835   0.951  0.4911  0.0305 -0.4076
  637MOL0     C85891   3.161   9.835   0.979 -0.3978 -0.8041  0.4010
  637MOL0     C85892   3.239   9.953   0.976  0.3665  0.5255  0.8136
  637MOL0     C85893   3.375   9.946   0.996 -0.1874 -0.1719 -0.3717
  637MOL0     C85894   3.443   9.829   1.024 -0.4739 -0.1590  0.2307
  637MOL0     O85895   3.589   9.852   1.032  0.2969 -0.0056 -0.7713
  637MOL0     C85896   3.660   9.752   1.098 -0.6694  0.5558  0.0101
  637MOL0     C85897   3.813   9.782   1.100  0.3072 -0.4857 -0.5121
  637MOL0     C85898   3.833   9.922   1.171 -0.2268 -0.5827 -0.4139
  637MOL0     C85899   3.980   9.985   1.136  0.3546  1.2422 -0.2483
  637MOL0     C85900   4.032  10.064   1.258  0.7470  0.4334 -0.9929
  637MOL0     C85901   4.188  10.099   1.245 -0.2115  0.9656 -0.5749
  637MOL0     C85902   4.223  10.167   1.115  0.4107 -0.4331  0.0193
  637MOL0     C85903   4.369  10.211   1.120 -0.0307 -0.1390  0.9048
  637MOL0    Cl85904   4.408  10.337   1.239 -0.2933  0.0482  0.0064
  637MOL0     C85905   3.362   9.711   1.051  0.2505 -0.8651 -0.6018
  637MOL0     C85906   3.226   9.715   1.027  0.1796  0.5111 -0.3835
  637MOL0     O85907   3.064   9.783   0.727  0.0138 -0.2502  0.1575
  637MOL0     C85908   2.766   9.856   0.909 -0.1969  0.2924  0.3439
  637MOL0     C85909   2.628   9.863   0.886  0.2312  0.1678 -0.4813
  637MOL0     N85910   2.024   9.835   0.539 -0.4284  0.7605  0.3504
  637MOL0     N85911   1.937   9.747   0.492  0.8705 -0.0914  0.4136
  637MOL0     C85912   0.677   9.430   0.676  0.3832  0.3271  0.1162
  637MOL0     C85913   0.538   9.445   0.672 -0.6907 -0.4560 -0.3707
  637MOL0     C85914   0.106   9.484   0.640 -0.1967 -0.0732 -0.3767
  637MOL0     C85915   0.041   9.605   0.681  0.3484  1.7892  0.1638
  637MOL0     C85916  -0.101   9.603   0.707  0.4407  0.2892 -0.2653
  637MOL0     C85917  -0.174   9.486   0.680  0.1899 -0.2573 -0.5532
  637MOL0     O85918  -0.306   9.495   0.676  0.3942  0.3389  1.1555
  637MOL0     C85919  -0.357   9.593   0.576 -0.3308  0.2941  0.3677
  637MOL0     C85920  -0.462   9.536   0.480 -0.0680  0.3248 -0.2772
  637MOL0     C85921  -0.576   9.458   0.547 -0.1403  0.1816 -0.7209
  637MOL0     C85922  -0.534   9.313   0.555  0.1823  0.3948  0.5371
  637MOL0     C85923  -0.627   9.248   0.647  0.6464  0.8047  0.4435
  637MOL0     C85924  -0.689   9.172   0.722  0.1427  0.0725  0.8791
  637MOL0     C85925  -0.112   9.370   0.635  0.0626 -0.1319 -0.0879
  637MOL0     C85926   0.024   9.365   0.619  0.1843  0.9375 -0.2314
  637MOL0     C85927   0.090   9.232   0.586 -0.2518  0.0763 -0.2822
  637MOL0     H85928   0.471   9.239   0.415  0.8063 -1.0558 -1.5161
  637MOL0     H85929   0.708   9.227   0.403  2.8802  0.9846  1.9009
  637MOL0     H85930   0.934   9.498   0.569  0.8325 -0.9558 -2.5529
  637MOL0     H85931   0.995   9.403   0.700  2.7318  1.7420 -1.7084
  637MOL0     H85932   1.053   9.353   0.407  0.5001  2.9191 -1.4331
  637MOL0     H85933   1.139   9.279   0.534  0.1058 -0.4218 -0.7352
  637MOL0     H85934   1.222   9.526   0.603  0.4452 -1.1465 -0.0063
  637MOL0     H85935   1.139   9.580   0.459 -2.9294 -1.3598  1.3636
  637MOL0     H85936   1.355   9.374   0.495  0.5748  2.6357  4.0166
  637MOL0     H85937   1.290   9.437   0.331  1.4696  1.3816 -0.6001
  637MOL0     H85938   1.374   9.669   0.386 -1.3233 -0.6950 -1.6835
  637MOL0     H85939   1.430   9.601   0.538 -0.6628  1.5853 -0.1269
  637MOL0     H85940   1.593   9.465   0.437  1.0120  0.2986  0.4646
  637MOL0     H85941   1.559   9.520   0.270  1.5954 -0.5228  0.1584
  637MOL0     H85942   1.617   9.764   0.374 -0.2835 -0.2048  1.4954
  637MOL0     H85943   1.741   9.644   0.327 -1.4605 -0.2008 -2.0122
  637MOL0     H85944   1.624   9.751   0.585 -1.4308 -1.3498  0.8790
  637MOL0     H85945   1.677   9.584   0.589 -0.5870 -0.6385 -1.8736
  637MOL0     H85946   1.776   9.861   0.753  0.4796  2.4693 -0.5534
  637MOL0     H85947   1.993  10.094   0.692 -2.8544  0.3981  1.7724
  637MOL0     H85948   1.984   9.991   0.839  0.2283  0.8460  0.1575
  637MOL0     H85949   2.222  10.001   0.657 -0.8604 -1.0441 -1.2726
  637MOL0     H85950   2.212  10.066   0.821 -0.4968 -1.9457  1.9345
  637MOL0     H85951   2.194   9.771   0.750  4.0514 -0.8709 -0.7468
  637MOL0     H85952   2.146   9.849   0.909 -1.1491 -0.2358 -1.1666
  637MOL0     H85953   2.359   9.776   0.926  2.0697  0.5603 -0.1960
  637MOL0     H85954   2.377   9.953   0.900  1.2678 -0.4449 -0.2987
  637MOL0     H85955   2.613   9.763   0.559  3.7571 -1.4073 -1.0367
  637MOL0     H85956   2.861   9.734   0.611  1.1116 -0.9417  1.3728
  637MOL0     H85957   3.188  10.048   0.968  2.1482  1.4756  0.0123
  637MOL0     H85958   3.432  10.038   0.991  1.9235 -1.4431 -1.1855
  637MOL0     H85959   3.627   9.747   1.202 -0.6535  0.6419  0.0191
  637MOL0     H85960   3.648   9.654   1.050  1.6497 -1.3651  2.9485
  637MOL0     H85961   3.857   9.709   1.168  2.4134  1.2332  0.0972
  637MOL0     H85962   3.852   9.774   0.998  1.8101  0.1993 -0.0240
  637MOL0     H85963   3.753   9.989   1.137 -1.0151 -1.5840 -0.5723
  637MOL0     H85964   3.812   9.913   1.278 -0.7655  2.9927 -0.0797
  637MOL0     H85965   3.994  10.038   1.042  1.1966  1.4267 -0.0334
  637MOL0     H85966   4.042   9.895   1.127  0.8954  1.4261  1.3610
  637MOL0     H85967   4.020   9.997   1.344  0.8044  0.6148 -0.8451
  637MOL0     H85968   3.977  10.157   1.274 -1.0432 -0.3352 -2.3270
  637MOL0     H85969   4.231  10.151   1.331 -0.9029  0.9766 -0.2350
  637MOL0     H85970   4.236  10.000   1.242  0.1879  1.1232  0.4242
  637MOL0     H85971   4.169  10.259   1.091  2.0292  1.1149  1.9331
  637MOL0     H85972   4.214  10.093   1.035 -0.6931  0.2362 -0.5042
  637MOL0     H85973   4.420  10.122   1.160 -1.4390 -1.4672 -0.1176
  637MOL0     H85974   4.401  10.233   1.017 -2.9695 -1.0820 -0.3075
  637MOL0     H85975   3.415   9.621   1.082 -1.0429 -2.0229 -1.6330
  637MOL0     H85976   3.161   9.632   1.053  2.4151 -1.2160 -0.0639
  637MOL0     H85977   2.807   9.892   1.003  0.4051  0.7625 -0.0868
  637MOL0     H85978   2.570   9.914   0.962  3.4762 -0.8731  3.0611
  637MOL0     H85979   0.735   9.466   0.760  2.1512  0.1763 -0.9806
  637MOL0     H85980   0.494   9.502   0.754  0.3338  0.4868 -0.4481
  637MOL0     H85981   0.100   9.692   0.708  0.8280  1.9323 -1.2496
  637MOL0     H85982  -0.135   9.697   0.751  4.1721  1.1886  1.1364
  637MOL0     H85983  -0.277   9.649   0.525  1.1560 -1.5694  0.5336
  637MOL0     H85984  -0.407   9.670   0.635 -1.9280 -0.3612 -0.0748
  637MOL0     H85985  -0.404   9.475   0.409  2.8309  1.1449  1.2274
  637MOL0     H85986  -0.507   9.617   0.423  0.0241  0.5952  0.0341
  637MOL0     H85987  -0.674   9.472   0.501 -0.7639  2.1227  1.0237
  637MOL0     H85988  -0.587   9.501   0.648  0.8151 -1.8112  0.2936
  637MOL0     H85989  -0.540   9.268   0.456  2.8938  0.7411  0.1639
  637MOL0     H85990  -0.432   9.296   0.590  0.3567 -1.8623 -0.8829
  637MOL0     H85991  -0.737   9.108   0.792  3.4469 -1.5885  1.8442
  637MOL0     H85992  -0.169   9.280   0.615  2.8987 -1.9204 -0.7962
  637MOL0     H85993   0.170   9.225   0.660 -2.2113 -0.2082  1.9589
  637MOL0     H85994   0.027   9.143   0.599 -1.2901  0.8468  0.1117
  637MOL0     H85995   0.138   9.231   0.488 -0.5032  1.9125 -0.4582
  638MOL0     O85996  11.209   5.338   1.562 -1.0888 -0.2238  0.2054
  638MOL0     C85997  11.280   5.420   1.619  0.6333  0.7217 -0.2496
  638MOL0     O85998  11.237   5.531   1.678 -0.4229  0.0961 -0.1695
  638MOL0     C85999  11.107   5.567   1.690 -0.1493 -0.0597  0.3397
  638MOL0     C86000  10.999   5.535   1.601 -0.8167  0.0584 -0.1433
  638MOL0     C86001  10.867   5.552   1.637 -1.1053  0.9934  0.1631
  638MOL0     C86002  10.844   5.604   1.767  0.8682  0.3406  0.2961
  638MOL0     O86003  10.710   5.596   1.799 -0.1870 -0.1066 -0.0309
  638MOL0     C86004  10.658   5.696   1.879 -0.5747  0.0061 -0.2594
  638MOL0     C86005  10.510   5.730   1.856  0.1985  0.8185  0.4895
  638MOL0     C86006  10.486   5.794   1.717 -0.3220 -0.4267 -1.0469
  638MOL0     C86007  10.342   5.804   1.670  0.2592 -0.4939 -0.4732
  638MOL0     C86008  10.272   5.673   1.643  0.0744  0.3469  0.3355
  638MOL0     C86009  10.344   5.568   1.552 -0.2294  0.2409  0.1340
  638MOL0     C86010  10.270   5.424   1.572 -0.4716 -0.1866 -0.4655
  638MOL0     C86011  10.316   5.331   1.460  0.2908 -0.1403  0.1000
  638MOL0     N86012  10.456   5.306   1.470 -0.0818 -0.1589 -0.6206
  638MOL0     C86013  10.519   5.233   1.570  0.1815  0.3384  0.4978
  638MOL0     C86014  10.643   5.207   1.526  0.1957  0.3198  0.0527
  638MOL0     C86015  10.745   5.127   1.602 -0.2836 -0.3538 -0.1524
  638MOL0     C86016  10.860   5.201   1.684  0.4830 -0.2690  0.5223
  638MOL0     C86017  10.955   5.113   1.745  0.7414 -0.1175 -0.2654
  638MOL0     C86018  11.064   5.185   1.825  0.1390 -0.1332 -0.0014
  638MOL0     O86019  11.138   5.078   1.875  0.2110  0.1732 -0.6106
  638MOL0     C86020  11.271   5.110   1.896  0.0542 -0.2500  0.3186
  638MOL0     C86021  11.327   5.232   1.929  0.4415  0.3029  0.1023
  638MOL0     C86022  11.464   5.244   1.960  0.3518 -0.5232 -0.2435
  638MOL0     C86023  11.542   5.135   1.958  0.1970 -0.0807 -0.0427
  638MOL0     C86024  11.690   5.160   1.981  0.5425 -0.4147 -0.0133
  638MOL0     O86025  11.728   5.290   2.018 -0.0310 -0.4465 -0.0490
  638MOL0     C86026  11.861   5.315   2.043 -0.3249 -0.9844 -0.0760
  638MOL0     C86027  11.949   5.232   2.118 -0.0274  0.1811  0.1372
  638MOL0     C86028  12.082   5.275   2.133 -0.3335  0.2793  0.0712
  638MOL0     C86029  12.135   5.389   2.070 -0.0633 -0.7615  0.0447
  638MOL0     O86030  12.273   5.424   2.067  0.2441 -0.6559 -0.1517
  638MOL0     C86031  12.371   5.324   2.083  0.1166 -0.2723  0.0521
  638MOL0     C86032  12.506   5.385   2.036 -0.2760  0.1419  0.0316
  638MOL0     C86033  12.619   5.280   2.021  0.3448  0.2143  0.4273
  638MOL0     C86034  12.738   5.306   1.926 -0.1759 -0.2895 -0.0243
  638MOL0     C86035  12.706   5.288   1.776 -0.0184 -0.3544 -0.0980
  638MOL0     C86036  12.831   5.327   1.697  1.0517  0.5031 -1.5138
  638MOL0     C86037  12.803   5.352   1.548  0.3951  0.4728 -0.2897
  638MOL0     C86038  12.742   5.488   1.522  0.9219  0.5796  0.2465
  638MOL0    Cl86039  12.846   5.638   1.549  0.0104 -0.0011 -0.3122
  638MOL0     C86040  12.052   5.465   1.993 -0.4984  0.0542  0.5618
  638MOL0     C86041  11.915   5.436   1.989 -0.3097 -0.6869 -0.2161
  638MOL0     O86042  11.767   5.068   1.964 -0.3260 -0.0950  0.1136
  638MOL0     C86043  11.484   5.010   1.927 -0.3196  0.1034  0.0338
  638MOL0     C86044  11.351   4.999   1.896  0.0764 -0.0274 -0.2954
  638MOL0     N86045  10.666   5.284   1.416  0.1936 -0.4084 -0.6136
  638MOL0     N86046  10.546   5.335   1.373 -0.9022 -0.0500 -0.3239
  638MOL0     C86047  10.948   5.655   1.852  0.3151  0.3282  0.7297
  638MOL0     C86048  11.080   5.641   1.806 -0.1464  0.2413  0.6096
  638MOL0     C86049  11.432   5.398   1.628 -0.2584 -0.4217  0.1778
  638MOL0     C86050  11.478   5.261   1.625  0.3774 -0.1351  0.2974
  638MOL0     C86051  11.606   5.224   1.640 -0.3026  0.3170 -1.1773
  638MOL0     C86052  11.703   5.322   1.644  0.2762  0.0956 -0.5925
  638MOL0     O86053  11.840   5.296   1.648  0.5033  0.1316 -0.1615
  638MOL0     C86054  11.881   5.156   1.634 -0.0464  1.2677 -0.1995
  638MOL0     C86055  12.039   5.155   1.637  0.1355 -0.2495  0.1491
  638MOL0     C86056  12.124   5.245   1.730  0.2479  0.6350 -0.5847
  638MOL0     C86057  12.261   5.282   1.671  0.6437  0.4057  0.1287
  638MOL0     C86058  12.329   5.159   1.627 -0.0492  0.2963  0.3084
  638MOL0     C86059  12.390   5.054   1.590 -0.6881  0.1103 -0.1757
  638MOL0     C86060  11.660   5.463   1.644  0.1599  0.2073 -0.1579
  638MOL0     C86061  11.527   5.503   1.635  0.4799  0.6069 -0.3433
  638MOL0     C86062  11.499   5.645   1.637 -0.8197 -0.2975  0.3620
  638MOL0     H86063  11.030   5.487   1.508  0.0109 -0.6386  0.4613
  638MOL0     H86064  10.796   5.510   1.567  1.0338 -1.7699 -0.5541
  638MOL0     H86065  10.670   5.666   1.984  2.9183  1.7375 -0.0317
  638MOL0     H86066  10.709   5.791   1.860  0.4834 -0.3597  0.5890
  638MOL0     H86067  10.486   5.794   1.941  1.5506  0.7845  0.9194
  638MOL0     H86068  10.456   5.635   1.865  1.7520  0.0696  3.5321
  638MOL0     H86069  10.545   5.744   1.639  1.1733 -0.8751  0.3317
  638MOL0     H86070  10.519   5.898   1.723 -0.5296 -0.4509  1.5310
  638MOL0     H86071  10.294   5.837   1.762  0.1135 -1.9271 -0.0204
  638MOL0     H86072  10.334   5.868   1.581  0.4700  0.4453  0.1658
  638MOL0     H86073  10.263   5.631   1.744  2.8077 -0.9424  0.1383
  638MOL0     H86074  10.174   5.695   1.600  1.1513  0.7708 -2.0723
  638MOL0     H86075  10.341   5.592   1.445  2.6532  0.4427  0.0275
  638MOL0     H86076  10.451   5.558   1.572 -0.3537  0.2545  0.8364
  638MOL0     H86077  10.163   5.438   1.559 -1.4016 -1.3388  4.2386
  638MOL0     H86078  10.289   5.391   1.675  0.7162  4.0566  0.9075
  638MOL0     H86079  10.261   5.240   1.483 -0.0472  0.3791  1.4157
  638MOL0     H86080  10.285   5.371   1.363  1.7621 -0.8210 -0.6916
  638MOL0     H86081  10.475   5.202   1.665 -0.7419 -1.5489 -0.5031
  638MOL0     H86082  10.701   5.068   1.683 -2.1775  1.1019 -0.0515
  638MOL0     H86083  10.782   5.051   1.533 -0.7912 -1.9047  1.2350
  638MOL0     H86084  10.914   5.276   1.626  0.1906  1.8554  2.8248
  638MOL0     H86085  10.809   5.267   1.754 -0.4979  0.3070 -0.6962
  638MOL0     H86086  11.004   5.045   1.674 -0.3029  0.6196 -1.7570
  638MOL0     H86087  10.887   5.059   1.812 -0.6771  0.4870 -1.1701
  638MOL0     H86088  11.024   5.239   1.911 -1.0290 -1.0001  0.0288
  638MOL0     H86089  11.116   5.269   1.778  0.4170  0.5283  1.4531
  638MOL0     H86090  11.258   5.315   1.941 -1.2263 -0.9211 -0.5697
  638MOL0     H86091  11.495   5.348   1.957 -0.8368 -0.1688 -1.8456
  638MOL0     H86092  11.914   5.147   2.177  0.8889  0.3059  0.8808
  638MOL0     H86093  12.143   5.211   2.196 -1.0089 -1.5839 -1.0810
  638MOL0     H86094  12.386   5.293   2.187 -1.7245 -2.0159 -0.1298
  638MOL0     H86095  12.350   5.234   2.025 -1.2243 -0.6057  1.0065
  638MOL0     H86096  12.492   5.437   1.940  2.9425  1.4177  0.1182
  638MOL0     H86097  12.541   5.462   2.106  2.8268  0.8258 -2.0520
  638MOL0     H86098  12.653   5.262   2.123 -2.2109 -1.0898  1.1291
  638MOL0     H86099  12.574   5.189   1.980  3.3777  0.0821 -3.2378
  638MOL0     H86100  12.815   5.233   1.953  1.0943  1.2537  0.6469
  638MOL0     H86101  12.772   5.409   1.939 -0.3201 -0.0646 -1.2487
  638MOL0     H86102  12.623   5.354   1.751  1.1921  1.1886 -0.1861
  638MOL0     H86103  12.679   5.187   1.744 -0.3175  0.3045 -2.0262
  638MOL0     H86104  12.867   5.424   1.733 -1.1121  1.3885 -1.5442
  638MOL0     H86105  12.911   5.254   1.708  0.8831  0.6499  1.3440
  638MOL0     H86106  12.734   5.270   1.526 -1.7637  2.4464 -1.2875
  638MOL0     H86107  12.890   5.336   1.484  1.0250 -1.4603  0.9567
  638MOL0     H86108  12.689   5.478   1.427 -0.6024  1.6082  0.9504
  638MOL0     H86109  12.651   5.496   1.581 -0.4037 -3.2527 -0.9628
  638MOL0     H86110  12.094   5.546   1.934 -0.8759 -1.0317 -1.2879
  638MOL0     H86111  11.847   5.502   1.936  0.1664  2.2929  2.5465
  638MOL0     H86112  11.556   4.929   1.929 -0.5761 -0.2740 -2.7248
  638MOL0     H86113  11.309   4.899   1.887 -0.5163  0.3898 -3.0558
  638MOL0     H86114  10.926   5.682   1.955 -3.1735 -1.7347  0.6943
  638MOL0     H86115  11.166   5.675   1.864  1.2005  0.0396 -1.1801
  638MOL0     H86116  11.407   5.180   1.608 -1.2568  1.2921  0.0982
  638MOL0     H86117  11.629   5.118   1.632  2.0350  0.6980 -0.3283
  638MOL0     H86118  11.835   5.114   1.544 -0.2526  0.7784  0.1250
  638MOL0     H86119  11.844   5.093   1.716 -0.6991 -1.8685 -2.7055
  638MOL0     H86120  12.053   5.202   1.539 -0.7143  0.3733  0.3106
  638MOL0     H86121  12.072   5.052   1.650  0.2012 -0.2080  0.3123
  638MOL0     H86122  12.139   5.198   1.828 -0.4090  1.6376  0.0160
  638MOL0     H86123  12.069   5.339   1.741  0.8208  1.0093 -0.9142
  638MOL0     H86124  12.264   5.354   1.589 -0.0699  0.6052  0.2675
  638MOL0     H86125  12.319   5.334   1.748  0.2381  0.2265  0.5620
  638MOL0     H86126  12.446   4.969   1.556 -0.6807 -1.2051  2.7923
  638MOL0     H86127  11.737   5.539   1.654 -0.6973  0.9339  1.0239
  638MOL0     H86128  11.591   5.704   1.648 -0.3490 -0.7228 -1.0340
  638MOL0     H86129  11.449   5.684   1.548  0.4216 -1.3044 -0.8234
  638MOL0     H86130  11.437   5.663   1.725 -0.4668  2.7232  0.1198
  639MOL0     O86131   5.156   3.637   2.595  0.3586  0.2413  0.4693
  639MOL0     C86132   5.135   3.759   2.598 -0.0913 -0.3467 -0.2389
  639MOL0     O86133   5.228   3.846   2.648  0.8004 -0.6934  0.2318
  639MOL0     C86134   5.359   3.805   2.672  0.0948 -0.1859 -0.0235
  639MOL0     C86135   5.384   3.688   2.742 -0.0258  0.4936 -0.3372
  639MOL0     C86136   5.521   3.656   2.772 -0.3518  0.3415  0.6132
  639MOL0     C86137   5.626   3.734   2.727 -0.3257 -0.4922 -0.5219
  639MOL0     O86138   5.755   3.694   2.761  0.6194 -0.6836  0.1087
  639MOL0     C86139   5.836   3.787   2.830  0.1766  0.1007 -0.3571
  639MOL0     C86140   5.975   3.770   2.781 -0.8231  0.3617  0.3116
  639MOL0     C86141   6.027   3.626   2.783 -0.8712  0.1982  0.5706
  639MOL0     C86142   6.168   3.637   2.735 -0.8686 -0.1914 -0.8721
  639MOL0     C86143   6.225   3.491   2.729  1.1873  0.2819 -0.1107
  639MOL0     C86144   6.372   3.476   2.679  0.6510  0.0188 -0.4674
  639MOL0     C86145   6.422   3.330   2.686 -0.3693  0.2154 -0.2752
  639MOL0     C86146   6.344   3.238   2.601  1.3281 -0.1905 -0.3660
  639MOL0     N86147   6.346   3.270   2.465 -0.3033  1.3342  0.6605
  639MOL0     C86148   6.457   3.248   2.389  0.5618 -0.2096 -0.9648
  639MOL0     C86149   6.412   3.291   2.270 -0.3994 -0.0463  0.4487
  639MOL0     C86150   6.514   3.301   2.154 -0.4392  1.6122  0.5939
  639MOL0     C86151   6.608   3.420   2.187 -0.0315  0.7553 -1.0953
  639MOL0     C86152   6.718   3.420   2.079  1.0300  0.0525 -0.2670
  639MOL0     C86153   6.813   3.526   2.105 -0.0183 -0.2900 -1.4167
  639MOL0     O86154   6.762   3.662   2.086 -0.2418 -0.1241 -0.1506
  639MOL0     C86155   6.847   3.768   2.098 -0.4922 -0.4668  0.4354
  639MOL0     C86156   6.992   3.765   2.096  0.7647 -0.7192  0.6536
  639MOL0     C86157   7.060   3.888   2.074  0.1612  0.3229  0.0682
  639MOL0     C86158   6.997   4.011   2.065 -0.4874  0.3916 -0.0388
  639MOL0     C86159   7.083   4.129   2.036 -1.2171 -0.2867  0.1402
  639MOL0     O86160   7.211   4.103   2.017  0.5300  0.5213 -0.2796
  639MOL0     C86161   7.294   4.207   2.000 -0.3422 -0.2918 -0.0921
  639MOL0     C86162   7.363   4.232   1.877  0.2538  0.5240 -0.3057
  639MOL0     C86163   7.474   4.328   1.873  0.8508  0.3811  0.0441
  639MOL0     C86164   7.508   4.401   1.989 -0.2508  0.4449 -0.6178
  639MOL0     O86165   7.609   4.500   1.993 -0.4464  0.4525 -0.6619
  639MOL0     C86166   7.641   4.595   2.092  1.6717 -0.2893 -0.4064
  639MOL0     C86167   7.784   4.596   2.126 -0.4998  0.4488 -0.8661
  639MOL0     C86168   7.873   4.628   2.000 -0.6729 -0.6187  1.2533
  639MOL0     C86169   8.022   4.641   2.031 -0.0963 -0.5803  0.0022
  639MOL0     C86170   8.108   4.646   1.897 -0.0546 -0.3311 -0.5514
  639MOL0     C86171   8.260   4.643   1.930 -0.1898 -0.5397  0.4526
  639MOL0     C86172   8.335   4.554   1.826 -0.5873 -0.8465  0.3463
  639MOL0     C86173   8.480   4.592   1.810  0.4034  0.8574  0.3055
  639MOL0    Cl86174   8.554   4.499   1.670  0.3133  0.2524  0.1217
  639MOL0     C86175   7.435   4.366   2.110  0.1503  0.0496 -0.3370
  639MOL0     C86176   7.331   4.276   2.113 -0.3258 -0.0562  0.4986
  639MOL0     O86177   7.030   4.242   2.031  0.1593 -0.1483  0.2175
  639MOL0     C86178   6.851   4.010   2.065 -0.6829  0.2951  0.6992
  639MOL0     C86179   6.788   3.889   2.077  0.2134 -0.0715 -1.1603
  639MOL0     N86180   6.283   3.332   2.270  0.4012 -0.1605 -0.7668
  639MOL0     N86181   6.247   3.322   2.392  0.2347 -0.3355  0.8176
  639MOL0     C86182   5.595   3.844   2.649 -0.0408  0.2253  0.2136
  639MOL0     C86183   5.462   3.885   2.630 -0.7872  0.2151  1.1284
  639MOL0     C86184   4.997   3.805   2.561 -0.7005 -1.0104 -0.3776
  639MOL0     C86185   4.991   3.943   2.545 -0.3425 -0.0345  0.4389
  639MOL0     C86186   4.883   4.012   2.496 -0.3431 -0.5859  0.6263
  639MOL0     C86187   4.769   3.938   2.467 -0.0700  0.4005 -0.0497
  639MOL0     O86188   4.653   4.000   2.420  0.5823 -0.0705  0.6703
  639MOL0     C86189   4.679   4.119   2.343  0.4535  0.0866  0.1882
  639MOL0     C86190   4.571   4.151   2.248  1.3044  0.3649  0.3801
  639MOL0     C86191   4.438   4.108   2.298  0.3967  0.0436  0.4825
  639MOL0     C86192   4.317   4.153   2.204 -0.0688 -0.2606  0.1018
  639MOL0     C86193   4.314   4.295   2.190 -0.5030 -0.2937 -0.8078
  639MOL0     C86194   4.326   4.414   2.190 -0.7219 -0.4008 -0.0473
  639MOL0     C86195   4.771   3.799   2.488 -0.0269  0.1608 -0.0193
  639MOL0     C86196   4.887   3.733   2.533 -0.0011  0.0494 -0.6404
  639MOL0     C86197   4.880   3.581   2.551 -0.4274  0.0392  0.1449
  639MOL0     H86198   5.303   3.636   2.792  0.2578 -0.3516 -0.7361
  639MOL0     H86199   5.535   3.573   2.841  0.7977 -0.8756 -1.0153
  639MOL0     H86200   5.823   3.894   2.816  2.0190  0.4780  0.5478
  639MOL0     H86201   5.832   3.761   2.937  0.3753  2.0118  0.1434
  639MOL0     H86202   6.040   3.837   2.837 -0.0018 -1.0471  1.0893
  639MOL0     H86203   5.979   3.799   2.676  0.7432  0.5709  0.4141
  639MOL0     H86204   5.966   3.569   2.713 -2.5044  1.6414  0.7359
  639MOL0     H86205   6.032   3.579   2.882  0.9228 -2.2199 -0.5545
  639MOL0     H86206   6.167   3.687   2.637 -2.6016 -4.2045 -3.1538
  639MOL0     H86207   6.233   3.692   2.804  0.3629  0.0152 -2.1501
  639MOL0     H86208   6.219   3.440   2.826  0.6779 -1.8260 -1.1923
  639MOL0     H86209   6.168   3.434   2.655  0.2432 -1.0274  1.5371
  639MOL0     H86210   6.381   3.514   2.576 -0.1533 -0.8843 -0.8792
  639MOL0     H86211   6.442   3.543   2.731  0.6593  0.7824 -1.4201
  639MOL0     H86212   6.418   3.285   2.786 -0.9765  0.2502 -0.2794
  639MOL0     H86213   6.523   3.331   2.644  0.1907  3.7195  0.8624
  639MOL0     H86214   6.372   3.134   2.622  2.1051  0.1887  0.6199
  639MOL0     H86215   6.242   3.247   2.639  0.5789  2.5351 -2.6680
  639MOL0     H86216   6.559   3.226   2.419  1.0790 -0.3037 -2.6416
  639MOL0     H86217   6.579   3.215   2.136  0.0059  1.7884  1.3256
  639MOL0     H86218   6.455   3.329   2.066  2.1787  1.3524 -1.3802
  639MOL0     H86219   6.553   3.514   2.174 -1.7467  0.0506  0.5551
  639MOL0     H86220   6.652   3.391   2.282 -0.2078  1.4288 -0.8087
  639MOL0     H86221   6.674   3.439   1.981  0.0251  0.4958  0.2589
  639MOL0     H86222   6.770   3.323   2.077  1.5062  0.3079 -0.5426
  639MOL0     H86223   6.904   3.509   2.046  1.3406 -0.9946  0.7880
  639MOL0     H86224   6.848   3.527   2.209 -1.8301  1.5958 -0.7754
  639MOL0     H86225   7.055   3.677   2.099 -0.4845 -1.7713 -1.4575
  639MOL0     H86226   7.167   3.901   2.090 -0.1614  2.5714  0.8000
  639MOL0     H86227   7.337   4.180   1.786 -0.2034  0.9014 -0.3919
  639MOL0     H86228   7.529   4.324   1.780 -1.3370  1.0562 -1.3773
  639MOL0     H86229   7.597   4.693   2.070 -2.6176 -1.4095  1.9886
  639MOL0     H86230   7.588   4.563   2.182 -0.0688 -1.2198 -1.7093
  639MOL0     H86231   7.797   4.657   2.216  1.7225 -2.8298  1.2796
  639MOL0     H86232   7.809   4.497   2.167  0.6857  1.8365  2.0818
  639MOL0     H86233   7.862   4.538   1.940 -0.2076  0.7045 -0.9230
  639MOL0     H86234   7.854   4.719   1.942  1.2071 -1.5844 -1.0382
  639MOL0     H86235   8.055   4.555   2.089 -0.5676 -0.5273  0.3511
  639MOL0     H86236   8.035   4.727   2.098 -0.2037 -2.1767  2.1596
  639MOL0     H86237   8.082   4.743   1.854 -2.4214 -0.7023 -0.0673
  639MOL0     H86238   8.078   4.568   1.826 -2.4608  0.0318 -0.0222
  639MOL0     H86239   8.297   4.746   1.932 -3.0399  0.6108 -0.7471
  639MOL0     H86240   8.269   4.599   2.030 -0.5808  1.3336  1.3587
  639MOL0     H86241   8.293   4.585   1.730  1.8489  0.2268 -0.4652
  639MOL0     H86242   8.346   4.448   1.852  1.4390 -0.2557  2.1801
  639MOL0     H86243   8.489   4.697   1.780  0.1644  0.1770 -2.4487
  639MOL0     H86244   8.535   4.563   1.900  1.2988  0.8463 -0.2364
  639MOL0     H86245   7.454   4.417   2.204 -1.3467 -1.3895  0.8059
  639MOL0     H86246   7.277   4.253   2.204 -1.0748 -3.1726 -0.6294
  639MOL0     H86247   6.791   4.100   2.053  0.0741  0.8471  0.9555
  639MOL0     H86248   6.680   3.892   2.071  0.1205 -0.0607  0.1763
  639MOL0     H86249   5.670   3.904   2.598  0.2812  0.1351  0.5755
  639MOL0     H86250   5.442   3.976   2.574 -2.5262 -1.7533 -1.6796
  639MOL0     H86251   5.078   4.006   2.561 -1.1599  0.9678  0.9905
  639MOL0     H86252   4.886   4.119   2.482  1.0734 -0.6109  0.6126
  639MOL0     H86253   4.777   4.115   2.294  0.1024 -1.1402 -0.4509
  639MOL0     H86254   4.674   4.205   2.411 -0.0423  0.9961 -0.9679
  639MOL0     H86255   4.595   4.103   2.153  0.8723  0.8147  0.0404
  639MOL0     H86256   4.578   4.254   2.214 -1.3362  0.2833 -0.6294
  639MOL0     H86257   4.426   4.155   2.396  2.1071  1.5556  0.0163
  639MOL0     H86258   4.425   3.999   2.298  1.5279 -0.1841 -2.3692
  639MOL0     H86259   4.316   4.113   2.102  0.8870  3.7276 -1.6488
  639MOL0     H86260   4.227   4.124   2.259  1.8787 -1.1127  3.1084
  639MOL0     H86261   4.335   4.521   2.186 -2.4749 -0.2434 -2.7964
  639MOL0     H86262   4.679   3.741   2.483  0.9720 -1.7698  2.1785
  639MOL0     H86263   4.876   3.567   2.660 -1.7388 -1.7753 -0.0804
  639MOL0     H86264   4.786   3.537   2.515  0.1634 -0.0176 -1.4059
  639MOL0     H86265   4.959   3.526   2.499  0.1857  1.2738 -0.2770
  640MOL0     O86266   2.984   1.372   1.673 -0.1241 -0.7940  0.3570
  640MOL0     C86267   2.884   1.333   1.617 -0.3734 -0.2984 -0.1108
  640MOL0     O86268   2.883   1.219   1.528 -0.2752 -0.5283  0.0324
  640MOL0     C86269   2.999   1.152   1.508 -0.8508  0.1159 -0.8254
  640MOL0     C86270   3.002   1.008   1.521  0.0968  0.1292  0.8807
  640MOL0     C86271   3.121   0.932   1.505  0.1043  0.1044  0.6386
  640MOL0     C86272   3.238   0.990   1.459  0.3211 -0.5516  0.6881
  640MOL0     O86273   3.356   0.920   1.456  0.1128  0.0597  0.1350
  640MOL0     C86274   3.350   0.788   1.409 -1.0551 -0.3472 -0.0991
  640MOL0     C86275   3.365   0.691   1.522 -0.1530  0.3875  0.0325
  640MOL0     C86276   3.491   0.717   1.612 -1.0319 -0.7146  0.3811
  640MOL0     C86277   3.517   0.612   1.721  0.0320  0.2566 -0.5256
  640MOL0     C86278   3.650   0.635   1.779  0.5306  0.2897  0.8344
  640MOL0     C86279   3.675   0.522   1.880 -0.0537  0.1271 -0.5092
  640MOL0     C86280   3.804   0.542   1.953  0.1499  0.5139 -0.0081
  640MOL0     C86281   3.836   0.412   2.024  0.0125  0.1839 -0.2161
  640MOL0     N86282   3.967   0.410   2.099 -0.0183 -0.3035  0.1400
  640MOL0     C86283   4.003   0.492   2.198 -0.5559  0.2926  0.2529
  640MOL0     C86284   4.143   0.485   2.200 -1.0881 -0.5760  0.6370
  640MOL0     C86285   4.228   0.553   2.304  0.3968  0.1457  0.2674
  640MOL0     C86286   4.352   0.615   2.241 -0.4372  0.3284  0.3745
  640MOL0     C86287   4.461   0.507   2.187 -0.4564 -0.4766  0.6096
  640MOL0     C86288   4.599   0.565   2.143 -0.8740 -0.4883 -1.1496
  640MOL0     O86289   4.579   0.698   2.095  0.2522  0.2476 -0.4514
  640MOL0     C86290   4.677   0.773   2.036 -0.6094  0.0905  0.0567
  640MOL0     C86291   4.818   0.754   2.052  0.7476 -0.3653 -0.0252
  640MOL0     C86292   4.912   0.834   1.980 -0.1513  0.6326 -0.4528
  640MOL0     C86293   4.875   0.946   1.908 -0.0940 -0.1403  0.9635
  640MOL0     C86294   4.970   1.029   1.829 -0.0619 -0.6234  0.1992
  640MOL0     O86295   5.100   0.974   1.818  0.0375 -0.2197  0.1205
  640MOL0     C86296   5.186   1.047   1.751  0.6994 -0.0082  1.0967
  640MOL0     C86297   5.255   1.137   1.827 -0.2355  0.0232  0.6263
  640MOL0     C86298   5.341   1.226   1.757 -0.2654  1.0407 -0.2676
  640MOL0     C86299   5.370   1.206   1.620  0.1934 -0.3111 -0.3154
  640MOL0     O86300   5.462   1.287   1.559 -0.8234  0.3841  0.6847
  640MOL0     C86301   5.463   1.289   1.409 -0.1233 -0.0018  1.3315
  640MOL0     C86302   5.529   1.415   1.357 -0.4914 -0.3073  0.2708
  640MOL0     C86303   5.669   1.450   1.416  0.0390 -0.0467  0.0514
  640MOL0     C86304   5.644   1.550   1.526  0.6223 -0.4387  0.7215
  640MOL0     C86305   5.770   1.589   1.600  0.2671 -0.4239 -0.1094
  640MOL0     C86306   5.899   1.636   1.531  0.2118  0.2345  0.8358
  640MOL0     C86307   6.002   1.690   1.634  0.1988  0.5881  0.4488
  640MOL0     C86308   6.123   1.747   1.569 -0.1252  0.2962 -0.0436
  640MOL0    Cl86309   6.219   1.637   1.475 -0.1653 -0.1336  0.4758
  640MOL0     C86310   5.310   1.096   1.545 -0.6681  0.3957  0.7097
  640MOL0     C86311   5.217   1.022   1.622  0.2521 -0.1362  0.3056
  640MOL0     O86312   4.938   1.135   1.778  0.3405 -0.2635  0.4319
  640MOL0     C86313   4.733   0.978   1.910  0.5985 -0.1864 -0.2918
  640MOL0     C86314   4.639   0.891   1.971 -0.9400  0.3142  0.0498
  640MOL0     N86315   4.183   0.412   2.095  0.3017 -0.1786  0.0958
  640MOL0     N86316   4.081   0.357   2.044 -0.0354  1.0886  0.0068
  640MOL0     C86317   3.236   1.138   1.451  0.0650  0.5298  0.3673
  640MOL0     C86318   3.123   1.215   1.467 -0.2856  0.3250 -0.6853
  640MOL0     C86319   2.757   1.407   1.638 -0.0296 -0.0155 -0.2323
  640MOL0     C86320   2.764   1.537   1.695  0.7096  0.1555  0.1078
  640MOL0     C86321   2.646   1.616   1.703  0.4551 -0.1443  0.7436
  640MOL0     C86322   2.523   1.568   1.669 -0.4327 -0.5250  0.0874
  640MOL0     O86323   2.398   1.633   1.672  0.8734  0.6949 -0.3444
  640MOL0     C86324   2.389   1.771   1.695 -0.9431  0.2375 -0.8113
  640MOL0     C86325   2.248   1.805   1.663  0.0431  0.4579  0.3759
  640MOL0     C86326   2.149   1.759   1.763  0.5187 -0.3565  0.0225
  640MOL0     C86327   2.034   1.857   1.757 -0.3837  0.3601 -0.1202
  640MOL0     C86328   1.923   1.805   1.844 -0.8041  0.4041 -0.6329
  640MOL0     C86329   1.829   1.787   1.918 -0.0311 -0.4658  1.3232
  640MOL0     C86330   2.513   1.429   1.639  0.4565 -1.1213 -0.5019
  640MOL0     C86331   2.626   1.359   1.599  0.0424 -0.7556 -0.4248
  640MOL0     C86332   2.587   1.218   1.557 -0.0904  0.6223  0.4412
  640MOL0     H86333   2.910   0.954   1.542  0.9007 -0.5899  2.9074
  640MOL0     H86334   3.115   0.824   1.520 -0.0375 -0.1063 -0.8531
  640MOL0     H86335   3.251   0.779   1.364 -1.9779  0.8850  1.5710
  640MOL0     H86336   3.433   0.766   1.341 -1.3342 -0.8911 -0.2700
  640MOL0     H86337   3.375   0.589   1.485  1.8405  0.7044 -0.3772
  640MOL0     H86338   3.276   0.693   1.586 -0.4493  2.6410 -0.3643
  640MOL0     H86339   3.503   0.809   1.670  1.3092 -1.6932  1.5765
  640MOL0     H86340   3.573   0.718   1.539 -1.7517 -3.4422 -0.5976
  640MOL0     H86341   3.437   0.605   1.795  0.0392  0.6408 -0.4779
  640MOL0     H86342   3.505   0.509   1.687  0.5493 -0.2869  0.8547
  640MOL0     H86343   3.723   0.626   1.697 -1.1187  0.0042 -0.6685
  640MOL0     H86344   3.652   0.733   1.826  0.5537  0.6935  0.0077
  640MOL0     H86345   3.598   0.525   1.957  0.7746  1.7934  0.3156
  640MOL0     H86346   3.667   0.427   1.825 -0.3378 -0.6533  0.8401
  640MOL0     H86347   3.799   0.633   2.013 -1.6190  1.6477 -1.7372
  640MOL0     H86348   3.888   0.569   1.888  1.5043 -2.1743  0.5131
  640MOL0     H86349   3.764   0.401   2.105  1.8522  0.8572  1.5781
  640MOL0     H86350   3.834   0.323   1.959  1.1641  0.3341 -0.4777
  640MOL0     H86351   3.949   0.556   2.267  2.0321  0.8247  1.9476
  640MOL0     H86352   4.180   0.633   2.362  2.0555 -0.4097  2.5203
  640MOL0     H86353   4.250   0.475   2.377 -1.3071  0.4775  1.1948
  640MOL0     H86354   4.303   0.670   2.160  1.7216  2.2870  0.2780
  640MOL0     H86355   4.396   0.690   2.307  0.9086  1.5053 -1.7347
  640MOL0     H86356   4.428   0.458   2.095  1.4244  0.6157 -0.7067
  640MOL0     H86357   4.472   0.425   2.259  2.5398 -1.1675 -0.4835
  640MOL0     H86358   4.645   0.508   2.062  0.6379 -1.3337  0.2188
  640MOL0     H86359   4.672   0.573   2.224  0.4859  2.9277 -2.5138
  640MOL0     H86360   4.844   0.677   2.124 -2.0216 -1.0138  0.3834
  640MOL0     H86361   5.019   0.816   1.990 -0.2776  0.1095  0.0277
  640MOL0     H86362   5.223   1.149   1.931 -1.3935 -3.7821  0.8635
  640MOL0     H86363   5.385   1.312   1.806  3.4125  0.3725 -2.0560
  640MOL0     H86364   5.525   1.207   1.372 -0.6680 -0.5420  1.6064
  640MOL0     H86365   5.362   1.280   1.370 -0.6175 -1.0798  2.7428
  640MOL0     H86366   5.543   1.396   1.251  4.5032 -1.5556  0.8902
  640MOL0     H86367   5.458   1.493   1.385  1.6389  1.2133  1.8605
  640MOL0     H86368   5.722   1.363   1.455  2.6710  1.5995  0.3840
  640MOL0     H86369   5.733   1.500   1.343 -0.1806  1.5455  0.9030
  640MOL0     H86370   5.566   1.523   1.597 -1.1777  2.4373 -0.0093
  640MOL0     H86371   5.600   1.640   1.483 -0.5515 -2.0296 -1.5764
  640MOL0     H86372   5.786   1.500   1.661  0.9823  0.2318  0.6921
  640MOL0     H86373   5.732   1.665   1.668 -0.6543  0.4018 -1.4813
  640MOL0     H86374   5.943   1.546   1.485 -0.6050  1.0298 -1.6452
  640MOL0     H86375   5.871   1.709   1.454 -4.6038 -1.8853  0.2438
  640MOL0     H86376   6.026   1.598   1.688 -0.2072 -0.2211 -0.7061
  640MOL0     H86377   5.953   1.759   1.703  1.5701  1.5280  0.5163
  640MOL0     H86378   6.092   1.829   1.504 -0.4926 -0.3814 -0.7416
  640MOL0     H86379   6.191   1.793   1.641  0.1683 -1.2568  0.7196
  640MOL0     H86380   5.336   1.076   1.442 -0.7377  1.1265  0.5410
  640MOL0     H86381   5.165   0.937   1.579 -1.2039  1.3161 -0.8923
  640MOL0     H86382   4.710   1.069   1.855  1.2790  2.1982  3.0906
  640MOL0     H86383   4.533   0.912   1.957 -0.8890  0.0994 -0.7094
  640MOL0     H86384   3.329   1.189   1.427  1.5275 -2.0062  0.1976
  640MOL0     H86385   3.121   1.323   1.451 -1.9242  0.3496 -0.4936
  640MOL0     H86386   2.858   1.582   1.727  0.4936  1.5475 -1.0893
  640MOL0     H86387   2.657   1.717   1.741  0.5517  1.7807 -3.8612
  640MOL0     H86388   2.462   1.817   1.629 -1.1548 -1.3506 -2.2113
  640MOL0     H86389   2.417   1.801   1.797  1.1365  0.6645 -1.4608
  640MOL0     H86390   2.223   1.752   1.570  0.0768 -0.1435  0.7001
  640MOL0     H86391   2.241   1.913   1.654  0.6087  0.3748 -1.5469
  640MOL0     H86392   2.186   1.752   1.865 -2.0924 -0.7218  1.0050
  640MOL0     H86393   2.115   1.659   1.734  1.6115 -1.3530  2.0009
  640MOL0     H86394   2.061   1.955   1.798  1.9165  0.4468 -1.6692
  640MOL0     H86395   1.993   1.864   1.656 -1.4797  1.4195  0.3698
  640MOL0     H86396   1.743   1.778   1.981  0.0400  1.6044  1.8015
  640MOL0     H86397   2.415   1.383   1.632  0.4405 -2.1397  3.7684
  640MOL0     H86398   2.635   1.200   1.460 -0.4325  2.1785 -0.0531
  640MOL0     H86399   2.614   1.151   1.639  0.2033  0.5663  0.2993
  640MOL0     H86400   2.478   1.210   1.546 -0.4588  3.1224  1.6685
  641MOL0     O86401   5.115   7.511   3.939 -0.7894  0.3711 -0.8809
  641MOL0     C86402   5.050   7.526   3.839 -0.6576 -0.1340  0.3038
  641MOL0     O86403   5.101   7.563   3.720 -1.0896 -0.0965  0.2118
  641MOL0     C86404   5.235   7.595   3.713 -0.0870 -0.4262  0.5024
  641MOL0     C86405   5.277   7.728   3.700 -0.0096  0.0948  0.3239
  641MOL0     C86406   5.415   7.755   3.700  0.9494  0.2465 -0.1832
  641MOL0     C86407   5.508   7.653   3.702 -0.8811 -0.2188  0.8260
  641MOL0     O86408   5.643   7.672   3.684  0.2092  0.0382  0.4123
  641MOL0     C86409   5.693   7.808   3.687  0.1658 -0.1478  0.3535
  641MOL0     C86410   5.839   7.828   3.736  0.4575 -0.3250  0.0322
  641MOL0     C86411   5.927   7.770   3.630 -0.8419  0.4754  0.1121
  641MOL0     C86412   6.074   7.753   3.671  0.7278 -0.9691 -0.1555
  641MOL0     C86413   6.142   7.685   3.552  1.1226 -0.0429  0.5675
  641MOL0     C86414   6.271   7.611   3.588  0.7883  0.3374  0.4286
  641MOL0     C86415   6.369   7.688   3.663  0.7725 -0.6755  0.6233
  641MOL0     C86416   6.456   7.771   3.559  0.6101  0.5831  0.2610
  641MOL0     N86417   6.544   7.875   3.622 -0.0696  0.2244  0.2474
  641MOL0     C86418   6.621   7.855   3.738 -0.2934 -0.3851  0.1074
  641MOL0     C86419   6.689   7.972   3.753  0.5504  0.1938 -0.3489
  641MOL0     C86420   6.781   8.003   3.867  0.3888  0.1391 -0.4217
  641MOL0     C86421   6.923   8.023   3.810 -0.6206  0.7512 -0.4038
  641MOL0     C86422   7.024   7.904   3.852 -0.2663 -0.0360  0.0610
  641MOL0     C86423   7.165   7.922   3.795  0.3651  0.0319  0.4674
  641MOL0     O86424   7.230   8.042   3.822 -0.1053  0.1108 -0.1963
  641MOL0     C86425   7.285   8.065   3.948  0.5138  0.1144 -0.4975
  641MOL0     C86426   7.293   7.966   4.042 -0.0304 -0.6207 -0.4547
  641MOL0     C86427   7.352   7.992   4.159  0.1507 -0.1599 -0.9731
  641MOL0     C86428   7.402   8.122   4.201 -0.0595 -0.0796 -0.2995
  641MOL0     C86429   7.471   8.153   4.332  0.3907  0.2548  0.8951
  641MOL0     O86430   7.544   8.265   4.331 -0.1037  0.2220  0.1229
  641MOL0     C86431   7.625   8.302   4.439 -0.1252  0.3421  0.0246
  641MOL0     C86432   7.693   8.209   4.520  1.1934 -0.3954  0.5845
  641MOL0     C86433   7.778   8.239   4.620  0.0279  0.1686  0.7214
  641MOL0     C86434   7.797   8.371   4.651 -0.0681 -0.3774 -0.8001
  641MOL0     O86435   7.898   8.411   4.736  0.3823 -0.1264  0.1343
  641MOL0     C86436   7.865   8.363   4.871 -0.1635  0.0092  0.1057
  641MOL0     C86437   7.813   8.479   4.965  0.6052  0.1431 -0.3150
  641MOL0     C86438   7.694   8.441   5.050  0.5214 -0.1178  0.0997
  641MOL0     C86439   7.660   8.570   5.141  0.1306  0.7583  0.3573
  641MOL0     C86440   7.573   8.523   5.255 -0.9230  0.1984  0.1721
  641MOL0     C86441   7.584   8.602   5.385 -0.3299  0.9497 -0.0193
  641MOL0     C86442   7.488   8.554   5.489 -0.7944 -0.5022  0.5459
  641MOL0     C86443   7.480   8.656   5.605  0.6367 -0.4177  0.1436
  641MOL0    Cl86444   7.643   8.682   5.668 -0.2091  0.3232  0.1206
  641MOL0     C86445   7.733   8.469   4.579 -0.0087 -1.0052 -0.9277
  641MOL0     C86446   7.648   8.433   4.467  0.3174 -0.3060 -0.6347
  641MOL0     O86447   7.454   8.072   4.423  0.0472  0.1881  0.3842
  641MOL0     C86448   7.396   8.222   4.097 -1.1516  0.3026 -0.5711
  641MOL0     C86449   7.327   8.198   3.976 -0.3911  0.1664  0.2709
  641MOL0     N86450   6.658   8.052   3.645 -0.2096 -0.0431 -1.0402
  641MOL0     N86451   6.570   7.994   3.565  0.0805  0.1351 -0.3908
  641MOL0     C86452   5.465   7.515   3.714  0.3691 -0.1295 -0.1105
  641MOL0     C86453   5.329   7.486   3.711 -0.6904  0.1059 -0.2007
  641MOL0     C86454   4.906   7.506   3.854 -0.7065 -0.2814 -0.2825
  641MOL0     C86455   4.865   7.411   3.953 -1.5357 -0.7668  0.4862
  641MOL0     C86456   4.737   7.385   3.974 -0.3524 -0.6511 -0.2643
  641MOL0     C86457   4.641   7.456   3.894 -0.8575 -0.1169 -0.9343
  641MOL0     O86458   4.511   7.449   3.908  0.6012  0.3135  0.2207
  641MOL0     C86459   4.464   7.508   4.033 -0.3368  0.3098  0.5991
  641MOL0     C86460   4.314   7.558   4.018 -0.4423 -0.5718 -0.9828
  641MOL0     C86461   4.230   7.456   3.942 -0.5291  0.3603 -0.5637
  641MOL0     C86462   4.086   7.498   3.966 -0.1511  0.5622  0.7122
  641MOL0     C86463   3.989   7.441   3.869  0.4448  0.1459  0.4186
  641MOL0     C86464   3.891   7.393   3.815  0.2330  0.3826  0.9246
  641MOL0     C86465   4.673   7.545   3.793 -0.4403  0.1114  0.0975
  641MOL0     C86466   4.811   7.576   3.772  0.4695 -0.0172 -0.8467
  641MOL0     C86467   4.843   7.702   3.699 -0.7046  0.0400 -0.1882
  641MOL0     H86468   5.210   7.812   3.685  1.7533  1.4333 -0.3502
  641MOL0     H86469   5.427   7.862   3.706  0.1399  0.2796  1.6681
  641MOL0     H86470   5.669   7.854   3.591  1.4338  1.2079  0.6556
  641MOL0     H86471   5.633   7.863   3.761 -0.7449 -2.6661  1.6392
  641MOL0     H86472   5.857   7.769   3.826 -1.4840 -0.2399  0.5075
  641MOL0     H86473   5.858   7.935   3.747 -3.8126  0.6498 -0.5875
  641MOL0     H86474   5.913   7.828   3.538 -2.3683  2.0051  1.2402
  641MOL0     H86475   5.891   7.669   3.606 -2.3612  0.1750  3.1516
  641MOL0     H86476   6.118   7.849   3.698  0.2127 -0.9499  0.6364
  641MOL0     H86477   6.084   7.692   3.761 -1.6530  1.6448  2.0712
  641MOL0     H86478   6.075   7.610   3.510 -2.4519  2.1672  1.8828
  641MOL0     H86479   6.148   7.767   3.480 -1.1724  0.4915  0.8997
  641MOL0     H86480   6.251   7.522   3.648  4.3892 -1.2342 -0.4683
  641MOL0     H86481   6.317   7.575   3.496  0.1382 -1.4695  0.7741
  641MOL0     H86482   6.430   7.629   3.731  0.6454 -0.9849  0.4709
  641MOL0     H86483   6.314   7.764   3.718  0.4920  1.4037 -2.2630
  641MOL0     H86484   6.509   7.692   3.505  1.3306  2.1951 -1.4817
  641MOL0     H86485   6.396   7.817   3.480  1.4570  0.5025 -0.4324
  641MOL0     H86486   6.629   7.763   3.795  0.5342 -1.9108 -2.3403
  641MOL0     H86487   6.752   8.104   3.898 -1.2240 -0.4443  0.0741
  641MOL0     H86488   6.775   7.932   3.949 -1.8974  2.6817  1.8211
  641MOL0     H86489   6.921   8.034   3.702 -3.2667  2.6327 -0.2710
  641MOL0     H86490   6.968   8.114   3.851  2.6265 -1.1134  0.4868
  641MOL0     H86491   6.973   7.815   3.816 -0.6157 -1.0578  2.8028
  641MOL0     H86492   7.028   7.896   3.961 -0.4499  0.7646  0.1338
  641MOL0     H86493   7.168   7.918   3.685  3.6107 -1.8031  0.4848
  641MOL0     H86494   7.220   7.832   3.823  1.3762  0.5251  0.1487
  641MOL0     H86495   7.253   7.866   4.037  1.8155 -1.3423 -2.9285
  641MOL0     H86496   7.349   7.918   4.239  2.8429  1.8941  1.2237
  641MOL0     H86497   7.683   8.106   4.486 -1.4799  0.5007 -1.7414
  641MOL0     H86498   7.842   8.166   4.667  1.0023  0.6479  0.1732
  641MOL0     H86499   7.792   8.282   4.883  0.8902 -1.2065 -1.2925
  641MOL0     H86500   7.958   8.340   4.924 -0.8575 -0.2360  1.2447
  641MOL0     H86501   7.900   8.505   5.027 -0.4442 -0.5475  1.5152
  641MOL0     H86502   7.780   8.563   4.903  0.2032  1.1358  1.1773
  641MOL0     H86503   7.606   8.431   4.986 -1.0202  3.2431  1.4737
  641MOL0     H86504   7.720   8.342   5.090  0.8405 -0.7195 -1.5133
  641MOL0     H86505   7.607   8.646   5.082 -1.6991 -1.1811 -0.6570
  641MOL0     H86506   7.754   8.602   5.185  0.2021  1.1592 -0.0815
  641MOL0     H86507   7.595   8.417   5.266  1.6140  0.3823 -2.2134
  641MOL0     H86508   7.471   8.532   5.215 -0.0169  2.1943 -1.8896
  641MOL0     H86509   7.685   8.588   5.424 -1.7783 -0.0579  3.9066
  641MOL0     H86510   7.579   8.707   5.356  0.6143  0.1580 -3.5317
  641MOL0     H86511   7.514   8.455   5.528 -0.1136 -0.9793 -1.0777
  641MOL0     H86512   7.385   8.551   5.452 -0.6212 -1.6027  0.1450
  641MOL0     H86513   7.440   8.751   5.569  0.8817 -0.5816 -0.6019
  641MOL0     H86514   7.421   8.622   5.689 -0.8297  2.3496  0.3415
  641MOL0     H86515   7.743   8.575   4.602 -3.1298 -0.6633 -0.6591
  641MOL0     H86516   7.596   8.505   4.404  0.5795  0.4290 -0.0234
  641MOL0     H86517   7.442   8.319   4.115  0.3729 -0.5899  0.4695
  641MOL0     H86518   7.321   8.269   3.894 -1.0920  1.7492  1.6259
  641MOL0     H86519   5.534   7.432   3.708  1.0654  0.4621 -0.3780
  641MOL0     H86520   5.311   7.379   3.707 -0.3310  0.0040  0.5748
  641MOL0     H86521   4.936   7.350   4.007 -1.8087  0.0892  1.8708
  641MOL0     H86522   4.708   7.333   4.064 -0.2676 -0.2145  0.0165
  641MOL0     H86523   4.541   7.582   4.056  1.0790 -0.1639 -2.1212
  641MOL0     H86524   4.465   7.426   4.106 -0.0864  0.4881  0.7968
  641MOL0     H86525   4.315   7.658   3.976  1.6846 -0.2017 -0.1583
  641MOL0     H86526   4.269   7.573   4.117 -2.4660 -1.8961 -1.6481
  641MOL0     H86527   4.249   7.351   3.966 -2.1070  0.0103 -0.6977
  641MOL0     H86528   4.264   7.479   3.841  1.9507  2.9072  0.7073
  641MOL0     H86529   4.055   7.469   4.066  3.0723 -0.9383  1.4105
  641MOL0     H86530   4.077   7.606   3.975 -2.4813  0.3023  2.4258
  641MOL0     H86531   3.799   7.358   3.773 -0.1659  1.2294  1.0804
  641MOL0     H86532   4.597   7.596   3.735 -0.2214  0.2985 -0.0290
  641MOL0     H86533   4.752   7.760   3.681  0.8198  1.9667 -2.3479
  641MOL0     H86534   4.932   7.759   3.729  0.3245 -1.2749 -0.6380
  641MOL0     H86535   4.868   7.657   3.602  0.6711  0.5913 -0.1172
  642MOL0     O86536   0.969   8.077   0.440 -0.1361 -0.1181 -0.6080
  642MOL0     C86537   0.987   8.030   0.328 -0.1323  0.1999 -0.6364
  642MOL0     O86538   0.901   8.028   0.230 -0.7254 -0.0873  0.1060
  642MOL0     C86539   0.768   7.997   0.231 -0.1936  0.6591  0.5343
  642MOL0     C86540   0.678   7.978   0.339 -0.2703  0.1614  0.0873
  642MOL0     C86541   0.544   7.934   0.326  0.4807 -0.4448 -0.5308
  642MOL0     C86542   0.496   7.918   0.195 -0.0570 -1.1033  0.0951
  642MOL0     O86543   0.361   7.884   0.179 -0.2590 -0.7254  0.5554
  642MOL0     C86544   0.307   7.863   0.044  0.0211 -0.1197 -0.2924
  642MOL0     C86545   0.167   7.792   0.065  0.2183 -0.5198 -0.0955
  642MOL0     C86546   0.138   7.692  -0.044  0.1620  1.0338  0.0214
  642MOL0     C86547   0.054   7.584  -0.000  0.4263  0.4851 -0.6940
  642MOL0     C86548  -0.008   7.496  -0.109 -0.3736 -0.1193 -0.5201
  642MOL0     C86549   0.098   7.417  -0.194 -0.6155  0.2325 -0.4127
  642MOL0     C86550   0.039   7.324  -0.291 -0.3287 -0.1145  0.0273
  642MOL0     C86551   0.012   7.375  -0.436 -0.6323 -0.2429  0.2732
  642MOL0     N86552  -0.066   7.270  -0.505  0.0330 -1.0194 -0.2821
  642MOL0     C86553  -0.186   7.225  -0.465 -1.4488 -0.4120  0.5541
  642MOL0     C86554  -0.243   7.173  -0.580  0.0037  0.0244  0.0907
  642MOL0     C86555  -0.380   7.111  -0.596  0.5337  0.0385 -0.0189
  642MOL0     C86556  -0.400   6.974  -0.539 -0.5151  0.2180 -0.3283
  642MOL0     C86557  -0.374   6.988  -0.380 -0.1235  0.4858  0.2875
  642MOL0     C86558  -0.408   6.857  -0.303  0.0180  0.1085 -0.2197
  642MOL0     O86559  -0.412   6.892  -0.157  0.0135  0.0905  0.4299
  642MOL0     C86560  -0.531   6.923  -0.097  0.6429 -0.3428  0.4769
  642MOL0     C86561  -0.529   6.906   0.036  0.6733 -0.3132 -0.7607
  642MOL0     C86562  -0.637   6.933   0.110  0.2341  0.2184 -0.2727
  642MOL0     C86563  -0.751   6.974   0.058 -0.7563 -0.6330  0.7344
  642MOL0     C86564  -0.861   7.011   0.145  0.4837  0.2917 -0.3629
  642MOL0     O86565  -0.862   6.971   0.282 -0.2831 -0.3298 -0.2077
  642MOL0     C86566  -0.979   6.981   0.364 -0.2235 -0.1010  0.9062
  642MOL0     C86567  -1.022   6.873   0.452 -0.9477 -0.8121 -0.1366
  642MOL0     C86568  -1.151   6.869   0.502  1.4799 -0.4182  0.2502
  642MOL0     C86569  -1.234   6.982   0.482  0.1196 -0.3877  0.2353
  642MOL0     O86570  -1.359   6.971   0.542 -0.4593  0.5200  0.4193
  642MOL0     C86571  -1.462   7.043   0.488 -0.2699 -1.4667  0.8808
  642MOL0     C86572  -1.580   7.055   0.580 -0.3755  0.0059 -0.8641
  642MOL0     C86573  -1.700   7.131   0.512 -0.0461  0.3819 -0.2332
  642MOL0     C86574  -1.780   7.034   0.433  0.6683 -0.7563 -0.5393
  642MOL0     C86575  -1.895   7.109   0.362 -0.1480 -0.2390  0.1627
  642MOL0     C86576  -1.993   7.014   0.294  0.2086  0.2199 -0.3904
  642MOL0     C86577  -2.129   7.085   0.285  0.4762  0.9882  0.0157
  642MOL0     C86578  -2.228   6.968   0.262  0.5333 -0.5645 -0.8524
  642MOL0    Cl86579  -2.376   7.052   0.223 -0.5438  0.4973  0.4077
  642MOL0     C86580  -1.188   7.095   0.402 -0.3152 -0.1642 -0.2199
  642MOL0     C86581  -1.065   7.093   0.344  0.5641  0.1268  0.1855
  642MOL0     O86582  -0.964   7.044   0.090  0.2655  0.0683  0.0711
  642MOL0     C86583  -0.759   6.994  -0.080 -0.1695 -1.1365 -0.1177
  642MOL0     C86584  -0.640   6.971  -0.165 -0.3601  1.1293 -0.1136
  642MOL0     N86585  -0.160   7.204  -0.689 -0.1964  0.0726  0.3036
  642MOL0     N86586  -0.050   7.259  -0.641 -0.8020 -0.4339  0.7989
  642MOL0     C86587   0.582   7.932   0.087 -0.2819 -0.2459 -0.7404
  642MOL0     C86588   0.715   7.979   0.106  0.1418  0.1832 -0.0089
  642MOL0     C86589   1.129   7.985   0.299  0.3676  0.0977  0.1589
  642MOL0     C86590   1.149   7.873   0.217  0.8862  0.8376 -1.0870
  642MOL0     C86591   1.266   7.841   0.164 -0.6579 -0.7364  0.5454
  642MOL0     C86592   1.372   7.927   0.187  0.5093  0.1327  0.4933
  642MOL0     O86593   1.484   7.873   0.131  0.0136  0.3095 -0.6489
  642MOL0     C86594   1.605   7.958   0.122  0.0675  0.0229 -1.1730
  642MOL0     C86595   1.698   7.879   0.031  0.3027 -0.4404 -0.2785
  642MOL0     C86596   1.690   7.920  -0.113 -0.1329 -1.1014  0.1090
  642MOL0     C86597   1.572   7.848  -0.187 -0.3198 -0.8533  0.3013
  642MOL0     C86598   1.569   7.894  -0.319  0.1268  0.3270  0.6606
  642MOL0     C86599   1.553   7.939  -0.428 -0.5979  0.3906 -0.5025
  642MOL0     C86600   1.362   8.041   0.264 -0.5182 -0.8609  0.8059
  642MOL0     C86601   1.240   8.065   0.333  0.4292  0.4163  0.7872
  642MOL0     C86602   1.238   8.184   0.418  0.1168  0.1027 -0.0875
  642MOL0     H86603   0.711   7.983   0.442  0.7700  1.1137 -0.2760
  642MOL0     H86604   0.475   7.926   0.410  0.9776  2.3558  0.2497
  642MOL0     H86605   0.303   7.956  -0.014 -0.8965 -0.7768 -1.3051
  642MOL0     H86606   0.368   7.795  -0.015 -1.7189 -0.9258 -1.2268
  642MOL0     H86607   0.087   7.866   0.056  2.4883  1.8190 -4.6860
  642MOL0     H86608   0.168   7.738   0.160 -4.2420 -1.6553 -0.4926
  642MOL0     H86609   0.231   7.646  -0.079  0.0465  0.2586  0.7028
  642MOL0     H86610   0.085   7.727  -0.132  1.5118 -1.9697 -2.1710
  642MOL0     H86611   0.104   7.517   0.070  1.4344  0.9519 -0.9497
  642MOL0     H86612  -0.029   7.630   0.054 -0.5811  1.0322 -2.6038
  642MOL0     H86613  -0.075   7.425  -0.059  0.2891  0.3996  1.2004
  642MOL0     H86614  -0.065   7.556  -0.180 -1.5315  1.4189  1.6005
  642MOL0     H86615   0.162   7.494  -0.238  0.8294  0.6468  2.1946
  642MOL0     H86616   0.161   7.360  -0.124 -1.1766 -0.3075 -0.3393
  642MOL0     H86617  -0.058   7.291  -0.252 -1.3151  0.5009 -1.8269
  642MOL0     H86618   0.109   7.240  -0.304 -0.0775  0.0082  0.5645
  642MOL0     H86619  -0.045   7.469  -0.436 -0.7724 -0.3091  1.3506
  642MOL0     H86620   0.101   7.404  -0.491 -0.5815  1.6185  1.2348
  642MOL0     H86621  -0.240   7.229  -0.371 -1.9958 -1.5737  0.3091
  642MOL0     H86622  -0.449   7.189  -0.565 -0.1962  0.6160 -2.8198
  642MOL0     H86623  -0.396   7.107  -0.705  0.2288 -2.2364  0.0720
  642MOL0     H86624  -0.502   6.944  -0.565 -0.9896  3.2736 -2.5201
  642MOL0     H86625  -0.334   6.896  -0.578 -1.7634 -0.1221 -1.8480
  642MOL0     H86626  -0.426   7.073  -0.334 -0.4498  0.0383  0.7525
  642MOL0     H86627  -0.267   6.997  -0.362 -0.1993  2.5399  0.0056
  642MOL0     H86628  -0.324   6.788  -0.311  2.4063  2.6602  1.1088
  642MOL0     H86629  -0.501   6.810  -0.339 -1.1139  1.2786  1.0573
  642MOL0     H86630  -0.447   6.856   0.086  0.0810  0.1166  0.7151
  642MOL0     H86631  -0.642   6.919   0.217  0.2391 -2.2434 -0.5324
  642MOL0     H86632  -0.946   6.801   0.480  3.4385  2.4628 -2.2694
  642MOL0     H86633  -1.188   6.794   0.570  0.4290 -0.0626  0.0900
  642MOL0     H86634  -1.428   7.142   0.458 -0.7563 -1.0146  1.8003
  642MOL0     H86635  -1.496   6.988   0.400  0.2522 -0.6648  0.1710
  642MOL0     H86636  -1.613   6.959   0.620  3.3478 -0.4039  1.7000
  642MOL0     H86637  -1.542   7.116   0.663 -4.5491 -0.0606  1.3996
  642MOL0     H86638  -1.757   7.186   0.587  0.2718  2.8222 -1.6777
  642MOL0     H86639  -1.672   7.210   0.442  0.5817 -1.0655 -1.6787
  642MOL0     H86640  -1.826   6.953   0.491 -3.2625  1.0065 -0.8803
  642MOL0     H86641  -1.715   6.992   0.355  0.8502  0.7374 -1.2253
  642MOL0     H86642  -1.866   7.179   0.283 -1.5981  0.4431  0.1882
  642MOL0     H86643  -1.948   7.169   0.437 -1.3881  0.0770 -0.9215
  642MOL0     H86644  -1.943   6.990   0.200  1.6263 -0.6881  0.5428
  642MOL0     H86645  -2.001   6.925   0.358  3.1237  0.8215  0.9524
  642MOL0     H86646  -2.141   7.158   0.204  1.9410  2.2699  0.8960
  642MOL0     H86647  -2.167   7.126   0.379 -0.7459  1.2201 -0.5576
  642MOL0     H86648  -2.185   6.890   0.199 -0.5757 -2.0987  0.2021
  642MOL0     H86649  -2.244   6.916   0.357 -2.0763 -1.2690 -1.6067
  642MOL0     H86650  -1.255   7.179   0.388 -3.1141 -2.4516 -1.4131
  642MOL0     H86651  -1.026   7.168   0.277  1.8417  0.0356  0.7991
  642MOL0     H86652  -0.846   7.045  -0.119 -3.0115 -2.8966  3.3771
  642MOL0     H86653  -0.636   6.984  -0.273 -1.4845  2.2561 -0.0372
  642MOL0     H86654   0.549   7.900  -0.011 -1.2446 -4.1486  0.6659
  642MOL0     H86655   0.760   8.002   0.009 -0.0182  1.0540  0.1172
  642MOL0     H86656   1.069   7.803   0.198 -0.9771  1.2605  3.8290
  642MOL0     H86657   1.286   7.747   0.114  1.9888 -0.1021  0.2428
  642MOL0     H86658   1.649   7.953   0.222  0.7014  1.0621 -1.3900
  642MOL0     H86659   1.606   8.066   0.104  1.5858  0.2429 -0.0065
  642MOL0     H86660   1.687   7.771   0.044  0.7166 -0.2671  2.0175
  642MOL0     H86661   1.798   7.913   0.060  0.3438  0.4162 -1.3652
  642MOL0     H86662   1.782   7.903  -0.170  0.4111 -1.0128  0.9485
  642MOL0     H86663   1.676   8.029  -0.113 -2.5110 -1.3216 -1.4389
  642MOL0     H86664   1.588   7.740  -0.177  2.4179 -0.4256  1.7134
  642MOL0     H86665   1.480   7.883  -0.139  1.0237  0.8667  1.7942
  642MOL0     H86666   1.531   7.967  -0.529  0.7322 -3.2017 -1.9636
  642MOL0     H86667   1.444   8.111   0.267 -1.1334  0.0515 -1.4533
  642MOL0     H86668   1.329   8.241   0.436  1.0988 -1.8393  1.5534
  642MOL0     H86669   1.171   8.260   0.378  2.7959  3.7421  1.6928
  642MOL0     H86670   1.202   8.154   0.517 -2.4269  1.2505 -0.5744
  643MOL0     O86671  10.572   7.668   0.268  0.0854 -0.0074 -0.3518
  643MOL0     C86672  10.494   7.651   0.364 -0.0552 -0.0656  1.4937
  643MOL0     O86673  10.515   7.690   0.491 -0.2982  0.4915  0.5290
  643MOL0     C86674  10.642   7.710   0.541 -0.2630  0.9942  0.1033
  643MOL0     C86675  10.747   7.612   0.521 -0.1264  0.8568 -0.3603
  643MOL0     C86676  10.854   7.605   0.616 -0.1561  0.0633 -0.1970
  643MOL0     C86677  10.872   7.706   0.708  0.3004  0.3098  0.5539
  643MOL0     O86678  10.980   7.727   0.786 -0.6093 -0.2876 -0.0275
  643MOL0     C86679  11.041   7.612   0.841 -0.8230 -0.9150  0.5255
  643MOL0     C86680  11.101   7.635   0.986 -0.7467 -0.3633  0.4401
  643MOL0     C86681  11.214   7.731   0.965 -1.0214 -0.4120  0.5392
  643MOL0     C86682  11.319   7.747   1.070 -0.0606  0.3622 -0.8267
  643MOL0     C86683  11.443   7.819   1.025  0.2472 -0.2254  0.2975
  643MOL0     C86684  11.560   7.810   1.133 -0.1721 -0.7747 -0.4644
  643MOL0     C86685  11.672   7.904   1.085 -0.2464 -0.1743 -0.7795
  643MOL0     C86686  11.659   8.055   1.122  0.3721  0.2710  0.2362
  643MOL0     N86687  11.777   8.132   1.071  0.2856 -0.3878 -0.1692
  643MOL0     C86688  11.904   8.105   1.092 -0.0745  0.1631 -0.6525
  643MOL0     C86689  11.969   8.197   1.011  0.4586  0.2452  0.0140
  643MOL0     C86690  12.119   8.222   1.001  0.0668 -0.2602  0.3484
  643MOL0     C86691  12.178   8.286   1.126 -0.4540 -0.2914  0.1072
  643MOL0     C86692  12.104   8.414   1.180 -0.1932  0.5773 -0.0532
  643MOL0     C86693  12.201   8.494   1.274 -0.1340  0.8619  0.2362
  643MOL0     O86694  12.286   8.403   1.342 -0.5394  0.0082 -0.3774
  643MOL0     C86695  12.406   8.456   1.375  0.0979 -0.2299 -1.6302
  643MOL0     C86696  12.516   8.365   1.378 -0.4220 -0.3293  0.3784
  643MOL0     C86697  12.644   8.421   1.400  0.3698  0.7089 -0.0114
  643MOL0     C86698  12.665   8.559   1.431 -0.1613  0.2405  0.4793
  643MOL0     C86699  12.804   8.617   1.429  0.9550 -0.9153  0.4018
  643MOL0     O86700  12.907   8.535   1.384  0.2352  0.2972  0.4440
  643MOL0     C86701  13.032   8.585   1.402 -0.0969  0.0224  0.6913
  643MOL0     C86702  13.121   8.593   1.294 -0.2040 -0.0293  0.2651
  643MOL0     C86703  13.246   8.647   1.306  0.6549  0.7792  0.1931
  643MOL0     C86704  13.292   8.697   1.431  0.1998 -0.8461 -0.7167
  643MOL0     O86705  13.418   8.765   1.448 -0.0541 -0.6454 -0.0306
  643MOL0     C86706  13.531   8.738   1.376 -0.7355  0.0385  0.4179
  643MOL0     C86707  13.546   8.820   1.244  0.3914 -0.4924 -0.7244
  643MOL0     C86708  13.682   8.862   1.221 -0.6087 -0.7999  1.0140
  643MOL0     C86709  13.703   8.911   1.074 -1.4337  0.2021 -0.4123
  643MOL0     C86710  13.821   9.004   1.033  0.7400  0.4122 -0.0646
  643MOL0     C86711  13.961   8.960   1.076 -0.1028 -0.0293 -0.7491
  643MOL0     C86712  14.051   9.063   1.005 -1.0101 -1.9178 -0.5272
  643MOL0     C86713  14.191   9.052   1.054 -0.8015 -0.1342  0.1305
  643MOL0    Cl86714  14.182   9.040   1.234  0.1895  0.1524 -0.0437
  643MOL0     C86715  13.210   8.690   1.540 -0.0768  0.5506  0.0190
  643MOL0     C86716  13.081   8.626   1.527  0.2903 -0.4351 -0.1426
  643MOL0     O86717  12.817   8.734   1.472 -0.6748  0.1363 -0.7756
  643MOL0     C86718  12.552   8.638   1.445  0.1973  0.5985  0.7523
  643MOL0     C86719  12.426   8.590   1.420  0.3056  0.2661 -1.2478
  643MOL0     N86720  11.882   8.279   0.945  0.2293  0.5691 -0.1409
  643MOL0     N86721  11.767   8.239   0.994  0.0987  0.6523  0.0029
  643MOL0     C86722  10.780   7.816   0.712  0.2556  1.0723 -0.8250
  643MOL0     C86723  10.659   7.808   0.641  0.5952  0.3444 -0.1064
  643MOL0     C86724  10.372   7.585   0.323 -0.2627  1.1138 -0.0221
  643MOL0     C86725  10.256   7.631   0.390  0.2201  0.4144 -0.4091
  643MOL0     C86726  10.132   7.582   0.355  0.4047 -0.6845  0.2966
  643MOL0     C86727  10.116   7.488   0.249 -0.8729  0.5142 -0.4520
  643MOL0     O86728   9.997   7.417   0.230 -0.4157  0.4025  0.6252
  643MOL0     C86729   9.875   7.492   0.254  1.4082 -0.4130  0.4853
  643MOL0     C86730   9.847   7.623   0.173 -0.0163  0.1310 -0.3055
  643MOL0     C86731   9.895   7.614   0.026  0.1414  0.0358 -0.4112
  643MOL0     C86732   9.855   7.727  -0.056 -0.4516 -1.6356  0.3584
  643MOL0     C86733   9.956   7.835  -0.055 -0.7672 -0.0098 -0.8034
  643MOL0     C86734  10.042   7.915  -0.061  0.2662 -0.0455 -0.2800
  643MOL0     C86735  10.230   7.455   0.175 -0.6985  0.0247 -0.5111
  643MOL0     C86736  10.360   7.499   0.206  0.1473 -0.2907 -0.6523
  643MOL0     C86737  10.479   7.436   0.132  0.6702 -0.2446  0.9133
  643MOL0     H86738  10.748   7.544   0.437  2.7033  1.0155 -0.5506
  643MOL0     H86739  10.923   7.523   0.600 -1.8472 -1.7896  1.4664
  643MOL0     H86740  10.966   7.534   0.859 -1.6728 -0.1430  0.4194
  643MOL0     H86741  11.122   7.573   0.778 -2.3260 -0.9128 -1.5081
  643MOL0     H86742  11.143   7.541   1.026  0.0696 -2.0896 -3.9200
  643MOL0     H86743  11.024   7.680   1.049 -2.1329 -0.3301 -1.2252
  643MOL0     H86744  11.176   7.832   0.946  0.4198 -0.3342 -2.5442
  643MOL0     H86745  11.265   7.711   0.870  1.5497 -0.0952  1.7669
  643MOL0     H86746  11.288   7.797   1.163  2.9846  1.0638 -0.0926
  643MOL0     H86747  11.340   7.643   1.096 -2.3277 -0.7549 -3.0559
  643MOL0     H86748  11.476   7.766   0.936 -1.8296 -0.1897 -0.5376
  643MOL0     H86749  11.414   7.923   1.005 -0.5720 -0.7993 -1.7525
  643MOL0     H86750  11.523   7.843   1.230 -4.7491 -2.8302 -1.2031
  643MOL0     H86751  11.603   7.711   1.147  2.8827 -0.0852 -3.4915
  643MOL0     H86752  11.680   7.900   0.976  2.1945 -0.2540 -0.6683
  643MOL0     H86753  11.769   7.868   1.123  0.2726  2.4354  0.6128
  643MOL0     H86754  11.572   8.100   1.073  1.2339  2.9455  1.0243
  643MOL0     H86755  11.645   8.051   1.231 -4.1196  2.1570 -0.0482
  643MOL0     H86756  11.947   8.026   1.153 -1.2535  0.6657  0.9064
  643MOL0     H86757  12.178   8.132   0.983 -1.8380 -1.4057 -0.5298
  643MOL0     H86758  12.133   8.286   0.913 -0.9801  1.0369  1.0864
  643MOL0     H86759  12.184   8.218   1.211  0.4494  1.1945  1.2693
  643MOL0     H86760  12.277   8.319   1.097  0.0015 -1.2864  0.4679
  643MOL0     H86761  12.017   8.383   1.238  1.7091 -0.3805  2.4757
  643MOL0     H86762  12.077   8.481   1.098  3.0928  2.5076  0.2732
  643MOL0     H86763  12.153   8.565   1.342 -1.8524  0.1732 -0.2262
  643MOL0     H86764  12.253   8.554   1.198  1.3651  0.5721  0.9838
  643MOL0     H86765  12.495   8.266   1.339 -2.8798 -0.6040  2.1739
  643MOL0     H86766  12.721   8.345   1.401  1.7296  2.0121  1.6467
  643MOL0     H86767  13.101   8.552   1.196  0.1835 -0.3681  0.3259
  643MOL0     H86768  13.319   8.654   1.226  3.2695 -0.4265  2.3180
  643MOL0     H86769  13.614   8.768   1.440  0.3474 -0.0861 -0.8927
  643MOL0     H86770  13.535   8.631   1.354  0.8388  0.3184 -0.8135
  643MOL0     H86771  13.528   8.754   1.160 -1.9179 -0.3932 -0.3737
  643MOL0     H86772  13.481   8.907   1.232  2.4857  1.0320 -1.6271
  643MOL0     H86773  13.707   8.944   1.289 -2.3930  0.3158  0.4029
  643MOL0     H86774  13.745   8.775   1.239 -1.0445 -1.2339  0.4551
  643MOL0     H86775  13.621   8.974   1.039 -1.1519  1.7054  1.4851
  643MOL0     H86776  13.709   8.826   1.005 -0.1833  2.0689 -2.7516
  643MOL0     H86777  13.788   9.094   1.086 -1.3442 -0.3934  0.1334
  643MOL0     H86778  13.818   9.017   0.925  0.9473 -1.0563 -0.2655
  643MOL0     H86779  13.961   8.967   1.185 -0.9433  3.0979 -0.8701
  643MOL0     H86780  13.993   8.860   1.045 -0.5821 -0.0406 -1.2391
  643MOL0     H86781  14.014   9.166   1.008 -2.9757 -2.5824 -0.7841
  643MOL0     H86782  14.053   9.034   0.900  0.9224  1.9854 -1.7574
  643MOL0     H86783  14.242   8.966   1.008 -0.1046  0.6962 -0.6948
  643MOL0     H86784  14.250   9.137   1.018 -1.6748  0.3053 -0.2984
  643MOL0     H86785  13.243   8.731   1.635  0.7135  0.0721 -0.0394
  643MOL0     H86786  13.017   8.628   1.614  0.6684 -2.0345  0.2166
  643MOL0     H86787  12.569   8.738   1.484  3.6518 -0.0546  1.2401
  643MOL0     H86788  12.343   8.659   1.427  0.7991  1.2212 -3.6090
  643MOL0     H86789  10.790   7.897   0.784 -2.6208  1.5610 -0.8327
  643MOL0     H86790  10.577   7.879   0.650 -2.0434 -2.2984 -1.6250
  643MOL0     H86791  10.265   7.722   0.449 -1.4168 -0.3578  1.1265
  643MOL0     H86792  10.040   7.629   0.389 -0.9399 -0.7232 -2.9269
  643MOL0     H86793   9.853   7.510   0.360  3.3833 -1.9895  1.2186
  643MOL0     H86794   9.796   7.422   0.225 -0.7278  1.7408  0.7508
  643MOL0     H86795   9.896   7.705   0.227 -1.1704  0.9402 -0.4604
  643MOL0     H86796   9.739   7.634   0.177 -0.4227 -2.5383 -1.7002
  643MOL0     H86797   9.865   7.519  -0.018  0.8482  0.0725 -0.9750
  643MOL0     H86798  10.003   7.601   0.033 -0.1760 -2.3364  1.6171
  643MOL0     H86799   9.853   7.689  -0.158 -0.2162  1.1062 -0.7658
  643MOL0     H86800   9.759   7.773  -0.028  1.0376  1.1095  1.4273
  643MOL0     H86801  10.108   7.998  -0.078 -0.8908  1.4546  1.9812
  643MOL0     H86802  10.215   7.382   0.096 -0.7034 -0.3820 -0.1437
  643MOL0     H86803  10.442   7.343   0.088 -1.4134  1.0070 -0.1882
  643MOL0     H86804  10.502   7.508   0.053  2.7848 -0.1161  1.5939
  643MOL0     H86805  10.569   7.417   0.190  1.4156  1.8384  0.5330
  644MOL0     O86806   0.014   9.876   6.183  0.3093 -0.2434 -0.0908
  644MOL0     C86807  -0.060   9.876   6.281  0.1580  0.4739 -0.0750
  644MOL0     O86808  -0.016   9.851   6.402  0.1217 -0.0281 -0.2092
  644MOL0     C86809   0.109   9.823   6.435 -0.1134 -1.3069  0.5725
  644MOL0     C86810   0.180   9.881   6.540 -1.2024  0.0075 -0.4690
  644MOL0     C86811   0.298   9.816   6.590  0.5006 -0.1604  0.1445
  644MOL0     C86812   0.350   9.700   6.529  0.0830 -0.2483 -0.9326
  644MOL0     O86813   0.464   9.635   6.567  0.1788  0.5864 -0.1334
  644MOL0     C86814   0.568   9.695   6.658  0.7070  0.0632  0.5270
  644MOL0     C86815   0.612   9.586   6.757  0.3734  0.1920  0.5179
  644MOL0     C86816   0.764   9.569   6.754 -0.2521  0.8809  0.2080
  644MOL0     C86817   0.806   9.459   6.856  0.1685 -0.5296  0.3659
  644MOL0     C86818   0.963   9.451   6.870  0.7848  0.2852  0.4241
  644MOL0     C86819   1.010   9.538   6.987  0.0684  0.2026 -0.6319
  644MOL0     C86820   0.992   9.687   6.959 -0.5468  0.7134 -0.6100
  644MOL0     C86821   1.049   9.788   7.057 -0.5449 -0.7468 -0.3137
  644MOL0     N86822   1.188   9.808   7.039 -0.7783 -0.0023 -0.5154
  644MOL0     C86823   1.247   9.855   6.922 -0.8069 -0.2810  0.4489
  644MOL0     C86824   1.385   9.861   6.946  0.0396  0.4882  0.0082
  644MOL0     C86825   1.469   9.896   6.833 -0.2316 -0.0618  1.0215
  644MOL0     C86826   1.457   9.782   6.723  0.6366  0.5972  0.0581
  644MOL0     C86827   1.516   9.813   6.587  0.8035 -0.7344 -0.0827
  644MOL0     C86828   1.661   9.871   6.580 -0.1931  0.4605  0.1852
  644MOL0     O86829   1.761   9.768   6.622  0.2992 -0.4392  0.1103
  644MOL0     C86830   1.891   9.796   6.611  0.3111 -0.1006 -0.7494
  644MOL0     C86831   1.951   9.910   6.565 -0.3576 -0.0739  0.0116
  644MOL0     C86832   2.091   9.912   6.586 -0.5400  0.4912 -0.4007
  644MOL0     C86833   2.160   9.808   6.658  0.4891  0.4084  0.3062
  644MOL0     C86834   2.307   9.805   6.698  0.2059 -0.8667  0.1196
  644MOL0     O86835   2.340   9.732   6.809  0.6786 -0.2737 -0.1858
  644MOL0     C86836   2.464   9.744   6.862 -0.7650 -0.1812  0.1167
  644MOL0     C86837   2.488   9.734   6.996  0.3580 -0.5958  0.4945
  644MOL0     C86838   2.613   9.754   7.054  0.1230  0.0955 -0.3863
  644MOL0     C86839   2.727   9.773   6.967  0.0038 -0.5158 -0.6948
  644MOL0     O86840   2.850   9.794   7.019  0.0708 -0.2350  0.0407
  644MOL0     C86841   2.873   9.887   7.126  0.3420  0.7025 -0.0430
  644MOL0     C86842   2.971   9.830   7.227  0.0183  0.2900 -0.1573
  644MOL0     C86843   2.988   9.908   7.348  0.3603  0.4748  0.5063
  644MOL0     C86844   3.044  10.045   7.314 -0.2433  1.4418 -0.6912
  644MOL0     C86845   3.079  10.119   7.449  0.0126  0.2876  0.1201
  644MOL0     C86846   3.168  10.233   7.421  0.2748  0.4103  0.2845
  644MOL0     C86847   3.210  10.306   7.552  0.4311 -0.1451 -0.2469
  644MOL0     C86848   3.259  10.448   7.523  0.3136 -1.2290 -0.0870
  644MOL0    Cl86849   3.363  10.485   7.654 -0.1779  0.5037 -0.4346
  644MOL0     C86850   2.709   9.770   6.830 -0.7192  1.1051 -0.3140
  644MOL0     C86851   2.581   9.745   6.781  1.0272  0.7341  0.0906
  644MOL0     O86852   2.380   9.888   6.643  0.0585 -0.3574  0.6055
  644MOL0     C86853   2.091   9.703   6.709  0.1749  0.2363 -0.7399
  644MOL0     C86854   1.959   9.691   6.685 -0.0271 -0.5464  0.0784
  644MOL0     N86855   1.406   9.824   7.078 -0.0329  0.3415 -0.8271
  644MOL0     N86856   1.291   9.786   7.132 -0.1541  0.4397  0.4256
  644MOL0     C86857   0.282   9.654   6.418  0.7126  0.2710  0.8494
  644MOL0     C86858   0.169   9.715   6.374 -0.0860 -0.5483  0.0674
  644MOL0     C86859  -0.205   9.907   6.267  1.1104 -0.7117 -0.0978
  644MOL0     C86860  -0.292   9.881   6.376 -0.6606  0.7275 -0.2026
  644MOL0     C86861  -0.433   9.890   6.368 -0.0451  1.0470  1.1233
  644MOL0     C86862  -0.498   9.941   6.257 -0.4823  0.1303  0.8143
  644MOL0     O86863  -0.628   9.948   6.248  0.2079 -0.6877 -0.9190
  644MOL0     C86864  -0.683  10.019   6.359  0.4901 -0.3944  0.8275
  644MOL0     C86865  -0.840  10.023   6.338  0.3140 -0.2921 -0.7475
  644MOL0     C86866  -0.893  10.099   6.220 -0.6920 -0.1464  0.1749
  644MOL0     C86867  -1.048  10.130   6.236 -0.5363  0.4841 -0.3955
  644MOL0     C86868  -1.086  10.230   6.134 -0.4882  0.2074 -0.0545
  644MOL0     C86869  -1.147  10.300   6.053  0.3466  0.0980 -0.4963
  644MOL0     C86870  -0.414   9.974   6.145 -0.3750 -0.6941 -0.0408
  644MOL0     C86871  -0.274   9.957   6.153  0.3403 -0.3431  0.1108
  644MOL0     C86872  -0.203  10.012   6.022  0.3452 -0.2278 -0.1848
  644MOL0     H86873   0.136   9.972   6.581 -2.0986 -0.6402  0.0505
  644MOL0     H86874   0.345   9.852   6.681  0.9819 -1.2998  0.3673
  644MOL0     H86875   0.652   9.742   6.606 -0.8576  1.5544 -0.7795
  644MOL0     H86876   0.516   9.769   6.720 -0.3258  0.0997 -0.3588
  644MOL0     H86877   0.570   9.486   6.741  0.9448 -0.1460  1.0774
  644MOL0     H86878   0.574   9.607   6.857  0.2187 -0.2206  0.5509
  644MOL0     H86879   0.818   9.665   6.757  0.5009  0.5958 -2.1389
  644MOL0     H86880   0.799   9.539   6.655  2.5997  1.8117  0.8262
  644MOL0     H86881   0.767   9.483   6.955  2.4110 -1.7453  1.6339
  644MOL0     H86882   0.766   9.359   6.832 -0.0474 -0.3637  0.0213
  644MOL0     H86883   0.977   9.344   6.890  1.3458  0.7663  2.9653
  644MOL0     H86884   1.012   9.483   6.777  1.9366 -0.8743  0.5970
  644MOL0     H86885   0.968   9.499   7.080  0.6808  1.4924  0.2112
  644MOL0     H86886   1.118   9.526   6.998  0.0650  2.1819  5.0353
  644MOL0     H86887   0.885   9.705   6.967 -0.1971  2.2235  1.6103
  644MOL0     H86888   1.027   9.713   6.859 -1.2232  2.0035 -0.5275
  644MOL0     H86889   0.993   9.880   7.036 -0.7043  0.0831  3.0859
  644MOL0     H86890   1.034   9.769   7.164 -0.6679  1.2681  0.0689
  644MOL0     H86891   1.192   9.886   6.833 -0.0452 -2.0328 -0.6864
  644MOL0     H86892   1.427   9.990   6.795  0.2925 -1.4350 -3.4960
  644MOL0     H86893   1.574   9.908   6.861  0.0941  1.0719 -0.5413
  644MOL0     H86894   1.503   9.689   6.760  2.3775  0.4737 -2.1555
  644MOL0     H86895   1.352   9.755   6.722  1.1492 -1.5859  0.2707
  644MOL0     H86896   1.449   9.889   6.548 -0.7798 -1.4682  1.0937
  644MOL0     H86897   1.509   9.725   6.523 -1.5761  0.0135 -0.9382
  644MOL0     H86898   1.674   9.958   6.644  0.7694 -0.8185  1.8370
  644MOL0     H86899   1.668   9.898   6.475 -0.1982  1.7018  0.4973
  644MOL0     H86900   1.888   9.985   6.519  0.8086  0.4771 -0.7492
  644MOL0     H86901   2.147  10.001   6.558 -1.5561  1.3471  0.1791
  644MOL0     H86902   2.394   9.729   7.050  1.0283  0.7116  1.8165
  644MOL0     H86903   2.624   9.760   7.162  0.7091  0.6533 -0.4735
  644MOL0     H86904   2.891   9.987   7.086 -0.3632  0.1224 -1.9220
  644MOL0     H86905   2.779   9.906   7.178  0.5496  1.2615  0.1280
  644MOL0     H86906   2.925   9.738   7.263 -1.7843  0.2974 -2.1925
  644MOL0     H86907   3.066   9.809   7.175  0.3229  1.0418  0.0846
  644MOL0     H86908   2.888   9.919   7.389 -0.3828  0.0131 -1.1107
  644MOL0     H86909   3.052   9.856   7.421  0.8873 -0.5806 -0.6744
  644MOL0     H86910   2.957  10.100   7.275 -1.4447 -1.0207 -1.6854
  644MOL0     H86911   3.130  10.036   7.248  0.0978 -0.6973 -0.0092
  644MOL0     H86912   3.133  10.058   7.523  0.3812 -1.3437 -1.4255
  644MOL0     H86913   2.994  10.162   7.502 -0.0971 -1.8720  1.8731
  644MOL0     H86914   3.260  10.201   7.372  0.1728  1.2360 -0.4790
  644MOL0     H86915   3.118  10.311   7.363  1.0408  0.0613 -0.8955
  644MOL0     H86916   3.293  10.254   7.600  4.1079  4.1138 -1.2351
  644MOL0     H86917   3.141  10.311   7.637 -0.2186  0.1167 -0.7832
  644MOL0     H86918   3.307  10.458   7.426  0.3135  3.5536  0.1570
  644MOL0     H86919   3.177  10.520   7.521  0.6027 -0.8828  0.2911
  644MOL0     H86920   2.798   9.784   6.769  0.5094  0.7101  1.3076
  644MOL0     H86921   2.575   9.734   6.673  0.2370 -0.8722  0.2709
  644MOL0     H86922   2.131   9.632   6.780 -0.8956 -1.1812 -1.5118
  644MOL0     H86923   1.913   9.598   6.717 -2.7031  0.7321  0.2832
  644MOL0     H86924   0.320   9.559   6.383  2.8443  1.7091 -0.9810
  644MOL0     H86925   0.119   9.658   6.297 -0.5049  0.7880 -0.6860
  644MOL0     H86926  -0.248   9.862   6.474 -0.7088 -0.9152 -0.4657
  644MOL0     H86927  -0.507   9.855   6.439 -1.3191  0.8240 -0.2533
  644MOL0     H86928  -0.639  10.119   6.367 -1.5009  0.5128  1.1784
  644MOL0     H86929  -0.679   9.968   6.456 -0.5895 -2.6695 -0.2605
  644MOL0     H86930  -0.892  10.072   6.421  0.4750 -1.9963  0.4206
  644MOL0     H86931  -0.873   9.919   6.349 -0.6707 -0.2421 -2.7416
  644MOL0     H86932  -0.882  10.034   6.132  0.4552 -1.3036  1.1329
  644MOL0     H86933  -0.846  10.195   6.198 -0.4062 -1.0093 -3.8090
  644MOL0     H86934  -1.093  10.031   6.228  3.0986 -1.2373 -2.6927
  644MOL0     H86935  -1.061  10.179   6.333  1.0532  1.0763 -0.4370
  644MOL0     H86936  -1.193  10.349   5.970  2.9450  2.2350 -0.8047
  644MOL0     H86937  -0.473  10.007   6.060 -2.0693 -2.6855  0.2683
  644MOL0     H86938  -0.254   9.973   5.933  0.2484 -1.0006  0.2103
  644MOL0     H86939  -0.207  10.122   6.018 -1.8007 -0.2065  1.0233
  644MOL0     H86940  -0.096   9.990   6.017  1.0469  2.4895  0.7248
  645MOL0     O86941   1.596   7.339   6.695 -0.1873  0.1898  0.2714
  645MOL0     C86942   1.542   7.414   6.612  0.0224  0.3238 -0.0631
  645MOL0     O86943   1.610   7.508   6.533 -0.0516  0.3479  0.0497
  645MOL0     C86944   1.747   7.513   6.543 -0.2234 -0.1041  0.0665
  645MOL0     C86945   1.815   7.534   6.414  0.0763  0.1909 -0.0690
  645MOL0     C86946   1.950   7.558   6.407 -0.4206  0.8260  0.9912
  645MOL0     C86947   2.026   7.546   6.526  0.8920  0.1865  0.8170
  645MOL0     O86948   2.159   7.576   6.514  0.2946  0.6923 -0.6534
  645MOL0     C86949   2.243   7.555   6.635 -0.2379 -0.1250  0.0079
  645MOL0     C86950   2.390   7.579   6.595 -0.7876 -0.6212  0.5935
  645MOL0     C86951   2.412   7.735   6.571 -0.2011 -0.5852  0.2380
  645MOL0     C86952   2.562   7.765   6.578 -0.2263 -0.6294  0.0485
  645MOL0     C86953   2.590   7.903   6.522  0.3517 -0.5051  0.1382
  645MOL0     C86954   2.747   7.930   6.518  0.5297  0.8133  0.4478
  645MOL0     C86955   2.804   8.056   6.473  0.7882 -1.1206  0.4797
  645MOL0     C86956   2.962   8.054   6.472 -0.1598 -0.8047  0.2555
  645MOL0     N86957   3.025   8.075   6.606  0.3716 -0.2633  0.0110
  645MOL0     C86958   3.039   8.194   6.645 -0.0192 -0.0612  0.2213
  645MOL0     C86959   3.124   8.191   6.750  0.2332  0.4592 -0.2471
  645MOL0     C86960   3.166   8.300   6.851 -0.2557 -0.1627 -0.0735
  645MOL0     C86961   3.296   8.365   6.804  0.4350 -0.0611  0.0452
  645MOL0     C86962   3.413   8.264   6.814 -0.1744  0.1079 -0.1782
  645MOL0     C86963   3.527   8.316   6.734 -0.3421 -0.1880  0.5195
  645MOL0     O86964   3.543   8.460   6.735  0.3610 -0.7256 -0.2264
  645MOL0     C86965   3.639   8.521   6.653  1.3513  0.5483 -0.4551
  645MOL0     C86966   3.651   8.655   6.659 -0.3500 -0.0536  0.0497
  645MOL0     C86967   3.760   8.716   6.606 -0.4562 -0.6244  0.8071
  645MOL0     C86968   3.855   8.640   6.539 -0.6466  0.4036 -0.2827
  645MOL0     C86969   3.968   8.722   6.489  0.0572 -0.3804 -0.2120
  645MOL0     O86970   3.946   8.851   6.437  0.0527  0.9563  0.2180
  645MOL0     C86971   4.050   8.913   6.377 -0.5315 -0.0829  0.2475
  645MOL0     C86972   4.150   8.853   6.303 -0.8535  0.2873  0.8160
  645MOL0     C86973   4.247   8.926   6.233 -0.0168 -0.3137  0.8141
  645MOL0     C86974   4.254   9.063   6.235  0.6834 -0.0708 -0.5243
  645MOL0     O86975   4.346   9.144   6.170  0.7798  0.2256 -0.2671
  645MOL0     C86976   4.474   9.077   6.147  0.0445  1.2387 -0.0399
  645MOL0     C86977   4.575   9.188   6.111  0.3727  0.0440 -0.9330
  645MOL0     C86978   4.717   9.129   6.127  0.2640  0.3891 -0.3923
  645MOL0     C86979   4.813   9.246   6.081  0.2560 -0.7006 -0.3410
  645MOL0     C86980   4.960   9.209   6.080 -0.1442 -0.7968 -0.0850
  645MOL0     C86981   4.993   9.091   5.972 -0.1795 -0.4941 -0.0524
  645MOL0     C86982   5.143   9.064   5.949  0.1240 -0.2538  1.0552
  645MOL0     C86983   5.188   8.933   5.879  0.5095  0.6280 -0.8308
  645MOL0    Cl86984   5.364   8.953   5.832 -0.5169 -0.2512  0.1837
  645MOL0     C86985   4.154   9.123   6.305  0.4930  0.0129 -1.3097
  645MOL0     C86986   4.052   9.049   6.366 -0.5295 -0.4443 -0.2192
  645MOL0     O86987   4.080   8.669   6.497 -0.4582  0.9300  0.2445
  645MOL0     C86988   3.842   8.508   6.525  0.2377  0.4410  0.2249
  645MOL0     C86989   3.730   8.442   6.580 -0.3307 -0.4823 -0.1805
  645MOL0     N86990   3.181   8.062   6.757 -0.3302  0.3627  0.3503
  645MOL0     N86991   3.114   7.996   6.667  0.4863  0.3657 -0.5340
  645MOL0     C86992   1.966   7.525   6.651  0.7797  0.1205  0.6095
  645MOL0     C86993   1.831   7.506   6.654 -0.1369  0.3071 -0.4127
  645MOL0     C86994   1.394   7.404   6.611  0.3404  0.4602 -0.5674
  645MOL0     C86995   1.323   7.425   6.489 -0.6197  0.9228  0.6793
  645MOL0     C86996   1.187   7.406   6.477  0.1976  0.3460  0.3508
  645MOL0     C86997   1.115   7.362   6.593  0.8080 -0.7294 -0.2629
  645MOL0     O86998   0.981   7.330   6.587  0.1809  0.2570  0.9122
  645MOL0     C86999   0.932   7.275   6.463 -0.9590  0.8030 -0.8142
  645MOL0     C87000   0.815   7.177   6.492 -0.5110  0.5442  0.4744
  645MOL0     C87001   0.863   7.057   6.575  0.6531 -0.3798 -0.0698
  645MOL0     C87002   0.761   6.958   6.633  1.0485 -0.5389  0.7593
  645MOL0     C87003   0.648   7.027   6.714 -0.4315  1.3739  0.8381
  645MOL0     C87004   0.568   7.084   6.781  0.0424  0.8987  0.9872
  645MOL0     C87005   1.179   7.361   6.714 -0.4717  0.5687 -0.1985
  645MOL0     C87006   1.318   7.377   6.728  0.0153 -0.5657 -1.6569
  645MOL0     C87007   1.375   7.379   6.871 -0.6303  0.6127  0.1243
  645MOL0     H87008   1.749   7.537   6.328 -2.1375  1.3681  1.5987
  645MOL0     H87009   1.997   7.587   6.314  0.7288 -3.3149  0.0700
  645MOL0     H87010   2.217   7.625   6.715 -1.2366  2.5170 -2.4881
  645MOL0     H87011   2.237   7.455   6.680 -0.3218  0.2499  0.8422
  645MOL0     H87012   2.421   7.518   6.510  0.3572  1.5162 -0.6024
  645MOL0     H87013   2.454   7.547   6.678  2.3822  0.0205 -1.4528
  645MOL0     H87014   2.368   7.809   6.638  0.7871  0.4671 -0.2318
  645MOL0     H87015   2.373   7.773   6.476  1.0033  2.1912  0.7551
  645MOL0     H87016   2.609   7.763   6.677 -1.8430  6.7192  1.5045
  645MOL0     H87017   2.613   7.691   6.515 -1.7865 -1.5329 -0.2148
  645MOL0     H87018   2.554   7.903   6.419  1.2479  5.0415 -0.5013
  645MOL0     H87019   2.534   7.977   6.580  1.0445  0.0643  0.0977
  645MOL0     H87020   2.790   7.909   6.617 -0.0512 -1.8196  0.2119
  645MOL0     H87021   2.785   7.852   6.451  3.0833  0.5049  2.1022
  645MOL0     H87022   2.780   8.135   6.544  2.0768  0.1870 -0.4646
  645MOL0     H87023   2.760   8.078   6.375 -1.2912 -0.5913  1.4963
  645MOL0     H87024   2.992   7.958   6.431 -1.8320 -1.0692 -0.4314
  645MOL0     H87025   2.995   8.135   6.406 -2.6954  0.7387  0.7463
  645MOL0     H87026   2.966   8.270   6.620 -0.2460 -1.4763 -4.4327
  645MOL0     H87027   3.096   8.383   6.868 -0.0688 -0.1368  0.5990
  645MOL0     H87028   3.193   8.255   6.947 -0.6206  3.1039  1.7262
  645MOL0     H87029   3.278   8.396   6.701  1.1381 -3.8840 -1.3635
  645MOL0     H87030   3.315   8.450   6.871  0.3035 -1.2875  1.7133
  645MOL0     H87031   3.386   8.164   6.779  0.6288 -0.1454 -0.0873
  645MOL0     H87032   3.443   8.259   6.919 -0.0543  3.9222  0.1340
  645MOL0     H87033   3.513   8.278   6.633  2.7800 -2.4638  0.7854
  645MOL0     H87034   3.620   8.268   6.767 -1.6188 -2.5686  0.8192
  645MOL0     H87035   3.571   8.700   6.716 -0.7000  0.6291 -0.9494
  645MOL0     H87036   3.760   8.825   6.602 -2.5154 -0.6309 -0.4817
  645MOL0     H87037   4.147   8.746   6.281  0.7140  0.0681  1.4544
  645MOL0     H87038   4.306   8.875   6.157 -2.4610 -0.9147 -0.7886
  645MOL0     H87039   4.498   9.018   6.236 -2.0222 -0.2810 -0.4219
  645MOL0     H87040   4.477   9.007   6.063  0.3204  1.0316  0.1409
  645MOL0     H87041   4.566   9.224   6.009  2.0980 -0.5044 -1.3113
  645MOL0     H87042   4.560   9.277   6.173 -1.3015  0.6332 -2.1132
  645MOL0     H87043   4.741   9.089   6.225  0.1057  2.0482  0.3641
  645MOL0     H87044   4.734   9.044   6.060 -0.6415 -1.1982  1.3086
  645MOL0     H87045   4.798   9.333   6.145 -2.8110 -0.7523 -0.8175
  645MOL0     H87046   4.782   9.267   5.978  0.9514  0.9155 -0.2396
  645MOL0     H87047   4.996   9.185   6.181  0.8915  0.5054 -0.1219
  645MOL0     H87048   5.022   9.293   6.049 -1.1908 -0.4365 -1.2739
  645MOL0     H87049   4.946   8.996   5.998 -1.0947  0.4694  1.9854
  645MOL0     H87050   4.964   9.135   5.876 -1.4409 -0.3035  0.3997
  645MOL0     H87051   5.198   9.063   6.044  0.6396  0.9589  0.7795
  645MOL0     H87052   5.163   9.151   5.887 -2.2032  0.8874  1.7673
  645MOL0     H87053   5.160   8.852   5.947  0.2049  1.1397 -0.3421
  645MOL0     H87054   5.131   8.917   5.787 -0.1126  1.4331 -0.5949
  645MOL0     H87055   4.152   9.231   6.315 -1.9573  0.1179 -2.3282
  645MOL0     H87056   3.976   9.090   6.431 -0.4652 -1.4370  0.5069
  645MOL0     H87057   3.914   8.451   6.466 -2.0942 -1.8343 -0.5896
  645MOL0     H87058   3.728   8.334   6.573  0.3570 -0.6284  1.4895
  645MOL0     H87059   2.028   7.508   6.739 -2.5572 -0.8367  2.9719
  645MOL0     H87060   1.793   7.492   6.755 -2.6418 -1.8518 -1.5192
  645MOL0     H87061   1.384   7.456   6.405 -0.2863  1.0798  0.9761
  645MOL0     H87062   1.142   7.420   6.380 -1.5264 -1.0048  0.8981
  645MOL0     H87063   1.016   7.236   6.404 -0.3977 -0.3279  0.6750
  645MOL0     H87064   0.894   7.355   6.398 -1.2056 -0.9293 -2.9069
  645MOL0     H87065   0.782   7.131   6.399 -3.1143  0.9267  1.1455
  645MOL0     H87066   0.734   7.239   6.531 -0.7654  1.9169 -2.0024
  645MOL0     H87067   0.919   7.092   6.663  0.0252 -0.3280  0.3152
  645MOL0     H87068   0.938   7.017   6.506  0.5077  2.3468 -1.9756
  645MOL0     H87069   0.712   6.902   6.553 -0.9652 -0.4348  1.8416
  645MOL0     H87070   0.811   6.883   6.695 -1.2011 -1.7671  1.2254
  645MOL0     H87071   0.481   7.128   6.825 -1.3670 -0.5573 -0.2252
  645MOL0     H87072   1.117   7.347   6.801 -2.4888  1.9666 -1.3199
  645MOL0     H87073   1.453   7.454   6.886  1.4657 -1.5647  0.8225
  645MOL0     H87074   1.290   7.385   6.939 -0.3698 -0.5375  0.5860
  645MOL0     H87075   1.419   7.284   6.903 -3.1053 -0.3349  0.9544
  646MOL0     O87076   9.362  10.308  10.007  0.0322  0.4856 -0.2230
  646MOL0     C87077   9.401  10.371   9.910 -0.6121  1.1513 -0.9360
  646MOL0     O87078   9.520  10.432   9.909  0.8970  0.6148 -0.5100
  646MOL0     C87079   9.554  10.491  10.025  0.5919 -0.4315  0.1253
  646MOL0     C87080   9.469  10.552  10.123 -0.7182 -0.5427 -0.1073
  646MOL0     C87081   9.513  10.624  10.230  0.5397 -0.3253 -1.2022
  646MOL0     C87082   9.648  10.657  10.238 -0.1567  0.6962 -0.1962
  646MOL0     O87083   9.713  10.737  10.338 -0.7632 -0.3420  0.2373
  646MOL0     C87084   9.646  10.741  10.465 -0.0869  0.4366 -0.9593
  646MOL0     C87085   9.741  10.740  10.585 -0.3365 -0.5676 -0.2106
  646MOL0     C87086   9.863  10.834  10.585 -0.4408  0.1736  0.2156
  646MOL0     C87087   9.952  10.817  10.711 -0.0761  0.1028  0.3297
  646MOL0     C87088  10.072  10.912  10.710 -1.0632  0.2726 -0.0892
  646MOL0     C87089  10.139  10.905  10.854 -0.8928 -0.6651  0.1388
  646MOL0     C87090  10.275  10.982  10.881 -0.5129 -0.3605  0.6161
  646MOL0     C87091  10.266  11.138  10.870  0.7429  0.4057  0.8664
  646MOL0     N87092  10.158  11.182  10.965 -0.4081 -0.0465  1.1750
  646MOL0     C87093  10.142  11.140  11.092  0.9238 -0.1485  0.0353
  646MOL0     C87094  10.018  11.193  11.126  0.5958 -0.2333  0.4767
  646MOL0     C87095   9.942  11.187  11.262  0.1557  0.1901  0.0901
  646MOL0     C87096   9.800  11.142  11.243 -0.5474  0.2071  0.1908
  646MOL0     C87097   9.731  11.115  11.372 -1.0076  0.0717  0.5412
  646MOL0     C87098   9.581  11.098  11.349 -0.5102 -0.2486  0.1398
  646MOL0     O87099   9.562  10.981  11.258 -0.8188  0.0416 -0.9308
  646MOL0     C87100   9.438  10.955  11.207  0.3348  0.1358 -0.2878
  646MOL0     C87101   9.322  11.018  11.245  0.5983 -0.4910 -0.9880
  646MOL0     C87102   9.197  10.969  11.200 -0.4351  0.1192  0.3506
  646MOL0     C87103   9.193  10.854  11.116  1.3735 -0.6282  0.0072
  646MOL0     C87104   9.056  10.795  11.091  0.1110 -0.9495  0.1645
  646MOL0     O87105   8.958  10.838  11.169 -0.8851  0.0305  0.2409
  646MOL0     C87106   8.838  10.766  11.178 -0.6313  0.7100  0.0142
  646MOL0     C87107   8.727  10.841  11.207 -0.1105 -0.2525  0.2172
  646MOL0     C87108   8.604  10.773  11.219  0.1792 -0.3113 -0.6001
  646MOL0     C87109   8.594  10.630  11.204 -0.6921  0.4061 -0.8950
  646MOL0     O87110   8.480  10.556  11.202  0.4382 -0.2654  0.0497
  646MOL0     C87111   8.349  10.607  11.231  0.0984 -0.1865  0.3588
  646MOL0     C87112   8.249  10.498  11.267 -0.6596 -0.5095  0.4210
  646MOL0     C87113   8.111  10.562  11.290  0.2230 -0.2606 -0.3243
  646MOL0     C87114   8.002  10.465  11.336  0.6120  0.0543  0.5083
  646MOL0     C87115   7.870  10.551  11.316  0.0432  0.0007 -0.5837
  646MOL0     C87116   7.762  10.497  11.408  0.3323 -0.0007  0.4439
  646MOL0     C87117   7.728  10.355  11.378  0.4574 -0.0125 -0.0178
  646MOL0     C87118   7.625  10.289  11.464 -0.4621 -0.1877 -0.8610
  646MOL0    Cl87119   7.703  10.254  11.624 -0.2459  0.1276  0.4539
  646MOL0     C87120   8.704  10.559  11.171  0.1577  0.2096  0.5983
  646MOL0     C87121   8.825  10.628  11.153 -0.2914  0.2995  0.0546
  646MOL0     O87122   9.046  10.717  11.006 -0.1159 -0.6517 -0.5995
  646MOL0     C87123   9.312  10.808  11.068 -0.1528  0.1957 -0.2273
  646MOL0     C87124   9.434  10.856  11.114 -0.4886  0.3565 -0.5930
  646MOL0     N87125   9.965  11.259  11.017  0.0469 -0.3765  0.9385
  646MOL0     N87126  10.044  11.239  10.919  0.0350  0.4301  0.3476
  646MOL0     C87127   9.734  10.608  10.144 -0.4250 -0.1264  0.0303
  646MOL0     C87128   9.689  10.528  10.039 -0.1631 -0.1259 -0.2492
  646MOL0     C87129   9.342  10.346   9.780  0.2164  0.7828 -0.3143
  646MOL0     C87130   9.421  10.341   9.670  0.7100  0.6999  0.0511
  646MOL0     C87131   9.367  10.325   9.538 -0.3569 -0.6496 -0.5449
  646MOL0     C87132   9.229  10.306   9.525 -0.1937 -0.7503 -0.2704
  646MOL0     O87133   9.171  10.292   9.403 -0.2268 -0.0720 -0.6022
  646MOL0     C87134   9.233  10.356   9.298  0.5160  0.0563 -0.2695
  646MOL0     C87135   9.128  10.381   9.183  0.6649 -0.6963 -0.5038
  646MOL0     C87136   9.014  10.486   9.209 -0.0746 -0.1453  0.9249
  646MOL0     C87137   8.916  10.490   9.091 -0.2821 -0.3850 -0.3018
  646MOL0     C87138   8.834  10.612   9.089 -0.1097 -0.2744  0.1230
  646MOL0     C87139   8.770  10.716   9.098 -1.0318  1.4596  0.6072
  646MOL0     C87140   9.151  10.300   9.641  0.4898  0.2315 -0.4884
  646MOL0     C87141   9.203  10.313   9.766 -0.1824 -1.0362  0.3945
  646MOL0     C87142   9.103  10.311   9.879 -0.7465  0.1213 -0.1463
  646MOL0     H87143   9.366  10.516  10.123 -1.3037  1.0204  0.6621
  646MOL0     H87144   9.440  10.661  10.302  0.5494 -2.4461 -0.0187
  646MOL0     H87145   9.586  10.831  10.475 -1.9308 -0.8203 -0.1362
  646MOL0     H87146   9.573  10.661  10.480  0.8600 -0.4810 -1.1463
  646MOL0     H87147   9.786  10.642  10.602  0.7561  0.0912  0.8226
  646MOL0     H87148   9.669  10.764  10.663 -1.5690  1.3108 -1.8108
  646MOL0     H87149   9.825  10.936  10.579 -1.1674 -0.1672 -2.7137
  646MOL0     H87150   9.929  10.809  10.501  1.1312  0.1611  1.4122
  646MOL0     H87151   9.887  10.836  10.797  2.6820  2.1919  2.1344
  646MOL0     H87152   9.991  10.715  10.712 -0.1900  0.0510 -0.2088
  646MOL0     H87153  10.141  10.862  10.641 -1.4702 -3.1452  1.7596
  646MOL0     H87154  10.047  11.015  10.684 -2.2588  0.4096  1.5004
  646MOL0     H87155  10.063  10.930  10.928  0.0764  2.4700  0.2239
  646MOL0     H87156  10.170  10.801  10.865 -0.6603 -0.7769 -1.3913
  646MOL0     H87157  10.355  10.933  10.825  1.0117  3.1758 -0.5641
  646MOL0     H87158  10.317  10.955  10.979  2.8794  1.1489 -0.2755
  646MOL0     H87159  10.355  11.197  10.889  0.0229  1.3263  1.4894
  646MOL0     H87160  10.221  11.153  10.772  1.0853 -4.9349 -0.4218
  646MOL0     H87161  10.196  11.074  11.159 -2.0860 -1.1558  1.7114
  646MOL0     H87162   9.994  11.125  11.336 -0.6958 -1.4072 -0.5836
  646MOL0     H87163   9.936  11.286  11.307 -1.7675  0.3544 -0.4205
  646MOL0     H87164   9.743  11.213  11.182 -3.6107 -1.1064  1.3313
  646MOL0     H87165   9.787  11.050  11.186  0.2098 -0.9152  1.7691
  646MOL0     H87166   9.754  11.198  11.441  0.6096 -0.5846  0.8456
  646MOL0     H87167   9.764  11.022  11.418 -0.2226 -0.2299 -0.5838
  646MOL0     H87168   9.543  11.186  11.296  2.9008  1.9183  0.9998
  646MOL0     H87169   9.526  11.084  11.442 -1.4248  1.9020 -0.0198
  646MOL0     H87170   9.306  11.098  11.316 -0.0092  1.0024 -2.7147
  646MOL0     H87171   9.111  11.024  11.238  0.3927  0.4600  1.7755
  646MOL0     H87172   8.739  10.948  11.207 -0.2673 -0.2050  1.8803
  646MOL0     H87173   8.522  10.833  11.257 -1.3462 -3.0711  0.8024
  646MOL0     H87174   8.356  10.682  11.311  0.9441 -1.0760  1.1535
  646MOL0     H87175   8.309  10.664  11.147  0.4652  0.6960  0.7679
  646MOL0     H87176   8.239  10.424  11.187  1.9642  1.6450 -2.1210
  646MOL0     H87177   8.281  10.447  11.358  0.6597 -1.0716 -0.3399
  646MOL0     H87178   8.109  10.643  11.364 -1.5433 -1.4466  1.0169
  646MOL0     H87179   8.091  10.606  11.192  1.9678  0.1906 -0.5159
  646MOL0     H87180   8.003  10.461  11.446 -1.3691 -2.2599  0.5079
  646MOL0     H87181   8.009  10.368  11.287  1.1014  1.3142 -2.1000
  646MOL0     H87182   7.840  10.537  11.212  0.4573 -4.1912 -0.3411
  646MOL0     H87183   7.884  10.656  11.341 -0.8727  0.6990 -2.7172
  646MOL0     H87184   7.800  10.523  11.508  1.3131 -0.1287  0.1183
  646MOL0     H87185   7.666  10.549  11.399 -0.3239 -0.5790  3.0905
  646MOL0     H87186   7.821  10.297  11.382  1.5683  1.7197  0.1069
  646MOL0     H87187   7.690  10.354  11.276 -0.0583  0.8492  0.1609
  646MOL0     H87188   7.536  10.353  11.473  0.5403  1.1627 -0.1084
  646MOL0     H87189   7.602  10.198  11.408  3.4171 -2.4711  0.8535
  646MOL0     H87190   8.702  10.455  11.141  3.2690  0.2927 -0.2282
  646MOL0     H87191   8.913  10.567  11.132 -0.9852 -1.8032  2.7352
  646MOL0     H87192   9.300  10.734  10.989 -1.3603  1.1138 -0.9326
  646MOL0     H87193   9.528  10.812  11.083 -0.2935  0.8649 -0.7435
  646MOL0     H87194   9.841  10.628  10.141 -0.2389 -1.2587 -1.1643
  646MOL0     H87195   9.750  10.493   9.956 -0.0325  0.4015 -0.3753
  646MOL0     H87196   9.529  10.340   9.680  0.9050 -0.3803 -1.6773
  646MOL0     H87197   9.439  10.329   9.457  0.9176  1.7510  0.5775
  646MOL0     H87198   9.308  10.288   9.257  0.8332 -1.2680  2.3031
  646MOL0     H87199   9.270  10.454   9.331  1.7276  0.2494 -2.0408
  646MOL0     H87200   9.074  10.288   9.160  0.4879 -0.5896 -0.5148
  646MOL0     H87201   9.177  10.413   9.091 -1.9683  0.2247 -1.6597
  646MOL0     H87202   9.064  10.582   9.226 -1.4965  1.5320 -3.1029
  646MOL0     H87203   8.962  10.459   9.301  0.2933 -1.0938  0.8592
  646MOL0     H87204   8.972  10.493   8.997  1.2616 -0.5479  0.5775
  646MOL0     H87205   8.850  10.403   9.084  1.6184 -1.7744 -3.5044
  646MOL0     H87206   8.720  10.810   9.096  1.2204  2.7818  1.8329
  646MOL0     H87207   9.044  10.288   9.623  1.0623 -0.7476 -3.8582
  646MOL0     H87208   9.012  10.255   9.857 -2.8073  2.5356  1.6558
  646MOL0     H87209   9.148  10.279   9.973  2.4620 -1.8005 -2.1324
  646MOL0     H87210   9.058  10.407   9.904 -2.4035 -1.2230  2.4012
  647MOL0     O87211  10.654   1.489   2.702 -0.0422 -0.8908 -0.0483
  647MOL0     C87212  10.686   1.571   2.619 -0.1312  0.8570 -0.8279
  647MOL0     O87213  10.816   1.606   2.591 -0.4815 -0.1426 -0.3239
  647MOL0     C87214  10.915   1.570   2.671  0.4648  0.3176 -0.1492
  647MOL0     C87215  10.972   1.447   2.657 -0.6313  0.4206  0.4029
  647MOL0     C87216  11.087   1.415   2.727  0.4401 -0.2791 -0.2598
  647MOL0     C87217  11.143   1.514   2.803 -0.7757 -0.2482 -0.6239
  647MOL0     O87218  11.246   1.478   2.884 -0.7617  0.5050 -0.2860
  647MOL0     C87219  11.369   1.436   2.824 -0.2136  0.4289 -0.1705
  647MOL0     C87220  11.451   1.570   2.811 -0.2165  0.9504  0.1496
  647MOL0     C87221  11.586   1.543   2.735  0.9190  0.4336 -0.3376
  647MOL0     C87222  11.688   1.659   2.725 -0.3730  0.0933 -0.7905
  647MOL0     C87223  11.812   1.600   2.665 -0.6896  0.5288 -0.8905
  647MOL0     C87224  11.907   1.508   2.758 -0.0777 -1.2353 -1.0861
  647MOL0     C87225  12.030   1.460   2.682 -0.1437  0.1233 -0.0991
  647MOL0     C87226  12.120   1.385   2.772 -0.3800  0.8065 -0.0872
  647MOL0     N87227  12.260   1.367   2.730  0.2236 -0.3457 -0.4311
  647MOL0     C87228  12.375   1.384   2.807 -0.2951 -0.3358  0.2379
  647MOL0     C87229  12.480   1.362   2.729 -0.3851  0.6331 -0.4842
  647MOL0     C87230  12.619   1.377   2.773 -1.1678  0.1680  0.1880
  647MOL0     C87231  12.704   1.264   2.706  0.4454 -0.4747 -0.4056
  647MOL0     C87232  12.705   1.134   2.784  0.0027 -0.5292  0.8014
  647MOL0     C87233  12.772   1.020   2.704 -0.1471 -0.5867  0.0549
  647MOL0     O87234  12.829   0.930   2.797  0.1192 -0.2578 -0.2966
  647MOL0     C87235  12.951   0.880   2.750  0.7520 -0.1158  0.4717
  647MOL0     C87236  12.961   0.778   2.653 -0.3960  0.2623 -0.1167
  647MOL0     C87237  13.096   0.748   2.611  0.8530  0.0113  0.3092
  647MOL0     C87238  13.214   0.813   2.659  0.1112 -0.1324 -0.4399
  647MOL0     C87239  13.349   0.770   2.604 -0.4648 -0.5323  0.0510
  647MOL0     O87240  13.462   0.833   2.653 -0.7411  0.0544  0.2365
  647MOL0     C87241  13.586   0.790   2.619 -0.9592 -0.1983  0.5512
  647MOL0     C87242  13.625   0.659   2.638  0.4886 -0.4905 -0.0755
  647MOL0     C87243  13.753   0.617   2.614  0.6802  0.5402 -0.9137
  647MOL0     C87244  13.853   0.703   2.568  0.6179 -0.6433  0.5121
  647MOL0     O87245  13.980   0.658   2.550 -0.0500 -0.0895 -0.1474
  647MOL0     C87246  14.077   0.748   2.511 -0.6825 -0.5044  0.2100
  647MOL0     C87247  14.208   0.673   2.488 -0.0419 -0.0275  0.1301
  647MOL0     C87248  14.309   0.768   2.425  0.3167 -0.7058 -0.1766
  647MOL0     C87249  14.439   0.695   2.396 -0.2360 -0.1939  0.5559
  647MOL0     C87250  14.558   0.794   2.367  0.8338  0.0514  0.7806
  647MOL0     C87251  14.681   0.721   2.336  0.0814  0.6717  0.1258
  647MOL0     C87252  14.802   0.813   2.297  0.7308 -0.3805  0.5589
  647MOL0     C87253  14.902   0.734   2.209 -0.4456 -0.1466  0.3571
  647MOL0    Cl87254  14.975   0.589   2.305  0.3208  0.1769 -0.1551
  647MOL0     C87255  13.803   0.839   2.535 -0.6037 -0.0551  0.4340
  647MOL0     C87256  13.675   0.879   2.569 -0.5020 -0.0285 -0.2503
  647MOL0     O87257  13.349   0.687   2.518  0.4309  0.4963  0.0806
  647MOL0     C87258  13.193   0.919   2.743 -0.6386 -0.8417  0.2384
  647MOL0     C87259  13.064   0.949   2.798 -0.3945 -0.3770 -0.4912
  647MOL0     N87260  12.430   1.339   2.603  0.4898 -0.6329  0.3495
  647MOL0     N87261  12.299   1.342   2.603  0.3169 -0.1460 -0.3115
  647MOL0     C87262  11.089   1.642   2.820  0.4368 -0.3263  0.0550
  647MOL0     C87263  10.965   1.677   2.746 -0.0490  0.4084 -0.8351
  647MOL0     C87264  10.588   1.607   2.511  0.8928  0.4827 -0.3580
  647MOL0     C87265  10.645   1.614   2.381  0.5309 -0.2840 -0.7294
  647MOL0     C87266  10.569   1.657   2.267  0.1238 -0.5874  0.0240
  647MOL0     C87267  10.431   1.679   2.284  0.1262 -0.3170  1.2434
  647MOL0     O87268  10.355   1.721   2.177  0.7122  0.1982  0.7333
  647MOL0     C87269  10.212   1.730   2.183 -0.4721  0.2314  0.6241
  647MOL0     C87270  10.152   1.589   2.146 -0.7031 -0.9868 -0.0312
  647MOL0     C87271  10.166   1.540   2.003  0.0745 -0.5125 -0.0836
  647MOL0     C87272  10.140   1.664   1.894 -0.5358  0.6262 -0.0925
  647MOL0     C87273  10.003   1.719   1.911 -0.2032  0.0711  0.6670
  647MOL0     C87274   9.887   1.747   1.923 -0.5632 -0.5844 -0.4836
  647MOL0     C87275  10.373   1.658   2.413 -0.2944 -0.3756 -0.5539
  647MOL0     C87276  10.455   1.623   2.524 -0.2122 -0.9793 -0.4799
  647MOL0     C87277  10.382   1.615   2.654 -0.6256 -0.0397  0.7146
  647MOL0     H87278  10.940   1.378   2.579  0.9499 -2.5090  2.1694
  647MOL0     H87279  11.129   1.317   2.703  0.4914 -0.1272 -0.8140
  647MOL0     H87280  11.428   1.368   2.886  0.1854  1.3826  0.5205
  647MOL0     H87281  11.343   1.386   2.730  0.3281 -1.4950  0.6658
  647MOL0     H87282  11.486   1.603   2.909 -3.6404 -2.2594  2.7391
  647MOL0     H87283  11.384   1.644   2.766 -0.4399  1.0304  0.6098
  647MOL0     H87284  11.557   1.526   2.631 -3.9964  1.6595  0.5798
  647MOL0     H87285  11.633   1.457   2.784 -0.5081 -0.1700  0.0143
  647MOL0     H87286  11.655   1.739   2.658  2.4824  0.5841 -1.7429
  647MOL0     H87287  11.723   1.685   2.826  0.3886 -0.6844 -0.8433
  647MOL0     H87288  11.773   1.542   2.581 -2.3449 -2.1827  1.5678
  647MOL0     H87289  11.879   1.676   2.624 -0.6946  0.7178 -0.5574
  647MOL0     H87290  11.926   1.572   2.845  0.6247 -1.2652 -1.2163
  647MOL0     H87291  11.856   1.417   2.792  0.5554 -1.9591 -2.0319
  647MOL0     H87292  12.088   1.540   2.636 -2.1381  2.0858  0.6060
  647MOL0     H87293  11.990   1.400   2.600 -1.2802  1.7908 -0.8294
  647MOL0     H87294  12.142   1.441   2.864  2.4697  4.3268 -2.6455
  647MOL0     H87295  12.077   1.285   2.784 -0.0461  0.3666 -2.1660
  647MOL0     H87296  12.391   1.410   2.911  3.2942 -1.8910  0.2039
  647MOL0     H87297  12.657   1.468   2.728 -3.5170  0.9166 -0.4403
  647MOL0     H87298  12.639   1.380   2.881 -1.5798  0.4568  0.2582
  647MOL0     H87299  12.664   1.243   2.606  1.2834  2.1662 -1.3752
  647MOL0     H87300  12.808   1.298   2.702  1.5276 -3.4121 -0.3044
  647MOL0     H87301  12.600   1.112   2.807  0.0125  0.8294  2.3159
  647MOL0     H87302  12.754   1.148   2.881 -0.2815 -1.8567  1.1593
  647MOL0     H87303  12.850   1.066   2.642 -0.6293 -3.0351 -2.5865
  647MOL0     H87304  12.702   0.961   2.643  0.9303 -3.5474  1.4851
  647MOL0     H87305  12.876   0.728   2.609 -0.0491 -1.0012  0.6170
  647MOL0     H87306  13.103   0.669   2.537 -0.5723 -0.2708  0.4334
  647MOL0     H87307  13.549   0.588   2.671 -1.4017  2.2562  1.9789
  647MOL0     H87308  13.764   0.511   2.638  0.1690  0.0111 -2.8047
  647MOL0     H87309  14.050   0.802   2.420  1.4732  1.8026  0.8141
  647MOL0     H87310  14.087   0.832   2.581 -1.6547 -0.1617 -0.0497
  647MOL0     H87311  14.243   0.623   2.579  1.6049 -0.7703 -0.8671
  647MOL0     H87312  14.186   0.590   2.421 -0.3820 -0.3170  0.6001
  647MOL0     H87313  14.276   0.821   2.335 -0.7617 -2.9286 -1.1723
  647MOL0     H87314  14.332   0.849   2.494  1.1860 -1.3521  0.3160
  647MOL0     H87315  14.426   0.620   2.318 -1.3076 -1.3564  1.7957
  647MOL0     H87316  14.462   0.633   2.483 -0.8709 -2.6158 -0.8924
  647MOL0     H87317  14.571   0.868   2.447 -2.6314 -0.1805  1.7496
  647MOL0     H87318  14.514   0.851   2.285 -1.3165 -0.6877  1.3475
  647MOL0     H87319  14.706   0.667   2.428  0.7023  0.6371 -0.0586
  647MOL0     H87320  14.656   0.653   2.254  0.9692 -0.3040  0.6351
  647MOL0     H87321  14.855   0.869   2.375 -1.9074  1.4001  1.2326
  647MOL0     H87322  14.765   0.901   2.244 -1.8394 -1.9112 -0.3931
  647MOL0     H87323  14.850   0.714   2.115 -0.1288  0.4746  0.0459
  647MOL0     H87324  14.993   0.786   2.179  1.5164 -2.0889  2.5701
  647MOL0     H87325  13.867   0.920   2.505 -1.1651  0.6818  1.1719
  647MOL0     H87326  13.640   0.981   2.557 -0.3204  0.1297  0.5467
  647MOL0     H87327  13.272   0.989   2.768 -0.4757 -2.1508  4.0775
  647MOL0     H87328  13.047   1.032   2.866 -4.1020 -1.7452  0.5256
  647MOL0     H87329  11.123   1.724   2.882  0.0565  0.3524 -0.6141
  647MOL0     H87330  10.909   1.768   2.761 -1.8384 -0.7570 -0.2075
  647MOL0     H87331  10.750   1.603   2.357 -0.1965 -2.1073 -3.6205
  647MOL0     H87332  10.615   1.678   2.170 -0.3869  2.1590  0.2912
  647MOL0     H87333  10.178   1.797   2.103  0.2335 -1.8582 -1.5635
  647MOL0     H87334  10.170   1.757   2.280 -1.1804 -2.4913  1.1649
  647MOL0     H87335  10.048   1.579   2.177 -0.2630 -3.6081  0.8188
  647MOL0     H87336  10.198   1.509   2.204 -0.3082 -1.5526 -1.0874
  647MOL0     H87337  10.093   1.460   1.984 -0.0805 -0.6586  1.0357
  647MOL0     H87338  10.264   1.496   1.984  0.1827 -0.1718 -0.2997
  647MOL0     H87339  10.211   1.747   1.904 -0.4476  0.6901 -1.1874
  647MOL0     H87340  10.148   1.620   1.795 -2.8766 -0.7899  0.2724
  647MOL0     H87341   9.781   1.767   1.926 -0.9116 -2.3911  1.5082
  647MOL0     H87342  10.265   1.663   2.422 -0.5170 -0.5976 -2.6777
  647MOL0     H87343  10.442   1.674   2.723  1.3080 -1.8920  0.7218
  647MOL0     H87344  10.283   1.662   2.659 -1.0380 -0.4835 -1.6934
  647MOL0     H87345  10.377   1.512   2.693 -0.2115 -0.1957  0.3624
  648MOL0     O87346   8.622   4.288   9.946  0.3280 -0.4480  0.0335
  648MOL0     C87347   8.511   4.328   9.998 -0.7634  0.3668 -0.0295
  648MOL0     O87348   8.502   4.421  10.097  0.1624  0.0361  0.5847
  648MOL0     C87349   8.622   4.479  10.129  0.1471  0.3376 -0.4972
  648MOL0     C87350   8.640   4.464  10.264  0.4730  0.1294 -0.1238
  648MOL0     C87351   8.749   4.526  10.318  0.2453  0.3648 -0.1894
  648MOL0     C87352   8.853   4.582  10.242 -0.2328 -0.3815  0.8906
  648MOL0     O87353   8.954   4.621  10.313 -0.5643 -1.1662  0.3732
  648MOL0     C87354   9.015   4.741  10.263  0.2070 -0.4733  0.5506
  648MOL0     C87355   9.108   4.793  10.381  0.3389  0.0891 -0.2572
  648MOL0     C87356   9.195   4.912  10.343  0.3209  0.2952 -0.2944
  648MOL0     C87357   9.251   4.966  10.474 -0.5376 -0.0999  0.5195
  648MOL0     C87358   9.315   5.107  10.445 -1.0119 -0.3226 -0.1432
  648MOL0     C87359   9.472   5.106  10.445 -1.0937  0.6932  0.6259
  648MOL0     C87360   9.511   5.027  10.324 -0.3900 -0.4325  0.3254
  648MOL0     C87361   9.664   5.009  10.316 -0.5235 -0.2406 -0.7967
  648MOL0     N87362   9.721   4.902  10.396 -0.0514  0.0927  0.3815
  648MOL0     C87363   9.702   4.771  10.366  0.4128 -0.4994  0.1024
  648MOL0     C87364   9.789   4.705  10.437 -0.4280  0.7501  0.6846
  648MOL0     C87365   9.815   4.562  10.448 -0.3362  0.9531 -0.6663
  648MOL0     C87366   9.949   4.514  10.379 -0.2264 -0.1834 -0.0890
  648MOL0     C87367   9.985   4.371  10.396  0.2207 -0.2227 -0.2261
  648MOL0     C87368  10.099   4.331  10.294 -0.0913 -0.2105 -0.3588
  648MOL0     O87369  10.157   4.219  10.357 -0.1476  0.0661 -0.0895
  648MOL0     C87370  10.299   4.222  10.363 -0.1798  0.2217 -0.2590
  648MOL0     C87371  10.382   4.278  10.268  0.1303  0.4825  0.1637
  648MOL0     C87372  10.517   4.305  10.288  0.4753  0.4244  0.1971
  648MOL0     C87373  10.577   4.261  10.404 -0.4369 -0.6344  0.2234
  648MOL0     C87374  10.725   4.275  10.431  0.0186  0.6074 -0.4228
  648MOL0     O87375  10.765   4.275  10.562  0.1473 -0.4196 -0.1263
  648MOL0     C87376  10.898   4.297  10.583  0.5045 -0.6615 -0.3738
  648MOL0     C87377  10.953   4.222  10.681  0.1693  0.6165  0.9957
  648MOL0     C87378  11.086   4.242  10.714 -0.4492 -0.4114  0.0148
  648MOL0     C87379  11.163   4.340  10.653 -0.6095  0.3080 -0.3601
  648MOL0     O87380  11.298   4.355  10.676  0.3807 -0.3971 -0.2674
  648MOL0     C87381  11.367   4.274  10.766 -0.5501  0.3842 -0.8075
  648MOL0     C87382  11.494   4.335  10.816  0.3694 -0.5210  0.5579
  648MOL0     C87383  11.580   4.389  10.699 -1.2879  0.9523 -0.1660
  648MOL0     C87384  11.698   4.473  10.746  0.0784  0.3773 -0.0028
  648MOL0     C87385  11.815   4.394  10.807  0.7259  0.0897  0.3138
  648MOL0     C87386  11.942   4.488  10.804 -0.5674  0.0145 -0.0830
  648MOL0     C87387  12.039   4.454  10.920  0.3808  0.0572  0.1419
  648MOL0     C87388  12.094   4.313  10.916  0.4119 -0.2871  0.7211
  648MOL0    Cl87389  12.221   4.295  11.041 -0.3163 -0.1256  0.1029
  648MOL0     C87390  11.110   4.422  10.568 -0.3293 -0.1122  0.3183
  648MOL0     C87391  10.977   4.407  10.535 -0.4106  0.1524  0.0670
  648MOL0     O87392  10.793   4.304  10.335 -0.3316 -0.6325 -0.3717
  648MOL0     C87393  10.500   4.188  10.494  0.1641 -0.3876 -0.5498
  648MOL0     C87394  10.360   4.181  10.477 -0.8606 -0.1848 -0.1109
  648MOL0     N87395   9.853   4.794  10.525  0.0933 -0.6801 -0.1432
  648MOL0     N87396   9.825   4.917  10.485 -0.2103  0.5576 -0.6196
  648MOL0     C87397   8.839   4.584  10.100 -0.3269  0.4029  0.2730
  648MOL0     C87398   8.718   4.536  10.044 -0.6085 -0.5516 -0.3811
  648MOL0     C87399   8.384   4.275   9.947  0.3128 -0.4595  0.1383
  648MOL0     C87400   8.267   4.343   9.979 -0.3502 -0.3496  0.1577
  648MOL0     C87401   8.146   4.307   9.928  1.1703  0.0688  0.7875
  648MOL0     C87402   8.141   4.214   9.824 -0.1768  0.3827 -0.1691
  648MOL0     O87403   8.035   4.190   9.745 -0.3894 -0.3636 -0.2338
  648MOL0     C87404   7.929   4.288   9.726 -0.2247  0.0090 -0.1369
  648MOL0     C87405   7.806   4.207   9.753  0.5895 -1.2724  0.3783
  648MOL0     C87406   7.784   4.169   9.899 -0.0950 -0.2002 -0.0822
  648MOL0     C87407   7.685   4.263   9.974 -0.3312  0.7696 -0.4479
  648MOL0     C87408   7.556   4.272   9.901 -0.3939  0.4815 -0.2441
  648MOL0     C87409   7.457   4.300   9.839  0.3308 -0.1581  0.8646
  648MOL0     C87410   8.251   4.137   9.797  0.3472  0.2305  0.1776
  648MOL0     C87411   8.374   4.164   9.863  0.5532 -0.0522 -0.0925
  648MOL0     C87412   8.481   4.064   9.823 -0.1920  0.4711  0.7086
  648MOL0     H87413   8.575   4.405  10.327 -2.0829  2.2044 -0.6199
  648MOL0     H87414   8.776   4.521  10.423 -1.1743  3.3483  0.4262
  648MOL0     H87415   9.075   4.725  10.173  1.1701 -3.7264  1.6309
  648MOL0     H87416   8.942   4.820  10.246  1.8643  1.2763  1.1235
  648MOL0     H87417   9.176   4.715  10.417  1.4108  2.1385  2.5539
  648MOL0     H87418   9.039   4.826  10.459 -0.6131  1.0461 -1.4640
  648MOL0     H87419   9.139   4.984  10.282  3.5786  1.1369 -2.5521
  648MOL0     H87420   9.272   4.882  10.271 -4.5263 -3.5574 -4.7091
  648MOL0     H87421   9.179   4.977  10.555  2.3553  0.3022  3.2278
  648MOL0     H87422   9.328   4.904  10.520 -0.6846 -1.1231 -0.5709
  648MOL0     H87423   9.271   5.142  10.351 -1.7311 -0.8995 -0.0323
  648MOL0     H87424   9.268   5.169  10.522 -1.5450 -2.0441  0.9595
  648MOL0     H87425   9.514   5.206  10.436 -0.5477  0.4330  0.2341
  648MOL0     H87426   9.520   5.057  10.530  3.1416  3.3958  0.0681
  648MOL0     H87427   9.479   5.085  10.236  3.1562  0.8421 -0.3152
  648MOL0     H87428   9.479   4.923  10.321 -0.0567 -0.5261 -0.1664
  648MOL0     H87429   9.678   4.976  10.212 -1.8940  1.4097 -1.5735
  648MOL0     H87430   9.711   5.107  10.331  0.6954 -0.8441 -0.5985
  648MOL0     H87431   9.635   4.731  10.291  1.2618  0.9917 -1.5379
  648MOL0     H87432   9.821   4.536  10.554  1.4521 -0.7340 -1.1283
  648MOL0     H87433   9.733   4.502  10.407 -0.1391  0.0491  0.2058
  648MOL0     H87434   9.933   4.523  10.271 -0.7717  0.6202  0.0464
  648MOL0     H87435  10.037   4.573  10.404  0.5232 -0.2429 -2.3615
  648MOL0     H87436   9.897   4.308  10.381 -0.6774  0.8390  0.3929
  648MOL0     H87437  10.028   4.351  10.495  0.2997  0.1564 -0.1799
  648MOL0     H87438  10.165   4.418  10.281  1.0816 -1.0600 -0.2497
  648MOL0     H87439  10.059   4.295  10.200  0.4353 -2.5272  0.2516
  648MOL0     H87440  10.341   4.299  10.169 -3.2345  1.0531  1.5638
  648MOL0     H87441  10.570   4.341  10.200  1.3888  0.9168  0.9216
  648MOL0     H87442  10.898   4.146  10.735 -1.2312  0.3263 -0.7413
  648MOL0     H87443  11.135   4.194  10.798  0.6426  0.2879 -0.2022
  648MOL0     H87444  11.306   4.250  10.853 -1.2859  0.0966 -1.3894
  648MOL0     H87445  11.399   4.188  10.706  0.4460  0.2531 -0.1152
  648MOL0     H87446  11.456   4.415  10.880  0.0206 -1.2287  1.2399
  648MOL0     H87447  11.553   4.261  10.871  2.1501 -0.7757 -1.5660
  648MOL0     H87448  11.618   4.312  10.631 -3.0515  2.6332 -3.2609
  648MOL0     H87449  11.519   4.456  10.637 -0.3695  2.1591  0.1912
  648MOL0     H87450  11.666   4.560  10.805  0.4382  0.6676 -0.2314
  648MOL0     H87451  11.729   4.519  10.652  0.6539  1.9058  0.9021
  648MOL0     H87452  11.831   4.296  10.761  1.0186  0.5448 -0.5751
  648MOL0     H87453  11.798   4.370  10.912  3.5708  1.6692  1.2536
  648MOL0     H87454  12.004   4.474  10.715  0.3148  2.2130  0.1326
  648MOL0     H87455  11.913   4.592  10.814 -1.9089 -0.3810  0.2934
  648MOL0     H87456  11.985   4.476  11.013 -1.9147  0.5836 -1.2300
  648MOL0     H87457  12.132   4.512  10.923  0.1325  0.4840 -0.1624
  648MOL0     H87458  12.014   4.244  10.943  0.2093 -0.1054  0.5955
  648MOL0     H87459  12.136   4.293  10.817  0.2387  2.2125  0.0674
  648MOL0     H87460  11.166   4.503  10.521  1.1596 -0.7497  0.9170
  648MOL0     H87461  10.928   4.490  10.486 -0.4455  0.1447  0.0891
  648MOL0     H87462  10.542   4.142  10.583  3.0228  0.4571 -1.3678
  648MOL0     H87463  10.303   4.137  10.558 -0.9742 -0.6483 -0.4440
  648MOL0     H87464   8.924   4.616  10.040  1.6763 -1.4201  1.9232
  648MOL0     H87465   8.715   4.569   9.941  0.6017  1.3843  0.1464
  648MOL0     H87466   8.267   4.421  10.054 -2.3840  1.2785 -1.4163
  648MOL0     H87467   8.062   4.369   9.957  1.5858  1.3404 -0.5871
  648MOL0     H87468   7.932   4.327   9.624  1.1370 -2.3346 -1.0917
  648MOL0     H87469   7.938   4.378   9.787  0.0676  0.1019 -0.3154
  648MOL0     H87470   7.800   4.119   9.689 -3.4218  0.5059 -2.1058
  648MOL0     H87471   7.733   4.277   9.712  4.4447  1.8873 -1.8385
  648MOL0     H87472   7.876   4.151   9.956 -1.3482 -3.4073  1.1817
  648MOL0     H87473   7.730   4.074   9.894 -3.7189  1.7159 -0.3277
  648MOL0     H87474   7.660   4.229  10.075 -0.3316  1.0173 -0.3643
  648MOL0     H87475   7.714   4.368   9.985  0.2419  0.4286  1.7459
  648MOL0     H87476   7.372   4.343   9.789  0.1675  0.1225  1.3810
  648MOL0     H87477   8.235   4.059   9.723 -0.4154  1.5933 -1.1198
  648MOL0     H87478   8.438   3.982   9.764  1.6486 -0.8722  1.1649
  648MOL0     H87479   8.550   4.113   9.754 -0.0159 -1.6965 -0.7631
  648MOL0     H87480   8.542   4.030   9.906 -1.1233 -0.7907  0.9093
  649MOL0     O87481   6.545   5.748   0.556  0.5069 -0.0539 -0.5973
  649MOL0     C87482   6.543   5.629   0.538  0.3509 -0.2629 -1.2595
  649MOL0     O87483   6.648   5.555   0.513  0.5613  0.0713  0.4295
  649MOL0     C87484   6.772   5.604   0.492 -0.4582  0.3304 -0.1639
  649MOL0     C87485   6.806   5.651   0.368  0.6572 -0.5739  0.1594
  649MOL0     C87486   6.930   5.694   0.331  1.1754  0.0403 -0.4844
  649MOL0     C87487   7.029   5.695   0.431 -0.2108 -0.3632 -0.7461
  649MOL0     O87488   7.157   5.736   0.415 -0.1429 -0.3222 -0.1616
  649MOL0     C87489   7.207   5.722   0.282  0.3367 -0.9875  0.4910
  649MOL0     C87490   7.358   5.730   0.294 -0.6974 -0.4249 -0.1876
  649MOL0     C87491   7.422   5.595   0.338  0.6400 -0.2089  0.3493
  649MOL0     C87492   7.578   5.589   0.346 -0.1196  1.0063 -0.6843
  649MOL0     C87493   7.652   5.451   0.353 -0.6122 -0.3820 -0.5060
  649MOL0     C87494   7.800   5.465   0.368  0.3640 -0.5191  0.9630
  649MOL0     C87495   7.867   5.333   0.374 -0.0478 -0.0048 -0.3545
  649MOL0     C87496   8.019   5.341   0.344  0.5230 -0.3020  0.4127
  649MOL0     N87497   8.089   5.227   0.391  0.6135 -0.5398  0.3672
  649MOL0     C87498   8.131   5.214   0.521  1.0433  0.0789  0.0782
  649MOL0     C87499   8.212   5.117   0.522 -0.8381  0.2307  0.4074
  649MOL0     C87500   8.284   5.058   0.645  0.5399 -0.3594  0.2509
  649MOL0     C87501   8.419   5.122   0.662 -0.1379 -1.3279  0.0646
  649MOL0     C87502   8.414   5.278   0.690 -1.0172  0.3247  0.4081
  649MOL0     C87503   8.555   5.327   0.723  0.5001 -1.3531 -0.5151
  649MOL0     O87504   8.648   5.284   0.632  0.2662  0.2820  0.7762
  649MOL0     C87505   8.781   5.266   0.687 -0.5516  0.7157  0.0352
  649MOL0     C87506   8.809   5.135   0.730  0.6443 -0.1237  0.6128
  649MOL0     C87507   8.940   5.099   0.760 -0.7240  0.2092 -0.0103
  649MOL0     C87508   9.044   5.202   0.770  0.5307 -0.2262  0.3232
  649MOL0     C87509   9.182   5.165   0.806 -0.0818 -0.2648  0.0415
  649MOL0     O87510   9.266   5.264   0.798 -0.2545 -0.0624  0.4043
  649MOL0     C87511   9.400   5.247   0.820 -0.6810  0.1110 -0.5978
  649MOL0     C87512   9.475   5.140   0.772  0.1340 -0.5626 -0.2103
  649MOL0     C87513   9.610   5.125   0.817  0.0647 -0.3488 -0.5047
  649MOL0     C87514   9.677   5.220   0.901  0.4326  0.7166  1.4375
  649MOL0     O87515   9.808   5.206   0.949 -0.7899  0.5808  0.4425
  649MOL0     C87516   9.870   5.080   0.943 -0.1659  0.3175 -0.0936
  649MOL0     C87517   9.987   5.078   1.042  0.5403 -0.1816 -0.0830
  649MOL0     C87518  10.057   4.944   1.026  0.2786  0.1076  0.7349
  649MOL0     C87519  10.136   4.901   1.150  0.5391 -0.5071 -0.5328
  649MOL0     C87520  10.265   4.990   1.167  0.4278 -1.0694  0.5391
  649MOL0     C87521  10.370   4.928   1.254 -0.9331 -0.7158 -0.0466
  649MOL0     C87522  10.352   4.932   1.410  0.2289  0.6462  0.7358
  649MOL0     C87523  10.479   4.886   1.492 -0.1707  0.4193 -0.1020
  649MOL0    Cl87524  10.523   4.720   1.460 -0.2040  0.1281 -0.2599
  649MOL0     C87525   9.600   5.338   0.937 -1.0052  0.3666  0.4273
  649MOL0     C87526   9.474   5.354   0.879  0.6427  0.2430  0.1384
  649MOL0     O87527   9.210   5.048   0.839  0.2866 -0.2620  0.6534
  649MOL0     C87528   9.003   5.331   0.735 -1.0910  0.3745 -0.0321
  649MOL0     C87529   8.881   5.358   0.683  0.2300  0.2295  1.2870
  649MOL0     N87530   8.208   5.062   0.400  0.3852  0.5328  0.3938
  649MOL0     N87531   8.143   5.129   0.314  1.0662  0.4432 -0.1156
  649MOL0     C87532   6.988   5.665   0.566  0.6571  0.1026  0.0329
  649MOL0     C87533   6.860   5.613   0.595 -0.2876 -0.4266  0.2806
  649MOL0     C87534   6.402   5.571   0.528 -0.6976  1.1607 -0.2670
  649MOL0     C87535   6.383   5.456   0.446  0.2905 -0.5873 -0.2762
  649MOL0     C87536   6.261   5.383   0.450  0.7890  0.5214 -0.8541
  649MOL0     C87537   6.158   5.419   0.535 -0.4232 -0.6689  0.1778
  649MOL0     O87538   6.043   5.338   0.542  0.5407 -0.1788  0.7138
  649MOL0     C87539   5.913   5.384   0.591 -0.2725 -0.2308  0.2900
  649MOL0     C87540   5.839   5.474   0.492  0.1937 -0.2609 -0.1626
  649MOL0     C87541   5.801   5.409   0.360  0.2088 -0.2371 -0.8701
  649MOL0     C87542   5.769   5.514   0.255  0.1051  1.5259 -0.0241
  649MOL0     C87543   5.630   5.574   0.267 -1.2612 -0.0220 -0.4141
  649MOL0     C87544   5.521   5.629   0.261 -0.6750 -0.4795 -0.4740
  649MOL0     C87545   6.172   5.536   0.608  0.3960  0.5878  0.6636
  649MOL0     C87546   6.292   5.610   0.610  0.1950 -0.1726 -0.6362
  649MOL0     C87547   6.300   5.711   0.724  0.4719  0.0320  0.5178
  649MOL0     H87548   6.731   5.654   0.290  0.2811 -1.1224  0.4983
  649MOL0     H87549   6.946   5.713   0.225 -2.3938 -3.3510 -1.8737
  649MOL0     H87550   7.180   5.623   0.243 -0.8150  0.4806 -2.7731
  649MOL0     H87551   7.162   5.794   0.213 -0.1766 -1.4386  0.3426
  649MOL0     H87552   7.400   5.812   0.352 -1.4250  0.4941 -0.9335
  649MOL0     H87553   7.392   5.749   0.191  0.5844  2.5390  0.6854
  649MOL0     H87554   7.388   5.531   0.257 -2.6168  3.2776 -1.3289
  649MOL0     H87555   7.375   5.563   0.432 -0.9793 -0.7167 -0.5950
  649MOL0     H87556   7.612   5.631   0.251 -2.3236  1.2594 -1.4221
  649MOL0     H87557   7.609   5.650   0.431 -2.7269 -2.3651  3.0470
  649MOL0     H87558   7.603   5.400   0.436 -0.1137 -2.6642 -1.5549
  649MOL0     H87559   7.640   5.398   0.258  1.4793 -0.4045 -0.8105
  649MOL0     H87560   7.838   5.519   0.280  4.5873  0.2491  3.0164
  649MOL0     H87561   7.824   5.531   0.452 -0.3132  1.7308 -0.5138
  649MOL0     H87562   7.823   5.259   0.307 -0.8440 -0.1428  0.2926
  649MOL0     H87563   7.856   5.292   0.475  0.1189 -1.1661 -0.8017
  649MOL0     H87564   8.031   5.366   0.239 -1.3388 -1.4676 -0.1220
  649MOL0     H87565   8.062   5.427   0.397 -0.5257  0.1154  0.5951
  649MOL0     H87566   8.104   5.272   0.609 -1.6338  1.5380 -1.5829
  649MOL0     H87567   8.226   5.076   0.736  1.4700  0.1582  0.7567
  649MOL0     H87568   8.294   4.949   0.639 -1.1760 -0.4915 -0.8338
  649MOL0     H87569   8.469   5.077   0.748  2.5293  0.0618 -0.6448
  649MOL0     H87570   8.486   5.101   0.578  0.3092 -3.0067  0.8013
  649MOL0     H87571   8.341   5.298   0.769 -2.8335  0.6748 -1.2748
  649MOL0     H87572   8.372   5.328   0.601  3.6346  1.5420 -1.4086
  649MOL0     H87573   8.566   5.298   0.828  2.1845 -3.3451 -1.1852
  649MOL0     H87574   8.552   5.437   0.724 -0.0057 -1.3613 -0.7703
  649MOL0     H87575   8.728   5.063   0.724 -0.0826  0.6055  1.4665
  649MOL0     H87576   8.956   4.992   0.769 -0.8299 -0.0986 -2.6871
  649MOL0     H87577   9.419   5.060   0.725 -1.8711  1.8914 -2.3489
  649MOL0     H87578   9.669   5.039   0.786  2.3416 -0.0616  2.4962
  649MOL0     H87579   9.801   5.009   0.989 -0.7155  0.4758 -0.6611
  649MOL0     H87580   9.897   5.048   0.842  0.0595  0.2215 -0.0044
  649MOL0     H87581  10.043   5.166   1.008 -1.5459  1.2733  0.0425
  649MOL0     H87582   9.947   5.092   1.142  1.4141  1.1463  0.1109
  649MOL0     H87583   9.979   4.869   1.011  1.1482 -0.5897 -0.5222
  649MOL0     H87584  10.118   4.941   0.935  2.4063  2.0611  1.9846
  649MOL0     H87585  10.163   4.795   1.142  0.2302 -0.8492  2.0297
  649MOL0     H87586  10.077   4.926   1.239 -2.3429  1.3183 -2.8159
  649MOL0     H87587  10.239   5.089   1.205 -1.6914 -1.6284  0.6355
  649MOL0     H87588  10.310   5.013   1.069  1.2952  3.0438  1.7140
  649MOL0     H87589  10.383   4.823   1.228  2.1593 -0.5444  0.4504
  649MOL0     H87590  10.465   4.978   1.231 -0.8461 -0.4246  0.9117
  649MOL0     H87591  10.285   4.851   1.438  0.1806  0.6341  0.5856
  649MOL0     H87592  10.322   5.034   1.439  1.1574  0.6757  1.6495
  649MOL0     H87593  10.559   4.959   1.479 -1.1975  2.3243  3.1676
  649MOL0     H87594  10.456   4.888   1.599  1.1032 -2.1308  0.3039
  649MOL0     H87595   9.642   5.400   1.016  2.4069 -1.8525  0.5552
  649MOL0     H87596   9.419   5.443   0.908 -0.6170  0.1347 -1.8037
  649MOL0     H87597   9.083   5.404   0.736 -0.1062 -0.6319 -1.7053
  649MOL0     H87598   8.867   5.460   0.647  2.3920  0.1899  0.1467
  649MOL0     H87599   7.063   5.681   0.643  1.2235  1.5894 -0.7968
  649MOL0     H87600   6.815   5.590   0.691  0.0059  0.2329  0.5799
  649MOL0     H87601   6.469   5.424   0.388  1.0527  1.6580 -0.4756
  649MOL0     H87602   6.243   5.284   0.408 -2.0016 -0.8305  2.8964
  649MOL0     H87603   5.919   5.449   0.679  2.3433  0.4649 -0.3132
  649MOL0     H87604   5.856   5.293   0.615  0.1573 -2.0324 -4.4605
  649MOL0     H87605   5.905   5.556   0.465  1.7433 -0.9420  1.3089
  649MOL0     H87606   5.753   5.523   0.539  1.0597 -0.7565  2.0839
  649MOL0     H87607   5.721   5.334   0.371  1.7808 -2.3234 -2.7479
  649MOL0     H87608   5.886   5.350   0.326  0.7982 -0.6095  1.1363
  649MOL0     H87609   5.839   5.597   0.261  1.4465  0.6963 -2.6760
  649MOL0     H87610   5.772   5.458   0.161 -1.2993 -1.3785  1.4957
  649MOL0     H87611   5.436   5.689   0.237 -0.1711  0.5389  0.2227
  649MOL0     H87612   6.085   5.564   0.666 -1.8546  1.9481 -2.9912
  649MOL0     H87613   6.387   5.679   0.781  0.3639 -0.3984  0.4461
  649MOL0     H87614   6.300   5.811   0.681 -1.1508 -0.3949 -0.6047
  649MOL0     H87615   6.210   5.716   0.786  0.1154 -0.1255  0.0261
  650MOL0     O87616   0.571   8.043  10.329 -0.5483 -0.9415 -0.7457
  650MOL0     C87617   0.491   8.016  10.423  0.4491 -0.2969  0.2185
  650MOL0     O87618   0.506   8.057  10.556 -0.1153  0.0357  0.4518
  650MOL0     C87619   0.608   8.156  10.587  0.2351  0.4915  0.4986
  650MOL0     C87620   0.710   8.123  10.685  0.1294  0.7126  0.4982
  650MOL0     C87621   0.818   8.211  10.711  0.7108 -0.0941 -0.1183
  650MOL0     C87622   0.817   8.342  10.649 -0.8290 -0.1598  0.2247
  650MOL0     O87623   0.913   8.434  10.699  0.5115 -0.3315  0.9390
  650MOL0     C87624   0.948   8.530  10.593 -1.2957  1.0129 -1.0056
  650MOL0     C87625   1.092   8.571  10.609  0.5129 -0.3097 -0.4699
  650MOL0     C87626   1.141   8.653  10.487  0.6416  0.2130 -0.7428
  650MOL0     C87627   1.288   8.677  10.510  0.3903  0.5937 -0.3564
  650MOL0     C87628   1.348   8.723  10.385 -1.0903 -0.0507  0.3170
  650MOL0     C87629   1.475   8.796  10.429  0.6702  0.3141  0.2948
  650MOL0     C87630   1.575   8.717  10.510 -0.3140  0.2788 -0.5261
  650MOL0     C87631   1.716   8.769  10.479 -0.4472  0.2900 -0.2177
  650MOL0     N87632   1.769   8.727  10.348  0.0058 -0.4469  0.5451
  650MOL0     C87633   1.856   8.625  10.334 -0.7473 -1.3741  0.5353
  650MOL0     C87634   1.914   8.655  10.206  0.1642  0.1434 -0.5850
  650MOL0     C87635   2.023   8.578  10.150 -0.0782  0.4917 -0.7045
  650MOL0     C87636   2.161   8.612  10.223  0.0013 -0.1401  0.4138
  650MOL0     C87637   2.284   8.545  10.168 -0.5530 -0.8161  0.1493
  650MOL0     C87638   2.309   8.569  10.018  0.1006  0.9118  0.3577
  650MOL0     O87639   2.448   8.541   9.986 -0.5375 -0.3130  0.3052
  650MOL0     C87640   2.558   8.628  10.004 -0.4382  0.4346 -0.2740
  650MOL0     C87641   2.540   8.758  10.068 -0.6293  0.1018  0.4785
  650MOL0     C87642   2.657   8.840  10.070 -0.1300  0.4640 -0.4338
  650MOL0     C87643   2.777   8.805   9.997  0.1164  0.1861 -1.0655
  650MOL0     C87644   2.888   8.909   9.991 -0.9590 -0.6531 -0.2443
  650MOL0     O87645   2.877   9.037  10.028  0.3707 -0.7572 -0.5369
  650MOL0     C87646   2.983   9.119  10.052 -0.0858 -0.1944 -0.2763
  650MOL0     C87647   2.979   9.249   9.996 -0.2975  0.7364 -0.7626
  650MOL0     C87648   3.085   9.337  10.015 -0.5748  0.1721  0.3286
  650MOL0     C87649   3.208   9.303  10.078 -0.0395 -0.1127  0.5696
  650MOL0     O87650   3.319   9.395  10.086 -0.2907 -0.6218  0.5589
  650MOL0     C87651   3.334   9.486   9.971 -0.4527 -0.6751  0.1299
  650MOL0     C87652   3.477   9.548   9.979 -0.5846 -0.2045 -0.2534
  650MOL0     C87653   3.509   9.622   9.843 -0.2886 -0.5149  0.6613
  650MOL0     C87654   3.655   9.676   9.849 -0.6857 -0.8575  0.4091
  650MOL0     C87655   3.755   9.566   9.816 -0.4796  0.3083  0.4729
  650MOL0     C87656   3.899   9.618   9.823  0.8035 -0.2900  0.9453
  650MOL0     C87657   4.006   9.519   9.822  0.2265  0.4940  0.7541
  650MOL0     C87658   4.140   9.568   9.783 -0.2343 -0.1969  0.5268
  650MOL0    Cl87659   4.151   9.645   9.616  0.2081  0.1096 -0.1165
  650MOL0     C87660   3.203   9.178  10.146  0.3098  0.4075  0.4807
  650MOL0     C87661   3.095   9.081  10.133 -0.1202 -0.5618  0.0217
  650MOL0     O87662   2.992   8.862   9.950  0.0932  0.2130  0.0192
  650MOL0     C87663   2.779   8.687   9.926 -0.6481  0.6293  0.2393
  650MOL0     C87664   2.673   8.594   9.939 -0.4536  0.0311 -0.7362
  650MOL0     N87665   1.847   8.752  10.138  0.4549 -0.4034 -0.0879
  650MOL0     N87666   1.773   8.807  10.232  0.3150  1.2481  0.1765
  650MOL0     C87667   0.705   8.373  10.575 -0.9634  0.2024 -0.1330
  650MOL0     C87668   0.608   8.282  10.538  0.1748 -0.5467  0.1532
  650MOL0     C87669   0.386   7.914  10.399 -0.7326 -0.2123 -0.9384
  650MOL0     C87670   0.311   7.857  10.506 -0.1890  0.1168  0.1772
  650MOL0     C87671   0.218   7.749  10.484 -0.0279 -0.5950 -0.0086
  650MOL0     C87672   0.171   7.714  10.362  0.1249 -1.1721  1.2135
  650MOL0     O87673   0.071   7.622  10.359 -0.8473 -0.3737 -0.1069
  650MOL0     C87674   0.015   7.578  10.228 -0.0955 -0.1633 -0.3569
  650MOL0     C87675  -0.075   7.459  10.250  0.8108  1.2259  0.3926
  650MOL0     C87676  -0.167   7.471  10.371  1.0210 -0.1742 -0.5912
  650MOL0     C87677  -0.273   7.358  10.383 -0.3998  0.1905 -0.2315
  650MOL0     C87678  -0.353   7.362  10.262  0.6155 -0.4076 -0.1111
  650MOL0     C87679  -0.437   7.369  10.169 -0.4424 -1.0914  0.2678
  650MOL0     C87680   0.226   7.777  10.250  0.2138 -0.0681  0.3034
  650MOL0     C87681   0.337   7.870  10.268 -0.6614 -0.4046  0.1769
  650MOL0     C87682   0.371   7.931  10.139  0.1127 -0.7976 -0.4777
  650MOL0     H87683   0.710   8.027  10.735  1.7516  0.6958  0.5395
  650MOL0     H87684   0.892   8.196  10.788  1.3856  2.2949 -0.2321
  650MOL0     H87685   0.940   8.483  10.494  0.7008  0.1753 -0.8200
  650MOL0     H87686   0.878   8.613  10.593 -0.3761  1.8064 -0.8736
  650MOL0     H87687   1.159   8.485  10.618  1.5842  0.2982 -2.1435
  650MOL0     H87688   1.105   8.633  10.698  0.4566 -1.8111  0.6219
  650MOL0     H87689   1.089   8.749  10.481  0.9433  0.5196  1.0458
  650MOL0     H87690   1.126   8.587  10.400  0.7804 -1.1896  0.2551
  650MOL0     H87691   1.312   8.731  10.602  2.4923 -3.6432  1.9040
  650MOL0     H87692   1.324   8.576  10.531  2.0498  1.7668  3.2531
  650MOL0     H87693   1.359   8.641  10.314 -0.4602  0.6112 -0.3754
  650MOL0     H87694   1.283   8.798  10.338 -1.2212  1.8093  3.2061
  650MOL0     H87695   1.523   8.835  10.339 -1.3886 -0.8684 -1.4166
  650MOL0     H87696   1.447   8.880  10.494  2.3749  0.0365  1.4603
  650MOL0     H87697   1.572   8.609  10.492 -0.1813  0.3981 -1.3037
  650MOL0     H87698   1.556   8.736  10.616  2.4900  2.8039 -0.3535
  650MOL0     H87699   1.710   8.878  10.489 -0.3030  0.2337  0.5181
  650MOL0     H87700   1.793   8.750  10.554 -0.5089  3.1658  0.7063
  650MOL0     H87701   1.885   8.541  10.397 -1.2107 -0.6289  1.7746
  650MOL0     H87702   1.995   8.473  10.160 -2.1641  1.0995  0.4941
  650MOL0     H87703   2.028   8.613  10.047  0.1476  0.3608 -0.7377
  650MOL0     H87704   2.177   8.720  10.228 -0.5122 -0.0228 -0.2496
  650MOL0     H87705   2.160   8.573  10.325  3.1804 -0.0812  0.5757
  650MOL0     H87706   2.267   8.438  10.186 -1.4642 -0.4257  1.8450
  650MOL0     H87707   2.373   8.569  10.226 -0.4164 -1.4628  0.2205
  650MOL0     H87708   2.282   8.671   9.988 -0.0683  0.4866 -0.9926
  650MOL0     H87709   2.242   8.503   9.962  0.8151 -0.1942  0.7881
  650MOL0     H87710   2.446   8.795  10.108 -1.2787 -0.3591 -0.5771
  650MOL0     H87711   2.649   8.936  10.119  0.6916 -0.3648  1.4522
  650MOL0     H87712   2.883   9.284   9.959 -1.9701 -0.0265  2.4996
  650MOL0     H87713   3.068   9.431   9.964 -0.4042 -0.4127 -0.8586
  650MOL0     H87714   3.309   9.432   9.879  1.4592 -0.3428 -0.6318
  650MOL0     H87715   3.270   9.574   9.978 -2.4895 -2.0754  0.0792
  650MOL0     H87716   3.486   9.606  10.072 -1.5426 -1.0973  0.4217
  650MOL0     H87717   3.541   9.459   9.986 -2.5042 -1.6092  0.4786
  650MOL0     H87718   3.499   9.558   9.755 -1.1488  0.6985 -0.1581
  650MOL0     H87719   3.432   9.698   9.826  0.2018 -0.4583 -1.6246
  650MOL0     H87720   3.667   9.727   9.945  0.6893  1.0573 -0.6947
  650MOL0     H87721   3.662   9.747   9.766  0.3496 -3.0398 -1.4756
  650MOL0     H87722   3.735   9.518   9.720 -0.7804 -1.7941  1.5161
  650MOL0     H87723   3.748   9.487   9.892 -1.5380 -0.6235 -0.5577
  650MOL0     H87724   3.909   9.690   9.742 -2.6411 -0.3613  0.3171
  650MOL0     H87725   3.907   9.665   9.921 -0.9420  0.3122  0.8387
  650MOL0     H87726   3.965   9.440   9.758 -2.7843  0.8767  2.0204
  650MOL0     H87727   4.005   9.474   9.921 -2.2564 -1.3436 -0.0057
  650MOL0     H87728   4.189   9.639   9.851 -1.1067  4.4203 -3.1550
  650MOL0     H87729   4.205   9.481   9.776  3.8402  2.4291  2.0290
  650MOL0     H87730   3.275   9.144  10.220  0.0902 -1.5603 -0.1390
  650MOL0     H87731   3.098   8.984  10.181  3.0134  0.1369  1.4755
  650MOL0     H87732   2.862   8.662   9.861 -2.1370  2.5153 -2.5774
  650MOL0     H87733   2.675   8.502   9.882  1.1042  1.5977 -3.4204
  650MOL0     H87734   0.681   8.476  10.550 -0.2343  1.0404  2.2733
  650MOL0     H87735   0.538   8.317  10.462  1.7211 -0.3025 -1.2256
  650MOL0     H87736   0.335   7.891  10.607  1.3885 -3.2257  1.0527
  650MOL0     H87737   0.169   7.710  10.573  1.2216  0.0144  0.9751
  650MOL0     H87738   0.092   7.549  10.155  0.3599 -0.1461  0.1145
  650MOL0     H87739  -0.034   7.665  10.184  1.1113 -0.4211 -2.3812
  650MOL0     H87740  -0.012   7.369  10.251  1.9058  1.8186 -2.6740
  650MOL0     H87741  -0.136   7.453  10.159  0.1765  0.8320  0.8372
  650MOL0     H87742  -0.229   7.560  10.362 -0.0204 -0.5508  1.8654
  650MOL0     H87743  -0.104   7.475  10.461  1.3188 -1.2393 -0.7341
  650MOL0     H87744  -0.219   7.262  10.388 -0.3192  0.2703  0.5915
  650MOL0     H87745  -0.342   7.369  10.467  1.7266 -0.9902  1.8006
  650MOL0     H87746  -0.501   7.386  10.085 -0.7075  0.6843  0.7747
  650MOL0     H87747   0.186   7.746  10.154  3.4094  1.7121 -1.7677
  650MOL0     H87748   0.317   8.025  10.123  2.3850  1.0612  1.6624
  650MOL0     H87749   0.478   7.951  10.128 -0.0888  0.5099 -0.2299
  650MOL0     H87750   0.333   7.873  10.055 -2.2895 -0.8611  0.5704
  651MOL0     O87751   2.037  10.632   3.243  0.4420  0.0145  1.1254
  651MOL0     C87752   1.974  10.551   3.175  1.1127  0.2182  0.1973
  651MOL0     O87753   2.028  10.485   3.068 -0.2267 -0.0921  0.7011
  651MOL0     C87754   2.159  10.501   3.034  0.6312  0.7697  0.5845
  651MOL0     C87755   2.265  10.533   3.128  0.9774 -0.1753  0.9975
  651MOL0     C87756   2.398  10.545   3.076 -0.2363  0.2130 -0.2515
  651MOL0     C87757   2.425  10.515   2.941  0.1323  0.8203 -0.4672
  651MOL0     O87758   2.559  10.528   2.894  0.6423 -0.8679  0.0371
  651MOL0     C87759   2.589  10.486   2.756 -0.3893 -0.0596  0.3893
  651MOL0     C87760   2.590  10.338   2.732  0.0467  0.0759 -0.2124
  651MOL0     C87761   2.719  10.276   2.792  0.4650 -0.1302  0.0384
  651MOL0     C87762   2.718  10.125   2.775 -0.3329  0.4170 -0.6646
  651MOL0     C87763   2.806  10.060   2.888 -0.3367 -0.1114  0.2241
  651MOL0     C87764   2.907   9.956   2.831 -0.4002 -0.0036  0.1281
  651MOL0     C87765   3.037  10.026   2.783 -0.7544 -0.6304 -0.2901
  651MOL0     C87766   3.098   9.971   2.650  0.5642  0.5124 -0.1323
  651MOL0     N87767   3.152   9.832   2.668  0.0692 -0.3608 -0.1525
  651MOL0     C87768   3.259   9.816   2.749  0.0834 -0.8937  0.4541
  651MOL0     C87769   3.292   9.695   2.735  0.4382 -0.6326  0.6114
  651MOL0     C87770   3.423   9.643   2.798 -0.7382 -0.3862  0.6524
  651MOL0     C87771   3.542   9.712   2.726  0.4039 -0.3046  0.9741
  651MOL0     C87772   3.664   9.643   2.771  0.5344 -0.0076 -0.3215
  651MOL0     C87773   3.792   9.688   2.702 -1.3516 -0.7250  0.4766
  651MOL0     O87774   3.823   9.819   2.761 -0.3666  0.0998  0.7764
  651MOL0     C87775   3.942   9.874   2.731  0.1895 -0.3076 -0.0942
  651MOL0     C87776   4.039   9.817   2.643 -0.8563 -0.3923  0.1964
  651MOL0     C87777   4.163   9.889   2.625  0.3755  1.3874  0.5370
  651MOL0     C87778   4.192  10.002   2.693 -0.2573 -0.3081  0.5410
  651MOL0     C87779   4.321  10.063   2.682  0.0261  0.1704 -0.0569
  651MOL0     O87780   4.412   9.986   2.602  0.2632 -0.2322 -0.1498
  651MOL0     C87781   4.543  10.026   2.596 -0.0112 -0.0046  0.0148
  651MOL0     C87782   4.599  10.007   2.469 -0.4015  0.7018  0.8442
  651MOL0     C87783   4.740  10.024   2.454  0.4472 -0.0328 -0.0102
  651MOL0     C87784   4.820  10.062   2.559 -0.6574  0.4504 -0.5528
  651MOL0     O87785   4.957  10.067   2.548  0.4838 -0.4870  0.4198
  651MOL0     C87786   5.011  10.165   2.463 -0.6644 -0.1873 -0.5289
  651MOL0     C87787   5.162  10.171   2.476  1.8024  0.0566  0.4892
  651MOL0     C87788   5.232  10.045   2.421 -0.0534  0.3703 -0.7793
  651MOL0     C87789   5.368  10.039   2.486  0.4550 -0.7379 -0.8759
  651MOL0     C87790   5.448   9.911   2.444 -0.0037 -0.7356  0.2812
  651MOL0     C87791   5.535   9.917   2.325  0.6345  0.4505  0.8947
  651MOL0     C87792   5.627   9.789   2.323 -0.1771 -0.1769 -0.3870
  651MOL0     C87793   5.750   9.828   2.242 -0.3372 -0.9653 -1.2737
  651MOL0    Cl87794   5.704   9.887   2.081  0.5147 -0.2077 -0.6144
  651MOL0     C87795   4.764  10.085   2.683  0.3154 -0.3516  0.4874
  651MOL0     C87796   4.624  10.079   2.703 -1.0175 -0.5061  0.4717
  651MOL0     O87797   4.341  10.165   2.743 -0.2356  0.5524  0.1262
  651MOL0     C87798   4.105  10.042   2.793 -0.6225  0.4888 -0.4970
  651MOL0     C87799   3.982   9.980   2.812  0.3230  0.2216 -0.3049
  651MOL0     N87800   3.219   9.642   2.629 -0.0309 -0.1450  0.6508
  651MOL0     N87801   3.129   9.723   2.597  0.9716 -0.3322  0.3381
  651MOL0     C87802   2.321  10.463   2.856  1.3926 -0.1365 -0.1339
  651MOL0     C87803   2.187  10.461   2.901 -1.0751 -0.3638  0.1420
  651MOL0     C87804   1.829  10.519   3.208  0.0974  0.8730 -0.5611
  651MOL0     C87805   1.766  10.394   3.167  0.6314  0.9657  0.3466
  651MOL0     C87806   1.629  10.367   3.187  0.2288  0.3556 -0.1176
  651MOL0     C87807   1.544  10.467   3.239 -0.8739 -0.0813 -0.0031
  651MOL0     O87808   1.406  10.441   3.253 -0.1867 -0.0480 -0.0016
  651MOL0     C87809   1.354  10.318   3.192  0.4607  0.7412 -0.2616
  651MOL0     C87810   1.211  10.317   3.233  0.7634 -0.6544  0.0725
  651MOL0     C87811   1.207  10.331   3.393 -0.1527 -0.3023  0.4976
  651MOL0     C87812   1.062  10.376   3.439 -0.1528 -0.0271  0.7492
  651MOL0     C87813   1.032  10.398   3.581  0.3391 -0.1420  0.0066
  651MOL0     C87814   0.996  10.410   3.694  0.2752  0.3328  0.4761
  651MOL0     C87815   1.610  10.578   3.297  0.0309 -0.4926  0.0261
  651MOL0     C87816   1.748  10.605   3.279 -0.0227 -0.4259 -0.6980
  651MOL0     C87817   1.795  10.735   3.352 -0.5897  0.3110  0.4475
  651MOL0     H87818   2.256  10.551   3.235  0.6017  1.7780  0.6777
  651MOL0     H87819   2.483  10.570   3.138  0.3659 -1.4819 -0.3265
  651MOL0     H87820   2.522  10.531   2.681 -1.7585 -0.1476  1.5252
  651MOL0     H87821   2.689  10.524   2.736 -0.6111  0.5284  0.3528
  651MOL0     H87822   2.607  10.324   2.625  1.1792  1.7135 -0.2803
  651MOL0     H87823   2.504  10.275   2.755 -2.2090  1.3821 -4.0751
  651MOL0     H87824   2.712  10.296   2.899 -1.8063 -1.5754  0.2319
  651MOL0     H87825   2.812  10.320   2.755  1.3663  0.3148  2.6465
  651MOL0     H87826   2.615  10.090   2.783  0.6500 -2.4274  1.7146
  651MOL0     H87827   2.749  10.088   2.677  3.1023  2.2405 -0.4189
  651MOL0     H87828   2.860  10.135   2.947 -1.2335  1.8309 -1.3048
  651MOL0     H87829   2.732  10.008   2.951  0.5957  0.6918  2.0647
  651MOL0     H87830   2.940   9.881   2.904  0.7875  0.5140  0.1427
  651MOL0     H87831   2.879   9.897   2.743  3.5696 -1.4264 -0.3946
  651MOL0     H87832   3.115  10.027   2.860 -0.7809  2.0987 -0.2037
  651MOL0     H87833   3.002  10.127   2.763 -1.6168 -0.5598  1.3731
  651MOL0     H87834   3.009   9.963   2.587 -0.6937 -2.2329  1.8076
  651MOL0     H87835   3.176  10.036   2.609  0.1172  0.3789 -1.2320
  651MOL0     H87836   3.313   9.884   2.814 -1.3452  0.2310  0.4934
  651MOL0     H87837   3.424   9.661   2.906  2.6172 -1.6011  0.9510
  651MOL0     H87838   3.426   9.535   2.782  0.1143 -0.0960 -1.5824
  651MOL0     H87839   3.534   9.703   2.617  1.1878  1.2439  0.7552
  651MOL0     H87840   3.538   9.819   2.750  1.7511 -0.1473  0.5439
  651MOL0     H87841   3.651   9.536   2.751  1.8661  0.1918 -2.7774
  651MOL0     H87842   3.682   9.654   2.878  1.7819 -3.7136  0.0130
  651MOL0     H87843   3.783   9.693   2.593  2.0308  1.9277  0.1367
  651MOL0     H87844   3.879   9.625   2.720  1.7044  3.1057  0.3874
  651MOL0     H87845   4.013   9.730   2.585 -2.3441  1.1436 -1.5844
  651MOL0     H87846   4.225   9.834   2.555 -1.5595 -1.2106  0.7019
  651MOL0     H87847   4.544   9.974   2.382 -0.2959  2.1680  0.1993
  651MOL0     H87848   4.782  10.004   2.356  1.4175 -2.3678  0.8181
  651MOL0     H87849   4.982  10.133   2.362 -1.0060  0.3061 -0.5960
  651MOL0     H87850   4.962  10.261   2.486  0.2046  0.6380 -1.9181
  651MOL0     H87851   5.208  10.252   2.419 -0.7747  0.4210 -1.2702
  651MOL0     H87852   5.178  10.183   2.584 -0.7057 -3.1393  1.3872
  651MOL0     H87853   5.186   9.951   2.451  3.1013 -0.5125  1.8811
  651MOL0     H87854   5.240  10.051   2.312  0.0538  2.2172 -0.7065
  651MOL0     H87855   5.349  10.031   2.594 -0.8321  2.2256 -0.8008
  651MOL0     H87856   5.427  10.129   2.466  0.2799 -0.0650  1.3018
  651MOL0     H87857   5.383   9.824   2.431  0.1936 -0.7192 -0.9520
  651MOL0     H87858   5.521   9.888   2.522  0.5265  0.6783  0.2344
  651MOL0     H87859   5.467   9.918   2.239  0.2323 -1.1807  1.1690
  651MOL0     H87860   5.594  10.009   2.316  1.2209 -0.1010 -5.0192
  651MOL0     H87861   5.574   9.705   2.275 -0.0876 -0.7383  0.4841
  651MOL0     H87862   5.662   9.759   2.422  2.3068  1.5571 -0.6413
  651MOL0     H87863   5.780   9.917   2.299 -1.0759 -3.3984  3.4725
  651MOL0     H87864   5.819   9.743   2.245 -0.0613 -0.7374 -0.9581
  651MOL0     H87865   4.839  10.110   2.757  3.2214 -2.4406 -1.5047
  651MOL0     H87866   4.588  10.103   2.803 -0.3483  0.3291  0.5184
  651MOL0     H87867   4.137  10.115   2.867  1.0473  0.7076 -1.3772
  651MOL0     H87868   3.915  10.003   2.894 -1.3259 -0.0525 -1.5177
  651MOL0     H87869   2.336  10.438   2.751  1.5257 -0.4780 -0.0359
  651MOL0     H87870   2.107  10.438   2.831 -0.4936 -1.5398 -0.1634
  651MOL0     H87871   1.834  10.313   3.140 -0.6853 -1.5339  3.7992
  651MOL0     H87872   1.597  10.276   3.138  2.6301 -1.2589  1.0479
  651MOL0     H87873   1.407  10.226   3.216 -0.2525 -0.3863 -2.6579
  651MOL0     H87874   1.353  10.332   3.083 -0.7222  3.5874  0.0145
  651MOL0     H87875   1.159  10.225   3.202 -0.5640 -0.9085  2.7521
  651MOL0     H87876   1.148  10.392   3.184  0.0551  0.1486  2.1140
  651MOL0     H87877   1.275  10.407   3.433 -2.4354  3.7370 -2.5461
  651MOL0     H87878   1.221  10.233   3.440 -1.1239  0.2205  1.9618
  651MOL0     H87879   1.045  10.469   3.384  1.1402 -0.4528 -0.4280
  651MOL0     H87880   0.986  10.306   3.403  2.5694 -2.7586 -0.1043
  651MOL0     H87881   0.956  10.411   3.794 -0.6990 -0.2988  0.1044
  651MOL0     H87882   1.549  10.647   3.355 -0.3408 -1.0863  0.3556
  651MOL0     H87883   1.708  10.789   3.390 -0.2965  1.4209 -0.4240
  651MOL0     H87884   1.861  10.709   3.435  0.2716 -1.7087 -0.7954
  651MOL0     H87885   1.849  10.803   3.287 -1.2870  0.5632  0.1227
  652MOL0     O87886   7.486   6.963   3.108 -0.1754  0.1325 -0.9487
  652MOL0     C87887   7.508   6.861   3.048 -0.0002 -0.2379  0.4761
  652MOL0     O87888   7.436   6.747   3.061 -0.2121 -0.1122 -0.4819
  652MOL0     C87889   7.311   6.771   3.111 -0.1980 -0.2279  0.4382
  652MOL0     C87890   7.263   6.720   3.236 -0.3073  0.2224 -0.4708
  652MOL0     C87891   7.136   6.745   3.281  0.4660  0.4679  0.1503
  652MOL0     C87892   7.048   6.828   3.209 -0.1281  0.4045 -0.6710
  652MOL0     O87893   6.928   6.860   3.270 -1.0132  0.3956 -0.0191
  652MOL0     C87894   6.811   6.843   3.195  0.8983  0.5893  0.1222
  652MOL0     C87895   6.673   6.826   3.272  0.8077 -0.6491 -1.2298
  652MOL0     C87896   6.694   6.711   3.374 -0.2915 -0.4713 -0.9503
  652MOL0     C87897   6.574   6.715   3.472  0.4809  0.8387 -0.6352
  652MOL0     C87898   6.563   6.598   3.572 -0.6689 -0.3364  0.0286
  652MOL0     C87899   6.681   6.579   3.670  0.1271 -0.7844 -0.2695
  652MOL0     C87900   6.699   6.696   3.762  0.2273 -0.3202 -0.1083
  652MOL0     C87901   6.815   6.680   3.861  0.1073  0.0836  1.0734
  652MOL0     N87902   6.949   6.665   3.799  0.2051 -0.4318  0.4804
  652MOL0     C87903   7.042   6.762   3.794  0.3162  0.1320 -1.0453
  652MOL0     C87904   7.157   6.709   3.755  0.4523 -0.3842 -0.5894
  652MOL0     C87905   7.286   6.784   3.750 -0.2817  0.2097  0.1367
  652MOL0     C87906   7.391   6.764   3.865 -0.1190  0.0168  0.0495
  652MOL0     C87907   7.456   6.620   3.852  0.8621 -0.0274  0.7697
  652MOL0     C87908   7.601   6.623   3.905  0.3597  0.8300  0.2095
  652MOL0     O87909   7.700   6.628   3.800 -0.4609 -0.8142 -0.3339
  652MOL0     C87910   7.835   6.652   3.830 -0.5430  0.2607  0.3203
  652MOL0     C87911   7.895   6.667   3.957  0.1836 -0.7513  0.1209
  652MOL0     C87912   8.028   6.712   3.976 -0.1160  0.9063  0.3524
  652MOL0     C87913   8.114   6.721   3.864 -0.5111  0.0690 -0.2512
  652MOL0     C87914   8.255   6.767   3.879 -0.6458  0.2793 -0.5318
  652MOL0     O87915   8.337   6.754   3.774 -1.1349  0.0266  1.0346
  652MOL0     C87916   8.470   6.767   3.787 -0.2794  0.6187 -0.8663
  652MOL0     C87917   8.552   6.651   3.800 -0.0840  0.3702 -0.1485
  652MOL0     C87918   8.690   6.666   3.805  0.2381 -0.2039 -0.0684
  652MOL0     C87919   8.760   6.787   3.795 -0.5582 -0.7853 -1.0123
  652MOL0     O87920   8.901   6.803   3.798  0.6424  0.3748 -0.1085
  652MOL0     C87921   8.973   6.748   3.906  0.0351  0.1372 -0.0334
  652MOL0     C87922   9.084   6.666   3.849  0.2432  0.2689 -0.2813
  652MOL0     C87923   9.181   6.611   3.955 -0.3058 -0.0346  0.0060
  652MOL0     C87924   9.261   6.487   3.894 -0.6111  0.2727 -0.3669
  652MOL0     C87925   9.386   6.467   3.977 -0.7137 -0.2748  1.1380
  652MOL0     C87926   9.481   6.370   3.907 -0.1661 -0.5250  0.7169
  652MOL0     C87927   9.613   6.341   3.992 -0.9340  0.7416 -0.1247
  652MOL0     C87928   9.724   6.260   3.918 -0.1555  0.5266 -0.3815
  652MOL0    Cl87929   9.684   6.077   3.923  0.2535  0.0202 -0.4944
  652MOL0     C87930   8.675   6.903   3.797  0.2800 -0.6144 -1.2434
  652MOL0     C87931   8.538   6.895   3.792  0.8414  0.1545  0.5526
  652MOL0     O87932   8.295   6.792   3.992 -0.5658 -0.1337  0.3699
  652MOL0     C87933   8.063   6.695   3.736  0.0684  0.3695 -0.3444
  652MOL0     C87934   7.925   6.675   3.726  0.3256  0.1633  0.0558
  652MOL0     N87935   7.131   6.572   3.734  0.1154  0.1888  1.3495
  652MOL0     N87936   7.004   6.548   3.757 -0.4741  0.3836 -0.4670
  652MOL0     C87937   7.088   6.876   3.089  0.2887  0.7702 -0.0409
  652MOL0     C87938   7.216   6.840   3.036  0.1082  0.5299  0.5315
  652MOL0     C87939   7.631   6.851   2.968 -0.6358 -0.4970 -0.0387
  652MOL0     C87940   7.642   6.733   2.886  0.8278  0.1217  0.2439
  652MOL0     C87941   7.765   6.699   2.821  0.3308  1.2362 -0.0071
  652MOL0     C87942   7.878   6.778   2.834 -0.2355  0.0092 -0.1925
  652MOL0     O87943   7.994   6.747   2.762  0.1058  0.7031 -0.2549
  652MOL0     C87944   8.025   6.603   2.775  0.3520  0.7872  1.1245
  652MOL0     C87945   8.165   6.576   2.725 -0.3744 -0.5636 -0.6289
  652MOL0     C87946   8.184   6.430   2.711  0.1956  0.4346  0.6030
  652MOL0     C87947   8.308   6.398   2.624  0.1643  0.2868  0.6371
  652MOL0     C87948   8.320   6.251   2.613 -0.3142 -0.5281  0.9488
  652MOL0     C87949   8.318   6.129   2.589  1.3013 -0.0993 -0.8026
  652MOL0     C87950   7.859   6.902   2.902  0.0449  0.1090 -0.2936
  652MOL0     C87951   7.739   6.940   2.971  0.9321  0.7188 -0.0984
  652MOL0     C87952   7.751   7.068   3.050  0.2992 -0.4702 -0.3820
  652MOL0     H87953   7.323   6.656   3.300  2.3356  0.5224 -2.4647
  652MOL0     H87954   7.108   6.713   3.381 -0.5248  0.8286 -0.0010
  652MOL0     H87955   6.803   6.930   3.128  3.1698  0.9266  0.2244
  652MOL0     H87956   6.818   6.754   3.132  1.8615  0.2488  0.7010
  652MOL0     H87957   6.596   6.796   3.200 -0.6191 -0.5582  0.2206
  652MOL0     H87958   6.642   6.919   3.320 -1.6811 -0.4954 -2.9272
  652MOL0     H87959   6.788   6.723   3.431  1.4242 -1.8019 -3.3198
  652MOL0     H87960   6.700   6.613   3.325  0.6993  0.4098 -2.6906
  652MOL0     H87961   6.579   6.810   3.526 -1.0635 -0.2866  1.6450
  652MOL0     H87962   6.481   6.711   3.415 -0.1007  1.3045  0.2524
  652MOL0     H87963   6.465   6.615   3.618 -0.0627 -0.4657  1.4196
  652MOL0     H87964   6.564   6.508   3.511 -0.2340 -0.9740  0.9626
  652MOL0     H87965   6.638   6.498   3.730  1.7343 -1.8270 -0.4915
  652MOL0     H87966   6.775   6.550   3.623 -0.4527 -0.9311 -1.3702
  652MOL0     H87967   6.611   6.707   3.825  1.5309 -0.4496  1.8260
  652MOL0     H87968   6.716   6.788   3.704  1.6670 -0.9150 -0.6734
  652MOL0     H87969   6.814   6.773   3.918  0.2537  1.8529 -1.6208
  652MOL0     H87970   6.803   6.587   3.917  0.2725 -2.4451 -2.7411
  652MOL0     H87971   7.029   6.868   3.817  0.5652  0.3985 -2.0658
  652MOL0     H87972   7.332   6.758   3.655  2.4156 -2.4775  2.0002
  652MOL0     H87973   7.263   6.891   3.739 -0.2510  0.2226  0.1962
  652MOL0     H87974   7.470   6.836   3.843 -0.2364 -0.7828 -3.4990
  652MOL0     H87975   7.350   6.781   3.965  1.0448 -1.3372  0.7892
  652MOL0     H87976   7.461   6.583   3.749 -0.1685 -3.3782  1.8018
  652MOL0     H87977   7.385   6.549   3.896  0.8397 -0.5309 -0.0636
  652MOL0     H87978   7.613   6.535   3.968  1.5953  1.6393  1.1359
  652MOL0     H87979   7.624   6.710   3.967  0.5257  1.2871 -0.4901
  652MOL0     H87980   7.822   6.656   4.036  1.5579  0.8602  1.7252
  652MOL0     H87981   8.063   6.724   4.078 -2.2929 -1.5542  1.4837
  652MOL0     H87982   8.506   6.553   3.800 -1.3328  0.9152  0.8338
  652MOL0     H87983   8.747   6.574   3.813 -0.4150 -0.5233  1.3096
  652MOL0     H87984   9.023   6.826   3.965 -1.5142  2.3724 -1.5092
  652MOL0     H87985   8.910   6.683   3.968 -0.6895  1.7971  1.0608
  652MOL0     H87986   9.036   6.578   3.805  0.6816  0.0848 -0.3951
  652MOL0     H87987   9.136   6.728   3.776 -0.2364  4.0683  2.2948
  652MOL0     H87988   9.252   6.691   3.977  1.4990 -1.3797 -0.6348
  652MOL0     H87989   9.139   6.580   4.051  1.3384 -3.2353 -0.1694
  652MOL0     H87990   9.279   6.520   3.792  2.6974 -1.5436 -0.4970
  652MOL0     H87991   9.198   6.398   3.892 -1.0237  0.5112  0.7549
  652MOL0     H87992   9.370   6.416   4.073  2.8099 -0.3724  1.8179
  652MOL0     H87993   9.436   6.562   3.996 -1.2156  0.0800  0.7279
  652MOL0     H87994   9.426   6.276   3.897  1.0940 -1.5856  2.9758
  652MOL0     H87995   9.519   6.416   3.815  0.8854  0.9982  1.8590
  652MOL0     H87996   9.590   6.285   4.083  1.6840 -1.5394 -0.7435
  652MOL0     H87997   9.651   6.441   4.015  2.2217  0.3181 -2.7938
  652MOL0     H87998   9.746   6.287   3.814  1.1910  3.4288  0.5564
  652MOL0     H87999   9.816   6.272   3.976  0.2867 -1.7986 -0.4892
  652MOL0     H88000   8.714   7.005   3.798 -0.7157 -0.2132 -1.5521
  652MOL0     H88001   8.472   6.981   3.782  0.2519 -0.2649  0.7479
  652MOL0     H88002   8.123   6.715   3.647  0.8712 -2.6912 -0.6105
  652MOL0     H88003   7.899   6.659   3.622 -0.9591 -2.3135  0.6861
  652MOL0     H88004   7.010   6.929   3.035 -1.2572 -1.6683 -0.3663
  652MOL0     H88005   7.240   6.875   2.936 -3.5737 -1.1815 -1.1366
  652MOL0     H88006   7.558   6.666   2.872 -0.8777  1.0635  4.3484
  652MOL0     H88007   7.761   6.605   2.765  3.8140  0.0302  1.5203
  652MOL0     H88008   7.950   6.540   2.726  0.5630  0.0280  1.7667
  652MOL0     H88009   8.034   6.583   2.882  1.7453  0.8758  1.0317
  652MOL0     H88010   8.248   6.623   2.779 -0.0524  0.5523 -2.0392
  652MOL0     H88011   8.158   6.618   2.625  2.0013  0.2940 -0.5067
  652MOL0     H88012   8.101   6.374   2.665  2.2132 -1.0107 -1.5429
  652MOL0     H88013   8.202   6.389   2.811  1.4303  0.9600  0.6141
  652MOL0     H88014   8.287   6.444   2.527  0.5044  1.3477  1.0457
  652MOL0     H88015   8.403   6.434   2.664  0.2538 -0.0546  0.7372
  652MOL0     H88016   8.304   6.025   2.566 -0.9238  0.0654 -0.4335
  652MOL0     H88017   7.935   6.979   2.909 -0.8773  0.8963  1.9694
  652MOL0     H88018   7.692   7.068   3.142 -1.8427 -0.3568 -1.6745
  652MOL0     H88019   7.856   7.071   3.081  1.3636 -1.2237 -3.5812
  652MOL0     H88020   7.727   7.159   2.994  1.0413 -0.2121 -0.2847
  653MOL0     O88021   4.866   9.369   2.158 -0.0530 -0.0454 -0.4503
  653MOL0     C88022   4.833   9.319   2.050 -0.7638 -0.0622 -0.4200
  653MOL0     O88023   4.911   9.326   1.943 -0.1359  0.1384  0.3947
  653MOL0     C88024   5.046   9.351   1.951 -0.9672 -0.3250 -0.7774
  653MOL0     C88025   5.118   9.273   2.040 -0.3663 -0.2788  0.5972
  653MOL0     C88026   5.256   9.298   2.053  0.9923  0.3599  0.3919
  653MOL0     C88027   5.320   9.401   1.976 -0.7831  0.6596 -0.9622
  653MOL0     O88028   5.457   9.422   2.004  0.0169  0.5281  0.2835
  653MOL0     C88029   5.517   9.511   1.906 -0.7676 -0.2946 -0.4063
  653MOL0     C88030   5.666   9.509   1.909 -0.1777 -0.3417  0.0952
  653MOL0     C88031   5.733   9.611   1.818  0.1335 -0.0957 -0.3963
  653MOL0     C88032   5.873   9.568   1.786 -0.3317 -0.2126  0.0534
  653MOL0     C88033   5.944   9.690   1.719  0.4282 -0.0351 -0.5496
  653MOL0     C88034   6.096   9.662   1.697 -0.1519  0.5368  0.1188
  653MOL0     C88035   6.171   9.779   1.636 -0.6449  0.4416 -0.7543
  653MOL0     C88036   6.178   9.768   1.480  0.5685  0.0186 -0.1507
  653MOL0     N88037   6.266   9.868   1.410  0.3509  0.1289  0.3053
  653MOL0     C88038   6.401   9.844   1.367  1.3925 -0.0604 -0.2191
  653MOL0     C88039   6.433   9.955   1.301  0.2243 -0.1740 -0.0706
  653MOL0     C88040   6.564  10.009   1.253  0.1550  0.8751  0.0439
  653MOL0     C88041   6.652  10.071   1.358  0.0922 -0.1201 -0.1962
  653MOL0     C88042   6.740   9.976   1.433  0.0947 -0.3717 -0.1396
  653MOL0     C88043   6.847  10.050   1.519  0.7019  0.5713 -0.3389
  653MOL0     O88044   6.908  10.141   1.437 -0.1178 -0.3150 -0.5677
  653MOL0     C88045   7.032  10.124   1.406  0.1046  0.1882  0.1513
  653MOL0     C88046   7.062  10.027   1.305  0.4520 -0.6246  0.3814
  653MOL0     C88047   7.190  10.013   1.258  0.5458 -0.2397  0.2182
  653MOL0     C88048   7.294  10.084   1.324 -0.7686 -0.0523 -0.3833
  653MOL0     C88049   7.442  10.073   1.277  0.7389  1.0463  1.1112
  653MOL0     O88050   7.526  10.141   1.346  0.2784  0.4069  0.2300
  653MOL0     C88051   7.661  10.149   1.313  0.4286  0.3743 -0.9687
  653MOL0     C88052   7.742  10.043   1.293  0.0270 -0.2691  0.3631
  653MOL0     C88053   7.875  10.064   1.269 -0.7242  0.0325 -0.3615
  653MOL0     C88054   7.933  10.192   1.300 -0.1743 -0.9917  0.7365
  653MOL0     O88055   8.070  10.218   1.296  0.0483  0.7316 -0.6794
  653MOL0     C88056   8.163  10.109   1.268  0.6520  0.4070  0.8489
  653MOL0     C88057   8.302  10.176   1.265  0.2573  0.4401  0.5155
  653MOL0     C88058   8.422  10.070   1.242  0.6639 -0.3217  0.4346
  653MOL0     C88059   8.553  10.136   1.253  0.7078  0.1143 -0.5904
  653MOL0     C88060   8.668  10.039   1.273  0.7622 -0.3912 -0.5449
  653MOL0     C88061   8.802  10.114   1.310 -0.7502 -0.2552  0.8547
  653MOL0     C88062   8.920  10.014   1.314 -0.0908 -1.0687 -0.2305
  653MOL0     C88063   9.050  10.098   1.325 -0.4900  0.5092 -0.3472
  653MOL0    Cl88064   9.065  10.191   1.177 -0.1252  0.0301  0.0694
  653MOL0     C88065   7.851  10.294   1.330  0.0959  0.7919  0.5360
  653MOL0     C88066   7.713  10.276   1.336  0.4157 -0.0880 -0.3127
  653MOL0     O88067   7.464  10.001   1.176  0.4567 -0.7990  0.1935
  653MOL0     C88068   7.270  10.167   1.439  0.1257 -0.1968 -0.8342
  653MOL0     C88069   7.139  10.180   1.474  0.6609  0.3063  0.0063
  653MOL0     N88070   6.317  10.045   1.288 -0.7296 -0.2257  0.2387
  653MOL0     N88071   6.223   9.982   1.349  0.0304 -0.2769 -0.0592
  653MOL0     C88072   5.248   9.482   1.892  0.4267  0.0759 -0.1363
  653MOL0     C88073   5.107   9.462   1.884 -0.0280  0.5598  0.0600
  653MOL0     C88074   4.690   9.283   2.022  0.8209 -0.6802  0.2619
  653MOL0     C88075   4.586   9.327   2.110 -0.4026 -0.1401  0.1975
  653MOL0     C88076   4.452   9.292   2.092  0.1109 -1.3019  1.2052
  653MOL0     C88077   4.418   9.208   1.986  0.1175 -0.2734 -0.3521
  653MOL0     O88078   4.283   9.194   1.975 -0.1703 -0.3090 -0.0424
  653MOL0     C88079   4.224   9.092   1.900 -0.9186  1.0227  0.5907
  653MOL0     C88080   4.084   9.056   1.949 -0.0493  0.3301  0.5504
  653MOL0     C88081   4.084   9.002   2.089  0.0167 -0.0236 -0.0026
  653MOL0     C88082   3.961   9.058   2.169 -0.1311  0.2958 -0.3945
  653MOL0     C88083   3.831   9.015   2.114  0.3642 -0.3522 -1.3361
  653MOL0     C88084   3.720   9.004   2.063 -0.1945 -0.2308  0.4413
  653MOL0     C88085   4.514   9.159   1.902 -0.6384  0.3901  1.5013
  653MOL0     C88086   4.648   9.197   1.913 -0.4651  0.1159 -0.7592
  653MOL0     C88087   4.757   9.133   1.820  0.3976  0.2782  0.6341
  653MOL0     H88088   5.066   9.201   2.102 -1.2388 -1.8496 -1.8142
  653MOL0     H88089   5.324   9.260   2.129  2.3422  0.7196 -0.5904
  653MOL0     H88090   5.492   9.486   1.803 -0.8470  1.7308 -0.9295
  653MOL0     H88091   5.485   9.613   1.929 -0.9077 -0.1582 -1.1772
  653MOL0     H88092   5.704   9.409   1.886  0.4745  0.5671 -3.4658
  653MOL0     H88093   5.687   9.531   2.014 -0.9663  2.5765 -0.2605
  653MOL0     H88094   5.732   9.705   1.874  1.0007 -0.6507  0.6020
  653MOL0     H88095   5.676   9.638   1.729  0.2881  0.2448 -0.3940
  653MOL0     H88096   5.925   9.541   1.878  1.5448  2.3531 -0.1361
  653MOL0     H88097   5.879   9.477   1.724  0.5162 -0.4811  0.5032
  653MOL0     H88098   5.890   9.700   1.625 -2.9361 -1.8416  1.0250
  653MOL0     H88099   5.936   9.785   1.772 -0.4782  0.4080 -1.4444
  653MOL0     H88100   6.137   9.638   1.796 -2.1056 -1.0363  0.6099
  653MOL0     H88101   6.114   9.578   1.630  1.6334 -1.4493  2.8511
  653MOL0     H88102   6.277   9.772   1.659 -0.8851 -0.1798  0.2052
  653MOL0     H88103   6.137   9.880   1.659  2.3161  1.3715 -0.0209
  653MOL0     H88104   6.206   9.665   1.459  1.9033 -0.0577  1.7692
  653MOL0     H88105   6.073   9.784   1.454  0.1610 -1.9773  0.1458
  653MOL0     H88106   6.466   9.766   1.404  3.2032  1.2713 -0.4630
  653MOL0     H88107   6.627   9.931   1.207 -2.2840 -2.0589  1.3146
  653MOL0     H88108   6.529  10.074   1.172 -4.0995  1.0865  1.8042
  653MOL0     H88109   6.713  10.140   1.299 -0.3138  1.1833  0.8645
  653MOL0     H88110   6.591  10.131   1.426  1.7813  2.9769 -1.1992
  653MOL0     H88111   6.782   9.899   1.367 -2.4881 -2.4094  0.4340
  653MOL0     H88112   6.682   9.925   1.511  2.7079 -0.3029  2.0166
  653MOL0     H88113   6.914   9.982   1.572  0.0269 -0.0556 -0.2704
  653MOL0     H88114   6.799  10.109   1.598  2.8483  1.1877  0.5786
  653MOL0     H88115   6.984   9.971   1.254 -0.9665  0.2817  1.4573
  653MOL0     H88116   7.219   9.940   1.183  1.3243 -1.7384  1.9136
  653MOL0     H88117   7.703   9.945   1.268  0.9826  0.1690 -3.5007
  653MOL0     H88118   7.935   9.974   1.256  1.1259  0.7513  2.2215
  653MOL0     H88119   8.163  10.035   1.348 -1.9298  0.9728  1.4713
  653MOL0     H88120   8.146  10.060   1.172  1.6585  1.5874  0.0402
  653MOL0     H88121   8.292  10.242   1.178 -3.1341  1.9097  1.8587
  653MOL0     H88122   8.312  10.242   1.351  1.3747  3.1108 -1.5077
  653MOL0     H88123   8.411   9.980   1.303 -0.7344  0.7117  1.7836
  653MOL0     H88124   8.420  10.018   1.146  1.8315 -2.0617  1.2928
  653MOL0     H88125   8.558  10.200   1.342  0.5328  2.9259 -2.4600
  653MOL0     H88126   8.567  10.196   1.162 -0.2129 -0.4756 -1.1315
  653MOL0     H88127   8.681   9.970   1.190 -2.8747  1.0805 -2.5345
  653MOL0     H88128   8.649   9.985   1.366  1.1685  0.6863  0.1821
  653MOL0     H88129   8.811  10.194   1.235 -3.2029 -1.0556 -0.4176
  653MOL0     H88130   8.791  10.174   1.401  0.0739  1.3635 -0.0684
  653MOL0     H88131   8.907   9.942   1.233 -2.2652 -2.4691  1.2662
  653MOL0     H88132   8.922   9.956   1.407 -2.1984  1.6744  1.7034
  653MOL0     H88133   9.044  10.155   1.418  0.4137  2.1364 -1.2647
  653MOL0     H88134   9.143  10.044   1.345 -1.8944 -1.7784  0.4457
  653MOL0     H88135   7.894  10.393   1.343  1.5201  0.6218 -2.2447
  653MOL0     H88136   7.639  10.352   1.357  0.5346  0.3398 -1.3799
  653MOL0     H88137   7.345  10.217   1.499 -1.6881  0.7775  0.7440
  653MOL0     H88138   7.109  10.247   1.553  1.5553  2.6627 -1.5586
  653MOL0     H88139   5.285   9.561   1.828  1.3571  0.1320  0.4568
  653MOL0     H88140   5.031   9.518   1.831 -1.8792 -0.0456  1.9582
  653MOL0     H88141   4.615   9.383   2.198 -0.6132 -0.7997  0.6993
  653MOL0     H88142   4.373   9.332   2.154 -1.9972 -4.3525  0.7108
  653MOL0     H88143   4.290   9.005   1.900  2.4316  3.2314 -2.6392
  653MOL0     H88144   4.209   9.130   1.798 -0.7935  0.8789  0.5189
  653MOL0     H88145   4.039   8.985   1.880  0.7597 -0.3533  0.7073
  653MOL0     H88146   4.020   9.144   1.947 -0.1686  0.2310 -0.0188
  653MOL0     H88147   4.170   9.045   2.141 -1.2600  2.1871  0.4004
  653MOL0     H88148   4.073   8.893   2.087 -5.3053  0.2767 -1.1675
  653MOL0     H88149   3.964   9.031   2.275 -2.4455  2.2712  0.2816
  653MOL0     H88150   3.959   9.166   2.152 -1.0119  0.4771  0.7116
  653MOL0     H88151   3.625   9.006   2.013 -1.6342 -0.4193  2.9535
  653MOL0     H88152   4.493   9.090   1.821 -1.1424  1.3007  0.8314
  653MOL0     H88153   4.796   9.213   1.758  0.0497 -0.8334 -1.0967
  653MOL0     H88154   4.833   9.082   1.880 -0.2169 -2.0383 -0.4171
  653MOL0     H88155   4.711   9.060   1.753 -0.4550 -2.2204  3.6960
  654MOL0     O88156   9.931   2.103   7.069 -0.0065  1.1758  0.7249
  654MOL0     C88157   9.809   2.100   7.106 -0.1458 -0.5084  0.2194
  654MOL0     O88158   9.738   1.995   7.130  0.4581 -0.1176  0.0185
  654MOL0     C88159   9.794   1.874   7.172  0.2093  0.5521 -0.3315
  654MOL0     C88160   9.911   1.872   7.257  0.5060  0.3881 -1.0384
  654MOL0     C88161   9.945   1.750   7.310 -0.4003 -0.6501 -1.0350
  654MOL0     C88162   9.864   1.641   7.308  0.1595  0.0913 -0.7247
  654MOL0     O88163   9.916   1.535   7.379 -0.5690  0.2831  0.5806
  654MOL0     C88164   9.827   1.463   7.459 -0.0765 -0.3190 -1.2447
  654MOL0     C88165   9.890   1.441   7.599  0.3053  0.4337 -0.1424
  654MOL0     C88166  10.005   1.336   7.582  0.2676 -0.9295 -0.5065
  654MOL0     C88167  10.095   1.327   7.701 -0.9532 -0.1015 -0.3793
  654MOL0     C88168  10.210   1.231   7.685  0.0115 -0.2677  0.5688
  654MOL0     C88169  10.275   1.218   7.823  0.7096  0.6499  0.3296
  654MOL0     C88170  10.398   1.122   7.805  0.5031  0.4150  0.3835
  654MOL0     C88171  10.514   1.204   7.747 -0.4152  0.9352 -0.5421
  654MOL0     N88172  10.572   1.311   7.831 -0.3733 -0.1165  0.6150
  654MOL0     C88173  10.663   1.288   7.933 -0.6678 -0.4480 -0.5003
  654MOL0     C88174  10.691   1.415   7.975 -0.1012  0.3705  0.3329
  654MOL0     C88175  10.800   1.442   8.069  0.3101  0.0571  0.6280
  654MOL0     C88176  10.927   1.358   8.034 -0.4905 -0.1330  0.5282
  654MOL0     C88177  11.049   1.405   8.112  0.1827 -0.4094 -1.0962
  654MOL0     C88178  11.158   1.297   8.102  0.7735  0.0087 -0.0290
  654MOL0     O88179  11.278   1.342   8.173 -0.7242  0.3700  0.4027
  654MOL0     C88180  11.390   1.264   8.152 -0.6792  0.7418  0.1830
  654MOL0     C88181  11.461   1.276   8.031 -0.0218  0.6731 -0.7297
  654MOL0     C88182  11.589   1.214   8.018  0.7640 -0.0538  0.0788
  654MOL0     C88183  11.643   1.139   8.130 -1.0089 -0.5479 -0.3870
  654MOL0     C88184  11.787   1.091   8.126 -0.5330 -0.0627 -0.7867
  654MOL0     O88185  11.838   1.026   8.236 -0.0891  0.3612  0.1119
  654MOL0     C88186  11.964   0.973   8.236 -0.1698  0.5570 -0.3088
  654MOL0     C88187  12.034   0.913   8.131  0.7759  0.0806 -0.6830
  654MOL0     C88188  12.161   0.855   8.157 -0.2224 -0.0431 -0.2309
  654MOL0     C88189  12.220   0.857   8.287  0.3931 -0.0805 -0.2702
  654MOL0     O88190  12.342   0.806   8.308 -0.4722  0.0585  0.0902
  654MOL0     C88191  12.451   0.892   8.304  0.9052 -0.0634 -0.1277
  654MOL0     C88192  12.462   1.011   8.405 -0.2464  0.0355 -0.4477
  654MOL0     C88193  12.592   1.085   8.380 -0.4376  0.6351 -0.1730
  654MOL0     C88194  12.612   1.218   8.454  0.5976 -0.1112 -0.3767
  654MOL0     C88195  12.745   1.291   8.424 -1.0553 -0.3448  1.0111
  654MOL0     C88196  12.860   1.225   8.497  0.1705  0.1350  0.5294
  654MOL0     C88197  13.003   1.296   8.487  0.0294  0.3898 -0.0038
  654MOL0     C88198  13.029   1.322   8.337  0.7797 -0.7372 -0.1075
  654MOL0    Cl88199  13.189   1.368   8.307  0.3778 -0.0654  0.0119
  654MOL0     C88200  12.143   0.914   8.389  0.7146  0.4149 -0.0506
  654MOL0     C88201  12.011   0.966   8.365  0.9288 -0.3343  0.6423
  654MOL0     O88202  11.854   1.106   8.024 -0.5994  0.2612 -0.5537
  654MOL0     C88203  11.567   1.133   8.249  0.4804 -0.3743 -0.5419
  654MOL0     C88204  11.441   1.190   8.263 -0.0999  0.1971  0.4772
  654MOL0     N88205  10.611   1.509   7.918 -0.2157  0.4551 -0.5336
  654MOL0     N88206  10.545   1.443   7.828  0.0878  0.5556  0.3879
  654MOL0     C88207   9.749   1.640   7.232  0.2522  0.7240  0.0693
  654MOL0     C88208   9.714   1.756   7.165  0.2588  0.6426  0.7205
  654MOL0     C88209   9.735   2.230   7.121  0.1786 -0.3628  0.2683
  654MOL0     C88210   9.605   2.223   7.169 -0.2023  0.6902 -0.5575
  654MOL0     C88211   9.536   2.339   7.199 -0.5044 -0.7169  0.4874
  654MOL0     C88212   9.586   2.458   7.170 -0.1238 -0.8323 -0.0840
  654MOL0     O88213   9.522   2.583   7.184 -0.0049 -0.3253 -0.2356
  654MOL0     C88214   9.392   2.582   7.246 -0.6020 -0.3650  0.1991
  654MOL0     C88215   9.352   2.727   7.237  0.0342  0.0944  0.3544
  654MOL0     C88216   9.221   2.756   7.308  0.1887  0.1402  1.3759
  654MOL0     C88217   9.213   2.905   7.361  0.6185 -0.2216 -0.1992
  654MOL0     C88218   9.072   2.953   7.382 -0.0366  0.1572  0.3589
  654MOL0     C88219   8.954   2.993   7.393 -0.6439 -0.4145  0.1656
  654MOL0     C88220   9.713   2.471   7.114 -1.0194  0.0138  0.3639
  654MOL0     C88221   9.786   2.360   7.090  0.3694  0.3792 -0.1170
  654MOL0     C88222   9.927   2.379   7.059  0.8473  0.4048 -0.3323
  654MOL0     H88223   9.971   1.955   7.292 -0.0258 -0.0667  1.0490
  654MOL0     H88224  10.033   1.755   7.374 -0.3149 -1.3408 -1.0965
  654MOL0     H88225   9.724   1.497   7.470 -1.0259 -2.5803 -2.5903
  654MOL0     H88226   9.821   1.363   7.416 -3.6037 -0.9064  0.3203
  654MOL0     H88227   9.815   1.389   7.660  0.4910 -0.9038 -1.0088
  654MOL0     H88228   9.920   1.535   7.645 -2.1752  1.1577  0.1717
  654MOL0     H88229  10.061   1.353   7.490 -1.7578  0.6459 -1.5296
  654MOL0     H88230   9.954   1.240   7.575  2.7098 -2.4444  0.9089
  654MOL0     H88231  10.132   1.428   7.721  2.9197 -1.6811  1.4007
  654MOL0     H88232  10.028   1.295   7.782 -1.1383  0.2866 -0.3752
  654MOL0     H88233  10.167   1.137   7.650 -0.2641 -0.5891  1.7210
  654MOL0     H88234  10.281   1.264   7.609 -0.1548 -0.8355  0.1607
  654MOL0     H88235  10.316   1.314   7.857  1.4836  0.9043 -1.2083
  654MOL0     H88236  10.198   1.182   7.892  0.9662  3.0089  1.9784
  654MOL0     H88237  10.367   1.038   7.742  0.7190 -1.0653  2.1662
  654MOL0     H88238  10.430   1.081   7.901 -1.2916 -1.4577  0.2387
  654MOL0     H88239  10.603   1.148   7.716  0.0840  1.5768 -0.2851
  654MOL0     H88240  10.478   1.246   7.652  0.2581  0.1659 -1.1530
  654MOL0     H88241  10.718   1.198   7.957 -1.1690 -0.7880 -0.6199
  654MOL0     H88242  10.820   1.548   8.082  1.2012 -0.1949  1.4388
  654MOL0     H88243  10.764   1.415   8.169 -0.3249 -1.0117  0.1291
  654MOL0     H88244  10.906   1.251   8.046 -1.4118 -0.2435 -1.6361
  654MOL0     H88245  10.960   1.374   7.931 -3.5502 -0.3714 -0.5981
  654MOL0     H88246  11.023   1.429   8.216 -1.2081 -0.1221 -1.4849
  654MOL0     H88247  11.092   1.500   8.079 -1.9916  1.3119  0.6266
  654MOL0     H88248  11.182   1.273   7.999 -0.6570 -3.0376  0.2544
  654MOL0     H88249  11.114   1.209   8.149  0.6826 -0.3289 -0.7442
  654MOL0     H88250  11.420   1.340   7.953  1.4683  0.8247 -1.4163
  654MOL0     H88251  11.646   1.227   7.926 -2.0525 -0.2540 -1.8136
  654MOL0     H88252  11.989   0.921   8.033 -1.3943 -1.4333  0.1166
  654MOL0     H88253  12.221   0.808   8.080 -2.7091  0.7856 -2.8329
  654MOL0     H88254  12.540   0.828   8.312  1.5319  0.9575  1.4334
  654MOL0     H88255  12.466   0.933   8.204 -0.5049 -1.5774 -1.0178
  654MOL0     H88256  12.371   1.069   8.389 -0.5533 -0.6497 -1.3137
  654MOL0     H88257  12.474   0.981   8.510  0.3732  4.1840  0.8554
  654MOL0     H88258  12.679   1.022   8.403 -1.3343 -1.4586 -2.2031
  654MOL0     H88259  12.609   1.104   8.274  1.7045  1.5488  0.2676
  654MOL0     H88260  12.607   1.200   8.562  0.1674  3.8103  0.4200
  654MOL0     H88261  12.521   1.276   8.437  1.5297  0.9693 -1.9787
  654MOL0     H88262  12.729   1.393   8.458 -1.7778  0.4312 -1.3884
  654MOL0     H88263  12.772   1.278   8.319  0.1066  2.3567  0.8936
  654MOL0     H88264  12.839   1.211   8.604  0.2742  0.2174  0.5607
  654MOL0     H88265  12.863   1.122   8.461 -1.1894 -0.9121  3.0968
  654MOL0     H88266  13.070   1.222   8.531 -2.0352 -1.5357  0.0865
  654MOL0     H88267  13.015   1.385   8.548  5.8344  0.7185 -1.0730
  654MOL0     H88268  13.014   1.230   8.279  0.6520 -1.0308  0.3865
  654MOL0     H88269  12.960   1.403   8.314 -0.1989 -1.2662  0.8992
  654MOL0     H88270  12.166   0.899   8.494 -1.2837  1.3276  0.5738
  654MOL0     H88271  11.964   0.997   8.458  3.4516  3.4588  0.9031
  654MOL0     H88272  11.614   1.092   8.339 -2.1097  1.4436  1.8087
  654MOL0     H88273  11.395   1.202   8.360  4.5496  0.5225  2.9124
  654MOL0     H88274   9.698   1.544   7.241 -0.0936  1.0132  1.3317
  654MOL0     H88275   9.624   1.762   7.105  0.2915  1.4132  0.7358
  654MOL0     H88276   9.555   2.132   7.202  3.1636 -0.2855  2.5529
  654MOL0     H88277   9.441   2.343   7.252 -1.6353 -2.6091 -1.2701
  654MOL0     H88278   9.392   2.547   7.349 -0.5467 -2.1665 -0.3752
  654MOL0     H88279   9.317   2.519   7.196 -2.1311 -0.7455  2.8006
  654MOL0     H88280   9.341   2.753   7.132 -1.2489  0.8051  0.6519
  654MOL0     H88281   9.433   2.782   7.285  0.3258 -0.9694  1.1341
  654MOL0     H88282   9.199   2.679   7.382 -1.5428 -0.8225 -0.0372
  654MOL0     H88283   9.136   2.753   7.239  0.6386 -1.2203  0.8435
  654MOL0     H88284   9.246   2.897   7.465 -0.0399  0.7619  0.0981
  654MOL0     H88285   9.266   2.975   7.297  0.1943  1.6267  1.3667
  654MOL0     H88286   8.860   3.043   7.410 -0.2741  0.7318 -0.9648
  654MOL0     H88287   9.748   2.573   7.099  0.1047 -0.7019 -2.5774
  654MOL0     H88288   9.988   2.325   7.131  0.1628 -2.6245 -1.8880
  654MOL0     H88289   9.943   2.342   6.958  1.6456  3.3871 -1.4137
  654MOL0     H88290   9.952   2.486   7.065 -0.2873  0.6151  2.6876
  655MOL0     O88291   0.510   5.729   0.668 -0.7206  0.8768  0.1025
  655MOL0     C88292   0.455   5.707   0.772  0.4823 -0.5697  0.4492
  655MOL0     O88293   0.508   5.700   0.899  0.6008  0.3303  0.9221
  655MOL0     C88294   0.633   5.683   0.936 -0.3926  0.3829 -1.3438
  655MOL0     C88295   0.742   5.688   0.848 -0.0228 -0.2297  0.0464
  655MOL0     C88296   0.872   5.694   0.899  0.1880  0.7055 -0.1284
  655MOL0     C88297   0.894   5.698   1.041  0.2501 -0.7552  1.4619
  655MOL0     O88298   1.012   5.710   1.114  0.6022  0.6385  0.0273
  655MOL0     C88299   1.136   5.719   1.042  0.5586  0.1758  0.3805
  655MOL0     C88300   1.247   5.730   1.149  0.0295  0.1322 -0.5463
  655MOL0     C88301   1.387   5.720   1.083 -0.3018 -0.3386 -0.1927
  655MOL0     C88302   1.506   5.702   1.176  0.1728 -1.0414  1.2040
  655MOL0     C88303   1.638   5.674   1.089  0.9914  0.3078  0.6305
  655MOL0     C88304   1.748   5.634   1.192 -0.1355  0.1096  0.6111
  655MOL0     C88305   1.888   5.630   1.123  0.3540  0.0423 -0.4284
  655MOL0     C88306   1.930   5.767   1.092 -0.2498  0.0292  0.9933
  655MOL0     N88307   2.072   5.791   1.112  0.0016 -0.3136  0.7248
  655MOL0     C88308   2.123   5.849   1.226 -0.3588 -1.5047  0.5599
  655MOL0     C88309   2.254   5.851   1.201  0.0199  0.1821  0.3118
  655MOL0     C88310   2.350   5.898   1.303  0.1482 -0.3867  0.3923
  655MOL0     C88311   2.474   5.805   1.323  0.7302  0.1013 -0.5209
  655MOL0     C88312   2.598   5.812   1.227  0.6855  0.7626 -0.1475
  655MOL0     C88313   2.709   5.726   1.288 -0.4732 -0.7617 -0.1875
  655MOL0     O88314   2.818   5.749   1.195 -0.3387 -0.0636  0.2258
  655MOL0     C88315   2.937   5.681   1.220  0.3475 -0.2451  0.9324
  655MOL0     C88316   3.036   5.690   1.133  0.6728 -0.7603  0.2137
  655MOL0     C88317   3.159   5.628   1.136 -0.0106  0.3219  0.2646
  655MOL0     C88318   3.186   5.541   1.236 -0.2584  0.5420 -0.2597
  655MOL0     C88319   3.307   5.460   1.250  0.4945 -1.2087 -0.5068
  655MOL0     O88320   3.418   5.528   1.206 -0.7194 -0.7095  0.3137
  655MOL0     C88321   3.538   5.466   1.231  0.1156 -0.4238  0.0609
  655MOL0     C88322   3.624   5.414   1.132  0.4700 -0.6915  0.0722
  655MOL0     C88323   3.751   5.375   1.160  0.0974 -0.2980 -0.4737
  655MOL0     C88324   3.789   5.367   1.292 -0.1318  0.4231 -0.8773
  655MOL0     O88325   3.913   5.311   1.319  0.2323  0.9511  0.1166
  655MOL0     C88326   4.000   5.367   1.420 -0.3487 -0.4963  0.5984
  655MOL0     C88327   4.023   5.271   1.531 -0.2715  0.7640  0.2157
  655MOL0     C88328   4.121   5.160   1.483 -0.2762  0.3098 -0.2941
  655MOL0     C88329   4.164   5.086   1.612 -0.3325  0.1796 -0.4966
  655MOL0     C88330   4.268   4.970   1.580 -0.4013 -1.0155  0.6961
  655MOL0     C88331   4.265   4.859   1.688  0.3582 -0.0856  0.2119
  655MOL0     C88332   4.354   4.749   1.636 -0.1067 -0.2056 -1.2670
  655MOL0     C88333   4.421   4.669   1.748 -0.8210  0.6321 -0.5408
  655MOL0    Cl88334   4.549   4.565   1.684 -0.0205  0.2004  0.0246
  655MOL0     C88335   3.704   5.418   1.392  0.1243  0.3882  0.3714
  655MOL0     C88336   3.578   5.457   1.368  0.3025 -0.3519 -0.5035
  655MOL0     O88337   3.306   5.367   1.333 -0.5816 -0.2736  0.2281
  655MOL0     C88338   3.081   5.521   1.330 -0.1186 -0.3609 -0.3176
  655MOL0     C88339   2.963   5.594   1.325  0.8511 -0.7773 -0.8775
  655MOL0     N88340   2.286   5.796   1.077  0.9551 -0.4385  0.2592
  655MOL0     N88341   2.174   5.754   1.024  0.9709  0.0764 -1.0478
  655MOL0     C88342   0.787   5.676   1.118 -0.0369  0.1789 -0.0147
  655MOL0     C88343   0.661   5.667   1.071 -0.3058 -0.3749  0.1755
  655MOL0     C88344   0.316   5.681   0.756  0.2170 -0.5794  0.7276
  655MOL0     C88345   0.249   5.639   0.880  0.4689 -0.5700  0.4061
  655MOL0     C88346   0.114   5.605   0.892  0.4950 -0.4322 -0.2721
  655MOL0     C88347   0.041   5.630   0.779 -0.0411 -0.1889  0.0186
  655MOL0     O88348  -0.100   5.629   0.776 -1.5241  0.1993  0.6521
  655MOL0     C88349  -0.168   5.534   0.853 -0.6452 -0.6427  0.3402
  655MOL0     C88350  -0.293   5.493   0.783  0.2373  0.1460  0.1625
  655MOL0     C88351  -0.406   5.593   0.775 -0.4316  0.2010  1.0140
  655MOL0     C88352  -0.382   5.700   0.671  0.4416  0.3161  0.5023
  655MOL0     C88353  -0.494   5.783   0.635  0.0456 -0.2004  0.3608
  655MOL0     C88354  -0.564   5.870   0.600  0.6767 -0.1602 -0.1849
  655MOL0     C88355   0.095   5.687   0.664  0.9165  0.2126 -0.1185
  655MOL0     C88356   0.229   5.707   0.644  0.1324  0.9298  0.6911
  655MOL0     C88357   0.278   5.756   0.510  0.2285 -0.6291 -0.2530
  655MOL0     H88358   0.727   5.689   0.740 -1.3056  0.3880  0.2109
  655MOL0     H88359   0.958   5.694   0.832 -0.6026  0.3136 -1.1765
  655MOL0     H88360   1.153   5.625   0.989  3.4193  1.9138 -2.1128
  655MOL0     H88361   1.132   5.804   0.973  1.6284 -0.1014 -0.0481
  655MOL0     H88362   1.227   5.640   1.208  0.6351 -0.0964 -0.6819
  655MOL0     H88363   1.238   5.821   1.209  1.2745  0.1407 -0.3532
  655MOL0     H88364   1.408   5.814   1.031  2.3064 -0.2063  0.9597
  655MOL0     H88365   1.381   5.636   1.013  1.9158 -0.2584 -0.5320
  655MOL0     H88366   1.511   5.797   1.230 -2.3979  1.2991 -2.2219
  655MOL0     H88367   1.477   5.617   1.237  0.4502 -1.3783  0.8722
  655MOL0     H88368   1.625   5.606   1.004  0.4655  3.9039 -2.4657
  655MOL0     H88369   1.665   5.770   1.044  0.9659  0.1791  0.3381
  655MOL0     H88370   1.750   5.712   1.269  0.6469 -1.0588  1.8140
  655MOL0     H88371   1.717   5.538   1.235 -2.0903  0.4791  0.1293
  655MOL0     H88372   1.888   5.557   1.042  0.1648  0.0661 -0.4504
  655MOL0     H88373   1.958   5.585   1.194  0.6170  0.3708 -0.4757
  655MOL0     H88374   1.913   5.775   0.984  0.9380 -4.3220  0.3126
  655MOL0     H88375   1.873   5.845   1.142 -2.1528  0.5900 -1.8137
  655MOL0     H88376   2.066   5.895   1.307  0.2019  2.5172 -1.0792
  655MOL0     H88377   2.395   5.994   1.276 -1.4229  0.6413  1.2364
  655MOL0     H88378   2.304   5.897   1.402 -1.7987 -1.4744 -0.4735
  655MOL0     H88379   2.505   5.832   1.425  1.0500  0.0571 -0.6051
  655MOL0     H88380   2.437   5.702   1.332 -2.8606  1.2731 -0.3838
  655MOL0     H88381   2.622   5.918   1.210  1.6564  0.4156 -1.0078
  655MOL0     H88382   2.558   5.770   1.134  0.9678 -0.9973  0.4893
  655MOL0     H88383   2.683   5.623   1.311  0.5149 -1.1474 -0.7369
  655MOL0     H88384   2.736   5.771   1.384  0.2263 -1.6645  0.0450
  655MOL0     H88385   3.010   5.762   1.055  0.4831 -2.4856 -1.3762
  655MOL0     H88386   3.230   5.654   1.058 -0.8148  1.6581 -0.0446
  655MOL0     H88387   3.595   5.415   1.027 -0.8949 -1.0469  0.4245
  655MOL0     H88388   3.815   5.354   1.075  0.6212  0.0837 -0.1814
  655MOL0     H88389   4.094   5.397   1.374  0.5763 -3.7694  0.1271
  655MOL0     H88390   3.956   5.460   1.458 -2.5466 -0.5822 -1.4748
  655MOL0     H88391   4.077   5.339   1.599 -0.1068 -1.3869  2.3992
  655MOL0     H88392   3.928   5.234   1.569 -1.6121  4.9315  1.4584
  655MOL0     H88393   4.080   5.086   1.415 -1.3780  1.7645 -1.2687
  655MOL0     H88394   4.207   5.214   1.444  0.6297 -0.1688  0.9726
  655MOL0     H88395   4.073   5.052   1.662 -0.9577  1.8406 -0.4487
  655MOL0     H88396   4.217   5.154   1.679 -0.4206 -0.5883  0.3836
  655MOL0     H88397   4.363   5.018   1.554 -1.5288  0.3753 -1.1661
  655MOL0     H88398   4.229   4.923   1.489  0.8978  0.2859 -0.5956
  655MOL0     H88399   4.307   4.900   1.781 -0.5249  0.6182  0.3151
  655MOL0     H88400   4.161   4.833   1.708 -0.0308 -0.6404 -2.2925
  655MOL0     H88401   4.437   4.793   1.580  1.1191 -0.8885 -0.0470
  655MOL0     H88402   4.299   4.679   1.573  1.5428 -2.7993  0.0381
  655MOL0     H88403   4.455   4.735   1.829 -1.2577 -0.4384  0.5408
  655MOL0     H88404   4.356   4.606   1.809  1.3077 -0.2155  0.9518
  655MOL0     H88405   3.730   5.431   1.497  0.0909  4.3451  0.0027
  655MOL0     H88406   3.525   5.493   1.456  1.1193 -0.8925  0.2185
  655MOL0     H88407   3.087   5.453   1.414 -0.1544 -1.2625 -1.0271
  655MOL0     H88408   2.887   5.575   1.400  0.8180  1.7130 -0.2055
  655MOL0     H88409   0.792   5.675   1.227 -0.7438 -0.7058  0.0169
  655MOL0     H88410   0.586   5.664   1.149 -0.9786 -1.0781 -0.4714
  655MOL0     H88411   0.310   5.625   0.969 -0.6780  1.0462  1.5080
  655MOL0     H88412   0.077   5.553   0.980  0.3445 -3.3918 -1.9430
  655MOL0     H88413  -0.211   5.563   0.950 -0.1195 -1.8233  0.9483
  655MOL0     H88414  -0.108   5.443   0.858 -0.8638 -1.1434 -3.3780
  655MOL0     H88415  -0.333   5.409   0.841 -3.1003  0.7296 -1.0508
  655MOL0     H88416  -0.273   5.454   0.682  0.3834  0.5348  0.0403
  655MOL0     H88417  -0.421   5.635   0.875 -2.7681  1.1017  0.3779
  655MOL0     H88418  -0.496   5.540   0.742 -0.0535 -0.8653  1.6849
  655MOL0     H88419  -0.294   5.759   0.697  1.3940 -0.3595 -1.0216
  655MOL0     H88420  -0.366   5.649   0.575 -1.5703 -2.1925  1.3768
  655MOL0     H88421  -0.625   5.956   0.584  0.3823 -0.4759 -0.7637
  655MOL0     H88422   0.035   5.708   0.576  1.1169  0.4376 -0.2047
  655MOL0     H88423   0.333   5.850   0.523  0.1335 -0.3764 -1.6157
  655MOL0     H88424   0.347   5.682   0.468  1.3726 -0.1200  0.6654
  655MOL0     H88425   0.197   5.771   0.438  0.1221  2.0174  0.3096
  656MOL0     O88426   5.493   4.048   2.235  0.0692 -0.4041 -0.4467
  656MOL0     C88427   5.456   4.151   2.171  0.1517 -0.7515  0.8086
  656MOL0     O88428   5.546   4.257   2.133  0.3032  0.5362  0.0441
  656MOL0     C88429   5.676   4.219   2.127 -0.0706  0.2724  0.7480
  656MOL0     C88430   5.732   4.152   2.013 -0.7056  0.4224 -0.5185
  656MOL0     C88431   5.878   4.135   2.015 -0.1535  1.4391 -0.0520
  656MOL0     C88432   5.957   4.180   2.119  0.5189 -1.3776 -0.3595
  656MOL0     O88433   6.088   4.152   2.115  0.0631  0.1469  0.4536
  656MOL0     C88434   6.173   4.183   2.233 -0.0209  0.3118 -0.1142
  656MOL0     C88435   6.316   4.135   2.212  0.1404 -0.5724  0.1505
  656MOL0     C88436   6.385   4.146   2.347 -0.2837  0.2915 -0.3971
  656MOL0     C88437   6.533   4.156   2.320  0.1793 -0.2120  0.2765
  656MOL0     C88438   6.568   4.312   2.314  0.4791 -0.4117  0.4880
  656MOL0     C88439   6.703   4.353   2.257  0.6346  0.8776  0.7647
  656MOL0     C88440   6.811   4.324   2.366 -0.2989  0.3215 -0.3314
  656MOL0     C88441   6.878   4.447   2.418 -0.1178 -0.5236 -0.0548
  656MOL0     N88442   6.956   4.523   2.327 -0.0152 -0.1061 -0.1566
  656MOL0     C88443   6.954   4.534   2.194  0.4990  0.7745  0.7059
  656MOL0     C88444   7.020   4.645   2.157 -0.1444  0.5941  0.1494
  656MOL0     C88445   7.047   4.695   2.019 -0.6201  0.6651  0.2194
  656MOL0     C88446   7.150   4.611   1.955 -0.1339  0.2975  0.4836
  656MOL0     C88447   7.176   4.647   1.807  0.1626 -0.7551  0.6337
  656MOL0     C88448   7.215   4.797   1.796  0.0868 -0.4872  0.5195
  656MOL0     O88449   7.289   4.825   1.675 -0.2906  0.1882  0.5098
  656MOL0     C88450   7.419   4.794   1.659 -0.7777  0.6470  0.3263
  656MOL0     C88451   7.503   4.720   1.753  1.0053 -0.4201  0.4945
  656MOL0     C88452   7.638   4.693   1.718 -0.0481 -0.7986 -0.4561
  656MOL0     C88453   7.686   4.732   1.587  0.4134  0.8914 -0.0864
  656MOL0     C88454   7.832   4.714   1.569  0.3207  0.5113  0.9014
  656MOL0     O88455   7.889   4.795   1.480 -0.4296  0.4796  1.1974
  656MOL0     C88456   8.029   4.796   1.465  0.9366  0.4734  1.3634
  656MOL0     C88457   8.107   4.846   1.564 -0.3077  1.0494  0.4285
  656MOL0     C88458   8.243   4.839   1.562  0.4067  0.3213 -1.5765
  656MOL0     C88459   8.314   4.773   1.461  0.2413 -0.9121 -0.2429
  656MOL0     O88460   8.454   4.777   1.452  0.8767 -0.0527  0.4287
  656MOL0     C88461   8.514   4.727   1.334 -0.0956  0.8747  0.1598
  656MOL0     C88462   8.656   4.773   1.334  0.3061  0.2357 -0.3693
  656MOL0     C88463   8.749   4.686   1.423  0.1535 -0.1776 -0.2163
  656MOL0     C88464   8.877   4.763   1.455 -0.1130 -0.3962  0.8637
  656MOL0     C88465   8.964   4.691   1.554 -0.2806 -0.5460 -0.1094
  656MOL0     C88466   9.001   4.548   1.510  0.4172  0.6000  0.3864
  656MOL0     C88467   9.121   4.501   1.592  0.5110  1.4695 -0.3153
  656MOL0     C88468   9.139   4.346   1.582 -0.0039  0.4110  0.1576
  656MOL0    Cl88469   9.260   4.269   1.697 -0.0167  0.1786  0.0020
  656MOL0     C88470   8.228   4.708   1.365  0.1510 -0.3684  0.9633
  656MOL0     C88471   8.089   4.723   1.361  0.0966 -0.1998  0.1652
  656MOL0     O88472   7.886   4.624   1.627  1.0219 -0.2894 -0.0203
  656MOL0     C88473   7.601   4.799   1.494  0.9632  0.4404  0.2451
  656MOL0     C88474   7.473   4.835   1.538 -0.2289  0.2116 -0.3618
  656MOL0     N88475   7.076   4.694   2.266 -0.0314  0.1523 -0.6242
  656MOL0     N88476   7.046   4.615   2.372 -0.3189 -0.4224 -0.5163
  656MOL0     C88477   5.894   4.235   2.227  0.3479  0.8299 -0.7265
  656MOL0     C88478   5.760   4.255   2.230  0.0364 -0.9580  0.0692
  656MOL0     C88479   5.314   4.163   2.128  0.2008 -0.0892 -0.3599
  656MOL0     C88480   5.275   4.263   2.044  0.1210  1.0790 -0.1144
  656MOL0     C88481   5.143   4.265   1.988 -1.2253 -0.5583 -0.9907
  656MOL0     C88482   5.055   4.161   2.015  0.1788 -0.5644 -0.5331
  656MOL0     O88483   4.926   4.147   1.963  0.3694 -1.0385 -0.7546
  656MOL0     C88484   4.901   4.211   1.834  0.4533 -0.1431  0.6851
  656MOL0     C88485   4.764   4.184   1.774  0.4587  0.7972  0.0297
  656MOL0     C88486   4.638   4.254   1.843 -0.6279  0.3427 -0.4985
  656MOL0     C88487   4.518   4.172   1.803 -0.4605  0.4067  0.0168
  656MOL0     C88488   4.388   4.241   1.817 -0.0811  0.0470  0.1994
  656MOL0     C88489   4.284   4.294   1.850 -0.1803 -0.0098 -0.0054
  656MOL0     C88490   5.089   4.067   2.096 -0.3104  0.2960 -0.5761
  656MOL0     C88491   5.218   4.069   2.157  0.3097  0.8454  0.0410
  656MOL0     C88492   5.232   3.959   2.258  0.2928  0.0188 -0.2947
  656MOL0     H88493   5.672   4.118   1.928  0.6228 -2.3908 -0.4537
  656MOL0     H88494   5.920   4.083   1.930 -4.2564  0.3321 -1.6338
  656MOL0     H88495   6.175   4.291   2.254  0.5513  0.8793 -2.7476
  656MOL0     H88496   6.140   4.129   2.322  0.1386  0.4606  0.0364
  656MOL0     H88497   6.361   4.194   2.131 -0.0793  1.2142  1.2696
  656MOL0     H88498   6.318   4.032   2.177 -0.7115 -0.1989 -1.0727
  656MOL0     H88499   6.346   4.064   2.407 -0.2551  0.9570  0.5486
  656MOL0     H88500   6.346   4.228   2.409  0.7562 -1.4420  2.7553
  656MOL0     H88501   6.582   4.102   2.401  1.1448 -3.2625 -2.1522
  656MOL0     H88502   6.557   4.107   2.225 -1.4322  0.9792 -0.8107
  656MOL0     H88503   6.488   4.371   2.268  0.4385  0.3822  1.5353
  656MOL0     H88504   6.569   4.352   2.416  1.5176 -0.2056  0.4117
  656MOL0     H88505   6.728   4.305   2.162  2.4700  2.4396  0.3941
  656MOL0     H88506   6.713   4.456   2.222 -0.7068  1.0104  0.7286
  656MOL0     H88507   6.889   4.267   2.314  1.8633  0.0069  2.9661
  656MOL0     H88508   6.769   4.253   2.437 -0.7006  1.6831  0.8519
  656MOL0     H88509   6.791   4.505   2.450 -1.6632 -2.7819  0.0635
  656MOL0     H88510   6.944   4.420   2.501  1.2483  0.4894 -0.7746
  656MOL0     H88511   6.903   4.470   2.122 -1.8691  0.2060  2.7353
  656MOL0     H88512   6.954   4.669   1.967 -1.0914  0.1981  1.2682
  656MOL0     H88513   7.079   4.799   2.013 -2.2882  1.1721 -0.6708
  656MOL0     H88514   7.244   4.623   2.010 -1.0720  1.2627  1.9465
  656MOL0     H88515   7.130   4.504   1.951 -0.4246  0.3609  0.0036
  656MOL0     H88516   7.089   4.626   1.744 -0.3595  3.0491 -0.2143
  656MOL0     H88517   7.257   4.579   1.777 -0.7553 -1.3745 -0.5275
  656MOL0     H88518   7.280   4.819   1.881  1.1385 -0.1813 -0.3377
  656MOL0     H88519   7.125   4.858   1.807 -0.1482 -0.4105 -1.4100
  656MOL0     H88520   7.471   4.683   1.850  3.8328 -3.0887  0.5541
  656MOL0     H88521   7.702   4.659   1.800  0.4524  0.8775 -0.1141
  656MOL0     H88522   8.058   4.910   1.637 -1.1713  1.8514 -0.8140
  656MOL0     H88523   8.290   4.891   1.646 -3.3570  0.0345  0.9467
  656MOL0     H88524   8.509   4.618   1.328  0.7988  0.6938  1.9990
  656MOL0     H88525   8.465   4.770   1.247 -0.5100  1.0850  0.4918
  656MOL0     H88526   8.696   4.786   1.233 -0.6230  1.2309 -0.6259
  656MOL0     H88527   8.665   4.877   1.367 -1.5077  0.7754 -1.4538
  656MOL0     H88528   8.702   4.662   1.519 -0.4952 -0.3471 -0.5724
  656MOL0     H88529   8.777   4.590   1.379  2.0995  0.6587 -0.9282
  656MOL0     H88530   8.865   4.868   1.483  5.0430  1.6873 -3.0166
  656MOL0     H88531   8.937   4.775   1.364 -0.4110 -0.4039  0.6656
  656MOL0     H88532   8.920   4.682   1.654  0.3851 -0.2951  0.2121
  656MOL0     H88533   9.048   4.758   1.575 -2.3393  1.6639  1.7227
  656MOL0     H88534   8.922   4.473   1.518  0.6951  0.0848 -1.2959
  656MOL0     H88535   9.035   4.556   1.407  0.9934  2.6849  0.6885
  656MOL0     H88536   9.117   4.538   1.695 -1.0623 -2.2439  1.1390
  656MOL0     H88537   9.210   4.546   1.549  0.5264  1.1651 -0.6087
  656MOL0     H88538   9.042   4.295   1.581  0.2558 -0.1308 -1.6360
  656MOL0     H88539   9.170   4.324   1.479 -3.4893  0.0028 -0.9571
  656MOL0     H88540   8.270   4.650   1.284  0.1842  0.1962  0.5689
  656MOL0     H88541   8.040   4.664   1.284  4.2197 -2.4823 -1.0176
  656MOL0     H88542   7.635   4.829   1.396 -2.3253  0.6826 -0.9601
  656MOL0     H88543   7.399   4.873   1.469  0.2350  2.4509  0.2658
  656MOL0     H88544   5.955   4.258   2.314  1.7686  1.2243 -1.7770
  656MOL0     H88545   5.718   4.293   2.323  1.9004 -2.4660  1.6039
  656MOL0     H88546   5.333   4.346   2.005 -1.3599  1.8117 -0.8318
  656MOL0     H88547   5.124   4.347   1.919 -2.0303  0.7571  0.7332
  656MOL0     H88548   4.979   4.181   1.763  1.5445 -0.6135  2.0415
  656MOL0     H88549   4.920   4.317   1.849  4.6571  0.0356 -3.5150
  656MOL0     H88550   4.736   4.078   1.777 -3.9457  1.7980  1.0162
  656MOL0     H88551   4.763   4.227   1.674 -0.6465 -0.4793 -0.5485
  656MOL0     H88552   4.632   4.360   1.815  0.3598  1.0799  1.8406
  656MOL0     H88553   4.646   4.255   1.952 -2.6754 -2.9273 -0.1898
  656MOL0     H88554   4.541   4.140   1.701 -0.9997  1.7201 -0.5378
  656MOL0     H88555   4.521   4.079   1.860 -1.0019 -1.4819 -2.8403
  656MOL0     H88556   4.196   4.340   1.891  0.8624  3.4810 -1.3737
  656MOL0     H88557   5.016   3.989   2.115 -1.7615  2.1089  1.7530
  656MOL0     H88558   5.269   4.005   2.350 -1.4165  0.2393  0.3105
  656MOL0     H88559   5.140   3.906   2.281 -1.3755  1.4086 -3.1696
  656MOL0     H88560   5.299   3.879   2.225 -2.5098 -3.2044  1.1718
  657MOL0     O88561   5.482   9.111   6.536  0.4045  0.2890 -0.2896
  657MOL0     C88562   5.469   9.004   6.474  0.6648 -0.4170  0.1054
  657MOL0     O88563   5.577   8.916   6.431  0.5204  0.2239  0.3597
  657MOL0     C88564   5.707   8.947   6.466 -0.3356  0.4375 -1.1735
  657MOL0     C88565   5.792   8.838   6.496 -0.0849 -0.1548 -0.6376
  657MOL0     C88566   5.921   8.854   6.543  0.5801 -0.8424 -0.0803
  657MOL0     C88567   5.973   8.989   6.564  0.4950  0.2048 -0.4431
  657MOL0     O88568   6.098   9.023   6.609  0.2596 -0.2455  0.0136
  657MOL0     C88569   6.171   8.914   6.652 -0.0777  0.6413 -0.4372
  657MOL0     C88570   6.320   8.963   6.679 -0.3965 -0.0858 -0.1441
  657MOL0     C88571   6.346   9.058   6.794  0.1662  0.0781  0.3949
  657MOL0     C88572   6.495   9.069   6.819  0.8615 -0.4812 -0.0620
  657MOL0     C88573   6.524   9.178   6.921 -0.9268  0.4042 -0.2330
  657MOL0     C88574   6.680   9.163   6.938  0.4147  0.2932  0.1324
  657MOL0     C88575   6.729   9.259   7.053 -0.5943 -1.0554 -0.1301
  657MOL0     C88576   6.856   9.324   7.011 -0.1222 -0.5483 -0.2387
  657MOL0     N88577   6.966   9.232   7.010 -0.2636  0.2358 -0.1487
  657MOL0     C88578   7.025   9.198   6.889  0.8094 -0.4368 -0.7569
  657MOL0     C88579   7.160   9.194   6.915  0.3166  0.4010 -0.4788
  657MOL0     C88580   7.264   9.168   6.809 -0.0370  0.0188  0.4239
  657MOL0     C88581   7.369   9.281   6.838  0.3046 -0.1178  0.7045
  657MOL0     C88582   7.491   9.248   6.745 -0.4525  0.2803 -0.2862
  657MOL0     C88583   7.571   9.364   6.710 -0.4792 -0.0012  0.5959
  657MOL0     O88584   7.658   9.398   6.820 -0.2688 -0.8580 -0.1720
  657MOL0     C88585   7.740   9.505   6.795  0.1486  0.1944 -0.4432
  657MOL0     C88586   7.725   9.602   6.690  0.2890  0.0294 -0.5848
  657MOL0     C88587   7.828   9.698   6.671  0.1504  0.4270  0.3508
  657MOL0     C88588   7.944   9.705   6.762  0.4156 -0.6592 -0.2456
  657MOL0     C88589   8.047   9.811   6.761 -0.8838  0.4085  0.4893
  657MOL0     O88590   8.148   9.804   6.860 -0.5962  0.0053 -0.1891
  657MOL0     C88591   8.273   9.873   6.836  0.7770  0.5925 -0.6733
  657MOL0     C88592   8.332   9.869   6.707  0.2179  0.3070 -0.7246
  657MOL0     C88593   8.461   9.924   6.686  0.3256 -0.2575  0.5184
  657MOL0     C88594   8.531   9.993   6.785  0.0042  0.2700  0.2722
  657MOL0     O88595   8.640  10.066   6.764 -0.8823  0.1947  0.2571
  657MOL0     C88596   8.656  10.118   6.635 -0.0958 -0.1697  0.1197
  657MOL0     C88597   8.764  10.026   6.562  0.4779 -0.7985 -0.5018
  657MOL0     C88598   8.834  10.116   6.461 -0.6540  0.8669  0.3232
  657MOL0     C88599   8.934  10.044   6.372  0.0602  0.8872 -0.4435
  657MOL0     C88600   9.012  10.139   6.284  0.2531  0.1493 -0.5316
  657MOL0     C88601   9.116  10.069   6.196  0.3197  1.3996 -0.8480
  657MOL0     C88602   9.199  10.161   6.111  0.5245 -0.6096  0.4438
  657MOL0     C88603   9.310  10.085   6.020  0.6831 -0.0156 -0.0468
  657MOL0    Cl88604   9.438  10.005   6.099  0.3161  0.1853 -0.1104
  657MOL0     C88605   8.472   9.985   6.918  0.7222 -0.8087  0.8705
  657MOL0     C88606   8.345   9.929   6.943  0.5377 -0.5920 -0.2135
  657MOL0     O88607   8.049   9.890   6.663  0.3762  0.5450 -0.3702
  657MOL0     C88608   7.945   9.612   6.863 -0.3321 -0.6186  0.2359
  657MOL0     C88609   7.848   9.516   6.874 -0.1689 -0.5204  0.6455
  657MOL0     N88610   7.172   9.223   7.056  0.8272 -0.3749  0.3328
  657MOL0     N88611   7.061   9.240   7.106  0.5493  0.2861 -0.5591
  657MOL0     C88612   5.897   9.093   6.525 -0.0704  0.0560  0.5286
  657MOL0     C88613   5.770   9.072   6.465  0.2020  0.1236 -0.6751
  657MOL0     C88614   5.330   8.946   6.463  1.1575 -0.5915  0.1092
  657MOL0     C88615   5.294   8.863   6.355  0.3472  1.0441  0.8881
  657MOL0     C88616   5.164   8.819   6.328  0.8013  0.5608 -0.2000
  657MOL0     C88617   5.063   8.848   6.413  0.0247 -0.3180 -0.2636
  657MOL0     O88618   4.940   8.797   6.375  0.3664  0.6729  0.1346
  657MOL0     C88619   4.823   8.841   6.441  1.0407  0.9546 -0.0704
  657MOL0     C88620   4.699   8.778   6.375  0.7147  0.6818  0.3611
  657MOL0     C88621   4.576   8.809   6.464 -0.9378  0.1968  0.3287
  657MOL0     C88622   4.476   8.697   6.451 -0.0270  0.2468 -0.4374
  657MOL0     C88623   4.459   8.657   6.309 -0.9976  0.2892 -0.1940
  657MOL0     C88624   4.450   8.623   6.196 -0.1294  0.8877  0.2636
  657MOL0     C88625   5.091   8.929   6.527 -0.3038  0.4749  0.2166
  657MOL0     C88626   5.218   8.972   6.545  0.3173  0.1357 -0.7946
  657MOL0     C88627   5.240   9.048   6.681 -0.5214  0.4888 -0.4268
  657MOL0     H88628   5.753   8.737   6.490 -0.2160 -0.1256 -0.3030
  657MOL0     H88629   5.978   8.762   6.549  0.2105 -1.4988 -4.0759
  657MOL0     H88630   6.134   8.877   6.748 -0.3865  2.4491  0.1666
  657MOL0     H88631   6.174   8.832   6.580  2.1554 -0.7874  1.1336
  657MOL0     H88632   6.361   9.002   6.585 -1.4583  1.6308  0.0778
  657MOL0     H88633   6.379   8.872   6.698 -2.1910 -0.8613  2.1838
  657MOL0     H88634   6.299   9.013   6.882 -2.0838 -0.7132 -1.1276
  657MOL0     H88635   6.310   9.158   6.770  1.4732  0.6074  0.5192
  657MOL0     H88636   6.541   8.976   6.852 -1.9086 -1.7489  0.5059
  657MOL0     H88637   6.547   9.096   6.726 -0.7949 -1.9416 -1.4868
  657MOL0     H88638   6.500   9.275   6.878  0.0703  1.2609  1.0763
  657MOL0     H88639   6.462   9.165   7.010 -1.9788 -0.5626 -1.0800
  657MOL0     H88640   6.696   9.062   6.978 -1.7462 -0.0058  0.3478
  657MOL0     H88641   6.727   9.169   6.839 -1.0770 -1.7920 -0.7808
  657MOL0     H88642   6.745   9.206   7.147  4.3108  2.3465  1.3694
  657MOL0     H88643   6.657   9.339   7.073 -1.2806 -1.4387 -0.9581
  657MOL0     H88644   6.841   9.373   6.914 -0.3270 -3.0666 -1.5514
  657MOL0     H88645   6.888   9.408   7.073 -0.3278  1.0149 -2.1570
  657MOL0     H88646   6.972   9.183   6.795 -0.5749  0.9478 -0.2387
  657MOL0     H88647   7.314   9.072   6.825  0.6973  0.5137  1.2016
  657MOL0     H88648   7.215   9.168   6.712 -1.2698  0.4350  1.0269
  657MOL0     H88649   7.333   9.382   6.814 -1.4135 -0.5103  1.4780
  657MOL0     H88650   7.402   9.272   6.942 -0.8814 -2.9924  0.9227
  657MOL0     H88651   7.465   9.201   6.650 -0.3181  0.0319 -0.2025
  657MOL0     H88652   7.550   9.177   6.804  2.3034  2.1156 -0.6170
  657MOL0     H88653   7.506   9.439   6.664 -0.9793  0.9436  2.7220
  657MOL0     H88654   7.644   9.325   6.638 -0.0846  0.7331  0.5891
  657MOL0     H88655   7.632   9.610   6.633  1.3430  1.8050 -2.1795
  657MOL0     H88656   7.818   9.767   6.587  2.3959 -1.5590 -1.6987
  657MOL0     H88657   8.278   9.818   6.629 -1.8091  1.0474  0.1176
  657MOL0     H88658   8.504   9.928   6.586  1.3213 -0.2508  0.9372
  657MOL0     H88659   8.570  10.125   6.567 -0.3071 -0.9489  0.2924
  657MOL0     H88660   8.695  10.219   6.650 -3.1205  1.3336 -1.2836
  657MOL0     H88661   8.834   9.980   6.633 -0.8523  1.7098  2.6658
  657MOL0     H88662   8.700   9.955   6.508 -1.8619  1.2793 -0.6274
  657MOL0     H88663   8.753  10.158   6.400 -2.5199 -3.1966 -0.3988
  657MOL0     H88664   8.892  10.191   6.514  1.9434 -0.9283  0.2110
  657MOL0     H88665   8.886   9.964   6.315  0.8375  1.5663 -2.1125
  657MOL0     H88666   8.997   9.998   6.449 -2.8849 -1.3749  0.8247
  657MOL0     H88667   9.058  10.217   6.346 -0.0043 -2.2909  3.0726
  657MOL0     H88668   8.938  10.179   6.214  0.0621  0.3159 -0.2381
  657MOL0     H88669   9.177  10.010   6.266  0.9211  2.9306 -0.0333
  657MOL0     H88670   9.064   9.996   6.134  1.9387  0.5719 -1.2829
  657MOL0     H88671   9.255  10.236   6.169 -0.4118 -0.0623  0.6552
  657MOL0     H88672   9.137  10.206   6.033  1.3933 -0.2237 -0.0496
  657MOL0     H88673   9.264  10.013   5.952  0.4620  0.3371 -0.2684
  657MOL0     H88674   9.357  10.153   5.949 -1.6033  1.7341  0.0164
  657MOL0     H88675   8.530  10.022   7.002 -0.7751  1.2358  1.0711
  657MOL0     H88676   8.308   9.920   7.045  1.2725 -2.1545 -0.0547
  657MOL0     H88677   8.028   9.607   6.934  1.6011  0.2445 -1.8493
  657MOL0     H88678   7.860   9.454   6.963 -1.8629  0.6615  1.7602
  657MOL0     H88679   5.937   9.193   6.540 -1.5160  1.2099 -2.5557
  657MOL0     H88680   5.719   9.161   6.431  1.8083  1.4682  0.2880
  657MOL0     H88681   5.375   8.829   6.291  0.4258  1.1912  0.9103
  657MOL0     H88682   5.135   8.748   6.252 -1.6049  1.5316 -0.2986
  657MOL0     H88683   4.818   8.950   6.440  2.3949  1.0363 -0.8304
  657MOL0     H88684   4.834   8.813   6.546 -0.8457 -2.2316 -0.5753
  657MOL0     H88685   4.714   8.670   6.371  0.9317  0.7282 -3.7770
  657MOL0     H88686   4.685   8.817   6.274  1.9067  0.7407  0.2051
  657MOL0     H88687   4.532   8.902   6.428 -1.1577  0.0527  0.2247
  657MOL0     H88688   4.614   8.821   6.566  1.5053  0.4984 -0.5582
  657MOL0     H88689   4.509   8.605   6.500  0.1751  1.2931  1.4614
  657MOL0     H88690   4.387   8.732   6.503 -0.1741 -1.1340  0.2756
  657MOL0     H88691   4.452   8.588   6.095  0.9616 -1.4578  1.0298
  657MOL0     H88692   5.003   8.948   6.589 -0.9504  0.6339 -0.7189
  657MOL0     H88693   5.255   9.157   6.678 -3.1552  1.0115  1.2914
  657MOL0     H88694   5.160   9.023   6.751  0.0306 -0.6718 -0.1980
  657MOL0     H88695   5.330   9.008   6.728  0.9923  0.0753 -3.4234
  658MOL0     O88696   3.121   7.122   1.507 -0.3356 -0.2622 -0.6074
  658MOL0     C88697   3.039   7.115   1.601 -0.6641 -0.2348  0.3894
  658MOL0     O88698   3.072   7.142   1.735 -0.4293  0.1265  0.4763
  658MOL0     C88699   3.201   7.139   1.780  0.0225 -0.6082 -0.5765
  658MOL0     C88700   3.256   7.266   1.804 -0.0065 -0.4171 -0.2519
  658MOL0     C88701   3.392   7.284   1.851 -0.4999  0.2628 -0.0632
  658MOL0     C88702   3.464   7.173   1.891 -0.4767  1.0126 -0.7647
  658MOL0     O88703   3.595   7.202   1.938 -0.9537 -0.3753  0.0363
  658MOL0     C88704   3.675   7.097   1.981  0.9212  0.0789  0.6641
  658MOL0     C88705   3.804   7.158   2.029 -0.1123 -0.3860  0.1869
  658MOL0     C88706   3.911   7.054   2.062  0.1984 -0.8953  0.1995
  658MOL0     C88707   4.058   7.118   2.054 -0.7993 -0.0977 -0.0674
  658MOL0     C88708   4.162   7.009   2.089 -0.1835  0.9301 -0.6533
  658MOL0     C88709   4.296   7.080   2.127 -0.8284 -0.0720  0.3230
  658MOL0     C88710   4.418   6.974   2.145  0.1794 -0.0435  0.3561
  658MOL0     C88711   4.409   6.859   2.042  0.4449 -0.0898 -0.9856
  658MOL0     N88712   4.530   6.779   2.051  0.5712  0.6723  0.5370
  658MOL0     C88713   4.545   6.644   2.099 -0.4172  0.2573  0.3931
  658MOL0     C88714   4.673   6.613   2.100 -0.4327  0.2730  0.4667
  658MOL0     C88715   4.729   6.479   2.147 -0.4477  0.3181 -0.0058
  658MOL0     C88716   4.739   6.467   2.303 -0.3936 -0.0142 -0.3211
  658MOL0     C88717   4.767   6.603   2.365  0.1448 -0.2306  0.4242
  658MOL0     C88718   4.904   6.651   2.328 -0.4500 -0.9265  0.0224
  658MOL0     O88719   5.012   6.560   2.364  0.7679  0.0379  0.3159
  658MOL0     C88720   5.122   6.553   2.282  0.4282  1.2087  0.0055
  658MOL0     C88721   5.164   6.657   2.201 -0.3918  0.2779  0.7786
  658MOL0     C88722   5.286   6.635   2.130  0.8021  0.8959  0.0108
  658MOL0     C88723   5.359   6.508   2.140  0.9794  0.2152 -0.6848
  658MOL0     C88724   5.476   6.486   2.052  0.0075  0.0218 -0.3615
  658MOL0     O88725   5.511   6.579   1.960  0.1554  0.1409  0.2476
  658MOL0     C88726   5.580   6.536   1.847  0.3934  0.4451 -0.0993
  658MOL0     C88727   5.708   6.499   1.851  0.6700 -0.6880 -0.5426
  658MOL0     C88728   5.757   6.427   1.738  0.4474  0.1721  0.1229
  658MOL0     C88729   5.684   6.418   1.614 -0.4201 -0.0196  0.3942
  658MOL0     O88730   5.738   6.371   1.495 -0.2232  0.8670 -0.0861
  658MOL0     C88731   5.880   6.368   1.472  0.3606 -0.0894  0.1050
  658MOL0     C88732   5.906   6.439   1.346 -0.7258  0.4798 -0.3631
  658MOL0     C88733   6.059   6.444   1.310  0.4088  0.3272  0.8632
  658MOL0     C88734   6.105   6.499   1.174 -0.3006 -0.0121  0.0203
  658MOL0     C88735   6.259   6.498   1.160 -0.2266 -0.0992 -0.1843
  658MOL0     C88736   6.295   6.531   1.013 -0.2918  0.2789  0.0958
  658MOL0     C88737   6.444   6.531   1.005 -0.3546 -0.4125  0.7296
  658MOL0     C88738   6.471   6.569   0.857 -0.5604 -0.2109  0.4434
  658MOL0    Cl88739   6.422   6.446   0.748  0.1025  0.0242 -0.2977
  658MOL0     C88740   5.551   6.474   1.610  0.0594  0.6042  0.2130
  658MOL0     C88741   5.501   6.526   1.730 -0.2593 -0.0592  0.7047
  658MOL0     O88742   5.516   6.370   2.059 -0.4466 -0.6161 -0.1531
  658MOL0     C88743   5.299   6.404   2.217 -1.4139 -0.1861  0.6056
  658MOL0     C88744   5.190   6.436   2.294  0.4573 -0.4370 -0.2214
  658MOL0     N88745   4.742   6.715   2.044  0.1566  0.5284 -0.1085
  658MOL0     N88746   4.658   6.817   2.008 -0.0556  0.0200  0.2841
  658MOL0     C88747   3.415   7.041   1.858  0.3802 -0.0950  0.8640
  658MOL0     C88748   3.280   7.028   1.808 -0.2685 -0.4228  0.1150
  658MOL0     C88749   2.897   7.098   1.574  1.0057 -0.1443  0.5299
  658MOL0     C88750   2.808   7.176   1.640 -0.3518 -0.2471  0.1796
  658MOL0     C88751   2.675   7.152   1.624 -0.2133  0.6574 -0.3929
  658MOL0     C88752   2.629   7.058   1.529 -0.6875  0.1186 -1.0804
  658MOL0     O88753   2.490   7.063   1.504  0.2583  0.2159  0.6545
  658MOL0     C88754   2.439   6.944   1.445  0.4038 -0.1213 -0.3834
  658MOL0     C88755   2.432   6.832   1.549  0.2146 -1.0101 -0.3979
  658MOL0     C88756   2.311   6.840   1.646 -0.3769 -0.2626 -0.3405
  658MOL0     C88757   2.301   6.711   1.727  0.2357 -0.2048 -0.5643
  658MOL0     C88758   2.173   6.723   1.806 -0.5994 -0.8269  0.0463
  658MOL0     C88759   2.087   6.738   1.882 -0.4685 -1.0211 -0.3255
  658MOL0     C88760   2.721   6.982   1.450  0.1918 -0.2850 -0.1646
  658MOL0     C88761   2.856   7.013   1.467  0.7291  0.1538 -0.0778
  658MOL0     C88762   2.954   6.919   1.385  0.1458 -0.8609 -0.3794
  658MOL0     H88763   3.199   7.353   1.774 -0.0840 -0.8241 -1.3308
  658MOL0     H88764   3.429   7.386   1.862  2.5253 -0.6087 -1.2662
  658MOL0     H88765   3.630   7.047   2.066  0.4530  1.6514  1.3859
  658MOL0     H88766   3.692   7.025   1.901  2.0916  2.3948 -1.3271
  658MOL0     H88767   3.783   7.215   2.120 -0.3016 -0.6211  0.2923
  658MOL0     H88768   3.839   7.231   1.955 -1.6180  2.2279  1.8979
  658MOL0     H88769   3.910   6.969   1.994  0.7669 -1.4425  0.8525
  658MOL0     H88770   3.886   7.021   2.163 -1.2273  0.5812  0.3698
  658MOL0     H88771   4.080   7.160   1.956  1.6016  1.9727  1.2267
  658MOL0     H88772   4.059   7.206   2.120 -0.1505  0.8481 -1.2912
  658MOL0     H88773   4.129   6.943   2.169 -0.6895 -2.7372 -3.5974
  658MOL0     H88774   4.176   6.940   2.005  0.4470 -0.1875  0.3461
  658MOL0     H88775   4.325   7.149   2.047  0.8420 -0.2353  0.7470
  658MOL0     H88776   4.289   7.145   2.215  4.0087  2.9015 -1.1235
  658MOL0     H88777   4.429   6.918   2.238  0.7098 -3.7133 -1.7077
  658MOL0     H88778   4.515   7.022   2.133  0.0593 -0.1040 -1.0422
  658MOL0     H88779   4.322   6.801   2.074 -0.5894  2.3984  1.0700
  658MOL0     H88780   4.404   6.902   1.942  0.1977 -0.0546 -0.9595
  658MOL0     H88781   4.469   6.576   2.135  0.6865 -1.5231 -0.4758
  658MOL0     H88782   4.673   6.396   2.103 -1.3848  1.5468 -1.2170
  658MOL0     H88783   4.832   6.483   2.113 -0.5441  2.8519 -0.1415
  658MOL0     H88784   4.645   6.422   2.337  0.3502 -0.6607  0.9349
  658MOL0     H88785   4.816   6.397   2.335  0.8176  1.0175 -0.9152
  658MOL0     H88786   4.758   6.600   2.474 -4.2066 -0.6624  0.2545
  658MOL0     H88787   4.698   6.684   2.339  0.2822  0.4765  2.1680
  658MOL0     H88788   4.923   6.744   2.383 -0.9215 -1.3442  0.8989
  658MOL0     H88789   4.910   6.683   2.223  0.5663 -2.3272 -0.3769
  658MOL0     H88790   5.122   6.757   2.194  1.3283  1.3602  3.9460
  658MOL0     H88791   5.324   6.710   2.061 -1.0134  0.0871 -1.9583
  658MOL0     H88792   5.758   6.505   1.947 -0.1278  1.8512 -0.2206
  658MOL0     H88793   5.857   6.386   1.749  1.2432  1.8893 -0.4194
  658MOL0     H88794   5.940   6.406   1.556  1.3779  0.6038 -0.9123
  658MOL0     H88795   5.911   6.266   1.452 -0.9672 -0.6387  0.6871
  658MOL0     H88796   5.860   6.383   1.264  1.7343 -1.2796 -0.6517
  658MOL0     H88797   5.857   6.537   1.346 -0.2890  0.7742  2.2534
  658MOL0     H88798   6.094   6.517   1.384 -1.0114  2.9005 -0.8660
  658MOL0     H88799   6.101   6.343   1.318 -0.2624 -0.1213 -0.7878
  658MOL0     H88800   6.071   6.601   1.157 -1.9522 -0.7393 -1.3021
  658MOL0     H88801   6.064   6.434   1.097 -3.0870 -1.2931  2.3746
  658MOL0     H88802   6.297   6.396   1.175  1.3198  0.6302  1.1239
  658MOL0     H88803   6.313   6.559   1.232 -0.7395  3.4152 -2.5079
  658MOL0     H88804   6.257   6.444   0.959  0.2362  1.8540 -3.0599
  658MOL0     H88805   6.249   6.618   0.965 -0.6107  0.1467  0.1650
  658MOL0     H88806   6.483   6.433   1.033 -0.6835 -0.9546 -0.5889
  658MOL0     H88807   6.476   6.613   1.069  0.1146  1.4017 -1.6762
  658MOL0     H88808   6.426   6.668   0.845  0.3304  0.2004  0.3971
  658MOL0     H88809   6.578   6.575   0.836 -1.2445  1.6444 -3.4152
  658MOL0     H88810   5.500   6.454   1.516  0.4140 -0.7027  0.2811
  658MOL0     H88811   5.399   6.561   1.737 -0.2968 -0.0348  0.0741
  658MOL0     H88812   5.352   6.309   2.225 -2.9631 -1.1002  0.4351
  658MOL0     H88813   5.166   6.363   2.371  0.9474 -0.1211  0.2405
  658MOL0     H88814   3.461   6.944   1.871  0.0002 -0.5057 -0.6022
  658MOL0     H88815   3.241   6.931   1.781 -1.6997  0.9656 -3.2858
  658MOL0     H88816   2.849   7.255   1.701  0.8747 -0.8756  0.2043
  658MOL0     H88817   2.606   7.216   1.679  0.2065  0.8776 -0.1212
  658MOL0     H88818   2.488   6.915   1.352 -0.1582 -1.7583 -0.2088
  658MOL0     H88819   2.337   6.978   1.426 -0.0228  1.4892  3.6107
  658MOL0     H88820   2.528   6.820   1.600  0.3542  0.1796 -0.3559
  658MOL0     H88821   2.412   6.739   1.494 -0.5511 -0.9412 -0.2419
  658MOL0     H88822   2.225   6.875   1.589 -3.1411 -3.3454  1.5806
  658MOL0     H88823   2.338   6.919   1.717 -1.4596  0.5183 -0.7761
  658MOL0     H88824   2.281   6.619   1.670 -1.4810 -1.1743  1.4689
  658MOL0     H88825   2.387   6.697   1.793  0.2371 -3.1430 -1.0326
  658MOL0     H88826   2.011   6.751   1.957  0.7380  0.1405  0.7372
  658MOL0     H88827   2.690   6.918   1.368  2.7624 -0.4528 -1.0834
  658MOL0     H88828   3.021   6.983   1.328 -1.4613  1.5542  0.3083
  658MOL0     H88829   3.017   6.865   1.456  1.4843  0.2111 -0.7132
  658MOL0     H88830   2.901   6.854   1.315 -0.1571  0.4029 -1.3493
  659MOL0     O88831   3.242   5.527   8.466  0.1438  0.6259  0.3234
  659MOL0     C88832   3.217   5.585   8.361  0.6598 -0.2968  0.2226
  659MOL0     O88833   3.232   5.725   8.341 -0.1974 -0.3702  0.3923
  659MOL0     C88834   3.343   5.793   8.391 -0.0825  0.0538 -0.0559
  659MOL0     C88835   3.352   5.916   8.337 -0.1076 -0.3254  0.8920
  659MOL0     C88836   3.461   5.998   8.342 -0.9384 -0.6867  0.3452
  659MOL0     C88837   3.569   5.949   8.417  0.5150 -1.6804  0.3325
  659MOL0     O88838   3.689   6.019   8.403  0.3237 -0.0194  0.3232
  659MOL0     C88839   3.816   5.942   8.390  0.2711 -0.2854  0.4844
  659MOL0     C88840   3.917   6.024   8.322 -0.1064 -0.2214 -0.1798
  659MOL0     C88841   3.988   6.115   8.426 -0.7506 -0.2503 -0.3735
  659MOL0     C88842   4.087   6.225   8.378  0.3821  1.3948 -0.5812
  659MOL0     C88843   4.233   6.183   8.361  0.1275  0.6288  0.7968
  659MOL0     C88844   4.327   6.298   8.366  0.0559  0.1461 -0.0389
  659MOL0     C88845   4.304   6.413   8.272  0.1919 -0.1262 -0.7936
  659MOL0     C88846   4.416   6.507   8.297  0.2636 -0.5636  0.1141
  659MOL0     N88847   4.410   6.630   8.202 -0.6180  0.2655 -0.4440
  659MOL0     C88848   4.506   6.670   8.110  0.7933 -0.0328 -0.4795
  659MOL0     C88849   4.462   6.781   8.060  0.3941 -0.5996 -0.0847
  659MOL0     C88850   4.513   6.850   7.939 -0.4528  0.6831  1.1139
  659MOL0     C88851   4.571   6.986   7.969 -1.2800  0.5678  0.2530
  659MOL0     C88852   4.693   6.965   8.064 -0.2379  0.3148  0.3483
  659MOL0     C88853   4.769   7.089   8.078  0.0526 -0.0029 -0.3888
  659MOL0     O88854   4.813   7.138   7.956 -0.2651 -0.0154  0.2195
  659MOL0     C88855   4.936   7.091   7.913 -1.0691  0.0394  0.1138
  659MOL0     C88856   5.029   7.005   7.976 -0.9170  0.1936  0.4442
  659MOL0     C88857   5.161   6.983   7.919  0.3359  0.8640 -0.3349
  659MOL0     C88858   5.197   7.038   7.798 -0.1377 -0.8368  0.1524
  659MOL0     C88859   5.330   7.024   7.745  0.3878  0.1959  0.6619
  659MOL0     O88860   5.357   7.103   7.639  0.5827 -0.0740  0.9698
  659MOL0     C88861   5.482   7.112   7.585 -0.1500 -1.3512  0.0267
  659MOL0     C88862   5.487   7.158   7.452 -1.3462 -0.3124  0.5630
  659MOL0     C88863   5.598   7.171   7.377 -0.3465 -0.6292  0.1758
  659MOL0     C88864   5.725   7.144   7.440  1.1232 -0.0155 -0.1513
  659MOL0     O88865   5.836   7.166   7.364 -0.2429  0.2689  0.3921
  659MOL0     C88866   5.830   7.196   7.216  0.5909  1.1038 -0.6994
  659MOL0     C88867   5.972   7.220   7.168  0.4227 -0.1724 -1.0531
  659MOL0     C88868   6.041   7.353   7.211 -0.1432  0.6941  0.3131
  659MOL0     C88869   6.190   7.339   7.192  0.4689 -0.2316  0.7862
  659MOL0     C88870   6.268   7.306   7.319  0.0100  0.1009  0.5345
  659MOL0     C88871   6.418   7.341   7.313  0.5683  0.7120 -0.4099
  659MOL0     C88872   6.496   7.280   7.437 -0.7357  0.4221 -0.3888
  659MOL0     C88873   6.646   7.305   7.430 -0.1330  0.4687  0.4636
  659MOL0    Cl88874   6.682   7.473   7.477  0.0852 -0.4684  0.3149
  659MOL0     C88875   5.726   7.099   7.570  0.3646  0.3097 -0.4263
  659MOL0     C88876   5.609   7.092   7.649  0.4192 -0.1882 -0.0670
  659MOL0     O88877   5.410   6.950   7.798  0.5794 -0.5790 -0.2511
  659MOL0     C88878   5.109   7.130   7.744 -0.1951 -0.1309 -0.5865
  659MOL0     C88879   4.983   7.151   7.794  0.4673  0.0906  0.3857
  659MOL0     N88880   4.335   6.803   8.104  0.2716  0.1505  0.3004
  659MOL0     N88881   4.307   6.715   8.199 -0.2083 -0.4495  0.4629
  659MOL0     C88882   3.565   5.826   8.481 -0.1446  1.1128 -0.4892
  659MOL0     C88883   3.452   5.745   8.465  0.0435  0.6705 -0.3308
  659MOL0     C88884   3.146   5.509   8.254  0.0307  0.7159 -0.3260
  659MOL0     C88885   3.134   5.580   8.131  0.0841  0.2676  0.6376
  659MOL0     C88886   3.088   5.516   8.013 -0.4962 -0.0213 -0.0952
  659MOL0     C88887   3.059   5.378   8.025  0.0392  0.0234 -0.7692
  659MOL0     O88888   3.025   5.316   7.906  0.1356  0.0498  0.4599
  659MOL0     C88889   3.135   5.258   7.836 -0.1716 -0.7005 -0.0460
  659MOL0     C88890   3.093   5.116   7.847  1.1016  0.2776  0.4369
  659MOL0     C88891   3.201   5.012   7.828  0.2047  0.5968 -0.8435
  659MOL0     C88892   3.292   5.007   7.950 -0.8967  0.1568  0.4927
  659MOL0     C88893   3.386   5.119   7.964 -0.2571 -0.5008 -0.3070
  659MOL0     C88894   3.462   5.208   7.950 -0.1745  0.4326 -0.5737
  659MOL0     C88895   3.073   5.308   8.144  0.1940  0.0060 -0.6898
  659MOL0     C88896   3.106   5.374   8.264  0.5176 -1.0749  0.5915
  659MOL0     C88897   3.093   5.304   8.398  0.0220 -0.2752  1.0537
  659MOL0     H88898   3.268   5.958   8.282  0.2687  0.1076  0.6375
  659MOL0     H88899   3.465   6.102   8.312  0.7101 -0.7218  0.3195
  659MOL0     H88900   3.862   5.916   8.486  0.8314  0.6495  0.4777
  659MOL0     H88901   3.787   5.852   8.334 -0.6166  0.2725  0.0310
  659MOL0     H88902   3.863   6.086   8.250 -0.6969 -0.5559 -0.0270
  659MOL0     H88903   3.994   5.966   8.269  1.8674  1.6040  0.5297
  659MOL0     H88904   4.029   6.036   8.489 -4.1234 -2.5302 -0.7474
  659MOL0     H88905   3.913   6.172   8.482 -0.7994 -0.5662 -0.1165
  659MOL0     H88906   4.050   6.262   8.283 -2.0564 -0.4595 -0.4433
  659MOL0     H88907   4.070   6.302   8.453 -2.3098 -0.5727  1.0309
  659MOL0     H88908   4.258   6.122   8.448  0.5632 -0.7639 -0.2731
  659MOL0     H88909   4.248   6.120   8.273 -2.2078  1.0745  0.0136
  659MOL0     H88910   4.326   6.340   8.467  5.7399  0.2098  0.3060
  659MOL0     H88911   4.429   6.260   8.352  0.1720 -0.1832  1.5490
  659MOL0     H88912   4.210   6.467   8.288 -0.7564 -1.1742 -2.4737
  659MOL0     H88913   4.304   6.379   8.168  1.6537 -1.6000 -0.3483
  659MOL0     H88914   4.428   6.537   8.402  0.9684 -0.4771  0.0130
  659MOL0     H88915   4.501   6.449   8.260 -0.9782 -0.4030 -3.3832
  659MOL0     H88916   4.588   6.614   8.067 -0.8062 -1.5990 -1.6486
  659MOL0     H88917   4.582   6.782   7.887 -2.4461 -0.3609 -0.2845
  659MOL0     H88918   4.438   6.865   7.860  3.2490 -1.5253 -3.3078
  659MOL0     H88919   4.590   7.036   7.874 -0.9210 -0.3172 -0.1571
  659MOL0     H88920   4.505   7.060   8.015  0.4263  2.3868 -0.0937
  659MOL0     H88921   4.771   6.899   8.025  0.0801  2.5421 -3.1914
  659MOL0     H88922   4.653   6.933   8.161 -2.9441  0.4587 -0.6568
  659MOL0     H88923   4.856   7.069   8.142  0.3212  0.4832 -0.5930
  659MOL0     H88924   4.711   7.162   8.135 -1.1861 -1.5953  0.4656
  659MOL0     H88925   5.005   6.960   8.072 -1.0402 -0.2080  0.2272
  659MOL0     H88926   5.238   6.927   7.969  0.9941  2.5043  0.5715
  659MOL0     H88927   5.391   7.174   7.403 -0.5259  3.0462 -0.2209
  659MOL0     H88928   5.584   7.213   7.278 -0.6164 -1.1681 -0.0227
  659MOL0     H88929   5.780   7.114   7.163  0.6612 -0.5506  1.6268
  659MOL0     H88930   5.768   7.284   7.200 -3.8020 -1.3847  0.6452
  659MOL0     H88931   6.028   7.139   7.217 -0.5895 -0.4784 -0.3552
  659MOL0     H88932   5.980   7.208   7.060 -0.3726  0.6289 -1.2055
  659MOL0     H88933   6.000   7.440   7.160 -2.6635  1.7737  3.7795
  659MOL0     H88934   6.015   7.363   7.317 -3.9963 -1.3365 -0.2303
  659MOL0     H88935   6.232   7.438   7.171 -0.7695  0.0034 -0.7344
  659MOL0     H88936   6.210   7.275   7.106 -2.5236  2.4793 -2.1954
  659MOL0     H88937   6.248   7.202   7.348 -2.9319 -0.9710 -4.2972
  659MOL0     H88938   6.221   7.373   7.392 -1.9327 -1.9988  1.3197
  659MOL0     H88939   6.459   7.296   7.222  2.0428 -0.9795  1.0165
  659MOL0     H88940   6.424   7.450   7.320 -1.6924  0.7826  3.5877
  659MOL0     H88941   6.471   7.173   7.439 -3.9757  1.0651 -0.6874
  659MOL0     H88942   6.458   7.322   7.530 -0.1465  0.0196  0.0399
  659MOL0     H88943   6.693   7.245   7.509  2.7681  0.7191 -0.9605
  659MOL0     H88944   6.692   7.279   7.335  0.2417  1.7563  0.2666
  659MOL0     H88945   5.821   7.059   7.605 -0.8520 -0.4746  2.2370
  659MOL0     H88946   5.618   7.065   7.753 -0.8518  1.5645  0.5528
  659MOL0     H88947   5.145   7.195   7.665  1.6675 -0.9922 -0.4996
  659MOL0     H88948   4.927   7.236   7.755 -0.0768 -0.1873  0.5524
  659MOL0     H88949   3.646   5.783   8.539 -1.8306 -1.0661  0.3867
  659MOL0     H88950   3.442   5.653   8.522  2.2031  0.2320 -0.5721
  659MOL0     H88951   3.153   5.685   8.109  0.9147 -0.7141 -4.4841
  659MOL0     H88952   3.072   5.584   7.931  1.6303  1.6809  0.8206
  659MOL0     H88953   3.226   5.290   7.888 -0.4883  0.7599 -0.3574
  659MOL0     H88954   3.136   5.302   7.736 -0.8541  0.6365  0.5225
  659MOL0     H88955   3.010   5.100   7.778  0.5219 -0.8981  1.3726
  659MOL0     H88956   3.049   5.096   7.945  2.4061  0.8018  1.1594
  659MOL0     H88957   3.263   5.025   7.739  0.9985 -1.6674 -0.6936
  659MOL0     H88958   3.145   4.918   7.825  0.7677  0.2621 -1.0187
  659MOL0     H88959   3.228   4.996   8.039 -1.5896 -0.4212 -0.0673
  659MOL0     H88960   3.351   4.916   7.936  0.6846  1.4076 -1.5209
  659MOL0     H88961   3.540   5.282   7.952 -0.9132  1.2217  0.2084
  659MOL0     H88962   3.036   5.206   8.148 -0.0722  0.0833 -1.0745
  659MOL0     H88963   3.037   5.360   8.474  0.6995  0.4930  0.9919
  659MOL0     H88964   3.055   5.202   8.388 -0.7131  0.1945 -1.3867
  659MOL0     H88965   3.195   5.296   8.436 -0.0725 -1.8108  1.0561
  660MOL0     O88966  10.985   2.947   2.345 -0.2346 -0.4744  0.1363
  660MOL0     C88967  10.923   2.998   2.436  0.3778  0.1789  0.3771
  660MOL0     O88968  10.966   3.005   2.568  0.0745  0.2097  0.7701
  660MOL0     C88969  11.086   2.967   2.609 -0.2302 -0.2508  0.1296
  660MOL0     C88970  11.201   2.995   2.538 -0.0940 -0.7745  0.8004
  660MOL0     C88971  11.321   2.952   2.583 -0.8348 -0.4052  0.0083
  660MOL0     C88972  11.338   2.886   2.707  1.4216 -0.0973  0.6219
  660MOL0     O88973  11.461   2.855   2.749  0.3640 -0.1584 -0.1778
  660MOL0     C88974  11.477   2.745   2.844  0.8928 -0.2413  0.0900
  660MOL0     C88975  11.620   2.693   2.850  0.0766 -0.4671 -0.2334
  660MOL0     C88976  11.720   2.801   2.896 -0.4121  0.1948 -0.1411
  660MOL0     C88977  11.847   2.726   2.950 -0.0393  0.5062  0.0474
  660MOL0     C88978  11.962   2.816   3.005 -0.5169 -0.1019  0.1270
  660MOL0     C88979  12.090   2.732   3.029  0.7847  0.6519 -0.1392
  660MOL0     C88980  12.197   2.780   3.127  0.5355  1.2778  0.4048
  660MOL0     C88981  12.266   2.903   3.066 -0.0976 -0.2544  0.2923
  660MOL0     N88982  12.369   2.955   3.145  0.8075 -0.2482 -1.1690
  660MOL0     C88983  12.481   2.886   3.199  1.6930  0.1417  0.2946
  660MOL0     C88984  12.532   2.978   3.286 -0.3846 -0.5163  0.0840
  660MOL0     C88985  12.655   2.968   3.371 -0.0220  0.3169 -0.5439
  660MOL0     C88986  12.759   3.080   3.367 -0.0755  0.4538  0.3634
  660MOL0     C88987  12.896   3.020   3.409 -0.9794 -0.6008  0.0066
  660MOL0     C88988  13.012   3.126   3.405  0.0443 -0.3186 -0.0446
  660MOL0     O88989  13.132   3.071   3.456 -0.1630  0.2030  0.0501
  660MOL0     C88990  13.247   3.154   3.464 -0.7160  1.3545 -0.0269
  660MOL0     C88991  13.239   3.288   3.427 -0.2354 -0.0498  0.4221
  660MOL0     C88992  13.352   3.363   3.392 -0.0744  0.5260  0.0293
  660MOL0     C88993  13.476   3.302   3.398 -0.5401  0.0558  0.3611
  660MOL0     C88994  13.596   3.357   3.345 -0.8488 -1.0532  0.2849
  660MOL0     O88995  13.716   3.287   3.343  0.4913  0.2362  0.3873
  660MOL0     C88996  13.832   3.352   3.307  0.2328 -0.7316  0.1649
  660MOL0     C88997  13.872   3.349   3.174  0.2154 -0.1259  0.7806
  660MOL0     C88998  13.974   3.431   3.131 -0.3963  0.0419 -0.1096
  660MOL0     C88999  14.041   3.509   3.217 -0.4968  0.2141  0.0204
  660MOL0     O89000  14.154   3.586   3.184  0.1225  0.3973 -0.4932
  660MOL0     C89001  14.188   3.615   3.047 -1.3291  0.2867  0.5763
  660MOL0     C89002  14.310   3.709   3.039  0.0083 -0.3827 -0.0582
  660MOL0     C89003  14.396   3.676   2.925  0.7663  0.0940  0.1418
  660MOL0     C89004  14.509   3.775   2.919 -0.8133 -0.2094  0.0547
  660MOL0     C89005  14.607   3.751   2.803 -0.4460 -0.1194  0.3392
  660MOL0     C89006  14.717   3.854   2.813  0.5105 -0.8527  0.4640
  660MOL0     C89007  14.792   3.871   2.675 -0.8805  0.1267  0.0204
  660MOL0     C89008  14.729   3.980   2.576  0.6044  0.0299 -0.2057
  660MOL0    Cl89009  14.596   3.919   2.484  0.1602 -0.4637 -0.0220
  660MOL0     C89010  14.011   3.504   3.358 -0.1097  0.3270  0.2090
  660MOL0     C89011  13.902   3.429   3.401 -0.5224 -0.5526 -0.2007
  660MOL0     O89012  13.585   3.474   3.308 -0.2382 -0.0328 -0.2359
  660MOL0     C89013  13.482   3.167   3.441 -0.7250  0.7583 -0.6071
  660MOL0     C89014  13.371   3.095   3.478 -0.6324 -0.2395  0.5434
  660MOL0     N89015  12.446   3.086   3.302  0.2545  0.0126  1.3356
  660MOL0     N89016  12.355   3.070   3.215  0.4136 -0.5209 -0.1947
  660MOL0     C89017  11.214   2.854   2.778 -0.1748 -0.4189  1.1139
  660MOL0     C89018  11.098   2.899   2.727  0.6117 -0.7318  0.5820
  660MOL0     C89019  10.793   3.048   2.407  1.0601 -0.4601  0.7463
  660MOL0     C89020  10.709   2.987   2.304  0.2805  0.2193 -0.8768
  660MOL0     C89021  10.581   3.027   2.283 -0.1676 -0.8182  0.4303
  660MOL0     C89022  10.526   3.138   2.344 -0.6719  0.3730 -0.4393
  660MOL0     O89023  10.395   3.171   2.323  0.6164  0.0733  0.0942
  660MOL0     C89024  10.363   3.312   2.322  0.0401 -0.2392 -0.5633
  660MOL0     C89025  10.272   3.334   2.202  0.0300  0.7235  0.3747
  660MOL0     C89026  10.160   3.227   2.192 -0.2461 -0.2792  0.3629
  660MOL0     C89027  10.039   3.278   2.111  0.3968  0.3280  0.5772
  660MOL0     C89028  10.075   3.309   1.965  0.2816 -0.0851  0.2905
  660MOL0     C89029  10.109   3.340   1.852  0.0009 -1.4244  0.4254
  660MOL0     C89030  10.598   3.202   2.439 -0.3694  0.5851  0.6495
  660MOL0     C89031  10.737   3.159   2.474  1.4785  0.0540 -0.0414
  660MOL0     C89032  10.818   3.243   2.568  0.8766  0.4534  0.2859
  660MOL0     H89033  11.186   3.059   2.452  1.2469 -0.4142  0.8237
  660MOL0     H89034  11.412   2.968   2.527 -1.1083 -0.2765 -0.4053
  660MOL0     H89035  11.436   2.782   2.939  0.4708  2.2380 -0.9821
  660MOL0     H89036  11.419   2.660   2.806  2.7961 -2.2064  1.3344
  660MOL0     H89037  11.646   2.651   2.752 -0.3636  0.4341 -0.7506
  660MOL0     H89038  11.613   2.613   2.924 -1.2760  1.2768  1.6245
  660MOL0     H89039  11.685   2.872   2.973 -3.8710  0.0724 -1.4456
  660MOL0     H89040  11.751   2.858   2.808  0.1471  1.2973  0.7450
  660MOL0     H89041  11.816   2.664   3.035  0.4746 -1.4318 -1.1238
  660MOL0     H89042  11.889   2.654   2.880  1.0230  0.5014  0.6733
  660MOL0     H89043  11.984   2.898   2.936 -0.4999 -1.1694 -1.1822
  660MOL0     H89044  11.923   2.864   3.095 -3.4026  1.7854 -1.9694
  660MOL0     H89045  12.051   2.639   3.071 -0.4202 -0.1839 -2.8932
  660MOL0     H89046  12.138   2.708   2.934 -0.9808  0.9252 -1.1559
  660MOL0     H89047  12.263   2.693   3.135 -2.4256 -1.0685  0.9972
  660MOL0     H89048  12.141   2.803   3.218 -2.2331 -0.0815 -0.8276
  660MOL0     H89049  12.300   2.871   2.967 -1.0030 -0.0588 -0.0973
  660MOL0     H89050  12.196   2.987   3.057  1.2229  1.1137  2.0803
  660MOL0     H89051  12.510   2.783   3.184 -1.6677 -1.0915  1.3000
  660MOL0     H89052  12.620   2.942   3.471  0.7421 -1.0236 -0.5938
  660MOL0     H89053  12.697   2.874   3.334 -0.6277  0.5891 -2.0086
  660MOL0     H89054  12.768   3.115   3.263 -0.5134  2.1344  0.8624
  660MOL0     H89055  12.719   3.164   3.425  0.4016 -0.3806  1.9472
  660MOL0     H89056  12.921   2.944   3.334 -1.3326  0.8304 -1.6080
  660MOL0     H89057  12.899   2.975   3.509 -1.1812  0.0748  0.3192
  660MOL0     H89058  12.985   3.212   3.466 -0.2425 -1.2710  1.2198
  660MOL0     H89059  13.018   3.157   3.301  0.4199 -1.9615 -0.5435
  660MOL0     H89060  13.139   3.330   3.423 -0.4920 -0.4247  2.0631
  660MOL0     H89061  13.332   3.459   3.348 -1.4766  0.9927  1.5697
  660MOL0     H89062  13.823   3.292   3.096  0.9468  0.0070  0.2079
  660MOL0     H89063  14.002   3.437   3.026  1.2825  1.2987  0.3657
  660MOL0     H89064  14.214   3.523   2.994 -1.5893  0.9943 -0.8314
  660MOL0     H89065  14.105   3.669   2.999  0.1943  0.5300 -1.9734
  660MOL0     H89066  14.261   3.806   3.024  0.7344  0.1577  1.0203
  660MOL0     H89067  14.378   3.722   3.123 -0.6545 -0.3492  0.4819
  660MOL0     H89068  14.432   3.573   2.933 -3.0859 -1.2618  3.3054
  660MOL0     H89069  14.337   3.697   2.835  0.3251  1.6820  0.7572
  660MOL0     H89070  14.564   3.785   3.013 -1.6092  0.1520  0.4940
  660MOL0     H89071  14.468   3.875   2.903  0.8892  0.8572  2.0118
  660MOL0     H89072  14.562   3.770   2.705  0.7946  0.7291 -0.0831
  660MOL0     H89073  14.647   3.649   2.809  1.2432  0.3012 -2.1666
  660MOL0     H89074  14.682   3.953   2.845  3.6189  0.6480 -0.3469
  660MOL0     H89075  14.789   3.825   2.889  0.7565 -1.1570  0.1158
  660MOL0     H89076  14.794   3.776   2.621  0.3373 -0.0629  0.3723
  660MOL0     H89077  14.893   3.906   2.699 -1.0051 -0.2520  1.1497
  660MOL0     H89078  14.700   4.064   2.640  3.2924 -0.7274  2.1939
  660MOL0     H89079  14.810   4.010   2.510 -0.3415  1.1408 -0.8912
  660MOL0     H89080  14.068   3.569   3.424 -2.0314  0.0284  2.3041
  660MOL0     H89081  13.870   3.434   3.505  0.9793  0.2367  0.2602
  660MOL0     H89082  13.574   3.110   3.450 -1.3778 -0.0272  1.5661
  660MOL0     H89083  13.383   2.992   3.510 -0.2593 -1.5366 -3.2407
  660MOL0     H89084  11.206   2.793   2.867 -3.4243 -1.6648  0.1075
  660MOL0     H89085  11.004   2.890   2.782  1.3994 -0.4549  2.0258
  660MOL0     H89086  10.743   2.900   2.250  0.5005 -0.8731  0.9382
  660MOL0     H89087  10.522   2.972   2.211  0.5654  0.4545 -1.2241
  660MOL0     H89088  10.455   3.371   2.312  1.0707 -1.9423 -1.7470
  660MOL0     H89089  10.310   3.338   2.413 -2.3074 -1.2360 -1.5570
  660MOL0     H89090  10.325   3.338   2.106 -1.9676  1.2703 -0.7645
  660MOL0     H89091  10.230   3.433   2.222  1.5775  1.0084  2.6192
  660MOL0     H89092  10.118   3.207   2.291 -0.5108  1.8852  0.7486
  660MOL0     H89093  10.202   3.138   2.145 -2.0887 -1.3656  0.7001
  660MOL0     H89094   9.960   3.202   2.104  0.1907  0.5644  0.2640
  660MOL0     H89095   9.995   3.369   2.152  0.6797  0.7772 -0.0958
  660MOL0     H89096  10.141   3.373   1.756 -2.2138  0.9048  0.3764
  660MOL0     H89097  10.558   3.291   2.486  0.1960  0.7659  0.7969
  660MOL0     H89098  10.762   3.334   2.595  3.0784  2.2504 -0.8952
  660MOL0     H89099  10.843   3.193   2.662  0.8643  2.2825  1.3329
  660MOL0     H89100  10.906   3.291   2.524 -0.2544 -0.4431 -3.2773
  661MOL0     O89101   9.899  11.014   7.146  0.2207  0.2504  0.6310
  661MOL0     C89102   9.890  10.939   7.049  0.3085  0.7335 -0.2792
  661MOL0     O89103   9.904  10.798   7.044 -0.3938 -0.8700 -0.3234
  661MOL0     C89104   9.949  10.745   7.158 -0.7888 -0.7918  0.3731
  661MOL0     C89105   9.892  10.765   7.282  0.4266  0.6413 -0.1019
  661MOL0     C89106   9.954  10.732   7.400 -0.6617  0.0499 -0.9051
  661MOL0     C89107  10.073  10.658   7.397 -0.1140  0.7393 -0.3731
  661MOL0     O89108  10.135  10.630   7.518  0.3059  0.7194  0.6312
  661MOL0     C89109  10.227  10.529   7.536 -0.3855 -0.5655  0.6635
  661MOL0     C89110  10.157  10.389   7.520  0.5468  0.3402  0.2657
  661MOL0     C89111  10.255  10.276   7.491  0.1955  0.4766 -0.3213
  661MOL0     C89112  10.174  10.146   7.465  0.3135  0.1315 -0.4788
  661MOL0     C89113  10.254  10.016   7.459 -0.0130  0.2634  0.1102
  661MOL0     C89114  10.169   9.895   7.408 -0.7626 -0.1261  0.0482
  661MOL0     C89115  10.037   9.876   7.474  0.1031 -0.3305  0.5818
  661MOL0     C89116   9.961   9.746   7.430 -0.7059 -1.2816 -0.1102
  661MOL0     N89117  10.039   9.629   7.486  0.6998  0.2146  0.1762
  661MOL0     C89118  10.026   9.578   7.609 -0.9513  0.3439 -0.2091
  661MOL0     C89119  10.109   9.467   7.608  0.0162  0.0041 -0.3861
  661MOL0     C89120  10.138   9.371   7.720  0.9905 -0.3602 -0.7573
  661MOL0     C89121  10.126   9.439   7.863 -0.3151 -0.4621  0.0602
  661MOL0     C89122  10.150   9.346   7.976 -0.2680  0.7025 -0.5600
  661MOL0     C89123  10.233   9.399   8.096  0.6379 -0.0311 -0.0155
  661MOL0     O89124  10.345   9.488   8.063 -0.0663 -0.2522  0.8191
  661MOL0     C89125  10.461   9.417   8.027 -0.6502 -1.1623  0.2876
  661MOL0     C89126  10.560   9.487   7.965 -0.5506 -0.6099 -0.6521
  661MOL0     C89127  10.667   9.429   7.902  0.1384 -0.3282  0.4865
  661MOL0     C89128  10.679   9.281   7.907 -0.8842  0.0713  0.7045
  661MOL0     C89129  10.798   9.215   7.848 -0.7532  0.6445  0.2663
  661MOL0     O89130  10.787   9.077   7.833 -0.6489  0.5647  0.1586
  661MOL0     C89131  10.896   9.008   7.793  0.3932 -0.1672 -0.6177
  661MOL0     C89132  11.018   9.026   7.850  0.8373  0.5730  0.3201
  661MOL0     C89133  11.124   8.937   7.826 -0.5204 -0.0697 -0.5536
  661MOL0     C89134  11.103   8.832   7.729 -1.2794 -0.3801 -0.8711
  661MOL0     O89135  11.196   8.734   7.702  0.3823  0.3099 -0.3640
  661MOL0     C89136  11.224   8.712   7.561  0.4233 -0.4958 -0.6298
  661MOL0     C89137  11.334   8.608   7.554  0.2902 -0.0768 -0.0361
  661MOL0     C89138  11.368   8.575   7.408  0.3617  0.0871 -0.2144
  661MOL0     C89139  11.485   8.472   7.410  0.1170 -1.1308 -0.9285
  661MOL0     C89140  11.502   8.426   7.265 -0.3042  0.8893 -0.3461
  661MOL0     C89141  11.613   8.319   7.247  0.7995 -0.1790  0.1320
  661MOL0     C89142  11.625   8.270   7.108  0.6752  0.3111  0.3590
  661MOL0     C89143  11.720   8.335   7.015  1.4963 -0.5288  0.5242
  661MOL0    Cl89144  11.641   8.488   6.949  0.0598 -0.2426  0.3538
  661MOL0     C89145  10.978   8.819   7.671  0.0252  0.2509  0.0596
  661MOL0     C89146  10.875   8.910   7.701  0.1359  0.3192 -0.6211
  661MOL0     O89147  10.894   9.285   7.827  0.0901  0.4668  0.1618
  661MOL0     C89148  10.575   9.210   7.968  1.0206 -0.2918  0.0570
  661MOL0     C89149  10.470   9.279   8.022  0.2749  0.3386  0.7144
  661MOL0     N89150  10.143   9.438   7.476  0.5940  0.1379 -0.1094
  661MOL0     N89151  10.093   9.542   7.402  0.1560  0.4761  0.0093
  661MOL0     C89152  10.138  10.639   7.273 -0.3491  0.5001  0.3532
  661MOL0     C89153  10.074  10.682   7.152  0.3505  0.7015 -0.8831
  661MOL0     C89154   9.835  10.997   6.928  0.4724  0.2250  0.7386
  661MOL0     C89155   9.754  11.110   6.943 -0.7453  0.2912 -0.6561
  661MOL0     C89156   9.711  11.184   6.835 -0.4681  0.9787 -0.6275
  661MOL0     C89157   9.725  11.126   6.711  0.2152 -0.5304 -0.3079
  661MOL0     O89158   9.684  11.187   6.596 -0.2390 -0.7819 -0.0513
  661MOL0     C89159   9.718  11.325   6.592 -0.5636 -0.2464  0.5176
  661MOL0     C89160   9.748  11.376   6.456  0.1937  0.1179 -0.1473
  661MOL0     C89161   9.719  11.529   6.444 -0.2985  0.1208 -0.2397
  661MOL0     C89162   9.723  11.585   6.305  0.5370  0.1879  0.3805
  661MOL0     C89163   9.851  11.580   6.244 -0.1206  0.1663 -0.1785
  661MOL0     C89164   9.955  11.564   6.178 -0.1816  0.0575  0.9284
  661MOL0     C89165   9.795  11.013   6.693  0.5007 -0.7807  0.1590
  661MOL0     C89166   9.857  10.938   6.797  0.0507 -0.1095  0.2573
  661MOL0     C89167   9.940  10.820   6.759 -0.0964  0.5595  0.3639
  661MOL0     H89168   9.797  10.818   7.285  0.0609  0.1462 -1.7999
  661MOL0     H89169   9.901  10.761   7.490 -0.3728 -0.0689 -0.6933
  661MOL0     H89170  10.305  10.541   7.460 -1.7367 -2.6116 -1.1603
  661MOL0     H89171  10.266  10.546   7.637 -0.7348  1.4247  0.4956
  661MOL0     H89172  10.102  10.395   7.426 -0.0646 -1.6164  0.4534
  661MOL0     H89173  10.095  10.386   7.610 -0.5794  5.7720  0.0330
  661MOL0     H89174  10.318  10.260   7.579 -2.3008 -2.2869  1.1414
  661MOL0     H89175  10.308  10.307   7.400  1.3151  2.7070  0.9941
  661MOL0     H89176  10.093  10.145   7.538  0.7619  1.7891  0.0851
  661MOL0     H89177  10.119  10.153   7.371 -0.7616 -2.3583 -0.1165
  661MOL0     H89178  10.346  10.040   7.403 -0.5296 -0.4613 -1.1002
  661MOL0     H89179  10.281   9.994   7.562 -0.3243  0.1304  0.1625
  661MOL0     H89180  10.154   9.900   7.300  0.2216 -1.6703 -0.1849
  661MOL0     H89181  10.226   9.807   7.440  1.1429  0.1598 -2.3662
  661MOL0     H89182   9.977   9.963   7.444  0.1126 -0.0958  1.2309
  661MOL0     H89183  10.065   9.870   7.579  2.9667 -0.3134 -0.0790
  661MOL0     H89184   9.863   9.738   7.479 -0.2594 -2.2760  0.6594
  661MOL0     H89185   9.950   9.743   7.321  0.7386  2.1326 -0.4637
  661MOL0     H89186   9.968   9.626   7.687  0.3051  0.6692  0.5418
  661MOL0     H89187  10.065   9.290   7.709  0.9655 -0.4294 -0.1187
  661MOL0     H89188  10.237   9.329   7.704  0.3621 -1.6661 -1.3117
  661MOL0     H89189  10.204   9.515   7.874  0.9198 -1.8641  1.4917
  661MOL0     H89190  10.030   9.490   7.877 -0.9429 -0.9395 -2.1748
  661MOL0     H89191  10.202   9.255   7.944  0.4753 -0.2688  2.9954
  661MOL0     H89192  10.054   9.312   8.015  0.9945 -1.3984  0.9433
  661MOL0     H89193  10.259   9.324   8.172 -1.5089 -0.6250  0.1906
  661MOL0     H89194  10.171   9.464   8.158  0.6978 -1.8857  2.1218
  661MOL0     H89195  10.544   9.594   7.966 -2.2939 -0.7841  2.2530
  661MOL0     H89196  10.734   9.501   7.855 -1.0905  0.0083 -0.7916
  661MOL0     H89197  11.025   9.102   7.927  0.6589  1.6850 -0.7263
  661MOL0     H89198  11.220   8.947   7.876 -0.3760 -1.1115 -0.6013
  661MOL0     H89199  11.137   8.677   7.504  1.2814 -2.0836 -1.0246
  661MOL0     H89200  11.260   8.798   7.505 -0.1578 -1.1891 -2.1346
  661MOL0     H89201  11.424   8.659   7.590  1.0220 -2.2322  1.3480
  661MOL0     H89202  11.318   8.512   7.604  2.9553 -1.9786 -2.4990
  661MOL0     H89203  11.279   8.536   7.357 -1.2356  0.5294  2.1051
  661MOL0     H89204  11.388   8.668   7.354 -1.4231  0.9696  0.5643
  661MOL0     H89205  11.467   8.395   7.486 -0.0318 -0.8270 -0.6515
  661MOL0     H89206  11.567   8.534   7.447 -4.6857  3.8286  3.1821
  661MOL0     H89207  11.526   8.512   7.200 -2.3328  0.2481 -2.0652
  661MOL0     H89208  11.411   8.379   7.229  0.8996 -1.3259 -0.6620
  661MOL0     H89209  11.702   8.369   7.286  0.1397  1.9523 -0.9549
  661MOL0     H89210  11.574   8.237   7.308 -2.4603  0.1153 -1.3644
  661MOL0     H89211  11.524   8.274   7.066 -0.1558  0.2709  2.2536
  661MOL0     H89212  11.656   8.165   7.115  1.8952  0.6395  0.0543
  661MOL0     H89213  11.815   8.359   7.065  2.9542 -1.8958 -1.4468
  661MOL0     H89214  11.747   8.277   6.926 -0.7608  0.3208 -0.7912
  661MOL0     H89215  10.954   8.737   7.604  2.5044 -0.2256 -0.3640
  661MOL0     H89216  10.774   8.908   7.663 -0.0159 -0.9307 -0.1910
  661MOL0     H89217  10.575   9.102   7.980  0.0421 -0.3417 -0.3669
  661MOL0     H89218  10.405   9.206   8.070 -0.1701  0.4593  0.3055
  661MOL0     H89219  10.238  10.598   7.264 -0.1676  0.1422  3.0615
  661MOL0     H89220  10.115  10.662   7.053 -4.2292 -2.0330 -2.5404
  661MOL0     H89221   9.738  11.152   7.042  3.4129 -2.2259  1.3993
  661MOL0     H89222   9.660  11.278   6.851 -1.1763  0.7137 -1.2721
  661MOL0     H89223   9.791  11.367   6.661 -1.0750  0.7176  0.4965
  661MOL0     H89224   9.624  11.376   6.613 -0.3107  1.4758 -2.0253
  661MOL0     H89225   9.685  11.324   6.382  2.0022 -0.5205 -1.3188
  661MOL0     H89226   9.850  11.347   6.429 -0.3742 -2.5720  0.2430
  661MOL0     H89227   9.786  11.571   6.520 -1.3471  0.3898  0.5481
  661MOL0     H89228   9.617  11.539   6.481  0.3098 -0.8399  1.8442
  661MOL0     H89229   9.647  11.544   6.238  0.2911  5.6776 -3.4257
  661MOL0     H89230   9.688  11.689   6.313 -0.8479 -0.2460  0.2841
  661MOL0     H89231  10.045  11.569   6.120 -0.3227 -1.1436  0.5681
  661MOL0     H89232   9.813  10.986   6.590  0.7760  1.1833 -0.3428
  661MOL0     H89233  10.033  10.823   6.817  0.2537  0.6772 -0.2040
  661MOL0     H89234   9.897  10.723   6.784 -0.7276  1.0457  1.2159
  661MOL0     H89235   9.971  10.832   6.655 -0.0969  3.5523  0.6296
  662MOL0     O89236   8.731   7.211   8.731  0.4492  0.1605  0.6902
  662MOL0     C89237   8.678   7.280   8.641 -0.1481 -0.0642  0.4120
  662MOL0     O89238   8.751   7.354   8.552  0.0282  0.1137 -0.5211
  662MOL0     C89239   8.891   7.355   8.565  0.3727 -0.3586  0.1270
  662MOL0     C89240   8.962   7.441   8.657  0.0245 -0.1756 -0.5144
  662MOL0     C89241   9.106   7.435   8.654 -0.3033 -0.0362  0.2740
  662MOL0     C89242   9.179   7.363   8.553 -0.0942  0.6045 -1.2363
  662MOL0     O89243   9.318   7.364   8.542 -0.2501  0.1689  0.4561
  662MOL0     C89244   9.396   7.451   8.620  0.7487 -0.6967  0.8519
  662MOL0     C89245   9.544   7.403   8.603  0.0424  0.3843 -0.1992
  662MOL0     C89246   9.632   7.491   8.695 -0.2594 -0.0664  0.5062
  662MOL0     C89247   9.788   7.458   8.684 -0.0609  1.0974 -0.1239
  662MOL0     C89248   9.870   7.517   8.812  0.2242  0.2779 -0.4041
  662MOL0     C89249  10.019   7.525   8.774  0.2208  0.4984 -0.0053
  662MOL0     C89250  10.083   7.384   8.741  0.4293  0.0685 -0.1113
  662MOL0     C89251  10.239   7.400   8.749  0.5687  0.0208  0.2490
  662MOL0     N89252  10.283   7.415   8.884  0.0644  0.3487 -0.6336
  662MOL0     C89253  10.295   7.537   8.945  0.1913  0.2860  0.0121
  662MOL0     C89254  10.313   7.507   9.079  0.5520  0.0303  0.0269
  662MOL0     C89255  10.313   7.605   9.194  0.9664  0.0255 -0.2209
  662MOL0     C89256  10.447   7.679   9.196  0.0989 -0.2163 -0.3627
  662MOL0     C89257  10.460   7.769   9.319 -0.0331 -0.0108  0.1023
  662MOL0     C89258  10.608   7.803   9.344 -0.2618 -0.1601  0.0386
  662MOL0     O89259  10.665   7.868   9.240  0.1690  0.0433 -0.3718
  662MOL0     C89260  10.798   7.919   9.264  0.7267 -0.1393  0.1435
  662MOL0     C89261  10.860   7.967   9.144 -0.5667  0.0228  0.2378
  662MOL0     C89262  10.987   8.019   9.147  0.6467 -0.3058 -0.5058
  662MOL0     C89263  11.054   8.018   9.266 -0.5547  0.4751 -0.4434
  662MOL0     C89264  11.197   8.064   9.273 -0.5289  0.4154  0.5855
  662MOL0     O89265  11.267   8.049   9.393  0.3017 -0.3382  0.0381
  662MOL0     C89266  11.395   8.096   9.391 -0.8364 -0.3721 -0.5816
  662MOL0     C89267  11.507   8.019   9.394  1.1115  1.0604  0.2041
  662MOL0     C89268  11.641   8.068   9.401  0.2303  0.5476 -0.2390
  662MOL0     C89269  11.659   8.204   9.409 -0.3143  0.1883  0.0634
  662MOL0     O89270  11.790   8.237   9.423 -0.4781 -0.9518  0.3603
  662MOL0     C89271  11.822   8.379   9.424 -0.3447 -0.0555 -0.2131
  662MOL0     C89272  11.974   8.396   9.402 -0.0777 -0.3447  0.3167
  662MOL0     C89273  12.060   8.375   9.525  0.3475 -0.0515  0.2063
  662MOL0     C89274  12.200   8.434   9.500  0.0720  0.4772 -0.3695
  662MOL0     C89275  12.300   8.363   9.602  0.0523  0.6831  0.3168
  662MOL0     C89276  12.446   8.376   9.547 -1.3718  0.1234 -0.4222
  662MOL0     C89277  12.548   8.301   9.640  0.3543 -0.3284 -0.8036
  662MOL0     C89278  12.676   8.283   9.569  0.2467 -0.2560  0.6450
  662MOL0    Cl89279  12.792   8.180   9.652 -0.0601 -0.2055 -0.1499
  662MOL0     C89280  11.544   8.279   9.403 -0.0764 -0.4823  0.3639
  662MOL0     C89281  11.415   8.235   9.394  0.3112  0.0069 -0.4319
  662MOL0     O89282  11.256   8.104   9.168  0.0725 -0.4271 -0.3762
  662MOL0     C89283  11.000   7.955   9.382  0.0664  0.0703  0.1919
  662MOL0     C89284  10.868   7.912   9.379  0.6100  0.3573  0.1320
  662MOL0     N89285  10.331   7.372   9.093  0.4859  0.2051  0.0143
  662MOL0     N89286  10.304   7.316   8.974  0.1817 -0.3898  0.1532
  662MOL0     C89287   9.099   7.291   8.463 -0.2014 -0.2958 -0.6659
  662MOL0     C89288   8.963   7.276   8.475 -0.9280 -1.1475 -0.3133
  662MOL0     C89289   8.534   7.264   8.603  0.3803  0.3318 -0.0120
  662MOL0     C89290   8.480   7.291   8.473 -0.3900  0.6864  0.0260
  662MOL0     C89291   8.344   7.268   8.445  0.6297 -0.2009  0.7888
  662MOL0     C89292   8.253   7.218   8.538 -0.0430  0.9420  0.4195
  662MOL0     O89293   8.122   7.198   8.505  0.3130  0.1554 -0.1910
  662MOL0     C89294   8.025   7.298   8.528  0.1879  0.6455 -0.3248
  662MOL0     C89295   7.946   7.272   8.657  0.0460  0.6552  0.4218
  662MOL0     C89296   7.856   7.140   8.650  0.6646  0.0284  0.0170
  662MOL0     C89297   7.775   7.128   8.783 -0.6100 -0.2255  0.7702
  662MOL0     C89298   7.851   7.152   8.909  0.0363 -0.0391 -0.4620
  662MOL0     C89299   7.906   7.179   9.009 -0.5342 -0.3248  0.3356
  662MOL0     C89300   8.302   7.200   8.669  0.2875  0.3166  0.4740
  662MOL0     C89301   8.439   7.221   8.702  0.1827 -0.5692 -0.3586
  662MOL0     C89302   8.467   7.171   8.850 -0.0641 -0.0254  0.4552
  662MOL0     H89303   8.936   7.506   8.739  2.8345 -0.8098  1.0041
  662MOL0     H89304   9.152   7.493   8.733 -0.3310  1.2592 -0.6258
  662MOL0     H89305   9.391   7.553   8.580  2.9040 -0.2627  1.5605
  662MOL0     H89306   9.366   7.453   8.725  0.8086  0.4404  0.8628
  662MOL0     H89307   9.575   7.402   8.498 -2.0811 -1.5091 -0.8867
  662MOL0     H89308   9.535   7.303   8.645 -1.6526  0.6636  0.1935
  662MOL0     H89309   9.612   7.471   8.801 -0.9494  1.0986  0.6185
  662MOL0     H89310   9.601   7.592   8.665 -2.0928 -0.6426  0.2941
  662MOL0     H89311   9.796   7.349   8.691 -3.0031  0.6776 -1.6077
  662MOL0     H89312   9.818   7.482   8.581 -2.6726 -0.7431 -1.4329
  662MOL0     H89313   9.839   7.620   8.836  0.5317  0.3683 -0.3921
  662MOL0     H89314   9.840   7.463   8.902  1.5055  3.2203  1.9844
  662MOL0     H89315  10.025   7.582   8.681  2.9045 -2.0604 -1.5818
  662MOL0     H89316  10.068   7.579   8.856 -0.8932  1.2898  0.1607
  662MOL0     H89317  10.064   7.354   8.638 -0.6250  1.6697 -0.4090
  662MOL0     H89318  10.041   7.309   8.809  2.6908 -0.7947  0.4297
  662MOL0     H89319  10.288   7.312   8.707  1.2639  0.3259  0.4035
  662MOL0     H89320  10.267   7.491   8.694 -2.2134  0.9114  0.1225
  662MOL0     H89321  10.275   7.641   8.920  0.4812  0.3424  0.0085
  662MOL0     H89322  10.227   7.671   9.179 -1.0858 -2.4965 -0.3504
  662MOL0     H89323  10.282   7.542   9.278  3.2069 -0.6597  0.1612
  662MOL0     H89324  10.526   7.603   9.203  2.5610  2.3341  1.7346
  662MOL0     H89325  10.454   7.735   9.102 -3.4671 -0.6695 -1.0336
  662MOL0     H89326  10.413   7.721   9.405  0.3117  1.1990  0.9876
  662MOL0     H89327  10.404   7.854   9.279  0.0730 -0.0215 -0.0676
  662MOL0     H89328  10.661   7.707   9.347 -1.2465 -0.7660 -1.1864
  662MOL0     H89329  10.620   7.847   9.443 -0.1460  0.0109 -0.0505
  662MOL0     H89330  10.794   7.954   9.059 -1.1822 -2.8630  1.0605
  662MOL0     H89331  11.034   8.060   9.058  0.5493 -0.3357 -0.5702
  662MOL0     H89332  11.499   7.911   9.395 -0.0197  1.0567 -1.9703
  662MOL0     H89333  11.726   8.001   9.399 -2.2347 -2.8462  0.6017
  662MOL0     H89334  11.777   8.427   9.337 -0.5615 -0.0517 -0.0974
  662MOL0     H89335  11.778   8.427   9.512 -1.6385 -2.8438  0.7857
  662MOL0     H89336  12.015   8.331   9.324  0.5297 -1.8392  1.8172
  662MOL0     H89337  11.978   8.499   9.365 -1.2791 -1.2694 -2.7123
  662MOL0     H89338  12.021   8.429   9.611  0.5576 -0.0923  0.3273
  662MOL0     H89339  12.060   8.268   9.549 -0.0057 -0.1399 -0.1656
  662MOL0     H89340  12.197   8.540   9.524 -2.7567  0.2523  0.6898
  662MOL0     H89341  12.232   8.412   9.397  1.7269 -1.5824  0.5094
  662MOL0     H89342  12.284   8.255   9.607  0.5833  0.5827 -0.0843
  662MOL0     H89343  12.292   8.395   9.706  1.3524  1.6168  0.1643
  662MOL0     H89344  12.440   8.331   9.448 -1.4375  1.7944 -1.2024
  662MOL0     H89345  12.467   8.482   9.539  0.0223 -0.2558 -2.2246
  662MOL0     H89346  12.508   8.206   9.678  1.0183  0.1392  1.1795
  662MOL0     H89347  12.568   8.362   9.729 -1.1683 -1.7323  0.5657
  662MOL0     H89348  12.669   8.241   9.469  1.6478 -1.1888  0.8986
  662MOL0     H89349  12.725   8.381   9.563 -0.4418  0.1403  1.3668
  662MOL0     H89350  11.555   8.387   9.403  0.0512 -0.3962 -2.6722
  662MOL0     H89351  11.321   8.289   9.399 -2.6569 -4.5315 -0.1693
  662MOL0     H89352  11.063   7.949   9.470  0.3023 -0.7405 -0.0228
  662MOL0     H89353  10.835   7.870   9.473  0.2945 -0.9316 -0.5321
  662MOL0     H89354   9.150   7.251   8.376  4.1839 -1.8589  2.2995
  662MOL0     H89355   8.922   7.204   8.403 -0.8182 -1.5941  0.0676
  662MOL0     H89356   8.548   7.332   8.399 -1.5879  1.4053 -0.7128
  662MOL0     H89357   8.297   7.290   8.350 -0.3851 -3.7422  0.3281
  662MOL0     H89358   7.963   7.309   8.439 -0.1797 -1.3398 -0.3558
  662MOL0     H89359   8.080   7.392   8.545  0.5144  0.8149 -2.1791
  662MOL0     H89360   7.881   7.357   8.682  0.7562  0.8343  1.7527
  662MOL0     H89361   8.021   7.258   8.735  1.8081  0.6058 -1.2029
  662MOL0     H89362   7.919   7.052   8.636 -0.0059 -0.5893  0.8510
  662MOL0     H89363   7.786   7.148   8.566  1.4093 -1.7676 -0.8224
  662MOL0     H89364   7.691   7.197   8.768  0.8842  1.2258 -1.3915
  662MOL0     H89365   7.732   7.027   8.790  0.7420 -0.9332 -0.6499
  662MOL0     H89366   7.957   7.213   9.097  1.1087 -0.3393 -0.5713
  662MOL0     H89367   8.234   7.158   8.741 -0.6608  1.4946  0.2957
  662MOL0     H89368   8.537   7.237   8.903 -1.2901  1.4179  0.3494
  662MOL0     H89369   8.382   7.192   8.916 -1.8983  0.2867 -1.8814
  662MOL0     H89370   8.493   7.065   8.856  1.1886  0.1347 -1.3522
  663MOL0     O89371   3.950   8.829   0.632  0.3301 -0.3753 -0.2850
  663MOL0     C89372   3.979   8.712   0.649  0.1977  0.2631  0.2242
  663MOL0     O89373   4.103   8.678   0.688 -0.1406  0.6833  0.7289
  663MOL0     C89374   4.217   8.761   0.666  0.0899 -0.0274  0.3733
  663MOL0     C89375   4.305   8.771   0.771 -0.2538 -0.4929  0.7676
  663MOL0     C89376   4.431   8.841   0.762  0.8996  0.3100  0.2047
  663MOL0     C89377   4.462   8.912   0.643  0.3776 -0.3122 -0.4910
  663MOL0     O89378   4.592   8.972   0.636 -0.2005  0.0361  0.5222
  663MOL0     C89379   4.698   8.900   0.704  0.2647  0.0015  0.2452
  663MOL0     C89380   4.829   8.912   0.621 -1.0079  0.0758  0.2869
  663MOL0     C89381   4.867   9.052   0.567 -0.7183  0.7389  0.1988
  663MOL0     C89382   5.016   9.042   0.525 -0.5707  0.2106 -0.7125
  663MOL0     C89383   5.067   9.178   0.478 -0.3375  1.0470  0.1765
  663MOL0     C89384   5.158   9.172   0.354 -0.0126  0.4743 -0.5027
  663MOL0     C89385   5.166   9.312   0.294  0.1138  0.9669  0.7541
  663MOL0     C89386   5.307   9.335   0.249 -0.3386 -0.7200  1.1057
  663MOL0     N89387   5.326   9.464   0.191 -0.2611 -0.0353 -0.1463
  663MOL0     C89388   5.276   9.588   0.238  0.0715  0.0628  0.4961
  663MOL0     C89389   5.329   9.673   0.145 -0.2704 -0.0957 -0.1247
  663MOL0     C89390   5.291   9.810   0.151 -0.6488  0.5736  0.3375
  663MOL0     C89391   5.392   9.892   0.238 -0.3159  0.6449  0.5177
  663MOL0     C89392   5.359  10.043   0.242  0.1755  0.0685  0.1225
  663MOL0     C89393   5.447  10.138   0.147  0.4180  0.5197 -1.0139
  663MOL0     O89394   5.580  10.154   0.189  0.4651 -0.1959 -0.4927
  663MOL0     C89395   5.683  10.095   0.120  0.0619 -0.4169 -0.0574
  663MOL0     C89396   5.806  10.144   0.158  0.0908 -0.2872  0.3058
  663MOL0     C89397   5.918  10.093   0.101 -0.2643  0.5244  0.0113
  663MOL0     C89398   5.915   9.992   0.004 -0.0306  0.2194  0.2993
  663MOL0     C89399   6.043   9.946  -0.063 -1.0260  0.3770  0.2071
  663MOL0     O89400   6.037   9.921  -0.195  0.7297  0.2747 -0.1463
  663MOL0     C89401   6.162   9.897  -0.254 -0.2660  0.1342  0.0157
  663MOL0     C89402   6.233   9.774  -0.234  0.6148 -0.1410  0.5428
  663MOL0     C89403   6.339   9.745  -0.306 -0.5822 -0.3974  0.6656
  663MOL0     C89404   6.396   9.835  -0.400 -0.3517  0.5142  0.0715
  663MOL0     O89405   6.512   9.814  -0.477 -0.1289  0.5735  0.8881
  663MOL0     C89406   6.604   9.710  -0.430  0.1370 -0.1825  0.5914
  663MOL0     C89407   6.580   9.574  -0.494  0.4940  0.3880 -0.2072
  663MOL0     C89408   6.600   9.578  -0.648  0.3166 -0.4293  0.2611
  663MOL0     C89409   6.513   9.479  -0.721  0.5630  0.0926  0.3558
  663MOL0     C89410   6.499   9.505  -0.871  1.5821  0.9583 -0.2205
  663MOL0     C89411   6.442   9.378  -0.955 -0.6951  0.4230  0.0654
  663MOL0     C89412   6.294   9.355  -0.939  1.1191 -0.1358  0.1529
  663MOL0     C89413   6.246   9.212  -0.975 -0.8183 -0.2068  0.0144
  663MOL0    Cl89414   6.084   9.188  -0.910 -0.4036 -0.4376 -0.1186
  663MOL0     C89415   6.318   9.947  -0.429 -0.2488  0.5022  0.1666
  663MOL0     C89416   6.211   9.983  -0.351  0.3022  0.2070  0.3674
  663MOL0     O89417   6.147   9.942   0.003  0.3458  0.2651 -0.5647
  663MOL0     C89418   5.793   9.944  -0.030 -1.4626 -0.2626 -0.0286
  663MOL0     C89419   5.681   9.998   0.020  0.3989  0.9090 -0.2562
  663MOL0     N89420   5.405   9.600   0.049  0.6842 -0.1136 -0.0415
  663MOL0     N89421   5.393   9.480   0.079  0.2157  0.5132  0.5576
  663MOL0     C89422   4.360   8.918   0.544 -0.0187  0.1364  0.0004
  663MOL0     C89423   4.246   8.836   0.548  0.0324  0.3711 -0.2067
  663MOL0     C89424   3.887   8.608   0.607 -0.5785 -0.3010  0.5970
  663MOL0     C89425   3.929   8.478   0.619 -0.2961 -0.3406  0.4049
  663MOL0     C89426   3.861   8.368   0.572 -0.1442 -0.1359  0.5076
  663MOL0     C89427   3.740   8.383   0.514  0.9208 -0.2879  0.2688
  663MOL0     O89428   3.677   8.269   0.476 -0.0700  0.5475  0.1089
  663MOL0     C89429   3.533   8.274   0.440 -0.6675  0.5257 -0.3763
  663MOL0     C89430   3.495   8.133   0.395  0.0605 -0.6753  0.6970
  663MOL0     C89431   3.538   8.015   0.489 -0.4014 -0.3924 -1.1239
  663MOL0     C89432   3.504   7.866   0.446  0.0360 -0.4219 -0.3580
  663MOL0     C89433   3.361   7.839   0.445  0.7769  0.7826  0.4316
  663MOL0     C89434   3.249   7.806   0.453  0.1206 -0.2821 -0.0607
  663MOL0     C89435   3.686   8.514   0.496 -0.5466  0.4406 -1.1687
  663MOL0     C89436   3.765   8.628   0.532  0.3247 -0.5425  0.1128
  663MOL0     C89437   3.700   8.759   0.513 -0.5191 -0.2890 -0.4750
  663MOL0     H89438   4.278   8.732   0.869 -1.8550 -0.8296  0.2238
  663MOL0     H89439   4.499   8.832   0.846 -0.3732  0.2007  1.2645
  663MOL0     H89440   4.729   8.947   0.798  1.0840  0.3905 -0.2094
  663MOL0     H89441   4.662   8.798   0.718 -3.9615  1.1793 -0.6327
  663MOL0     H89442   4.822   8.843   0.537  2.8362  1.2926 -1.2490
  663MOL0     H89443   4.908   8.880   0.691 -1.2366  0.3971  0.6978
  663MOL0     H89444   4.850   9.126   0.645 -3.5375  1.0558 -0.5858
  663MOL0     H89445   4.808   9.073   0.477  1.3785  0.9062 -1.2090
  663MOL0     H89446   5.082   9.006   0.606 -1.4134  0.5240  0.1284
  663MOL0     H89447   5.015   8.986   0.431  0.1567  0.5749 -0.9503
  663MOL0     H89448   4.985   9.244   0.450 -0.7190 -0.2505 -1.9228
  663MOL0     H89449   5.128   9.223   0.558  0.5381  0.8869 -0.3879
  663MOL0     H89450   5.249   9.138   0.405 -1.0727 -0.3773  0.9028
  663MOL0     H89451   5.129   9.109   0.270 -0.9173 -0.0042  0.1495
  663MOL0     H89452   5.136   9.389   0.365 -5.0235 -1.0950  1.2073
  663MOL0     H89453   5.100   9.313   0.207  1.4824 -0.4309 -0.3803
  663MOL0     H89454   5.372   9.324   0.336  2.6038 -0.6366 -0.9574
  663MOL0     H89455   5.319   9.251   0.181 -0.8305 -0.7189  1.0149
  663MOL0     H89456   5.198   9.618   0.306  0.2301  0.3226  0.5661
  663MOL0     H89457   5.280   9.853   0.051 -5.3325  1.0555  0.8225
  663MOL0     H89458   5.187   9.822   0.181 -0.3637  2.4505  0.6921
  663MOL0     H89459   5.383   9.856   0.341 -0.0188  1.7396  0.9447
  663MOL0     H89460   5.495   9.878   0.204 -0.2396  0.8842  0.6503
  663MOL0     H89461   5.365  10.094   0.338  0.6116  2.3742 -1.0778
  663MOL0     H89462   5.258  10.060   0.203  0.5132 -0.2715 -0.9457
  663MOL0     H89463   5.398  10.235   0.141  1.6344  1.6498  3.3543
  663MOL0     H89464   5.442  10.102   0.044  0.5912  0.0819 -0.8752
  663MOL0     H89465   5.828  10.225   0.227  2.6123  0.1825 -0.9473
  663MOL0     H89466   6.016  10.129   0.133 -0.2521  2.1066 -1.6330
  663MOL0     H89467   6.190   9.702  -0.165  0.9582 -1.2467 -0.3550
  663MOL0     H89468   6.382   9.647  -0.286  2.2281  0.8015  0.8281
  663MOL0     H89469   6.701   9.744  -0.468  0.3660  2.3692  3.0995
  663MOL0     H89470   6.638   9.701  -0.326  4.2786 -1.6519 -0.6959
  663MOL0     H89471   6.657   9.506  -0.457  1.6561  2.4444  1.3088
  663MOL0     H89472   6.479   9.538  -0.473 -0.5618  2.6152 -1.1279
  663MOL0     H89473   6.583   9.677  -0.690 -0.8424 -0.6729  0.1102
  663MOL0     H89474   6.703   9.545  -0.664  2.1634  4.6513 -0.3131
  663MOL0     H89475   6.410   9.474  -0.682 -0.5964  1.8608 -2.2003
  663MOL0     H89476   6.571   9.387  -0.715  2.4012  0.9379 -2.6429
  663MOL0     H89477   6.593   9.536  -0.917  0.4018  1.8945 -2.1236
  663MOL0     H89478   6.429   9.585  -0.894  1.3122  0.1216 -2.5551
  663MOL0     H89479   6.449   9.387  -1.064 -0.9289 -0.6888 -0.0440
  663MOL0     H89480   6.486   9.285  -0.918 -3.0967 -1.5358 -1.7138
  663MOL0     H89481   6.241   9.428  -1.001 -0.9496 -0.7334  1.1143
  663MOL0     H89482   6.265   9.376  -0.835 -0.9290 -1.4697 -0.1063
  663MOL0     H89483   6.246   9.206  -1.085  0.2537  1.9516 -0.1483
  663MOL0     H89484   6.310   9.141  -0.922  2.2850  1.4616 -1.2065
  663MOL0     H89485   6.341  10.012  -0.512  2.7152 -0.0534  0.4670
  663MOL0     H89486   6.147  10.063  -0.387  0.3764  0.3273  0.4992
  663MOL0     H89487   5.796   9.858  -0.096  0.4779  0.0297 -0.3640
  663MOL0     H89488   5.589   9.949  -0.010 -0.1741  0.4268  2.1375
  663MOL0     H89489   4.378   8.961   0.446  4.2660 -1.6183 -0.2109
  663MOL0     H89490   4.171   8.822   0.470  0.9179 -1.4250 -0.7851
  663MOL0     H89491   4.030   8.457   0.651 -0.5651 -0.9776  0.8692
  663MOL0     H89492   3.901   8.272   0.604  0.7598  0.5167  1.4190
  663MOL0     H89493   3.511   8.355   0.369  0.2519  2.9995  1.9883
  663MOL0     H89494   3.477   8.302   0.530  1.5936 -0.9038  1.5832
  663MOL0     H89495   3.535   8.108   0.297 -0.2931 -0.0079  0.3772
  663MOL0     H89496   3.386   8.125   0.401  0.2425 -3.7327  1.2247
  663MOL0     H89497   3.489   8.038   0.584  0.8636  1.4476 -0.8627
  663MOL0     H89498   3.643   8.029   0.515  0.0604 -0.2536 -2.9617
  663MOL0     H89499   3.529   7.870   0.339  0.6027  1.8315 -0.1958
  663MOL0     H89500   3.562   7.788   0.495 -2.3581 -0.8846  1.9192
  663MOL0     H89501   3.153   7.763   0.470  1.0646 -1.8680  1.7156
  663MOL0     H89502   3.588   8.539   0.458 -0.0699  2.7984 -0.9974
  663MOL0     H89503   3.777   8.831   0.482 -3.3450  2.9669 -0.5923
  663MOL0     H89504   3.625   8.759   0.434 -2.2162  1.8316  1.0277
  663MOL0     H89505   3.658   8.789   0.609  0.3275 -1.8415  0.4166
  664MOL0     O89506   7.367   7.201   5.482 -0.0146  0.5577  0.0732
  664MOL0     C89507   7.327   7.274   5.578 -0.4407  0.0335 -0.3247
  664MOL0     O89508   7.375   7.390   5.617  0.1708 -0.3099  0.5442
  664MOL0     C89509   7.468   7.457   5.544 -0.6468  0.0703  1.1689
  664MOL0     C89510   7.553   7.537   5.619  1.0608  0.5154  0.2368
  664MOL0     C89511   7.665   7.593   5.565 -0.0528  1.0140 -0.5896
  664MOL0     C89512   7.697   7.580   5.425 -0.2073 -0.1935 -0.3017
  664MOL0     O89513   7.800   7.657   5.374 -0.2143  0.1123  0.1385
  664MOL0     C89514   7.892   7.590   5.286 -0.4217 -0.0900  0.1268
  664MOL0     C89515   7.986   7.705   5.250  0.0380 -1.0036 -0.2125
  664MOL0     C89516   8.047   7.785   5.370 -0.2351  0.0487  0.2006
  664MOL0     C89517   8.158   7.882   5.311  0.3899 -0.5329 -0.0163
  664MOL0     C89518   8.228   7.960   5.420  0.3300 -0.0191 -0.5684
  664MOL0     C89519   8.156   8.067   5.496  0.0197  0.3870 -1.3576
  664MOL0     C89520   8.230   8.119   5.612 -0.1069 -0.3898  0.2677
  664MOL0     C89521   8.326   8.240   5.566  0.5675  0.4105 -0.0992
  664MOL0     N89522   8.264   8.374   5.538  0.2812  0.3846  0.3431
  664MOL0     C89523   8.191   8.444   5.633  0.0999 -0.4878 -0.4205
  664MOL0     C89524   8.134   8.548   5.558 -0.2257 -0.5004 -1.3130
  664MOL0     C89525   8.040   8.652   5.613  1.0176 -0.1315  0.6523
  664MOL0     C89526   8.116   8.784   5.640  0.7558  0.3753 -0.2565
  664MOL0     C89527   8.034   8.914   5.652 -0.4175  0.2612  0.1903
  664MOL0     C89528   7.925   8.920   5.541 -0.1449  0.2980 -0.2842
  664MOL0     O89529   7.983   8.908   5.411  0.0598 -0.2060  0.5698
  664MOL0     C89530   7.907   8.892   5.300 -0.2216 -0.0789  0.3964
  664MOL0     C89531   7.981   8.866   5.188 -0.5128 -0.0053 -0.4028
  664MOL0     C89532   7.916   8.862   5.067  0.6598  0.0822  0.4816
  664MOL0     C89533   7.772   8.877   5.055 -0.4599  0.4739  0.0558
  664MOL0     C89534   7.702   8.865   4.926  0.1173  0.2413 -0.5177
  664MOL0     O89535   7.565   8.881   4.920 -0.1737 -0.1805 -0.2350
  664MOL0     C89536   7.500   8.806   4.819  0.1530  0.2872  0.1965
  664MOL0     C89537   7.415   8.696   4.854 -0.1772 -0.8106 -0.8774
  664MOL0     C89538   7.342   8.623   4.758  0.1283  0.3135 -0.1576
  664MOL0     C89539   7.360   8.650   4.623  0.4613  0.3401 -1.0387
  664MOL0     O89540   7.305   8.577   4.523  0.2209  0.2531 -0.2698
  664MOL0     C89541   7.244   8.451   4.550  0.0549 -0.2333 -0.1813
  664MOL0     C89542   7.179   8.399   4.419  0.0133 -1.2064 -0.1479
  664MOL0     C89543   7.127   8.256   4.443 -0.6128  0.6114 -0.1799
  664MOL0     C89544   7.075   8.190   4.320  0.5629  0.3299  0.1377
  664MOL0     C89545   7.016   8.053   4.357 -0.1931 -0.2027 -0.1211
  664MOL0     C89546   6.949   7.987   4.238  0.3921  0.4069  0.1886
  664MOL0     C89547   6.887   7.848   4.263 -0.1912  0.8608  0.5582
  664MOL0     C89548   6.762   7.861   4.345 -0.0514  0.9102 -0.3607
  664MOL0    Cl89549   6.671   7.707   4.341  0.1689  0.4172 -0.0859
  664MOL0     C89550   7.446   8.752   4.589  0.2437  0.0010  0.0478
  664MOL0     C89551   7.515   8.827   4.685 -0.4903  0.3695 -0.2214
  664MOL0     O89552   7.774   8.834   4.831  0.2690  1.0016 -0.2602
  664MOL0     C89553   7.702   8.912   5.172 -0.6819 -0.4506  0.5383
  664MOL0     C89554   7.772   8.920   5.292  0.1005  0.4955 -0.7743
  664MOL0     N89555   8.194   8.543   5.433  1.2876 -0.1128 -0.1960
  664MOL0     N89556   8.263   8.436   5.418 -0.9722  0.0406 -0.3058
  664MOL0     C89557   7.605   7.503   5.351 -0.2388 -0.0417  0.3131
  664MOL0     C89558   7.497   7.435   5.408  0.7994  0.0630  0.2472
  664MOL0     C89559   7.231   7.224   5.680  0.7848  0.2005 -1.0164
  664MOL0     C89560   7.178   7.314   5.776  0.3156 -0.0198 -0.4420
  664MOL0     C89561   7.090   7.267   5.873  0.3677  0.0572 -0.2688
  664MOL0     C89562   7.038   7.146   5.878 -0.0823 -0.0883 -0.2760
  664MOL0     O89563   6.961   7.110   5.986 -0.2665  0.3788  0.4843
  664MOL0     C89564   6.947   6.971   6.030 -0.9051 -0.9199  0.4944
  664MOL0     C89565   6.905   6.966   6.176 -0.8534 -1.1125 -0.3598
  664MOL0     C89566   6.756   6.978   6.198  0.3550 -0.4347  0.6793
  664MOL0     C89567   6.687   7.105   6.148  0.3075  0.3071 -0.1176
  664MOL0     C89568   6.715   7.219   6.236 -0.7807  0.0187 -0.1389
  664MOL0     C89569   6.763   7.309   6.306 -0.4691  0.0376  0.2852
  664MOL0     C89570   7.070   7.058   5.769  0.7112  0.2122 -1.1186
  664MOL0     C89571   7.170   7.093   5.673 -0.5981  0.0333  0.6553
  664MOL0     C89572   7.212   6.986   5.570  0.2872  0.1431 -0.1746
  664MOL0     H89573   7.529   7.542   5.725 -0.7920 -0.0990 -0.1215
  664MOL0     H89574   7.717   7.662   5.631  1.1705  0.1245 -0.5953
  664MOL0     H89575   7.935   7.504   5.339 -0.6527  0.0839  0.5983
  664MOL0     H89576   7.837   7.572   5.193  1.7474  1.1012 -1.4726
  664MOL0     H89577   7.931   7.779   5.192 -0.1624 -1.0470 -0.0771
  664MOL0     H89578   8.068   7.669   5.188  0.2187 -2.4846  0.8243
  664MOL0     H89579   8.094   7.723   5.447  2.8711  0.6867 -0.9884
  664MOL0     H89580   7.972   7.838   5.429 -0.7443  0.3076 -0.6516
  664MOL0     H89581   8.233   7.822   5.258  1.6645  0.5325  0.5279
  664MOL0     H89582   8.113   7.951   5.239 -3.2678 -2.1893  0.4739
  664MOL0     H89583   8.267   7.889   5.494  2.0815  1.3200 -0.1425
  664MOL0     H89584   8.321   7.995   5.374  0.6053 -0.4664 -0.3678
  664MOL0     H89585   8.129   8.141   5.420 -1.3541  0.1395 -1.1334
  664MOL0     H89586   8.068   8.015   5.536  1.2643  0.3847  1.6212
  664MOL0     H89587   8.296   8.043   5.655 -1.1605  0.1737  3.0599
  664MOL0     H89588   8.166   8.149   5.695  0.7253 -0.9680  1.1457
  664MOL0     H89589   8.398   8.253   5.646  1.9895 -0.1061 -1.2467
  664MOL0     H89590   8.388   8.205   5.483  1.2480  2.2963 -0.4345
  664MOL0     H89591   8.167   8.423   5.736  0.6342 -0.2608 -0.2443
  664MOL0     H89592   7.947   8.651   5.556  0.9065 -0.2792  0.8316
  664MOL0     H89593   8.013   8.611   5.711  2.6911 -2.2825  0.3075
  664MOL0     H89594   8.172   8.771   5.733 -0.9678 -0.6392  0.7159
  664MOL0     H89595   8.186   8.791   5.557 -0.1266  1.6700 -0.9210
  664MOL0     H89596   8.100   9.000   5.639  1.3973 -1.3051 -1.5528
  664MOL0     H89597   7.976   8.909   5.745 -1.8117  0.3666 -0.6555
  664MOL0     H89598   7.863   9.010   5.545 -0.5623 -0.0290  1.6645
  664MOL0     H89599   7.856   8.838   5.562 -0.0103 -0.0096 -1.0162
  664MOL0     H89600   8.083   8.831   5.194 -0.9394 -1.2836 -0.3307
  664MOL0     H89601   7.982   8.841   4.983  0.9144 -2.1135  1.1786
  664MOL0     H89602   7.398   8.671   4.958 -1.8463 -0.2966 -0.9969
  664MOL0     H89603   7.282   8.539   4.792  2.6479 -1.5675 -0.1526
  664MOL0     H89604   7.317   8.380   4.589  2.5543  1.1973 -1.9502
  664MOL0     H89605   7.160   8.465   4.620  0.5361 -1.2392  0.6197
  664MOL0     H89606   7.097   8.464   4.385  0.9460  0.5639  0.8081
  664MOL0     H89607   7.259   8.403   4.344 -1.6878  1.0839 -1.9826
  664MOL0     H89608   7.194   8.186   4.492  0.1386  0.8282 -0.8620
  664MOL0     H89609   7.046   8.261   4.516 -0.1976  1.8641  0.2308
  664MOL0     H89610   7.151   8.175   4.244 -0.4715  1.8501 -1.2739
  664MOL0     H89611   6.996   8.250   4.274  0.9122 -0.0941 -1.0395
  664MOL0     H89612   6.938   8.075   4.431 -1.3944 -0.4486 -1.2684
  664MOL0     H89613   7.095   7.986   4.389  1.4021  1.1012 -1.1217
  664MOL0     H89614   6.872   8.058   4.205  0.8113  1.1566  0.7810
  664MOL0     H89615   7.023   7.983   4.157 -0.4587 -1.1063 -0.5473
  664MOL0     H89616   6.959   7.779   4.307 -3.8048 -3.4486  0.4397
  664MOL0     H89617   6.864   7.802   4.166 -2.0564  3.5054 -0.3973
  664MOL0     H89618   6.811   7.878   4.442  4.6601  2.6372 -2.7264
  664MOL0     H89619   6.706   7.947   4.309 -1.2365  1.5045  2.5987
  664MOL0     H89620   7.471   8.778   4.486 -3.0213 -0.2892 -0.9282
  664MOL0     H89621   7.591   8.896   4.651  2.4255 -1.4991  2.0289
  664MOL0     H89622   7.600   8.948   5.177 -0.7847 -0.8880  2.3641
  664MOL0     H89623   7.709   8.952   5.374 -1.9600  0.4234 -2.2603
  664MOL0     H89624   7.624   7.487   5.245  1.8848 -2.9951  1.0184
  664MOL0     H89625   7.438   7.376   5.339  1.0956  3.4574 -3.3033
  664MOL0     H89626   7.225   7.411   5.790  2.2773 -0.9850  0.0287
  664MOL0     H89627   7.073   7.345   5.947  0.2192  2.2157 -2.4645
  664MOL0     H89628   7.046   6.927   6.023 -1.6934 -2.5359 -1.1199
  664MOL0     H89629   6.875   6.919   5.967  0.0580  1.5143 -2.8646
  664MOL0     H89630   6.958   7.046   6.230  0.1966 -1.6334 -0.6023
  664MOL0     H89631   6.938   6.872   6.220  0.3331 -0.2767  0.6014
  664MOL0     H89632   6.741   6.978   6.306 -1.4311  0.7682  0.4679
  664MOL0     H89633   6.703   6.898   6.146 -1.5399 -0.0248  1.8977
  664MOL0     H89634   6.707   7.132   6.043 -0.6569  0.3362 -0.2975
  664MOL0     H89635   6.583   7.073   6.137  0.7588 -0.8175 -1.5439
  664MOL0     H89636   6.815   7.383   6.364  2.9137 -0.2813 -2.0044
  664MOL0     H89637   7.024   6.961   5.758  1.6643 -0.3829 -0.0526
  664MOL0     H89638   7.321   6.977   5.579  0.3512  1.9303  1.9999
  664MOL0     H89639   7.161   6.891   5.585  1.6270 -0.6249 -0.2519
  664MOL0     H89640   7.195   7.006   5.464 -0.9380 -2.5496 -0.5460
  665MOL0     O89641   7.717   5.727   0.723  0.0530  0.0855 -0.4887
  665MOL0     C89642   7.654   5.818   0.765  0.6143 -0.1036 -0.3203
  665MOL0     O89643   7.515   5.805   0.784 -0.1066 -0.7968 -0.3717
  665MOL0     C89644   7.454   5.682   0.775  0.2793 -0.2415  0.1256
  665MOL0     C89645   7.356   5.656   0.680  0.0621  0.2438 -1.0744
  665MOL0     C89646   7.284   5.533   0.681  0.1363 -0.1662  0.0769
  665MOL0     C89647   7.313   5.426   0.775  0.2142 -1.1612 -0.3460
  665MOL0     O89648   7.238   5.318   0.801  0.0631  0.5465  0.8678
  665MOL0     C89649   7.123   5.303   0.704  0.2821  0.0137 -0.2251
  665MOL0     C89650   7.051   5.168   0.735  1.0313 -0.1048  0.9519
  665MOL0     C89651   6.913   5.154   0.666  0.9710 -0.0547  0.2730
  665MOL0     C89652   6.812   5.261   0.711  0.1500 -0.1504  0.3632
  665MOL0     C89653   6.674   5.232   0.679 -0.4020  0.3187 -0.7161
  665MOL0     C89654   6.573   5.316   0.756  0.6788 -0.2139  0.0543
  665MOL0     C89655   6.425   5.282   0.722 -0.4087  0.7327  0.1959
  665MOL0     C89656   6.374   5.155   0.797  0.2130 -0.7270  1.0970
  665MOL0     N89657   6.252   5.094   0.736  0.0440 -0.3509  0.3696
  665MOL0     C89658   6.123   5.078   0.782  0.1022 -0.1646  1.1814
  665MOL0     C89659   6.056   5.019   0.683  0.5455 -0.1190  0.6914
  665MOL0     C89660   5.905   4.988   0.668 -0.1837 -0.5034  0.2002
  665MOL0     C89661   5.864   5.020   0.519 -0.4758 -0.2435 -1.0893
  665MOL0     C89662   5.709   5.029   0.509 -0.3444  0.1254 -1.1325
  665MOL0     C89663   5.636   4.914   0.576  0.2360 -0.4835 -0.0638
  665MOL0     O89664   5.491   4.948   0.562 -1.3615  0.1696 -0.0114
  665MOL0     C89665   5.402   4.842   0.566  0.0062 -0.2500  1.4550
  665MOL0     C89666   5.421   4.719   0.630 -0.2061 -0.5009  0.7582
  665MOL0     C89667   5.323   4.617   0.620  0.1567 -0.1247 -0.0011
  665MOL0     C89668   5.203   4.639   0.543  0.0898 -0.2361  1.0757
  665MOL0     C89669   5.083   4.546   0.540  0.2600 -0.9671 -0.1527
  665MOL0     O89670   4.975   4.588   0.476 -0.1727 -0.2640 -0.1218
  665MOL0     C89671   4.862   4.519   0.504 -0.1282  0.7626 -0.9607
  665MOL0     C89672   4.752   4.587   0.566  0.1513  0.8936 -0.1985
  665MOL0     C89673   4.641   4.519   0.601 -1.1030 -0.1880 -0.3166
  665MOL0     C89674   4.618   4.397   0.545  0.1666 -0.1555 -0.5796
  665MOL0     O89675   4.490   4.345   0.570 -0.2808  0.0189 -0.6470
  665MOL0     C89676   4.460   4.210   0.538 -0.0588  0.4462  0.4084
  665MOL0     C89677   4.504   4.108   0.647  0.0398 -0.3195  0.2073
  665MOL0     C89678   4.419   4.121   0.774  0.1010 -0.8815  0.5486
  665MOL0     C89679   4.436   4.002   0.868  0.0773  0.9038  0.2602
  665MOL0     C89680   4.374   4.021   1.010 -0.1047 -0.4686  0.4262
  665MOL0     C89681   4.223   4.020   0.992  0.6725 -0.0758 -0.3775
  665MOL0     C89682   4.158   4.041   1.130  0.3625 -0.7715  0.6388
  665MOL0     C89683   4.002   4.040   1.108  0.7657  0.2168  0.0542
  665MOL0    Cl89684   3.948   3.877   1.055  0.4706  0.0046 -0.2977
  665MOL0     C89685   4.718   4.330   0.476 -1.2069  0.4189 -0.6465
  665MOL0     C89686   4.843   4.389   0.459 -0.4197  0.4201  0.1646
  665MOL0     O89687   5.091   4.449   0.617  0.3119  0.5183  0.0560
  665MOL0     C89688   5.181   4.759   0.480 -0.5497  0.3096  0.0431
  665MOL0     C89689   5.281   4.859   0.495  0.0367 -0.2656  0.3819
  665MOL0     N89690   6.145   4.983   0.587 -0.3126 -0.7551  0.4881
  665MOL0     N89691   6.260   5.032   0.618 -0.1384  0.2868  0.4062
  665MOL0     C89692   7.416   5.452   0.859 -0.2430  0.2919 -0.7487
  665MOL0     C89693   7.490   5.575   0.860  0.2214  0.0105 -0.5409
  665MOL0     C89694   7.730   5.939   0.818  0.0529 -0.2462 -0.2683
  665MOL0     C89695   7.865   5.925   0.842  0.2168  0.3301  0.8331
  665MOL0     C89696   7.948   6.036   0.872 -0.0863  0.3749 -0.2076
  665MOL0     C89697   7.892   6.166   0.896 -0.3890  0.2645 -0.5549
  665MOL0     O89698   7.961   6.281   0.936  0.2085 -0.6704  0.2648
  665MOL0     C89699   8.098   6.270   0.972  0.5948 -1.1678 -0.3508
  665MOL0     C89700   8.153   6.414   0.985 -0.6985 -0.0988 -0.1770
  665MOL0     C89701   8.066   6.489   1.083  0.1925 -0.5811  0.1725
  665MOL0     C89702   8.117   6.633   1.128 -0.3087 -0.5061 -0.1141
  665MOL0     C89703   8.230   6.635   1.223 -0.6072  0.0870  0.5927
  665MOL0     C89704   8.319   6.662   1.299  0.3649  0.1572 -0.3505
  665MOL0     C89705   7.755   6.180   0.876 -0.2878  0.4931 -0.4985
  665MOL0     C89706   7.676   6.071   0.829 -0.2400  0.1110 -1.0315
  665MOL0     C89707   7.527   6.100   0.803  0.3014 -0.2906  0.8599
  665MOL0     H89708   7.328   5.726   0.601  2.8857  0.8584 -1.6455
  665MOL0     H89709   7.203   5.519   0.609 -0.8169  0.8810  0.9016
  665MOL0     H89710   7.055   5.385   0.728  1.1196  2.0466 -3.9798
  665MOL0     H89711   7.152   5.301   0.599  3.1627  0.3389  0.4808
  665MOL0     H89712   7.048   5.149   0.843 -2.0616 -2.6848  0.5775
  665MOL0     H89713   7.114   5.086   0.700  0.8856  1.4396 -3.6832
  665MOL0     H89714   6.871   5.061   0.704 -0.6595  1.2088  1.7593
  665MOL0     H89715   6.925   5.148   0.557  0.8900 -0.6383  0.2964
  665MOL0     H89716   6.830   5.274   0.818  3.3157  1.9143 -0.2795
  665MOL0     H89717   6.839   5.353   0.659  0.5053 -1.1063 -1.2169
  665MOL0     H89718   6.666   5.246   0.571  1.8294 -0.9094 -1.1019
  665MOL0     H89719   6.652   5.126   0.695 -2.0064  0.6778 -0.3574
  665MOL0     H89720   6.600   5.316   0.862  0.0789  0.0379  0.2125
  665MOL0     H89721   6.580   5.421   0.724 -1.6873 -0.2728 -0.8348
  665MOL0     H89722   6.424   5.261   0.615  0.3582  1.6888 -0.0180
  665MOL0     H89723   6.362   5.370   0.739 -0.3111  0.2463  4.1890
  665MOL0     H89724   6.448   5.075   0.791  1.0755  0.1701 -2.5235
  665MOL0     H89725   6.332   5.192   0.891 -0.4880  1.6432 -0.0913
  665MOL0     H89726   6.075   5.121   0.870  0.6288  1.8356  0.5403
  665MOL0     H89727   5.894   4.881   0.688  3.4223 -1.3086 -1.3439
  665MOL0     H89728   5.848   5.049   0.739 -0.9668  1.3672 -1.9213
  665MOL0     H89729   5.903   5.113   0.476  2.4052 -0.9678 -0.2897
  665MOL0     H89730   5.895   4.935   0.458  1.1785 -0.4014 -0.0890
  665MOL0     H89731   5.683   5.036   0.403  1.7344 -0.4652 -1.7396
  665MOL0     H89732   5.679   5.118   0.564  1.4595  1.7688 -2.6677
  665MOL0     H89733   5.662   4.899   0.682 -2.4039  1.6829  1.0249
  665MOL0     H89734   5.676   4.828   0.522  1.4917  0.5421 -0.8001
  665MOL0     H89735   5.508   4.731   0.695  0.3830  0.6351 -0.2028
  665MOL0     H89736   5.338   4.532   0.686 -0.6604  1.1930  1.9474
  665MOL0     H89737   4.771   4.687   0.602  1.5290  0.6422 -0.1562
  665MOL0     H89738   4.571   4.564   0.671  0.8089  0.6743  1.1531
  665MOL0     H89739   4.353   4.193   0.523  0.1738 -0.1059 -0.7269
  665MOL0     H89740   4.499   4.195   0.437 -0.0244 -2.4717  0.7638
  665MOL0     H89741   4.486   4.003   0.623 -2.7533  0.3167 -0.9828
  665MOL0     H89742   4.610   4.131   0.658 -0.1889  1.7780 -1.2298
  665MOL0     H89743   4.443   4.210   0.834  1.8293 -2.0672  1.7239
  665MOL0     H89744   4.317   4.113   0.735  1.0655 -3.4022 -1.7637
  665MOL0     H89745   4.541   3.974   0.877 -0.6512 -1.8425  1.2662
  665MOL0     H89746   4.394   3.910   0.827  0.0568  1.0939 -0.1496
  665MOL0     H89747   4.411   4.118   1.045 -1.4055 -0.4533  1.8649
  665MOL0     H89748   4.392   3.933   1.072 -3.3283 -2.2195 -0.8760
  665MOL0     H89749   4.182   4.102   0.932 -2.1063 -0.7099  0.4975
  665MOL0     H89750   4.199   3.924   0.947 -2.1230  0.4806 -0.2772
  665MOL0     H89751   4.185   4.140   1.165 -1.9633 -0.1924  0.9324
  665MOL0     H89752   4.184   3.963   1.202 -3.2738 -1.5519  1.3012
  665MOL0     H89753   3.965   4.069   1.207  1.2391 -0.7196  0.5210
  665MOL0     H89754   3.983   4.121   1.037  0.8887 -0.1075 -0.3502
  665MOL0     H89755   4.704   4.225   0.453  3.1720 -1.0005  1.9148
  665MOL0     H89756   4.923   4.329   0.417  1.4441  0.9887  2.6842
  665MOL0     H89757   5.098   4.780   0.413  2.8114  3.1171 -3.7064
  665MOL0     H89758   5.278   4.949   0.435 -2.9969 -0.2833  0.3723
  665MOL0     H89759   7.457   5.373   0.921  0.8154  0.8365 -0.7284
  665MOL0     H89760   7.570   5.580   0.933  2.4601 -1.9683 -2.6735
  665MOL0     H89761   7.916   5.829   0.833 -0.4117 -0.0963  1.7004
  665MOL0     H89762   8.050   6.010   0.898  0.0503 -0.5504 -1.5502
  665MOL0     H89763   8.163   6.217   0.900  0.9853  0.0505 -0.9206
  665MOL0     H89764   8.106   6.216   1.066  0.8640 -0.2626  0.1499
  665MOL0     H89765   8.162   6.454   0.884 -1.5353 -1.1299 -0.6739
  665MOL0     H89766   8.255   6.406   1.025 -0.2561 -0.3303 -1.3297
  665MOL0     H89767   8.042   6.426   1.169  1.3401 -0.9602  0.2373
  665MOL0     H89768   7.969   6.505   1.037 -0.5016 -2.9222  0.6940
  665MOL0     H89769   8.149   6.693   1.043 -0.5699 -1.1943 -0.7130
  665MOL0     H89770   8.036   6.683   1.182  0.4638 -0.1058  0.6845
  665MOL0     H89771   8.399   6.679   1.368 -0.2364 -1.0688  0.6892
  665MOL0     H89772   7.708   6.275   0.901 -1.8356 -0.6384  1.1578
  665MOL0     H89773   7.456   6.075   0.882 -0.9513  1.7653  0.4747
  665MOL0     H89774   7.519   6.209   0.801 -0.8816 -0.3748 -0.3954
  665MOL0     H89775   7.488   6.073   0.705 -0.1366 -0.7820  1.1701
  666MOL0     O89776   7.280  11.305   5.483  0.0573 -0.0231 -0.1604
  666MOL0     C89777   7.248  11.405   5.554  0.2428  0.3107 -0.3940
  666MOL0     O89778   7.331  11.503   5.593 -0.4117 -1.0733  0.2141
  666MOL0     C89779   7.454  11.508   5.540 -0.5332 -0.4102 -1.0838
  666MOL0     C89780   7.487  11.638   5.492 -0.4381 -0.7090  0.9215
  666MOL0     C89781   7.611  11.653   5.432 -1.1228  0.4891  0.1709
  666MOL0     C89782   7.706  11.548   5.418  0.3469 -0.3788  0.3350
  666MOL0     O89783   7.825  11.601   5.362 -0.2821  0.5110  0.0244
  666MOL0     C89784   7.940  11.528   5.366 -0.0060  0.2528 -0.7602
  666MOL0     C89785   8.036  11.542   5.498  0.1499  0.1589  0.0991
  666MOL0     C89786   7.966  11.527   5.632 -0.0564 -0.2665 -0.3847
  666MOL0     C89787   8.066  11.525   5.750  0.5812 -0.1043 -0.1876
  666MOL0     C89788   7.992  11.514   5.887 -0.8097 -0.1790 -0.0769
  666MOL0     C89789   8.092  11.494   6.004 -0.5923  0.0436 -0.3575
  666MOL0     C89790   8.020  11.516   6.142 -0.4656 -0.5196 -0.8149
  666MOL0     C89791   7.965  11.385   6.214 -0.2682 -1.0070  0.0394
  666MOL0     N89792   8.066  11.281   6.243 -0.7772  0.1680 -0.3290
  666MOL0     C89793   8.203  11.286   6.276 -0.8823  0.2066  0.1579
  666MOL0     C89794   8.248  11.158   6.301  0.3293  0.6325 -0.2469
  666MOL0     C89795   8.382  11.104   6.339  0.9020  0.0260  0.5073
  666MOL0     C89796   8.396  11.115   6.492  0.3348  0.3100  0.2972
  666MOL0     C89797   8.320  10.986   6.545  0.5355  0.0085 -0.5874
  666MOL0     C89798   8.343  10.949   6.688  0.6883  0.4394  0.1094
  666MOL0     O89799   8.481  10.913   6.702  0.1912 -0.3845 -0.1641
  666MOL0     C89800   8.511  10.880   6.833  0.5428 -0.5070  0.3980
  666MOL0     C89801   8.431  10.882   6.950  0.0375  0.2053 -0.9541
  666MOL0     C89802   8.483  10.860   7.068  1.1565  0.3758 -1.1200
  666MOL0     C89803   8.609  10.791   7.077 -0.1770  0.1831  0.2036
  666MOL0     C89804   8.667  10.757   7.207  1.1111  0.0531 -1.2907
  666MOL0     O89805   8.589  10.768   7.317  0.2705  0.2334 -0.6028
  666MOL0     C89806   8.623  10.743   7.445 -0.9422  0.1457 -0.1371
  666MOL0     C89807   8.521  10.695   7.525  0.7983  0.4412 -0.0763
  666MOL0     C89808   8.548  10.660   7.660  0.1285 -0.4120  0.2703
  666MOL0     C89809   8.676  10.684   7.715 -0.0882  0.2900 -0.6542
  666MOL0     O89810   8.714  10.651   7.851 -0.0721 -0.0835  0.1124
  666MOL0     C89811   8.793  10.538   7.858  0.1470 -0.3216 -0.1411
  666MOL0     C89812   8.906  10.582   7.950 -0.5318  0.3782 -0.4272
  666MOL0     C89813   8.999  10.462   7.992 -0.5415  0.4924 -0.1250
  666MOL0     C89814   9.077  10.487   8.115 -1.0004  0.4251 -0.0622
  666MOL0     C89815   9.234  10.505   8.104  0.2168 -0.3935  0.3010
  666MOL0     C89816   9.296  10.623   8.019  1.0612 -0.4003  0.8113
  666MOL0     C89817   9.237  10.766   8.049  0.6216  0.3559  0.6500
  666MOL0     C89818   9.279  10.858   7.929 -0.7873  0.6349 -0.6372
  666MOL0    Cl89819   9.459  10.855   7.896  0.3199 -0.0019  0.2165
  666MOL0     C89820   8.777  10.744   7.632 -1.4228 -0.4900  0.2638
  666MOL0     C89821   8.750  10.769   7.499  0.1539 -1.1829 -0.7945
  666MOL0     O89822   8.784  10.720   7.209 -0.1026  0.1978  0.2642
  666MOL0     C89823   8.687  10.782   6.965 -0.0524  0.8725  1.1308
  666MOL0     C89824   8.641  10.830   6.842  0.2613 -0.3405 -0.4949
  666MOL0     N89825   8.143  11.077   6.282  0.9440  0.2404  0.0700
  666MOL0     N89826   8.039  11.147   6.246  0.4246  0.3462 -0.3454
  666MOL0     C89827   7.674  11.423   5.473 -0.9473 -0.5388  0.2104
  666MOL0     C89828   7.551  11.403   5.542 -1.0513  0.1189 -0.3462
  666MOL0     C89829   7.117  11.410   5.631  0.8992  0.1827 -0.3078
  666MOL0     C89830   7.107  11.484   5.748  0.4244  0.3326 -0.0143
  666MOL0     C89831   6.989  11.488   5.824  0.1724 -0.0090 -0.5844
  666MOL0     C89832   6.879  11.413   5.784 -0.2898  0.4055 -0.7991
  666MOL0     O89833   6.765  11.425   5.860 -0.0829  0.2185 -0.7698
  666MOL0     C89834   6.705  11.291   5.898  0.1717 -0.0692  0.5812
  666MOL0     C89835   6.798  11.198   5.985 -0.0709 -0.5341  0.0416
  666MOL0     C89836   6.799  11.245   6.130  0.0518 -0.4277 -0.0837
  666MOL0     C89837   6.928  11.204   6.201  0.1049 -0.4450 -0.5681
  666MOL0     C89838   7.038  11.278   6.156 -0.3478 -0.8188  1.3407
  666MOL0     C89839   7.139  11.339   6.115 -0.5025 -0.6534 -0.2344
  666MOL0     C89840   6.883  11.342   5.669  0.2749 -0.1933  0.5317
  666MOL0     C89841   6.996  11.346   5.582  0.0847  0.1632 -0.9177
  666MOL0     C89842   6.991  11.268   5.457  0.2868  0.8008 -0.1887
  666MOL0     H89843   7.422  11.722   5.473  0.6326 -0.0620 -0.0058
  666MOL0     H89844   7.634  11.752   5.393  2.3074 -1.0738 -2.3366
  666MOL0     H89845   7.911  11.422   5.360 -2.4208  0.7057  1.0784
  666MOL0     H89846   7.995  11.542   5.273  1.0850 -0.8959 -0.3192
  666MOL0     H89847   8.068  11.645   5.485 -0.9999  0.8662  2.3586
  666MOL0     H89848   8.115  11.467   5.488  1.5417  1.4811  0.7863
  666MOL0     H89849   7.912  11.432   5.635  1.8266 -1.3919  1.6560
  666MOL0     H89850   7.896  11.611   5.641  0.7564  0.5628 -1.5058
  666MOL0     H89851   8.132  11.440   5.732  1.4007 -0.3810  3.3058
  666MOL0     H89852   8.129  11.614   5.744 -1.6665  1.5294 -0.9582
  666MOL0     H89853   7.928  11.603   5.892  0.3907  0.9456 -2.8956
  666MOL0     H89854   7.930  11.425   5.880 -1.3345  0.3295 -2.9247
  666MOL0     H89855   8.132  11.393   6.004  0.1384  0.3229  0.7644
  666MOL0     H89856   8.181  11.557   5.998  0.8719 -1.8244  0.9730
  666MOL0     H89857   7.934  11.583   6.133  1.3784  2.1191  0.0285
  666MOL0     H89858   8.093  11.570   6.203 -1.3887  0.2400 -0.3689
  666MOL0     H89859   7.912  11.418   6.304  0.6626  0.9727 -0.0822
  666MOL0     H89860   7.901  11.333   6.143  1.2917 -1.4645 -1.0800
  666MOL0     H89861   8.260  11.378   6.289 -3.7932  2.3560 -0.9246
  666MOL0     H89862   8.401  11.002   6.304  0.7188 -0.3528  1.4823
  666MOL0     H89863   8.457  11.167   6.292  2.6396 -0.6911  2.1855
  666MOL0     H89864   8.501  11.113   6.523 -0.2212  0.8356  2.4236
  666MOL0     H89865   8.352  11.208   6.529 -0.1520  0.0280  0.4401
  666MOL0     H89866   8.344  10.897   6.487 -1.1643 -2.5272  2.2917
  666MOL0     H89867   8.213  11.008   6.539  0.2908 -0.4474  1.3794
  666MOL0     H89868   8.276  10.869   6.720  0.7624  0.4589  0.3106
  666MOL0     H89869   8.328  11.043   6.741  2.5173  0.9957 -0.2799
  666MOL0     H89870   8.328  10.918   6.949  0.3766  1.3202  0.7461
  666MOL0     H89871   8.420  10.881   7.154  0.0640 -3.3955 -0.7794
  666MOL0     H89872   8.421  10.688   7.482  0.0552  2.3653  1.2054
  666MOL0     H89873   8.472  10.623   7.728 -3.8155 -0.7575 -3.8649
  666MOL0     H89874   8.738  10.450   7.893 -1.5867  0.1853 -1.4583
  666MOL0     H89875   8.844  10.510   7.766  1.0824 -0.4471  0.4107
  666MOL0     H89876   8.980  10.642   7.895  1.3221 -1.5591 -0.2026
  666MOL0     H89877   8.860  10.638   8.032 -0.1721  0.2556 -0.1392
  666MOL0     H89878   8.934  10.384   8.031 -1.7727  0.8581 -1.3609
  666MOL0     H89879   9.054  10.429   7.903 -1.5836  0.0726 -0.6197
  666MOL0     H89880   9.065  10.399   8.179  2.6811 -0.0177  0.1918
  666MOL0     H89881   9.050  10.574   8.176  2.6229  1.4822  0.2749
  666MOL0     H89882   9.273  10.413   8.061 -0.3916 -0.4128 -0.2247
  666MOL0     H89883   9.279  10.508   8.203  2.1161  0.3045 -0.5416
  666MOL0     H89884   9.405  10.615   8.019  1.0286 -1.6921 -1.1504
  666MOL0     H89885   9.254  10.604   7.919 -1.4891  2.1602  1.2524
  666MOL0     H89886   9.269  10.801   8.148 -1.2464  1.3447  0.9604
  666MOL0     H89887   9.128  10.767   8.057  0.3532 -1.0592 -2.0211
  666MOL0     H89888   9.236  10.836   7.831 -0.7153  2.5164 -1.1236
  666MOL0     H89889   9.253  10.962   7.949 -1.9264  0.4619 -1.1737
  666MOL0     H89890   8.871  10.773   7.678 -1.9456 -0.0577  1.0729
  666MOL0     H89891   8.822  10.824   7.440  0.0155 -1.2921 -1.0662
  666MOL0     H89892   8.781  10.728   6.961  0.3982  1.7252 -1.3446
  666MOL0     H89893   8.700  10.795   6.758 -0.5006  0.2009 -1.2678
  666MOL0     H89894   7.741  11.339   5.463  1.0396  0.8949  0.8360
  666MOL0     H89895   7.524  11.304   5.577 -2.3737  0.2217 -0.9896
  666MOL0     H89896   7.198  11.531   5.784  1.0156 -1.1702  0.4991
  666MOL0     H89897   6.983  11.551   5.912  0.4306  1.2398 -1.4341
  666MOL0     H89898   6.672  11.233   5.812  2.6417 -2.2947  0.9985
  666MOL0     H89899   6.610  11.306   5.951 -0.6150 -0.0953 -0.7788
  666MOL0     H89900   6.897  11.192   5.940 -1.2114 -3.0509 -2.3828
  666MOL0     H89901   6.756  11.097   5.984  2.3356 -1.5926 -1.0487
  666MOL0     H89902   6.713  11.221   6.193 -0.9864  2.7872 -0.1245
  666MOL0     H89903   6.799  11.354   6.139 -1.8042 -0.5280  2.0488
  666MOL0     H89904   6.911  11.213   6.308  2.0783 -3.9458  0.1834
  666MOL0     H89905   6.952  11.098   6.183  3.1646 -0.1420  1.2067
  666MOL0     H89906   7.228  11.381   6.073 -3.2680  1.6295 -4.6216
  666MOL0     H89907   6.804  11.273   5.642 -1.2404 -0.3840  4.8291
  666MOL0     H89908   7.064  11.187   5.463  0.8695  1.4077  2.4488
  666MOL0     H89909   6.889  11.236   5.435  0.5287 -0.0255 -0.1257
  666MOL0     H89910   7.020  11.328   5.370 -1.2504  0.2557 -1.1230
  667MOL0     O89911   5.107   4.099   3.949  0.0277  0.3395 -0.1715
  667MOL0     C89912   5.060   3.990   3.913 -0.3188  0.6392  0.6278
  667MOL0     O89913   5.130   3.869   3.924 -0.4908 -0.2373 -0.1025
  667MOL0     C89914   5.255   3.868   3.975 -0.9136 -0.0772  0.5279
  667MOL0     C89915   5.364   3.955   3.956 -0.4645  0.4365  0.7432
  667MOL0     C89916   5.485   3.931   4.024 -0.1353 -0.1240  0.1400
  667MOL0     C89917   5.496   3.819   4.122  0.7761 -0.8542  0.4193
  667MOL0     O89918   5.621   3.775   4.174 -0.2859 -0.4312  0.0016
  667MOL0     C89919   5.744   3.826   4.115  0.2145 -0.0451  0.4492
  667MOL0     C89920   5.870   3.750   4.164  0.5163  0.0113  0.3034
  667MOL0     C89921   6.003   3.815   4.130  0.6100 -0.0665 -0.4647
  667MOL0     C89922   6.118   3.719   4.173 -0.2524  1.1001  0.0816
  667MOL0     C89923   6.258   3.768   4.125  0.3502  1.4717 -0.0032
  667MOL0     C89924   6.361   3.658   4.095 -0.3321 -0.1276 -1.1442
  667MOL0     C89925   6.483   3.728   4.031  0.2196 -0.7239  0.4059
  667MOL0     C89926   6.598   3.635   4.016  0.2546  0.1220 -0.6195
  667MOL0     N89927   6.726   3.695   3.970  0.4786  0.1723  0.0513
  667MOL0     C89928   6.743   3.790   3.871  0.9703 -0.5828 -0.1326
  667MOL0     C89929   6.879   3.797   3.871  0.1699 -0.7985  0.1781
  667MOL0     C89930   6.962   3.884   3.772 -0.0634  0.4463 -0.2916
  667MOL0     C89931   7.055   3.802   3.695 -0.5339  0.7570  0.9223
  667MOL0     C89932   7.099   3.872   3.565  0.3236 -1.0451 -0.7572
  667MOL0     C89933   7.181   4.008   3.584  1.1258 -0.5428  0.0636
  667MOL0     O89934   7.298   3.985   3.664 -0.2344 -0.0850 -0.1360
  667MOL0     C89935   7.424   3.972   3.602 -0.7293  0.0417 -0.4420
  667MOL0     C89936   7.542   3.978   3.678  0.2164 -0.8686  0.7728
  667MOL0     C89937   7.670   3.983   3.627 -0.0349  0.7224 -0.1608
  667MOL0     C89938   7.685   3.966   3.487 -0.8392  0.5664 -0.7424
  667MOL0     C89939   7.810   3.967   3.423 -0.0434  0.1008  0.4627
  667MOL0     O89940   7.818   3.961   3.288 -0.4329 -0.6088 -0.0055
  667MOL0     C89941   7.942   3.981   3.227  0.1481  0.5071 -1.2832
  667MOL0     C89942   7.980   4.106   3.173 -0.1850 -0.0148  0.1794
  667MOL0     C89943   8.110   4.133   3.119 -0.4864 -0.5985  0.4401
  667MOL0     C89944   8.191   4.020   3.100 -0.1314  0.0631 -0.1857
  667MOL0     O89945   8.322   4.030   3.047  0.0499 -0.4566 -0.2900
  667MOL0     C89946   8.394   4.152   3.073 -0.1369  0.2011  0.0768
  667MOL0     C89947   8.533   4.134   3.012 -0.8009 -1.1323 -0.8118
  667MOL0     C89948   8.627   4.256   3.048 -0.5174  0.6374  0.0051
  667MOL0     C89949   8.768   4.243   2.980 -0.1374 -0.5431 -1.9993
  667MOL0     C89950   8.858   4.367   3.017  0.0330  0.9571 -0.6559
  667MOL0     C89951   9.003   4.352   2.952  0.1101 -0.2013  0.3511
  667MOL0     C89952   9.109   4.300   3.055  0.0866  0.6534  0.1625
  667MOL0     C89953   9.239   4.291   2.979  0.6016 -0.3549 -0.1575
  667MOL0    Cl89954   9.389   4.259   3.076  0.4182 -0.4962  0.1252
  667MOL0     C89955   8.150   3.894   3.155 -0.1060 -0.1624  0.0943
  667MOL0     C89956   8.031   3.875   3.223 -0.5169 -0.5537 -1.0797
  667MOL0     O89957   7.906   3.964   3.500  0.2145  0.4673 -0.1403
  667MOL0     C89958   7.567   3.945   3.413 -0.1422  0.3307 -0.1249
  667MOL0     C89959   7.443   3.958   3.469  1.4963 -0.1687  0.5413
  667MOL0     N89960   6.938   3.691   3.940  0.6200 -0.0851 -0.4226
  667MOL0     N89961   6.841   3.629   4.007  0.0024  0.3709  0.5804
  667MOL0     C89962   5.391   3.727   4.127 -0.0510 -0.1729 -0.6456
  667MOL0     C89963   5.281   3.754   4.052 -0.1154  0.8478  0.2289
  667MOL0     C89964   4.932   3.987   3.844  0.1324  0.4422 -0.2123
  667MOL0     C89965   4.904   3.886   3.738  0.0981  0.4159 -0.3335
  667MOL0     C89966   4.775   3.880   3.681  0.0651  0.1722  0.0232
  667MOL0     C89967   4.671   3.970   3.715  0.2367 -0.3129 -0.8760
  667MOL0     O89968   4.548   3.954   3.656 -1.5839  0.5506 -0.0778
  667MOL0     C89969   4.444   4.035   3.693 -0.4995  0.1249 -0.1163
  667MOL0     C89970   4.315   3.986   3.623 -0.2328  1.1284 -0.4073
  667MOL0     C89971   4.348   3.953   3.467 -0.2043 -0.3099  0.6294
  667MOL0     C89972   4.392   4.083   3.395  0.4039 -0.1113 -0.3813
  667MOL0     C89973   4.321   4.079   3.268 -0.0216 -0.3965  0.3059
  667MOL0     C89974   4.271   4.064   3.154  0.0895  0.3964 -0.0088
  667MOL0     C89975   4.707   4.072   3.805 -0.3445  0.5742  0.4141
  667MOL0     C89976   4.832   4.086   3.869  0.4509 -0.2073  0.0606
  667MOL0     C89977   4.848   4.191   3.973 -0.3891  0.6799  0.5456
  667MOL0     H89978   5.355   4.038   3.886  0.6862 -0.5932 -0.6781
  667MOL0     H89979   5.572   3.995   4.018 -0.4475  0.8594  3.8588
  667MOL0     H89980   5.736   3.827   4.006 -2.8947  2.6295  0.5262
  667MOL0     H89981   5.755   3.931   4.144  1.5674 -0.5385  1.8494
  667MOL0     H89982   5.865   3.654   4.113 -0.2973  0.2907 -0.1646
  667MOL0     H89983   5.862   3.736   4.273  2.4070  1.7926  0.7317
  667MOL0     H89984   6.028   3.914   4.169  0.2075 -0.0645 -0.1993
  667MOL0     H89985   5.991   3.826   4.022  0.1253 -2.0067 -0.6374
  667MOL0     H89986   6.121   3.709   4.282  0.9779  0.0491 -0.0163
  667MOL0     H89987   6.105   3.614   4.143  0.1752  0.4381  2.0776
  667MOL0     H89988   6.244   3.810   4.025  2.5166 -0.6775 -1.3130
  667MOL0     H89989   6.301   3.851   4.182 -0.2912  0.5646  1.9137
  667MOL0     H89990   6.389   3.604   4.186  1.4763  2.3453 -0.1170
  667MOL0     H89991   6.318   3.584   4.027  1.8625 -2.3504 -0.2349
  667MOL0     H89992   6.513   3.802   4.106  0.6256  1.4151 -1.7386
  667MOL0     H89993   6.460   3.784   3.941  0.5807 -0.6051  0.3832
  667MOL0     H89994   6.618   3.594   4.115  0.5236  2.8189  0.5311
  667MOL0     H89995   6.567   3.557   3.946 -0.6516 -1.2389  1.2307
  667MOL0     H89996   6.673   3.838   3.804  1.1789 -1.7341 -1.2317
  667MOL0     H89997   6.898   3.948   3.711 -0.3588  1.0334  0.6037
  667MOL0     H89998   7.024   3.946   3.839  1.0905 -2.6123  1.6964
  667MOL0     H89999   7.135   3.765   3.760 -0.6321 -1.4072 -0.0918
  667MOL0     H90000   7.011   3.707   3.663 -0.2759  1.0747 -0.4006
  667MOL0     H90001   7.010   3.894   3.505 -0.2800 -1.4652 -0.0312
  667MOL0     H90002   7.167   3.814   3.502  0.7505 -1.2860 -0.0873
  667MOL0     H90003   7.115   4.085   3.625  0.6152 -0.2494 -1.2497
  667MOL0     H90004   7.211   4.055   3.490  0.5852  0.9490  0.6213
  667MOL0     H90005   7.533   3.986   3.786  0.3790  1.9790  0.6585
  667MOL0     H90006   7.752   3.979   3.699  1.3623 -2.6321 -1.7136
  667MOL0     H90007   7.924   4.191   3.209 -1.2445 -1.4244  2.0277
  667MOL0     H90008   8.140   4.236   3.105  0.1677 -0.9010 -0.5106
  667MOL0     H90009   8.350   4.241   3.028 -0.0021  0.2948  0.1293
  667MOL0     H90010   8.406   4.173   3.180  1.5881 -2.2626  0.4644
  667MOL0     H90011   8.581   4.052   3.065 -1.8470 -0.6951  0.9086
  667MOL0     H90012   8.526   4.115   2.905 -1.5129 -2.2951 -0.5759
  667MOL0     H90013   8.590   4.352   3.012  1.7282  1.6327  0.1934
  667MOL0     H90014   8.636   4.252   3.157  0.7215 -0.1935 -0.1073
  667MOL0     H90015   8.755   4.251   2.872 -2.5789  1.8779 -1.6294
  667MOL0     H90016   8.801   4.141   3.002 -1.2286 -0.2531  1.6092
  667MOL0     H90017   8.876   4.372   3.125  0.7770 -1.6745 -0.5830
  667MOL0     H90018   8.800   4.452   2.980  1.7992  1.1641 -3.1795
  667MOL0     H90019   9.002   4.281   2.869 -0.5213  2.7838 -2.3974
  667MOL0     H90020   9.039   4.453   2.930  0.8559  0.4802  4.0053
  667MOL0     H90021   9.071   4.202   3.084 -0.1131  0.6385 -0.1484
  667MOL0     H90022   9.128   4.357   3.147 -3.2332 -0.5646  1.7610
  667MOL0     H90023   9.222   4.206   2.912 -0.7736  0.3463 -0.7275
  667MOL0     H90024   9.261   4.383   2.925  0.5697  0.4020  1.0695
  667MOL0     H90025   8.213   3.806   3.157 -0.3295 -0.3196  0.2523
  667MOL0     H90026   7.999   3.786   3.276  0.2666  1.1030  2.4432
  667MOL0     H90027   7.571   3.908   3.312 -1.7352  1.7657 -0.7698
  667MOL0     H90028   7.355   3.937   3.410  2.3466  1.8555 -1.6186
  667MOL0     H90029   5.389   3.639   4.192  1.5765 -0.9959 -1.6548
  667MOL0     H90030   5.192   3.697   4.076 -1.5196  1.2521 -3.2531
  667MOL0     H90031   4.967   3.800   3.719  0.1786  0.0273  1.4979
  667MOL0     H90032   4.740   3.794   3.624 -0.9606 -0.0641  0.9703
  667MOL0     H90033   4.450   4.142   3.671 -1.3968  0.2447  0.2073
  667MOL0     H90034   4.443   4.030   3.802 -0.3719  0.0489 -0.1179
  667MOL0     H90035   4.229   4.054   3.618 -0.8711  0.2747 -1.3982
  667MOL0     H90036   4.280   3.898   3.677 -2.3922  1.9235 -0.4244
  667MOL0     H90037   4.268   3.904   3.411  1.2535 -2.4436  0.2466
  667MOL0     H90038   4.433   3.885   3.452 -1.5099 -2.3498  1.9660
  667MOL0     H90039   4.362   4.170   3.454  2.5449 -1.8071  3.6199
  667MOL0     H90040   4.501   4.073   3.397  0.5523  0.8858  3.2473
  667MOL0     H90041   4.239   4.040   3.055 -0.4930  2.5262 -0.3704
  667MOL0     H90042   4.626   4.141   3.825 -1.2196 -0.3355  0.1250
  667MOL0     H90043   4.872   4.142   4.068  1.4303 -0.6992 -0.5636
  667MOL0     H90044   4.924   4.266   3.949  1.5966 -0.9583  1.4864
  667MOL0     H90045   4.752   4.244   3.981 -1.2372 -0.7180 -0.0198
  668MOL0     O90046   8.792   1.742   7.094  0.0014  0.3482  0.4185
  668MOL0     C90047   8.708   1.800   7.023  0.9123 -0.7362 -0.2790
  668MOL0     O90048   8.724   1.855   6.896  0.7409  0.6560  0.1910
  668MOL0     C90049   8.830   1.838   6.819 -0.3542 -0.0404  0.0166
  668MOL0     C90050   8.943   1.757   6.849 -0.2115  0.5248 -0.0676
  668MOL0     C90051   9.067   1.770   6.779  0.6928  0.0848 -0.3109
  668MOL0     C90052   9.074   1.847   6.660 -0.0544  0.1795 -0.4265
  668MOL0     O90053   9.198   1.826   6.600 -0.0504 -0.5146  0.2864
  668MOL0     C90054   9.194   1.873   6.462  0.0104  0.0512  0.2630
  668MOL0     C90055   9.298   1.817   6.377 -0.3389  0.3116  0.8693
  668MOL0     C90056   9.435   1.863   6.425 -0.3446  0.2403  0.3645
  668MOL0     C90057   9.538   1.782   6.350  0.3936  0.5443 -0.0875
  668MOL0     C90058   9.683   1.818   6.387 -0.7166  0.6693 -0.5804
  668MOL0     C90059   9.791   1.730   6.327  0.3387 -0.7429  0.0278
  668MOL0     C90060   9.781   1.722   6.170 -0.4768 -0.1420 -0.4414
  668MOL0     C90061   9.783   1.850   6.087  0.4322  0.4286 -0.2697
  668MOL0     N90062   9.913   1.910   6.060 -0.1260  0.2621  0.0161
  668MOL0     C90063  10.026   1.861   5.996  0.8875  0.6815 -0.6882
  668MOL0     C90064  10.121   1.958   6.009  0.3589 -0.2590 -0.3560
  668MOL0     C90065  10.263   1.948   5.961  0.4847  0.3929 -0.8975
  668MOL0     C90066  10.353   1.845   6.037  0.3432 -0.2411  0.1249
  668MOL0     C90067  10.377   1.704   5.966  0.0097 -0.2281  0.0780
  668MOL0     C90068  10.463   1.619   6.054 -0.3064  0.3133  0.3840
  668MOL0     O90069  10.597   1.673   6.061 -0.3747  0.3991 -0.5029
  668MOL0     C90070  10.673   1.600   6.150  0.5200  0.0174 -0.6435
  668MOL0     C90071  10.793   1.655   6.198 -0.0503  0.2313  0.3582
  668MOL0     C90072  10.866   1.598   6.302 -0.0675 -0.8363 -0.0242
  668MOL0     C90073  10.831   1.482   6.362 -0.0865 -0.0760  0.1550
  668MOL0     C90074  10.903   1.421   6.478  0.1659 -0.8786  0.4345
  668MOL0     O90075  10.974   1.506   6.553  0.0246 -0.1281  0.3462
  668MOL0     C90076  11.036   1.470   6.673 -0.1462 -0.1243 -0.2038
  668MOL0     C90077  11.030   1.342   6.742  0.2117 -0.3117  0.3088
  668MOL0     C90078  11.105   1.325   6.863  0.0967 -0.7410 -0.0221
  668MOL0     C90079  11.197   1.419   6.912  0.2397 -0.4384 -0.1045
  668MOL0     O90080  11.269   1.401   7.026  0.1102  0.7291 -0.2444
  668MOL0     C90081  11.363   1.493   7.075 -0.9554 -0.8735  1.3453
  668MOL0     C90082  11.433   1.429   7.197 -0.3744 -0.6953 -0.2358
  668MOL0     C90083  11.569   1.515   7.232  0.3154  0.0397  0.8520
  668MOL0     C90084  11.633   1.445   7.352 -0.4144  0.2533  0.0906
  668MOL0     C90085  11.765   1.507   7.394  0.7492 -0.1797 -0.2419
  668MOL0     C90086  11.737   1.642   7.460  0.2432 -0.5055 -0.5362
  668MOL0     C90087  11.698   1.613   7.607  0.0822 -0.1030 -0.5174
  668MOL0     C90088  11.638   1.733   7.676  0.5231  1.1562  0.4636
  668MOL0    Cl90089  11.770   1.840   7.705  0.1697  0.0280 -0.2240
  668MOL0     C90090  11.211   1.541   6.838  0.1650  0.7206 -0.5003
  668MOL0     C90091  11.126   1.567   6.727 -1.8491  0.5471 -0.3815
  668MOL0     O90092  10.893   1.302   6.505  0.1583 -0.3891 -0.1158
  668MOL0     C90093  10.720   1.413   6.310  0.8433 -0.0517 -0.2611
  668MOL0     C90094  10.637   1.478   6.215 -0.3257 -0.5462 -0.0358
  668MOL0     N90095  10.065   2.069   6.080 -0.1706  0.9111  1.2022
  668MOL0     N90096   9.944   2.034   6.111 -0.0546 -0.1675 -0.2282
  668MOL0     C90097   8.964   1.921   6.625 -0.0437 -1.0815 -0.6851
  668MOL0     C90098   8.848   1.926   6.708  0.5540  0.2987  0.0651
  668MOL0     C90099   8.572   1.832   7.084 -0.3564 -0.3529  0.6530
  668MOL0     C90100   8.563   1.890   7.209  0.3807 -0.2261  0.2497
  668MOL0     C90101   8.437   1.907   7.278 -0.0940  0.3242  0.2502
  668MOL0     C90102   8.316   1.873   7.213  0.4919  0.7919  0.9278
  668MOL0     O90103   8.191   1.872   7.268 -0.3029  0.2600 -0.0424
  668MOL0     C90104   8.164   1.927   7.396  0.0086 -0.2850  0.1284
  668MOL0     C90105   8.018   1.892   7.440 -0.1889  0.4610  0.8685
  668MOL0     C90106   7.985   1.744   7.442  0.1936  0.1130  0.5954
  668MOL0     C90107   7.837   1.731   7.457 -0.0601  0.7408  0.0596
  668MOL0     C90108   7.790   1.588   7.464 -0.0150  0.6798 -1.0323
  668MOL0     C90109   7.744   1.474   7.452 -0.7996  0.4293  0.6289
  668MOL0     C90110   8.325   1.809   7.084 -0.1672  0.5516 -0.4061
  668MOL0     C90111   8.449   1.789   7.020 -0.6770 -0.2381 -0.5582
  668MOL0     C90112   8.433   1.737   6.876 -0.6292 -0.0431 -0.1632
  668MOL0     H90113   8.937   1.689   6.933 -2.7928  3.4017  2.3045
  668MOL0     H90114   9.156   1.716   6.808  0.4917 -0.2681 -0.3472
  668MOL0     H90115   9.102   1.843   6.411  0.5380 -1.0737 -0.0753
  668MOL0     H90116   9.206   1.981   6.450 -2.5446  0.3225 -0.5128
  668MOL0     H90117   9.288   1.849   6.272 -0.0791 -2.5540 -0.1135
  668MOL0     H90118   9.293   1.708   6.376  0.8373  0.1997 -2.0542
  668MOL0     H90119   9.441   1.845   6.533  1.6230  1.3568  0.4881
  668MOL0     H90120   9.458   1.966   6.397 -0.6448 -0.3236 -2.2001
  668MOL0     H90121   9.529   1.675   6.372  1.3819  0.4961  0.1449
  668MOL0     H90122   9.537   1.788   6.241 -3.9759 -2.1198 -0.4410
  668MOL0     H90123   9.705   1.923   6.365 -0.8690  0.4175 -2.0496
  668MOL0     H90124   9.698   1.802   6.494 -0.8811  0.3364 -0.6049
  668MOL0     H90125   9.891   1.773   6.341 -0.2564  1.0198 -0.8259
  668MOL0     H90126   9.786   1.625   6.357 -1.7072 -1.3415 -2.1580
  668MOL0     H90127   9.692   1.663   6.149 -0.7805  0.3699 -0.6155
  668MOL0     H90128   9.858   1.657   6.128 -2.9375 -2.3438 -1.8314
  668MOL0     H90129   9.740   1.847   5.986  1.2419  0.1919 -0.6098
  668MOL0     H90130   9.716   1.914   6.147 -2.6744 -2.7370 -0.0212
  668MOL0     H90131  10.047   1.763   5.953  2.8757  0.2946  0.9665
  668MOL0     H90132  10.255   1.922   5.855 -3.4066  0.0752 -0.6811
  668MOL0     H90133  10.317   2.042   5.971 -0.7391  0.9683  0.9011
  668MOL0     H90134  10.452   1.893   6.040  0.9664 -1.3164 -1.6341
  668MOL0     H90135  10.306   1.835   6.135 -1.7154 -0.8844 -0.8873
  668MOL0     H90136  10.428   1.715   5.870 -1.7692 -2.4164 -1.1966
  668MOL0     H90137  10.284   1.653   5.940  0.9284 -1.0608 -1.7990
  668MOL0     H90138  10.462   1.521   6.006 -0.4791  1.2830 -1.7366
  668MOL0     H90139  10.408   1.611   6.148 -1.4082  2.1150 -0.0507
  668MOL0     H90140  10.825   1.753   6.167  1.2952  0.5760  2.5854
  668MOL0     H90141  10.955   1.647   6.341 -1.1895  1.7541 -0.5412
  668MOL0     H90142  10.960   1.261   6.727  1.1387 -0.8407 -1.4038
  668MOL0     H90143  11.093   1.231   6.915 -0.5049 -0.3422  0.5771
  668MOL0     H90144  11.440   1.509   6.999 -1.5850  1.5610  1.1409
  668MOL0     H90145  11.333   1.593   7.105  2.0531  0.0379  1.6111
  668MOL0     H90146  11.367   1.435   7.285 -0.5882  1.8033 -0.5012
  668MOL0     H90147  11.461   1.327   7.172  2.1697  0.0955 -0.9065
  668MOL0     H90148  11.639   1.512   7.148 -1.8966  1.3018 -1.1548
  668MOL0     H90149  11.543   1.620   7.250 -1.9346  0.0633 -1.7346
  668MOL0     H90150  11.656   1.342   7.322  0.2376  0.8689 -1.5814
  668MOL0     H90151  11.553   1.428   7.425 -1.1608  1.4436 -0.4191
  668MOL0     H90152  11.824   1.524   7.304  0.6503  1.1395 -0.0828
  668MOL0     H90153  11.807   1.442   7.471  1.9560  0.6891 -0.1324
  668MOL0     H90154  11.836   1.687   7.461  0.4380 -0.8935 -1.5227
  668MOL0     H90155  11.667   1.709   7.407 -1.7831 -0.2020  2.2933
  668MOL0     H90156  11.784   1.577   7.664  0.7104 -0.2305 -1.5115
  668MOL0     H90157  11.626   1.531   7.611  1.0709 -0.9383  0.4510
  668MOL0     H90158  11.569   1.785   7.609  0.7574 -0.9090 -1.5250
  668MOL0     H90159  11.595   1.700   7.771  0.7667  1.2863  0.6208
  668MOL0     H90160  11.279   1.621   6.864 -0.1025  0.2088  1.9547
  668MOL0     H90161  11.149   1.662   6.682 -2.7741  1.9175  1.8781
  668MOL0     H90162  10.685   1.321   6.356  1.2104  1.3026  3.0144
  668MOL0     H90163  10.548   1.421   6.188 -1.2743 -0.2002  2.1199
  668MOL0     H90164   8.969   1.991   6.542  1.4808 -0.8685 -0.4431
  668MOL0     H90165   8.764   1.995   6.700 -1.4635 -1.4028  3.9982
  668MOL0     H90166   8.659   1.917   7.253  0.7187 -1.6820  0.4473
  668MOL0     H90167   8.436   1.945   7.379 -0.2576  0.7362  0.0957
  668MOL0     H90168   8.177   2.035   7.406  1.5106 -0.1729 -2.3178
  668MOL0     H90169   8.237   1.895   7.471  0.2556  0.0165  0.0160
  668MOL0     H90170   7.942   1.928   7.370  0.7207 -1.1051 -1.0383
  668MOL0     H90171   7.999   1.934   7.539 -0.3129 -1.7338  1.8358
  668MOL0     H90172   8.046   1.698   7.520  1.0431 -0.6421 -0.4829
  668MOL0     H90173   8.009   1.702   7.343 -0.4407 -0.4860  0.6856
  668MOL0     H90174   7.804   1.773   7.553 -2.7461 -0.5862 -0.1974
  668MOL0     H90175   7.785   1.789   7.381 -1.6366  0.5105  0.9199
  668MOL0     H90176   7.708   1.375   7.432  0.4949  0.3176 -1.5511
  668MOL0     H90177   8.231   1.779   7.039  0.1677  0.1729 -0.8603
  668MOL0     H90178   8.333   1.708   6.841 -0.1875 -0.9960 -0.6608
  668MOL0     H90179   8.450   1.823   6.812  1.6459 -0.4701 -0.1896
  668MOL0     H90180   8.514   1.665   6.867  1.7731  2.5344 -0.4182
  669MOL0     O90181   2.767   6.780   3.649  0.5682 -0.4582 -0.3427
  669MOL0     C90182   2.685   6.860   3.709  0.4938  0.8603  0.4757
  669MOL0     O90183   2.710   6.993   3.747 -0.4890  0.4854 -0.3151
  669MOL0     C90184   2.841   7.043   3.763 -0.1318  0.0797 -1.1589
  669MOL0     C90185   2.875   7.104   3.887 -0.5716 -0.4138 -0.2857
  669MOL0     C90186   3.009   7.138   3.918  0.1599  0.7445  0.7842
  669MOL0     C90187   3.112   7.097   3.831  0.0331 -0.3221 -0.0423
  669MOL0     O90188   3.226   7.143   3.874 -0.2089  0.3978  0.6419
  669MOL0     C90189   3.345   7.081   3.821  0.4545  0.3538  0.2560
  669MOL0     C90190   3.447   7.161   3.903  0.7360  1.1820 -0.1962
  669MOL0     C90191   3.595   7.112   3.890  0.5522 -0.5077 -0.1395
  669MOL0     C90192   3.613   7.011   3.999 -0.1544  0.6675  0.2504
  669MOL0     C90193   3.762   6.959   4.013 -0.3431  0.1947  0.0120
  669MOL0     C90194   3.863   7.064   4.029  0.1233 -0.4332 -0.1128
  669MOL0     C90195   4.009   7.023   4.045  0.7039 -0.0242  0.5304
  669MOL0     C90196   4.104   7.129   4.023 -0.0572 -0.1902  0.4925
  669MOL0     N90197   4.244   7.077   4.021 -0.0511  0.2855  0.6878
  669MOL0     C90198   4.310   7.055   3.904 -0.5052  0.1786 -0.0811
  669MOL0     C90199   4.434   7.015   3.940  0.4817 -0.4417  0.5876
  669MOL0     C90200   4.540   6.982   3.840 -0.7919 -0.2707  0.4071
  669MOL0     C90201   4.679   7.021   3.910 -0.5587 -0.0276 -0.7959
  669MOL0     C90202   4.791   7.005   3.813  0.2381 -0.1376  1.5223
  669MOL0     C90203   4.922   7.047   3.883 -0.4955 -1.1628  0.5574
  669MOL0     O90204   5.038   7.004   3.811  0.2261  0.2211  0.4390
  669MOL0     C90205   5.153   7.067   3.821 -0.9200  0.2613 -0.2237
  669MOL0     C90206   5.251   7.030   3.729  0.1817 -0.9414 -0.8106
  669MOL0     C90207   5.387   7.080   3.733  0.2144 -0.0655 -0.4744
  669MOL0     C90208   5.426   7.167   3.840 -0.7056  0.4488 -0.1068
  669MOL0     C90209   5.565   7.222   3.859  0.1118  0.9360  0.4240
  669MOL0     O90210   5.606   7.309   3.968  0.1308 -0.2110 -0.5920
  669MOL0     C90211   5.745   7.338   3.961 -0.2512 -0.2468 -0.0592
  669MOL0     C90212   5.830   7.307   4.065  0.3382 -0.6787 -1.7483
  669MOL0     C90213   5.957   7.364   4.072  0.5982  0.7075 -0.5407
  669MOL0     C90214   6.007   7.454   3.978  1.0997 -0.0410 -0.0102
  669MOL0     O90215   6.128   7.507   3.978 -1.0102  0.1222  0.1779
  669MOL0     C90216   6.228   7.471   4.071 -0.5727 -0.0199 -0.1311
  669MOL0     C90217   6.346   7.565   4.043 -1.5885  0.2415 -0.9599
  669MOL0     C90218   6.340   7.700   4.109 -0.0607 -0.0210  0.5042
  669MOL0     C90219   6.279   7.808   4.021 -0.9886 -0.4158 -0.3895
  669MOL0     C90220   6.336   7.937   4.051 -0.8978 -0.9937  0.1611
  669MOL0     C90221   6.308   8.042   3.946  0.0391  0.0333 -0.5098
  669MOL0     C90222   6.158   8.074   3.959  0.5552 -0.3566 -0.2981
  669MOL0     C90223   6.081   8.116   3.830 -0.0739 -0.0516  0.5867
  669MOL0    Cl90224   5.932   8.196   3.862  0.1062 -0.2637  0.0154
  669MOL0     C90225   5.919   7.475   3.873 -0.0903  0.1667  1.0024
  669MOL0     C90226   5.793   7.415   3.856 -0.2231  0.6046  0.6831
  669MOL0     O90227   5.643   7.168   3.781  0.3067 -0.0113  0.5308
  669MOL0     C90228   5.322   7.201   3.931  1.0933 -0.9367  0.7695
  669MOL0     C90229   5.190   7.145   3.926  0.3461 -0.2612 -0.0205
  669MOL0     N90230   4.445   7.033   4.078  0.6470  0.9430  0.1957
  669MOL0     N90231   4.331   7.055   4.121 -0.3081 -0.9493 -1.3533
  669MOL0     C90232   3.082   7.032   3.721  0.4787 -0.2804  0.8316
  669MOL0     C90233   2.948   7.014   3.682 -0.4334  0.2926 -0.1009
  669MOL0     C90234   2.545   6.818   3.736  0.4128  0.4916  0.0309
  669MOL0     C90235   2.468   6.876   3.833  0.0866 -0.7038  0.0656
  669MOL0     C90236   2.340   6.850   3.869  0.2306  0.6713  0.2249
  669MOL0     C90237   2.273   6.745   3.804 -0.2225 -0.4771 -0.8408
  669MOL0     O90238   2.145   6.713   3.851  0.2794  0.2241 -0.5914
  669MOL0     C90239   2.097   6.581   3.817  0.3161  0.4869 -0.1435
  669MOL0     C90240   2.177   6.462   3.857  0.1274  0.4628 -0.4671
  669MOL0     C90241   2.102   6.326   3.844  0.4555 -0.1318  0.6360
  669MOL0     C90242   2.089   6.261   3.977  0.8665 -0.1813 -0.0711
  669MOL0     C90243   2.063   6.122   3.969  0.4438 -0.5106  0.4187
  669MOL0     C90244   2.029   6.003   3.965  0.2054 -0.2708  0.2406
  669MOL0     C90245   2.334   6.681   3.701 -0.2998  0.3696 -0.2493
  669MOL0     C90246   2.473   6.712   3.666 -0.0257  0.4921  0.1667
  669MOL0     C90247   2.537   6.630   3.552  0.3066 -0.3648 -0.3009
  669MOL0     H90248   2.801   7.133   3.960  1.3569 -0.9497  2.0019
  669MOL0     H90249   3.035   7.187   4.011  2.5976  1.0679 -0.0080
  669MOL0     H90250   3.348   6.974   3.842 -1.6442  0.0708 -0.6927
  669MOL0     H90251   3.361   7.098   3.714 -0.5886 -3.1854 -0.5811
  669MOL0     H90252   3.421   7.156   4.009  1.2597  0.6851 -0.0821
  669MOL0     H90253   3.442   7.265   3.870 -2.3357  1.3239  0.4492
  669MOL0     H90254   3.653   7.202   3.914 -2.4733  0.6145  4.1806
  669MOL0     H90255   3.615   7.087   3.786 -1.3712  1.1735 -0.9949
  669MOL0     H90256   3.601   7.052   4.100 -2.6350 -2.1937  1.2566
  669MOL0     H90257   3.546   6.925   4.011 -3.5494  3.3156  1.8772
  669MOL0     H90258   3.772   6.897   4.102  1.6773  1.6242  0.8699
  669MOL0     H90259   3.800   6.901   3.928 -0.1952  0.9398 -0.4372
  669MOL0     H90260   3.861   7.118   3.933 -0.2521 -3.1898 -1.7674
  669MOL0     H90261   3.831   7.135   4.105  0.3495  0.5628 -0.9233
  669MOL0     H90262   4.024   6.942   3.972  0.6795 -0.8300  1.4038
  669MOL0     H90263   4.022   6.975   4.142 -0.7329 -2.6585 -0.4598
  669MOL0     H90264   4.098   7.179   3.926  2.3114  1.2984  1.0328
  669MOL0     H90265   4.094   7.194   4.111  1.8814 -0.7559  1.1679
  669MOL0     H90266   4.271   7.056   3.803 -0.6051 -0.7356 -0.0578
  669MOL0     H90267   4.539   6.877   3.811 -0.8765 -0.7454  2.0843
  669MOL0     H90268   4.539   7.045   3.750 -1.9818  2.6652  2.3253
  669MOL0     H90269   4.676   7.126   3.937  1.1605  0.0056 -0.6184
  669MOL0     H90270   4.705   6.961   3.998 -0.9149 -2.0226 -1.9701
  669MOL0     H90271   4.773   7.073   3.728  6.0433  0.5272  0.4300
  669MOL0     H90272   4.795   6.900   3.782  1.2672  0.1637  0.5408
  669MOL0     H90273   4.924   7.014   3.987 -1.5865  2.4850  1.8811
  669MOL0     H90274   4.914   7.156   3.889 -1.7245 -1.2663  1.0337
  669MOL0     H90275   5.225   6.965   3.646 -2.4795  0.7277 -1.3967
  669MOL0     H90276   5.462   7.042   3.664  1.9279  0.5837  0.9361
  669MOL0     H90277   5.781   7.251   4.144  1.2372  2.0529  0.9440
  669MOL0     H90278   6.027   7.350   4.154  0.8522  2.2642 -0.4474
  669MOL0     H90279   6.178   7.473   4.169 -0.0939 -1.4365  0.1549
  669MOL0     H90280   6.256   7.367   4.059  3.7313  0.9956 -0.3416
  669MOL0     H90281   6.426   7.501   4.082 -2.0368 -0.7225 -1.5774
  669MOL0     H90282   6.372   7.574   3.937 -0.7531  0.0414 -0.7781
  669MOL0     H90283   6.280   7.707   4.201 -1.5346  2.2391 -0.5148
  669MOL0     H90284   6.442   7.722   4.141 -0.5523  1.9658  0.8589
  669MOL0     H90285   6.170   7.800   4.021 -1.2578  2.2579  0.4519
  669MOL0     H90286   6.331   7.782   3.928  4.3019 -0.2935  2.1196
  669MOL0     H90287   6.445   7.921   4.052 -0.5547  0.9484 -0.6851
  669MOL0     H90288   6.308   7.990   4.142 -2.3922 -0.0106 -0.8160
  669MOL0     H90289   6.364   8.133   3.967  0.4768  0.3967 -3.0058
  669MOL0     H90290   6.318   8.004   3.844 -3.3731  1.0645 -1.3435
  669MOL0     H90291   6.139   8.157   4.027 -0.7963 -1.7582  1.1012
  669MOL0     H90292   6.104   7.993   4.008  1.1603  0.2038  1.3564
  669MOL0     H90293   6.145   8.184   3.774  1.2055  1.6829  3.8485
  669MOL0     H90294   6.059   8.024   3.775 -2.0850  1.3102 -1.0502
  669MOL0     H90295   5.965   7.527   3.789 -1.5459 -0.5548 -0.2808
  669MOL0     H90296   5.726   7.438   3.775 -2.1800 -1.3362  1.6304
  669MOL0     H90297   5.338   7.280   4.004  1.7248  0.7508 -1.0917
  669MOL0     H90298   5.110   7.167   3.997 -2.3389  0.3780 -3.0318
  669MOL0     H90299   3.168   7.018   3.656  0.2336  0.7119  0.2763
  669MOL0     H90300   2.936   6.958   3.590  1.8593 -0.3949 -0.0287
  669MOL0     H90301   2.525   6.942   3.898  1.5264 -2.5547  0.7626
  669MOL0     H90302   2.280   6.900   3.943 -4.5251 -3.2488 -0.4608
  669MOL0     H90303   2.070   6.575   3.711  0.2741  2.0963 -0.2442
  669MOL0     H90304   2.005   6.569   3.875 -0.6868 -1.0646 -1.9436
  669MOL0     H90305   2.206   6.484   3.960  0.5384  1.1258 -0.7188
  669MOL0     H90306   2.278   6.463   3.815 -0.1879  0.7143 -1.2197
  669MOL0     H90307   2.162   6.272   3.770 -1.7541 -2.5501  0.4529
  669MOL0     H90308   2.011   6.349   3.789  1.3991  2.9191  0.1972
  669MOL0     H90309   2.189   6.272   4.021  2.2890 -1.7242 -2.6416
  669MOL0     H90310   2.010   6.308   4.036 -0.1575 -0.9565 -0.8011
  669MOL0     H90311   2.006   5.898   3.966 -1.0755 -0.1284  3.8660
  669MOL0     H90312   2.287   6.601   3.645 -0.1953 -0.6584  1.0913
  669MOL0     H90313   2.588   6.684   3.471  1.5885 -0.9899  0.0605
  669MOL0     H90314   2.614   6.574   3.607 -0.3694  1.0348  2.1938
  669MOL0     H90315   2.460   6.566   3.507 -0.3534  0.1676  0.0586
  670MOL0     O90316   9.871   8.777   5.083 -0.2005  0.0881  0.6779
  670MOL0     C90317   9.831   8.665   5.106 -0.3807 -0.8027  0.0943
  670MOL0     O90318   9.912   8.561   5.126  0.1161 -0.2710 -0.2319
  670MOL0     C90319  10.050   8.567   5.099 -0.0075 -0.3766 -0.2488
  670MOL0     C90320  10.131   8.681   5.101 -0.7150  0.2475 -0.5673
  670MOL0     C90321  10.266   8.676   5.061 -0.5906 -1.0074 -0.3793
  670MOL0     C90322  10.328   8.555   5.031  0.9346  0.1929 -0.6025
  670MOL0     O90323  10.446   8.537   4.961 -0.3388  0.2281 -0.2471
  670MOL0     C90324  10.542   8.635   4.974 -0.2477  0.3286 -0.3622
  670MOL0     C90325  10.661   8.586   4.904  0.3076  0.0794  0.2291
  670MOL0     C90326  10.769   8.694   4.906  0.4776  0.9391 -0.0066
  670MOL0     C90327  10.906   8.627   4.904 -0.1645  0.4478  0.4099
  670MOL0     C90328  11.025   8.728   4.927  0.2665  0.5962 -0.0554
  670MOL0     C90329  11.155   8.656   4.898  0.4635  0.7137  0.4564
  670MOL0     C90330  11.276   8.748   4.897  1.4610 -0.6067 -0.7705
  670MOL0     C90331  11.273   8.841   4.779  0.1371 -0.6356  0.5985
  670MOL0     N90332  11.314   8.785   4.654  0.8439  1.1719 -0.5450
  670MOL0     C90333  11.435   8.718   4.632 -0.2980  0.3889 -0.2866
  670MOL0     C90334  11.448   8.693   4.501 -0.4831 -0.3822 -0.7063
  670MOL0     C90335  11.553   8.611   4.437 -0.4625 -0.5763 -0.4408
  670MOL0     C90336  11.699   8.658   4.476 -0.5188  0.7808  1.1887
  670MOL0     C90337  11.719   8.801   4.430  0.0233  0.6818 -0.4157
  670MOL0     C90338  11.864   8.860   4.457  0.0846 -0.0829  0.2652
  670MOL0     O90339  11.936   8.888   4.337 -0.2288 -0.1561 -0.0748
  670MOL0     C90340  12.048   8.968   4.341 -0.5031 -0.0177 -0.2008
  670MOL0     C90341  12.089   9.037   4.222  0.0940  0.4214  0.9660
  670MOL0     C90342  12.187   9.133   4.218 -0.0614  0.3759 -0.3863
  670MOL0     C90343  12.274   9.156   4.324 -0.1812  0.1684 -0.1898
  670MOL0     C90344  12.393   9.244   4.313 -0.3542  0.0130 -0.2523
  670MOL0     O90345  12.459   9.263   4.434  0.0459 -0.0147 -1.0899
  670MOL0     C90346  12.581   9.320   4.435  0.1221  1.5916 -0.3083
  670MOL0     C90347  12.693   9.242   4.398 -0.4809 -0.6088  0.0583
  670MOL0     C90348  12.817   9.297   4.392  0.0592  1.2800  0.7815
  670MOL0     C90349  12.836   9.428   4.435  0.3382  0.4833  0.2723
  670MOL0     O90350  12.953   9.499   4.436 -0.2350  0.9396  0.0639
  670MOL0     C90351  13.075   9.436   4.398  0.2230 -0.7570  0.4636
  670MOL0     C90352  13.192   9.524   4.457 -0.0190 -0.5471  0.3094
  670MOL0     C90353  13.313   9.441   4.480  0.3125 -0.2796 -0.6994
  670MOL0     C90354  13.429   9.522   4.529 -0.6313  0.4102  0.2640
  670MOL0     C90355  13.548   9.435   4.558  0.1976 -0.1984  0.6926
  670MOL0     C90356  13.522   9.335   4.675 -0.4761 -0.4467  0.6814
  670MOL0     C90357  13.654   9.258   4.725 -0.3122 -0.2313  0.4936
  670MOL0     C90358  13.617   9.158   4.836 -0.7537  0.2301  0.1062
  670MOL0    Cl90359  13.515   9.230   4.955  0.3550  0.0791  0.3147
  670MOL0     C90360  12.722   9.495   4.495 -0.9205  0.5691  0.0788
  670MOL0     C90361  12.597   9.440   4.502  0.8104 -0.0769  0.7569
  670MOL0     O90362  12.418   9.299   4.201 -0.2740 -0.5102 -0.6858
  670MOL0     C90363  12.233   9.089   4.440 -0.3842  0.0286 -0.1751
  670MOL0     C90364  12.129   8.994   4.449  0.4443 -0.4758 -0.1069
  670MOL0     N90365  11.328   8.739   4.444 -0.0776 -0.3459 -0.4686
  670MOL0     N90366  11.241   8.779   4.539 -0.0340  1.0166  1.0758
  670MOL0     C90367  10.255   8.435   5.044 -0.2121  0.2263 -0.1839
  670MOL0     C90368  10.120   8.445   5.071  0.0139 -0.0140 -0.0179
  670MOL0     C90369   9.682   8.655   5.099  0.4276 -0.1014 -0.5868
  670MOL0     C90370   9.612   8.778   5.085  0.8499 -0.6680 -0.2674
  670MOL0     C90371   9.474   8.770   5.112 -0.7485 -0.2868 -0.3777
  670MOL0     C90372   9.407   8.650   5.148  0.0237 -0.1674 -0.7789
  670MOL0     O90373   9.266   8.660   5.164 -0.0261 -0.3623 -0.3162
  670MOL0     C90374   9.211   8.564   5.261 -0.9747  0.0438  0.1194
  670MOL0     C90375   9.080   8.628   5.307  0.2413 -0.7779 -0.3902
  670MOL0     C90376   8.962   8.628   5.207  0.2045 -0.7265  0.7255
  670MOL0     C90377   8.831   8.698   5.254  0.0969  0.0133 -0.4177
  670MOL0     C90378   8.746   8.722   5.142  0.5210  0.4574 -0.0069
  670MOL0     C90379   8.666   8.729   5.053 -0.1406 -0.6630  0.0271
  670MOL0     C90380   9.481   8.530   5.149  0.3685 -0.9866 -0.6156
  670MOL0     C90381   9.619   8.529   5.127 -0.0944  0.6198 -0.0881
  670MOL0     C90382   9.680   8.391   5.107 -0.0744  0.5611 -0.2955
  670MOL0     H90383  10.089   8.775   5.133 -1.2219 -1.4350  4.8930
  670MOL0     H90384  10.311   8.770   5.031 -1.5867 -1.0968 -2.3327
  670MOL0     H90385  10.508   8.730   4.931 -0.3021 -1.2438 -4.2455
  670MOL0     H90386  10.570   8.643   5.079 -1.9907 -3.8575  0.6286
  670MOL0     H90387  10.643   8.570   4.797 -0.7660 -1.1813  0.5663
  670MOL0     H90388  10.684   8.487   4.945 -1.0795 -1.3405 -2.1717
  670MOL0     H90389  10.772   8.759   4.993  3.5406  0.1959  0.5488
  670MOL0     H90390  10.750   8.759   4.820 -1.0069  1.1352  0.4356
  670MOL0     H90391  10.912   8.564   4.993  0.3262 -1.6993 -1.0684
  670MOL0     H90392  10.914   8.573   4.810 -1.7584  0.0662  0.4724
  670MOL0     H90393  11.000   8.805   4.854 -1.8694  0.6484  0.6474
  670MOL0     H90394  11.025   8.766   5.030  0.0039  0.0966  0.1330
  670MOL0     H90395  11.182   8.578   4.969  0.2359  2.0140  2.0295
  670MOL0     H90396  11.146   8.614   4.797 -0.7131  2.1188 -0.0622
  670MOL0     H90397  11.370   8.693   4.902  1.0886 -1.1589  1.5521
  670MOL0     H90398  11.274   8.802   4.993 -1.1996  0.0570 -1.1035
  670MOL0     H90399  11.180   8.897   4.765  0.6367 -0.1032 -0.7891
  670MOL0     H90400  11.348   8.919   4.799 -3.3686  2.2953  3.8615
  670MOL0     H90401  11.503   8.677   4.706  1.5532 -2.4051 -3.2677
  670MOL0     H90402  11.544   8.506   4.464  1.6094 -0.9639 -1.1286
  670MOL0     H90403  11.542   8.609   4.328 -2.0215  1.5474 -0.3992
  670MOL0     H90404  11.712   8.658   4.584 -0.2510  0.3101  1.1589
  670MOL0     H90405  11.775   8.596   4.428 -1.5549 -0.5535  1.2224
  670MOL0     H90406  11.651   8.864   4.487  1.6790  1.9679  0.2379
  670MOL0     H90407  11.696   8.808   4.323 -1.0181 -4.3553 -0.7268
  670MOL0     H90408  11.929   8.785   4.504  1.2161 -0.9948 -2.5283
  670MOL0     H90409  11.849   8.950   4.517 -2.2701  0.3369 -0.8589
  670MOL0     H90410  12.025   9.031   4.135  0.4087  0.1549  0.7508
  670MOL0     H90411  12.199   9.192   4.128 -3.3073 -0.5171 -1.5763
  670MOL0     H90412  12.685   9.136   4.379  0.7313 -0.2791 -2.7915
  670MOL0     H90413  12.890   9.226   4.355 -0.2652  0.8365  0.9865
  670MOL0     H90414  13.093   9.339   4.446  3.2832 -2.0377 -2.8054
  670MOL0     H90415  13.071   9.425   4.290  0.2417 -0.3319  0.4194
  670MOL0     H90416  13.218   9.602   4.384 -0.7009 -0.9395 -0.3660
  670MOL0     H90417  13.150   9.574   4.545  0.8678 -0.0286  0.4472
  670MOL0     H90418  13.278   9.364   4.549 -4.1260  0.4416 -1.8508
  670MOL0     H90419  13.338   9.378   4.394 -1.4442 -1.7943 -0.1552
  670MOL0     H90420  13.411   9.584   4.618  1.1742 -0.0778  1.0216
  670MOL0     H90421  13.460   9.581   4.443 -0.2620  0.9959  0.7860
  670MOL0     H90422  13.630   9.503   4.579  1.4767 -1.2914 -0.5538
  670MOL0     H90423  13.565   9.383   4.463 -0.6199 -0.1940  0.5319
  670MOL0     H90424  13.486   9.397   4.758  0.2288  1.0492 -0.0931
  670MOL0     H90425  13.452   9.257   4.643 -0.1599 -0.4687  0.0268
  670MOL0     H90426  13.721   9.339   4.756 -0.1476 -0.3316  0.3988
  670MOL0     H90427  13.703   9.197   4.649  0.6364  0.5642  0.4505
  670MOL0     H90428  13.557   9.078   4.792 -1.0410 -0.9057  2.4123
  670MOL0     H90429  13.701   9.112   4.889  0.3187  1.0352 -0.8270
  670MOL0     H90430  12.736   9.587   4.552  1.5223  0.4486 -0.2085
  670MOL0     H90431  12.517   9.502   4.541 -1.5033 -3.2805  1.5529
  670MOL0     H90432  12.299   9.089   4.525  0.5494 -2.5094 -0.8038
  670MOL0     H90433  12.110   8.941   4.542 -0.0754 -1.7945 -0.9216
  670MOL0     H90434  10.298   8.339   5.016 -1.0711 -0.2543  0.1393
  670MOL0     H90435  10.052   8.360   5.073  2.7670 -2.3792  0.0667
  670MOL0     H90436   9.659   8.876   5.080 -0.3745  0.0939  1.9082
  670MOL0     H90437   9.416   8.861   5.111  0.6733  0.6920 -2.5551
  670MOL0     H90438   9.280   8.556   5.346 -1.0155  0.3216  0.1796
  670MOL0     H90439   9.203   8.470   5.207  0.3654  0.1266 -0.2511
  670MOL0     H90440   9.100   8.733   5.329 -1.9721 -0.3604 -0.1162
  670MOL0     H90441   9.035   8.572   5.390 -3.2849 -1.3605 -2.4777
  670MOL0     H90442   8.933   8.524   5.186 -0.7191 -0.6874  1.7088
  670MOL0     H90443   9.004   8.683   5.123  1.3530 -0.3107  1.5504
  670MOL0     H90444   8.776   8.629   5.319  0.1499  2.2509  2.1540
  670MOL0     H90445   8.857   8.784   5.317 -0.0824  0.6424 -1.1870
  670MOL0     H90446   8.625   8.742   4.955  0.3368 -1.7988 -0.3323
  670MOL0     H90447   9.420   8.440   5.158 -0.4292 -0.4064 -0.0556
  670MOL0     H90448   9.598   8.318   5.106 -2.4093  3.0158 -0.0502
  670MOL0     H90449   9.742   8.375   5.019  1.2508  1.4794  0.4347
  670MOL0     H90450   9.743   8.366   5.193 -1.2276  2.8483  1.3204
  671MOL0     O90451  10.589   6.911   2.938 -0.5205 -0.2639 -0.0096
  671MOL0     C90452  10.574   6.979   3.032  0.9478 -0.4274 -0.6412
  671MOL0     O90453  10.649   6.977   3.145 -0.2915  0.3667  0.1593
  671MOL0     C90454  10.757   6.898   3.164 -1.3030  0.2974 -0.5684
  671MOL0     C90455  10.854   6.955   3.252 -0.0850 -0.4865  0.6003
  671MOL0     C90456  10.977   6.892   3.265  0.3704  0.4960 -0.3784
  671MOL0     C90457  11.009   6.775   3.199  0.5350  0.4247 -0.3839
  671MOL0     O90458  11.147   6.744   3.216 -0.0190 -0.3573 -0.0697
  671MOL0     C90459  11.194   6.638   3.139  0.2610  0.3836  0.3147
  671MOL0     C90460  11.348   6.653   3.128 -0.2588 -0.6939 -0.5218
  671MOL0     C90461  11.428   6.527   3.099  0.2515  0.3781  0.6562
  671MOL0     C90462  11.577   6.547   3.140 -0.2427 -0.1087 -0.0869
  671MOL0     C90463  11.669   6.440   3.077 -0.0854  0.6644 -0.1170
  671MOL0     C90464  11.643   6.306   3.138  0.5373 -0.5432 -0.2068
  671MOL0     C90465  11.754   6.202   3.096  0.1902 -0.0866  0.1238
  671MOL0     C90466  11.734   6.073   3.181 -0.0197  0.0475  0.2638
  671MOL0     N90467  11.823   5.958   3.151  0.0146 -1.0361 -0.1064
  671MOL0     C90468  11.798   5.859   3.059 -0.4083 -0.2728 -0.1425
  671MOL0     C90469  11.914   5.790   3.054 -0.0025  0.6747 -0.7104
  671MOL0     C90470  11.947   5.660   2.977  0.1091  0.0511  0.2251
  671MOL0     C90471  11.979   5.693   2.831  0.4654  0.1695 -0.2833
  671MOL0     C90472  11.941   5.576   2.736  0.3540 -1.0963 -0.3907
  671MOL0     C90473  11.986   5.604   2.586  0.3443 -0.1385  0.1180
  671MOL0     O90474  12.130   5.612   2.573 -0.1259 -0.2075 -0.1797
  671MOL0     C90475  12.186   5.656   2.456  0.0979 -0.3184  0.3923
  671MOL0     C90476  12.116   5.714   2.347 -0.5338 -0.2671 -0.5148
  671MOL0     C90477  12.182   5.736   2.229  1.1116 -0.3112 -0.3682
  671MOL0     C90478  12.324   5.727   2.217  0.9642  0.5551  0.5588
  671MOL0     C90479  12.404   5.763   2.094  0.3014 -0.3940  0.3020
  671MOL0     O90480  12.538   5.737   2.100 -0.5512 -0.0604  0.5574
  671MOL0     C90481  12.610   5.814   2.009  1.7490  0.4553 -0.6232
  671MOL0     C90482  12.719   5.754   1.951 -0.3934  0.4605 -0.4176
  671MOL0     C90483  12.813   5.829   1.874 -0.0336 -0.8575  0.3131
  671MOL0     C90484  12.795   5.964   1.861  0.7360 -0.4551 -0.1335
  671MOL0     O90485  12.896   6.033   1.801  0.5159 -0.7562 -0.4840
  671MOL0     C90486  12.850   6.163   1.741  0.1458 -0.4945 -0.3800
  671MOL0     C90487  12.957   6.217   1.635  0.1486  0.7414 -1.0016
  671MOL0     C90488  12.932   6.355   1.583 -0.2604 -0.1968 -1.0508
  671MOL0     C90489  12.927   6.448   1.707  0.5668 -0.7659  0.1258
  671MOL0     C90490  12.902   6.589   1.654 -1.0252 -0.1925 -0.5348
  671MOL0     C90491  12.764   6.619   1.597  1.1286  0.7131 -0.4098
  671MOL0     C90492  12.753   6.773   1.562  0.0084 -1.2537 -0.1928
  671MOL0     C90493  12.800   6.811   1.421  0.2204 -0.5778  0.4135
  671MOL0    Cl90494  12.967   6.772   1.390 -0.1252 -0.0689 -0.2321
  671MOL0     C90495  12.684   6.017   1.916  0.4800 -0.6154  0.2541
  671MOL0     C90496  12.587   5.951   1.990 -0.1339  0.8883  0.0899
  671MOL0     O90497  12.339   5.811   1.996  0.1136 -0.1010 -0.0314
  671MOL0     C90498  12.384   5.670   2.329  0.2669 -0.2547 -0.2199
  671MOL0     C90499  12.328   5.638   2.450  1.1196 -0.2087  0.1500
  671MOL0     N90500  12.005   5.852   3.135 -0.0946  0.4444  0.7345
  671MOL0     N90501  11.951   5.953   3.199  0.3238 -0.2564  1.1190
  671MOL0     C90502  10.915   6.715   3.109  0.0872 -0.4199 -0.8251
  671MOL0     C90503  10.787   6.779   3.100  0.5186  0.6366  0.0411
  671MOL0     C90504  10.439   7.037   3.038 -0.5151 -0.7202  0.2507
  671MOL0     C90505  10.337   6.961   3.088 -0.2648 -0.1918 -0.1850
  671MOL0     C90506  10.205   6.999   3.086 -0.2627 -0.1991 -0.1168
  671MOL0     C90507  10.170   7.122   3.026 -1.1286  0.3335 -0.3641
  671MOL0     O90508  10.044   7.169   3.027  0.3449  0.0229 -0.2574
  671MOL0     C90509   9.928   7.086   3.055 -0.4542 -0.2677  0.2980
  671MOL0     C90510   9.796   7.162   3.008 -0.6817  0.5682 -0.7430
  671MOL0     C90511   9.673   7.080   3.045  0.3133 -1.1679 -0.5456
  671MOL0     C90512   9.550   7.166   3.019  0.7053 -0.4389 -0.8895
  671MOL0     C90513   9.428   7.080   3.020  0.2376 -1.0982 -0.8605
  671MOL0     C90514   9.332   7.012   3.027 -0.3775 -0.1955 -0.3091
  671MOL0     C90515  10.273   7.206   2.980 -0.9938 -0.0310  0.0301
  671MOL0     C90516  10.408   7.166   2.989  0.0679 -0.1448  0.2083
  671MOL0     C90517  10.519   7.259   2.942  0.2954 -0.1077 -0.3554
  671MOL0     H90518  10.855   7.047   3.310  2.5191  0.0184 -0.1358
  671MOL0     H90519  11.046   6.943   3.332  0.5605  3.6724 -2.7342
  671MOL0     H90520  11.166   6.541   3.182  1.2075  1.5398  3.9695
  671MOL0     H90521  11.145   6.660   3.044 -2.6230  0.0417  1.6295
  671MOL0     H90522  11.370   6.693   3.227 -2.9603 -1.0956  0.3344
  671MOL0     H90523  11.362   6.730   3.050 -1.7027 -1.4102 -1.5425
  671MOL0     H90524  11.414   6.503   2.994 -1.2537 -0.9255  1.1149
  671MOL0     H90525  11.383   6.451   3.164  0.7202 -0.6954 -0.2641
  671MOL0     H90526  11.607   6.642   3.095 -1.2553  0.3613  0.1942
  671MOL0     H90527  11.596   6.555   3.247  1.3640 -0.8530 -0.2935
  671MOL0     H90528  11.642   6.424   2.972 -2.7221  2.3896  0.2227
  671MOL0     H90529  11.775   6.465   3.085  1.0081 -2.9688 -1.2741
  671MOL0     H90530  11.630   6.303   3.246 -0.2494  1.5206 -0.2048
  671MOL0     H90531  11.556   6.257   3.094 -1.9578  2.0948  1.4212
  671MOL0     H90532  11.852   6.240   3.124  0.4269 -2.2639  2.6303
  671MOL0     H90533  11.741   6.178   2.991  0.1368 -1.4298  0.4248
  671MOL0     H90534  11.751   6.098   3.286 -0.4752  1.1282  0.0969
  671MOL0     H90535  11.632   6.035   3.166  0.7960 -1.0194 -3.7151
  671MOL0     H90536  11.706   5.848   3.002 -0.8968  0.4805  0.4782
  671MOL0     H90537  12.029   5.601   3.019 -0.7430  0.0489  2.0046
  671MOL0     H90538  11.853   5.604   2.976  0.3042 -0.2876 -1.3635
  671MOL0     H90539  11.915   5.774   2.797 -0.9596 -1.2595 -1.1009
  671MOL0     H90540  12.087   5.715   2.829  0.2259  1.6991  1.2316
  671MOL0     H90541  11.832   5.570   2.745  0.1168  0.8316 -1.3541
  671MOL0     H90542  11.981   5.484   2.780 -2.7363 -1.3610  2.2427
  671MOL0     H90543  11.940   5.697   2.551  1.2891 -0.6696 -2.8487
  671MOL0     H90544  11.952   5.523   2.521 -0.5249 -0.3194  0.7834
  671MOL0     H90545  12.007   5.717   2.350 -0.6321 -0.8556 -2.2356
  671MOL0     H90546  12.136   5.778   2.140  0.0933  0.1749  0.3649
  671MOL0     H90547  12.732   5.650   1.978  0.1346  0.6008 -0.1102
  671MOL0     H90548  12.897   5.778   1.827 -0.3235 -1.0216 -0.0274
  671MOL0     H90549  12.759   6.154   1.681  0.4797 -2.9807 -0.6133
  671MOL0     H90550  12.824   6.234   1.821 -1.3673 -0.5294 -0.8167
  671MOL0     H90551  13.056   6.224   1.682  0.8803  0.1066 -2.4069
  671MOL0     H90552  12.957   6.140   1.558  0.3640 -0.2060 -0.0690
  671MOL0     H90553  13.013   6.387   1.516  0.1164  1.5492  0.1533
  671MOL0     H90554  12.842   6.356   1.522 -0.2482  0.6659 -1.0700
  671MOL0     H90555  13.023   6.433   1.757 -0.0121  0.9428  1.8792
  671MOL0     H90556  12.849   6.436   1.783  0.6233  0.6096  0.4251
  671MOL0     H90557  12.986   6.603   1.585  1.0065 -3.1934  1.1082
  671MOL0     H90558  12.910   6.657   1.739 -1.6279 -0.9300  0.1233
  671MOL0     H90559  12.739   6.561   1.508 -2.8770  0.7879  0.4785
  671MOL0     H90560  12.686   6.591   1.669  2.1207 -0.4609  0.2550
  671MOL0     H90561  12.801   6.831   1.641 -2.6348  3.3452 -1.5991
  671MOL0     H90562  12.656   6.823   1.570  1.6076  2.2945 -1.1708
  671MOL0     H90563  12.737   6.755   1.352 -0.9036  0.9658  0.1538
  671MOL0     H90564  12.785   6.918   1.409 -1.0072 -0.4854  2.3131
  671MOL0     H90565  12.661   6.123   1.919 -1.7215 -1.0676  1.7444
  671MOL0     H90566  12.497   6.000   2.025 -0.8318  1.0173 -1.7628
  671MOL0     H90567  12.491   5.671   2.347 -0.1536  0.0723  2.7266
  671MOL0     H90568  12.377   5.598   2.538 -1.6561 -1.2548  1.3480
  671MOL0     H90569  10.947   6.626   3.055 -1.9955 -1.3509 -0.6248
  671MOL0     H90570  10.712   6.735   3.035  1.3694 -1.4694  0.4003
  671MOL0     H90571  10.354   6.859   3.122 -0.4161 -1.4358 -3.5110
  671MOL0     H90572  10.128   6.942   3.137  1.4685 -1.6465  0.9994
  671MOL0     H90573   9.929   7.050   3.158 -3.5619 -0.8870  0.1885
  671MOL0     H90574   9.941   6.991   3.004  1.3558 -0.7764  1.5984
  671MOL0     H90575   9.810   7.158   2.899 -1.0304  0.5548 -0.7887
  671MOL0     H90576   9.801   7.261   3.055 -0.7284 -0.3275  1.2044
  671MOL0     H90577   9.676   7.053   3.151  0.2045 -2.0421 -0.7582
  671MOL0     H90578   9.674   6.994   2.977  0.6317 -0.0789 -1.9665
  671MOL0     H90579   9.536   7.244   3.095  0.6272  2.0529 -3.3243
  671MOL0     H90580   9.548   7.222   2.925 -1.9171 -0.2567 -0.8111
  671MOL0     H90581   9.247   6.947   3.039 -0.8505 -0.7152 -4.7612
  671MOL0     H90582  10.247   7.303   2.938 -0.4355  1.3191  2.6256
  671MOL0     H90583  10.524   7.246   2.833 -2.1150 -2.2560 -0.3017
  671MOL0     H90584  10.505   7.364   2.968  1.0582 -0.6233  2.5124
  671MOL0     H90585  10.617   7.231   2.981 -1.1860 -3.7537  1.1732
  672MOL0     O90586   0.696   3.124   8.154  0.4855  0.3221 -0.6760
  672MOL0     C90587   0.809   3.096   8.131 -0.3386  0.3801 -0.1138
  672MOL0     O90588   0.878   3.109   8.017 -0.6445 -0.4005  0.7690
  672MOL0     C90589   0.810   3.184   7.918  0.7092 -0.1272  0.7621
  672MOL0     C90590   0.700   3.129   7.846  0.2500  0.4236 -0.3210
  672MOL0     C90591   0.665   3.186   7.722  0.3293 -0.2732  0.3803
  672MOL0     C90592   0.735   3.307   7.676  0.4626 -0.4055  0.2963
  672MOL0     O90593   0.697   3.383   7.568  0.4578  0.1454 -0.5690
  672MOL0     C90594   0.591   3.327   7.481 -0.9944  0.2751  0.2897
  672MOL0     C90595   0.550   3.414   7.355 -0.1994  1.3129 -0.7770
  672MOL0     C90596   0.472   3.530   7.408 -0.4579 -0.9652 -0.2063
  672MOL0     C90597   0.472   3.639   7.295  0.4865 -0.2213 -0.5899
  672MOL0     C90598   0.406   3.776   7.341 -0.1227 -0.1253  0.2497
  672MOL0     C90599   0.410   3.874   7.223  0.3247 -0.8679  0.3403
  672MOL0     C90600   0.462   4.022   7.251  0.2085  0.9222  0.3264
  672MOL0     C90601   0.363   4.078   7.355 -0.2690 -0.1580 -0.6422
  672MOL0     N90602   0.367   4.220   7.386 -0.2392  0.1268  0.2288
  672MOL0     C90603   0.469   4.292   7.443  0.3488 -0.5174  0.2110
  672MOL0     C90604   0.415   4.412   7.461 -0.0943 -0.0025 -0.3968
  672MOL0     C90605   0.471   4.526   7.542  0.9928  0.4402  0.3130
  672MOL0     C90606   0.618   4.539   7.537  0.1883 -0.1709 -0.7018
  672MOL0     C90607   0.670   4.634   7.646  0.5235  0.3561  0.5350
  672MOL0     C90608   0.815   4.663   7.625 -0.2328 -0.3386 -0.7214
  672MOL0     O90609   0.859   4.759   7.728 -0.2682 -0.1294  0.1007
  672MOL0     C90610   0.993   4.787   7.741 -0.5753  0.0975  0.0506
  672MOL0     C90611   1.093   4.772   7.643  0.4530  0.7012  0.2811
  672MOL0     C90612   1.221   4.821   7.654  0.5987 -0.2514 -0.9360
  672MOL0     C90613   1.265   4.875   7.776  0.5138 -0.6473 -0.5555
  672MOL0     C90614   1.402   4.926   7.784 -0.0627 -0.8018  0.0543
  672MOL0     O90615   1.441   5.020   7.878 -0.5780  0.3475 -0.0070
  672MOL0     C90616   1.580   5.047   7.899 -0.5509 -0.0195 -0.7079
  672MOL0     C90617   1.599   5.179   7.937 -0.0647 -0.1609 -0.6609
  672MOL0     C90618   1.728   5.221   7.976 -0.2815  0.3450 -1.0769
  672MOL0     C90619   1.836   5.132   7.972 -0.4610  0.0027  0.1922
  672MOL0     O90620   1.971   5.165   8.005 -0.2051  0.8979  0.0071
  672MOL0     C90621   2.026   5.297   8.015  0.2878 -0.1103  0.6813
  672MOL0     C90622   2.167   5.270   7.971 -0.6833  0.4670 -0.0186
  672MOL0     C90623   2.257   5.224   8.089 -1.3365  0.5454 -0.2873
  672MOL0     C90624   2.384   5.151   8.056  0.3398  0.3205  0.0339
  672MOL0     C90625   2.483   5.196   7.957 -1.1416 -0.5378  0.3974
  672MOL0     C90626   2.551   5.312   8.004  0.5186  0.0329  0.4251
  672MOL0     C90627   2.650   5.390   7.908  0.4799  0.4806  0.1394
  672MOL0     C90628   2.675   5.532   7.969 -0.1895  0.1425  0.5027
  672MOL0    Cl90629   2.790   5.633   7.875  0.0033  0.0073  0.1374
  672MOL0     C90630   1.817   4.996   7.930 -0.0670 -0.7069 -0.4648
  672MOL0     C90631   1.689   4.955   7.897  0.0736 -0.2210 -0.2124
  672MOL0     O90632   1.477   4.881   7.697  0.3719  0.5932 -0.5635
  672MOL0     C90633   1.163   4.894   7.878 -0.8668  0.5620 -0.4562
  672MOL0     C90634   1.034   4.855   7.857 -0.2904 -1.1856  0.3001
  672MOL0     N90635   0.287   4.421   7.419 -0.3283  0.2298 -0.0901
  672MOL0     N90636   0.260   4.312   7.368  0.0813  0.3216 -0.5954
  672MOL0     C90637   0.836   3.365   7.753 -0.0361  0.0557 -0.0572
  672MOL0     C90638   0.871   3.302   7.872 -0.5105 -0.0253  0.5788
  672MOL0     C90639   0.889   3.033   8.246  0.8012 -0.1354  0.4056
  672MOL0     C90640   0.821   3.037   8.370  0.3372 -0.5090 -0.3988
  672MOL0     C90641   0.861   2.962   8.477 -0.3459  0.9170 -0.1930
  672MOL0     C90642   0.981   2.881   8.471  0.0859  0.3899 -0.9480
  672MOL0     O90643   1.030   2.800   8.575  0.0134 -0.8691 -0.1125
  672MOL0     C90644   0.977   2.827   8.703 -0.3119  0.4423  0.8947
  672MOL0     C90645   1.049   2.728   8.794  0.1718 -0.2197 -0.1696
  672MOL0     C90646   1.202   2.737   8.791  0.2586 -0.1746  0.0359
  672MOL0     C90647   1.268   2.652   8.679 -0.2338  0.1458  0.1853
  672MOL0     C90648   1.235   2.513   8.704  1.1245 -0.6219 -0.3525
  672MOL0     C90649   1.213   2.396   8.726 -1.1659 -0.1001 -0.0659
  672MOL0     C90650   1.051   2.867   8.344  0.1549  0.1032 -0.9157
  672MOL0     C90651   1.004   2.947   8.233  0.6794 -0.8309 -0.7881
  672MOL0     C90652   1.077   2.900   8.114 -0.0182 -0.3039  0.1614
  672MOL0     H90653   0.631   3.055   7.884 -0.8954  0.8131 -1.5739
  672MOL0     H90654   0.585   3.153   7.657  1.0726  0.7284 -1.1170
  672MOL0     H90655   0.632   3.232   7.445 -0.1275  1.1482 -1.1162
  672MOL0     H90656   0.506   3.296   7.544 -1.9226  0.6132 -0.7753
  672MOL0     H90657   0.486   3.362   7.284 -2.2084 -0.1036  1.8972
  672MOL0     H90658   0.650   3.434   7.316  1.6107 -1.6966  1.8683
  672MOL0     H90659   0.517   3.570   7.499  0.6893 -1.1850 -0.6645
  672MOL0     H90660   0.368   3.517   7.438 -0.8896 -0.3966 -1.3931
  672MOL0     H90661   0.572   3.662   7.258  1.0949  2.1927  2.1594
  672MOL0     H90662   0.411   3.596   7.215 -0.9707 -3.1644  1.8972
  672MOL0     H90663   0.301   3.762   7.369 -0.4720  2.9929  0.8088
  672MOL0     H90664   0.454   3.813   7.432 -0.5592 -0.8704  0.7942
  672MOL0     H90665   0.467   3.828   7.141 -0.1724  2.0560 -1.8015
  672MOL0     H90666   0.310   3.884   7.180  0.9003  2.3170 -0.5132
  672MOL0     H90667   0.443   4.072   7.155  0.2017 -1.0567 -0.7526
  672MOL0     H90668   0.564   4.041   7.284  0.7932  1.4910 -1.6868
  672MOL0     H90669   0.262   4.071   7.313 -0.1781  1.4951 -1.1848
  672MOL0     H90670   0.375   4.021   7.447  0.2020  1.3448  0.2577
  672MOL0     H90671   0.567   4.270   7.484  0.8189  1.5385  0.3058
  672MOL0     H90672   0.430   4.622   7.511 -0.9591 -1.1800 -2.5754
  672MOL0     H90673   0.440   4.518   7.647  3.5543  0.2657  1.1442
  672MOL0     H90674   0.662   4.441   7.559  0.5783  0.2210  0.2609
  672MOL0     H90675   0.641   4.566   7.433 -0.6063  1.5946 -0.4590
  672MOL0     H90676   0.641   4.584   7.738  0.0889  1.3584  0.9615
  672MOL0     H90677   0.604   4.721   7.635 -1.3301 -1.2866 -4.0909
  672MOL0     H90678   0.836   4.700   7.524 -1.7041 -1.3847 -1.4481
  672MOL0     H90679   0.872   4.574   7.650 -0.4314  0.0530  1.2732
  672MOL0     H90680   1.065   4.719   7.552  0.5147 -0.4757  0.9325
  672MOL0     H90681   1.295   4.808   7.575  3.5386 -1.8767  1.8488
  672MOL0     H90682   1.517   5.250   7.948 -0.5125 -0.9383  1.6688
  672MOL0     H90683   1.746   5.319   8.019  0.9161 -1.7951  4.1339
  672MOL0     H90684   1.975   5.364   7.946  0.7883 -0.9863 -0.5869
  672MOL0     H90685   2.015   5.331   8.118  1.0862  1.1602  0.3618
  672MOL0     H90686   2.174   5.201   7.886 -0.4236  1.6518 -0.9991
  672MOL0     H90687   2.223   5.360   7.941 -0.1735  0.4711  0.9170
  672MOL0     H90688   2.279   5.315   8.146  1.5571  0.3592 -0.9250
  672MOL0     H90689   2.200   5.155   8.152  0.2907  0.6971  1.4579
  672MOL0     H90690   2.348   5.051   8.028  2.6045 -0.9686  1.4661
  672MOL0     H90691   2.427   5.125   8.153 -1.3209  0.0405  0.7346
  672MOL0     H90692   2.437   5.215   7.859  1.0634  0.5364 -0.4976
  672MOL0     H90693   2.561   5.120   7.953 -0.4161  0.0817  1.9859
  672MOL0     H90694   2.474   5.385   8.030  0.5343 -0.0596  0.7310
  672MOL0     H90695   2.596   5.286   8.100 -0.8993  0.2847  1.1908
  672MOL0     H90696   2.611   5.408   7.808  0.0628  1.2760  0.4326
  672MOL0     H90697   2.748   5.342   7.902  0.3777  0.2954 -0.0449
  672MOL0     H90698   2.577   5.579   7.962  0.0130  0.3059 -2.1224
  672MOL0     H90699   2.717   5.513   8.069  2.0243 -0.1677 -0.4331
  672MOL0     H90700   1.897   4.923   7.925 -0.2520 -1.1730  2.2920
  672MOL0     H90701   1.661   4.854   7.868 -1.7011  0.1397  0.1207
  672MOL0     H90702   1.185   4.922   7.980 -0.2526 -2.2049  0.2598
  672MOL0     H90703   0.963   4.877   7.936  3.1248 -0.6153  3.5238
  672MOL0     H90704   0.878   3.461   7.726 -1.6669  1.0671  0.7902
  672MOL0     H90705   0.953   3.355   7.918 -1.7673  2.2507  0.3073
  672MOL0     H90706   0.726   3.090   8.379  0.7932  0.0518  1.7914
  672MOL0     H90707   0.806   2.963   8.571  1.0590  0.0096  0.6812
  672MOL0     H90708   0.869   2.815   8.714 -0.3478  0.9857  1.1890
  672MOL0     H90709   1.004   2.926   8.740 -0.6096  1.1182 -0.6013
  672MOL0     H90710   1.014   2.627   8.775  0.1213 -0.8776  2.8709
  672MOL0     H90711   1.020   2.753   8.897  0.6436 -0.5964  0.0560
  672MOL0     H90712   1.236   2.696   8.887  0.8085 -2.1318 -0.9250
  672MOL0     H90713   1.239   2.840   8.785 -2.3533  0.8728  0.7418
  672MOL0     H90714   1.230   2.688   8.583  2.7707  1.4703 -0.6503
  672MOL0     H90715   1.376   2.663   8.664 -0.6872  2.2432 -2.4104
  672MOL0     H90716   1.180   2.303   8.769 -0.5809 -0.9768 -1.4280
  672MOL0     H90717   1.135   2.799   8.335 -1.3004 -1.8058 -0.8486
  672MOL0     H90718   1.158   2.827   8.119  0.1599 -0.2903 -1.7140
  672MOL0     H90719   1.006   2.859   8.041  1.0706 -0.1534 -1.0155
  672MOL0     H90720   1.119   2.986   8.060  0.2942 -1.2876 -1.2133
  673MOL0     O90721   8.100   9.825   8.163  1.0355 -0.0279 -0.6838
  673MOL0     C90722   8.051   9.732   8.096  0.7327  0.3801 -0.0382
  673MOL0     O90723   8.091   9.707   7.965  0.2641 -0.5088  0.3162
  673MOL0     C90724   8.180   9.795   7.916  0.4095 -0.5439 -0.3106
  673MOL0     C90725   8.138   9.916   7.849  0.3699  1.4494  0.1781
  673MOL0     C90726   8.231  10.012   7.816 -0.4334  0.1635  0.4541
  673MOL0     C90727   8.374   9.990   7.827  0.4610 -0.2213  0.5170
  673MOL0     O90728   8.467  10.074   7.777 -0.2118  0.1524  0.0919
  673MOL0     C90729   8.433  10.176   7.692  0.1552 -0.1629  0.9910
  673MOL0     C90730   8.563  10.233   7.627  0.3792  0.2473 -0.1351
  673MOL0     C90731   8.690  10.141   7.612 -0.0936 -0.2177  0.0385
  673MOL0     C90732   8.805  10.226   7.552  0.0607  0.2145 -0.0635
  673MOL0     C90733   8.926  10.129   7.533 -0.6285 -0.6796  0.0993
  673MOL0     C90734   9.034  10.192   7.451  0.2849  0.1806  0.4894
  673MOL0     C90735   9.109  10.302   7.525 -0.2606 -0.4823 -0.4480
  673MOL0     C90736   9.225  10.361   7.441 -0.4675  1.3539  0.2714
  673MOL0     N90737   9.271  10.486   7.506 -0.4449 -0.6820 -0.0935
  673MOL0     C90738   9.315  10.593   7.438 -0.1564 -0.2697 -0.0791
  673MOL0     C90739   9.400  10.650   7.523 -0.1620  0.2682  0.5092
  673MOL0     C90740   9.490  10.767   7.497 -0.0232  0.2267 -0.3805
  673MOL0     C90741   9.415  10.896   7.487  0.2763  0.5088  0.3542
  673MOL0     C90742   9.494  11.027   7.471 -0.8805 -0.5576  0.1687
  673MOL0     C90743   9.603  11.027   7.364 -0.2406  0.1006 -0.5279
  673MOL0     O90744   9.560  10.970   7.238 -0.0922 -0.5762 -0.3605
  673MOL0     C90745   9.481  11.044   7.152  0.2655 -0.6284  0.2805
  673MOL0     C90746   9.470  10.990   7.019  0.2817 -0.1537 -0.3640
  673MOL0     C90747   9.399  11.066   6.923  0.1969 -0.3113 -0.0788
  673MOL0     C90748   9.334  11.183   6.962 -0.9103  0.6984  0.6269
  673MOL0     C90749   9.265  11.266   6.865  0.6573 -1.5086  0.2287
  673MOL0     O90750   9.310  11.246   6.743 -0.1808 -0.2476 -0.4432
  673MOL0     C90751   9.287  11.328   6.634  0.6534 -0.5367 -0.3397
  673MOL0     C90752   9.182  11.423   6.618  1.1776  0.3360  0.2463
  673MOL0     C90753   9.173  11.502   6.501 -0.4032 -0.7044  0.9665
  673MOL0     C90754   9.266  11.495   6.393  0.9154 -0.5432  0.3908
  673MOL0     O90755   9.249  11.575   6.289 -0.4613  0.0361  0.7896
  673MOL0     C90756   9.281  11.516   6.165  0.5334  0.4159 -0.5430
  673MOL0     C90757   9.193  11.592   6.060  0.1509  0.4467 -0.6476
  673MOL0     C90758   9.244  11.735   6.032  0.4702 -0.9507 -0.0392
  673MOL0     C90759   9.173  11.833   6.123 -0.5444  0.2169 -0.0495
  673MOL0     C90760   9.207  11.973   6.086  0.1288  0.5169  0.1887
  673MOL0     C90761   9.150  12.068   6.187 -0.2299 -0.1256  0.2188
  673MOL0     C90762   9.179  12.217   6.145 -0.2751 -0.0794  0.2789
  673MOL0     C90763   9.088  12.323   6.208 -0.4486  0.2361 -0.0223
  673MOL0    Cl90764   9.111  12.489   6.139  0.2460 -0.2354  0.2239
  673MOL0     C90765   9.372  11.407   6.419 -0.2806  1.0137  0.9733
  673MOL0     C90766   9.376  11.321   6.535 -1.3747  0.7872  0.5751
  673MOL0     O90767   9.174  11.342   6.902 -0.5878  0.3586  0.2315
  673MOL0     C90768   9.352  11.239   7.085  0.0862  0.8009 -0.6238
  673MOL0     C90769   9.429  11.171   7.183  0.5126  0.6080 -0.5681
  673MOL0     N90770   9.395  10.585   7.651 -0.4455 -0.6568 -0.2912
  673MOL0     N90771   9.318  10.487   7.633 -0.0728 -0.1695  0.4863
  673MOL0     C90772   8.413   9.872   7.892 -0.2371  0.4406  0.1275
  673MOL0     C90773   8.319   9.772   7.931  0.9884  0.0949 -0.2164
  673MOL0     C90774   7.938   9.658   8.163 -0.7999  0.2583 -0.5654
  673MOL0     C90775   7.967   9.595   8.283  0.4774  0.2988 -0.3436
  673MOL0     C90776   7.870   9.529   8.356  0.0029 -0.0562  0.9487
  673MOL0     C90777   7.741   9.514   8.296  0.1844 -0.2211 -0.0717
  673MOL0     O90778   7.644   9.427   8.354 -0.0276  0.5829 -0.0403
  673MOL0     C90779   7.515   9.391   8.286 -0.7615  0.9137  0.1180
  673MOL0     C90780   7.443   9.274   8.348  0.0452  0.3354  0.1056
  673MOL0     C90781   7.520   9.140   8.329 -0.4870 -0.4144  0.7030
  673MOL0     C90782   7.453   9.029   8.417  0.0433  0.9438 -0.7016
  673MOL0     C90783   7.502   9.046   8.557  0.3821  0.7594  0.5399
  673MOL0     C90784   7.545   9.069   8.669 -1.2616  0.3117  0.1683
  673MOL0     C90785   7.717   9.567   8.167  0.2290  0.1347 -0.0681
  673MOL0     C90786   7.812   9.647   8.095 -0.0491  0.5042 -0.5005
  673MOL0     C90787   7.777   9.720   7.975 -0.2925  0.6504 -0.3049
  673MOL0     H90788   8.034   9.915   7.821  0.1767  0.7455  0.8680
  673MOL0     H90789   8.187  10.102   7.776 -1.8395 -0.8092 -0.2722
  673MOL0     H90790   8.368  10.130   7.617  1.1547 -1.2489  0.7535
  673MOL0     H90791   8.388  10.260   7.747 -2.2609 -0.6473 -0.1168
  673MOL0     H90792   8.589  10.329   7.673  0.0421  0.8576 -1.1919
  673MOL0     H90793   8.521  10.257   7.529 -2.2566 -4.8304 -0.5904
  673MOL0     H90794   8.660  10.058   7.547  1.3053 -0.0130 -0.9083
  673MOL0     H90795   8.729  10.099   7.705 -0.8125 -0.0118  0.4405
  673MOL0     H90796   8.771  10.278   7.462  2.0565  0.3045 -0.8028
  673MOL0     H90797   8.850  10.305   7.613  0.2495  0.9964 -1.1908
  673MOL0     H90798   8.970  10.106   7.630  1.6355 -0.0085 -0.6987
  673MOL0     H90799   8.887  10.033   7.498  0.7703 -2.4919  3.1612
  673MOL0     H90800   9.101  10.110   7.424  0.1946  0.7572 -1.6876
  673MOL0     H90801   8.995  10.229   7.355 -0.8931 -0.9348  0.5149
  673MOL0     H90802   9.153  10.259   7.615  2.0611 -1.3591 -1.9097
  673MOL0     H90803   9.043  10.389   7.537  3.0318  2.3673 -1.1689
  673MOL0     H90804   9.301  10.282   7.446 -3.1012 -1.3001  0.9006
  673MOL0     H90805   9.185  10.369   7.340 -1.8641  0.0227  0.6918
  673MOL0     H90806   9.317  10.617   7.332  0.2118  1.2104  0.2400
  673MOL0     H90807   9.553  10.773   7.586 -0.0819  0.2644 -0.3408
  673MOL0     H90808   9.547  10.741   7.408 -0.5953  0.6703 -0.8859
  673MOL0     H90809   9.348  10.877   7.402  1.2178  0.9777 -0.5223
  673MOL0     H90810   9.351  10.901   7.575  0.8107 -3.4934  1.1736
  673MOL0     H90811   9.538  11.045   7.570  0.0378 -0.4151 -0.2567
  673MOL0     H90812   9.433  11.110   7.434  1.8238  0.1871 -3.0852
  673MOL0     H90813   9.694  10.971   7.387  0.1874 -0.4137 -3.0901
  673MOL0     H90814   9.639  11.130   7.354 -0.1672  0.0781 -0.4996
  673MOL0     H90815   9.512  10.892   7.003  1.9242  0.6833 -1.4662
  673MOL0     H90816   9.412  11.030   6.821  3.2835 -0.5646  0.3159
  673MOL0     H90817   9.104  11.435   6.692  1.3563 -0.8661  0.6510
  673MOL0     H90818   9.097  11.576   6.482  0.5718 -0.1467 -1.1072
  673MOL0     H90819   9.389  11.518   6.144  1.0149  0.2757  1.7363
  673MOL0     H90820   9.257  11.409   6.170 -0.8300  0.7677  2.6963
  673MOL0     H90821   9.184  11.534   5.968 -1.7906 -0.2242 -0.0832
  673MOL0     H90822   9.089  11.592   6.093  0.4749 -1.6535  0.5090
  673MOL0     H90823   9.353  11.742   6.042  0.2924 -0.2680  1.8172
  673MOL0     H90824   9.203  11.765   5.935  2.0121 -0.3504 -0.5502
  673MOL0     H90825   9.204  11.801   6.223 -0.4903 -1.0306 -0.4531
  673MOL0     H90826   9.065  11.819   6.120 -0.8693  1.5006  2.7284
  673MOL0     H90827   9.164  11.993   5.987 -1.7733 -0.5676  0.7590
  673MOL0     H90828   9.314  11.993   6.070  0.0357  2.1859  1.3501
  673MOL0     H90829   9.043  12.049   6.194 -0.2384 -1.4352 -2.3608
  673MOL0     H90830   9.189  12.046   6.287  2.4537  2.3148 -0.1395
  673MOL0     H90831   9.173  12.229   6.036 -1.2154  0.2736  0.3583
  673MOL0     H90832   9.284  12.241   6.166 -0.0886  2.6212 -2.9257
  673MOL0     H90833   8.984  12.290   6.198 -1.7141  3.8041 -0.0524
  673MOL0     H90834   9.116  12.326   6.313 -0.9605 -2.4196  0.2704
  673MOL0     H90835   9.445  11.405   6.339 -1.8427 -2.6392 -0.5708
  673MOL0     H90836   9.458  11.253   6.556 -0.5029  1.3418 -0.9167
  673MOL0     H90837   9.323  11.341   7.107 -0.2570  0.5549  0.1212
  673MOL0     H90838   9.437  11.229   7.274  1.8434  0.2199 -0.4182
  673MOL0     H90839   8.521   9.861   7.903 -0.1951  1.4508  0.8352
  673MOL0     H90840   8.355   9.695   7.998  4.0175  1.1154 -0.5070
  673MOL0     H90841   8.064   9.593   8.331 -0.7142 -1.6184  2.2592
  673MOL0     H90842   7.890   9.469   8.444 -0.5870 -2.6537 -0.5724
  673MOL0     H90843   7.543   9.340   8.193  0.6408  0.5573  0.7038
  673MOL0     H90844   7.444   9.471   8.264 -2.8823 -0.9470 -0.0714
  673MOL0     H90845   7.340   9.274   8.310 -0.1781  1.0658  0.6868
  673MOL0     H90846   7.440   9.298   8.455  1.2534  1.3034 -0.0630
  673MOL0     H90847   7.621   9.162   8.366 -0.3244  1.1400 -0.5633
  673MOL0     H90848   7.533   9.109   8.225  0.6114 -1.2379  1.0593
  673MOL0     H90849   7.343   9.027   8.412  0.0708  0.5447 -1.1555
  673MOL0     H90850   7.494   8.935   8.381  2.8260  0.0440  3.9881
  673MOL0     H90851   7.593   9.096   8.761  2.9534 -2.4195 -0.9538
  673MOL0     H90852   7.621   9.551   8.118  1.7379 -0.6614 -2.9758
  673MOL0     H90853   7.682   9.699   7.924  0.0831  0.2837 -0.8511
  673MOL0     H90854   7.766   9.825   8.004  0.8592  0.7210 -0.0799
  673MOL0     H90855   7.865   9.710   7.912  0.3665 -0.7527  0.7869
  674MOL0     O90856   0.206   8.596   9.285 -0.8831 -0.3069  0.4994
  674MOL0     C90857   0.175   8.604   9.168 -0.0282 -0.1311 -0.1978
  674MOL0     O90858   0.252   8.644   9.061  0.0342  0.2658 -0.4033
  674MOL0     C90859   0.391   8.645   9.078 -0.0709 -0.6728 -0.1741
  674MOL0     C90860   0.474   8.548   9.011 -0.2357  0.7381 -0.2097
  674MOL0     C90861   0.614   8.547   9.038 -0.0854 -0.1568 -0.2875
  674MOL0     C90862   0.672   8.650   9.107  0.2028  0.2377  0.4755
  674MOL0     O90863   0.809   8.632   9.134 -0.1830  0.1232  0.9722
  674MOL0     C90864   0.875   8.719   9.232 -0.2673  0.3686 -0.6320
  674MOL0     C90865   1.018   8.729   9.197 -0.6280 -0.5347  1.2988
  674MOL0     C90866   1.108   8.616   9.260  0.5782  0.0467 -0.0336
  674MOL0     C90867   1.255   8.630   9.222 -0.0492 -0.2402  0.1998
  674MOL0     C90868   1.321   8.527   9.309  0.5601  0.2277  1.0336
  674MOL0     C90869   1.453   8.503   9.251  0.4567  0.2567 -1.2128
  674MOL0     C90870   1.542   8.628   9.226  0.1383  0.6155  0.4237
  674MOL0     C90871   1.667   8.591   9.157 -1.0595  0.1726  0.3097
  674MOL0     N90872   1.766   8.526   9.248  0.8184 -0.0343  0.7559
  674MOL0     C90873   1.768   8.395   9.279 -0.3129  0.2502  0.1630
  674MOL0     C90874   1.889   8.374   9.339  0.6282  0.4885  0.4182
  674MOL0     C90875   1.956   8.245   9.382 -0.8344 -0.4854  0.4883
  674MOL0     C90876   2.110   8.256   9.407 -0.5012 -0.1563 -0.2315
  674MOL0     C90877   2.191   8.266   9.272 -0.4662  0.4131  0.5415
  674MOL0     C90878   2.342   8.244   9.293  0.2641  0.0244  0.4677
  674MOL0     O90879   2.403   8.296   9.177  0.0601 -0.3285 -0.3468
  674MOL0     C90880   2.539   8.323   9.178 -0.5826 -0.7218  0.8406
  674MOL0     C90881   2.633   8.286   9.279 -0.1909 -0.0313  0.0860
  674MOL0     C90882   2.770   8.325   9.270  0.4821  0.0946  0.7004
  674MOL0     C90883   2.813   8.407   9.168 -0.4717 -0.1505  0.5688
  674MOL0     C90884   2.956   8.439   9.155  0.2882  0.0185  0.4839
  674MOL0     O90885   2.977   8.559   9.098  0.1126  0.5679 -0.3048
  674MOL0     C90886   3.107   8.607   9.110 -0.2297 -0.1112 -0.4075
  674MOL0     C90887   3.156   8.672   9.228 -0.4880  0.1320 -0.2163
  674MOL0     C90888   3.287   8.717   9.244 -0.9106 -0.5580 -0.2391
  674MOL0     C90889   3.373   8.718   9.129 -0.1655 -0.7132 -0.3327
  674MOL0     O90890   3.493   8.790   9.139  0.4902  0.5568 -0.7284
  674MOL0     C90891   3.605   8.765   9.054 -0.3454  0.7713  0.6534
  674MOL0     C90892   3.709   8.853   9.103  0.5401 -0.5695 -0.9990
  674MOL0     C90893   3.833   8.844   9.024 -0.6262  0.4827  0.4205
  674MOL0     C90894   3.925   8.959   9.075  1.9476  0.2129  0.3881
  674MOL0     C90895   4.073   8.942   9.034 -0.3791  0.2005 -0.3326
  674MOL0     C90896   4.142   9.074   9.067 -0.5636  0.5756 -0.1858
  674MOL0     C90897   4.283   9.063   9.009  0.0338  0.7979  0.0415
  674MOL0     C90898   4.371   9.174   9.062 -0.0236  0.4072 -0.1775
  674MOL0    Cl90899   4.441   9.132   9.222  0.5754 -0.2721  0.0144
  674MOL0     C90900   3.325   8.668   9.008 -0.1495  0.9182 -0.5429
  674MOL0     C90901   3.193   8.610   9.003  0.1724 -0.4792  0.5079
  674MOL0     O90902   3.048   8.369   9.193  0.5622  0.3153  0.1416
  674MOL0     C90903   2.723   8.448   9.066 -0.2639 -0.3351 -0.7301
  674MOL0     C90904   2.593   8.400   9.072  0.5831  0.1423 -0.0591
  674MOL0     N90905   1.947   8.499   9.353  0.1803 -0.3555 -0.0421
  674MOL0     N90906   1.868   8.588   9.310  0.8589  0.4837  0.6711
  674MOL0     C90907   0.587   8.744   9.172 -0.1941  0.7265  0.8961
  674MOL0     C90908   0.449   8.741   9.154  0.0499  0.4693  0.2051
  674MOL0     C90909   0.035   8.573   9.150 -1.0781  0.9249  0.5317
  674MOL0     C90910  -0.006   8.446   9.106  0.1604  0.1181 -0.0273
  674MOL0     C90911  -0.145   8.416   9.098 -0.1109 -0.0329 -0.8115
  674MOL0     C90912  -0.244   8.506   9.122  0.4786 -0.2380 -0.6508
  674MOL0     O90913  -0.378   8.481   9.130  0.2138 -0.3892 -0.3510
  674MOL0     C90914  -0.421   8.346   9.134 -0.1381 -0.3849  0.0437
  674MOL0     C90915  -0.570   8.341   9.175 -0.1814  0.9527  0.4487
  674MOL0     C90916  -0.656   8.406   9.064 -0.5101  0.0771 -0.2000
  674MOL0     C90917  -0.815   8.403   9.083  0.2870 -0.5474  0.0706
  674MOL0     C90918  -0.860   8.265   9.082  0.1545  0.4934 -0.6604
  674MOL0     C90919  -0.906   8.154   9.088  0.3222 -0.3767  0.3773
  674MOL0     C90920  -0.200   8.640   9.136  0.0608  0.0386 -0.1959
  674MOL0     C90921  -0.063   8.677   9.136  0.1633  0.0130 -0.4502
  674MOL0     C90922  -0.024   8.831   9.128 -0.7660  0.0138 -0.1109
  674MOL0     H90923   0.417   8.476   8.954 -1.2854  1.7521 -0.4891
  674MOL0     H90924   0.679   8.474   8.992 -0.2315  0.0086 -0.7643
  674MOL0     H90925   0.837   8.821   9.228  1.5980  1.1565  0.4828
  674MOL0     H90926   0.867   8.688   9.336 -2.5081  1.6925 -0.3389
  674MOL0     H90927   1.052   8.823   9.241  0.9139 -1.6265  2.5390
  674MOL0     H90928   1.026   8.733   9.088 -2.9557 -2.4075  0.9903
  674MOL0     H90929   1.078   8.519   9.219 -4.1429 -0.6609  4.1786
  674MOL0     H90930   1.079   8.616   9.365 -4.3713 -1.4895 -1.1375
  674MOL0     H90931   1.282   8.604   9.119  0.2823  0.9982 -0.0325
  674MOL0     H90932   1.301   8.725   9.249  0.0245  0.3695 -1.8831
  674MOL0     H90933   1.331   8.567   9.410  1.4999 -1.2244  1.5485
  674MOL0     H90934   1.262   8.434   9.312 -1.0464  1.1013 -1.1020
  674MOL0     H90935   1.506   8.441   9.325 -0.6526 -0.7533 -1.2265
  674MOL0     H90936   1.440   8.442   9.161 -2.2430 -0.1929 -0.6094
  674MOL0     H90937   1.568   8.679   9.319  1.4223  0.0451  0.3960
  674MOL0     H90938   1.490   8.699   9.161 -0.6023  0.2848  0.6394
  674MOL0     H90939   1.635   8.529   9.073  2.4277 -1.4816  0.0053
  674MOL0     H90940   1.712   8.687   9.130  1.2776 -0.6478  1.0562
  674MOL0     H90941   1.697   8.319   9.251 -0.6655  1.5126 -2.7283
  674MOL0     H90942   1.909   8.226   9.479  0.0822 -0.0725  1.0280
  674MOL0     H90943   1.923   8.166   9.314 -0.3164  1.6095 -2.4162
  674MOL0     H90944   2.126   8.353   9.455  1.0264  0.1050 -1.2080
  674MOL0     H90945   2.155   8.181   9.473  0.4351  2.5077  2.3627
  674MOL0     H90946   2.187   8.367   9.231  0.7429 -1.1273 -3.9244
  674MOL0     H90947   2.156   8.189   9.202 -1.2788 -0.7551  2.1828
  674MOL0     H90948   2.364   8.137   9.293 -0.1512 -0.2369 -3.9682
  674MOL0     H90949   2.375   8.294   9.384 -0.4070  0.5975  0.4000
  674MOL0     H90950   2.605   8.227   9.365 -0.4595  1.4829  1.0793
  674MOL0     H90951   2.848   8.298   9.340  0.5322  2.3811  1.5924
  674MOL0     H90952   3.086   8.682   9.311 -1.0390 -0.0083 -0.6518
  674MOL0     H90953   3.323   8.775   9.328 -1.8171  0.2172 -0.3663
  674MOL0     H90954   3.639   8.664   9.078 -1.4704  0.5716  1.4659
  674MOL0     H90955   3.584   8.782   8.948  1.6774 -0.8856 -0.0804
  674MOL0     H90956   3.669   8.955   9.111  0.5909 -0.6543  0.6375
  674MOL0     H90957   3.736   8.823   9.205 -1.0923 -0.5044 -0.5255
  674MOL0     H90958   3.873   8.742   9.030 -3.8842 -1.3258 -3.4041
  674MOL0     H90959   3.812   8.852   8.917  1.4086 -0.5247 -0.1039
  674MOL0     H90960   3.925   8.972   9.183  0.0059  0.1564  0.4283
  674MOL0     H90961   3.882   9.042   9.018 -1.8526 -1.1260  1.0173
  674MOL0     H90962   4.084   8.923   8.927  1.3674  3.7706 -0.9337
  674MOL0     H90963   4.113   8.854   9.086 -1.5508  1.1126  2.2963
  674MOL0     H90964   4.098   9.162   9.020 -2.0813  1.0478  1.9973
  674MOL0     H90965   4.141   9.090   9.175  1.0871  3.4994 -0.5126
  674MOL0     H90966   4.285   9.055   8.900 -2.0460 -2.1648  0.0747
  674MOL0     H90967   4.337   8.974   9.044  1.0868  0.9187 -1.2270
  674MOL0     H90968   4.454   9.176   8.990  0.9839  2.3920  0.9694
  674MOL0     H90969   4.334   9.276   9.069  3.0524  1.6147  0.2331
  674MOL0     H90970   3.384   8.674   8.918  0.5802  1.5253 -0.0384
  674MOL0     H90971   3.144   8.580   8.911 -1.1521 -0.7854  1.2952
  674MOL0     H90972   2.767   8.495   8.979  0.8368 -1.6195 -0.8973
  674MOL0     H90973   2.526   8.406   8.987  0.4539  3.9461  0.1555
  674MOL0     H90974   0.624   8.825   9.234  1.7368  0.7126 -0.1559
  674MOL0     H90975   0.386   8.821   9.192  0.7591  2.8571 -3.1472
  674MOL0     H90976   0.068   8.368   9.095  0.4459 -0.0829  2.7209
  674MOL0     H90977  -0.174   8.312   9.086  1.9826 -0.6332 -1.0355
  674MOL0     H90978  -0.359   8.280   9.196  1.4408  1.2345  0.2781
  674MOL0     H90979  -0.405   8.310   9.032  0.0565  1.0650 -0.4620
  674MOL0     H90980  -0.584   8.398   9.267  0.2459  1.5400  0.1551
  674MOL0     H90981  -0.601   8.237   9.188 -1.9197  1.4731  0.8019
  674MOL0     H90982  -0.638   8.352   8.970  1.6849  0.1654  0.1357
  674MOL0     H90983  -0.635   8.514   9.068 -1.1107  0.1439  2.0531
  674MOL0     H90984  -0.849   8.452   9.175 -1.0427 -0.7373 -0.3019
  674MOL0     H90985  -0.864   8.455   9.000  0.9174 -0.8417 -0.4980
  674MOL0     H90986  -0.940   8.052   9.091 -1.3020  0.1338  0.3676
  674MOL0     H90987  -0.287   8.704   9.147 -0.3518 -0.5568  0.0853
  674MOL0     H90988   0.085   8.836   9.132 -0.7437  0.5954 -1.2272
  674MOL0     H90989  -0.045   8.879   9.032  2.4372  0.9227 -0.4745
  674MOL0     H90990  -0.061   8.895   9.208  1.0103  0.2815  0.5498
  675MOL0     O90991   3.515   8.905   6.510  0.1752  0.5228 -0.4612
  675MOL0     C90992   3.481   8.819   6.430  0.2450  0.6202  0.0489
  675MOL0     O90993   3.556   8.773   6.326 -0.0761  0.1283  1.0568
  675MOL0     C90994   3.645   8.841   6.255 -0.1527 -1.0605 -0.7618
  675MOL0     C90995   3.647   8.980   6.264  0.2413 -0.7400 -0.0307
  675MOL0     C90996   3.720   9.056   6.168  0.3073  0.4146  0.7814
  675MOL0     C90997   3.814   9.004   6.084  0.4892 -0.0818  0.5447
  675MOL0     O90998   3.869   9.082   5.988  0.0708  0.1696 -1.2849
  675MOL0     C90999   4.011   9.064   5.958 -0.0468  0.3672 -0.2989
  675MOL0     C91000   4.080   9.178   5.873 -0.2979 -0.3891 -1.0865
  675MOL0     C91001   4.100   9.299   5.964 -0.7176  0.1582 -0.5448
  675MOL0     C91002   4.175   9.422   5.896  0.4728  0.7454 -1.2944
  675MOL0     C91003   4.332   9.393   5.878  0.4004 -0.9542  0.2831
  675MOL0     C91004   4.403   9.490   5.790  0.1596  0.0647  0.4596
  675MOL0     C91005   4.556   9.473   5.800  0.9100 -0.1718  0.1986
  675MOL0     C91006   4.607   9.557   5.924 -0.4544 -0.0700 -0.6517
  675MOL0     N91007   4.751   9.593   5.922  0.0563  0.0107  0.5842
  675MOL0     C91008   4.837   9.605   6.029 -0.4337  0.5647  0.8817
  675MOL0     C91009   4.958   9.635   5.984  1.1580 -0.5219  0.1427
  675MOL0     C91010   5.066   9.676   6.083  0.7457 -0.9590 -0.1590
  675MOL0     C91011   5.176   9.770   6.040  0.2324  0.2879 -0.7182
  675MOL0     C91012   5.252   9.818   6.163  0.2781 -0.7059  0.0986
  675MOL0     C91013   5.376   9.888   6.120  0.4304 -0.0932  0.3508
  675MOL0     O91014   5.330  10.014   6.062 -0.6553  0.8226  0.2327
  675MOL0     C91015   5.421  10.117   6.072  0.8071  0.0520  0.0081
  675MOL0     C91016   5.362  10.243   6.062 -0.1068 -0.6530  0.3689
  675MOL0     C91017   5.440  10.359   6.046  0.5611 -0.7499  0.1614
  675MOL0     C91018   5.582  10.350   6.051  0.1859  0.1289 -0.5400
  675MOL0     C91019   5.661  10.483   6.036 -0.0365  0.3497  0.1992
  675MOL0     O91020   5.593  10.595   5.992  0.3140 -0.0073  0.0921
  675MOL0     C91021   5.668  10.679   5.916 -0.1731  0.0637 -0.5046
  675MOL0     C91022   5.716  10.797   5.977  0.7996  0.2584  0.5136
  675MOL0     C91023   5.785  10.890   5.902 -0.5330 -0.5053  0.1507
  675MOL0     C91024   5.816  10.868   5.773  0.4480 -0.1226  0.0422
  675MOL0     O91025   5.901  10.957   5.715  0.2024 -0.4642 -0.0789
  675MOL0     C91026   5.913  10.962   5.576 -0.3911  1.2117 -0.2477
  675MOL0     C91027   5.925  11.100   5.522  0.2735 -0.2472 -0.1305
  675MOL0     C91028   5.932  11.099   5.372 -0.0275 -0.1532 -1.0016
  675MOL0     C91029   5.943  11.236   5.320 -0.0098  0.1616  0.3533
  675MOL0     C91030   5.939  11.247   5.171 -0.0361  0.0055  0.0762
  675MOL0     C91031   5.800  11.247   5.111  0.3599 -0.3592 -0.8668
  675MOL0     C91032   5.787  11.282   4.964  0.7186 -0.5336 -0.4294
  675MOL0     C91033   5.643  11.294   4.908 -0.5412  0.3606 -0.8672
  675MOL0    Cl91034   5.580  11.118   4.905 -0.0462 -0.0577  0.2162
  675MOL0     C91035   5.770  10.748   5.709  0.7216 -0.0927 -0.7195
  675MOL0     C91036   5.696  10.656   5.782 -0.0322 -0.1788 -0.1248
  675MOL0     O91037   5.782  10.475   6.053 -0.1307 -0.1723  0.6991
  675MOL0     C91038   5.639  10.225   6.076 -1.2766 -0.3525  0.1175
  675MOL0     C91039   5.558  10.110   6.098 -0.3874 -0.5352  0.1263
  675MOL0     N91040   4.946   9.654   5.847  0.0975 -0.5773 -0.0015
  675MOL0     N91041   4.826   9.619   5.813 -0.0650 -0.1366  0.4760
  675MOL0     C91042   3.821   8.860   6.080  0.1668 -0.0803 -0.9034
  675MOL0     C91043   3.737   8.778   6.166 -0.1313  0.1504 -0.8220
  675MOL0     C91044   3.356   8.734   6.465  1.7768 -0.7575  0.1785
  675MOL0     C91045   3.273   8.779   6.571 -0.0408 -0.0926  0.1295
  675MOL0     C91046   3.147   8.733   6.600  0.4964  0.4524  0.1280
  675MOL0     C91047   3.097   8.623   6.531 -0.1309  0.5802  0.3872
  675MOL0     O91048   2.974   8.557   6.554 -0.0720  0.0646 -0.0846
  675MOL0     C91049   2.907   8.588   6.680  0.1381 -0.0595  1.5458
  675MOL0     C91050   2.768   8.524   6.680 -0.2233 -0.5976 -0.1391
  675MOL0     C91051   2.688   8.590   6.568 -1.0168  0.0506  0.1021
  675MOL0     C91052   2.541   8.525   6.560  0.3639 -0.2632  0.1893
  675MOL0     C91053   2.534   8.379   6.528  0.4637  0.0110  0.2719
  675MOL0     C91054   2.530   8.263   6.499  1.0736  0.4339 -0.6847
  675MOL0     C91055   3.170   8.578   6.419 -0.0706 -0.2788 -0.1864
  675MOL0     C91056   3.293   8.632   6.383  0.5275  0.8532  0.6005
  675MOL0     C91057   3.362   8.568   6.260  0.1613  0.1656  0.6218
  675MOL0     H91058   3.569   9.028   6.321 -0.2649  0.8543 -1.9513
  675MOL0     H91059   3.715   9.164   6.163  1.0472  0.4908  1.4162
  675MOL0     H91060   4.063   9.052   6.053  0.6307 -0.1335 -0.7169
  675MOL0     H91061   4.027   8.973   5.898  0.0912 -0.0180  0.3202
  675MOL0     H91062   4.011   9.202   5.791 -0.7303  0.5037 -0.4771
  675MOL0     H91063   4.177   9.142   5.838  0.4450 -0.8100  1.2020
  675MOL0     H91064   4.173   9.265   6.038 -0.0929 -0.3885 -1.3919
  675MOL0     H91065   4.004   9.317   6.014 -0.4357 -2.5356  1.1699
  675MOL0     H91066   4.115   9.452   5.809 -1.6305  2.5017  0.6217
  675MOL0     H91067   4.168   9.504   5.968  0.9799 -1.4526  1.3813
  675MOL0     H91068   4.380   9.405   5.975 -0.6590 -0.4813  0.7629
  675MOL0     H91069   4.343   9.290   5.842 -1.1761 -1.3779  0.9450
  675MOL0     H91070   4.375   9.480   5.685 -3.4416 -3.2159  1.5174
  675MOL0     H91071   4.371   9.587   5.830 -3.0577 -1.0939  0.9424
  675MOL0     H91072   4.595   9.507   5.704  3.0461  0.1297  1.1257
  675MOL0     H91073   4.590   9.369   5.799 -1.0771 -0.8923  1.3336
  675MOL0     H91074   4.559   9.653   5.946 -1.8899 -0.6402 -1.2175
  675MOL0     H91075   4.584   9.504   6.017 -2.5903 -0.2096 -1.2192
  675MOL0     H91076   4.801   9.603   6.131 -2.0215  0.9508  0.3624
  675MOL0     H91077   5.018   9.710   6.176 -0.2418  2.4407 -1.7443
  675MOL0     H91078   5.118   9.588   6.120  0.8376 -0.2961  1.3694
  675MOL0     H91079   5.239   9.715   5.969 -0.5716  0.6859 -1.7682
  675MOL0     H91080   5.118   9.854   6.000 -0.5776  0.2180  0.2853
  675MOL0     H91081   5.271   9.733   6.230  0.1549  0.2738  1.4067
  675MOL0     H91082   5.189   9.894   6.211  0.9615 -0.6683  0.9715
  675MOL0     H91083   5.437   9.849   6.038 -1.1829 -1.1183 -0.4071
  675MOL0     H91084   5.438   9.897   6.210  0.7448  0.6225  0.0733
  675MOL0     H91085   5.254  10.247   6.051 -0.2358 -1.3182  1.2970
  675MOL0     H91086   5.407  10.461   6.030  1.3394 -0.9838 -4.0563
  675MOL0     H91087   5.687  10.828   6.076  2.2437 -1.6865  1.6276
  675MOL0     H91088   5.823  10.982   5.946  1.6720  0.0982 -2.6996
  675MOL0     H91089   6.001  10.903   5.549 -0.2958  1.2792 -0.0860
  675MOL0     H91090   5.819  10.925   5.535 -0.5675  1.1669  0.1930
  675MOL0     H91091   5.838  11.153   5.562  1.2916  1.4330 -0.0290
  675MOL0     H91092   6.015  11.138   5.573 -0.4981  0.9325  0.3950
  675MOL0     H91093   6.020  11.043   5.340 -0.1403 -0.6225 -0.5123
  675MOL0     H91094   5.844  11.049   5.331 -0.8041  0.2551  0.1358
  675MOL0     H91095   6.038  11.281   5.350 -0.5223  1.7277 -0.2361
  675MOL0     H91096   5.869  11.304   5.363  1.7759  2.2069  0.3603
  675MOL0     H91097   6.003  11.171   5.125  2.7848  0.8955  2.2506
  675MOL0     H91098   5.993  11.338   5.141  1.7673 -0.4746  1.6587
  675MOL0     H91099   5.755  11.151   5.136  0.1505 -1.0651 -3.6858
  675MOL0     H91100   5.746  11.329   5.161 -4.7850 -2.3122 -2.6149
  675MOL0     H91101   5.851  11.215   4.904 -1.5108 -1.5282 -1.8480
  675MOL0     H91102   5.826  11.383   4.951 -1.6715  0.7871  1.8135
  675MOL0     H91103   5.577  11.352   4.974  0.6250  0.9346 -0.1761
  675MOL0     H91104   5.642  11.328   4.804  1.9711  0.8196 -0.7895
  675MOL0     H91105   5.790  10.721   5.606 -0.4464  1.6672 -1.4572
  675MOL0     H91106   5.674  10.556   5.748 -1.4746  0.4664 -1.1914
  675MOL0     H91107   5.745  10.232   6.100 -1.8993  1.6590  2.8259
  675MOL0     H91108   5.601  10.012   6.115 -0.6963 -0.5483  0.8672
  675MOL0     H91109   3.886   8.803   6.014 -0.2298 -0.4576 -0.9732
  675MOL0     H91110   3.744   8.671   6.177  1.2414  0.4991  3.8963
  675MOL0     H91111   3.303   8.869   6.624  0.6898  0.0023 -0.4152
  675MOL0     H91112   3.088   8.766   6.685  0.5343 -2.6694  1.5128
  675MOL0     H91113   2.893   8.694   6.702 -3.9522 -0.8172  3.6106
  675MOL0     H91114   2.962   8.551   6.768 -0.1321  1.4894  2.3959
  675MOL0     H91115   2.730   8.553   6.779  1.7420  0.4598  0.3616
  675MOL0     H91116   2.779   8.418   6.657 -1.6591 -0.4792 -1.5609
  675MOL0     H91117   2.744   8.589   6.473 -0.9279  1.7203  0.1051
  675MOL0     H91118   2.675   8.694   6.597  1.5564  0.1445  1.2173
  675MOL0     H91119   2.512   8.531   6.665  2.6381  3.5286  0.7674
  675MOL0     H91120   2.474   8.587   6.500  2.0864  0.8383 -0.6905
  675MOL0     H91121   2.520   8.158   6.481  0.3284  0.2935  0.4425
  675MOL0     H91122   3.128   8.495   6.362  0.0693  2.2804 -4.4115
  675MOL0     H91123   3.453   8.511   6.279 -0.1852 -1.0216 -1.0382
  675MOL0     H91124   3.289   8.500   6.215  2.9421 -2.1824 -0.6844
  675MOL0     H91125   3.381   8.639   6.179 -1.0847 -0.6160 -0.3917
  676MOL0     O91126   2.034   4.842   5.120 -0.3237  0.4897  0.2068
  676MOL0     C91127   1.923   4.798   5.160  0.4785  0.2772  0.5507
  676MOL0     O91128   1.893   4.665   5.169 -0.1407  0.1091 -0.1535
  676MOL0     C91129   1.964   4.569   5.113  0.1852  0.1307 -0.8308
  676MOL0     C91130   2.097   4.547   5.153 -0.0249  0.0586  0.6938
  676MOL0     C91131   2.166   4.433   5.104  0.8945  1.0841 -0.2440
  676MOL0     C91132   2.109   4.343   5.016  1.0978  0.3303  0.3758
  676MOL0     O91133   2.153   4.218   4.969 -0.3479 -0.1838  0.2388
  676MOL0     C91134   2.295   4.214   4.962 -0.4495 -0.1489 -0.2388
  676MOL0     C91135   2.355   4.135   5.079  0.3312  0.2227  0.4902
  676MOL0     C91136   2.512   4.137   5.066 -0.4242  1.0602  0.4660
  676MOL0     C91137   2.563   4.025   4.969 -0.0891 -0.0959 -0.4421
  676MOL0     C91138   2.718   4.055   4.937  0.9828  0.9040  0.1307
  676MOL0     C91139   2.796   4.051   5.069  0.3219 -0.0381  0.1672
  676MOL0     C91140   2.953   4.027   5.058  0.6204 -0.1127  0.6988
  676MOL0     C91141   3.003   3.915   5.142 -0.3799  0.3266 -1.0960
  676MOL0     N91142   3.150   3.907   5.116 -0.0708  0.8353 -0.1179
  676MOL0     C91143   3.221   3.786   5.112  0.2315 -0.0426 -0.0966
  676MOL0     C91144   3.351   3.821   5.136 -0.0320  0.6885  0.4570
  676MOL0     C91145   3.462   3.721   5.153  0.0672 -0.7042 -0.2845
  676MOL0     C91146   3.559   3.741   5.047 -0.3684  0.1228  0.2319
  676MOL0     C91147   3.712   3.703   5.055  0.4671  0.2708  0.4527
  676MOL0     C91148   3.769   3.739   5.190 -0.4994 -0.2368 -0.9523
  676MOL0     O91149   3.916   3.731   5.183 -0.4690  0.9718  0.2218
  676MOL0     C91150   3.984   3.838   5.120  0.0323  0.1470 -0.5885
  676MOL0     C91151   4.126   3.829   5.112 -0.1739  0.6914  0.1069
  676MOL0     C91152   4.203   3.924   5.060 -0.3138 -0.3558 -0.6136
  676MOL0     C91153   4.144   4.041   4.997 -0.8570 -0.1109  0.4135
  676MOL0     C91154   4.227   4.148   4.934 -0.2689  0.1502 -0.2228
  676MOL0     O91155   4.361   4.137   4.950 -0.6469 -0.1525 -0.3472
  676MOL0     C91156   4.453   4.238   4.927  0.2960  0.2614  0.7295
  676MOL0     C91157   4.590   4.198   4.928 -0.6910 -0.1875  0.8727
  676MOL0     C91158   4.689   4.308   4.921 -0.3257  0.8712  0.0961
  676MOL0     C91159   4.665   4.442   4.922 -0.2314  0.2825 -0.6920
  676MOL0     O91160   4.771   4.531   4.935 -0.1780  0.0737 -0.1728
  676MOL0     C91161   4.761   4.598   5.064  0.2521  0.7678  0.5397
  676MOL0     C91162   4.901   4.653   5.105  0.4472 -0.7739 -0.7233
  676MOL0     C91163   4.953   4.743   4.996  0.1585  0.6407  0.5056
  676MOL0     C91164   5.097   4.788   5.037  0.2028  0.5983 -0.2958
  676MOL0     C91165   5.198   4.678   4.996  0.0635 -0.1207 -0.1444
  676MOL0     C91166   5.343   4.736   4.985  0.4871  0.3892  0.1349
  676MOL0     C91167   5.386   4.768   5.127  0.5949 -0.1788 -0.4400
  676MOL0     C91168   5.532   4.731   5.145 -0.5461  0.1284  0.3495
  676MOL0    Cl91169   5.629   4.833   5.029  0.0238  0.4824  0.0269
  676MOL0     C91170   4.531   4.473   4.927  0.2585  0.7326  0.2673
  676MOL0     C91171   4.429   4.373   4.931 -0.3879 -0.6369 -0.8032
  676MOL0     O91172   4.163   4.234   4.882 -0.0286 -0.2003  0.7660
  676MOL0     C91173   4.000   4.048   4.992  0.4587 -0.4653  0.0144
  676MOL0     C91174   3.920   3.947   5.060 -0.1113  0.4519 -1.0298
  676MOL0     N91175   3.364   3.959   5.137  0.3915  0.0078 -0.4645
  676MOL0     N91176   3.243   4.013   5.126  0.9455  1.0845 -0.0800
  676MOL0     C91177   1.971   4.354   4.988 -0.5505  0.1790 -0.2297
  676MOL0     C91178   1.901   4.475   5.032 -0.7762  0.2013  0.8483
  676MOL0     C91179   1.816   4.887   5.203 -0.2285  1.0216 -0.0273
  676MOL0     C91180   1.804   4.912   5.338 -0.2514 -1.0641 -0.3514
  676MOL0     C91181   1.704   5.011   5.383  0.2483  0.7462 -0.4359
  676MOL0     C91182   1.606   5.049   5.287  0.3821 -0.4106 -1.0382
  676MOL0     O91183   1.487   5.119   5.315 -0.5269  0.4199 -0.3568
  676MOL0     C91184   1.428   5.109   5.443  0.6359  0.5868  0.2000
  676MOL0     C91185   1.284   5.146   5.419 -0.4040  0.1674  0.5050
  676MOL0     C91186   1.212   5.089   5.296  0.8002  0.3513  0.1271
  676MOL0     C91187   1.181   4.945   5.310 -0.8880  1.1710 -0.6633
  676MOL0     C91188   1.099   4.901   5.197  1.0088  0.2537  0.0581
  676MOL0     C91189   1.033   4.841   5.112  0.1963  0.1531 -0.0920
  676MOL0     C91190   1.631   5.025   5.153 -0.8958 -0.6360 -0.2218
  676MOL0     C91191   1.739   4.952   5.114  0.9306  0.0815  0.4130
  676MOL0     C91192   1.753   4.930   4.966  0.3481  0.3989 -0.2825
  676MOL0     H91193   2.139   4.613   5.228 -0.5497 -0.5057  1.4943
  676MOL0     H91194   2.263   4.407   5.145 -0.3686 -0.8117  1.7547
  676MOL0     H91195   2.322   4.153   4.875 -0.4896 -1.3557  0.5727
  676MOL0     H91196   2.339   4.313   4.948 -0.6205 -0.1413 -0.7547
  676MOL0     H91197   2.311   4.035   5.080 -1.3034  0.9115  0.8383
  676MOL0     H91198   2.332   4.188   5.172  2.3682  4.4011 -1.1294
  676MOL0     H91199   2.559   4.121   5.164  1.4423 -3.5369 -0.9556
  676MOL0     H91200   2.539   4.238   5.034 -2.9347  1.9900  1.0639
  676MOL0     H91201   2.550   3.921   5.001 -0.1654 -0.2558 -0.9833
  676MOL0     H91202   2.500   4.026   4.879 -0.7935  1.8471  0.0200
  676MOL0     H91203   2.754   3.986   4.860 -0.7307 -1.9842  1.7201
  676MOL0     H91204   2.716   4.150   4.883 -3.2909  1.1032  0.3223
  676MOL0     H91205   2.788   4.158   5.092 -1.5898  0.4672 -2.3128
  676MOL0     H91206   2.760   3.986   5.149  0.1166 -0.0472  0.0683
  676MOL0     H91207   3.006   4.120   5.080  2.6706 -0.8163 -0.8931
  676MOL0     H91208   2.994   4.014   4.957  0.6791  4.0957 -0.0304
  676MOL0     H91209   2.985   3.935   5.248  7.4736 -3.4123  1.6730
  676MOL0     H91210   2.952   3.819   5.126  0.4997 -0.4660  0.6259
  676MOL0     H91211   3.176   3.689   5.096 -1.7719  0.8289 -0.0535
  676MOL0     H91212   3.510   3.724   5.251  1.5807  0.7005 -1.0344
  676MOL0     H91213   3.423   3.618   5.153  1.1180 -1.1318  1.2711
  676MOL0     H91214   3.514   3.711   4.952  1.9344  0.1785 -0.9635
  676MOL0     H91215   3.567   3.848   5.027 -1.6546  0.7317  2.6350
  676MOL0     H91216   3.771   3.749   4.975 -0.1486 -2.1594 -1.5361
  676MOL0     H91217   3.725   3.597   5.029  0.4744 -0.3202  2.6746
  676MOL0     H91218   3.723   3.680   5.269 -2.1160  2.1349  0.0013
  676MOL0     H91219   3.746   3.842   5.221 -2.8606 -1.1218  0.4485
  676MOL0     H91220   4.169   3.738   5.153 -2.4608 -0.2342  0.6602
  676MOL0     H91221   4.307   3.911   5.088 -1.2319 -2.7044  2.3581
  676MOL0     H91222   4.620   4.095   4.908  0.2214  0.5520 -1.9745
  676MOL0     H91223   4.791   4.272   4.921 -0.6074 -0.0183  1.8502
  676MOL0     H91224   4.691   4.682   5.050 -1.5140 -0.7821 -0.4431
  676MOL0     H91225   4.721   4.525   5.135  0.1971  0.0263 -0.2461
  676MOL0     H91226   4.903   4.702   5.202  2.5524  0.1672 -1.1940
  676MOL0     H91227   4.966   4.565   5.119  0.1792 -0.6761  1.3861
  676MOL0     H91228   4.957   4.691   4.900 -0.7753 -0.0384  0.8290
  676MOL0     H91229   4.888   4.830   4.993  0.1069  0.6737  1.7541
  676MOL0     H91230   5.105   4.795   5.146  0.6313 -0.2798 -0.2617
  676MOL0     H91231   5.117   4.885   4.991  1.2300  0.1731 -0.7831
  676MOL0     H91232   5.164   4.649   4.896 -3.4588 -0.0476  0.9230
  676MOL0     H91233   5.202   4.593   5.064 -0.4090  0.8945  1.1807
  676MOL0     H91234   5.407   4.664   4.933  0.4404  1.4029 -1.4020
  676MOL0     H91235   5.346   4.829   4.927  0.9903  0.0905 -0.3223
  676MOL0     H91236   5.340   4.717   5.212  0.9666  2.9456  1.8351
  676MOL0     H91237   5.366   4.874   5.145  1.9741  0.6193 -3.1168
  676MOL0     H91238   5.566   4.737   5.249  2.0386  0.4265 -0.4281
  676MOL0     H91239   5.556   4.627   5.122 -1.4486 -0.1208  0.5181
  676MOL0     H91240   4.510   4.579   4.938  1.1071  0.8587  0.7190
  676MOL0     H91241   4.332   4.411   4.963  0.8326  0.4992  1.8872
  676MOL0     H91242   3.958   4.133   4.939 -0.2596  0.6649  2.2834
  676MOL0     H91243   3.815   3.965   5.077 -0.2033 -0.2903 -0.7887
  676MOL0     H91244   1.914   4.281   4.933 -0.4398 -0.9283  1.0708
  676MOL0     H91245   1.797   4.480   5.002 -0.3376  0.2967 -0.7332
  676MOL0     H91246   1.881   4.872   5.404  0.0139  0.9850  0.6985
  676MOL0     H91247   1.694   5.034   5.488  0.3563 -0.9104 -0.0295
  676MOL0     H91248   1.472   5.185   5.508  0.5186 -0.2183  1.2619
  676MOL0     H91249   1.448   5.012   5.491  3.3702  1.3797  0.8946
  676MOL0     H91250   1.277   5.255   5.418 -1.4349  0.1072 -0.4860
  676MOL0     H91251   1.235   5.136   5.517  1.3439  0.0156  1.3960
  676MOL0     H91252   1.266   5.107   5.203 -0.2235  2.6536 -0.1080
  676MOL0     H91253   1.117   5.142   5.284 -0.0116 -1.2723 -1.0548
  676MOL0     H91254   1.275   4.888   5.306  1.2181  4.1678  1.2933
  676MOL0     H91255   1.130   4.912   5.401 -0.5474 -0.0613 -0.9033
  676MOL0     H91256   0.974   4.781   5.045  1.4931 -0.0273 -1.1267
  676MOL0     H91257   1.561   5.062   5.078  0.8234 -1.9581 -2.6143
  676MOL0     H91258   1.766   4.827   4.932 -0.8598  0.1989 -0.1827
  676MOL0     H91259   1.663   4.974   4.923  1.8365  1.5191 -2.4842
  676MOL0     H91260   1.836   4.991   4.927  1.7066 -1.6804 -0.7882
  677MOL0     O91261   3.613   0.281   6.426 -0.0726  0.3785 -0.1301
  677MOL0     C91262   3.606   0.340   6.317  0.5444  0.0634  0.1047
  677MOL0     O91263   3.697   0.421   6.266  0.5907 -0.4787 -0.5758
  677MOL0     C91264   3.804   0.445   6.347 -0.5197  0.1280  0.2643
  677MOL0     C91265   3.900   0.349   6.382 -0.0512 -0.2779  0.1124
  677MOL0     C91266   4.005   0.369   6.473 -0.4754  0.8081  0.0351
  677MOL0     C91267   4.015   0.492   6.541  0.5035 -0.8967  0.4579
  677MOL0     O91268   4.112   0.492   6.642 -0.2143  0.1440  0.6781
  677MOL0     C91269   4.185   0.612   6.661  0.1896  0.1318 -0.2502
  677MOL0     C91270   4.323   0.605   6.589  0.1521 -0.5012  0.3686
  677MOL0     C91271   4.367   0.753   6.532  0.3289 -0.5703  0.0483
  677MOL0     C91272   4.394   0.850   6.649 -0.4738  0.0517 -1.3999
  677MOL0     C91273   4.504   0.963   6.622  0.6877 -0.6169  0.4970
  677MOL0     C91274   4.529   1.051   6.748 -0.1101  0.1065  0.2515
  677MOL0     C91275   4.635   1.158   6.736 -0.4221  0.0637 -0.5479
  677MOL0     C91276   4.775   1.107   6.723  0.0794 -0.7976  0.8542
  677MOL0     N91277   4.885   1.190   6.784 -0.2013 -0.1201  0.5688
  677MOL0     C91278   4.921   1.316   6.732 -0.5834  0.0858  0.1308
  677MOL0     C91279   5.039   1.347   6.800  0.4427 -0.1585  0.6936
  677MOL0     C91280   5.118   1.465   6.790 -0.0679  0.4744  0.0859
  677MOL0     C91281   5.200   1.483   6.668 -0.4164 -0.5548 -0.2388
  677MOL0     C91282   5.298   1.594   6.696  0.8973  0.4713  0.6092
  677MOL0     C91283   5.397   1.609   6.580  0.2122  0.4978 -0.6083
  677MOL0     O91284   5.465   1.485   6.562  0.6197  0.9949 -0.1810
  677MOL0     C91285   5.595   1.486   6.532  0.3641 -0.2851  0.5962
  677MOL0     C91286   5.665   1.365   6.563 -0.3148 -0.6326 -1.0863
  677MOL0     C91287   5.805   1.368   6.536 -0.2984 -0.0167 -0.2423
  677MOL0     C91288   5.875   1.486   6.490 -0.0406 -0.7272  1.0976
  677MOL0     C91289   6.021   1.470   6.445  0.6056 -0.2784  0.3321
  677MOL0     O91290   6.088   1.580   6.414 -0.2651  0.8229  0.4406
  677MOL0     C91291   6.219   1.558   6.382 -0.2444 -0.9210  0.6429
  677MOL0     C91292   6.261   1.495   6.265  0.5387  0.4152  0.4572
  677MOL0     C91293   6.396   1.500   6.228  0.0754  0.0974 -0.3802
  677MOL0     C91294   6.490   1.579   6.296  0.0706 -0.3765 -0.1405
  677MOL0     O91295   6.626   1.592   6.268 -0.1703 -0.1139 -0.2758
  677MOL0     C91296   6.671   1.509   6.160  0.2300  0.3014  0.6869
  677MOL0     C91297   6.811   1.531   6.112 -1.2551  0.3906 -0.0137
  677MOL0     C91298   6.891   1.618   6.210  0.1573 -0.5477  0.5116
  677MOL0     C91299   7.046   1.602   6.177  0.1044 -0.4011 -0.3218
  677MOL0     C91300   7.118   1.477   6.253  0.1028 -0.6795 -0.2431
  677MOL0     C91301   7.267   1.490   6.234  0.8242 -0.5439  0.4029
  677MOL0     C91302   7.329   1.381   6.314  0.4012  0.3584 -0.1392
  677MOL0     C91303   7.482   1.393   6.324 -0.0223 -0.2234 -0.1323
  677MOL0    Cl91304   7.573   1.243   6.375 -0.2873  0.0991  0.1795
  677MOL0     C91305   6.444   1.644   6.404  0.1800 -0.1093  0.0531
  677MOL0     C91306   6.317   1.638   6.446  0.9986 -0.2487  0.5567
  677MOL0     O91307   6.069   1.358   6.453 -0.1638 -0.2097 -0.3120
  677MOL0     C91308   5.793   1.598   6.447  0.3082  1.2495 -0.5301
  677MOL0     C91309   5.651   1.593   6.470 -0.3911  0.3540 -0.2500
  677MOL0     N91310   5.060   1.249   6.896 -0.4016 -0.6459 -0.3334
  677MOL0     N91311   4.967   1.156   6.886 -0.0904 -0.2281 -0.2908
  677MOL0     C91312   3.936   0.604   6.493 -0.5579 -0.3306  0.8987
  677MOL0     C91313   3.830   0.574   6.399  0.3192 -0.4109 -0.1288
  677MOL0     C91314   3.476   0.318   6.246  0.0819 -0.2604  0.0916
  677MOL0     C91315   3.441   0.402   6.141 -0.0376 -0.0049 -0.3123
  677MOL0     C91316   3.324   0.395   6.073 -0.7983 -0.6371 -0.2017
  677MOL0     C91317   3.238   0.295   6.105 -0.0284  0.6313 -0.3224
  677MOL0     O91318   3.126   0.284   6.025  0.2017  0.3546 -0.0830
  677MOL0     C91319   3.095   0.150   5.975  0.6676 -0.4642 -0.6197
  677MOL0     C91320   2.984   0.155   5.875  0.7756  0.0282 -0.9082
  677MOL0     C91321   2.944   0.017   5.826  0.0783 -0.1271 -0.6724
  677MOL0     C91322   2.819   0.031   5.737 -0.2898  0.2068  0.1473
  677MOL0     C91323   2.845   0.103   5.620  0.4240  0.3889  0.5645
  677MOL0     C91324   2.840   0.157   5.516 -0.5719 -0.5740  0.4666
  677MOL0     C91325   3.249   0.219   6.226  0.7724  0.1691  0.3803
  677MOL0     C91326   3.373   0.223   6.296 -0.0099 -0.2572  0.2666
  677MOL0     C91327   3.367   0.143   6.425  0.1378 -0.9372 -0.0787
  677MOL0     H91328   3.890   0.251   6.336  3.7535 -0.1817 -1.2497
  677MOL0     H91329   4.076   0.290   6.494 -2.5214 -0.9690  0.6018
  677MOL0     H91330   4.132   0.698   6.620  0.2973 -0.6292 -2.0748
  677MOL0     H91331   4.200   0.624   6.769  0.9017 -0.6635 -0.2441
  677MOL0     H91332   4.314   0.540   6.501  3.4782 -0.2927 -0.2592
  677MOL0     H91333   4.401   0.554   6.647  0.7103  2.4808  2.4316
  677MOL0     H91334   4.296   0.791   6.458  1.6332 -1.7093 -1.8723
  677MOL0     H91335   4.452   0.738   6.466  0.2127 -0.9537 -0.0163
  677MOL0     H91336   4.302   0.907   6.664 -0.2093  0.2224 -0.3636
  677MOL0     H91337   4.423   0.788   6.734  1.7539  1.9883 -0.6379
  677MOL0     H91338   4.595   0.905   6.600  1.5658  0.8392  0.1660
  677MOL0     H91339   4.460   1.015   6.537 -1.0334 -0.9128  1.1609
  677MOL0     H91340   4.430   1.089   6.775 -0.4601 -1.8069  1.9010
  677MOL0     H91341   4.557   0.983   6.829 -1.0815  0.6218  1.0450
  677MOL0     H91342   4.630   1.224   6.823  3.0964  1.2586 -1.0957
  677MOL0     H91343   4.619   1.230   6.655  0.5874  1.3540  0.3694
  677MOL0     H91344   4.787   1.005   6.762  1.1869 -0.6273  0.9816
  677MOL0     H91345   4.796   1.107   6.615 -3.1080  0.1397  0.1212
  677MOL0     H91346   4.861   1.374   6.662 -2.7637 -1.7323  0.4084
  677MOL0     H91347   5.054   1.553   6.798  0.0022  0.3950  1.9943
  677MOL0     H91348   5.183   1.462   6.878  0.1745 -0.1579 -0.1050
  677MOL0     H91349   5.254   1.394   6.636  0.3360  0.6772 -2.5915
  677MOL0     H91350   5.128   1.518   6.593 -1.3015 -1.1208  0.3292
  677MOL0     H91351   5.363   1.588   6.784  2.0171 -0.7510 -0.2669
  677MOL0     H91352   5.250   1.692   6.704  1.9792  1.2955 -2.1233
  677MOL0     H91353   5.457   1.700   6.593 -1.4579  1.2707  3.3020
  677MOL0     H91354   5.352   1.634   6.483 -1.8915  0.2965  0.2446
  677MOL0     H91355   5.614   1.278   6.602  2.0842 -3.1024 -2.9866
  677MOL0     H91356   5.873   1.285   6.556  2.5621  1.5316 -2.6008
  677MOL0     H91357   6.187   1.434   6.214 -0.9198  0.3730  2.5276
  677MOL0     H91358   6.418   1.449   6.135  0.9321  1.1484 -0.7808
  677MOL0     H91359   6.674   1.405   6.195 -1.2042  0.0869  0.2525
  677MOL0     H91360   6.599   1.506   6.077 -1.2322 -1.8233  1.9126
  677MOL0     H91361   6.867   1.436   6.109 -1.3859  0.3026  0.3000
  677MOL0     H91362   6.804   1.573   6.011  0.0008  1.3156  0.2587
  677MOL0     H91363   6.855   1.720   6.196  0.5199 -0.4197  0.4814
  677MOL0     H91364   6.890   1.583   6.314 -2.2917 -4.8303 -0.7332
  677MOL0     H91365   7.099   1.695   6.202  1.6895 -1.4803  0.4921
  677MOL0     H91366   7.055   1.598   6.068  1.0542  0.2766 -0.2821
  677MOL0     H91367   7.079   1.379   6.222 -0.2156 -2.5563  5.0423
  677MOL0     H91368   7.100   1.476   6.360 -1.6202  1.7892 -0.4262
  677MOL0     H91369   7.293   1.471   6.129 -1.9368  1.4813 -0.7723
  677MOL0     H91370   7.304   1.584   6.276  1.6489 -0.9670  0.6337
  677MOL0     H91371   7.298   1.287   6.266  0.9879 -0.7015  1.4923
  677MOL0     H91372   7.282   1.368   6.412 -3.1160  0.3757 -1.6523
  677MOL0     H91373   7.519   1.423   6.225  0.2330 -1.3442 -0.3883
  677MOL0     H91374   7.509   1.467   6.399 -0.9521  0.4805 -0.4620
  677MOL0     H91375   6.523   1.707   6.443  1.2743  0.4735 -2.8658
  677MOL0     H91376   6.293   1.712   6.521  2.1057  1.2355 -0.4892
  677MOL0     H91377   5.841   1.671   6.383  0.0043  0.5382 -1.6180
  677MOL0     H91378   5.594   1.673   6.424  1.1272  0.8792 -1.2856
  677MOL0     H91379   3.947   0.706   6.529  0.0770 -0.8026  2.1135
  677MOL0     H91380   3.761   0.651   6.364 -1.5435 -2.2408 -0.6729
  677MOL0     H91381   3.514   0.481   6.121  0.4033  0.5590  2.9517
  677MOL0     H91382   3.296   0.456   5.987  0.2345  0.4856  0.2219
  677MOL0     H91383   3.063   0.085   6.056  0.8939 -1.4909 -1.3304
  677MOL0     H91384   3.180   0.097   5.931  1.9353  1.2201 -0.3174
  677MOL0     H91385   3.016   0.219   5.793  0.8934 -0.2038 -1.0446
  677MOL0     H91386   2.903   0.212   5.921  3.2240  3.8883 -0.9524
  677MOL0     H91387   2.903  -0.044   5.906 -1.2925 -0.8852 -1.9032
  677MOL0     H91388   3.023  -0.035   5.771 -1.0308 -1.3570 -1.1461
  677MOL0     H91389   2.772  -0.065   5.714 -0.5007 -0.2792  2.4121
  677MOL0     H91390   2.739   0.085   5.788  0.2901  2.7303 -1.4391
  677MOL0     H91391   2.844   0.214   5.426 -1.3531 -0.7899  0.2876
  677MOL0     H91392   3.161   0.163   6.257 -0.1325  0.7744 -1.0077
  677MOL0     H91393   3.350   0.219   6.502  0.0449 -0.6687 -0.3649
  677MOL0     H91394   3.277   0.082   6.435 -0.2612 -0.3754 -0.1969
  677MOL0     H91395   3.456   0.082   6.447  0.7906 -0.5115 -1.4652
  678MOL0     O91396   4.432   6.994   3.001 -0.1487  0.2819 -0.3581
  678MOL0     C91397   4.455   6.919   3.093  0.1325  0.4540 -0.5952
  678MOL0     O91398   4.588   6.880   3.124 -0.4133  0.0427 -0.8524
  678MOL0     C91399   4.688   6.949   3.061 -0.0048  0.4482  0.4448
  678MOL0     C91400   4.707   6.962   2.910  0.1324  0.4257 -0.5266
  678MOL0     C91401   4.818   7.026   2.865  0.3526  0.2468  0.5247
  678MOL0     C91402   4.925   7.068   2.941 -0.4005  0.4770 -0.8269
  678MOL0     O91403   5.036   7.122   2.890  0.1109  0.6260  0.1863
  678MOL0     C91404   5.104   7.042   2.792  0.4117 -0.2325  0.2354
  678MOL0     C91405   5.222   6.963   2.852  0.0754  0.1064  0.0634
  678MOL0     C91406   5.321   7.053   2.926  0.7753 -0.4281 -0.3648
  678MOL0     C91407   5.448   6.988   2.972 -0.1717 -0.8157  0.3609
  678MOL0     C91408   5.527   7.081   3.068 -0.0023  0.2401  0.8193
  678MOL0     C91409   5.659   7.027   3.107 -0.6760 -0.8991  0.2314
  678MOL0     C91410   5.753   6.997   2.993 -0.0050  0.6276 -0.2923
  678MOL0     C91411   5.777   7.108   2.898 -0.0819  0.4128 -0.1225
  678MOL0     N91412   5.874   7.057   2.792  0.2206  0.4941 -0.4448
  678MOL0     C91413   6.008   7.080   2.790  0.4496  0.1771  0.5188
  678MOL0     C91414   6.058   6.988   2.695 -0.0912 -0.0014  0.5700
  678MOL0     C91415   6.205   6.966   2.669 -0.0236 -0.5339 -0.5851
  678MOL0     C91416   6.243   7.032   2.534  0.3287 -0.3029  0.3616
  678MOL0     C91417   6.229   6.936   2.412  0.2588 -0.3792 -0.1283
  678MOL0     C91418   6.360   6.912   2.347 -0.0060 -0.9959  0.0627
  678MOL0     O91419   6.405   7.038   2.295  0.2643  0.1190 -0.7861
  678MOL0     C91420   6.525   7.053   2.239  0.3709  0.0199  0.6158
  678MOL0     C91421   6.547   7.175   2.177  0.1648 -0.0842 -0.1255
  678MOL0     C91422   6.670   7.205   2.117  0.5191  0.6553 -0.3716
  678MOL0     C91423   6.772   7.111   2.120  0.2436  0.2114  0.5290
  678MOL0     C91424   6.898   7.139   2.034  0.0417  0.5437  0.5090
  678MOL0     O91425   6.995   7.044   2.058  0.3473  0.1250  0.5481
  678MOL0     C91426   7.120   7.037   1.994  0.3812 -0.1423 -0.3432
  678MOL0     C91427   7.201   7.145   1.958 -0.1070 -1.1109 -0.7157
  678MOL0     C91428   7.328   7.127   1.910 -0.1137  0.4810  0.5348
  678MOL0     C91429   7.373   6.994   1.884 -0.3237 -0.3259 -0.3300
  678MOL0     O91430   7.498   6.955   1.836 -0.4354 -0.3172  0.1671
  678MOL0     C91431   7.591   7.063   1.820 -0.0082  0.2966 -0.0803
  678MOL0     C91432   7.703   7.014   1.734 -1.0561 -0.4195 -0.0276
  678MOL0     C91433   7.824   7.107   1.717 -0.6378 -0.1734 -0.4651
  678MOL0     C91434   7.921   7.072   1.608 -0.0512  0.4044  0.2773
  678MOL0     C91435   8.006   6.947   1.631 -0.1933 -0.1471 -0.0088
  678MOL0     C91436   8.104   6.964   1.745 -0.0034 -0.3861 -0.6820
  678MOL0     C91437   8.190   6.840   1.752  0.1470  0.0586 -0.3567
  678MOL0     C91438   8.246   6.815   1.887  0.5918 -0.4179  0.1531
  678MOL0    Cl91439   8.315   6.973   1.945  0.0609 -0.5496  0.4858
  678MOL0     C91440   7.292   6.890   1.915  0.0582 -0.0724  0.4349
  678MOL0     C91441   7.169   6.910   1.976 -0.1662  0.1198  0.5945
  678MOL0     O91442   6.911   7.230   1.959  0.9080 -0.0322  0.3724
  678MOL0     C91443   6.749   6.980   2.180 -0.6722  0.4791  0.3130
  678MOL0     C91444   6.624   6.954   2.229  0.0485  0.4222 -0.8443
  678MOL0     N91445   5.946   6.916   2.642  0.0370  0.3715  1.2519
  678MOL0     N91446   5.836   6.978   2.691  0.2509  1.0260  0.8762
  678MOL0     C91447   4.911   7.050   3.079 -0.0814 -1.2920  0.2341
  678MOL0     C91448   4.796   7.001   3.138 -1.4817  0.4020  0.0281
  678MOL0     C91449   4.344   6.847   3.164 -0.1404 -0.0374 -0.2277
  678MOL0     C91450   4.372   6.717   3.216  0.0303 -0.1501 -0.0951
  678MOL0     C91451   4.265   6.648   3.275 -0.8625 -0.6165  0.1633
  678MOL0     C91452   4.134   6.698   3.278 -0.1678 -0.3599 -0.8778
  678MOL0     O91453   4.032   6.618   3.334 -0.0389 -0.0492 -0.8840
  678MOL0     C91454   3.903   6.685   3.357 -0.3352  0.4186  0.7096
  678MOL0     C91455   3.802   6.586   3.404  0.1405 -0.1716 -0.3667
  678MOL0     C91456   3.803   6.458   3.332 -1.5093  0.3673 -0.7886
  678MOL0     C91457   3.720   6.342   3.393  0.0955 -0.5492 -0.7735
  678MOL0     C91458   3.578   6.375   3.356  0.6342 -0.3561 -0.6246
  678MOL0     C91459   3.465   6.420   3.345  0.4394 -0.0969  0.4751
  678MOL0     C91460   4.109   6.823   3.220 -0.2112  0.2516 -0.1545
  678MOL0     C91461   4.210   6.906   3.168 -0.1651 -0.6467 -0.1899
  678MOL0     C91462   4.173   7.036   3.121  0.8241  0.0957 -0.7675
  678MOL0     H91463   4.630   6.923   2.844  1.5970 -0.7723 -1.6184
  678MOL0     H91464   4.823   7.041   2.758 -0.9113  1.0009  0.5443
  678MOL0     H91465   5.038   6.977   2.735  0.4615 -1.3882  1.4316
  678MOL0     H91466   5.144   7.115   2.721 -0.7475 -0.3049 -0.5034
  678MOL0     H91467   5.271   6.927   2.761 -3.1777 -0.0075 -1.8414
  678MOL0     H91468   5.189   6.881   2.916 -0.5691 -0.4768 -0.9708
  678MOL0     H91469   5.275   7.087   3.019  2.1184  0.8433 -0.1292
  678MOL0     H91470   5.348   7.142   2.868 -1.5004  2.1653  2.2329
  678MOL0     H91471   5.415   6.896   3.022  1.0836 -1.5372 -0.0920
  678MOL0     H91472   5.507   6.963   2.883  0.9660 -1.0272  1.1524
  678MOL0     H91473   5.542   7.181   3.025 -1.4917 -0.0548 -0.5147
  678MOL0     H91474   5.470   7.090   3.161  0.6084  0.9700  1.1326
  678MOL0     H91475   5.696   7.092   3.186 -3.7512  1.0206  0.2547
  678MOL0     H91476   5.634   6.929   3.150  0.5975 -0.2607  2.5824
  678MOL0     H91477   5.709   6.917   2.933 -3.4293  3.4775 -1.9110
  678MOL0     H91478   5.846   6.967   3.043  2.0404  2.6059 -2.5705
  678MOL0     H91479   5.687   7.127   2.839  0.2741  0.3559 -0.6992
  678MOL0     H91480   5.808   7.201   2.945  1.5998  0.5430 -1.3948
  678MOL0     H91481   6.078   7.130   2.857  2.0754 -1.5702  0.2143
  678MOL0     H91482   6.264   7.007   2.752 -2.0997 -0.5753  1.0008
  678MOL0     H91483   6.231   6.860   2.681  0.9148 -0.2187  0.3573
  678MOL0     H91484   6.183   7.120   2.511  0.5960 -0.0073  0.7758
  678MOL0     H91485   6.349   7.060   2.544  0.5195 -0.8661 -0.0290
  678MOL0     H91486   6.153   6.968   2.340 -0.7571 -1.9982  0.1725
  678MOL0     H91487   6.181   6.844   2.446  1.1892 -0.8169  0.0201
  678MOL0     H91488   6.333   6.839   2.270 -3.0666 -0.7957  0.8272
  678MOL0     H91489   6.423   6.874   2.428 -0.4894 -1.8038  0.0749
  678MOL0     H91490   6.474   7.255   2.179  0.4876  0.2534 -1.0051
  678MOL0     H91491   6.684   7.298   2.064  1.1422  0.4462 -0.5724
  678MOL0     H91492   7.168   7.248   1.965  2.0056 -0.4321 -0.0205
  678MOL0     H91493   7.397   7.210   1.919  2.0606 -1.2767  1.2174
  678MOL0     H91494   7.543   7.153   1.779  0.7898  3.1981  4.5699
  678MOL0     H91495   7.641   7.079   1.916 -0.4345 -1.1121  0.4042
  678MOL0     H91496   7.742   6.919   1.772  2.3041  0.9722  0.3278
  678MOL0     H91497   7.671   6.991   1.632 -0.0887  0.9181 -0.6485
  678MOL0     H91498   7.789   7.211   1.711  0.3373  0.1035 -1.8288
  678MOL0     H91499   7.874   7.106   1.815 -3.4773  1.3543  1.1427
  678MOL0     H91500   7.974   7.162   1.575 -0.8357  0.3896 -1.1236
  678MOL0     H91501   7.862   7.044   1.520  0.2313  3.5471 -1.0356
  678MOL0     H91502   8.063   6.932   1.539  1.8124 -0.1762  1.1673
  678MOL0     H91503   7.929   6.870   1.640 -1.2294  0.6910 -1.4236
  678MOL0     H91504   8.165   7.045   1.704  0.6784 -2.5016 -4.2684
  678MOL0     H91505   8.059   6.973   1.844  5.2625  2.2826  1.8331
  678MOL0     H91506   8.266   6.829   1.673 -0.3622  0.6043 -0.9313
  678MOL0     H91507   8.133   6.749   1.733  1.1721 -1.0499  1.5316
  678MOL0     H91508   8.161   6.784   1.948  0.4708 -0.9546 -0.2758
  678MOL0     H91509   8.325   6.741   1.868 -0.1435 -0.2522 -5.0651
  678MOL0     H91510   7.326   6.788   1.904 -1.2874 -0.3368 -2.1276
  678MOL0     H91511   7.112   6.828   2.017 -0.9611  1.4564  2.2889
  678MOL0     H91512   6.827   6.904   2.184  2.9909  3.5828 -3.5964
  678MOL0     H91513   6.599   6.859   2.275 -2.0825  1.7650  0.9935
  678MOL0     H91514   4.992   7.093   3.137  1.3023  0.2627 -2.6097
  678MOL0     H91515   4.790   6.981   3.244 -3.9628  2.3216  0.3303
  678MOL0     H91516   4.466   6.665   3.204  0.5787  0.6574  0.5764
  678MOL0     H91517   4.286   6.543   3.295  0.6386 -0.2074  0.9219
  678MOL0     H91518   3.852   6.731   3.272  1.2648  1.0453  0.0605
  678MOL0     H91519   3.910   6.766   3.431  0.8000 -0.0210  1.1012
  678MOL0     H91520   3.698   6.619   3.399 -0.0328 -0.7375 -0.5786
  678MOL0     H91521   3.823   6.562   3.509  0.2358  0.5321 -0.2193
  678MOL0     H91522   3.906   6.420   3.332 -0.1616  3.6188 -1.3816
  678MOL0     H91523   3.789   6.472   3.224 -0.4475 -0.1448 -1.0132
  678MOL0     H91524   3.751   6.246   3.351  0.3070 -1.0815  0.5644
  678MOL0     H91525   3.726   6.326   3.501  0.1796  0.7524 -0.5698
  678MOL0     H91526   3.362   6.446   3.331  0.3318 -0.7795 -0.0526
  678MOL0     H91527   4.007   6.862   3.223 -0.2220  0.3251 -1.2214
  678MOL0     H91528   4.259   7.103   3.136  2.6531 -2.1928 -0.3919
  678MOL0     H91529   4.152   7.028   3.014  1.3005  2.1624 -1.0557
  678MOL0     H91530   4.084   7.076   3.171 -1.1743 -2.2032 -2.2863
  679MOL0     O91531  11.016   6.747   6.959 -0.5396  0.5136 -0.4064
  679MOL0     C91532  11.084   6.834   6.902  0.2482  0.2055 -1.3260
  679MOL0     O91533  11.185   6.819   6.812  0.1279  0.1708 -0.7085
  679MOL0     C91534  11.209   6.686   6.790  0.0229  0.0835  0.4476
  679MOL0     C91535  11.117   6.600   6.726 -0.2064 -0.3110 -0.3592
  679MOL0     C91536  11.169   6.475   6.668  0.7515  0.5334  0.4321
  679MOL0     C91537  11.294   6.419   6.700  0.3698 -0.0829 -0.0990
  679MOL0     O91538  11.343   6.299   6.652 -0.8422 -0.1061  0.3035
  679MOL0     C91539  11.266   6.187   6.678  0.8141 -0.7007  0.0774
  679MOL0     C91540  11.276   6.151   6.819  0.0556 -0.3518 -0.0756
  679MOL0     C91541  11.237   6.006   6.859 -0.3633 -0.1613  0.0884
  679MOL0     C91542  11.080   5.991   6.859 -0.3345 -0.2289 -1.2053
  679MOL0     C91543  11.046   5.852   6.921  0.3770  0.3698 -0.4847
  679MOL0     C91544  10.902   5.824   6.910  0.2692 -0.5765 -0.4899
  679MOL0     C91545  10.868   5.694   6.982  0.2154 -0.6905  0.3387
  679MOL0     C91546  10.869   5.704   7.139  0.3940  0.6056  1.0392
  679MOL0     N91547  10.780   5.617   7.217  0.1022 -0.0268  0.4040
  679MOL0     C91548  10.671   5.554   7.167  0.4871  0.4838  0.3604
  679MOL0     C91549  10.645   5.450   7.259 -0.0401 -0.3816 -0.2417
  679MOL0     C91550  10.545   5.342   7.236  0.7522  0.4269  0.1390
  679MOL0     C91551  10.405   5.397   7.240 -0.2812 -0.5059  0.0292
  679MOL0     C91552  10.281   5.302   7.203 -0.6346 -0.9269  0.4464
  679MOL0     C91553  10.148   5.371   7.207 -0.0729  0.5292  0.0531
  679MOL0     O91554  10.135   5.465   7.098  0.3481 -0.7295 -0.2395
  679MOL0     C91555  10.003   5.504   7.081  0.4480  0.2963  0.1430
  679MOL0     C91556   9.966   5.634   7.127 -0.3425  0.5043  0.1872
  679MOL0     C91557   9.835   5.674   7.098 -0.2959 -0.0943  0.3501
  679MOL0     C91558   9.746   5.584   7.021 -0.1310  0.0858  0.3335
  679MOL0     C91559   9.613   5.646   6.984 -0.7104 -0.2214 -0.4321
  679MOL0     O91560   9.573   5.732   7.073  0.0797 -0.1538 -0.1358
  679MOL0     C91561   9.445   5.781   7.081 -0.2318 -1.0060 -0.0752
  679MOL0     C91562   9.368   5.825   6.968 -0.3583  0.5089 -0.0743
  679MOL0     C91563   9.244   5.880   6.985  0.3722  0.2388 -0.6288
  679MOL0     C91564   9.190   5.891   7.112  0.4210  1.1006  0.1234
  679MOL0     O91565   9.058   5.941   7.114 -0.1953  0.1098 -0.1939
  679MOL0     C91566   8.992   5.959   7.243  0.0374  1.0481 -0.3249
  679MOL0     C91567   8.865   6.051   7.221  0.2419  0.7263  0.4399
  679MOL0     C91568   8.758   6.062   7.337 -0.7841 -0.6299  1.3455
  679MOL0     C91569   8.817   6.139   7.457 -0.2273 -0.4277 -0.0042
  679MOL0     C91570   8.717   6.145   7.574  0.4904 -0.5346 -0.3876
  679MOL0     C91571   8.588   6.217   7.544 -0.3672 -0.0476 -0.9597
  679MOL0     C91572   8.616   6.366   7.510 -0.2566  0.4259 -0.5635
  679MOL0     C91573   8.512   6.419   7.409  0.0723 -0.1559  0.0914
  679MOL0    Cl91574   8.347   6.409   7.491 -0.0692 -0.4951 -0.4601
  679MOL0     C91575   9.270   5.854   7.221  1.2468  0.3768  0.1977
  679MOL0     C91576   9.396   5.795   7.205  0.5173 -0.3058 -0.9797
  679MOL0     O91577   9.547   5.596   6.897  0.1153  0.4828  0.0712
  679MOL0     C91578   9.795   5.466   6.972 -0.9892  0.3210 -0.1192
  679MOL0     C91579   9.926   5.427   7.005  0.2829  0.0908 -0.1879
  679MOL0     N91580  10.742   5.457   7.360 -0.1902 -0.4883  0.4747
  679MOL0     N91581  10.809   5.567   7.340 -0.6568  0.4146  0.4204
  679MOL0     C91582  11.383   6.503   6.766 -0.1862 -0.4009  0.3903
  679MOL0     C91583  11.339   6.635   6.807  0.4708 -0.4047  0.7615
  679MOL0     C91584  11.044   6.979   6.933 -0.1449 -0.4600  0.1361
  679MOL0     C91585  10.978   7.009   7.050 -0.0412 -0.6974  0.2451
  679MOL0     C91586  10.946   7.137   7.082 -0.5976  0.3439 -0.9648
  679MOL0     C91587  10.982   7.245   7.003 -0.9394 -0.0010  0.5388
  679MOL0     O91588  10.936   7.370   7.037 -0.4066 -0.2187  0.0958
  679MOL0     C91589  11.046   7.454   7.084  0.6704 -0.7881 -0.2347
  679MOL0     C91590  11.050   7.584   6.990  0.2233  0.5312 -0.1385
  679MOL0     C91591  11.133   7.699   7.056  0.3220 -0.1889 -0.3255
  679MOL0     C91592  11.276   7.660   7.070 -0.9500 -0.0733  0.3315
  679MOL0     C91593  11.347   7.791   7.070  0.2095 -0.0821 -0.0674
  679MOL0     C91594  11.417   7.894   7.075 -0.8034  0.9424  0.6809
  679MOL0     C91595  11.056   7.223   6.879 -0.1787  0.4687  0.1088
  679MOL0     C91596  11.089   7.084   6.844  0.1374 -0.9665 -0.9446
  679MOL0     C91597  11.178   7.078   6.717  0.5396  0.3187  0.4876
  679MOL0     H91598  11.025   6.646   6.692 -0.1724 -0.9140 -1.2985
  679MOL0     H91599  11.109   6.413   6.602  3.5288  0.7639 -2.5542
  679MOL0     H91600  11.165   6.214   6.647  1.1528  0.7880  0.1709
  679MOL0     H91601  11.289   6.099   6.617 -3.6128 -0.3017 -2.6473
  679MOL0     H91602  11.220   6.219   6.884  2.5376 -1.1102  3.1011
  679MOL0     H91603  11.379   6.158   6.855 -1.0499  0.1923  3.3600
  679MOL0     H91604  11.254   5.992   6.966 -2.2291  1.0270  0.6062
  679MOL0     H91605  11.292   5.934   6.798  2.0000  1.1940  0.5045
  679MOL0     H91606  11.038   6.077   6.912 -0.7456 -0.1891 -1.5839
  679MOL0     H91607  11.047   6.011   6.756  2.7280  0.0962 -2.2089
  679MOL0     H91608  11.108   5.773   6.877 -0.8834 -0.5572 -0.6599
  679MOL0     H91609  11.071   5.854   7.027  0.5473  3.0834 -0.5144
  679MOL0     H91610  10.848   5.908   6.953 -0.0243 -0.6414 -0.7255
  679MOL0     H91611  10.868   5.828   6.806  3.0651 -2.6568 -1.6235
  679MOL0     H91612  10.932   5.609   6.958 -0.0122 -0.9629  0.6898
  679MOL0     H91613  10.767   5.681   6.942 -0.0675  2.4423 -0.2414
  679MOL0     H91614  10.973   5.685   7.170  0.7946  0.0272 -0.5927
  679MOL0     H91615  10.836   5.803   7.172  0.5849  0.6961  0.9632
  679MOL0     H91616  10.618   5.575   7.075  1.1009  0.8387  0.0790
  679MOL0     H91617  10.562   5.300   7.137 -0.4531  2.1936 -0.8848
  679MOL0     H91618  10.550   5.268   7.316 -0.0769  0.3741  0.1581
  679MOL0     H91619  10.398   5.439   7.341  3.4109  1.0960 -0.2465
  679MOL0     H91620  10.401   5.477   7.165  0.7272 -0.0961  0.3927
  679MOL0     H91621  10.270   5.217   7.271 -0.0301  0.2182  2.0393
  679MOL0     H91622  10.290   5.262   7.102  2.8640 -1.3724  0.8271
  679MOL0     H91623  10.149   5.430   7.299  0.3323 -1.1340  1.1645
  679MOL0     H91624  10.062   5.304   7.202 -0.6936  1.4091 -1.7592
  679MOL0     H91625  10.043   5.673   7.193 -2.5659  2.3202  1.8630
  679MOL0     H91626   9.811   5.777   7.122 -0.3500  0.1471 -0.6938
  679MOL0     H91627   9.408   5.821   6.867 -0.9425 -0.2630 -0.2826
  679MOL0     H91628   9.181   5.914   6.904  0.1678  1.2114 -0.0749
  679MOL0     H91629   8.951   5.866   7.282 -0.9573  2.4461  2.2182
  679MOL0     H91630   9.062   6.014   7.307  0.1777  2.8387 -1.8903
  679MOL0     H91631   8.902   6.153   7.210 -0.1198  1.1561  2.8004
  679MOL0     H91632   8.813   6.037   7.125 -0.3078  1.2174  0.6587
  679MOL0     H91633   8.678   6.126   7.296  0.7663  1.0382  0.8036
  679MOL0     H91634   8.714   5.963   7.356 -1.3013 -1.2848 -2.5256
  679MOL0     H91635   8.841   6.240   7.421 -1.2056  1.2249  3.5081
  679MOL0     H91636   8.904   6.078   7.484  0.2404  0.1816 -0.1128
  679MOL0     H91637   8.765   6.179   7.666 -0.2742 -0.6012  0.0484
  679MOL0     H91638   8.689   6.045   7.608  1.4117 -0.8798 -0.6323
  679MOL0     H91639   8.533   6.160   7.468  0.0502 -1.2292 -0.3962
  679MOL0     H91640   8.538   6.219   7.641 -1.2194  1.1028 -1.4005
  679MOL0     H91641   8.715   6.388   7.470 -0.4418  4.8231  0.8461
  679MOL0     H91642   8.617   6.421   7.604  0.6513 -0.6893  0.0934
  679MOL0     H91643   8.535   6.525   7.393 -0.6502 -0.1855 -1.3191
  679MOL0     H91644   8.514   6.360   7.317 -2.8909 -2.1706  1.1801
  679MOL0     H91645   9.235   5.852   7.324  0.2825  0.8300 -0.1126
  679MOL0     H91646   9.458   5.755   7.285 -0.9529  0.6300  0.7133
  679MOL0     H91647   9.738   5.394   6.914 -0.2259 -1.4800  1.2737
  679MOL0     H91648   9.967   5.337   6.961 -0.7304 -0.2888 -0.3786
  679MOL0     H91649  11.486   6.476   6.786  0.8932  2.5668 -0.6211
  679MOL0     H91650  11.409   6.700   6.858 -3.0054  2.2116  2.6189
  679MOL0     H91651  10.960   6.932   7.125  0.4498  1.3848  2.5991
  679MOL0     H91652  10.890   7.157   7.173  0.3836 -0.4026 -0.1776
  679MOL0     H91653  11.138   7.395   7.081 -0.0346 -1.8793 -2.1445
  679MOL0     H91654  11.019   7.495   7.182  2.6208  3.8806 -1.4142
  679MOL0     H91655  10.950   7.618   6.964  0.9107  2.2421 -0.6427
  679MOL0     H91656  11.097   7.560   6.894 -3.5341 -1.4599 -1.6977
  679MOL0     H91657  11.098   7.707   7.159 -0.9333  1.1839 -0.8175
  679MOL0     H91658  11.119   7.792   7.000 -1.1856  1.0847  2.0041
  679MOL0     H91659  11.283   7.606   7.164 -1.2509  0.2527  0.5418
  679MOL0     H91660  11.312   7.594   6.990 -0.8931 -0.0954  0.3750
  679MOL0     H91661  11.482   7.978   7.085  2.2781 -1.0771 -0.7687
  679MOL0     H91662  11.100   7.304   6.822  2.0858 -1.5499 -1.2423
  679MOL0     H91663  11.196   7.177   6.674  0.0948  0.1001 -0.2180
  679MOL0     H91664  11.276   7.031   6.734 -0.6369 -3.6608 -2.3201
  679MOL0     H91665  11.132   7.026   6.633  0.2132  2.4635 -0.7428
  680MOL0     O91666  10.874   0.605   9.311 -0.9039  0.3469 -1.0789
  680MOL0     C91667  10.838   0.497   9.362 -0.0323 -0.3334 -0.7049
  680MOL0     O91668  10.913   0.380   9.364  1.2321  0.3586  0.0316
  680MOL0     C91669  11.032   0.377   9.300 -0.9311 -0.3786 -0.8926
  680MOL0     C91670  11.053   0.426   9.162 -0.5166  0.5845 -0.2852
  680MOL0     C91671  11.185   0.422   9.111  0.0433  0.1989  0.6599
  680MOL0     C91672  11.294   0.372   9.186 -0.0791  0.3447 -0.3110
  680MOL0     O91673  11.418   0.380   9.124  0.7756 -0.3532  0.3492
  680MOL0     C91674  11.521   0.304   9.187  1.1091  0.4419  1.2590
  680MOL0     C91675  11.641   0.301   9.097 -0.2806 -0.4475  0.3938
  680MOL0     C91676  11.765   0.267   9.182 -0.2137  0.6937  0.0352
  680MOL0     C91677  11.898   0.250   9.101 -0.8493  0.1817  0.0480
  680MOL0     C91678  12.021   0.207   9.196  0.4664 -0.6243  0.4495
  680MOL0     C91679  12.105   0.335   9.206  0.5102  0.4502 -0.8367
  680MOL0     C91680  12.181   0.354   9.068 -0.8448 -0.3630  0.5907
  680MOL0     C91681  12.286   0.248   9.049 -0.4728  0.3124  0.9261
  680MOL0     N91682  12.370   0.220   9.169  0.0872  0.4920 -0.0043
  680MOL0     C91683  12.490   0.279   9.205 -0.3411  0.1633 -0.6363
  680MOL0     C91684  12.529   0.213   9.314  0.9431  0.4493 -0.3325
  680MOL0     C91685  12.660   0.228   9.376 -0.0027 -0.0285 -0.1812
  680MOL0     C91686  12.732   0.091   9.376  0.5150  0.0530 -0.1014
  680MOL0     C91687  12.770   0.065   9.238 -0.3371  0.0746 -0.3455
  680MOL0     C91688  12.886  -0.028   9.222  0.6326 -0.4648  0.2905
  680MOL0     O91689  12.984  -0.014   9.323  0.1335 -0.0835  0.4005
  680MOL0     C91690  13.102   0.044   9.280 -1.0346  0.2221 -0.2539
  680MOL0     C91691  13.123   0.179   9.290 -0.0614 -0.6275 -0.9631
  680MOL0     C91692  13.243   0.232   9.247  1.0107  0.4160 -0.6620
  680MOL0     C91693  13.347   0.150   9.196  0.2656  0.5653 -0.0795
  680MOL0     C91694  13.471   0.211   9.139  0.2640  0.2774 -0.6002
  680MOL0     O91695  13.556   0.125   9.071 -0.2091 -0.1666  0.0196
  680MOL0     C91696  13.674   0.172   9.030  0.8682 -0.4544  0.7150
  680MOL0     C91697  13.701   0.170   8.892  0.1837  0.4133  0.0825
  680MOL0     C91698  13.824   0.216   8.842  0.0345  0.2960  0.6099
  680MOL0     C91699  13.927   0.264   8.924 -0.8073  0.6415  0.0347
  680MOL0     O91700  14.041   0.312   8.878  0.2908 -0.0094  0.0827
  680MOL0     C91701  14.063   0.336   8.740  0.0187  0.6305  0.3446
  680MOL0     C91702  14.202   0.393   8.722  0.2577  0.1252 -0.3378
  680MOL0     C91703  14.240   0.448   8.583  0.4463 -0.5464  0.8318
  680MOL0     C91704  14.391   0.471   8.567 -0.0931  0.0805 -0.4242
  680MOL0     C91705  14.416   0.569   8.457 -0.3144  0.0169  0.3944
  680MOL0     C91706  14.389   0.717   8.497  0.0833 -0.4278 -0.1353
  680MOL0     C91707  14.412   0.820   8.381  0.4728 -1.0518 -0.2331
  680MOL0     C91708  14.352   0.961   8.408  0.0299  0.0673  0.2726
  680MOL0    Cl91709  14.454   1.051   8.531 -0.1450  0.5907  0.1707
  680MOL0     C91710  13.905   0.260   9.065 -0.7921  0.5911  0.4541
  680MOL0     C91711  13.781   0.220   9.114 -0.5913 -0.3677 -0.4220
  680MOL0     O91712  13.493   0.328   9.157  0.6347  0.1633  0.1924
  680MOL0     C91713  13.313   0.015   9.176  0.4353  0.9620  0.0106
  680MOL0     C91714  13.190  -0.042   9.218  0.2664 -0.5372  0.2107
  680MOL0     N91715  12.431   0.119   9.353  0.1174 -0.4565 -0.1352
  680MOL0     N91716  12.335   0.124   9.269  0.5700 -0.6730 -0.8560
  680MOL0     C91717  11.267   0.317   9.308 -0.6532 -0.6940 -0.3148
  680MOL0     C91718  11.142   0.319   9.365 -1.3500 -0.6277 -0.2644
  680MOL0     C91719  10.698   0.481   9.417  0.0948 -0.2411 -0.5153
  680MOL0     C91720  10.682   0.376   9.510 -0.3233  1.0370 -0.4217
  680MOL0     C91721  10.555   0.341   9.560 -0.5062 -0.2810  0.4874
  680MOL0     C91722  10.446   0.411   9.520  0.6655  0.2004  0.1925
  680MOL0     O91723  10.342   0.359   9.585 -0.3945 -0.5746  0.4779
  680MOL0     C91724  10.211   0.399   9.546  0.2598 -0.3487  0.5364
  680MOL0     C91725  10.112   0.329   9.643 -0.3404 -0.4800  0.4623
  680MOL0     C91726   9.967   0.388   9.639  1.2742 -0.1741  0.0347
  680MOL0     C91727   9.917   0.421   9.497  0.4267 -0.2451  0.3243
  680MOL0     C91728   9.913   0.302   9.411 -0.5433  0.2277 -0.2158
  680MOL0     C91729   9.917   0.205   9.336 -0.2736  0.5625  0.3319
  680MOL0     C91730  10.456   0.523   9.433 -0.1365  0.3154  0.6401
  680MOL0     C91731  10.585   0.552   9.380  0.0441 -0.6195 -0.8405
  680MOL0     C91732  10.577   0.651   9.269  0.0955 -0.3551 -0.5588
  680MOL0     H91733  10.965   0.461   9.108 -0.4369 -0.2188 -0.9579
  680MOL0     H91734  11.199   0.473   9.017 -0.7908  0.5379  0.7075
  680MOL0     H91735  11.544   0.337   9.289  2.7734  0.0407  1.0374
  680MOL0     H91736  11.478   0.204   9.174 -0.8859  1.5995 -2.0222
  680MOL0     H91737  11.652   0.403   9.057 -2.9246  0.1998  1.0860
  680MOL0     H91738  11.625   0.236   9.011 -2.7886  1.4007 -0.6522
  680MOL0     H91739  11.751   0.170   9.229 -0.2303  1.5061  1.7738
  680MOL0     H91740  11.769   0.334   9.268 -0.2266  0.8003 -0.0466
  680MOL0     H91741  11.885   0.170   9.028  0.9849  0.8014 -1.0431
  680MOL0     H91742  11.906   0.339   9.037  1.1833 -0.3975 -0.5721
  680MOL0     H91743  11.990   0.177   9.296  0.8396  0.7150  0.9937
  680MOL0     H91744  12.080   0.124   9.158 -0.5353 -1.6914  1.1662
  680MOL0     H91745  12.039   0.419   9.228 -1.8092 -1.2210 -0.9941
  680MOL0     H91746  12.163   0.328   9.298  2.9178 -0.4149 -2.3262
  680MOL0     H91747  12.227   0.453   9.058 -1.4079  0.0465  1.9150
  680MOL0     H91748  12.105   0.338   8.991 -1.1793 -0.9626  1.0365
  680MOL0     H91749  12.237   0.159   9.009  2.0252 -1.3301  1.2817
  680MOL0     H91750  12.344   0.283   8.963 -1.0760  0.6876  0.6680
  680MOL0     H91751  12.540   0.353   9.144  1.8268 -2.0775 -1.7243
  680MOL0     H91752  12.717   0.300   9.318  2.0501 -0.2740  1.4384
  680MOL0     H91753  12.644   0.265   9.477 -0.5916  0.8855 -0.5965
  680MOL0     H91754  12.821   0.096   9.441  0.1094  1.4156  0.3875
  680MOL0     H91755  12.659   0.022   9.418  2.3352 -2.0316 -0.1624
  680MOL0     H91756  12.795   0.158   9.187 -1.9638 -1.6418 -4.8252
  680MOL0     H91757  12.678   0.030   9.191 -0.4621  1.9101 -1.6003
  680MOL0     H91758  12.927  -0.008   9.123  1.9800  1.2882  1.1618
  680MOL0     H91759  12.834  -0.123   9.239  0.3868 -0.2929  0.5072
  680MOL0     H91760  13.038   0.245   9.308 -0.7651 -1.9008  0.5555
  680MOL0     H91761  13.257   0.340   9.249 -1.8366  0.8618  0.9115
  680MOL0     H91762  13.638   0.131   8.813 -0.9420 -1.1478  1.7009
  680MOL0     H91763  13.851   0.212   8.737 -0.4982 -0.7364  0.5025
  680MOL0     H91764  14.047   0.243   8.684  3.2179 -1.3721  2.3942
  680MOL0     H91765  13.992   0.411   8.704 -1.6133 -1.3157 -0.7159
  680MOL0     H91766  14.210   0.476   8.793  4.1432 -0.4770  0.1311
  680MOL0     H91767  14.274   0.321   8.761  1.5634  0.7906 -1.4357
  680MOL0     H91768  14.221   0.380   8.499  0.5154 -1.3999  1.4919
  680MOL0     H91769  14.179   0.533   8.549  0.7342 -1.0567 -1.1303
  680MOL0     H91770  14.445   0.377   8.555  0.6570  0.6475 -1.6109
  680MOL0     H91771  14.441   0.511   8.656  3.1255 -3.8239 -0.1739
  680MOL0     H91772  14.353   0.550   8.370 -1.3219  0.5940  0.9739
  680MOL0     H91773  14.522   0.559   8.431 -0.3841  1.6223 -0.6484
  680MOL0     H91774  14.286   0.730   8.532  0.0244  1.8872 -0.9614
  680MOL0     H91775  14.447   0.736   8.588 -2.5418 -1.5428  1.8901
  680MOL0     H91776  14.364   0.784   8.289 -0.0566  1.0981 -0.8456
  680MOL0     H91777  14.520   0.832   8.362  0.9503 -0.3524  2.5562
  680MOL0     H91778  14.334   1.019   8.317 -3.1018  0.4982  1.0691
  680MOL0     H91779  14.251   0.954   8.449  0.2533  0.3027  0.8744
  680MOL0     H91780  13.986   0.295   9.129 -2.2551 -1.1418  3.4686
  680MOL0     H91781  13.769   0.213   9.221  0.0026  0.9060 -0.2520
  680MOL0     H91782  13.393  -0.049   9.141  0.1878  0.5378  0.2186
  680MOL0     H91783  13.187  -0.149   9.201  1.9141 -0.5317 -0.3059
  680MOL0     H91784  11.347   0.274   9.368 -0.6529 -0.6517 -0.2857
  680MOL0     H91785  11.120   0.279   9.463 -1.1511  0.1832  0.1155
  680MOL0     H91786  10.759   0.315   9.557  0.6251  1.6570 -1.1390
  680MOL0     H91787  10.554   0.249   9.617 -1.4795  0.6133  1.9891
  680MOL0     H91788  10.184   0.384   9.441 -1.1715  1.7036  0.5456
  680MOL0     H91789  10.200   0.505   9.571  1.9120 -0.5154  2.2052
  680MOL0     H91790  10.155   0.335   9.744 -0.1164  1.2960  0.3010
  680MOL0     H91791  10.103   0.223   9.618  3.5725 -1.1795  1.2961
  680MOL0     H91792   9.962   0.476   9.703 -0.6245 -1.0990  1.2837
  680MOL0     H91793   9.899   0.319   9.690 -0.6554  1.4659 -0.1850
  680MOL0     H91794   9.813   0.455   9.498 -0.0684 -1.5724 -1.0145
  680MOL0     H91795   9.978   0.499   9.451 -2.8982  0.7660 -2.8680
  680MOL0     H91796   9.932   0.114   9.282  3.4356 -0.0618  2.1376
  680MOL0     H91797  10.368   0.579   9.403  0.7009  1.0753 -0.4972
  680MOL0     H91798  10.575   0.596   9.174  1.2352 -0.7348 -0.3880
  680MOL0     H91799  10.486   0.710   9.274  1.1386  1.1876  2.6919
  680MOL0     H91800  10.664   0.717   9.270 -0.6698  0.6632 -0.5512
  681MOL0     O91801   7.813   6.727   5.546 -0.0144  0.0690 -0.6818
  681MOL0     C91802   7.765   6.707   5.437 -0.1021 -0.6776  0.0173
  681MOL0     O91803   7.838   6.707   5.319 -0.7831 -0.0537  0.1705
  681MOL0     C91804   7.971   6.733   5.300  0.3592 -0.4917  1.0623
  681MOL0     C91805   8.057   6.780   5.396 -0.3127  0.0253  0.6992
  681MOL0     C91806   8.182   6.825   5.366 -0.3089 -0.1681  0.2033
  681MOL0     C91807   8.232   6.825   5.229  0.1887  0.7226 -0.1846
  681MOL0     O91808   8.354   6.866   5.184  0.6229 -0.8864 -0.4327
  681MOL0     C91809   8.419   6.962   5.266 -0.0381  0.1915  0.6299
  681MOL0     C91810   8.528   7.030   5.183 -0.0089 -0.0520 -0.6516
  681MOL0     C91811   8.628   6.926   5.106 -0.7715  0.5875 -0.2070
  681MOL0     C91812   8.742   6.999   5.027  1.0946 -0.1217 -0.0648
  681MOL0     C91813   8.837   6.886   4.969 -0.0954  0.6933 -0.1576
  681MOL0     C91814   8.895   6.785   5.076  0.0381  0.4781 -0.1981
  681MOL0     C91815   8.953   6.664   5.010 -0.9757 -0.1396  1.2433
  681MOL0     C91816   9.044   6.682   4.888 -0.7602  0.2916  0.1661
  681MOL0     N91817   9.189   6.718   4.918  0.7326 -0.4118 -0.0894
  681MOL0     C91818   9.282   6.621   4.959  0.6101 -0.0871 -0.5835
  681MOL0     C91819   9.396   6.688   4.980 -0.6428 -1.0212  0.6014
  681MOL0     C91820   9.539   6.627   5.006  0.8830 -0.0684 -0.6900
  681MOL0     C91821   9.624   6.732   5.077 -1.0996 -0.7159  0.0034
  681MOL0     C91822   9.753   6.668   5.102 -0.1539  0.0736  0.0442
  681MOL0     C91823   9.845   6.753   5.186  0.1181  0.2943  0.4053
  681MOL0     O91824   9.797   6.765   5.319  0.2242 -0.0763  0.3782
  681MOL0     C91825   9.888   6.823   5.408  0.1835  0.9476  0.0692
  681MOL0     C91826   9.991   6.909   5.374  0.3352 -0.1977  0.2983
  681MOL0     C91827  10.064   6.983   5.458  0.2550 -0.7388  0.1875
  681MOL0     C91828  10.041   6.965   5.599 -0.1558  0.2968 -1.0286
  681MOL0     C91829  10.129   7.026   5.699  0.0920 -0.0477 -0.5954
  681MOL0     O91830  10.218   7.116   5.656 -0.9466 -0.0358 -0.3421
  681MOL0     C91831  10.332   7.136   5.732 -0.4270 -0.4000 -0.6266
  681MOL0     C91832  10.384   7.042   5.827 -0.1509 -1.0067  0.1140
  681MOL0     C91833  10.482   7.085   5.918 -0.0190 -0.7064  0.3091
  681MOL0     C91834  10.539   7.210   5.898 -1.1006 -0.1141  0.3999
  681MOL0     O91835  10.651   7.240   5.980 -0.6063  0.4521  0.3952
  681MOL0     C91836  10.767   7.144   5.983  0.0273 -0.1753 -0.0812
  681MOL0     C91837  10.761   7.069   6.112 -0.2271 -0.4817 -1.2864
  681MOL0     C91838  10.740   7.156   6.238  0.3404 -0.2415 -0.2719
  681MOL0     C91839  10.775   7.080   6.360 -0.2987  0.4162 -0.5040
  681MOL0     C91840  10.717   7.157   6.489  0.4266  0.1098 -0.1489
  681MOL0     C91841  10.769   7.301   6.517 -0.5649  0.1801 -0.1949
  681MOL0     C91842  10.724   7.351   6.649 -0.5506 -0.5432 -0.3393
  681MOL0     C91843  10.781   7.487   6.690 -0.7029 -0.2548  0.8456
  681MOL0    Cl91844  10.761   7.606   6.556  0.1463 -0.3454  0.3196
  681MOL0     C91845  10.505   7.294   5.792  1.1997  0.3068 -0.3569
  681MOL0     C91846  10.396   7.258   5.712 -1.1434 -0.3251  0.1053
  681MOL0     O91847  10.114   6.993   5.815  0.4415  1.2513 -0.6987
  681MOL0     C91848   9.943   6.873   5.640 -0.9061  0.1432 -0.0407
  681MOL0     C91849   9.875   6.806   5.546  0.2539  0.2550 -0.1780
  681MOL0     N91850   9.373   6.827   4.970 -0.0855 -1.1280  0.0147
  681MOL0     N91851   9.250   6.839   4.936 -0.3150  1.2737  0.6606
  681MOL0     C91852   8.138   6.790   5.126 -0.4411 -1.0522  0.0035
  681MOL0     C91853   8.015   6.746   5.164 -0.1360  0.1736 -0.1771
  681MOL0     C91854   7.616   6.667   5.433  0.3682 -0.5244  0.4384
  681MOL0     C91855   7.562   6.616   5.555 -0.6602  0.8210  0.2684
  681MOL0     C91856   7.433   6.564   5.557  1.0545  0.5548  0.2753
  681MOL0     C91857   7.354   6.578   5.445 -0.1392  0.1069  0.2726
  681MOL0     O91858   7.227   6.521   5.458  0.6500 -0.5562 -0.1905
  681MOL0     C91859   7.165   6.489   5.328 -1.1138  0.0873  0.1311
  681MOL0     C91860   7.040   6.401   5.348 -0.7553 -0.9999 -0.5501
  681MOL0     C91861   6.948   6.458   5.458 -0.3222 -0.1875  0.5995
  681MOL0     C91862   6.845   6.350   5.500 -0.9330  0.1413  0.3725
  681MOL0     C91863   6.739   6.394   5.592 -0.0226 -0.0339 -0.5523
  681MOL0     C91864   6.658   6.416   5.675  1.5845  0.3201  0.4480
  681MOL0     C91865   7.405   6.639   5.330 -0.3622  0.4200  0.4514
  681MOL0     C91866   7.539   6.674   5.318  0.9036 -0.7055  0.2588
  681MOL0     C91867   7.586   6.737   5.186  0.4963  0.6446 -0.8503
  681MOL0     H91868   8.037   6.795   5.502  2.0553 -0.0862  1.2028
  681MOL0     H91869   8.255   6.866   5.435 -1.0984  0.8037  0.4928
  681MOL0     H91870   8.344   7.029   5.309 -3.1326 -1.0232 -2.3543
  681MOL0     H91871   8.472   6.920   5.352  0.3101 -2.7026 -0.8844
  681MOL0     H91872   8.579   7.106   5.244 -0.1144 -1.5087  1.3144
  681MOL0     H91873   8.475   7.088   5.107 -0.7291 -2.3386 -1.9792
  681MOL0     H91874   8.573   6.864   5.035 -1.9057  0.1515  1.0066
  681MOL0     H91875   8.663   6.863   5.188 -0.3937  1.0007 -0.0517
  681MOL0     H91876   8.705   7.074   4.956  2.3072  0.6563  0.0991
  681MOL0     H91877   8.797   7.059   5.100  0.9063  2.3472 -1.8173
  681MOL0     H91878   8.776   6.839   4.891 -0.7779  1.0117  0.1771
  681MOL0     H91879   8.919   6.932   4.915 -1.2904  1.5753 -1.2762
  681MOL0     H91880   8.978   6.838   5.123  1.0498  0.2111 -1.6230
  681MOL0     H91881   8.829   6.740   5.150  1.0715 -0.3370  0.2646
  681MOL0     H91882   8.864   6.613   4.971  0.1401 -0.5494 -0.9248
  681MOL0     H91883   8.998   6.593   5.081 -1.0785  0.6332  2.0993
  681MOL0     H91884   9.051   6.588   4.832  1.1092  1.0079 -0.8862
  681MOL0     H91885   9.008   6.746   4.807 -1.3017  0.0628  0.2255
  681MOL0     H91886   9.268   6.515   4.947 -0.2251 -0.0686  0.1440
  681MOL0     H91887   9.514   6.540   5.067 -2.2329  0.3514 -1.1842
  681MOL0     H91888   9.580   6.598   4.909 -3.0832  1.0953 -2.9448
  681MOL0     H91889   9.629   6.822   5.015  0.5743 -0.5005  0.3930
  681MOL0     H91890   9.579   6.761   5.172  1.2162  1.4040  0.5545
  681MOL0     H91891   9.805   6.647   5.009  0.3042  2.7605 -0.3834
  681MOL0     H91892   9.744   6.575   5.160 -2.1048 -0.3493 -0.8475
  681MOL0     H91893   9.853   6.846   5.129 -2.0061 -0.0680 -0.5963
  681MOL0     H91894   9.948   6.719   5.180 -0.4083 -1.1435 -1.3357
  681MOL0     H91895  10.017   6.920   5.269 -1.3890  0.3271 -0.1048
  681MOL0     H91896  10.134   7.059   5.426 -1.6866  2.7898  3.4540
  681MOL0     H91897  10.338   6.944   5.837 -3.2714  0.3884  0.5626
  681MOL0     H91898  10.515   7.023   6.001  0.1234 -0.2806  0.5722
  681MOL0     H91899  10.762   7.084   5.891 -2.8204  0.8033 -0.6890
  681MOL0     H91900  10.858   7.204   5.991 -1.3135  1.7392  1.8716
  681MOL0     H91901  10.689   6.988   6.111 -3.9250  2.4981 -0.3321
  681MOL0     H91902  10.862   7.027   6.108  1.0147  2.2726 -1.5600
  681MOL0     H91903  10.807   7.241   6.225  1.3251 -1.2254 -2.1165
  681MOL0     H91904  10.636   7.190   6.243 -0.2848 -2.2117  3.2811
  681MOL0     H91905  10.882   7.083   6.381 -0.6792 -1.8531  2.4830
  681MOL0     H91906  10.740   6.976   6.366 -0.5633  0.5454  0.3271
  681MOL0     H91907  10.734   7.098   6.579  0.7542 -0.3951 -0.5356
  681MOL0     H91908  10.610   7.170   6.474  0.7433  2.2114 -0.9714
  681MOL0     H91909  10.879   7.305   6.511 -0.6364  0.7403 -1.6464
  681MOL0     H91910  10.725   7.366   6.440  0.9144 -0.7517 -1.9033
  681MOL0     H91911  10.742   7.275   6.726 -0.6753  1.2031  1.4676
  681MOL0     H91912  10.617   7.372   6.640 -0.3910  0.2306 -0.4438
  681MOL0     H91913  10.732   7.516   6.783  0.5108  0.0382  1.4039
  681MOL0     H91914  10.888   7.490   6.710 -0.6589 -2.4531  1.1954
  681MOL0     H91915  10.548   7.393   5.782  0.9309  0.2994 -1.8610
  681MOL0     H91916  10.379   7.326   5.629  2.7153 -0.3597 -0.9217
  681MOL0     H91917   9.932   6.857   5.747 -0.5738  1.6730  0.2511
  681MOL0     H91918   9.810   6.727   5.581  1.2135 -0.2221  0.5389
  681MOL0     H91919   8.170   6.794   5.022 -1.6623  0.1719 -0.3562
  681MOL0     H91920   7.940   6.720   5.090 -1.0202 -1.3792  1.1915
  681MOL0     H91921   7.626   6.605   5.642 -0.8586  1.7962  0.5475
  681MOL0     H91922   7.380   6.527   5.644 -0.6073 -0.7321 -1.2077
  681MOL0     H91923   7.232   6.442   5.255  0.0203 -1.1753  1.9004
  681MOL0     H91924   7.132   6.586   5.289  0.0710  0.1121 -0.8676
  681MOL0     H91925   7.067   6.301   5.383  0.1171 -0.4221  0.4820
  681MOL0     H91926   6.988   6.395   5.252 -2.0581 -3.3278  0.2237
  681MOL0     H91927   6.903   6.549   5.417 -0.1418  0.6831  2.2849
  681MOL0     H91928   7.004   6.487   5.547 -1.1104  0.7865  0.7965
  681MOL0     H91929   6.796   6.326   5.405  1.4898  0.6864 -1.0954
  681MOL0     H91930   6.903   6.264   5.534 -4.1679 -1.9532  1.0255
  681MOL0     H91931   6.590   6.414   5.759 -1.4634  0.0407 -1.8503
  681MOL0     H91932   7.347   6.670   5.244 -2.0652  0.1398  1.4472
  681MOL0     H91933   7.648   6.822   5.213 -0.5984  1.3498 -0.4750
  681MOL0     H91934   7.644   6.668   5.125  1.3561 -2.1478  2.7550
  681MOL0     H91935   7.500   6.768   5.125  1.6564  0.8832 -2.4392
  682MOL0     O91936   1.088   6.230   3.352  0.9376 -0.7135 -0.8381
  682MOL0     C91937   1.047   6.344   3.343  0.7033  0.5464  0.0099
  682MOL0     O91938   1.119   6.458   3.326 -1.2068  0.0532 -0.4631
  682MOL0     C91939   1.258   6.448   3.336 -0.1670 -0.1148  0.5277
  682MOL0     C91940   1.337   6.389   3.439 -0.0199 -0.2014 -0.0074
  682MOL0     C91941   1.475   6.399   3.432 -0.4403  0.0553  0.1700
  682MOL0     C91942   1.540   6.457   3.322  0.4430  0.2271 -0.5084
  682MOL0     O91943   1.677   6.464   3.335 -0.3112 -0.3320 -0.3638
  682MOL0     C91944   1.756   6.498   3.221 -0.1701  0.0592  0.8980
  682MOL0     C91945   1.898   6.507   3.279 -0.6548 -0.8097 -0.5712
  682MOL0     C91946   1.965   6.373   3.302  0.5567  0.2653  0.6345
  682MOL0     C91947   2.103   6.404   3.339  0.5936 -0.5777  0.2327
  682MOL0     C91948   2.170   6.269   3.366  0.4387 -0.1499  1.4831
  682MOL0     C91949   2.309   6.284   3.413  0.1493 -0.5533 -1.3933
  682MOL0     C91950   2.378   6.149   3.439 -0.0291  0.1128 -0.8189
  682MOL0     C91951   2.514   6.165   3.505 -0.1197  0.3451 -0.9468
  682MOL0     N91952   2.498   6.224   3.637  0.2261  0.2844  0.1260
  682MOL0     C91953   2.497   6.148   3.750 -0.5566 -0.6803  0.1282
  682MOL0     C91954   2.517   6.232   3.857 -1.1017  0.5867 -0.1993
  682MOL0     C91955   2.559   6.207   3.996  0.3332 -0.0987 -0.9155
  682MOL0     C91956   2.661   6.097   4.004 -0.2433 -0.0962 -0.5604
  682MOL0     C91957   2.709   6.072   4.148  0.4941  0.4587 -0.4963
  682MOL0     C91958   2.850   6.008   4.166 -0.8117 -0.2186  0.0581
  682MOL0     O91959   2.956   6.085   4.098 -0.2359 -0.0733 -0.6889
  682MOL0     C91960   2.989   6.207   4.152  0.2613 -0.4689  0.5094
  682MOL0     C91961   2.963   6.244   4.284 -0.0400  0.1029 -1.1298
  682MOL0     C91962   3.034   6.349   4.338 -0.1928  0.1386 -0.8594
  682MOL0     C91963   3.117   6.437   4.265  0.1268  0.2198  0.0549
  682MOL0     C91964   3.191   6.551   4.326 -0.0139  0.3711  0.2583
  682MOL0     O91965   3.323   6.569   4.291 -0.7824  0.4692  0.7659
  682MOL0     C91966   3.401   6.652   4.368  0.7899  0.8728 -0.9666
  682MOL0     C91967   3.490   6.721   4.293 -0.3229 -0.2919  0.2401
  682MOL0     C91968   3.576   6.820   4.347 -0.1227 -0.5469  0.4250
  682MOL0     C91969   3.578   6.833   4.480  0.4802 -0.5083  0.3371
  682MOL0     O91970   3.672   6.917   4.549 -0.4893 -0.2714  0.2688
  682MOL0     C91971   3.797   6.951   4.474 -0.6533  0.6230 -0.1112
  682MOL0     C91972   3.912   6.987   4.574  0.0923  0.0992  0.2012
  682MOL0     C91973   4.050   6.947   4.523 -0.0547  0.3803 -0.3189
  682MOL0     C91974   4.095   6.810   4.555 -0.5095  0.8729  0.7835
  682MOL0     C91975   4.235   6.779   4.497  0.3895  0.6921 -1.2447
  682MOL0     C91976   4.335   6.876   4.556  0.1538 -0.7270 -0.7844
  682MOL0     C91977   4.472   6.829   4.539 -0.9240  0.3991 -0.5103
  682MOL0     C91978   4.515   6.849   4.405 -0.2713  0.0496  0.3398
  682MOL0    Cl91979   4.650   6.750   4.355  0.3630  0.1697 -0.1087
  682MOL0     C91980   3.491   6.760   4.560  1.3144 -0.1641  0.0470
  682MOL0     C91981   3.408   6.668   4.504 -0.2859  0.7747  0.1629
  682MOL0     O91982   3.128   6.603   4.417 -0.1195  0.1250 -0.1890
  682MOL0     C91983   3.140   6.394   4.131  0.1576 -0.7600 -0.7797
  682MOL0     C91984   3.081   6.284   4.073  0.1475  0.0464  0.1040
  682MOL0     N91985   2.527   6.362   3.805  0.2848  0.2253  0.1116
  682MOL0     N91986   2.501   6.352   3.674  0.0265 -0.7659  0.5731
  682MOL0     C91987   1.466   6.514   3.224  0.4094 -0.2738  0.4198
  682MOL0     C91988   1.330   6.504   3.230  0.3001 -0.4551 -0.4370
  682MOL0     C91989   0.893   6.362   3.359 -0.3982  0.3738 -0.3728
  682MOL0     C91990   0.847   6.495   3.360 -0.3770  0.4664 -0.8535
  682MOL0     C91991   0.711   6.531   3.395 -0.4928  0.5576 -0.2689
  682MOL0     C91992   0.616   6.428   3.410  0.7039 -0.9607 -0.1903
  682MOL0     O91993   0.483   6.456   3.410  0.7793  0.3536  0.1921
  682MOL0     C91994   0.430   6.564   3.492 -0.1138  0.3299  0.4058
  682MOL0     C91995   0.307   6.516   3.565  0.2293  0.3597 -0.6449
  682MOL0     C91996   0.246   6.639   3.638  0.3201 -0.0226  0.1019
  682MOL0     C91997   0.101   6.612   3.701 -0.2393  0.1259 -0.2941
  682MOL0     C91998   0.004   6.713   3.650  0.5738 -0.7629  0.1762
  682MOL0     C91999  -0.084   6.787   3.611  0.8024  0.4773 -0.3460
  682MOL0     C92000   0.656   6.298   3.393  0.5565  0.3635 -0.5888
  682MOL0     C92001   0.796   6.259   3.376 -0.7294 -0.2584  0.0893
  682MOL0     C92002   0.834   6.112   3.385  0.1320  0.4030  0.1283
  682MOL0     H92003   1.294   6.340   3.526  1.9033 -2.2781 -0.1455
  682MOL0     H92004   1.537   6.369   3.515  1.8136  0.9916 -1.0744
  682MOL0     H92005   1.769   6.431   3.136  2.1401  0.9241  0.4799
  682MOL0     H92006   1.722   6.590   3.173  1.7068  0.9102  1.0936
  682MOL0     H92007   1.899   6.557   3.376 -0.8931  0.4724 -1.2144
  682MOL0     H92008   1.953   6.564   3.203  3.2762 -1.1197  1.7883
  682MOL0     H92009   1.970   6.314   3.210 -0.6910 -0.5866  1.0934
  682MOL0     H92010   1.913   6.310   3.375  0.6513 -1.4407 -0.6971
  682MOL0     H92011   2.151   6.453   3.254 -3.1786  1.2610 -1.0457
  682MOL0     H92012   2.108   6.466   3.429 -0.5880 -2.5241  1.7247
  682MOL0     H92013   2.118   6.212   3.444  2.0366  0.2870  2.9429
  682MOL0     H92014   2.196   6.205   3.281  1.3335  0.0024  1.6335
  682MOL0     H92015   2.370   6.343   3.344  0.4577  0.6901 -0.0964
  682MOL0     H92016   2.303   6.340   3.507 -1.7304 -1.2736 -1.0499
  682MOL0     H92017   2.400   6.102   3.342 -1.2826 -1.7699 -0.2463
  682MOL0     H92018   2.314   6.089   3.505 -1.7279 -1.4346 -3.6366
  682MOL0     H92019   2.572   6.072   3.509  0.1184  0.5046 -0.6306
  682MOL0     H92020   2.575   6.239   3.452 -0.3028 -0.5098 -2.4348
  682MOL0     H92021   2.492   6.040   3.749  0.2426 -0.7175 -0.3139
  682MOL0     H92022   2.580   6.306   4.036 -3.6841  0.7769 -0.5193
  682MOL0     H92023   2.472   6.173   4.052  1.1389  0.0613  0.4682
  682MOL0     H92024   2.614   6.007   3.965 -0.0352 -1.6989  2.5658
  682MOL0     H92025   2.752   6.116   3.946  1.2607 -1.1686  1.3336
  682MOL0     H92026   2.633   6.016   4.202  1.8508 -1.0770 -0.0850
  682MOL0     H92027   2.722   6.170   4.196 -1.4850  0.6770 -0.3547
  682MOL0     H92028   2.856   5.916   4.108 -1.6667  0.0234 -0.4377
  682MOL0     H92029   2.867   5.992   4.273  2.3337  1.9667  0.0018
  682MOL0     H92030   2.896   6.191   4.351 -3.2116  1.1064 -3.2807
  682MOL0     H92031   3.008   6.369   4.441 -0.9579 -0.4863 -0.9265
  682MOL0     H92032   3.487   6.695   4.188 -1.3296  1.0504 -0.0902
  682MOL0     H92033   3.650   6.871   4.286 -0.4725  0.7676  1.0848
  682MOL0     H92034   3.808   6.862   4.412 -0.6845 -0.2358  1.0817
  682MOL0     H92035   3.774   7.026   4.398  0.1421  1.3905  0.3814
  682MOL0     H92036   3.916   7.096   4.590  2.8999  0.0452  0.3350
  682MOL0     H92037   3.899   6.928   4.665  2.2419 -1.1001 -0.2327
  682MOL0     H92038   4.061   6.973   4.417  0.3664 -0.7207 -0.5628
  682MOL0     H92039   4.119   7.007   4.583  1.2460 -1.6471  0.3426
  682MOL0     H92040   4.018   6.748   4.507 -2.2922  3.2522  0.3865
  682MOL0     H92041   4.085   6.794   4.663 -1.7836  2.5412  0.9428
  682MOL0     H92042   4.228   6.784   4.388 -2.3544 -0.4374 -1.2108
  682MOL0     H92043   4.255   6.675   4.524 -0.0114  1.7641  4.1763
  682MOL0     H92044   4.313   6.971   4.507 -3.5313 -1.5905 -1.0940
  682MOL0     H92045   4.307   6.888   4.661 -2.1514  2.3300 -1.5967
  682MOL0     H92046   4.474   6.722   4.562 -0.9261  0.6813  0.9263
  682MOL0     H92047   4.543   6.884   4.603  2.1044 -1.5170 -1.9739
  682MOL0     H92048   4.435   6.834   4.332  1.0025  1.3791 -1.4191
  682MOL0     H92049   4.532   6.957   4.396 -1.3332  0.1770 -0.3540
  682MOL0     H92050   3.503   6.771   4.667 -3.6894  2.1542  0.6119
  682MOL0     H92051   3.353   6.603   4.572  1.0366  0.1363  0.6720
  682MOL0     H92052   3.210   6.452   4.072 -0.5156  0.1340 -0.7212
  682MOL0     H92053   3.104   6.265   3.968 -1.6683  1.2750 -0.5791
  682MOL0     H92054   1.512   6.571   3.144 -0.6830 -0.3411 -0.2700
  682MOL0     H92055   1.263   6.533   3.150 -0.9936  0.7580  1.0145
  682MOL0     H92056   0.919   6.575   3.347  0.7845 -0.1596  1.2958
  682MOL0     H92057   0.698   6.638   3.402  1.9268  1.0023 -1.6736
  682MOL0     H92058   0.411   6.647   3.423  3.8615  1.7781  0.7837
  682MOL0     H92059   0.503   6.602   3.564 -1.8890  3.0732  0.9110
  682MOL0     H92060   0.334   6.442   3.640  1.0504  1.2319 -0.0524
  682MOL0     H92061   0.229   6.469   3.505 -0.5089 -0.1042  0.6458
  682MOL0     H92062   0.234   6.711   3.557  0.8461 -1.1916 -1.0556
  682MOL0     H92063   0.311   6.687   3.711 -0.2659  2.4770 -0.9200
  682MOL0     H92064   0.060   6.517   3.666 -2.0691  1.3139 -1.5189
  682MOL0     H92065   0.108   6.611   3.810  1.3485  1.2189 -0.3320
  682MOL0     H92066  -0.164   6.845   3.569 -1.7714 -3.0449 -0.7005
  682MOL0     H92067   0.577   6.224   3.388  1.5531 -0.6521 -2.0767
  682MOL0     H92068   0.915   6.086   3.454  1.1982  0.2399 -1.1485
  682MOL0     H92069   0.746   6.059   3.423  0.7351  0.8822  2.3143
  682MOL0     H92070   0.872   6.077   3.288 -1.8578 -0.1893 -0.5010
  683MOL0     O92071   9.520  10.973   6.266  0.4776  0.1311 -0.6645
  683MOL0     C92072   9.536  11.061   6.187  0.2607 -0.0207  0.2837
  683MOL0     O92073   9.652  11.104   6.145  0.6796  0.2153  0.0881
  683MOL0     C92074   9.770  11.063   6.203 -0.0208 -0.4427  0.2929
  683MOL0     C92075   9.861  11.166   6.234  1.0154 -0.6290 -0.6255
  683MOL0     C92076   9.982  11.125   6.304 -0.4257 -0.4433 -0.2732
  683MOL0     C92077  10.013  10.993   6.334  0.1678  0.3087  0.5663
  683MOL0     O92078  10.132  10.943   6.387  1.3338  0.3435  0.0190
  683MOL0     C92079  10.249  11.021   6.347  0.0293 -0.4775 -0.7261
  683MOL0     C92080  10.374  10.928   6.375 -0.1079  0.5078  0.6777
  683MOL0     C92081  10.392  10.887   6.516  0.2262 -0.6903 -0.7723
  683MOL0     C92082  10.503  10.786   6.514 -0.2330 -0.1395 -0.5493
  683MOL0     C92083  10.550  10.743   6.658  0.8264 -0.2937 -0.7839
  683MOL0     C92084  10.433  10.725   6.764 -0.2804  0.8672  0.2781
  683MOL0     C92085  10.473  10.679   6.901  0.6768  0.2324 -0.7737
  683MOL0     C92086  10.537  10.541   6.925 -0.8956 -0.2638  0.3126
  683MOL0     N92087  10.555  10.509   7.071 -0.2953  0.1607  0.5141
  683MOL0     C92088  10.658  10.544   7.157 -0.8905 -0.0054 -0.0301
  683MOL0     C92089  10.620  10.487   7.273 -0.8144  0.1611 -1.1277
  683MOL0     C92090  10.703  10.485   7.406 -0.2807  0.7587  0.5915
  683MOL0     C92091  10.718  10.620   7.464 -0.4840 -0.3038  0.5503
  683MOL0     C92092  10.834  10.625   7.565 -1.1101 -0.7490  1.1080
  683MOL0     C92093  10.967  10.680   7.501 -0.4217 -0.3875 -0.0077
  683MOL0     O92094  10.993  10.612   7.379  0.4303 -0.2501 -0.2269
  683MOL0     C92095  11.103  10.645   7.294  0.7856 -0.4032 -0.5843
  683MOL0     C92096  11.156  10.544   7.203 -1.0376 -0.2299  0.0721
  683MOL0     C92097  11.274  10.570   7.125 -1.2793  0.4145 -0.3883
  683MOL0     C92098  11.341  10.689   7.153  0.1660 -0.2534 -0.4277
  683MOL0     C92099  11.465  10.731   7.077 -0.4158  0.5690 -0.7619
  683MOL0     O92100  11.500  10.863   7.078  0.0034 -0.2474  0.1881
  683MOL0     C92101  11.623  10.886   7.030  0.3862  0.7176 -1.3629
  683MOL0     C92102  11.637  10.988   6.938  0.9194  0.2577  0.7348
  683MOL0     C92103  11.755  11.026   6.891 -0.2533 -0.3358  0.1683
  683MOL0     C92104  11.874  10.958   6.935 -0.3429  0.1857  0.2547
  683MOL0     O92105  11.992  10.986   6.866  0.2485 -0.2792 -0.3077
  683MOL0     C92106  12.106  10.910   6.906 -0.1203 -0.9753 -0.5177
  683MOL0     C92107  12.242  10.954   6.838  0.0186  0.2205 -0.4094
  683MOL0     C92108  12.358  10.866   6.877  0.4474  1.1173  0.3435
  683MOL0     C92109  12.493  10.906   6.812  1.1410  0.6657 -0.6108
  683MOL0     C92110  12.614  10.851   6.880 -0.5673 -0.1554  0.6039
  683MOL0     C92111  12.611  10.691   6.891  0.2652 -0.2663  1.2418
  683MOL0     C92112  12.744  10.645   6.951 -0.3048 -0.7007  0.5457
  683MOL0     C92113  12.742  10.497   6.957 -0.6917 -0.3486 -0.9273
  683MOL0    Cl92114  12.757  10.426   6.788  0.0419 -0.1839 -0.1960
  683MOL0     C92115  11.869  10.849   7.027 -0.0457 -0.3067 -0.2090
  683MOL0     C92116  11.738  10.819   7.078 -0.3507 -1.1406 -0.0681
  683MOL0     O92117  11.515  10.640   7.007 -0.3364 -0.1384 -0.3667
  683MOL0     C92118  11.292  10.789   7.242  0.0228  0.7288  0.5766
  683MOL0     C92119  11.176  10.764   7.312  0.1091 -0.2771  0.1269
  683MOL0     N92120  10.493  10.432   7.269  0.1670  0.3353  0.3435
  683MOL0     N92121  10.467  10.441   7.148  0.3541  0.1396  0.5281
  683MOL0     C92122   9.914  10.898   6.302  0.6101  0.2003  0.7966
  683MOL0     C92123   9.799  10.928   6.237  0.2340 -0.2038 -0.2909
  683MOL0     C92124   9.416  11.119   6.127 -0.2592 -0.0519  0.3256
  683MOL0     C92125   9.430  11.201   6.012 -0.0845 -0.2739 -0.9114
  683MOL0     C92126   9.319  11.233   5.934  0.1953  0.2798 -0.2539
  683MOL0     C92127   9.192  11.190   5.972 -0.2136 -0.6440  0.9737
  683MOL0     O92128   9.089  11.215   5.889  0.1579  0.6508  0.4487
  683MOL0     C92129   9.119  11.194   5.749  0.4939 -0.3408  0.0007
  683MOL0     C92130   9.023  11.275   5.667  0.7619 -0.2747 -0.1472
  683MOL0     C92131   8.874  11.228   5.677 -0.2230 -0.9306  0.2649
  683MOL0     C92132   8.822  11.153   5.550  0.4591 -1.1294  0.4880
  683MOL0     C92133   8.887  11.024   5.537  0.4189 -0.1942  0.8593
  683MOL0     C92134   8.929  10.910   5.525 -0.1005 -0.3798  0.6047
  683MOL0     C92135   9.168  11.117   6.088  0.5296 -0.2067 -0.3830
  683MOL0     C92136   9.283  11.092   6.171 -0.5443  0.1495  0.1183
  683MOL0     C92137   9.249  11.051   6.309  0.7820 -0.2089  0.8868
  683MOL0     H92138   9.820  11.262   6.205 -0.5740 -1.0043  0.2440
  683MOL0     H92139  10.035  11.212   6.342  0.6698 -1.8051  1.4291
  683MOL0     H92140  10.235  11.047   6.241 -0.8050  0.2947 -0.4366
  683MOL0     H92141  10.267  11.113   6.402 -2.0501  0.5223 -1.6116
  683MOL0     H92142  10.461  10.979   6.334  0.3704 -2.6219 -2.6680
  683MOL0     H92143  10.367  10.839   6.313  0.5441  1.4044 -0.7263
  683MOL0     H92144  10.301  10.830   6.537  0.6628 -0.9912  0.3166
  683MOL0     H92145  10.393  10.977   6.578  0.7649 -2.4136  1.8347
  683MOL0     H92146  10.474  10.688   6.474 -1.7567 -0.3891  1.0771
  683MOL0     H92147  10.591  10.813   6.454 -0.7102  2.4477 -0.1654
  683MOL0     H92148  10.602  10.647   6.659  0.2571 -0.7594  3.6428
  683MOL0     H92149  10.619  10.820   6.696  0.3921 -1.0044  1.6132
  683MOL0     H92150  10.392  10.825   6.776 -0.8617  0.3746  3.2804
  683MOL0     H92151  10.361  10.655   6.720  1.4533 -0.3953 -0.6544
  683MOL0     H92152  10.382  10.669   6.961  1.4350 -2.5798  0.0541
  683MOL0     H92153  10.541  10.754   6.945  0.4202 -0.5869  1.1261
  683MOL0     H92154  10.461  10.472   6.885  0.3587 -1.5412  0.0527
  683MOL0     H92155  10.636  10.541   6.880 -0.8174  2.0962  0.3947
  683MOL0     H92156  10.748  10.601   7.134 -1.3849  0.3289 -1.1801
  683MOL0     H92157  10.657  10.409   7.470 -2.5126 -0.7901 -2.6018
  683MOL0     H92158  10.801  10.439   7.389 -2.3396 -4.0287  0.1623
  683MOL0     H92159  10.739  10.698   7.391  0.9220 -1.0502  0.1189
  683MOL0     H92160  10.623  10.645   7.511 -0.1398 -1.2583  1.8164
  683MOL0     H92161  10.858  10.528   7.609  0.9870 -1.5160 -1.4556
  683MOL0     H92162  10.805  10.702   7.638 -1.2013 -0.2084  0.5092
  683MOL0     H92163  11.058  10.658   7.558 -0.2097 -2.2580 -1.0124
  683MOL0     H92164  10.955  10.789   7.503 -1.0693 -0.4399  2.1857
  683MOL0     H92165  11.101  10.451   7.193 -1.6192 -0.2056  2.3538
  683MOL0     H92166  11.289  10.498   7.046  1.0157  0.6588 -0.2333
  683MOL0     H92167  11.550  11.033   6.890  1.3484  2.7316  2.1026
  683MOL0     H92168  11.757  11.098   6.810 -0.7207  1.0209  1.3322
  683MOL0     H92169  12.121  10.929   7.013 -3.4285 -1.4626  0.1362
  683MOL0     H92170  12.092  10.804   6.884  0.7404 -1.1719 -0.2048
  683MOL0     H92171  12.227  10.931   6.732  0.7664 -1.7988 -0.1074
  683MOL0     H92172  12.263  11.062   6.844 -0.5497  0.5298 -2.9103
  683MOL0     H92173  12.367  10.863   6.986 -0.2620  1.2538  0.4093
  683MOL0     H92174  12.344  10.765   6.838 -0.1035  1.1929  0.3419
  683MOL0     H92175  12.505  11.015   6.815  0.4910  0.7277  0.0613
  683MOL0     H92176  12.484  10.879   6.706 -1.5388 -0.0456 -0.2860
  683MOL0     H92177  12.614  10.887   6.983 -0.6741 -1.2872  1.0138
  683MOL0     H92178  12.704  10.896   6.836  1.3222 -0.9715  3.3426
  683MOL0     H92179  12.539  10.662   6.968  1.8822 -1.4227  2.3916
  683MOL0     H92180  12.589  10.637   6.799  0.9190  1.2372  0.1543
  683MOL0     H92181  12.757  10.680   7.054 -0.1272  0.8849  0.0129
  683MOL0     H92182  12.831  10.676   6.893  0.6351 -0.7805  1.8607
  683MOL0     H92183  12.827  10.454   7.010  3.1753  0.3236 -5.8847
  683MOL0     H92184  12.654  10.469   7.016  0.3759 -1.2578  0.2791
  683MOL0     H92185  11.959  10.797   7.056 -1.0980 -1.5760  0.9556
  683MOL0     H92186  11.725  10.738   7.149 -1.3267 -0.5103  0.4910
  683MOL0     H92187  11.343  10.880   7.273  1.0295 -0.2212  1.7935
  683MOL0     H92188  11.145  10.838   7.384 -0.9796  0.4195 -1.0091
  683MOL0     H92189   9.941  10.797   6.333 -3.5212 -2.5035 -3.2314
  683MOL0     H92190   9.729  10.847   6.218  1.6853 -1.4386 -0.5166
  683MOL0     H92191   9.524  11.239   5.975  0.5468 -3.1170 -2.4952
  683MOL0     H92192   9.337  11.300   5.850  0.6773 -0.4748 -0.7697
  683MOL0     H92193   9.104  11.088   5.728 -1.2844  0.0434 -0.9267
  683MOL0     H92194   9.219  11.222   5.717  0.8108  0.6300  1.7287
  683MOL0     H92195   9.052  11.279   5.561  2.5075  2.3417  0.3313
  683MOL0     H92196   9.028  11.379   5.701 -1.0284 -0.5127  0.9345
  683MOL0     H92197   8.810  11.316   5.687  0.7236  0.1854 -2.3965
  683MOL0     H92198   8.859  11.173   5.770  2.5005 -2.9646 -0.3848
  683MOL0     H92199   8.714  11.141   5.553  0.3480 -1.8254 -2.8623
  683MOL0     H92200   8.839  11.212   5.460 -6.3296  1.1693  0.1592
  683MOL0     H92201   8.947  10.804   5.526  0.1461 -0.3402  0.5207
  683MOL0     H92202   9.071  11.072   6.108 -1.1466  3.1733 -0.2450
  683MOL0     H92203   9.326  11.087   6.377  1.4918 -0.9025  0.4706
  683MOL0     H92204   9.151  11.091   6.337 -0.1034 -1.5226 -0.1880
  683MOL0     H92205   9.244  10.942   6.314  1.9524 -0.2687  0.8522
  684MOL0     O92206   0.016   4.600   3.908  0.6071  0.0076  0.3449
  684MOL0     C92207   0.018   4.528   3.808 -1.0209 -0.2548 -0.4573
  684MOL0     O92208   0.130   4.489   3.751 -0.1588  0.2188  0.0506
  684MOL0     C92209   0.261   4.539   3.759  0.8875 -0.2611 -0.3322
  684MOL0     C92210   0.299   4.648   3.846  0.1410 -0.4739  0.1504
  684MOL0     C92211   0.435   4.675   3.865 -0.0548 -0.5757  0.3131
  684MOL0     C92212   0.529   4.603   3.789 -0.2197 -0.2739  0.1624
  684MOL0     O92213   0.662   4.633   3.793  0.3897 -0.0755 -0.6669
  684MOL0     C92214   0.716   4.718   3.899  1.0806  0.3327  0.6744
  684MOL0     C92215   0.860   4.678   3.904 -0.3147 -0.2303  0.5100
  684MOL0     C92216   0.954   4.768   3.991 -0.1304 -0.4853 -0.1457
  684MOL0     C92217   1.009   4.888   3.907 -0.3722 -0.3247 -0.0530
  684MOL0     C92218   1.105   4.974   3.986 -0.6455 -0.4750  0.1281
  684MOL0     C92219   1.222   5.036   3.915  0.3389  0.4886  0.2504
  684MOL0     C92220   1.322   5.087   4.016  0.7722 -0.5528 -0.3382
  684MOL0     C92221   1.444   5.147   3.945  0.4902  0.5126  0.1790
  684MOL0     N92222   1.562   5.159   4.030  0.3526 -0.7526  0.0816
  684MOL0     C92223   1.651   5.058   4.054  0.4170  0.4897 -0.2954
  684MOL0     C92224   1.756   5.127   4.101 -1.0020 -0.1757 -0.1621
  684MOL0     C92225   1.891   5.066   4.124  0.9204 -1.5314  0.0979
  684MOL0     C92226   1.981   5.176   4.173 -0.6157 -0.1104 -0.1082
  684MOL0     C92227   2.120   5.109   4.185 -0.2749 -0.7649 -0.0700
  684MOL0     C92228   2.227   5.187   4.267  0.6917 -0.2710  0.7111
  684MOL0     O92229   2.314   5.100   4.340  0.3667  0.1190 -0.2961
  684MOL0     C92230   2.412   5.021   4.267  0.1263 -1.0017 -0.8139
  684MOL0     C92231   2.484   4.948   4.361 -0.1343  0.0203 -0.2748
  684MOL0     C92232   2.600   4.878   4.328 -0.3056  0.1487  0.6285
  684MOL0     C92233   2.660   4.892   4.197 -0.0820  0.5178  0.9833
  684MOL0     C92234   2.792   4.830   4.155 -0.5057 -0.3654 -0.3718
  684MOL0     O92235   2.845   4.741   4.238 -0.3486 -0.0662 -0.6733
  684MOL0     C92236   2.982   4.720   4.217 -0.4033 -0.6986  0.2504
  684MOL0     C92237   3.028   4.640   4.114  0.1432 -0.3193  0.4015
  684MOL0     C92238   3.164   4.619   4.095 -0.2712 -0.0310  0.0298
  684MOL0     C92239   3.259   4.686   4.182 -0.6582  0.1801 -0.3379
  684MOL0     O92240   3.396   4.677   4.177  0.0317  0.1861  0.2571
  684MOL0     C92241   3.461   4.622   4.058 -0.2957 -0.3114  0.0529
  684MOL0     C92242   3.589   4.697   4.014 -0.4029 -0.0169 -1.0219
  684MOL0     C92243   3.626   4.681   3.862 -0.1376  0.5014 -0.7059
  684MOL0     C92244   3.722   4.779   3.804 -0.2262 -0.5040  0.1298
  684MOL0     C92245   3.862   4.783   3.869  0.6238  0.4339  0.5474
  684MOL0     C92246   3.976   4.862   3.808 -0.1560 -0.4882 -0.9263
  684MOL0     C92247   3.944   5.010   3.785  0.3285 -0.3433  0.5513
  684MOL0     C92248   4.063   5.083   3.718 -0.9036 -0.5888  0.7055
  684MOL0    Cl92249   4.221   5.070   3.797 -0.0540 -0.2780  0.0891
  684MOL0     C92250   3.216   4.755   4.296  0.1464 -0.5971  1.1670
  684MOL0     C92251   3.070   4.778   4.306 -0.9995  0.1256 -0.0791
  684MOL0     O92252   2.835   4.861   4.041  0.3231  0.3031 -0.3462
  684MOL0     C92253   2.579   4.968   4.106 -0.4754 -0.7460  1.1367
  684MOL0     C92254   2.462   5.037   4.138 -0.0560  0.4283  1.1467
  684MOL0     N92255   1.730   5.257   4.119 -0.3109 -0.3443  0.6962
  684MOL0     N92256   1.613   5.284   4.073 -0.0644 -0.0327 -0.2877
  684MOL0     C92257   0.486   4.502   3.698 -0.1873 -0.4203  0.5862
  684MOL0     C92258   0.349   4.465   3.688 -0.6699 -0.1379 -0.2686
  684MOL0     C92259  -0.114   4.485   3.762  0.3871  0.7982 -0.4972
  684MOL0     C92260  -0.231   4.503   3.843  0.8440 -0.4025 -0.7359
  684MOL0     C92261  -0.365   4.484   3.791  0.2204  0.1360  0.3551
  684MOL0     C92262  -0.377   4.442   3.657 -0.1884  1.0672 -0.3621
  684MOL0     O92263  -0.492   4.406   3.591 -0.0784  0.1842  0.2327
  684MOL0     C92264  -0.616   4.406   3.668  0.6444 -0.7853 -0.6557
  684MOL0     C92265  -0.701   4.534   3.657 -0.2552 -0.2124  0.1856
  684MOL0     C92266  -0.845   4.517   3.683  0.7149 -0.6076 -0.3880
  684MOL0     C92267  -0.908   4.653   3.662  0.6045 -0.2389 -0.3104
  684MOL0     C92268  -1.052   4.655   3.695  0.3938  0.1508  0.4414
  684MOL0     C92269  -1.172   4.648   3.708 -0.2105 -0.1012  0.7409
  684MOL0     C92270  -0.267   4.412   3.585 -0.2577 -0.2179  0.2279
  684MOL0     C92271  -0.140   4.431   3.634  0.8250 -0.0331  0.0547
  684MOL0     C92272  -0.028   4.376   3.550 -0.0463  0.3327 -1.0385
  684MOL0     H92273   0.230   4.704   3.909 -0.4365 -0.4470 -0.4955
  684MOL0     H92274   0.467   4.755   3.931 -2.3295 -0.1881  1.0364
  684MOL0     H92275   0.703   4.821   3.864 -1.7453  0.5225  1.9826
  684MOL0     H92276   0.662   4.696   3.992 -0.9052 -0.5248 -0.6214
  684MOL0     H92277   0.897   4.692   3.802  1.8333 -0.0865  1.2563
  684MOL0     H92278   0.868   4.576   3.942  3.1374 -0.5172 -0.5752
  684MOL0     H92279   1.035   4.699   4.017 -1.8296 -2.2172  0.7918
  684MOL0     H92280   0.901   4.801   4.081  1.5581 -2.4914  1.7002
  684MOL0     H92281   1.073   4.855   3.825  3.2603  1.0474  2.0064
  684MOL0     H92282   0.937   4.961   3.868  2.0339  2.6809  0.6632
  684MOL0     H92283   1.050   5.058   4.028  0.4493  0.2441  0.1774
  684MOL0     H92284   1.152   4.921   4.070  1.6555 -0.7057 -1.2049
  684MOL0     H92285   1.263   4.948   3.866  1.3781  1.9000 -1.5776
  684MOL0     H92286   1.194   5.114   3.844  0.6109  1.2352  0.9440
  684MOL0     H92287   1.362   5.001   4.072 -0.2257 -0.4370  0.5820
  684MOL0     H92288   1.278   5.147   4.096  0.1670  0.3464 -1.3212
  684MOL0     H92289   1.464   5.066   3.873 -1.0348  2.7297 -2.9871
  684MOL0     H92290   1.426   5.221   3.866 -3.7372 -2.2746 -1.8693
  684MOL0     H92291   1.638   4.956   4.020  0.4289  0.1378  0.7117
  684MOL0     H92292   1.869   4.996   4.205  0.4422 -0.7653  0.6443
  684MOL0     H92293   1.923   5.021   4.030  2.2076 -0.5302  0.0271
  684MOL0     H92294   1.982   5.261   4.104 -1.5739  0.3611  0.4445
  684MOL0     H92295   1.948   5.207   4.272 -2.8395  1.7014 -1.3294
  684MOL0     H92296   2.163   5.095   4.086  1.1168  0.7877  0.2864
  684MOL0     H92297   2.105   5.011   4.233  0.7431 -0.2090  1.4626
  684MOL0     H92298   2.171   5.244   4.341  1.5600  0.0708  1.1149
  684MOL0     H92299   2.289   5.261   4.215 -0.3202  0.7572  0.9215
  684MOL0     H92300   2.457   4.933   4.465  4.6679  1.7165  1.5131
  684MOL0     H92301   2.645   4.818   4.406 -3.7660 -0.4757  2.3482
  684MOL0     H92302   2.950   4.604   4.047 -2.6032  1.6793  2.3019
  684MOL0     H92303   3.191   4.552   4.015 -0.4237  1.5355 -1.3862
  684MOL0     H92304   3.470   4.513   4.068 -0.5655 -0.5454 -1.8332
  684MOL0     H92305   3.392   4.640   3.975  0.6175 -2.2468 -1.2086
  684MOL0     H92306   3.573   4.804   4.032  2.8177  0.6343 -1.4177
  684MOL0     H92307   3.676   4.662   4.070 -1.4094  2.3084  2.3291
  684MOL0     H92308   3.663   4.578   3.859 -0.7858  0.2297  0.2530
  684MOL0     H92309   3.532   4.687   3.807  0.1751 -0.8481 -1.4071
  684MOL0     H92310   3.676   4.879   3.806 -2.1252 -1.1026 -3.6057
  684MOL0     H92311   3.748   4.753   3.701 -3.3517  0.2173 -0.9413
  684MOL0     H92312   3.893   4.678   3.866 -0.6949  0.0226  0.8778
  684MOL0     H92313   3.847   4.808   3.974 -3.0229 -1.5366  0.6694
  684MOL0     H92314   4.063   4.853   3.875 -0.1826  2.4323 -0.3672
  684MOL0     H92315   4.019   4.822   3.716  0.7085 -0.3488 -0.5960
  684MOL0     H92316   3.904   5.062   3.872  0.4631 -1.9507  1.6233
  684MOL0     H92317   3.867   5.015   3.707  0.9687 -1.1019 -0.1548
  684MOL0     H92318   4.072   5.040   3.617  0.1865  1.6840 -0.2340
  684MOL0     H92319   4.034   5.188   3.706  0.4397 -0.4899 -3.5613
  684MOL0     H92320   3.274   4.802   4.375  1.8090  0.0988 -0.3875
  684MOL0     H92321   3.031   4.847   4.380 -5.1070  0.3557 -2.1937
  684MOL0     H92322   2.611   4.971   4.003 -0.0824 -1.0525  1.2504
  684MOL0     H92323   2.404   5.098   4.070 -0.8960  0.3680  1.7961
  684MOL0     H92324   0.547   4.448   3.626 -2.6385 -1.4702 -0.8502
  684MOL0     H92325   0.322   4.373   3.636  0.1013 -1.8683  2.2333
  684MOL0     H92326  -0.229   4.532   3.948  1.5829 -0.8500 -0.6233
  684MOL0     H92327  -0.447   4.498   3.861  0.1891 -0.5282  0.4577
  684MOL0     H92328  -0.598   4.394   3.775 -0.1537 -0.3635 -0.4634
  684MOL0     H92329  -0.680   4.329   3.626 -1.8334  0.7395  0.0765
  684MOL0     H92330  -0.674   4.596   3.571 -0.9400  1.5866  1.2134
  684MOL0     H92331  -0.658   4.593   3.739  1.4390 -0.6530 -0.3359
  684MOL0     H92332  -0.871   4.482   3.783  2.5088  1.7996  1.0356
  684MOL0     H92333  -0.874   4.440   3.611 -0.2569 -0.4972 -0.1295
  684MOL0     H92334  -0.867   4.724   3.734 -1.7377  0.2655  0.6138
  684MOL0     H92335  -0.890   4.688   3.559  3.4480  0.7334  0.4211
  684MOL0     H92336  -1.276   4.645   3.733 -0.0225  0.1904  1.6007
  684MOL0     H92337  -0.281   4.357   3.492  0.5551 -0.0098 -0.0224
  684MOL0     H92338   0.027   4.300   3.605 -0.0326 -0.1592 -1.7220
  684MOL0     H92339  -0.058   4.340   3.452  0.3606  0.2027 -1.1158
  684MOL0     H92340   0.049   4.451   3.531  2.1634 -1.1999  1.2868
  685MOL0     O92341   8.649   0.643   6.080  0.2090  0.0115  0.1455
  685MOL0     C92342   8.693   0.681   6.190 -0.1361  0.6039  0.3578
  685MOL0     O92343   8.741   0.593   6.282  0.7451  0.9254 -0.2558
  685MOL0     C92344   8.714   0.460   6.251 -0.8327  0.2587  0.3385
  685MOL0     C92345   8.589   0.406   6.230  0.5298  0.9469 -0.9826
  685MOL0     C92346   8.577   0.277   6.203 -0.2068  1.2102 -0.2518
  685MOL0     C92347   8.686   0.190   6.212  0.1969  0.1363  0.3125
  685MOL0     O92348   8.663   0.061   6.179  0.7318 -0.9010 -0.7955
  685MOL0     C92349   8.770  -0.021   6.136 -0.1620  0.0165 -0.7332
  685MOL0     C92350   8.727  -0.158   6.110 -0.3395  0.3294  0.8618
  685MOL0     C92351   8.608  -0.163   6.021  0.1861 -0.8455 -0.4530
  685MOL0     C92352   8.549  -0.305   5.982  0.2463 -0.2410 -0.4892
  685MOL0     C92353   8.431  -0.305   5.893  0.1046  0.5639  0.1661
  685MOL0     C92354   8.302  -0.232   5.945 -0.8040  0.1692 -0.5444
  685MOL0     C92355   8.204  -0.242   5.835  0.1270  0.4182 -0.1796
  685MOL0     C92356   8.069  -0.209   5.881  0.9835  0.6954  0.2333
  685MOL0     N92357   7.971  -0.233   5.772 -1.3555  0.2291 -0.4330
  685MOL0     C92358   7.927  -0.362   5.738 -0.4231  0.0790  0.3742
  685MOL0     C92359   7.820  -0.340   5.659  0.7797  0.4222  0.4053
  685MOL0     C92360   7.736  -0.443   5.576 -0.2537 -0.8509 -0.7195
  685MOL0     C92361   7.637  -0.519   5.653  0.9361  0.1797 -1.0539
  685MOL0     C92362   7.697  -0.619   5.760  0.0051 -0.0590  0.1548
  685MOL0     C92363   7.594  -0.669   5.861 -0.1165 -0.7607 -1.1342
  685MOL0     O92364   7.657  -0.755   5.955 -0.5752 -0.3676  0.4640
  685MOL0     C92365   7.593  -0.864   6.010  0.4439  0.7687  1.7783
  685MOL0     C92366   7.466  -0.908   5.961  0.7152  0.3560  0.0388
  685MOL0     C92367   7.391  -1.010   6.014  0.3942 -1.1172  0.6271
  685MOL0     C92368   7.438  -1.081   6.115  0.1189  0.1812 -0.4510
  685MOL0     C92369   7.360  -1.188   6.178  0.7009 -0.2637 -0.8450
  685MOL0     O92370   7.415  -1.259   6.289 -0.1944 -0.3176  0.0995
  685MOL0     C92371   7.327  -1.350   6.342 -0.3802  0.1825 -0.5806
  685MOL0     C92372   7.299  -1.466   6.265 -0.2920  0.1003  0.9988
  685MOL0     C92373   7.217  -1.563   6.323  0.4280  0.1214  0.1700
  685MOL0     C92374   7.166  -1.550   6.453 -0.0222 -0.0511  0.1532
  685MOL0     O92375   7.111  -1.660   6.509  0.6984  0.3646 -0.2139
  685MOL0     C92376   7.037  -1.663   6.639  0.4982 -0.3379  0.1225
  685MOL0     C92377   6.973  -1.795   6.661  0.0513 -0.0373  0.3431
  685MOL0     C92378   6.841  -1.801   6.566 -0.7770 -0.4485 -0.4814
  685MOL0     C92379   6.763  -1.935   6.581 -0.2065 -0.1244  0.1652
  685MOL0     C92380   6.638  -1.940   6.502 -0.0797  0.5793  0.3873
  685MOL0     C92381   6.512  -1.853   6.528  0.4638  0.4973  0.1022
  685MOL0     C92382   6.410  -1.892   6.420 -0.1469  0.4266 -0.3337
  685MOL0     C92383   6.333  -2.023   6.451  0.1388 -0.3760 -0.5765
  685MOL0    Cl92384   6.217  -2.048   6.313 -0.2295  0.2488  0.3088
  685MOL0     C92385   7.199  -1.433   6.526 -0.1874  0.4778 -0.7785
  685MOL0     C92386   7.274  -1.334   6.465 -0.5099 -0.0848 -0.1569
  685MOL0     O92387   7.246  -1.209   6.127  0.5284 -0.7830 -0.8144
  685MOL0     C92388   7.568  -1.035   6.181  1.1642  0.7090  0.7997
  685MOL0     C92389   7.642  -0.933   6.118 -0.5889 -0.2965 -0.4257
  685MOL0     N92390   7.797  -0.202   5.653 -0.0134 -0.8614 -0.0652
  685MOL0     N92391   7.889  -0.136   5.725  0.2498 -0.3661  0.6340
  685MOL0     C92392   8.810   0.243   6.244  0.6414  1.0036 -1.0491
  685MOL0     C92393   8.822   0.379   6.258 -0.5264 -0.3701  0.6183
  685MOL0     C92394   8.682   0.821   6.218 -0.2980  0.4977 -0.3191
  685MOL0     C92395   8.747   0.865   6.334 -0.0421  1.0434  0.2731
  685MOL0     C92396   8.747   0.999   6.376  0.3115  0.0425 -0.6018
  685MOL0     C92397   8.697   1.094   6.295 -0.4285 -0.0399  0.5207
  685MOL0     O92398   8.696   1.230   6.321 -0.0993 -0.1299 -0.1524
  685MOL0     C92399   8.751   1.277   6.445 -0.4222  1.2182 -1.0560
  685MOL0     C92400   8.740   1.434   6.434 -0.2519  0.8973  0.4011
  685MOL0     C92401   8.789   1.504   6.554  0.5989  0.4995 -0.4805
  685MOL0     C92402   8.935   1.487   6.580 -0.3015  0.1753 -0.8390
  685MOL0     C92403   9.023   1.524   6.465  0.4229 -0.4241  0.1916
  685MOL0     C92404   9.077   1.543   6.362 -0.6429  0.2427  0.8818
  685MOL0     C92405   8.629   1.062   6.181 -0.0160  0.6572  1.0066
  685MOL0     C92406   8.614   0.919   6.140  0.5388  0.0679 -0.3271
  685MOL0     C92407   8.555   0.902   5.999  0.2745  0.0506 -0.3836
  685MOL0     H92408   8.505   0.473   6.217 -0.5723 -0.1846  0.0509
  685MOL0     H92409   8.478   0.242   6.177  0.1162  1.5642 -2.0953
  685MOL0     H92410   8.807   0.026   6.044 -0.8750 -0.6685 -1.3808
  685MOL0     H92411   8.846  -0.035   6.213  0.7252 -0.3084 -1.6387
  685MOL0     H92412   8.705  -0.200   6.209  2.3453 -1.5317  0.7911
  685MOL0     H92413   8.809  -0.222   6.075 -2.4451 -2.6207  0.8970
  685MOL0     H92414   8.635  -0.108   5.931 -0.0806  1.9376  1.0461
  685MOL0     H92415   8.523  -0.113   6.067  1.6413 -0.7390  2.3285
  685MOL0     H92416   8.628  -0.362   5.931  1.8815  0.4671  1.1516
  685MOL0     H92417   8.522  -0.354   6.076  0.0553  3.2384  1.4093
  685MOL0     H92418   8.462  -0.277   5.792 -1.0678 -1.6453 -0.8635
  685MOL0     H92419   8.408  -0.412   5.892  0.2559  0.4993  1.5918
  685MOL0     H92420   8.272  -0.279   6.039  0.6819 -0.8729 -0.5663
  685MOL0     H92421   8.323  -0.128   5.972 -1.9650 -0.3706  3.0231
  685MOL0     H92422   8.209  -0.339   5.784  0.0911  0.0188  0.5685
  685MOL0     H92423   8.230  -0.166   5.760 -0.0027  0.3318 -0.3128
  685MOL0     H92424   8.043  -0.277   5.963 -0.9298 -3.8638 -3.6814
  685MOL0     H92425   8.054  -0.105   5.913  1.2152  0.4556  1.1546
  685MOL0     H92426   7.965  -0.453   5.783 -1.0075 -0.1642  0.3878
  685MOL0     H92427   7.685  -0.387   5.498 -2.0357 -3.1721 -1.3207
  685MOL0     H92428   7.801  -0.515   5.525 -2.0983 -2.1655 -1.3193
  685MOL0     H92429   7.565  -0.450   5.699 -0.0401  1.0721 -3.7614
  685MOL0     H92430   7.595  -0.582   5.574  1.2788 -0.4732 -0.7265
  685MOL0     H92431   7.766  -0.564   5.825  1.4665  1.3385 -2.4304
  685MOL0     H92432   7.743  -0.698   5.701 -2.6508 -1.3831 -0.2933
  685MOL0     H92433   7.517  -0.730   5.811 -0.0021 -0.5289 -1.5962
  685MOL0     H92434   7.541  -0.585   5.905 -0.7668 -0.5426 -2.2926
  685MOL0     H92435   7.409  -0.854   5.885 -0.5173  1.2911  1.5576
  685MOL0     H92436   7.305  -1.048   5.960  1.1533  0.0775 -1.5535
  685MOL0     H92437   7.320  -1.480   6.159 -0.1523  0.3533  0.9920
  685MOL0     H92438   7.208  -1.639   6.245  0.5451  0.0627  0.2134
  685MOL0     H92439   7.118  -1.630   6.704  2.9588  2.5725 -3.9192
  685MOL0     H92440   6.959  -1.587   6.652  0.4108 -0.4928  0.5159
  685MOL0     H92441   7.044  -1.875   6.638 -1.6847 -1.5152 -0.1126
  685MOL0     H92442   6.930  -1.797   6.762 -2.6354 -3.9344 -0.6625
  685MOL0     H92443   6.778  -1.718   6.598 -1.4840 -2.2395  3.2618
  685MOL0     H92444   6.867  -1.804   6.459 -2.6816  1.4787 -1.0626
  685MOL0     H92445   6.743  -1.946   6.688 -0.1501 -3.4227 -0.0461
  685MOL0     H92446   6.834  -2.013   6.552  1.4601  1.1998  0.5479
  685MOL0     H92447   6.608  -2.043   6.523  0.3159  0.4451  0.3081
  685MOL0     H92448   6.668  -1.936   6.397 -1.0055 -2.5883 -0.0896
  685MOL0     H92449   6.484  -1.873   6.632 -1.2653  0.5417 -0.3390
  685MOL0     H92450   6.532  -1.747   6.510  0.4243  0.4871 -0.0025
  685MOL0     H92451   6.469  -1.904   6.329  0.7429 -0.9488  0.3848
  685MOL0     H92452   6.347  -1.804   6.403  1.6181  1.4840 -1.7632
  685MOL0     H92453   6.405  -2.104   6.469  2.1289  1.3032 -0.6238
  685MOL0     H92454   6.272  -2.019   6.542  1.4235  0.0444  0.3046
  685MOL0     H92455   7.166  -1.417   6.629 -0.7945  1.1653 -1.0701
  685MOL0     H92456   7.274  -1.238   6.515 -2.1921 -1.3863  2.5573
  685MOL0     H92457   7.605  -1.078   6.273  3.1768  1.2855  0.3133
  685MOL0     H92458   7.744  -0.919   6.152 -0.0964 -2.6490 -0.7576
  685MOL0     H92459   8.894   0.175   6.242 -1.4145 -1.6692 -2.7677
  685MOL0     H92460   8.917   0.422   6.290 -0.5675 -0.2210  0.5404
  685MOL0     H92461   8.789   0.791   6.401  2.5697  2.3446  0.2256
  685MOL0     H92462   8.804   1.006   6.468 -1.1491 -1.8432  0.5343
  685MOL0     H92463   8.857   1.253   6.460 -0.6151  0.4012 -1.0009
  685MOL0     H92464   8.703   1.233   6.533  0.3599 -0.0811 -1.2562
  685MOL0     H92465   8.639   1.468   6.407 -0.4257 -0.2809 -0.4903
  685MOL0     H92466   8.796   1.456   6.343 -1.0784 -0.7989 -0.5528
  685MOL0     H92467   8.732   1.463   6.637  1.9962 -4.1089 -1.4872
  685MOL0     H92468   8.770   1.611   6.544  1.2611  0.6447 -0.2452
  685MOL0     H92469   8.968   1.550   6.663 -0.9260 -0.7417  0.1362
  685MOL0     H92470   8.955   1.385   6.612  2.1645  1.3287  1.6663
  685MOL0     H92471   9.120   1.554   6.265 -0.2591 -0.0284  1.0206
  685MOL0     H92472   8.579   1.137   6.119 -3.1768  0.7193  3.3859
  685MOL0     H92473   8.552   0.994   5.940  0.5948  0.8537  0.8335
  685MOL0     H92474   8.621   0.837   5.942  0.1582  0.3475 -0.8656
  685MOL0     H92475   8.454   0.859   6.007  1.2178 -1.9211  2.1192
  686MOL0     O92476   6.210   5.328   6.915 -0.0133 -0.5763 -0.3689
  686MOL0     C92477   6.160   5.235   6.849 -0.4417 -0.3039 -0.3361
  686MOL0     O92478   6.228   5.125   6.794  0.0887 -0.1517 -0.0826
  686MOL0     C92479   6.364   5.113   6.809  0.0987  0.1002  0.8821
  686MOL0     C92480   6.451   5.076   6.705 -0.6499 -0.4093 -0.0739
  686MOL0     C92481   6.591   5.069   6.722 -0.1926 -0.1502  0.8468
  686MOL0     C92482   6.649   5.092   6.844  0.3699 -0.0421 -0.6628
  686MOL0     O92483   6.784   5.086   6.865 -0.2670  0.1269  0.2563
  686MOL0     C92484   6.876   5.117   6.757 -0.7359  0.6633 -0.2077
  686MOL0     C92485   7.025   5.094   6.807 -0.0325 -0.0610  0.1134
  686MOL0     C92486   7.118   5.137   6.693 -0.1836  0.5524 -0.0711
  686MOL0     C92487   7.261   5.102   6.729 -0.1644  0.0605 -0.5163
  686MOL0     C92488   7.363   5.140   6.616 -0.4019  0.0331  0.0876
  686MOL0     C92489   7.486   5.056   6.632 -0.3670 -0.3107  0.5757
  686MOL0     C92490   7.584   5.091   6.525  0.1067 -0.4425  0.1333
  686MOL0     C92491   7.696   4.983   6.523 -0.1697 -0.3218  0.7399
  686MOL0     N92492   7.818   5.027   6.446  0.0417 -0.0659 -0.0987
  686MOL0     C92493   7.928   5.074   6.510 -0.4089 -0.1001  0.1787
  686MOL0     C92494   8.016   5.070   6.415  0.0797 -0.1618 -0.4574
  686MOL0     C92495   8.158   5.115   6.446  0.1791 -0.2606  0.8315
  686MOL0     C92496   8.220   5.043   6.565  0.2225  0.8233 -0.6529
  686MOL0     C92497   8.236   4.892   6.535 -0.6771  0.1754  0.3898
  686MOL0     C92498   8.261   4.813   6.667  0.7589 -0.0342 -0.0588
  686MOL0     O92499   8.267   4.677   6.639 -0.4959  0.5075 -0.6523
  686MOL0     C92500   8.393   4.619   6.612  0.2942  0.2228  0.1655
  686MOL0     C92501   8.504   4.692   6.574 -0.4626  0.0567 -0.1625
  686MOL0     C92502   8.623   4.634   6.539  0.5980 -0.4120 -0.0071
  686MOL0     C92503   8.632   4.495   6.541 -0.2757  0.1883 -0.1101
  686MOL0     C92504   8.748   4.434   6.484 -0.7493 -0.1118 -0.2018
  686MOL0     O92505   8.826   4.509   6.394 -0.8677 -0.2896  0.1623
  686MOL0     C92506   8.906   4.440   6.308  1.0929 -0.1873  0.3401
  686MOL0     C92507   9.043   4.472   6.307  0.9113  0.5001 -0.4640
  686MOL0     C92508   9.141   4.401   6.233  0.1414 -0.2448  0.0231
  686MOL0     C92509   9.102   4.305   6.143 -0.3910  0.0899 -0.0561
  686MOL0     O92510   9.180   4.227   6.063 -0.1673  0.1445  0.6002
  686MOL0     C92511   9.305   4.271   6.002  0.3373 -0.1449 -0.3718
  686MOL0     C92512   9.377   4.151   5.948  0.1182 -0.0463  0.4382
  686MOL0     C92513   9.508   4.174   5.882  0.6291  0.0358 -0.1545
  686MOL0     C92514   9.576   4.041   5.842  1.2446 -0.4780 -0.6914
  686MOL0     C92515   9.704   4.071   5.757 -0.3434 -0.4083  0.0913
  686MOL0     C92516   9.805   4.135   5.843  0.5078  0.1704  0.1699
  686MOL0     C92517   9.931   4.102   5.773  0.0309 -0.5929  0.1636
  686MOL0     C92518  10.036   4.026   5.848 -0.6886 -0.0813 -0.8525
  686MOL0    Cl92519  10.161   3.974   5.737 -0.3572  0.0831 -0.3226
  686MOL0     C92520   8.960   4.273   6.139 -0.4874  0.1251  0.5372
  686MOL0     C92521   8.866   4.349   6.219  0.7439  0.0325  0.4299
  686MOL0     O92522   8.772   4.317   6.518 -0.5890 -0.4863 -0.2040
  686MOL0     C92523   8.526   4.420   6.591 -0.3456 -0.0298 -0.1857
  686MOL0     C92524   8.409   4.481   6.625 -0.2389 -1.0867 -0.3504
  686MOL0     N92525   7.970   5.025   6.293  0.4637  0.7078  0.4371
  686MOL0     N92526   7.843   4.999   6.310 -0.1016 -0.5755  0.0990
  686MOL0     C92527   6.565   5.134   6.943 -0.7336  0.2485  0.9328
  686MOL0     C92528   6.431   5.146   6.933  0.3181 -0.1889 -0.8407
  686MOL0     C92529   6.024   5.267   6.800  1.5165 -0.1485  0.0690
  686MOL0     C92530   5.933   5.333   6.890 -0.6368  0.7459  0.1900
  686MOL0     C92531   5.800   5.359   6.845 -0.4862  0.5247  0.0492
  686MOL0     C92532   5.759   5.327   6.712  0.0918  0.5647  0.2792
  686MOL0     O92533   5.628   5.339   6.666  0.2754  0.2241  0.1820
  686MOL0     C92534   5.523   5.395   6.746 -0.2591 -0.2652  0.4050
  686MOL0     C92535   5.398   5.413   6.662  0.0830 -1.0563 -0.5972
  686MOL0     C92536   5.346   5.282   6.589  0.1492 -0.6928  0.1298
  686MOL0     C92537   5.240   5.313   6.482  0.2342 -0.8563 -0.3207
  686MOL0     C92538   5.114   5.360   6.547 -0.3581 -0.5623  0.6391
  686MOL0     C92539   5.013   5.400   6.591 -0.4930  0.0611 -0.9308
  686MOL0     C92540   5.848   5.264   6.628  0.0155  0.5558  0.1255
  686MOL0     C92541   5.981   5.239   6.664  0.9537 -0.0584 -0.1680
  686MOL0     C92542   6.065   5.187   6.558  0.4666 -0.3205 -0.0537
  686MOL0     H92543   6.402   5.065   6.608  0.1601  0.2264 -0.5639
  686MOL0     H92544   6.639   5.043   6.629 -2.6631 -1.1572 -0.2311
  686MOL0     H92545   6.859   5.059   6.665  0.0471 -0.0227  0.0708
  686MOL0     H92546   6.864   5.224   6.738 -1.4294  0.2893 -2.0867
  686MOL0     H92547   7.048   4.991   6.835 -1.4000 -0.3453  0.2822
  686MOL0     H92548   7.050   5.149   6.899  3.2846 -0.1104 -0.6289
  686MOL0     H92549   7.119   5.246   6.682  0.7734  0.7966  1.9474
  686MOL0     H92550   7.097   5.076   6.605  1.6737 -2.4032  1.3760
  686MOL0     H92551   7.288   5.155   6.821  0.1212 -1.9981  0.6287
  686MOL0     H92552   7.266   4.995   6.747 -2.3834  0.3674  2.6965
  686MOL0     H92553   7.321   5.120   6.516  0.3317 -2.4182  0.1980
  686MOL0     H92554   7.379   5.247   6.628  0.1548 -0.2689  2.5013
  686MOL0     H92555   7.517   5.072   6.736 -0.6952 -1.6312  0.8856
  686MOL0     H92556   7.459   4.951   6.628  0.7922 -0.6802  1.6807
  686MOL0     H92557   7.623   5.193   6.536 -0.5952 -0.1360 -0.1621
  686MOL0     H92558   7.544   5.084   6.423  1.6410  1.0954 -0.6345
  686MOL0     H92559   7.721   4.969   6.628  0.4996  2.6938  1.0577
  686MOL0     H92560   7.660   4.885   6.488 -0.4824 -0.2395  0.8258
  686MOL0     H92561   7.934   5.103   6.614 -1.9327 -0.0661  0.2797
  686MOL0     H92562   8.216   5.082   6.359 -0.8209  2.3795 -1.0009
  686MOL0     H92563   8.166   5.224   6.455 -0.5291  0.0782 -1.8102
  686MOL0     H92564   8.320   5.087   6.575  0.0135  1.4810 -1.3513
  686MOL0     H92565   8.165   5.051   6.658  2.3688 -0.0024  0.7803
  686MOL0     H92566   8.327   4.878   6.476 -1.0684  1.7310 -0.6358
  686MOL0     H92567   8.147   4.868   6.476  0.4387  0.2306 -1.3924
  686MOL0     H92568   8.166   4.820   6.719  0.6297 -2.4059  0.1164
  686MOL0     H92569   8.343   4.855   6.726  1.1065 -1.5167  0.5680
  686MOL0     H92570   8.497   4.800   6.564  0.6816  0.1473 -0.0635
  686MOL0     H92571   8.703   4.699   6.506  1.2750 -0.9020  0.6315
  686MOL0     H92572   9.068   4.562   6.363 -0.9085  0.9339 -0.2791
  686MOL0     H92573   9.246   4.422   6.253 -0.1315 -0.0833  1.4157
  686MOL0     H92574   9.294   4.342   5.920 -0.1787  1.7052  1.2161
  686MOL0     H92575   9.365   4.319   6.080 -0.4769 -0.5704  0.5488
  686MOL0     H92576   9.388   4.080   6.030  1.0447 -0.5011 -0.0587
  686MOL0     H92577   9.322   4.098   5.870  1.9648  0.2814 -1.1595
  686MOL0     H92578   9.482   4.241   5.799 -4.5284  2.9156  3.2195
  686MOL0     H92579   9.571   4.224   5.956 -2.0410 -0.4869  2.6534
  686MOL0     H92580   9.509   3.973   5.790 -0.2997 -1.1150  1.9812
  686MOL0     H92581   9.596   3.987   5.935 -1.5348  0.6674  0.6846
  686MOL0     H92582   9.675   4.127   5.668  0.9872  2.3637  1.2745
  686MOL0     H92583   9.725   3.969   5.725 -1.7975 -1.0896  1.1396
  686MOL0     H92584   9.780   4.241   5.851  3.0482  0.8344  0.2775
  686MOL0     H92585   9.813   4.098   5.946 -0.3808  0.6162  0.4151
  686MOL0     H92586   9.970   4.199   5.741 -1.1542 -0.4559 -0.9398
  686MOL0     H92587   9.922   4.050   5.677 -0.7365 -0.4638  0.1564
  686MOL0     H92588  10.094   4.092   5.914 -0.2319 -0.2240 -1.1081
  686MOL0     H92589   9.992   3.939   5.899 -0.4252 -0.7230 -1.6955
  686MOL0     H92590   8.922   4.193   6.075 -1.5062  0.5601  0.5760
  686MOL0     H92591   8.763   4.316   6.211  0.2203  1.8188 -0.6270
  686MOL0     H92592   8.544   4.313   6.599  0.9199  0.1558 -0.3835
  686MOL0     H92593   8.323   4.433   6.669 -0.3059  0.1303  0.9343
  686MOL0     H92594   6.617   5.144   7.038 -1.7467  0.0407  1.5227
  686MOL0     H92595   6.386   5.183   7.025  1.6868 -2.8539  1.0286
  686MOL0     H92596   5.963   5.350   6.993 -0.0672 -0.4255  0.2395
  686MOL0     H92597   5.727   5.401   6.913  1.5686  2.1458  1.3689
  686MOL0     H92598   5.548   5.494   6.784 -0.1871 -1.1386  2.7538
  686MOL0     H92599   5.500   5.339   6.837  1.6937 -0.4312  0.8540
  686MOL0     H92600   5.416   5.494   6.590 -0.5295 -1.9035 -1.7373
  686MOL0     H92601   5.322   5.456   6.727  3.1294  3.1114  0.6190
  686MOL0     H92602   5.300   5.214   6.662 -0.2830 -3.0974 -2.2282
  686MOL0     H92603   5.437   5.243   6.543  2.8664  1.8844  2.8153
  686MOL0     H92604   5.268   5.392   6.412  0.8690  0.9134  1.7893
  686MOL0     H92605   5.225   5.216   6.434  0.3918 -1.9340  1.6821
  686MOL0     H92606   4.917   5.425   6.631  1.1633  2.4405  2.0675
  686MOL0     H92607   5.812   5.239   6.529  1.2289  2.2457 -0.8058
  686MOL0     H92608   6.158   5.245   6.553 -0.7735  1.9103  0.9489
  686MOL0     H92609   6.085   5.081   6.575  0.0454 -0.5415 -0.9034
  686MOL0     H92610   6.012   5.197   6.463 -1.0919  2.7326  1.0030
  687MOL0     O92611   1.373   5.117   3.627  0.6077  0.1833 -0.2357
  687MOL0     C92612   1.379   5.200   3.536  0.0375 -0.2201  0.1788
  687MOL0     O92613   1.493   5.255   3.487 -0.6672 -1.0053 -0.0943
  687MOL0     C92614   1.614   5.213   3.556 -0.2464 -0.4505  0.0650
  687MOL0     C92615   1.636   5.263   3.684  0.4009  0.7887 -0.5771
  687MOL0     C92616   1.740   5.213   3.757 -0.1223  0.2086 -0.6549
  687MOL0     C92617   1.831   5.123   3.701  0.0772  0.6385  0.2967
  687MOL0     O92618   1.932   5.068   3.787  0.5470 -0.0995  0.5837
  687MOL0     C92619   2.069   5.096   3.753 -0.0040 -0.6411 -0.1552
  687MOL0     C92620   2.146   4.979   3.786  0.0325  0.0948  0.2110
  687MOL0     C92621   2.069   4.841   3.752  0.1406 -0.7173 -0.3680
  687MOL0     C92622   2.190   4.749   3.749  0.9400 -0.6592  0.3528
  687MOL0     C92623   2.143   4.592   3.735 -0.3750 -0.5488  0.1887
  687MOL0     C92624   2.259   4.499   3.701 -0.0812  0.1005 -0.2333
  687MOL0     C92625   2.197   4.372   3.652  0.9335 -0.1739  0.6144
  687MOL0     C92626   2.297   4.250   3.655 -0.1420 -0.5185  0.3164
  687MOL0     N92627   2.417   4.277   3.577 -0.4083 -0.4373 -0.1006
  687MOL0     C92628   2.433   4.240   3.446  0.3817  0.2034  0.3163
  687MOL0     C92629   2.555   4.295   3.415 -0.2228  0.8822 -1.2168
  687MOL0     C92630   2.616   4.278   3.274 -0.7316  0.1284  0.3270
  687MOL0     C92631   2.563   4.389   3.179 -0.4470  0.8207  0.5193
  687MOL0     C92632   2.529   4.525   3.238  0.4378 -0.3286 -0.4527
  687MOL0     C92633   2.658   4.601   3.277 -0.2765 -0.8138 -0.2050
  687MOL0     O92634   2.631   4.740   3.267  0.1994  0.3466  0.0785
  687MOL0     C92635   2.741   4.825   3.277  0.5903 -0.6232 -0.3016
  687MOL0     C92636   2.867   4.785   3.319  0.3106 -0.5426  0.3603
  687MOL0     C92637   2.978   4.864   3.308 -0.0693 -0.1595 -0.0491
  687MOL0     C92638   2.960   4.994   3.263 -0.3855  0.2735 -0.4298
  687MOL0     C92639   3.075   5.081   3.251  0.6186  0.3434  0.0266
  687MOL0     O92640   3.085   5.155   3.135  0.2549  0.2387 -0.6501
  687MOL0     C92641   3.185   5.240   3.115  0.1896  1.4185  0.2419
  687MOL0     C92642   3.316   5.193   3.105  0.0028 -0.6088 -0.3402
  687MOL0     C92643   3.425   5.290   3.105  0.2357  0.9340 -0.6762
  687MOL0     C92644   3.390   5.421   3.108 -0.8912  0.4246 -0.1764
  687MOL0     O92645   3.481   5.521   3.104 -0.0697  0.5618 -0.1968
  687MOL0     C92646   3.622   5.498   3.079  0.4257 -0.1094 -0.8894
  687MOL0     C92647   3.697   5.629   3.117 -0.4702 -0.5612  0.4233
  687MOL0     C92648   3.851   5.606   3.094 -0.7656  0.2025  0.7931
  687MOL0     C92649   3.925   5.733   3.133 -1.4580 -0.1850  0.1873
  687MOL0     C92650   4.073   5.715   3.111 -0.1707 -0.1178 -0.5335
  687MOL0     C92651   4.164   5.816   3.184  0.3274 -0.1476 -0.6289
  687MOL0     C92652   4.315   5.785   3.167 -0.2404 -0.1655 -0.5785
  687MOL0     C92653   4.361   5.771   3.023  0.2732 -0.1742 -0.4051
  687MOL0    Cl92654   4.542   5.791   3.021  0.2593  0.1348 -0.3602
  687MOL0     C92655   3.264   5.464   3.105 -0.0757  0.6332 -0.2581
  687MOL0     C92656   3.156   5.373   3.115 -0.5930  0.3761  0.2822
  687MOL0     O92657   3.155   5.095   3.337  0.6720 -0.9887 -0.5565
  687MOL0     C92658   2.833   5.042   3.221 -0.5307 -0.1489 -0.6984
  687MOL0     C92659   2.726   4.955   3.226  0.1834 -0.8138  0.2297
  687MOL0     N92660   2.606   4.354   3.528  0.0639 -0.2381 -0.0628
  687MOL0     N92661   2.528   4.334   3.626 -0.4834 -0.0460 -0.2860
  687MOL0     C92662   1.803   5.073   3.580 -0.3371 -0.4471  0.5793
  687MOL0     C92663   1.694   5.117   3.501  0.6590 -0.6896 -0.2899
  687MOL0     C92664   1.247   5.254   3.468 -0.3358  0.0882 -1.1444
  687MOL0     C92665   1.129   5.178   3.496  0.0388 -0.2590 -0.2086
  687MOL0     C92666   1.011   5.227   3.451 -1.0482 -0.6900 -0.6325
  687MOL0     C92667   1.003   5.337   3.368  0.1894  0.6138  1.9509
  687MOL0     O92668   0.884   5.393   3.319  0.4482  0.7554  0.1264
  687MOL0     C92669   0.763   5.309   3.329  0.7903 -0.0972 -0.0891
  687MOL0     C92670   0.648   5.376   3.256 -0.1883  0.7175  0.3839
  687MOL0     C92671   0.601   5.518   3.304 -0.2025  0.3661  0.2024
  687MOL0     C92672   0.459   5.553   3.282  0.5120 -0.2740 -0.5236
  687MOL0     C92673   0.371   5.470   3.359  0.3221  0.3750  0.1733
  687MOL0     C92674   0.294   5.411   3.428 -0.5348 -0.1427  0.3164
  687MOL0     C92675   1.121   5.403   3.331 -0.3077  0.4152 -0.6971
  687MOL0     C92676   1.249   5.362   3.378 -0.3575  0.3522 -0.3174
  687MOL0     C92677   1.362   5.444   3.328 -0.2228  0.2301  0.1502
  687MOL0     H92678   1.565   5.333   3.727 -1.0702  0.1364 -1.8379
  687MOL0     H92679   1.778   5.249   3.852 -0.5316  0.1691 -0.4716
  687MOL0     H92680   2.069   5.109   3.644  1.6177 -0.1277 -0.1253
  687MOL0     H92681   2.103   5.185   3.806 -0.1781 -0.7822  0.1967
  687MOL0     H92682   2.182   4.972   3.889  1.7007  2.6304 -0.1149
  687MOL0     H92683   2.236   4.991   3.725 -0.3701  0.6352 -0.2916
  687MOL0     H92684   2.025   4.846   3.652 -1.2620  2.3811  0.2601
  687MOL0     H92685   2.001   4.812   3.832 -0.7975  0.0797 -0.8513
  687MOL0     H92686   2.250   4.782   3.664  0.6436  2.1650  1.1404
  687MOL0     H92687   2.259   4.756   3.834  1.8302  4.0101 -0.5123
  687MOL0     H92688   2.099   4.568   3.832 -0.9176  1.4758  0.4911
  687MOL0     H92689   2.066   4.587   3.656  1.0497  0.4569 -1.3243
  687MOL0     H92690   2.308   4.554   3.620 -1.1845  3.9163  1.4637
  687MOL0     H92691   2.332   4.482   3.780 -1.4704  1.8679  1.5422
  687MOL0     H92692   2.154   4.383   3.551 -0.6522  0.3904  1.3152
  687MOL0     H92693   2.107   4.344   3.709  0.5222 -0.9880 -0.3823
  687MOL0     H92694   2.336   4.231   3.756 -0.0455 -0.9088  0.2047
  687MOL0     H92695   2.238   4.162   3.628 -0.7499  0.3159 -1.1889
  687MOL0     H92696   2.359   4.191   3.384  2.6046 -2.5701 -0.3388
  687MOL0     H92697   2.723   4.262   3.288 -0.8303 -1.1314 -0.2472
  687MOL0     H92698   2.594   4.183   3.226  2.9602 -0.9121  0.3695
  687MOL0     H92699   2.636   4.401   3.099 -0.9954  0.2937 -0.0715
  687MOL0     H92700   2.467   4.350   3.145 -0.1034 -1.2147  1.6760
  687MOL0     H92701   2.455   4.517   3.318  1.1895 -1.4559  0.1567
  687MOL0     H92702   2.498   4.588   3.154  2.2050 -1.2547 -1.8651
  687MOL0     H92703   2.738   4.582   3.205 -0.7658  1.4907 -1.4439
  687MOL0     H92704   2.692   4.568   3.376 -1.6945 -1.8927 -0.0482
  687MOL0     H92705   2.886   4.690   3.368 -0.0523  0.0009  1.5897
  687MOL0     H92706   3.071   4.832   3.353 -1.6397 -1.8054  2.2860
  687MOL0     H92707   3.336   5.087   3.099  0.5380 -0.4721 -1.2764
  687MOL0     H92708   3.527   5.253   3.107  0.5401  1.7001  2.0063
  687MOL0     H92709   3.661   5.418   3.143 -0.3182  0.1030 -0.1485
  687MOL0     H92710   3.636   5.490   2.971 -0.4259  7.3130 -2.1316
  687MOL0     H92711   3.666   5.700   3.041 -1.4678  1.5391  2.6435
  687MOL0     H92712   3.685   5.663   3.221  1.8537  2.7324 -0.2065
  687MOL0     H92713   3.882   5.514   3.144 -0.3906 -1.1367 -1.7377
  687MOL0     H92714   3.871   5.594   2.988 -0.9732  0.4386  0.7261
  687MOL0     H92715   3.912   5.749   3.241 -0.6052  3.5420 -0.1312
  687MOL0     H92716   3.882   5.817   3.078  0.4913  1.0015  0.3756
  687MOL0     H92717   4.090   5.722   3.003 -1.4615  0.6001 -0.7041
  687MOL0     H92718   4.094   5.618   3.157  0.1210 -0.2556 -0.9526
  687MOL0     H92719   4.137   5.919   3.160  2.5134  0.5533 -0.3042
  687MOL0     H92720   4.137   5.813   3.290 -3.1831  0.2679 -1.3779
  687MOL0     H92721   4.347   5.698   3.225 -0.9021 -0.4193 -0.5844
  687MOL0     H92722   4.362   5.876   3.206 -3.3250  1.5095 -0.4970
  687MOL0     H92723   4.342   5.671   2.983 -1.8436  0.1428 -0.3112
  687MOL0     H92724   4.323   5.853   2.960  2.7894  0.8859 -0.6800
  687MOL0     H92725   3.251   5.571   3.115 -0.6771  0.5386  0.0118
  687MOL0     H92726   3.055   5.406   3.135 -0.0126  0.3795  4.0372
  687MOL0     H92727   2.823   5.146   3.193 -2.0451 -0.1210 -0.1306
  687MOL0     H92728   2.629   4.992   3.191  0.5524 -0.6461 -0.6596
  687MOL0     H92729   1.870   5.004   3.530  0.4297  1.4746 -1.2294
  687MOL0     H92730   1.681   5.079   3.400  0.8547 -0.4836 -0.3952
  687MOL0     H92731   1.131   5.089   3.558 -2.9060  0.3112  0.8812
  687MOL0     H92732   0.916   5.178   3.472 -2.1848  1.4622 -0.4103
  687MOL0     H92733   0.731   5.287   3.431 -3.7330  5.2077  0.1130
  687MOL0     H92734   0.787   5.215   3.277  2.2846 -0.1854  0.7022
  687MOL0     H92735   0.563   5.307   3.255  0.1941  0.2164 -1.3105
  687MOL0     H92736   0.676   5.375   3.150  0.3636 -1.4885  0.5078
  687MOL0     H92737   0.670   5.593   3.264 -1.3651 -0.0505 -2.7785
  687MOL0     H92738   0.610   5.516   3.413 -2.7099 -1.4109  0.4489
  687MOL0     H92739   0.450   5.660   3.305  3.5670 -0.0824  0.1332
  687MOL0     H92740   0.434   5.531   3.178  0.4901 -0.4857 -0.4730
  687MOL0     H92741   0.219   5.362   3.487 -0.7809  1.7434  1.6407
  687MOL0     H92742   1.101   5.489   3.268 -0.8244  0.6811 -0.1860
  687MOL0     H92743   1.426   5.485   3.407 -0.2928  1.3321 -0.3433
  687MOL0     H92744   1.424   5.381   3.264 -2.4325 -0.2387 -1.6727
  687MOL0     H92745   1.329   5.529   3.267  1.4758  2.0374  1.6109
  688MOL0     O92746   0.431  10.769   3.087 -0.6830 -0.4957 -0.2081
  688MOL0     C92747   0.330  10.823   3.136 -0.1940 -0.2906 -0.1006
  688MOL0     O92748   0.335  10.908   3.240  0.0780 -0.0462 -0.8720
  688MOL0     C92749   0.464  10.932   3.300 -0.2582  0.4214  0.4113
  688MOL0     C92750   0.522  10.842   3.392  0.2993  0.4937  0.8872
  688MOL0     C92751   0.650  10.865   3.450  0.3312  0.2833 -0.4449
  688MOL0     C92752   0.728  10.972   3.412 -0.2011 -0.0730  0.9133
  688MOL0     O92753   0.852  10.993   3.472 -0.0424 -0.1050  0.5583
  688MOL0     C92754   0.953  10.929   3.393  0.1378 -0.0885 -0.2673
  688MOL0     C92755   1.038  10.834   3.480 -0.4988  0.5369 -0.7325
  688MOL0     C92756   1.096  10.896   3.609  0.7123 -0.8859 -0.1031
  688MOL0     C92757   1.215  10.989   3.578  0.1427  0.7251 -0.1278
  688MOL0     C92758   1.345  10.915   3.566  0.6575  0.4230  0.2410
  688MOL0     C92759   1.407  10.885   3.705 -0.0077  1.0375  0.3609
  688MOL0     C92760   1.540  10.815   3.695 -0.4639  0.0401  0.7306
  688MOL0     C92761   1.542  10.676   3.764  0.2952  0.8440  0.0709
  688MOL0     N92762   1.688  10.635   3.752 -0.4721 -0.5227 -0.4327
  688MOL0     C92763   1.739  10.570   3.642  0.3614  1.0656 -0.3185
  688MOL0     C92764   1.867  10.547   3.673  0.3910 -1.0436  0.6128
  688MOL0     C92765   1.971  10.497   3.581 -0.7671 -0.1797  0.6128
  688MOL0     C92766   2.101  10.447   3.660  1.2733 -0.5166  0.4686
  688MOL0     C92767   2.218  10.388   3.568  0.3162 -0.5194 -0.3303
  688MOL0     C92768   2.356  10.415   3.623  0.0287  0.2487  1.1123
  688MOL0     O92769   2.447  10.347   3.543  0.5531 -0.1115 -0.0029
  688MOL0     C92770   2.577  10.334   3.591 -0.1570  0.3312  0.3183
  688MOL0     C92771   2.616  10.332   3.728 -0.1111 -0.1460 -0.5717
  688MOL0     C92772   2.743  10.284   3.769  0.0473 -0.2924 -0.1884
  688MOL0     C92773   2.840  10.253   3.668 -0.6365  0.0423  0.0120
  688MOL0     C92774   2.976  10.211   3.703  0.4807  0.5195  0.3957
  688MOL0     O92775   3.011  10.207   3.835  0.3480 -0.1967 -0.2403
  688MOL0     C92776   3.140  10.235   3.869 -0.1434  0.5071 -0.4915
  688MOL0     C92777   3.242  10.291   3.794 -0.1509 -1.0932 -0.9050
  688MOL0     C92778   3.372  10.315   3.847  0.4462 -0.3996  0.4212
  688MOL0     C92779   3.409  10.268   3.974 -0.1584 -0.3119 -0.0746
  688MOL0     O92780   3.535  10.273   4.019 -0.3478 -0.6061  0.5047
  688MOL0     C92781   3.634  10.361   3.962  0.0196  0.1399 -0.0290
  688MOL0     C92782   3.748  10.383   4.065 -0.1781  0.3711 -0.4000
  688MOL0     C92783   3.845  10.497   4.019 -0.1764 -0.0128  0.0404
  688MOL0     C92784   3.937  10.456   3.913  0.5606  0.1749  0.5907
  688MOL0     C92785   4.051  10.547   3.894 -0.4504 -1.2022  0.8340
  688MOL0     C92786   4.150  10.478   3.794  0.0146  0.0870 -0.1024
  688MOL0     C92787   4.261  10.575   3.750  0.0576 -0.0602 -0.0586
  688MOL0     C92788   4.316  10.548   3.609 -1.0443  0.0046  0.2702
  688MOL0    Cl92789   4.425  10.404   3.641  0.5489 -0.2258 -0.0237
  688MOL0     C92790   3.309  10.205   4.057 -0.2218 -0.0764 -0.5956
  688MOL0     C92791   3.180  10.187   3.995  0.1382 -0.8626 -0.1665
  688MOL0     O92792   3.050  10.170   3.611 -0.0940 -0.5750  0.4556
  688MOL0     C92793   2.800  10.258   3.529 -0.8439 -0.3212  0.0132
  688MOL0     C92794   2.674  10.306   3.495  0.3056  0.6770  1.2713
  688MOL0     N92795   1.884  10.583   3.800 -0.2582 -0.2597  0.4949
  688MOL0     N92796   1.779  10.639   3.843 -0.2691  0.1804 -0.2183
  688MOL0     C92797   0.673  11.059   3.309 -0.3501 -0.3788  0.4751
  688MOL0     C92798   0.544  11.041   3.257 -0.3042  0.9119  0.4502
  688MOL0     C92799   0.190  10.792   3.092  0.1818 -0.1362 -1.1877
  688MOL0     C92800   0.073  10.860   3.151 -0.2484  1.3031 -1.0794
  688MOL0     C92801  -0.059  10.814   3.118  1.2271 -0.5534 -0.0226
  688MOL0     C92802  -0.078  10.708   3.036  0.4731 -0.2515 -0.4384
  688MOL0     O92803  -0.213  10.679   3.023 -0.3898  0.2033 -0.4997
  688MOL0     C92804  -0.258  10.598   2.918 -0.5035  0.0384  0.9817
  688MOL0     C92805  -0.326  10.687   2.811  0.0295 -0.5978 -0.3518
  688MOL0     C92806  -0.388  10.613   2.691  0.1459  0.3904 -0.1406
  688MOL0     C92807  -0.459  10.712   2.596  0.4384  0.1106 -0.0144
  688MOL0     C92808  -0.370  10.814   2.542 -0.2494 -0.3714 -0.4689
  688MOL0     C92809  -0.309  10.912   2.508 -0.6102  0.3570 -0.2548
  688MOL0     C92810   0.025  10.653   2.970 -0.2602 -0.6877 -0.0114
  688MOL0     C92811   0.160  10.688   2.993 -0.3066  0.5131  0.1751
  688MOL0     C92812   0.270  10.620   2.923  1.1719  0.2443 -0.4159
  688MOL0     H92813   0.465  10.753   3.415  0.1998  0.8533  2.1197
  688MOL0     H92814   0.702  10.802   3.522  1.6399 -2.0964 -3.2293
  688MOL0     H92815   0.904  10.854   3.330  0.1458 -0.5323  0.2467
  688MOL0     H92816   1.015  11.001   3.339  0.3132  0.3437  0.4954
  688MOL0     H92817   1.113  10.782   3.421 -3.3669 -2.5693 -1.9671
  688MOL0     H92818   0.966  10.758   3.511  0.6333  1.0542  3.8910
  688MOL0     H92819   1.116  10.805   3.666 -1.3920 -3.6920 -3.3862
  688MOL0     H92820   1.012  10.941   3.663 -1.4228 -0.5940 -3.3638
  688MOL0     H92821   1.194  11.042   3.484 -4.3388  0.4829  0.4846
  688MOL0     H92822   1.236  11.063   3.656 -0.1351 -1.3265  1.9949
  688MOL0     H92823   1.321  10.826   3.507 -3.8778  0.1868  2.0345
  688MOL0     H92824   1.416  10.982   3.518  0.4163  1.4274  1.2558
  688MOL0     H92825   1.409  10.971   3.772 -2.3539 -0.0206  1.9543
  688MOL0     H92826   1.342  10.818   3.763  0.7623  1.4264  1.7317
  688MOL0     H92827   1.609  10.874   3.756  1.8141 -0.5770 -1.1481
  688MOL0     H92828   1.564  10.807   3.589  0.7818 -0.9987  1.0698
  688MOL0     H92829   1.523  10.698   3.869 -0.7075  2.4867 -0.4179
  688MOL0     H92830   1.464  10.609   3.727  0.8184  0.9614 -1.3358
  688MOL0     H92831   1.687  10.539   3.551 -0.0616 -1.6469  0.7336
  688MOL0     H92832   1.927  10.411   3.531  0.7677 -0.5077 -0.2295
  688MOL0     H92833   1.998  10.573   3.507  1.5001  0.1668  1.7030
  688MOL0     H92834   2.137  10.533   3.718 -2.7143  1.1945  0.7198
  688MOL0     H92835   2.068  10.366   3.726  1.1993 -3.0630 -2.4494
  688MOL0     H92836   2.214  10.418   3.463  2.2932  0.5480 -0.1292
  688MOL0     H92837   2.216  10.279   3.584 -2.3655 -0.5652 -0.4241
  688MOL0     H92838   2.361  10.391   3.729 -0.3385  0.6268  1.2181
  688MOL0     H92839   2.366  10.524   3.621 -0.9020  0.3600  1.5742
  688MOL0     H92840   2.533  10.346   3.797 -1.4117  2.0365 -2.4338
  688MOL0     H92841   2.769  10.283   3.875 -0.6815  0.9357  0.0207
  688MOL0     H92842   3.221  10.328   3.694 -0.7881  3.8633  0.7823
  688MOL0     H92843   3.453  10.360   3.791 -0.5963 -0.2784 -1.0596
  688MOL0     H92844   3.667  10.317   3.868 -2.3359  0.1150 -0.9099
  688MOL0     H92845   3.588  10.459   3.945  1.8746  0.9077 -0.8362
  688MOL0     H92846   3.706  10.398   4.165  0.5197  0.6902 -0.1409
  688MOL0     H92847   3.801  10.288   4.076 -1.8556 -0.6578 -0.8511
  688MOL0     H92848   3.790  10.591   4.004  1.0569  0.3129 -3.2239
  688MOL0     H92849   3.907  10.513   4.107 -0.4299  2.7751 -0.1952
  688MOL0     H92850   3.879  10.449   3.821 -0.1454  3.4468  0.6745
  688MOL0     H92851   3.982  10.359   3.935  0.4529 -0.7361 -2.7194
  688MOL0     H92852   4.108  10.545   3.987  0.3012 -2.1688  0.3649
  688MOL0     H92853   4.034  10.653   3.872  1.4928 -0.8349  0.9134
  688MOL0     H92854   4.196  10.393   3.847 -1.6799  0.2704  1.7796
  688MOL0     H92855   4.102  10.445   3.702  0.9627 -1.7029 -0.0078
  688MOL0     H92856   4.337  10.581   3.829 -2.8273 -0.4384  2.9601
  688MOL0     H92857   4.227  10.679   3.747 -1.5525 -0.5713 -0.5347
  688MOL0     H92858   4.251  10.518   3.526 -0.5677 -0.8599  0.1996
  688MOL0     H92859   4.374  10.637   3.583 -1.5971  0.5778  0.9656
  688MOL0     H92860   3.315  10.167   4.159  1.4776  0.7428 -0.3573
  688MOL0     H92861   3.103  10.136   4.052 -0.0225  0.1758  0.5623
  688MOL0     H92862   2.864  10.242   3.442 -1.7077  2.0378 -1.1397
  688MOL0     H92863   2.647  10.324   3.392  1.2899 -1.7253  0.5297
  688MOL0     H92864   0.727  11.149   3.281  0.6378 -0.0969  3.0400
  688MOL0     H92865   0.499  11.110   3.186  0.5376  0.8445 -0.1502
  688MOL0     H92866   0.080  10.949   3.213  1.2568  1.7566 -1.8563
  688MOL0     H92867  -0.142  10.862   3.170 -0.1478 -0.9397 -1.7701
  688MOL0     H92868  -0.323  10.521   2.960 -0.7961 -0.4530 -0.3317
  688MOL0     H92869  -0.178  10.545   2.865 -0.2560  0.4345  0.9596
  688MOL0     H92870  -0.249  10.759   2.781 -1.8511  1.9163  0.3985
  688MOL0     H92871  -0.401  10.747   2.865  0.2783 -1.4566  0.9703
  688MOL0     H92872  -0.461  10.545   2.735  1.8617 -1.4027  0.1139
  688MOL0     H92873  -0.308  10.567   2.632  0.3120 -0.6592  0.8493
  688MOL0     H92874  -0.506  10.664   2.509  0.0114  1.7665 -0.7431
  688MOL0     H92875  -0.540  10.761   2.650 -0.7000  1.5592 -2.7927
  688MOL0     H92876  -0.251  10.990   2.464 -1.7599 -0.2731 -3.1055
  688MOL0     H92877   0.013  10.578   2.892  2.1191 -0.1130 -1.0168
  688MOL0     H92878   0.334  10.679   2.856  1.3105 -3.2364 -3.6968
  688MOL0     H92879   0.315  10.560   3.003 -1.4317 -2.0371 -0.5498
  688MOL0     H92880   0.219  10.559   2.848 -1.7765  1.0949  0.7425
  689MOL0     O92881   9.674   8.117   3.459 -0.1201 -0.3754 -0.0474
  689MOL0     C92882   9.603   8.155   3.551  0.3005  0.6308  0.3108
  689MOL0     O92883   9.632   8.146   3.682  0.0776  0.1692  0.5883
  689MOL0     C92884   9.759   8.126   3.721 -0.0855  0.0673  0.9145
  689MOL0     C92885   9.796   7.998   3.763  0.0441 -0.5917  0.5581
  689MOL0     C92886   9.923   7.983   3.819  0.3571 -0.1275 -0.1364
  689MOL0     C92887  10.015   8.095   3.839  0.7236  0.1610 -0.3317
  689MOL0     O92888  10.132   8.081   3.910  0.7044  0.2616 -0.4792
  689MOL0     C92889  10.194   7.956   3.945 -1.1306  0.2806 -0.4899
  689MOL0     C92890  10.316   7.985   4.029  0.3481 -0.3163  0.1755
  689MOL0     C92891  10.277   8.051   4.168 -0.5002  0.5797  0.4440
  689MOL0     C92892  10.397   8.117   4.233  0.0860 -0.1588  0.3533
  689MOL0     C92893  10.355   8.177   4.371  0.6913  0.0392  0.3180
  689MOL0     C92894  10.463   8.241   4.450 -0.4381  0.2763 -0.4754
  689MOL0     C92895  10.428   8.230   4.594  0.2956 -1.0443  0.7364
  689MOL0     C92896  10.503   8.311   4.704 -0.4201  0.2640 -0.0308
  689MOL0     N92897  10.636   8.259   4.723 -0.2568  0.6401 -0.1297
  689MOL0     C92898  10.682   8.162   4.815 -0.2013  0.1579 -0.1064
  689MOL0     C92899  10.816   8.184   4.818 -0.2464 -0.9140  0.0670
  689MOL0     C92900  10.920   8.098   4.900  0.8706 -0.0152 -0.0409
  689MOL0     C92901  11.061   8.131   4.859 -0.6223 -0.4616 -0.4635
  689MOL0     C92902  11.177   8.057   4.926 -0.2837 -0.8712  0.0399
  689MOL0     C92903  11.313   8.087   4.869  0.2349 -0.6211  0.1055
  689MOL0     O92904  11.362   8.219   4.892  0.3007  0.4232  0.8059
  689MOL0     C92905  11.488   8.261   4.846  0.4867 -0.1419  0.7429
  689MOL0     C92906  11.574   8.181   4.774  1.1871  0.2788 -0.7039
  689MOL0     C92907  11.694   8.225   4.738 -0.1364 -0.0159 -0.5021
  689MOL0     C92908  11.742   8.352   4.777  0.1631 -0.9545 -0.1730
  689MOL0     C92909  11.866   8.418   4.723  0.3204 -0.0834  0.4349
  689MOL0     O92910  11.909   8.537   4.774  0.2960 -0.8040  0.0695
  689MOL0     C92911  12.033   8.603   4.736 -0.5943  0.4590 -1.0121
  689MOL0     C92912  12.083   8.700   4.825 -0.0291 -0.2254 -0.2890
  689MOL0     C92913  12.186   8.781   4.789 -0.4377 -0.0454 -0.3529
  689MOL0     C92914  12.261   8.768   4.672 -0.5950 -0.6954  0.2399
  689MOL0     O92915  12.368   8.866   4.654 -0.4836  0.2975 -0.3204
  689MOL0     C92916  12.472   8.827   4.560  0.1930  0.1257  0.4530
  689MOL0     C92917  12.585   8.919   4.587  0.3419 -0.7650  0.4113
  689MOL0     C92918  12.714   8.862   4.525 -0.1053  0.1443  0.2095
  689MOL0     C92919  12.826   8.950   4.576 -0.4344 -0.3545  0.2807
  689MOL0     C92920  12.949   8.910   4.490  0.4960 -0.1677 -0.1739
  689MOL0     C92921  13.074   8.988   4.527 -0.4437  0.4935  0.2637
  689MOL0     C92922  13.199   8.956   4.440  0.1041  0.2668  0.3446
  689MOL0     C92923  13.320   9.040   4.481  1.1863 -0.2178 -0.0631
  689MOL0    Cl92924  13.439   9.003   4.349  0.0895 -0.5247 -0.5135
  689MOL0     C92925  12.215   8.672   4.581  0.4129  0.2440 -0.2567
  689MOL0     C92926  12.105   8.586   4.611 -0.0148 -0.7603 -0.3840
  689MOL0     O92927  11.934   8.348   4.650 -0.8090 -0.1186  0.1303
  689MOL0     C92928  11.650   8.438   4.846 -0.1398 -0.1857 -0.3076
  689MOL0     C92929  11.525   8.389   4.886  0.4914 -0.3426  0.4726
  689MOL0     N92930  10.853   8.281   4.721 -0.6770  0.0930 -0.2527
  689MOL0     N92931  10.743   8.326   4.668 -0.1928  1.1872 -0.0059
  689MOL0     C92932   9.972   8.218   3.799 -0.5677 -0.9576 -0.9250
  689MOL0     C92933   9.845   8.232   3.742 -0.2992  0.6071  0.8530
  689MOL0     C92934   9.460   8.186   3.513  0.1618  0.3931 -0.0889
  689MOL0     C92935   9.403   8.113   3.412 -0.2448  0.3678  0.7818
  689MOL0     C92936   9.275   8.140   3.360  0.0241 -0.0430  0.8363
  689MOL0     C92937   9.204   8.245   3.415 -0.3247  0.9086  0.7074
  689MOL0     O92938   9.085   8.261   3.354  0.2981  0.8107  0.1376
  689MOL0     C92939   9.023   8.388   3.348 -0.2347  0.2445  0.8070
  689MOL0     C92940   8.886   8.382   3.408  0.4764  0.2868  0.3380
  689MOL0     C92941   8.805   8.511   3.426  0.2952  0.6313  0.0328
  689MOL0     C92942   8.776   8.574   3.287 -0.4409 -0.4782 -0.0709
  689MOL0     C92943   8.685   8.496   3.206 -0.4105  0.3435  0.6423
  689MOL0     C92944   8.615   8.427   3.137 -0.0305  0.5622 -0.3908
  689MOL0     C92945   9.260   8.329   3.518 -0.1864  0.2788 -0.2724
  689MOL0     C92946   9.392   8.296   3.563  0.4362 -0.6784  0.2913
  689MOL0     C92947   9.457   8.378   3.665 -0.1787  0.6245  0.1004
  689MOL0     H92948   9.722   7.920   3.750  0.2658 -0.4090 -2.4555
  689MOL0     H92949   9.956   7.883   3.845  1.2924  0.4189  0.8315
  689MOL0     H92950  10.123   7.884   3.988  0.3171  0.6948  2.9781
  689MOL0     H92951  10.228   7.911   3.851 -0.7862  1.0498 -0.7360
  689MOL0     H92952  10.375   8.067   3.987  3.2557 -1.3152  1.9300
  689MOL0     H92953  10.375   7.893   4.041 -0.3772 -0.8991 -0.5951
  689MOL0     H92954  10.250   7.972   4.239  0.6756  1.8400  2.3743
  689MOL0     H92955  10.199   8.127   4.159  0.8920  1.8434 -1.9407
  689MOL0     H92956  10.471   8.037   4.241 -0.1536 -0.3750  0.3881
  689MOL0     H92957  10.447   8.199   4.180 -1.3051  2.8009  3.2805
  689MOL0     H92958  10.276   8.251   4.354  1.1101  0.4499  0.1596
  689MOL0     H92959  10.318   8.092   4.430  4.9112 -2.4407 -0.1621
  689MOL0     H92960  10.563   8.199   4.434  0.3728  2.4586 -1.5029
  689MOL0     H92961  10.464   8.342   4.408  0.3917  0.1886 -0.6817
  689MOL0     H92962  10.430   8.124   4.619 -1.3516 -1.3448 -0.2886
  689MOL0     H92963  10.322   8.256   4.603  0.1903 -0.0003 -2.2417
  689MOL0     H92964  10.504   8.413   4.664 -1.6858  0.6772  0.9053
  689MOL0     H92965  10.441   8.311   4.795 -0.9249 -1.9621 -0.3396
  689MOL0     H92966  10.625   8.100   4.884 -0.0336  0.6387  0.4667
  689MOL0     H92967  10.907   8.122   5.006 -1.8100 -1.8356  0.1357
  689MOL0     H92968  10.898   7.991   4.891 -0.4572  0.1038  1.2983
  689MOL0     H92969  11.068   8.111   4.751  1.3382 -0.7184 -0.3233
  689MOL0     H92970  11.072   8.239   4.871 -1.1509 -0.5428  0.8610
  689MOL0     H92971  11.163   7.948   4.928 -0.4978 -0.8491 -0.1396
  689MOL0     H92972  11.186   8.086   5.031  1.2003  0.0681 -0.3143
  689MOL0     H92973  11.306   8.073   4.760 -1.8990  1.6404 -0.1223
  689MOL0     H92974  11.383   8.013   4.909  0.3369 -2.2279 -2.7695
  689MOL0     H92975  11.538   8.085   4.739  2.0031  0.1340 -1.1697
  689MOL0     H92976  11.739   8.153   4.671 -1.1857 -1.5721  0.4099
  689MOL0     H92977  12.037   8.720   4.921 -0.4514 -2.9353  0.1482
  689MOL0     H92978  12.216   8.860   4.858  0.9859  0.0281 -1.0147
  689MOL0     H92979  12.494   8.721   4.569 -1.3982 -0.1301  1.7136
  689MOL0     H92980  12.439   8.848   4.457  0.1588  1.1536  0.6602
  689MOL0     H92981  12.560   9.017   4.545 -1.0489 -1.6426 -0.8694
  689MOL0     H92982  12.593   8.925   4.696  2.3765  0.0071  0.2631
  689MOL0     H92983  12.731   8.764   4.570  1.9473 -0.0837 -0.9522
  689MOL0     H92984  12.701   8.852   4.417 -4.4342 -1.8086  0.7002
  689MOL0     H92985  12.831   8.925   4.682 -0.4422  1.7127  0.8149
  689MOL0     H92986  12.815   9.059   4.564  0.5261  0.0391  2.4568
  689MOL0     H92987  12.929   8.921   4.384  0.7071 -0.7785 -0.2843
  689MOL0     H92988  12.966   8.805   4.519  0.1191  0.2243  1.6219
  689MOL0     H92989  13.047   9.094   4.526 -0.0096  0.6086 -0.9416
  689MOL0     H92990  13.102   8.953   4.626 -0.2351 -3.4457 -1.0344
  689MOL0     H92991  13.159   8.988   4.343  0.8849  0.1210 -0.0431
  689MOL0     H92992  13.237   8.854   4.449  0.4290  0.5605  3.3813
  689MOL0     H92993  13.300   9.148   4.479  0.6043 -0.3229 -0.0037
  689MOL0     H92994  13.341   8.999   4.580 -0.6710 -0.8753  0.0909
  689MOL0     H92995  12.268   8.660   4.487 -1.9754  0.4727 -1.7149
  689MOL0     H92996  12.077   8.511   4.538  2.9462 -2.1787 -0.1973
  689MOL0     H92997  11.666   8.541   4.874 -2.0050 -0.2025  1.0069
  689MOL0     H92998  11.451   8.454   4.931 -1.3252 -1.5914 -0.6097
  689MOL0     H92999  10.024   8.310   3.821 -0.9969 -0.9363  0.0338
  689MOL0     H93000   9.802   8.329   3.719  0.5647  1.1312  1.3593
  689MOL0     H93001   9.463   8.030   3.374  0.5706  0.2335  2.2540
  689MOL0     H93002   9.225   8.076   3.288  0.2244 -0.1995  0.8365
  689MOL0     H93003   9.008   8.417   3.244 -0.3016 -0.5625  0.5856
  689MOL0     H93004   9.089   8.459   3.399  2.1157 -1.2973  0.0936
  689MOL0     H93005   8.894   8.356   3.514 -2.3086 -0.7963  0.3695
  689MOL0     H93006   8.822   8.308   3.360  0.9871 -0.2900  0.5344
  689MOL0     H93007   8.865   8.576   3.490  0.1396 -1.8733  2.9707
  689MOL0     H93008   8.720   8.499   3.494  0.3658 -0.7452 -0.0806
  689MOL0     H93009   8.727   8.670   3.310 -1.7299 -1.0693 -0.2562
  689MOL0     H93010   8.870   8.592   3.235 -1.5442 -1.4761 -2.5642
  689MOL0     H93011   8.550   8.369   3.075  0.9638 -2.3826  1.1115
  689MOL0     H93012   9.212   8.415   3.562  3.8452  1.3094  2.6814
  689MOL0     H93013   9.559   8.407   3.637 -1.1985  2.9935 -1.4870
  689MOL0     H93014   9.410   8.473   3.689 -1.0759  0.2873 -0.2790
  689MOL0     H93015   9.462   8.318   3.757  0.5205 -1.8019 -1.4189
  690MOL0     O93016   5.710   8.318   4.408  0.4367  0.1127 -0.5214
  690MOL0     C93017   5.793   8.285   4.489  0.1177 -0.5284  0.3421
  690MOL0     O93018   5.761   8.228   4.603 -0.1174 -0.3778 -0.4029
  690MOL0     C93019   5.630   8.196   4.634 -0.1769  0.6271  0.2685
  690MOL0     C93020   5.578   8.060   4.634  0.7697  0.2709  0.7013
  690MOL0     C93021   5.444   8.032   4.658  0.4603  0.4204 -0.2217
  690MOL0     C93022   5.362   8.141   4.672  0.8100 -0.2277  1.0634
  690MOL0     O93023   5.225   8.115   4.687 -0.1266 -0.1393  0.5787
  690MOL0     C93024   5.162   8.012   4.610 -0.3061 -0.4338 -0.2653
  690MOL0     C93025   5.013   8.028   4.590  0.0933 -0.3638  0.0617
  690MOL0     C93026   4.949   8.063   4.722 -0.2906  0.6926 -0.1526
  690MOL0     C93027   4.799   8.073   4.725 -0.2371  0.7996 -0.4016
  690MOL0     C93028   4.719   7.953   4.676  0.0235 -0.0162 -0.4651
  690MOL0     C93029   4.575   7.979   4.694 -0.4644 -0.1363  0.0544
  690MOL0     C93030   4.489   7.855   4.661 -0.0283  0.5880  0.5765
  690MOL0     C93031   4.390   7.813   4.777 -0.5101 -0.6315 -0.1975
  690MOL0     N93032   4.269   7.900   4.763  0.4526 -0.0388 -0.5222
  690MOL0     C93033   4.158   7.865   4.690  0.2258 -0.1170 -0.1245
  690MOL0     C93034   4.071   7.973   4.700  0.6508  1.4420 -0.5876
  690MOL0     C93035   3.937   7.987   4.637 -0.1462 -0.2535  0.3647
  690MOL0     C93036   3.863   7.858   4.631 -0.0905 -0.1955 -0.3505
  690MOL0     C93037   3.717   7.887   4.589  0.1251  1.1086  0.2832
  690MOL0     C93038   3.629   7.779   4.653  0.7745 -0.0300 -0.4627
  690MOL0     O93039   3.492   7.799   4.628  0.1849 -0.7615  0.5257
  690MOL0     C93040   3.404   7.700   4.648 -0.0647  0.2741  0.1354
  690MOL0     C93041   3.300   7.729   4.736  0.5775 -0.2809  0.0097
  690MOL0     C93042   3.188   7.643   4.743 -0.1295  0.5585  0.2127
  690MOL0     C93043   3.177   7.531   4.662 -0.3232  0.7441  0.2962
  690MOL0     C93044   3.072   7.429   4.686  0.3177  0.8847 -0.0664
  690MOL0     O93045   2.980   7.445   4.787 -0.0802 -0.0725  0.5991
  690MOL0     C93046   2.880   7.357   4.826 -0.3688 -0.1853  0.1702
  690MOL0     C93047   2.788   7.284   4.729  0.1910 -0.9375 -1.0747
  690MOL0     C93048   2.682   7.212   4.785  0.6058  0.1095 -0.1081
  690MOL0     C93049   2.663   7.207   4.926  0.1753  0.1632  0.0669
  690MOL0     O93050   2.564   7.128   4.959  0.4095 -0.2582  0.1850
  690MOL0     C93051   2.562   7.064   5.085 -0.3259 -0.5116 -0.1861
  690MOL0     C93052   2.490   6.929   5.077  0.0783 -0.2160  0.7662
  690MOL0     C93053   2.347   6.943   5.023 -0.6535  0.3332  1.0751
  690MOL0     C93054   2.259   6.977   5.144 -1.1639 -0.6332  0.1085
  690MOL0     C93055   2.135   7.045   5.094  0.3396  0.2225 -0.5815
  690MOL0     C93056   2.038   7.066   5.206 -0.0370  0.2377 -0.2844
  690MOL0     C93057   1.902   7.126   5.168  0.0882  0.1773  1.1257
  690MOL0     C93058   1.797   7.128   5.285  0.1685  0.5845 -0.0795
  690MOL0    Cl93059   1.647   7.184   5.212  0.4472 -0.2889  0.1396
  690MOL0     C93060   2.753   7.272   5.010 -0.5287 -0.3833 -0.3453
  690MOL0     C93061   2.855   7.347   4.966  0.0085 -1.0414 -0.2217
  690MOL0     O93062   3.066   7.340   4.606 -0.7527  0.1180 -0.2310
  690MOL0     C93063   3.285   7.512   4.568 -1.1179  0.9971  0.1261
  690MOL0     C93064   3.396   7.591   4.559 -0.0570  0.0280  0.3886
  690MOL0     N93065   4.131   8.063   4.785  0.4101  0.7891  0.3290
  690MOL0     N93066   4.239   8.011   4.832  0.2990  0.8648 -0.0309
  690MOL0     C93067   5.400   8.274   4.672 -0.1763  0.2251  0.1683
  690MOL0     C93068   5.538   8.302   4.663 -0.0191  0.8430  0.9929
  690MOL0     C93069   5.928   8.311   4.460 -0.5499 -0.0223 -0.8721
  690MOL0     C93070   6.018   8.303   4.567 -0.4584  0.0435  0.4295
  690MOL0     C93071   6.159   8.309   4.549 -0.0496  0.0122  0.7891
  690MOL0     C93072   6.215   8.340   4.424  0.9963  0.7121 -0.4300
  690MOL0     O93073   6.348   8.340   4.432 -0.1773 -0.3323  0.1533
  690MOL0     C93074   6.400   8.351   4.293 -0.2896 -0.5010 -1.0396
  690MOL0     C93075   6.558   8.337   4.300  0.5532 -0.4411 -0.7518
  690MOL0     C93076   6.621   8.447   4.383  0.7966 -0.9606  0.1470
  690MOL0     C93077   6.746   8.398   4.453 -0.2105  0.1237 -0.2802
  690MOL0     C93078   6.832   8.506   4.491  0.2396  0.0057 -0.3645
  690MOL0     C93079   6.901   8.602   4.517 -0.1695 -0.1158  0.2981
  690MOL0     C93080   6.129   8.357   4.315 -0.7559 -0.1990  0.5990
  690MOL0     C93081   5.989   8.352   4.340  0.5103  1.1936  0.7916
  690MOL0     C93082   5.902   8.392   4.225  0.2455 -0.0447  0.6417
  690MOL0     H93083   5.645   7.974   4.627  0.2249 -0.0444 -1.2096
  690MOL0     H93084   5.410   7.929   4.651  1.7219  0.0845 -2.5315
  690MOL0     H93085   5.206   8.018   4.510 -3.1523 -0.5253 -1.6389
  690MOL0     H93086   5.189   7.915   4.654  0.5954  0.7325  1.8721
  690MOL0     H93087   4.972   7.933   4.554  2.5734 -1.2121 -0.6980
  690MOL0     H93088   4.995   8.112   4.522  1.8507  0.1144  0.1357
  690MOL0     H93089   4.986   8.159   4.757  0.9743 -0.0244  0.5450
  690MOL0     H93090   4.977   7.991   4.800  4.3655 -0.1718 -2.2390
  690MOL0     H93091   4.774   8.092   4.830  0.4991 -2.8003  0.5731
  690MOL0     H93092   4.770   8.162   4.668 -0.5568  1.4037  0.6860
  690MOL0     H93093   4.743   7.918   4.575  4.5630 -1.4463  0.8496
  690MOL0     H93094   4.752   7.865   4.733 -0.4523 -0.1339 -0.3646
  690MOL0     H93095   4.557   8.012   4.797  2.1801 -1.8395  1.1569
  690MOL0     H93096   4.553   8.062   4.626  2.5802  1.2436  0.5897
  690MOL0     H93097   4.555   7.774   4.630 -1.1113 -0.0535 -0.0989
  690MOL0     H93098   4.425   7.875   4.574  2.0651  0.9763 -0.9317
  690MOL0     H93099   4.357   7.710   4.764  1.5839 -1.4802  0.8220
  690MOL0     H93100   4.436   7.832   4.874  3.2914 -1.1857 -1.7024
  690MOL0     H93101   4.151   7.777   4.627 -0.2373  0.1643 -0.4674
  690MOL0     H93102   3.871   8.059   4.687 -4.5523 -2.4383 -1.7143
  690MOL0     H93103   3.955   8.037   4.541 -0.9225  0.4228  0.5629
  690MOL0     H93104   3.918   7.793   4.562  1.3094 -0.5159  0.9996
  690MOL0     H93105   3.862   7.802   4.725 -0.7683 -0.4939 -0.5298
  690MOL0     H93106   3.702   7.893   4.480 -1.2561  1.9546  0.4918
  690MOL0     H93107   3.683   7.977   4.641 -2.5699 -1.1466  2.8298
  690MOL0     H93108   3.637   7.772   4.762  2.6045  0.3529 -0.5408
  690MOL0     H93109   3.656   7.679   4.618  1.4957  0.6371 -1.9135
  690MOL0     H93110   3.312   7.816   4.801  0.2371  1.0074 -1.5739
  690MOL0     H93111   3.113   7.662   4.819 -0.4858  0.0633 -0.0075
  690MOL0     H93112   2.790   7.286   4.621 -1.6101  1.3016 -1.1529
  690MOL0     H93113   2.612   7.163   4.719 -0.3065 -1.0153  1.6231
  690MOL0     H93114   2.667   7.044   5.110 -0.1133 -0.2318 -0.8303
  690MOL0     H93115   2.519   7.129   5.162  1.4054  1.4592 -0.7776
  690MOL0     H93116   2.547   6.873   5.002 -1.8178 -2.8120  1.0980
  690MOL0     H93117   2.489   6.875   5.172  0.2521  0.1875  0.9983
  690MOL0     H93118   2.336   7.009   4.936  1.1256 -2.5509 -1.5802
  690MOL0     H93119   2.312   6.842   5.000 -2.6762  0.4696  3.1940
  690MOL0     H93120   2.321   7.041   5.207  0.6375 -1.9347 -0.2574
  690MOL0     H93121   2.234   6.895   5.211 -0.8411  1.7275  3.3754
  690MOL0     H93122   2.091   6.992   5.010 -1.0022  2.0535 -1.0833
  690MOL0     H93123   2.163   7.139   5.046 -2.9558  1.6170 -0.0249
  690MOL0     H93124   2.020   6.977   5.268 -1.1055 -0.2964 -1.3296
  690MOL0     H93125   2.092   7.128   5.278 -0.2731 -1.3265  1.3144
  690MOL0     H93126   1.868   7.065   5.084 -0.0931 -2.9991  3.3203
  690MOL0     H93127   1.908   7.223   5.119  1.7118 -0.8995 -0.9689
  690MOL0     H93128   1.781   7.028   5.327 -1.5928  1.2212  0.8705
  690MOL0     H93129   1.821   7.199   5.364  0.1482  0.3213  0.1657
  690MOL0     H93130   2.745   7.269   5.118  1.8560  0.9529 -0.0507
  690MOL0     H93131   2.910   7.406   5.038 -1.9335  2.3132 -1.2434
  690MOL0     H93132   3.289   7.429   4.498 -1.5768  0.8918  0.2215
  690MOL0     H93133   3.478   7.570   4.492  1.4791  0.1023  2.1501
  690MOL0     H93134   5.324   8.351   4.662 -0.4069  0.1209  1.0605
  690MOL0     H93135   5.588   8.397   4.647  0.8615  0.3282  0.5527
  690MOL0     H93136   5.987   8.276   4.668 -1.5286  1.1114  0.4134
  690MOL0     H93137   6.227   8.283   4.630  0.2485  3.1921  1.7048
  690MOL0     H93138   6.368   8.448   4.256 -1.7076  0.6865  2.7863
  690MOL0     H93139   6.361   8.275   4.224 -1.6003 -0.6795 -0.1624
  690MOL0     H93140   6.589   8.349   4.196 -1.1822  3.0762 -1.0340
  690MOL0     H93141   6.573   8.240   4.346 -1.4316 -2.2079 -3.5168
  690MOL0     H93142   6.554   8.495   4.455  0.8809 -1.5144  0.6011
  690MOL0     H93143   6.649   8.523   4.309 -0.0518 -1.0523 -0.2745
  690MOL0     H93144   6.712   8.343   4.541 -2.2244 -0.7523 -1.5343
  690MOL0     H93145   6.809   8.345   4.382 -1.2389  0.8113 -1.7766
  690MOL0     H93146   6.969   8.683   4.532  1.4698 -1.3085 -0.4178
  690MOL0     H93147   6.174   8.377   4.219 -1.3289 -1.1665  0.1135
  690MOL0     H93148   5.822   8.464   4.246 -0.3951 -0.3826 -0.5429
  690MOL0     H93149   5.956   8.449   4.148  1.8080 -1.3675  0.6928
  690MOL0     H93150   5.840   8.311   4.186 -0.2144  1.1878 -1.3336
  691MOL0     O93151   7.247   5.229   5.836 -0.1797  0.5599  0.8416
  691MOL0     C93152   7.226   5.112   5.797  0.2227  0.2291 -0.2953
  691MOL0     O93153   7.317   5.044   5.712  0.8988 -0.2782  0.0998
  691MOL0     C93154   7.434   5.110   5.679  0.5397  0.7594 -0.6833
  691MOL0     C93155   7.526   5.145   5.779  0.4109  0.3446  0.6043
  691MOL0     C93156   7.657   5.200   5.740  0.4156  0.5691 -0.2568
  691MOL0     C93157   7.674   5.226   5.604  0.5833  0.1512  0.5581
  691MOL0     O93158   7.786   5.283   5.547 -0.4423  0.6001  0.0036
  691MOL0     C93159   7.889   5.306   5.648  0.4236 -1.0412 -0.8644
  691MOL0     C93160   8.012   5.369   5.573  0.4149 -0.4181  0.2554
  691MOL0     C93161   8.138   5.347   5.649  0.2191 -0.0722  0.5912
  691MOL0     C93162   8.255   5.369   5.559  0.8364 -0.3408 -0.2145
  691MOL0     C93163   8.389   5.397   5.638 -0.5818 -0.8811  0.1579
  691MOL0     C93164   8.442   5.262   5.679  0.3736  0.0402  0.0940
  691MOL0     C93165   8.572   5.284   5.746  0.2790 -0.2006 -0.5425
  691MOL0     C93166   8.644   5.156   5.785  0.5513  0.5763  0.3642
  691MOL0     N93167   8.780   5.174   5.846 -0.1179 -0.9644  0.1029
  691MOL0     C93168   8.840   5.297   5.872 -0.2315 -0.4314  0.7744
  691MOL0     C93169   8.951   5.261   5.946  0.2051 -0.3239  0.1071
  691MOL0     C93170   9.053   5.361   5.992  0.0400 -0.5412  0.6479
  691MOL0     C93171   9.147   5.401   5.882  0.3279 -0.3827  0.4644
  691MOL0     C93172   9.242   5.298   5.837  0.3297  0.5537  0.3666
  691MOL0     C93173   9.330   5.334   5.714 -0.4823 -0.3982  0.5635
  691MOL0     O93174   9.392   5.216   5.673  0.1728  0.0889 -0.1448
  691MOL0     C93175   9.526   5.230   5.656  0.0545  0.3184 -0.5077
  691MOL0     C93176   9.592   5.258   5.541  0.1101  0.0672 -0.7119
  691MOL0     C93177   9.733   5.272   5.532 -0.1732  0.3852  0.2609
  691MOL0     C93178   9.818   5.228   5.636  0.0267  0.1145  0.7645
  691MOL0     C93179   9.965   5.211   5.622 -0.4249 -0.1539 -0.0399
  691MOL0     O93180  10.010   5.279   5.521 -0.1835 -0.3435 -0.0704
  691MOL0     C93181  10.140   5.293   5.503 -0.4243  0.7003 -0.3519
  691MOL0     C93182  10.236   5.194   5.493 -0.1501 -0.0651  0.2957
  691MOL0     C93183  10.371   5.218   5.495  0.4673 -0.1056  0.3255
  691MOL0     C93184  10.415   5.354   5.518 -0.1203 -0.6721 -0.3543
  691MOL0     O93185  10.551   5.378   5.498  1.0038  0.2777  0.0793
  691MOL0     C93186  10.613   5.494   5.541 -0.3137  0.3406 -0.6036
  691MOL0     C93187  10.764   5.478   5.519 -0.2413 -0.3694 -0.5188
  691MOL0     C93188  10.830   5.370   5.613  0.0976  0.5537 -0.3771
  691MOL0     C93189  10.976   5.389   5.611 -0.2713  0.4851 -0.0990
  691MOL0     C93190  11.056   5.297   5.709 -0.3609 -0.2395 -0.2684
  691MOL0     C93191  11.206   5.300   5.696 -0.7465  0.8475 -0.1060
  691MOL0     C93192  11.261   5.173   5.769 -0.2855  0.6784  0.4009
  691MOL0     C93193  11.410   5.179   5.765  0.2779 -0.4442 -0.7920
  691MOL0    Cl93194  11.468   5.318   5.868  0.2238 -0.6193 -0.0521
  691MOL0     C93195  10.314   5.453   5.538  0.2239 -0.5184  0.4585
  691MOL0     C93196  10.181   5.421   5.529 -0.4351  0.2827  0.7147
  691MOL0     O93197  10.032   5.155   5.713  0.1079 -0.0462  0.0731
  691MOL0     C93198   9.755   5.199   5.755 -0.4658  0.5881 -0.8402
  691MOL0     C93199   9.613   5.205   5.761  0.2997 -0.6970 -0.7664
  691MOL0     N93200   8.947   5.128   5.979 -0.4569 -0.4938 -0.0364
  691MOL0     N93201   8.850   5.075   5.907  0.6184 -0.8633  0.0220
  691MOL0     C93202   7.572   5.205   5.515 -0.2607 -0.1064  0.3882
  691MOL0     C93203   7.452   5.146   5.548 -0.6449  0.8538  0.6317
  691MOL0     C93204   7.113   5.034   5.857  0.4334 -0.0293 -0.1988
  691MOL0     C93205   7.010   5.108   5.919  0.4902 -0.1122 -0.8789
  691MOL0     C93206   6.905   5.046   5.986 -0.7462 -0.0678  0.4253
  691MOL0     C93207   6.900   4.910   6.006  0.2629 -0.3287 -0.3040
  691MOL0     O93208   6.801   4.850   6.086 -0.1843  0.2361  0.5090
  691MOL0     C93209   6.701   4.786   6.007 -0.6698  0.1298  0.0791
  691MOL0     C93210   6.588   4.885   5.976  0.1324 -0.3192 -0.4201
  691MOL0     C93211   6.462   4.819   5.932 -0.6575 -0.2469 -0.4830
  691MOL0     C93212   6.350   4.912   5.939  0.0587 -0.0840 -0.3572
  691MOL0     C93213   6.248   4.862   5.853 -0.7828  0.1977 -0.5928
  691MOL0     C93214   6.185   4.838   5.753 -0.2778 -0.0506  0.9526
  691MOL0     C93215   6.997   4.837   5.948 -0.0864 -0.0674 -0.7410
  691MOL0     C93216   7.096   4.898   5.874 -0.6262 -0.1739  0.7102
  691MOL0     C93217   7.195   4.801   5.822 -0.8233  0.1673 -0.9270
  691MOL0     H93218   7.482   5.137   5.878 -0.6686 -0.9030  0.0606
  691MOL0     H93219   7.727   5.219   5.821  1.5365  1.9682 -1.4820
  691MOL0     H93220   7.859   5.383   5.720  2.1879 -1.2146  0.1050
  691MOL0     H93221   7.910   5.212   5.700  2.5369  0.7732  1.8441
  691MOL0     H93222   8.001   5.478   5.569  0.5517 -0.4365 -0.9096
  691MOL0     H93223   8.018   5.335   5.469 -3.5626  1.5521 -0.8404
  691MOL0     H93224   8.145   5.249   5.697 -0.7738 -2.2467 -3.2992
  691MOL0     H93225   8.135   5.419   5.731 -2.6014 -0.0275  0.5625
  691MOL0     H93226   8.279   5.286   5.490  1.4070  0.0502 -0.4943
  691MOL0     H93227   8.225   5.441   5.482 -1.0819 -0.0112  0.7772
  691MOL0     H93228   8.457   5.448   5.568  0.3307 -0.6935  1.1627
  691MOL0     H93229   8.370   5.457   5.727  0.3980  0.8789 -0.7609
  691MOL0     H93230   8.365   5.222   5.747  0.9004 -0.2792  0.5073
  691MOL0     H93231   8.446   5.186   5.600 -0.7101 -1.2420  1.2113
  691MOL0     H93232   8.557   5.350   5.832  0.5371 -1.0084  0.1458
  691MOL0     H93233   8.635   5.346   5.681  0.4424  2.9301  2.3273
  691MOL0     H93234   8.581   5.088   5.843  0.4606 -0.4412 -0.8715
  691MOL0     H93235   8.658   5.088   5.699 -0.8143 -0.3485  0.8356
  691MOL0     H93236   8.818   5.401   5.851  0.4257 -0.2638  0.8840
  691MOL0     H93237   9.001   5.454   6.014 -0.9648 -0.8509 -0.3261
  691MOL0     H93238   9.115   5.328   6.076  0.7995  1.3060  0.8462
  691MOL0     H93239   9.081   5.437   5.802 -0.1177 -2.7042 -0.2947
  691MOL0     H93240   9.205   5.485   5.920  0.4412  0.5011 -1.5328
  691MOL0     H93241   9.174   5.217   5.810  0.3713  0.3375  0.8980
  691MOL0     H93242   9.304   5.277   5.925 -0.5772  3.4450  1.8456
  691MOL0     H93243   9.397   5.415   5.745 -1.8091  1.6614 -1.6110
  691MOL0     H93244   9.266   5.375   5.636 -0.7045  2.2492  2.0218
  691MOL0     H93245   9.529   5.269   5.453  0.5422 -1.7974 -1.3068
  691MOL0     H93246   9.780   5.312   5.443 -0.4341 -3.1106 -1.6270
  691MOL0     H93247  10.193   5.098   5.467 -0.1843  0.1126 -0.3049
  691MOL0     H93248  10.443   5.141   5.470 -0.8308 -1.6867  1.2200
  691MOL0     H93249  10.573   5.570   5.473  0.8693 -0.2169 -1.9770
  691MOL0     H93250  10.586   5.509   5.645 -0.4909 -0.0053 -0.5970
  691MOL0     H93251  10.785   5.458   5.413  1.2832 -0.2331 -0.2594
  691MOL0     H93252  10.799   5.579   5.543 -1.0362 -0.7765  2.7447
  691MOL0     H93253  10.788   5.383   5.714 -0.9542 -3.5553 -0.1154
  691MOL0     H93254  10.806   5.268   5.581  2.0850  0.4452 -1.6981
  691MOL0     H93255  11.002   5.492   5.637  1.8409 -0.4231  1.6826
  691MOL0     H93256  11.015   5.372   5.510  0.1509  1.7875 -0.1780
  691MOL0     H93257  11.023   5.197   5.681 -0.5667 -0.3427  0.3204
  691MOL0     H93258  11.024   5.322   5.811 -2.5645 -1.0282 -0.7099
  691MOL0     H93259  11.236   5.307   5.591  0.7300 -0.7337  0.1689
  691MOL0     H93260  11.246   5.382   5.756 -1.9996  0.3173  1.5183
  691MOL0     H93261  11.241   5.086   5.705 -1.7555  0.2832  1.3557
  691MOL0     H93262  11.221   5.166   5.870 -2.1232 -1.3328 -0.3919
  691MOL0     H93263  11.454   5.083   5.796 -0.4097 -1.1192 -1.8609
  691MOL0     H93264  11.446   5.203   5.665 -0.0891 -2.5427 -1.4872
  691MOL0     H93265  10.360   5.547   5.570 -0.5977 -0.2312  0.8128
  691MOL0     H93266  10.113   5.496   5.568 -1.1889 -0.1575  0.2746
  691MOL0     H93267   9.812   5.169   5.842 -1.6197  1.8145  0.4002
  691MOL0     H93268   9.572   5.194   5.861  1.3770  1.2727 -0.0480
  691MOL0     H93269   7.588   5.241   5.414  1.4040  0.2458  0.7459
  691MOL0     H93270   7.386   5.112   5.469  1.0076 -1.7251  0.2323
  691MOL0     H93271   7.011   5.216   5.934  1.8674 -0.3308  0.8765
  691MOL0     H93272   6.836   5.122   6.023  1.6288  2.3766  0.1882
  691MOL0     H93273   6.664   4.701   6.065  0.9775  0.4001  1.6192
  691MOL0     H93274   6.737   4.747   5.911 -4.1857 -1.9214 -0.5651
  691MOL0     H93275   6.624   4.949   5.895  1.1542 -0.6576 -0.2424
  691MOL0     H93276   6.576   4.954   6.060  0.0507  0.7032 -1.2315
  691MOL0     H93277   6.447   4.736   6.002  2.0692 -0.6990 -0.3350
  691MOL0     H93278   6.483   4.784   5.831 -2.5285 -1.1620 -0.5973
  691MOL0     H93279   6.301   4.931   6.035  2.5703  0.7754  0.8355
  691MOL0     H93280   6.385   5.007   5.899  4.0957 -0.3943  1.8716
  691MOL0     H93281   6.128   4.824   5.664 -3.4122  0.9951  2.6297
  691MOL0     H93282   6.998   4.729   5.958  0.4718  0.1077  1.7497
  691MOL0     H93283   7.205   4.811   5.714  0.9635  1.9332 -0.6572
  691MOL0     H93284   7.299   4.806   5.856 -1.1124  2.3779 -0.2128
  691MOL0     H93285   7.159   4.699   5.841 -1.5220  0.7922  1.4882
  692MOL0     O93286   1.980   7.899   8.422  0.4037  0.5909 -0.8701
  692MOL0     C93287   1.913   7.811   8.362  0.2405  0.3037 -0.7765
  692MOL0     O93288   1.963   7.686   8.311 -0.0955  0.8775  0.5406
  692MOL0     C93289   2.087   7.631   8.348  0.3091 -0.1092  0.2214
  692MOL0     C93290   2.097   7.496   8.350 -0.4226  1.2120  0.0515
  692MOL0     C93291   2.216   7.436   8.389 -0.2034 -0.2049 -0.1119
  692MOL0     C93292   2.330   7.505   8.428  0.4590  0.1545  0.0554
  692MOL0     O93293   2.457   7.450   8.461  0.1634  0.8985 -0.1632
  692MOL0     C93294   2.463   7.303   8.447 -0.9790  0.3992 -0.2582
  692MOL0     C93295   2.611   7.254   8.458 -0.0197 -0.3206 -0.7766
  692MOL0     C93296   2.711   7.304   8.347  0.1063 -0.4624 -0.2003
  692MOL0     C93297   2.838   7.216   8.345 -0.2526 -0.8105  0.0083
  692MOL0     C93298   2.946   7.260   8.236 -0.4492 -1.1754 -0.3620
  692MOL0     C93299   3.062   7.176   8.207 -0.9847 -0.1486  1.3042
  692MOL0     C93300   3.162   7.206   8.311 -0.1353 -0.2367 -0.0182
  692MOL0     C93301   3.281   7.112   8.305  0.9537  0.6442  0.6310
  692MOL0     N93302   3.403   7.172   8.354 -0.6265 -0.6788 -0.2747
  692MOL0     C93303   3.447   7.179   8.481  0.1622 -0.3231  0.2576
  692MOL0     C93304   3.556   7.264   8.479 -0.2196 -0.4421  0.1661
  692MOL0     C93305   3.644   7.312   8.598  0.4903  0.1741  0.3892
  692MOL0     C93306   3.723   7.194   8.645  0.0436 -0.1175  0.2352
  692MOL0     C93307   3.817   7.126   8.547  0.2618  0.2671  0.5085
  692MOL0     C93308   3.909   7.210   8.471 -0.1892  0.0795  0.0212
  692MOL0     O93309   4.007   7.274   8.558  0.1532  0.5433 -0.0206
  692MOL0     C93310   4.121   7.321   8.505  0.0125 -0.3409  0.2294
  692MOL0     C93311   4.151   7.342   8.369 -0.7932 -0.9649 -1.1796
  692MOL0     C93312   4.273   7.403   8.323 -0.1105  0.6316 -0.1545
  692MOL0     C93313   4.365   7.432   8.423  0.5603  0.0093  0.0989
  692MOL0     C93314   4.496   7.483   8.386 -0.6688 -0.1156 -0.2277
  692MOL0     O93315   4.513   7.537   8.259  0.3895  0.8222  0.6533
  692MOL0     C93316   4.637   7.545   8.210 -0.7007 -0.8757  0.5539
  692MOL0     C93317   4.732   7.432   8.201  0.3126  0.3571 -0.5305
  692MOL0     C93318   4.851   7.430   8.124  0.5566 -0.0543 -1.1050
  692MOL0     C93319   4.880   7.546   8.058 -0.8739  1.0277 -0.7516
  692MOL0     O93320   4.987   7.528   7.980 -0.1521  0.1494  0.1480
  692MOL0     C93321   5.050   7.641   7.927  0.6911 -0.0953 -1.2124
  692MOL0     C93322   5.191   7.610   7.881  0.7287  0.1056  0.1968
  692MOL0     C93323   5.216   7.646   7.730  0.0091  0.2853  0.5939
  692MOL0     C93324   5.343   7.580   7.675 -0.4620  0.7010 -0.3475
  692MOL0     C93325   5.392   7.642   7.542  0.5169  0.4440  1.0986
  692MOL0     C93326   5.505   7.561   7.485  0.2571 -0.8604 -0.1668
  692MOL0     C93327   5.550   7.622   7.355  0.3497  0.2714 -0.0809
  692MOL0     C93328   5.622   7.517   7.259  0.8477  0.1853 -0.4767
  692MOL0    Cl93329   5.692   7.608   7.115  0.5930 -0.1422 -0.4444
  692MOL0     C93330   4.800   7.666   8.068  0.1081 -0.5495 -1.1027
  692MOL0     C93331   4.678   7.663   8.142 -0.1228  0.1068  0.1281
  692MOL0     O93332   4.590   7.479   8.465 -0.2135  0.1249 -0.2174
  692MOL0     C93333   4.328   7.421   8.561  0.2454 -0.0656  0.1738
  692MOL0     C93334   4.206   7.366   8.604  0.0811 -0.9246  0.0016
  692MOL0     N93335   3.569   7.304   8.350  0.1915  0.4050 -0.3745
  692MOL0     N93336   3.479   7.250   8.281 -0.6877  0.3807  0.1728
  692MOL0     C93337   2.309   7.648   8.432 -0.2394 -0.4016  0.2458
  692MOL0     C93338   2.190   7.703   8.382 -0.1064  0.1472 -0.3031
  692MOL0     C93339   1.776   7.843   8.315 -0.1625  0.2914  0.3801
  692MOL0     C93340   1.751   7.968   8.273  0.7515  0.0111 -0.3416
  692MOL0     C93341   1.628   8.013   8.228  0.1841 -0.8248  0.1596
  692MOL0     C93342   1.520   7.922   8.241  0.2000  0.4004 -0.0543
  692MOL0     O93343   1.388   7.955   8.214 -0.2805  0.4003  0.5016
  692MOL0     C93344   1.355   8.074   8.139 -1.0257 -1.0754 -0.3540
  692MOL0     C93345   1.206   8.087   8.139  0.9212  1.1492 -0.5006
  692MOL0     C93346   1.164   8.208   8.048  0.3680  0.0197 -1.0647
  692MOL0     C93347   1.015   8.233   8.041  0.0870 -0.2310 -0.2809
  692MOL0     C93348   0.955   8.282   8.164 -0.4309 -0.3969  0.2028
  692MOL0     C93349   0.908   8.328   8.263 -0.1383 -0.1589 -0.0724
  692MOL0     C93350   1.549   7.788   8.279 -0.8218  0.0892  0.1962
  692MOL0     C93351   1.675   7.750   8.313 -0.1710  0.1449 -0.2085
  692MOL0     C93352   1.694   7.601   8.354 -0.2609 -0.8284 -0.6749
  692MOL0     H93353   2.013   7.431   8.329  0.8891 -0.2041 -1.0456
  692MOL0     H93354   2.208   7.328   8.386  2.8165 -0.7136  3.0169
  692MOL0     H93355   2.406   7.248   8.523 -1.2806 -2.5030 -2.3994
  692MOL0     H93356   2.422   7.274   8.350  0.6388  0.9408 -1.1211
  692MOL0     H93357   2.620   7.145   8.467  1.1657 -0.3543 -2.0203
  692MOL0     H93358   2.653   7.286   8.554 -0.9195  1.3167 -0.9091
  692MOL0     H93359   2.731   7.407   8.375 -0.3110  0.2366 -2.3372
  692MOL0     H93360   2.673   7.306   8.245  1.0275 -1.5732 -0.5824
  692MOL0     H93361   2.890   7.209   8.441  1.1662  0.1673 -0.6530
  692MOL0     H93362   2.815   7.112   8.321  1.8780 -1.7190  1.5761
  692MOL0     H93363   2.884   7.260   8.146  2.5866  0.8953 -2.6465
  692MOL0     H93364   2.972   7.365   8.247  2.1720 -1.9231  1.3345
  692MOL0     H93365   3.033   7.070   8.207 -1.7202  0.0413  1.1119
  692MOL0     H93366   3.093   7.207   8.107 -0.9508  1.9293  1.9225
  692MOL0     H93367   3.118   7.192   8.410  0.8908  1.8608  0.7967
  692MOL0     H93368   3.215   7.301   8.301  1.8144 -1.4130 -2.1876
  692MOL0     H93369   3.272   7.019   8.362 -2.8317  1.8953  2.4475
  692MOL0     H93370   3.297   7.074   8.203 -5.2447 -2.7818  0.4466
  692MOL0     H93371   3.403   7.135   8.570 -1.5111  0.2817 -0.2283
  692MOL0     H93372   3.706   7.398   8.573 -1.7806  1.0667 -2.8851
  692MOL0     H93373   3.583   7.345   8.683  1.2099 -0.1793  1.0489
  692MOL0     H93374   3.783   7.219   8.733  2.1919 -0.3016 -1.0897
  692MOL0     H93375   3.645   7.121   8.666  0.5285 -0.3384  1.3699
  692MOL0     H93376   3.754   7.078   8.472  2.5399 -2.9045  0.4335
  692MOL0     H93377   3.873   7.044   8.592  0.0804 -0.9578 -1.4028
  692MOL0     H93378   3.849   7.278   8.411 -0.1096 -0.3601 -0.5639
  692MOL0     H93379   3.967   7.147   8.403 -0.5982  1.4827 -1.6808
  692MOL0     H93380   4.082   7.312   8.291 -0.2602 -2.7439 -0.9918
  692MOL0     H93381   4.303   7.424   8.221 -0.2426  0.8596 -0.1471
  692MOL0     H93382   4.703   7.341   8.253  2.0277 -1.0689 -1.9466
  692MOL0     H93383   4.905   7.341   8.093 -1.2457  0.2079 -5.6889
  692MOL0     H93384   4.975   7.699   7.872 -1.8243 -0.9150  1.0962
  692MOL0     H93385   5.070   7.710   8.010  1.1109  0.7701 -2.0086
  692MOL0     H93386   5.273   7.653   7.939  3.1743  0.9184 -3.4995
  692MOL0     H93387   5.209   7.503   7.894  1.2741  0.2730  0.8353
  692MOL0     H93388   5.130   7.620   7.668 -1.0704 -1.0119  2.5490
  692MOL0     H93389   5.238   7.754   7.729  2.1924 -0.0766 -1.9971
  692MOL0     H93390   5.322   7.474   7.655 -1.7757  1.1281 -1.3315
  692MOL0     H93391   5.424   7.595   7.747  0.6804  3.1583 -2.0200
  692MOL0     H93392   5.426   7.745   7.559 -0.9258  2.0030 -3.6526
  692MOL0     H93393   5.310   7.648   7.470 -0.8998 -4.8171  1.9156
  692MOL0     H93394   5.589   7.563   7.554  1.9078 -1.7328 -2.0631
  692MOL0     H93395   5.471   7.459   7.464 -0.4646 -0.1759 -2.7546
  692MOL0     H93396   5.623   7.701   7.374 -0.2080  1.2624 -1.8500
  692MOL0     H93397   5.461   7.662   7.304  0.9727 -0.0885 -1.4934
  692MOL0     H93398   5.702   7.471   7.317  0.1509  0.5108  0.7840
  692MOL0     H93399   5.558   7.437   7.220 -0.4540  0.2716  1.3506
  692MOL0     H93400   4.833   7.755   8.016  1.6758 -0.8911 -0.7527
  692MOL0     H93401   4.615   7.750   8.134  2.4158  2.0469 -0.2301
  692MOL0     H93402   4.391   7.448   8.645  1.9034 -1.2540 -0.6463
  692MOL0     H93403   4.180   7.346   8.708  2.6288 -1.8830  0.5127
  692MOL0     H93404   2.388   7.720   8.454 -0.9838  1.0370 -1.5327
  692MOL0     H93405   2.194   7.812   8.378 -3.0670  0.4178  1.1207
  692MOL0     H93406   1.827   8.046   8.273 -1.5620  2.4257  0.5876
  692MOL0     H93407   1.604   8.115   8.197 -1.3669 -1.5776 -1.2662
  692MOL0     H93408   1.386   8.075   8.034 -1.2685 -2.9883 -0.4927
  692MOL0     H93409   1.390   8.164   8.189 -4.2435 -0.1269  0.4341
  692MOL0     H93410   1.180   8.097   8.245 -3.1681 -2.5725 -0.8585
  692MOL0     H93411   1.159   7.993   8.110 -1.6289  1.8704  0.9460
  692MOL0     H93412   1.197   8.178   7.948  1.3957 -1.0394 -0.4389
  692MOL0     H93413   1.218   8.299   8.074 -0.4287 -0.0304  1.0143
  692MOL0     H93414   0.992   8.316   7.973  1.3024 -0.5280 -1.0922
  692MOL0     H93415   0.963   8.143   8.008 -0.5855 -0.0460  0.2610
  692MOL0     H93416   0.870   8.378   8.350 -2.1821  0.0577 -1.0315
  692MOL0     H93417   1.475   7.709   8.268  0.5944 -1.1447 -0.9426
  692MOL0     H93418   1.786   7.580   8.410  0.3159 -0.2096 -1.3629
  692MOL0     H93419   1.610   7.563   8.413 -1.2444 -1.7353 -2.5633
  692MOL0     H93420   1.703   7.541   8.262  1.7949 -3.2080  0.9356
  693MOL0     O93421   7.303   0.888   0.582 -0.1805  0.0038  0.1625
  693MOL0     C93422   7.265   0.781   0.533  0.7913 -0.9584 -0.5861
  693MOL0     O93423   7.338   0.707   0.442  0.4742  0.1878 -0.4315
  693MOL0     C93424   7.463   0.751   0.406  0.0269  0.0151 -0.1801
  693MOL0     C93425   7.489   0.802   0.273  0.2542  0.5833 -0.5833
  693MOL0     C93426   7.614   0.853   0.241  0.2934 -0.2230 -0.6034
  693MOL0     C93427   7.715   0.854   0.336 -0.2293  0.8157 -0.1519
  693MOL0     O93428   7.838   0.909   0.296  0.5840 -0.2023  0.2777
  693MOL0     C93429   7.950   0.825   0.320 -0.2493 -0.1390 -0.4434
  693MOL0     C93430   8.063   0.908   0.261  0.0441  1.3454 -0.8980
  693MOL0     C93431   8.187   0.822   0.245  0.2192  0.4872 -0.3607
  693MOL0     C93432   8.316   0.889   0.202 -0.0687 -0.1805 -0.4655
  693MOL0     C93433   8.431   0.795   0.162 -0.0386  0.2100  0.0101
  693MOL0     C93434   8.555   0.864   0.116  0.3507  0.8214  0.0963
  693MOL0     C93435   8.656   0.757   0.059  0.4622  0.0060 -0.5912
  693MOL0     C93436   8.783   0.816  -0.007 -0.9794 -0.3418 -0.1295
  693MOL0     N93437   8.872   0.880   0.089  0.6948 -0.3428  0.0395
  693MOL0     C93438   8.910   0.827   0.211 -0.2895  1.1328  0.2354
  693MOL0     C93439   8.946   0.926   0.286 -0.1037 -0.1536  0.5013
  693MOL0     C93440   8.988   0.920   0.434  1.0280  0.7421 -0.0791
  693MOL0     C93441   8.863   0.966   0.515 -1.2891 -0.7852 -0.7786
  693MOL0     C93442   8.908   0.990   0.659  0.0544 -0.3648 -0.0323
  693MOL0     C93443   8.915   0.868   0.761 -0.9344  1.0340  0.3263
  693MOL0     O93444   9.003   0.767   0.736 -0.3548  0.1263  0.4785
  693MOL0     C93445   9.138   0.777   0.755  0.5452 -0.5044 -0.1981
  693MOL0     C93446   9.216   0.669   0.720  0.2011  0.3820 -0.1578
  693MOL0     C93447   9.351   0.680   0.702  0.2368  0.3285  0.1625
  693MOL0     C93448   9.418   0.800   0.731 -1.3485 -0.7699 -0.0787
  693MOL0     C93449   9.564   0.813   0.741 -0.6980  0.1281 -0.5529
  693MOL0     O93450   9.634   0.695   0.720  0.0221 -0.0515  0.2155
  693MOL0     C93451   9.769   0.708   0.738  0.3728 -0.7676  0.8587
  693MOL0     C93452   9.856   0.792   0.653  0.1066  0.3746  0.5098
  693MOL0     C93453   9.989   0.816   0.699  0.0726  0.6339 -0.3159
  693MOL0     C93454  10.033   0.748   0.812 -0.9479  0.4668 -0.3921
  693MOL0     O93455  10.165   0.761   0.858  0.5794  0.5308  0.0164
  693MOL0     C93456  10.243   0.872   0.825  0.8083  0.3317 -0.8703
  693MOL0     C93457  10.361   0.867   0.911 -1.0364  0.2761 -0.3600
  693MOL0     C93458  10.472   0.794   0.857  0.1715  0.1269 -0.5177
  693MOL0     C93459  10.578   0.774   0.966 -0.0565 -0.6202 -0.2207
  693MOL0     C93460  10.721   0.735   0.907  0.6357  0.2133  0.7310
  693MOL0     C93461  10.836   0.738   1.007  0.1931  0.0463 -0.0444
  693MOL0     C93462  10.963   0.672   0.951  0.0434 -0.1218 -0.0709
  693MOL0     C93463  11.048   0.776   0.875 -0.3869  0.2455 -0.6843
  693MOL0    Cl93464  11.165   0.704   0.759  0.2723  0.0241 -0.0135
  693MOL0     C93465   9.957   0.658   0.879  0.1882  0.2822  0.5110
  693MOL0     C93466   9.825   0.646   0.853  0.6329 -0.2837 -0.3287
  693MOL0     O93467   9.621   0.919   0.759  1.3191  0.4945  0.3234
  693MOL0     C93468   9.346   0.922   0.763  0.2160  1.3600  0.9735
  693MOL0     C93469   9.200   0.904   0.768 -0.7360 -0.2423 -0.2840
  693MOL0     N93470   8.940   1.038   0.207  0.8159 -0.4783 -0.3057
  693MOL0     N93471   8.899   1.013   0.090  0.2904  0.1106 -0.3295
  693MOL0     C93472   7.701   0.794   0.460 -0.3042 -0.0381 -0.8970
  693MOL0     C93473   7.578   0.735   0.493  0.6134  0.9030 -0.4522
  693MOL0     C93474   7.124   0.732   0.558  0.0342 -0.0828 -0.7984
  693MOL0     C93475   7.106   0.590   0.552 -0.3894  0.7354 -0.1660
  693MOL0     C93476   6.976   0.543   0.583 -0.7121  0.0926 -0.1844
  693MOL0     C93477   6.873   0.630   0.617  0.0990 -0.0012 -0.0047
  693MOL0     O93478   6.747   0.583   0.640 -0.0871 -0.0790  0.8535
  693MOL0     C93479   6.722   0.443   0.616  0.8494 -0.3118  0.1119
  693MOL0     C93480   6.568   0.418   0.605 -0.5736 -0.6712  0.4156
  693MOL0     C93481   6.509   0.495   0.485 -0.2464  1.6997  0.3168
  693MOL0     C93482   6.358   0.497   0.491  0.4601 -0.0816 -0.6261
  693MOL0     C93483   6.306   0.592   0.588  0.5710 -0.9592  0.0239
  693MOL0     C93484   6.265   0.672   0.668  0.3512  0.7088  0.8817
  693MOL0     C93485   6.890   0.769   0.622  0.5273  0.0612 -0.2558
  693MOL0     C93486   7.014   0.819   0.588  1.9600  0.2031  0.5947
  693MOL0     C93487   7.032   0.974   0.591 -0.3699  0.3356 -0.2494
  693MOL0     H93488   7.415   0.782   0.196  0.1231 -1.4701  0.0117
  693MOL0     H93489   7.634   0.902   0.146 -0.7062  0.2523 -0.5759
  693MOL0     H93490   7.964   0.811   0.428  0.4494  2.0564 -0.2011
  693MOL0     H93491   7.937   0.730   0.268 -2.3026  1.5403 -3.2523
  693MOL0     H93492   8.080   0.999   0.320 -0.6294  1.0174 -0.1672
  693MOL0     H93493   8.033   0.948   0.164  2.1113  3.2766 -0.8371
  693MOL0     H93494   8.160   0.740   0.179 -2.3723 -0.1815  1.3602
  693MOL0     H93495   8.213   0.769   0.337  0.4828  1.7185  0.3059
  693MOL0     H93496   8.277   0.950   0.120 -0.0409  1.7051  0.8649
  693MOL0     H93497   8.355   0.958   0.277 -0.3510  1.1117 -1.4878
  693MOL0     H93498   8.465   0.724   0.238  1.5008  0.1525 -0.7098
  693MOL0     H93499   8.391   0.731   0.083 -3.6889  2.6516 -0.3793
  693MOL0     H93500   8.539   0.946   0.046 -2.9261  0.6446  0.5068
  693MOL0     H93501   8.604   0.903   0.206 -1.4964  1.5386  0.8370
  693MOL0     H93502   8.597   0.709  -0.019 -2.4706  2.8739 -0.3424
  693MOL0     H93503   8.687   0.692   0.142 -2.5827  0.3854  0.9738
  693MOL0     H93504   8.831   0.726  -0.047 -0.8207 -0.4497  0.2922
  693MOL0     H93505   8.761   0.886  -0.087  1.1742 -0.6330 -1.0522
  693MOL0     H93506   8.892   0.724   0.238 -0.3606  1.1536  0.2655
  693MOL0     H93507   9.008   0.818   0.467  2.3174  0.5681 -1.2705
  693MOL0     H93508   9.075   0.983   0.455  1.1422  0.2927  0.8510
  693MOL0     H93509   8.827   1.060   0.472  1.3522  1.3124  1.2371
  693MOL0     H93510   8.788   0.887   0.518 -0.3176 -1.7024  0.4436
  693MOL0     H93511   8.832   1.058   0.700 -0.1766 -0.5257 -0.1903
  693MOL0     H93512   8.994   1.058   0.651 -0.6136  0.2645 -2.7063
  693MOL0     H93513   8.821   0.812   0.751  1.3104 -2.9409 -0.2145
  693MOL0     H93514   8.923   0.898   0.866 -1.8735 -0.0570  0.7372
  693MOL0     H93515   9.169   0.574   0.699  0.4328  0.4355 -0.9614
  693MOL0     H93516   9.410   0.590   0.686  2.7869  1.6449  1.4974
  693MOL0     H93517   9.821   0.847   0.567  1.2858  2.3851  1.2483
  693MOL0     H93518  10.057   0.872   0.635  2.3263 -1.9502 -0.3704
  693MOL0     H93519  10.261   0.868   0.718 -1.4035  1.1759 -1.3265
  693MOL0     H93520  10.189   0.966   0.841  0.4290 -0.1832  1.1980
  693MOL0     H93521  10.400   0.969   0.919  0.2815 -0.2554  0.2463
  693MOL0     H93522  10.349   0.828   1.013  0.9903  2.8640  0.9944
  693MOL0     H93523  10.449   0.692   0.823  1.8512 -0.2222 -0.6843
  693MOL0     H93524  10.524   0.844   0.775  3.6036 -3.8002 -1.0553
  693MOL0     H93525  10.542   0.692   1.029  1.6323 -0.9921  0.3156
  693MOL0     H93526  10.607   0.866   1.019  0.0861  0.0045 -1.3540
  693MOL0     H93527  10.751   0.794   0.820 -1.5579  1.5553  0.7869
  693MOL0     H93528  10.706   0.632   0.873  2.4162  0.7128 -1.9100
  693MOL0     H93529  10.864   0.842   1.028 -3.0825  1.1840 -0.6179
  693MOL0     H93530  10.806   0.696   1.104  0.0935  0.1995 -0.0079
  693MOL0     H93531  10.936   0.593   0.880  1.2008 -0.3861 -0.2248
  693MOL0     H93532  11.016   0.628   1.036  1.1658 -0.4261 -0.9079
  693MOL0     H93533  10.986   0.846   0.818 -1.1634  0.3284  0.2339
  693MOL0     H93534  11.098   0.835   0.952 -1.9963 -0.7403  1.2003
  693MOL0     H93535  10.004   0.611   0.964 -0.8293  0.3679  1.1394
  693MOL0     H93536   9.759   0.586   0.915 -1.9663 -0.0660 -2.6759
  693MOL0     H93537   9.400   1.010   0.795  1.2066  2.7259 -3.6663
  693MOL0     H93538   9.142   0.994   0.787 -1.0972 -0.8405  1.6895
  693MOL0     H93539   7.783   0.780   0.530 -1.8027 -4.4656  0.3168
  693MOL0     H93540   7.548   0.692   0.587  0.7881  0.9215 -0.3869
  693MOL0     H93541   7.174   0.510   0.523 -2.4851 -2.4566  2.9371
  693MOL0     H93542   6.973   0.434   0.582  2.3187 -0.1042 -2.0225
  693MOL0     H93543   6.770   0.388   0.697  1.8640  0.6571  0.2021
  693MOL0     H93544   6.765   0.415   0.520 -0.6195  2.4262 -1.4689
  693MOL0     H93545   6.517   0.459   0.692 -1.3021  1.5149 -0.9674
  693MOL0     H93546   6.538   0.314   0.594 -3.7459  0.3882 -2.8263
  693MOL0     H93547   6.542   0.448   0.391  1.9885 -0.4262  2.0335
  693MOL0     H93548   6.545   0.597   0.468  0.0208  1.1076 -3.9614
  693MOL0     H93549   6.322   0.545   0.400  1.5721  4.2686  0.9754
  693MOL0     H93550   6.308   0.400   0.499  1.4115 -0.4502  3.5085
  693MOL0     H93551   6.224   0.741   0.739 -0.0573 -0.0111  1.3473
  693MOL0     H93552   6.803   0.832   0.634  0.7402  0.5373 -1.1242
  693MOL0     H93553   7.103   1.013   0.665  0.8468  3.8105 -2.9838
  693MOL0     H93554   7.076   1.008   0.497  0.2413 -0.1068 -0.1331
  693MOL0     H93555   6.936   1.020   0.616 -2.7273 -2.8563 -2.5120
  694MOL0     O93556   2.026   1.697   9.888 -0.0016 -0.6709 -0.4751
  694MOL0     C93557   1.971   1.674   9.785  0.0498 -0.8781 -0.3826
  694MOL0     O93558   2.043   1.639   9.670  0.1195  0.1457  0.0076
  694MOL0     C93559   2.171   1.669   9.688  0.0529 -0.0505 -0.5764
  694MOL0     C93560   2.217   1.795   9.678  0.0941  0.5381 -0.5632
  694MOL0     C93561   2.351   1.828   9.685  0.3874 -0.1813 -0.3173
  694MOL0     C93562   2.442   1.725   9.705  0.0971  0.3058 -1.1516
  694MOL0     O93563   2.577   1.737   9.702 -0.2788 -0.3948 -0.4828
  694MOL0     C93564   2.636   1.838   9.622  0.9057  0.2856 -0.7867
  694MOL0     C93565   2.630   1.775   9.478 -0.3646  0.1687 -0.3012
  694MOL0     C93566   2.633   1.877   9.363  0.1047 -0.2807  0.0914
  694MOL0     C93567   2.786   1.894   9.315  0.3111 -0.1457  0.8493
  694MOL0     C93568   2.805   2.000   9.206 -1.0256 -0.0388 -0.5769
  694MOL0     C93569   2.959   2.045   9.194  0.2354 -0.4293 -0.1360
  694MOL0     C93570   3.034   1.957   9.092  0.0140  0.6668 -0.0522
  694MOL0     C93571   3.178   1.951   9.106 -0.3141  0.9830 -0.0913
  694MOL0     N93572   3.240   2.081   9.075  0.2465 -0.1347  0.0374
  694MOL0     C93573   3.295   2.119   8.959  1.3513  0.5297  0.2903
  694MOL0     C93574   3.333   2.249   8.968 -0.1257 -0.4870  0.0984
  694MOL0     C93575   3.376   2.335   8.852 -0.2170  0.0083  0.3468
  694MOL0     C93576   3.532   2.333   8.846  0.5001 -0.1292 -0.5129
  694MOL0     C93577   3.582   2.420   8.738 -0.8365  0.0354  0.2622
  694MOL0     C93578   3.739   2.411   8.736  1.2656  0.1089  0.1159
  694MOL0     O93579   3.794   2.472   8.617 -0.4069  0.8198  0.0987
  694MOL0     C93580   3.931   2.503   8.619  0.6064 -0.4153 -0.3389
  694MOL0     C93581   4.023   2.459   8.716  0.1216 -0.3827  0.6227
  694MOL0     C93582   4.165   2.483   8.706 -0.1345 -0.4388 -0.4550
  694MOL0     C93583   4.216   2.569   8.611 -0.8698 -0.0990  0.0608
  694MOL0     C93584   4.365   2.607   8.605  0.1558  0.0272  0.9171
  694MOL0     O93585   4.458   2.507   8.621 -0.7208 -0.6301 -0.4014
  694MOL0     C93586   4.590   2.539   8.610 -0.5005  0.1644  0.5214
  694MOL0     C93587   4.641   2.626   8.510 -0.0938 -0.7229 -0.0729
  694MOL0     C93588   4.783   2.645   8.496 -1.1063  0.3586 -0.5036
  694MOL0     C93589   4.866   2.571   8.585  0.0563  0.0698 -0.5574
  694MOL0     O93590   5.004   2.568   8.571  0.3517  0.4067 -0.4196
  694MOL0     C93591   5.069   2.661   8.485  0.1270  0.2977 -0.1170
  694MOL0     C93592   5.218   2.637   8.461 -0.5443  0.0045  0.2347
  694MOL0     C93593   5.313   2.612   8.571  1.0778  0.9594 -0.5811
  694MOL0     C93594   5.300   2.707   8.686  0.9471 -0.5870  0.0697
  694MOL0     C93595   5.378   2.685   8.817 -0.1635 -0.4262  0.4201
  694MOL0     C93596   5.380   2.528   8.854  0.5433  0.2190  0.0818
  694MOL0     C93597   5.235   2.480   8.875  0.3479 -0.1888  0.1387
  694MOL0     C93598   5.241   2.335   8.926 -0.1892 -0.5215 -0.3320
  694MOL0    Cl93599   5.081   2.294   8.974 -0.2920  0.4858  0.2320
  694MOL0     C93600   4.816   2.486   8.691 -0.2789 -0.1107  0.9375
  694MOL0     C93601   4.678   2.466   8.695 -0.4901 -0.3584  0.2063
  694MOL0     O93602   4.387   2.725   8.607  0.9946  0.2513  0.1338
  694MOL0     C93603   4.122   2.627   8.526  0.9270 -0.0346  0.1411
  694MOL0     C93604   3.985   2.595   8.525 -0.2075 -0.0505  0.1492
  694MOL0     N93605   3.321   2.276   9.107 -0.7040 -0.2198 -0.0700
  694MOL0     N93606   3.261   2.178   9.163 -0.3667  0.3020  0.3351
  694MOL0     C93607   2.398   1.596   9.725  0.4747 -0.4992 -0.5427
  694MOL0     C93608   2.262   1.564   9.708 -0.7116 -0.0657  0.3875
  694MOL0     C93609   1.821   1.649   9.774  0.1218  0.2719  0.0506
  694MOL0     C93610   1.780   1.581   9.659  0.6863 -0.5233 -0.6460
  694MOL0     C93611   1.648   1.582   9.627  0.4311  0.1670 -0.0553
  694MOL0     C93612   1.550   1.634   9.714 -0.5411 -0.0049  0.6349
  694MOL0     O93613   1.418   1.626   9.681  0.0427  0.2115 -0.1447
  694MOL0     C93614   1.327   1.634   9.791 -0.3405 -0.7973  0.4898
  694MOL0     C93615   1.192   1.572   9.747 -0.4256 -0.1964 -0.1949
  694MOL0     C93616   1.104   1.543   9.862 -0.6067 -0.1541 -1.0137
  694MOL0     C93617   0.972   1.472   9.815  0.8817  0.0796 -0.0077
  694MOL0     C93618   0.874   1.505   9.914  0.2710 -0.4501 -0.2550
  694MOL0     C93619   0.801   1.533  10.008 -0.4309 -0.9191 -0.5521
  694MOL0     C93620   1.598   1.684   9.834  0.3476  0.2827  0.2219
  694MOL0     C93621   1.729   1.698   9.870 -0.9287  0.0468 -0.3054
  694MOL0     C93622   1.757   1.772   9.998 -0.4889  0.1433  0.9787
  694MOL0     H93623   2.150   1.876   9.652 -0.2263  1.2503  2.1360
  694MOL0     H93624   2.395   1.927   9.689  2.5792 -1.1115 -0.3129
  694MOL0     H93625   2.585   1.935   9.624  1.4270  0.6040 -2.3041
  694MOL0     H93626   2.742   1.844   9.646  0.2769  1.0271  2.3368
  694MOL0     H93627   2.530   1.733   9.481  0.2917 -1.4486  0.0043
  694MOL0     H93628   2.713   1.704   9.468  0.2131  0.8271 -0.2237
  694MOL0     H93629   2.608   1.982   9.380  3.0343  0.7991 -1.5869
  694MOL0     H93630   2.576   1.838   9.278  1.4265 -1.4422 -0.3066
  694MOL0     H93631   2.842   1.934   9.400  1.5846  2.8144 -1.2211
  694MOL0     H93632   2.820   1.808   9.256  0.3493  2.4089 -3.2403
  694MOL0     H93633   2.773   1.982   9.103  0.6954  1.3508 -1.4236
  694MOL0     H93634   2.749   2.086   9.245 -0.4300 -0.2842  0.8862
  694MOL0     H93635   2.962   2.148   9.159  0.4849 -0.0991  0.8210
  694MOL0     H93636   2.998   2.044   9.296 -0.5468  1.3847  0.2135
  694MOL0     H93637   3.012   1.989   8.990  2.9050  0.3625 -0.8522
  694MOL0     H93638   2.992   1.857   9.102  0.6284  0.3184 -0.8867
  694MOL0     H93639   3.201   1.934   9.212  1.4610 -2.1641 -0.8451
  694MOL0     H93640   3.222   1.867   9.050 -0.4878 -0.3338  1.6510
  694MOL0     H93641   3.294   2.064   8.866  0.3712  1.4227 -0.2509
  694MOL0     H93642   3.335   2.297   8.759 -0.1248  2.7445 -0.9143
  694MOL0     H93643   3.338   2.436   8.871 -3.1953 -0.8330 -0.5725
  694MOL0     H93644   3.569   2.372   8.941  1.1040  3.1398 -1.9323
  694MOL0     H93645   3.563   2.229   8.834 -0.7952 -0.5570 -0.3496
  694MOL0     H93646   3.556   2.527   8.739 -0.5178  0.1126  0.8049
  694MOL0     H93647   3.545   2.378   8.645  0.5878  0.2215 -0.4151
  694MOL0     H93648   3.771   2.306   8.729 -1.8626 -0.8698 -1.7827
  694MOL0     H93649   3.783   2.458   8.824  3.2227 -0.4618 -0.4998
  694MOL0     H93650   3.982   2.390   8.790 -3.1131  0.6928  0.0107
  694MOL0     H93651   4.232   2.426   8.770 -0.1362 -1.4176 -1.2957
  694MOL0     H93652   4.579   2.676   8.437 -1.3156 -0.9237  0.7846
  694MOL0     H93653   4.825   2.702   8.414 -3.0739  0.7963 -1.2426
  694MOL0     H93654   5.012   2.666   8.393 -2.0228  2.7051  1.1984
  694MOL0     H93655   5.062   2.761   8.530  1.2586  0.8043 -1.0237
  694MOL0     H93656   5.227   2.554   8.390 -0.1799 -0.8612  1.2682
  694MOL0     H93657   5.251   2.725   8.405 -2.9802  0.0250 -1.3095
  694MOL0     H93658   5.306   2.506   8.600  0.6019  1.2977  0.6123
  694MOL0     H93659   5.415   2.621   8.534  0.6857 -0.4483 -2.1592
  694MOL0     H93660   5.195   2.721   8.715  0.5804 -2.0656 -0.4457
  694MOL0     H93661   5.324   2.802   8.636  0.4788 -1.6372 -2.3217
  694MOL0     H93662   5.342   2.758   8.890 -0.0043  3.2148 -2.8237
  694MOL0     H93663   5.476   2.733   8.809 -0.3307 -0.0504  0.6221
  694MOL0     H93664   5.425   2.472   8.771  1.6890 -0.9167  1.4206
  694MOL0     H93665   5.441   2.502   8.941 -1.5274 -1.2558  1.1769
  694MOL0     H93666   5.177   2.488   8.782  2.1797  2.2282 -0.9077
  694MOL0     H93667   5.177   2.528   8.954  0.2468 -1.1631  0.6636
  694MOL0     H93668   5.278   2.262   8.854  0.0402 -0.3472 -0.3929
  694MOL0     H93669   5.311   2.343   9.010 -0.5913 -0.8516  0.0382
  694MOL0     H93670   4.886   2.429   8.752  0.7660 -0.2723 -0.3602
  694MOL0     H93671   4.644   2.406   8.779  2.5257  0.0071  1.8366
  694MOL0     H93672   4.154   2.699   8.451  1.1385 -0.3628 -0.0881
  694MOL0     H93673   3.921   2.626   8.443  0.2940 -1.7087 -0.9063
  694MOL0     H93674   2.459   1.510   9.751 -1.5395 -1.6129  0.7481
  694MOL0     H93675   2.235   1.460   9.722  2.5838 -0.9737  0.8362
  694MOL0     H93676   1.851   1.529   9.595 -0.4850 -1.1667 -1.4736
  694MOL0     H93677   1.625   1.530   9.535  1.1682  1.0424 -0.7522
  694MOL0     H93678   1.327   1.740   9.818  3.8118 -0.7467  0.9695
  694MOL0     H93679   1.370   1.586   9.880 -0.5754  0.2015  1.1708
  694MOL0     H93680   1.199   1.476   9.694 -0.1023  0.0062 -0.5236
  694MOL0     H93681   1.133   1.638   9.683  0.7613  2.3384  1.1995
  694MOL0     H93682   1.075   1.631   9.921  0.0339 -0.5399 -0.1130
  694MOL0     H93683   1.159   1.473   9.925 -1.9271 -0.8764 -0.6143
  694MOL0     H93684   0.939   1.499   9.714  2.6602 -1.5496 -1.0840
  694MOL0     H93685   0.986   1.364   9.805  1.4957  0.2356 -1.0779
  694MOL0     H93686   0.726   1.551  10.082 -3.2384 -2.3916 -2.8106
  694MOL0     H93687   1.520   1.733   9.891 -4.1232 -3.3101 -2.1029
  694MOL0     H93688   1.673   1.792  10.066 -0.4024  0.8299  0.8911
  694MOL0     H93689   1.839   1.714  10.042  0.3023 -0.2197 -0.8941
  694MOL0     H93690   1.804   1.863   9.960  0.8520 -0.9847 -0.1624
  695MOL0     O93691   4.752   2.932   1.860  0.4043  0.1322  0.8719
  695MOL0     C93692   4.706   3.011   1.942 -0.1370 -0.5412 -0.1186
  695MOL0     O93693   4.775   3.114   1.994  0.2939  0.1322  0.8334
  695MOL0     C93694   4.908   3.127   1.958 -0.1492  0.1547  0.7822
  695MOL0     C93695   5.012   3.065   2.034 -0.1996  0.3777 -0.3253
  695MOL0     C93696   5.142   3.081   1.998 -0.1297 -1.3464  0.5940
  695MOL0     C93697   5.178   3.162   1.892 -0.0437 -0.1665  0.4929
  695MOL0     O93698   5.309   3.176   1.852 -0.2108  0.0210 -0.1406
  695MOL0     C93699   5.340   3.246   1.727 -0.1860  0.2570 -0.5678
  695MOL0     C93700   5.484   3.249   1.682 -0.4272  0.6488 -0.6470
  695MOL0     C93701   5.571   3.305   1.794  0.0518  0.3470  0.3606
  695MOL0     C93702   5.716   3.303   1.738  0.5926  0.1232  0.0065
  695MOL0     C93703   5.791   3.397   1.822  0.7799 -0.0887 -0.3964
  695MOL0     C93704   5.943   3.379   1.833  0.2376  0.3244  0.5492
  695MOL0     C93705   6.016   3.491   1.920  0.0503  0.4876  0.2705
  695MOL0     C93706   6.158   3.452   1.963 -0.0001 -0.5389 -0.1515
  695MOL0     N93707   6.248   3.438   1.848 -0.0396  0.0266  0.3975
  695MOL0     C93708   6.314   3.542   1.781 -0.6726 -0.7888  0.0534
  695MOL0     C93709   6.406   3.482   1.699 -0.2202 -0.4931 -1.1257
  695MOL0     C93710   6.500   3.552   1.611 -0.1727 -0.2947  0.4336
  695MOL0     C93711   6.629   3.584   1.679  0.5603 -0.7667 -0.0017
  695MOL0     C93712   6.714   3.674   1.595  0.3844  0.5414 -0.0939
  695MOL0     C93713   6.846   3.705   1.665 -0.1204 -0.5069 -0.3699
  695MOL0     O93714   6.899   3.585   1.713  0.4595  0.0525 -0.3607
  695MOL0     C93715   7.029   3.560   1.672  0.8269 -0.5448 -0.6869
  695MOL0     C93716   7.071   3.545   1.542  0.1123 -0.1396  0.0773
  695MOL0     C93717   7.199   3.529   1.498 -0.1404 -0.2600 -1.2915
  695MOL0     C93718   7.296   3.518   1.587 -0.4271  0.6825 -0.8277
  695MOL0     C93719   7.432   3.503   1.541  0.8244 -0.8978 -1.0645
  695MOL0     O93720   7.527   3.466   1.634 -0.0377  0.0036  0.0398
  695MOL0     C93721   7.659   3.511   1.626 -0.0812 -1.2776  0.6420
  695MOL0     C93722   7.692   3.632   1.552 -0.2138  1.2482 -0.3617
  695MOL0     C93723   7.822   3.683   1.559  0.1912  0.0327  0.3370
  695MOL0     C93724   7.918   3.615   1.638 -0.7712 -0.8067  0.2552
  695MOL0     O93725   8.039   3.672   1.633 -0.2647 -0.0860  0.0685
  695MOL0     C93726   8.126   3.614   1.533 -0.8614  0.3920 -0.7480
  695MOL0     C93727   8.265   3.672   1.541 -0.3373 -0.5983 -0.5982
  695MOL0     C93728   8.372   3.606   1.457  0.5520  0.4529  0.7053
  695MOL0     C93729   8.501   3.685   1.449  0.7779  0.8734 -0.9391
  695MOL0     C93730   8.610   3.591   1.404  0.6671  0.5971 -0.6780
  695MOL0     C93731   8.733   3.663   1.344  0.6225 -0.2492  0.1273
  695MOL0     C93732   8.810   3.552   1.274  0.5268 -0.1625  0.2874
  695MOL0     C93733   8.948   3.599   1.229  0.9851  0.4301 -0.9044
  695MOL0    Cl93734   9.065   3.516   1.329  0.3460  0.0166 -0.0829
  695MOL0     C93735   7.888   3.496   1.707  0.8738  0.4928 -0.6738
  695MOL0     C93736   7.758   3.447   1.701 -0.0286 -0.1388  0.1500
  695MOL0     O93737   7.447   3.529   1.419  0.2807 -0.3178 -0.2676
  695MOL0     C93738   7.257   3.513   1.724  0.5345  0.6061 -0.3411
  695MOL0     C93739   7.124   3.533   1.767 -0.1710  0.4239 -0.7963
  695MOL0     N93740   6.412   3.351   1.737 -0.3461 -0.3432  0.3118
  695MOL0     N93741   6.310   3.321   1.818 -0.0364 -0.2194  0.0547
  695MOL0     C93742   5.073   3.223   1.820  0.0185  0.5535  0.4545
  695MOL0     C93743   4.939   3.200   1.848 -0.6759 -0.2278  0.3407
  695MOL0     C93744   4.563   3.000   1.987  0.4448  0.5094 -0.4014
  695MOL0     C93745   4.529   3.041   2.119  0.0698 -0.1526 -0.6447
  695MOL0     C93746   4.405   3.020   2.168  0.5960  0.3732  0.2338
  695MOL0     C93747   4.304   2.968   2.092 -1.0626 -0.8281  0.4020
  695MOL0     O93748   4.180   2.946   2.140 -0.4545 -0.3573 -0.4254
  695MOL0     C93749   4.168   2.932   2.279  0.0823  0.0960 -0.1852
  695MOL0     C93750   4.060   2.819   2.289  0.5262 -0.0163  0.5220
  695MOL0     C93751   3.920   2.859   2.238 -0.0124  0.4080  0.1257
  695MOL0     C93752   3.839   2.732   2.233 -0.7700 -1.0853 -0.0942
  695MOL0     C93753   3.782   2.689   2.357 -0.4383  0.0608 -0.3464
  695MOL0     C93754   3.730   2.641   2.451 -0.1101 -0.4953  0.8552
  695MOL0     C93755   4.327   2.931   1.958  0.3607 -0.8215  0.6633
  695MOL0     C93756   4.451   2.953   1.904 -0.6911  0.1959  1.1099
  695MOL0     C93757   4.467   2.937   1.752 -0.2327  0.0304  0.0041
  695MOL0     H93758   4.984   2.995   2.112 -0.3991 -0.6401 -1.2924
  695MOL0     H93759   5.219   3.015   2.036  0.3812 -0.0272  1.9218
  695MOL0     H93760   5.294   3.190   1.645 -2.1135 -1.0754  1.3200
  695MOL0     H93761   5.309   3.350   1.727 -2.1459 -0.1348 -4.7923
  695MOL0     H93762   5.498   3.299   1.586 -1.1609 -1.6252 -2.0131
  695MOL0     H93763   5.531   3.154   1.658  0.3183  1.1267 -1.1261
  695MOL0     H93764   5.561   3.256   1.891 -0.1486  2.4413  1.4690
  695MOL0     H93765   5.536   3.407   1.814 -0.6487 -0.5959  4.9863
  695MOL0     H93766   5.754   3.201   1.743  1.7983  0.5057 -0.9033
  695MOL0     H93767   5.715   3.335   1.633 -0.6906 -0.2522 -0.1205
  695MOL0     H93768   5.770   3.501   1.793  3.0281  0.4021 -0.4597
  695MOL0     H93769   5.748   3.385   1.921  0.9501 -2.8782 -0.5902
  695MOL0     H93770   5.953   3.286   1.892  1.8449  1.4289  2.1377
  695MOL0     H93771   5.993   3.361   1.738  0.6901 -0.7477  0.9731
  695MOL0     H93772   5.962   3.514   2.012 -1.8044 -0.3042 -0.5622
  695MOL0     H93773   6.021   3.576   1.850  0.7433  1.4284  1.4190
  695MOL0     H93774   6.197   3.522   2.037  4.4589  2.0307 -4.3686
  695MOL0     H93775   6.154   3.356   2.015  4.6933 -1.6769 -1.4622
  695MOL0     H93776   6.307   3.649   1.793 -1.3641 -0.6656 -1.2620
  695MOL0     H93777   6.520   3.493   1.521  3.5204  2.0655 -0.5558
  695MOL0     H93778   6.447   3.642   1.579 -0.3047 -0.2564  0.7573
  695MOL0     H93779   6.609   3.632   1.775 -1.8243  1.4167 -1.4525
  695MOL0     H93780   6.677   3.489   1.705  1.9973 -0.9457 -2.8922
  695MOL0     H93781   6.658   3.767   1.579 -2.8395 -0.8420  2.0183
  695MOL0     H93782   6.740   3.618   1.505 -0.3556  3.4196 -2.2474
  695MOL0     H93783   6.828   3.778   1.745  1.2276 -1.3477  0.7638
  695MOL0     H93784   6.913   3.757   1.596 -1.0212  2.5868  0.9064
  695MOL0     H93785   6.995   3.559   1.466  1.1387 -2.0213 -1.4055
  695MOL0     H93786   7.217   3.532   1.392  0.8990 -1.9172 -1.1998
  695MOL0     H93787   7.622   3.679   1.483  1.0808  0.4870 -2.2957
  695MOL0     H93788   7.853   3.768   1.498  2.9401  1.2534  3.1586
  695MOL0     H93789   8.134   3.505   1.542  0.8082  0.4323 -1.5054
  695MOL0     H93790   8.105   3.640   1.429  1.0204 -0.2506 -1.3200
  695MOL0     H93791   8.253   3.778   1.515  2.3787 -0.7518 -3.0477
  695MOL0     H93792   8.303   3.669   1.644  0.1401 -2.1443 -0.7921
  695MOL0     H93793   8.384   3.501   1.484  2.7329 -0.4952 -3.1284
  695MOL0     H93794   8.320   3.603   1.360 -0.7007 -0.1069  1.3645
  695MOL0     H93795   8.520   3.730   1.547 -0.0861 -0.3078 -0.1990
  695MOL0     H93796   8.495   3.775   1.388  0.0305  0.8391 -0.9208
  695MOL0     H93797   8.567   3.526   1.327 -0.0869 -3.3852  2.7364
  695MOL0     H93798   8.640   3.524   1.485  0.2383  0.7688 -0.3695
  695MOL0     H93799   8.682   3.725   1.270  0.8802 -1.7437 -1.3616
  695MOL0     H93800   8.802   3.721   1.406 -0.6929  3.5173 -1.6861
  695MOL0     H93801   8.756   3.512   1.188  1.6142 -0.6597 -0.1848
  695MOL0     H93802   8.821   3.471   1.347  0.4836 -0.2718  0.1733
  695MOL0     H93803   8.965   3.578   1.123  0.7679 -0.0820 -0.8388
  695MOL0     H93804   8.949   3.705   1.256 -1.9631  0.2899  0.0841
  695MOL0     H93805   7.975   3.454   1.756  0.8984  1.6085  0.2877
  695MOL0     H93806   7.738   3.361   1.763  1.9769 -0.6460  0.1585
  695MOL0     H93807   7.329   3.515   1.805  0.8944  3.0956 -0.6714
  695MOL0     H93808   7.089   3.539   1.870 -0.4479  2.8078 -0.9864
  695MOL0     H93809   5.099   3.304   1.752  0.5336  0.0031 -0.0165
  695MOL0     H93810   4.865   3.258   1.794  1.2494  1.2965 -0.7549
  695MOL0     H93811   4.607   3.090   2.176 -1.6131  3.3503 -1.1056
  695MOL0     H93812   4.375   3.064   2.262 -2.1975  0.1447 -0.4728
  695MOL0     H93813   4.143   3.030   2.320  0.6066  0.6176 -1.0988
  695MOL0     H93814   4.258   2.891   2.324 -0.4614 -3.2154 -1.7896
  695MOL0     H93815   4.043   2.785   2.392 -2.0496 -1.4079 -0.2807
  695MOL0     H93816   4.098   2.736   2.229  2.4049 -1.2186  3.1515
  695MOL0     H93817   3.931   2.898   2.136  0.7440  0.0611  0.0705
  695MOL0     H93818   3.882   2.927   2.315  0.7188 -0.4065  1.2351
  695MOL0     H93819   3.748   2.750   2.175 -0.0048  2.2077 -0.4828
  695MOL0     H93820   3.895   2.654   2.180  0.2095  0.1384 -0.9259
  695MOL0     H93821   3.675   2.620   2.541  0.6444  2.5874  2.1609
  695MOL0     H93822   4.242   2.897   1.901  0.0382  2.1639 -0.8580
  695MOL0     H93823   4.556   2.881   1.721  1.7906  1.5877  2.5008
  695MOL0     H93824   4.385   2.877   1.712 -1.8129  0.2002  2.7527
  695MOL0     H93825   4.478   3.038   1.711 -0.7078  0.0087 -0.1807
  696MOL0     O93826   9.611   8.851   7.576  0.0259 -0.1820  0.2078
  696MOL0     C93827   9.554   8.902   7.479  0.2078  0.2109 -0.9800
  696MOL0     O93828   9.617   8.966   7.382 -0.9591  0.6033  0.0589
  696MOL0     C93829   9.757   8.972   7.384  0.0032 -0.4796  0.6066
  696MOL0     C93830   9.840   8.860   7.361 -0.7316 -0.2179  0.8611
  696MOL0     C93831   9.980   8.872   7.368  1.0269 -0.2815  0.2882
  696MOL0     C93832  10.039   8.996   7.395 -0.5830 -0.3091 -0.1209
  696MOL0     O93833  10.180   8.992   7.392 -0.9612  0.1108  0.1676
  696MOL0     C93834  10.243   9.115   7.422 -0.2068 -0.2676 -0.4154
  696MOL0     C93835  10.388   9.083   7.458  0.0202 -0.3106 -0.4663
  696MOL0     C93836  10.489   9.195   7.469 -0.3196 -0.0228  0.4199
  696MOL0     C93837  10.627   9.136   7.491 -0.4814  0.0046  0.0849
  696MOL0     C93838  10.739   9.246   7.487 -0.1640 -0.0526  0.2506
  696MOL0     C93839  10.706   9.398   7.526 -0.0210 -0.6664 -0.1170
  696MOL0     C93840  10.831   9.484   7.522  0.5314 -0.5020 -0.5143
  696MOL0     C93841  10.793   9.630   7.547 -0.6057 -0.4918  0.1495
  696MOL0     N93842  10.920   9.707   7.517  0.0699  0.3742  0.2236
  696MOL0     C93843  11.046   9.703   7.575  0.1086  1.2249  1.3003
  696MOL0     C93844  11.127   9.765   7.487 -0.1732 -0.5965  0.4546
  696MOL0     C93845  11.278   9.782   7.499  0.4196 -0.0654 -0.9511
  696MOL0     C93846  11.320   9.908   7.578 -0.3727  0.1070 -0.6204
  696MOL0     C93847  11.475   9.938   7.572 -0.2369  0.2925 -0.0355
  696MOL0     C93848  11.551   9.858   7.683  0.3757  0.5233  0.2048
  696MOL0     O93849  11.685   9.840   7.656 -0.2276  0.1585  0.1273
  696MOL0     C93850  11.761   9.952   7.659 -0.1652 -0.1381 -0.2926
  696MOL0     C93851  11.891   9.939   7.605  0.3129  0.1752 -0.3572
  696MOL0     C93852  11.988  10.043   7.611 -0.2528  0.6176 -0.7811
  696MOL0     C93853  11.952  10.162   7.664  0.1021  0.4883 -0.2109
  696MOL0     C93854  12.044  10.274   7.680  0.0056 -0.5526 -0.0457
  696MOL0     O93855  12.155  10.272   7.604  0.4331  0.6275  0.1690
  696MOL0     C93856  12.248  10.368   7.623 -0.1917  0.3036 -0.3593
  696MOL0     C93857  12.230  10.506   7.618 -0.1432  0.2791  0.3651
  696MOL0     C93858  12.336  10.597   7.629 -0.0886  0.3538  0.2477
  696MOL0     C93859  12.469  10.548   7.668  0.9357 -0.6437  0.0966
  696MOL0     O93860  12.570  10.639   7.661 -0.1722 -0.0336  0.0510
  696MOL0     C93861  12.698  10.604   7.722 -0.3050 -0.5443  0.1161
  696MOL0     C93862  12.784  10.554   7.606 -0.3650  0.0314 -0.0136
  696MOL0     C93863  12.822  10.673   7.515 -0.0189  0.6552 -0.0762
  696MOL0     C93864  12.923  10.636   7.410 -0.0449 -0.2468  0.4894
  696MOL0     C93865  12.936  10.748   7.316 -0.3114 -0.7838  0.8139
  696MOL0     C93866  13.039  10.718   7.201  0.1545 -0.1923 -0.5637
  696MOL0     C93867  13.074  10.855   7.124 -0.0033  0.3914  0.0529
  696MOL0     C93868  13.226  10.870   7.113  0.5833 -0.8577  0.3792
  696MOL0    Cl93869  13.263  11.014   7.013 -0.1223 -0.4148 -0.1813
  696MOL0     C93870  12.483  10.408   7.666  1.1315  0.4548 -1.0616
  696MOL0     C93871  12.378  10.320   7.645 -0.4729  0.3097  0.4094
  696MOL0     O93872  12.012  10.356   7.761 -0.2664 -0.7699 -0.1148
  696MOL0     C93873  11.818  10.183   7.720 -0.5502 -0.1460 -0.3694
  696MOL0     C93874  11.728  10.082   7.720  0.8781  0.7516 -0.1982
  696MOL0     N93875  11.057   9.809   7.383  0.1341  0.0457  0.0714
  696MOL0     N93876  10.932   9.788   7.412 -0.4101 -1.4105 -0.5811
  696MOL0     C93877   9.956   9.111   7.407 -0.1593 -0.0924 -0.2376
  696MOL0     C93878   9.817   9.096   7.404 -1.0331  0.3850 -0.9842
  696MOL0     C93879   9.405   8.883   7.467 -0.0438 -0.7387  0.2521
  696MOL0     C93880   9.336   8.818   7.572 -0.0972 -1.0249 -0.6983
  696MOL0     C93881   9.197   8.803   7.571  0.0445  0.7221 -0.3180
  696MOL0     C93882   9.128   8.833   7.449 -0.3017  0.0755 -1.1983
  696MOL0     O93883   9.002   8.802   7.421 -0.0320  0.1070 -0.0697
  696MOL0     C93884   8.906   8.840   7.520 -0.5318  0.4761 -0.1986
  696MOL0     C93885   8.814   8.938   7.459  1.2379  0.2347  0.8522
  696MOL0     C93886   8.691   8.863   7.389 -0.2354 -0.8983  0.7210
  696MOL0     C93887   8.582   8.962   7.352  0.2662  0.3028  0.0254
  696MOL0     C93888   8.453   8.937   7.402  0.8263  0.1146 -0.0825
  696MOL0     C93889   8.334   8.930   7.431  1.0362  0.4860 -0.1257
  696MOL0     C93890   9.199   8.881   7.345  0.0160 -0.2685  0.3711
  696MOL0     C93891   9.331   8.907   7.348  0.7879 -0.5544  0.3326
  696MOL0     C93892   9.389   8.945   7.215  0.3502 -1.0039  0.0603
  696MOL0     H93893   9.793   8.768   7.329  0.1603 -0.9649  1.6329
  696MOL0     H93894  10.043   8.784   7.357  1.8813  0.3920 -0.2730
  696MOL0     H93895  10.248   9.172   7.329 -1.0201  0.6644  0.0900
  696MOL0     H93896  10.199   9.171   7.505 -0.8311 -1.6221  0.1920
  696MOL0     H93897  10.415   9.022   7.372 -0.3709  2.1586 -2.4404
  696MOL0     H93898  10.392   9.027   7.552  0.7878  0.2210 -0.1676
  696MOL0     H93899  10.471   9.267   7.549 -2.6564  0.9942 -0.9164
  696MOL0     H93900  10.486   9.255   7.377 -0.9909 -0.1808  0.3317
  696MOL0     H93901  10.630   9.074   7.582  1.2893  0.4489  0.3552
  696MOL0     H93902  10.649   9.061   7.415 -0.6347 -1.7533  1.6875
  696MOL0     H93903  10.830   9.220   7.542  0.7019 -1.4849 -1.7444
  696MOL0     H93904  10.773   9.240   7.384 -0.5321 -1.0551  0.1718
  696MOL0     H93905  10.621   9.419   7.461 -0.1720 -3.0200 -0.7897
  696MOL0     H93906  10.658   9.411   7.623  2.9554  0.2966  1.3705
  696MOL0     H93907  10.880   9.465   7.426  2.0490  3.1261 -0.6301
  696MOL0     H93908  10.907   9.467   7.600 -0.4669  0.3660  0.7034
  696MOL0     H93909  10.725   9.668   7.471  0.5681  0.5527 -0.4169
  696MOL0     H93910  10.757   9.654   7.647  2.1210  1.3878  0.7858
  696MOL0     H93911  11.078   9.659   7.669  1.9508 -0.1171  0.1196
  696MOL0     H93912  11.319   9.697   7.555 -1.2737 -0.1461  0.2149
  696MOL0     H93913  11.320   9.785   7.398 -0.6026 -2.2180 -1.4940
  696MOL0     H93914  11.268   9.995   7.536 -0.0209  0.3264 -0.6038
  696MOL0     H93915  11.287   9.906   7.682 -1.1787  2.7923 -0.7371
  696MOL0     H93916  11.481  10.041   7.607  0.8901  0.4264 -0.5885
  696MOL0     H93917  11.510   9.930   7.469 -0.6130 -0.2154 -0.1286
  696MOL0     H93918  11.512   9.757   7.671  1.2604  0.3719 -1.7266
  696MOL0     H93919  11.526   9.899   7.781 -0.2895 -1.0828  0.7384
  696MOL0     H93920  11.919   9.840   7.571 -1.2509 -0.2841 -0.4097
  696MOL0     H93921  12.083  10.021   7.562  0.1553  2.5194 -0.9408
  696MOL0     H93922  12.129  10.540   7.596 -0.0300 -1.3830 -3.4279
  696MOL0     H93923  12.308  10.700   7.611 -2.1426  0.2896  2.5454
  696MOL0     H93924  12.739  10.692   7.773  1.7607 -1.4831  0.1552
  696MOL0     H93925  12.692  10.527   7.799 -2.6135 -1.7574 -1.1374
  696MOL0     H93926  12.878  10.516   7.648 -0.8227  0.3431  1.3224
  696MOL0     H93927  12.728  10.480   7.548  1.8785  0.6107 -3.1645
  696MOL0     H93928  12.738  10.715   7.459 -0.1903  1.2781  0.6305
  696MOL0     H93929  12.853  10.750   7.586 -0.9408 -1.1773  2.4826
  696MOL0     H93930  12.896  10.548   7.351 -0.3022  0.5895 -0.6809
  696MOL0     H93931  13.019  10.618   7.459  0.8437  3.3286  0.3174
  696MOL0     H93932  12.981  10.832   7.369 -3.5936  2.7926 -1.4976
  696MOL0     H93933  12.843  10.775   7.264  0.5856 -0.6168 -0.7579
  696MOL0     H93934  13.129  10.685   7.254 -0.8586 -0.8152  0.8469
  696MOL0     H93935  13.011  10.642   7.127 -0.1429  0.0135 -0.6582
  696MOL0     H93936  13.025  10.936   7.177 -0.2542 -1.3501  2.6683
  696MOL0     H93937  13.028  10.853   7.025 -0.5373  5.0853 -0.0068
  696MOL0     H93938  13.274  10.891   7.209  2.6414 -0.0267 -0.7483
  696MOL0     H93939  13.265  10.779   7.066  1.3201  0.6097 -2.0615
  696MOL0     H93940  12.582  10.370   7.691  1.6849  3.4523  1.9058
  696MOL0     H93941  12.388  10.213   7.640  0.3196  0.3696 -4.9555
  696MOL0     H93942  11.800  10.277   7.771  3.1352  0.1456  0.6924
  696MOL0     H93943  11.633  10.090   7.771  2.3289 -0.0890  2.8752
  696MOL0     H93944   9.998   9.211   7.402  2.3797 -1.0757  0.2625
  696MOL0     H93945   9.760   9.187   7.424 -0.1519  0.5659  0.9344
  696MOL0     H93946   9.390   8.785   7.660  1.1874  0.2954 -0.9517
  696MOL0     H93947   9.140   8.763   7.654  0.4111  0.5310 -0.1542
  696MOL0     H93948   8.966   8.889   7.598 -0.5153 -1.5962  1.1463
  696MOL0     H93949   8.860   8.753   7.567  0.7903 -0.9267 -1.4022
  696MOL0     H93950   8.861   9.002   7.384 -1.3578  2.7448  1.1931
  696MOL0     H93951   8.774   8.992   7.545 -1.4242 -2.9324  1.7782
  696MOL0     H93952   8.649   8.787   7.455 -1.3733 -1.4992 -0.6398
  696MOL0     H93953   8.721   8.813   7.297 -2.3135 -0.9061 -0.0266
  696MOL0     H93954   8.615   9.063   7.378 -1.9588  0.7197  1.5254
  696MOL0     H93955   8.575   8.944   7.244  0.1428 -0.7870  0.1994
  696MOL0     H93956   8.235   8.927   7.471  0.6068  2.9055 -0.7953
  696MOL0     H93957   9.142   8.886   7.253  0.7323  0.5967 -0.0456
  696MOL0     H93958   9.488   8.904   7.193  1.2072  0.0608  1.7062
  696MOL0     H93959   9.323   8.933   7.129  1.4128  4.1027 -1.8250
  696MOL0     H93960   9.393   9.054   7.220 -0.9319 -1.0120  2.5154
  697MOL0     O93961   3.434   1.792   9.734 -0.3948 -0.0066  0.0814
  697MOL0     C93962   3.497   1.682   9.751 -0.2130 -0.1553 -0.1809
  697MOL0     O93963   3.458   1.569   9.831  0.1594 -0.4142 -0.1513
  697MOL0     C93964   3.322   1.554   9.862  0.0780  0.4571  0.0755
  697MOL0     C93965   3.264   1.432   9.819  1.1918 -0.6292  0.3890
  697MOL0     C93966   3.132   1.399   9.860  0.3286 -0.4113  0.2289
  697MOL0     C93967   3.059   1.478   9.948  0.1281  0.9637 -0.0212
  697MOL0     O93968   2.932   1.432   9.975  0.5540 -0.3626 -0.4400
  697MOL0     C93969   2.834   1.518  10.040 -0.0887 -0.2795  0.0865
  697MOL0     C93970   2.814   1.485  10.187 -0.6107  0.4884 -0.0767
  697MOL0     C93971   2.865   1.352  10.232 -0.2365 -0.0173  1.3385
  697MOL0     C93972   2.812   1.330  10.378  0.6128  0.0407 -0.3009
  697MOL0     C93973   2.902   1.236  10.447 -0.4265 -0.1752  0.0206
  697MOL0     C93974   2.864   1.093  10.422 -0.2122 -1.1455  0.9132
  697MOL0     C93975   2.976   0.999  10.455 -0.8265  0.5607  0.4755
  697MOL0     C93976   2.923   0.859  10.438  0.6875 -0.4684  0.4498
  697MOL0     N93977   3.037   0.763  10.463 -0.1756  0.3007  0.0481
  697MOL0     C93978   3.116   0.715  10.369 -0.7989 -0.0034  0.1369
  697MOL0     C93979   3.186   0.608  10.428 -0.1162  0.0241 -0.3074
  697MOL0     C93980   3.295   0.526  10.362  0.0004 -0.3626 -0.6385
  697MOL0     C93981   3.400   0.618  10.300  0.0144  0.0604  0.3023
  697MOL0     C93982   3.519   0.530  10.267  0.5394 -0.5835  0.4913
  697MOL0     C93983   3.629   0.623  10.221 -0.7149  1.2505  0.0426
  697MOL0     O93984   3.743   0.535  10.179 -0.3422 -0.1539 -0.1045
  697MOL0     C93985   3.865   0.597  10.167 -0.0193 -0.0983 -0.4524
  697MOL0     C93986   3.979   0.520  10.196 -0.8734 -0.1326 -0.1930
  697MOL0     C93987   4.113   0.564  10.178 -0.6475 -0.2027  0.1521
  697MOL0     C93988   4.140   0.689  10.126  0.8844  0.5674  0.3006
  697MOL0     C93989   4.278   0.732  10.115  0.0512  0.1900 -0.3965
  697MOL0     O93990   4.378   0.639  10.136 -0.2510  0.4824 -0.2106
  697MOL0     C93991   4.508   0.680  10.119  0.8124  0.5118  0.6179
  697MOL0     C93992   4.566   0.787  10.187  0.1647 -0.7283 -0.0681
  697MOL0     C93993   4.703   0.819  10.157 -0.0100  0.3178 -0.2781
  697MOL0     C93994   4.777   0.737  10.071  0.6994  1.0595 -0.5146
  697MOL0     O93995   4.911   0.767  10.065  0.1800 -1.0454  0.1756
  697MOL0     C93996   4.997   0.670  10.002  0.7324 -0.5624 -0.0227
  697MOL0     C93997   5.136   0.721  10.029 -0.0508 -0.5305  0.1973
  697MOL0     C93998   5.153   0.860   9.968  0.5189 -0.6882 -0.0037
  697MOL0     C93999   5.146   0.855   9.815 -0.5296  0.1637  0.6833
  697MOL0     C94000   5.172   0.995   9.759  0.2744 -0.0042 -0.0659
  697MOL0     C94001   5.177   1.010   9.602  1.1887 -0.6641 -0.3153
  697MOL0     C94002   5.250   1.144   9.571 -0.2773 -0.4697 -0.3739
  697MOL0     C94003   5.244   1.188   9.427  0.7974 -0.2364  0.1522
  697MOL0    Cl94004   5.071   1.216   9.373  0.0511 -0.4031 -0.2674
  697MOL0     C94005   4.710   0.632  10.003  0.5614 -0.7573 -0.9939
  697MOL0     C94006   4.578   0.607  10.030  0.0921 -1.1424 -0.0888
  697MOL0     O94007   4.295   0.851  10.109 -0.8868  0.6041 -0.3608
  697MOL0     C94008   4.025   0.768  10.096 -0.6345  0.3945 -0.1573
  697MOL0     C94009   3.892   0.720  10.115  0.0857 -0.6762  0.0990
  697MOL0     N94010   3.127   0.593  10.554 -0.4831 -0.7639  0.1339
  697MOL0     N94011   3.032   0.680  10.572  0.6987  1.0885  0.1317
  697MOL0     C94012   3.121   1.592   9.989 -0.1232 -0.1168 -0.3422
  697MOL0     C94013   3.253   1.634   9.950  0.4751  0.1693  0.0485
  697MOL0     C94014   3.634   1.679   9.691 -0.7333 -0.6119  1.6718
  697MOL0     C94015   3.680   1.785   9.613  0.2536 -0.0685  0.0582
  697MOL0     C94016   3.803   1.780   9.550  0.9714 -0.0423 -0.3026
  697MOL0     C94017   3.888   1.670   9.552  0.6901  0.0412  0.7352
  697MOL0     O94018   4.012   1.658   9.490 -0.1103 -0.2031 -0.1043
  697MOL0     C94019   4.064   1.765   9.416  0.1063 -0.4880  0.0116
  697MOL0     C94020   4.203   1.710   9.364 -0.2008  1.0352  0.2425
  697MOL0     C94021   4.191   1.592   9.267 -0.0385  0.1704 -0.4240
  697MOL0     C94022   4.332   1.544   9.217 -0.2148 -0.4781 -0.8441
  697MOL0     C94023   4.409   1.648   9.160 -0.3523 -0.6733  0.0125
  697MOL0     C94024   4.452   1.744   9.105 -0.5484 -0.4120  0.3310
  697MOL0     C94025   3.841   1.559   9.617  0.8830 -0.2942 -0.8348
  697MOL0     C94026   3.721   1.568   9.695  0.1976  0.8274 -0.1542
  697MOL0     C94027   3.696   1.440   9.767 -0.8241  0.0637  0.2594
  697MOL0     H94028   3.303   1.363   9.745  0.1708 -1.7997  0.9021
  697MOL0     H94029   3.085   1.306   9.829 -0.6349 -0.2667  1.1979
  697MOL0     H94030   2.840   1.626  10.026  2.3400 -0.4747 -0.9239
  697MOL0     H94031   2.748   1.484   9.982  0.7073 -1.7594 -0.2989
  697MOL0     H94032   2.707   1.487  10.210 -0.7857  0.7343 -0.8995
  697MOL0     H94033   2.855   1.570  10.242  0.4316  2.5654 -3.7361
  697MOL0     H94034   2.973   1.349  10.243  0.0252 -1.0145 -1.0012
  697MOL0     H94035   2.836   1.276  10.159  0.7441  1.7395 -0.9720
  697MOL0     H94036   2.821   1.426  10.428  3.0436 -0.1457 -0.2663
  697MOL0     H94037   2.708   1.295  10.386  0.6739  0.2204  1.9210
  697MOL0     H94038   3.006   1.254  10.419 -0.7748  1.5666 -0.2944
  697MOL0     H94039   2.888   1.256  10.554 -2.0357  1.6708 -0.4742
  697MOL0     H94040   2.769   1.073  10.471 -1.1630 -1.9996 -1.1299
  697MOL0     H94041   2.853   1.076  10.314  1.5361 -2.3682  0.8830
  697MOL0     H94042   3.015   1.019  10.555  2.6748 -0.2293 -0.6143
  697MOL0     H94043   3.064   1.018  10.393 -0.0573 -0.0248  1.3545
  697MOL0     H94044   2.833   0.834  10.496 -0.5001 -2.7676 -2.1514
  697MOL0     H94045   2.902   0.846  10.332 -1.3511 -1.3507  0.9169
  697MOL0     H94046   3.139   0.757  10.271  2.3525  0.0754  0.7969
  697MOL0     H94047   3.349   0.466  10.435 -2.0254 -1.1519  0.2949
  697MOL0     H94048   3.260   0.465  10.278 -3.9397 -0.1945  0.6828
  697MOL0     H94049   3.363   0.660  10.205  0.9709  0.8472  0.2595
  697MOL0     H94050   3.445   0.688  10.371  4.3765 -1.7026 -0.4222
  697MOL0     H94051   3.500   0.466  10.180  0.0773  0.3943 -0.1456
  697MOL0     H94052   3.549   0.461  10.347 -2.3313 -0.0153  2.1861
  697MOL0     H94053   3.650   0.679  10.313  1.1167 -3.2690  2.7249
  697MOL0     H94054   3.602   0.697  10.146 -0.7329  4.2692  2.7798
  697MOL0     H94055   3.957   0.425  10.244 -2.6520  0.5791  0.5020
  697MOL0     H94056   4.197   0.510  10.222 -0.5711  1.0121  1.5838
  697MOL0     H94057   4.519   0.841  10.269  1.2321  0.6327 -0.3161
  697MOL0     H94058   4.748   0.906  10.205  1.9248 -0.0759 -1.2731
  697MOL0     H94059   4.976   0.571  10.043  0.2876 -0.1735  0.7065
  697MOL0     H94060   4.969   0.653   9.897 -0.9816 -2.3847  0.6525
  697MOL0     H94061   5.153   0.724  10.137 -1.4377 -2.0457  0.5108
  697MOL0     H94062   5.213   0.654   9.989  1.7840  0.8881  1.1933
  697MOL0     H94063   5.075   0.925  10.010  1.8348  1.4963 -0.7854
  697MOL0     H94064   5.251   0.902   9.992  0.6524  0.4813 -2.3849
  697MOL0     H94065   5.046   0.824   9.782 -1.0064  1.7705  0.5631
  697MOL0     H94066   5.219   0.789   9.767 -0.8544  0.5627 -0.4094
  697MOL0     H94067   5.269   1.031   9.796  0.4582  0.5905 -1.0891
  697MOL0     H94068   5.092   1.060   9.795 -1.7327 -1.9172 -0.8404
  697MOL0     H94069   5.252   0.940   9.564  1.4804 -0.3808 -0.2716
  697MOL0     H94070   5.080   0.992   9.556  1.2259  1.2829 -1.2570
  697MOL0     H94071   5.344   1.135   9.627 -2.5431 -0.5441  3.7719
  697MOL0     H94072   5.204   1.219   9.636  0.0337 -0.1044 -0.5670
  697MOL0     H94073   5.296   1.283   9.416 -1.1516  0.6487 -2.5484
  697MOL0     H94074   5.294   1.115   9.362  1.6777  0.0532  0.4889
  697MOL0     H94075   4.757   0.564   9.933  1.0553 -0.8776 -0.5577
  697MOL0     H94076   4.535   0.517   9.988  0.3928 -2.9565  3.1708
  697MOL0     H94077   4.038   0.873  10.070 -0.2728  0.2059 -0.7472
  697MOL0     H94078   3.813   0.792  10.097 -0.8231 -2.3962 -3.8648
  697MOL0     H94079   3.063   1.659  10.053  0.8325  1.1114 -0.7388
  697MOL0     H94080   3.297   1.723   9.996 -0.4405  2.7346 -3.5994
  697MOL0     H94081   3.617   1.873   9.621 -0.3803 -0.4830 -0.2637
  697MOL0     H94082   3.828   1.865   9.487 -0.6590  1.0559  0.4556
  697MOL0     H94083   4.084   1.855   9.475 -1.6213  0.7178 -1.1630
  697MOL0     H94084   4.001   1.794   9.332 -0.3497  0.8037  0.7747
  697MOL0     H94085   4.263   1.674   9.449 -0.1243  1.5552  0.4125
  697MOL0     H94086   4.251   1.793   9.312 -2.2608  1.7267 -0.6597
  697MOL0     H94087   4.127   1.621   9.183 -2.1474 -1.3953  0.5577
  697MOL0     H94088   4.140   1.512   9.321 -1.4815  0.9966 -0.5093
  697MOL0     H94089   4.391   1.514   9.304 -0.3088 -1.2570 -1.0447
  697MOL0     H94090   4.320   1.459   9.150 -0.1495  0.2506 -1.8082
  697MOL0     H94091   4.492   1.827   9.050 -0.0140  0.0687  1.4045
  697MOL0     H94092   3.903   1.470   9.622 -1.2165 -1.7721  0.8661
  697MOL0     H94093   3.712   1.451   9.875  0.6599  0.8328 -0.0044
  697MOL0     H94094   3.601   1.398   9.734  0.2101 -2.9385  0.7894
  697MOL0     H94095   3.769   1.361   9.746  0.6207  0.5670  2.8565
  698MOL0     O94096   0.443   1.020   4.102  0.2002  0.7161  0.7445
  698MOL0     C94097   0.404   0.912   4.138 -0.3065 -0.4349  0.0985
  698MOL0     O94098   0.480   0.822   4.206  0.4098 -0.2327  0.2512
  698MOL0     C94099   0.582   0.869   4.281  0.0667  0.1242  0.1738
  698MOL0     C94100   0.579   0.986   4.360 -0.3135 -1.1752  0.6211
  698MOL0     C94101   0.696   1.029   4.425 -0.9289 -0.1544 -0.1200
  698MOL0     C94102   0.816   0.964   4.414 -0.5839 -0.0658  0.1829
  698MOL0     O94103   0.927   1.027   4.469 -0.3692  0.0962 -0.3238
  698MOL0     C94104   1.050   0.949   4.459 -0.1278  0.2552 -0.5470
  698MOL0     C94105   1.165   1.013   4.531 -0.2582 -0.2715  0.2780
  698MOL0     C94106   1.295   0.942   4.515  0.3381 -0.0236  0.4344
  698MOL0     C94107   1.404   1.015   4.595  0.6267  0.1276  0.0990
  698MOL0     C94108   1.530   0.934   4.573 -0.5839  0.4722  0.1349
  698MOL0     C94109   1.585   0.933   4.425  0.3638 -0.6900  0.1539
  698MOL0     C94110   1.743   0.911   4.424 -0.3969  0.7583 -1.2872
  698MOL0     C94111   1.803   0.878   4.290 -0.6049  0.0032  0.2467
  698MOL0     N94112   1.946   0.899   4.299 -0.3739 -0.4228 -0.3262
  698MOL0     C94113   2.038   0.821   4.369  0.4366 -1.1092  0.3912
  698MOL0     C94114   2.160   0.863   4.335 -0.4748  0.5189 -0.7041
  698MOL0     C94115   2.280   0.796   4.383  0.1698  0.6178  0.2053
  698MOL0     C94116   2.403   0.855   4.324 -0.8542 -0.0955 -0.5566
  698MOL0     C94117   2.538   0.796   4.382 -0.3741  0.3689  0.2754
  698MOL0     C94118   2.547   0.645   4.361  0.3281 -0.1358 -0.3478
  698MOL0     O94119   2.535   0.615   4.222  0.2754  0.2958 -0.0076
  698MOL0     C94120   2.648   0.643   4.143  0.2247  0.4373  0.1054
  698MOL0     C94121   2.656   0.759   4.069 -0.1018 -0.1498  0.1002
  698MOL0     C94122   2.753   0.799   3.989  0.9232 -0.3102  0.0980
  698MOL0     C94123   2.874   0.722   3.998  0.2786  0.2427 -0.4183
  698MOL0     C94124   2.991   0.758   3.921  0.9440  0.0058 -1.0445
  698MOL0     O94125   3.006   0.884   3.893 -0.3658 -0.2973  0.6899
  698MOL0     C94126   3.099   0.946   3.809  0.2101 -0.4447  0.4757
  698MOL0     C94127   3.077   1.072   3.749  0.0410  0.1852 -0.2155
  698MOL0     C94128   3.180   1.148   3.686  0.7596  0.0688  0.1189
  698MOL0     C94129   3.310   1.104   3.685  0.4452 -0.0711  0.5187
  698MOL0     O94130   3.395   1.184   3.619  0.3452  0.3871 -0.2299
  698MOL0     C94131   3.495   1.109   3.545 -0.0131  0.6076 -0.5555
  698MOL0     C94132   3.564   1.213   3.454 -0.1750 -0.2314  0.7437
  698MOL0     C94133   3.630   1.326   3.535 -0.9070  0.3460 -0.4479
  698MOL0     C94134   3.736   1.404   3.450 -0.2653 -0.0461 -0.1128
  698MOL0     C94135   3.766   1.531   3.511 -0.3590 -0.0353  0.8646
  698MOL0     C94136   3.872   1.605   3.435  0.0336  0.3213  0.1767
  698MOL0     C94137   3.931   1.722   3.508 -0.6293 -0.4577 -0.2106
  698MOL0     C94138   3.839   1.840   3.540  0.0966  0.3000  0.4978
  698MOL0    Cl94139   3.912   1.967   3.431  0.1573 -0.2841 -0.3014
  698MOL0     C94140   3.330   0.970   3.743 -0.3099  0.8339 -0.4775
  698MOL0     C94141   3.229   0.894   3.806 -0.7196  0.2066  0.0820
  698MOL0     O94142   3.064   0.668   3.887  0.9569  0.7877  0.0308
  698MOL0     C94143   2.867   0.601   4.066  1.0405 -0.3334  0.2826
  698MOL0     C94144   2.756   0.558   4.136 -1.3029  0.2590 -0.4238
  698MOL0     N94145   2.147   0.969   4.249 -0.1071 -0.0758  0.3915
  698MOL0     N94146   2.015   0.993   4.233  0.4559 -0.0158  0.0472
  698MOL0     C94147   0.815   0.844   4.344 -0.4615 -0.0857 -0.2973
  698MOL0     C94148   0.702   0.795   4.279  0.3252  0.3030  0.2840
  698MOL0     C94149   0.259   0.881   4.118 -0.1113  0.0308  0.0241
  698MOL0     C94150   0.224   0.748   4.128  0.1935  0.2914  0.1681
  698MOL0     C94151   0.092   0.705   4.113 -0.3707  0.8569 -0.2270
  698MOL0     C94152   0.005   0.785   4.046 -0.7476 -0.8659  0.0673
  698MOL0     O94153  -0.114   0.745   3.998  0.1884 -0.0497  0.3533
  698MOL0     C94154  -0.177   0.633   4.064  0.1160  0.0468  0.1183
  698MOL0     C94155  -0.324   0.638   4.060  0.4095 -0.7705 -0.0692
  698MOL0     C94156  -0.393   0.566   4.182 -0.9077 -0.4113  0.3483
  698MOL0     C94157  -0.543   0.545   4.160 -0.3379 -0.3163 -0.1184
  698MOL0     C94158  -0.618   0.667   4.156  0.0527 -0.7394  0.7834
  698MOL0     C94159  -0.671   0.781   4.154  0.3167  0.2405  0.1954
  698MOL0     C94160   0.041   0.920   4.039 -0.4282 -0.5475 -1.1322
  698MOL0     C94161   0.166   0.970   4.074  0.1591 -0.4917  0.2117
  698MOL0     C94162   0.190   1.115   4.055  0.5026 -0.4746  0.6954
  698MOL0     H94163   0.496   1.056   4.361  0.5563 -0.0137 -1.3049
  698MOL0     H94164   0.695   1.122   4.482  0.0817 -0.2632  0.0854
  698MOL0     H94165   1.034   0.855   4.512  2.4963 -0.1181 -0.2693
  698MOL0     H94166   1.084   0.938   4.355  2.9292  1.2883  0.2578
  698MOL0     H94167   1.150   1.023   4.639  0.2151 -1.2802  0.4522
  698MOL0     H94168   1.172   1.116   4.495 -1.2931 -0.0823  0.5658
  698MOL0     H94169   1.319   0.947   4.409 -0.9205  0.8704  0.1752
  698MOL0     H94170   1.269   0.838   4.540 -2.7348  0.2439 -1.1728
  698MOL0     H94171   1.426   1.117   4.564 -1.7485  1.7434  3.2161
  698MOL0     H94172   1.381   1.030   4.700  0.6685  3.0182 -0.2432
  698MOL0     H94173   1.600   0.977   4.645 -1.8647  0.1609  1.6124
  698MOL0     H94174   1.515   0.829   4.600  1.0883  0.3363  0.6467
  698MOL0     H94175   1.536   0.849   4.375  1.3481 -0.5244 -1.1354
  698MOL0     H94176   1.558   1.026   4.375 -0.8263 -1.1929 -0.1847
  698MOL0     H94177   1.767   0.823   4.484 -1.5044  1.7672  0.7237
  698MOL0     H94178   1.797   0.996   4.465  0.0954  1.0206 -2.4303
  698MOL0     H94179   1.769   0.785   4.244 -1.5253  0.9641 -1.1004
  698MOL0     H94180   1.771   0.951   4.216  1.0364 -0.4656 -0.9920
  698MOL0     H94181   2.004   0.736   4.428 -0.6317 -1.4642 -0.6782
  698MOL0     H94182   2.291   0.779   4.490 -0.4829 -0.7588  0.0667
  698MOL0     H94183   2.277   0.696   4.340 -2.4889  0.0308  1.5976
  698MOL0     H94184   2.402   0.852   4.214  0.9267  0.2429 -0.6039
  698MOL0     H94185   2.403   0.961   4.351  1.8127 -0.0431 -0.4911
  698MOL0     H94186   2.542   0.821   4.488  2.6652  0.0176  0.3254
  698MOL0     H94187   2.625   0.842   4.335  0.9481 -3.1274 -1.0777
  698MOL0     H94188   2.469   0.595   4.419 -2.2028  1.6703 -1.9602
  698MOL0     H94189   2.647   0.623   4.399  0.0858 -1.9381 -0.6752
  698MOL0     H94190   2.573   0.829   4.077  1.5872  2.0812 -0.8350
  698MOL0     H94191   2.735   0.885   3.925  3.0490  0.0409 -0.1030
  698MOL0     H94192   2.985   1.128   3.757  1.2517  2.2725 -0.1970
  698MOL0     H94193   3.155   1.244   3.641  0.5342 -0.9150 -1.9821
  698MOL0     H94194   3.569   1.061   3.609  0.4118 -1.4555 -2.4563
  698MOL0     H94195   3.467   1.019   3.489  3.1403 -0.9143  0.0990
  698MOL0     H94196   3.636   1.164   3.387 -0.5824  0.5085 -0.2643
  698MOL0     H94197   3.485   1.253   3.389  0.8125  1.5785  0.5737
  698MOL0     H94198   3.549   1.392   3.566 -1.2853 -1.3082  2.5033
  698MOL0     H94199   3.675   1.284   3.625 -0.3887  1.1947 -0.2954
  698MOL0     H94200   3.686   1.410   3.353 -3.0265 -0.6701  1.1628
  698MOL0     H94201   3.821   1.337   3.435  0.0745  0.6801 -1.6126
  698MOL0     H94202   3.812   1.515   3.609  0.7545 -1.3531  0.1513
  698MOL0     H94203   3.688   1.607   3.518  2.1719  2.7156  1.1950
  698MOL0     H94204   3.950   1.533   3.414 -1.1856 -1.5916  1.8023
  698MOL0     H94205   3.828   1.644   3.343 -1.4951  1.2016  1.2150
  698MOL0     H94206   4.019   1.755   3.451  0.2471  0.7154  1.6741
  698MOL0     H94207   3.971   1.683   3.602 -0.2877  0.7150  0.1559
  698MOL0     H94208   3.738   1.820   3.501  0.4321  0.8618 -0.7110
  698MOL0     H94209   3.834   1.875   3.643 -0.4949  1.8337 -0.0207
  698MOL0     H94210   3.427   0.922   3.754 -1.1250 -0.6904  0.3361
  698MOL0     H94211   3.245   0.804   3.865  0.9372 -0.9395 -1.9741
  698MOL0     H94212   2.956   0.540   4.057  2.6562  1.8808  0.2975
  698MOL0     H94213   2.753   0.469   4.198  0.6970  0.8389  0.6214
  698MOL0     H94214   0.906   0.786   4.330 -0.9977 -1.0434  0.0495
  698MOL0     H94215   0.703   0.714   4.207 -0.5707  0.4415  0.1005
  698MOL0     H94216   0.305   0.680   4.152 -0.9720 -0.3781  2.4265
  698MOL0     H94217   0.066   0.600   4.124  0.9737  0.4290 -0.8646
  698MOL0     H94218  -0.146   0.634   4.169 -0.4359  0.6376  0.2849
  698MOL0     H94219  -0.153   0.540   4.013  0.7209  1.4351 -2.2994
  698MOL0     H94220  -0.356   0.599   3.963  1.1348  3.0525 -2.0512
  698MOL0     H94221  -0.361   0.741   4.069  1.2529 -0.6038  2.0090
  698MOL0     H94222  -0.374   0.628   4.270  1.7556  0.8868 -1.0184
  698MOL0     H94223  -0.352   0.468   4.205 -1.9988 -0.1133  4.1732
  698MOL0     H94224  -0.552   0.495   4.063  0.0157 -4.1637  1.6105
  698MOL0     H94225  -0.588   0.476   4.233 -0.6482  0.5830  0.5510
  698MOL0     H94226  -0.698   0.881   4.130  1.8478  0.5976 -0.1436
  698MOL0     H94227  -0.025   0.985   3.982 -0.0486 -0.2845 -1.2805
  698MOL0     H94228   0.099   1.176   4.054  2.1167  2.1164  0.8995
  698MOL0     H94229   0.250   1.140   4.144  1.7963 -0.8501 -0.0378
  698MOL0     H94230   0.247   1.131   3.963 -0.4655 -5.2928 -1.0295
  699MOL0     O94231   8.579   3.336  10.791 -0.0405  0.3069  0.2949
  699MOL0     C94232   8.477   3.322  10.859 -0.0057  0.4509  0.0065
  699MOL0     O94233   8.473   3.340  11.001  0.3813 -0.0421 -0.3963
  699MOL0     C94234   8.594   3.375  11.055 -0.1198 -0.0267  0.6453
  699MOL0     C94235   8.651   3.504  11.034  0.4570 -0.2938  0.1044
  699MOL0     C94236   8.773   3.539  11.091 -0.2268 -0.1931  0.9592
  699MOL0     C94237   8.843   3.443  11.172  0.1103 -0.1852  0.1463
  699MOL0     O94238   8.971   3.470  11.217  0.1739 -0.1150  0.4328
  699MOL0     C94239   9.074   3.381  11.176  0.6596 -0.9782  0.2056
  699MOL0     C94240   9.187   3.409  11.274  0.0723 -0.1922 -0.3126
  699MOL0     C94241   9.269   3.533  11.221 -0.0893 -0.4584  0.6766
  699MOL0     C94242   9.410   3.523  11.270 -0.3835 -1.0843 -0.5394
  699MOL0     C94243   9.440   3.573  11.422  0.8307  0.2970  0.4947
  699MOL0     C94244   9.583   3.522  11.477  0.7869  0.7193  0.2580
  699MOL0     C94245   9.687   3.635  11.458 -0.4266  0.4142  0.6156
  699MOL0     C94246   9.833   3.591  11.510 -0.9489  0.1922  1.0616
  699MOL0     N94247   9.838   3.585  11.652  0.7266  0.1373 -0.2258
  699MOL0     C94248   9.937   3.525  11.724  0.6586  0.5693  0.5114
  699MOL0     C94249   9.902   3.531  11.856 -0.2053  0.4095 -0.2755
  699MOL0     C94250   9.980   3.461  11.972  1.4711 -0.5156 -0.6354
  699MOL0     C94251  10.094   3.555  12.011  0.3170 -0.6412  0.2436
  699MOL0     C94252  10.178   3.509  12.130  0.5978 -0.1093  1.0199
  699MOL0     C94253  10.238   3.373  12.100  0.1110  0.0950 -0.8052
  699MOL0     O94254  10.286   3.355  11.967 -0.3114  0.3493  0.0838
  699MOL0     C94255  10.410   3.393  11.919 -0.0599  0.0005 -0.0605
  699MOL0     C94256  10.435   3.349  11.788 -0.1801  0.3154  1.0825
  699MOL0     C94257  10.562   3.372  11.737  0.0618  0.5399 -0.6337
  699MOL0     C94258  10.656   3.437  11.820  0.1156  0.3126  0.6146
  699MOL0     C94259  10.796   3.456  11.770  0.4435  0.1637 -0.2663
  699MOL0     O94260  10.896   3.472  11.864  0.0351 -0.0536 -0.3363
  699MOL0     C94261  11.023   3.464  11.816 -0.5253  0.1341  0.5394
  699MOL0     C94262  11.069   3.393  11.705 -0.3405 -1.1746  0.0243
  699MOL0     C94263  11.209   3.397  11.668  0.0923  0.0578  0.5727
  699MOL0     C94264  11.299   3.466  11.749 -0.6532 -0.9157  0.1381
  699MOL0     O94265  11.426   3.475  11.705  0.3412 -0.1954 -0.5223
  699MOL0     C94266  11.512   3.556  11.779 -0.0261 -0.1897 -0.0310
  699MOL0     C94267  11.639   3.591  11.693  0.1091  0.5660 -0.1907
  699MOL0     C94268  11.604   3.681  11.569  0.1290  0.8173 -0.1956
  699MOL0     C94269  11.732   3.716  11.493 -0.7609 -0.0264 -0.0561
  699MOL0     C94270  11.704   3.813  11.371  0.5358  0.2920 -0.1588
  699MOL0     C94271  11.825   3.881  11.312 -0.2113 -0.3701 -0.6096
  699MOL0     C94272  11.802   3.987  11.196 -0.5714  0.5722 -0.5120
  699MOL0     C94273  11.755   3.911  11.074 -0.4787 -0.0767  0.2936
  699MOL0    Cl94274  11.746   4.039  10.951  0.1926 -0.2948  0.1289
  699MOL0     C94275  11.257   3.513  11.875  0.1748  0.4275 -0.4678
  699MOL0     C94276  11.119   3.519  11.906  0.5129  0.8957 -0.0475
  699MOL0     O94277  10.804   3.452  11.653 -0.0690  0.8483  0.6875
  699MOL0     C94278  10.620   3.482  11.950 -0.7979 -1.1641  0.7954
  699MOL0     C94279  10.497   3.460  11.999 -0.0942 -0.4902  0.1625
  699MOL0     N94280   9.787   3.604  11.861 -0.0519  0.1264  0.4327
  699MOL0     N94281   9.751   3.636  11.739  0.2361  0.2597  0.0113
  699MOL0     C94282   8.787   3.319  11.192  0.3653 -0.0958 -0.8563
  699MOL0     C94283   8.660   3.282  11.133 -0.5043  0.0466 -0.2009
  699MOL0     C94284   8.351   3.286  10.790  0.2887 -0.3693  0.4284
  699MOL0     C94285   8.271   3.189  10.849  0.3003 -0.1271  0.4840
  699MOL0     C94286   8.157   3.139  10.794  0.1056 -1.2443 -0.9124
  699MOL0     C94287   8.112   3.203  10.679  0.1524  0.3121  0.0484
  699MOL0     O94288   8.004   3.155  10.606  0.2022  0.2530 -0.0681
  699MOL0     C94289   7.915   3.048  10.669 -0.2963 -0.6965  0.9866
  699MOL0     C94290   7.791   3.030  10.568  0.0006 -0.8901 -0.4064
  699MOL0     C94291   7.694   2.918  10.593 -0.1135 -0.1748  1.2627
  699MOL0     C94292   7.632   2.892  10.452 -0.4217  0.1265  0.4002
  699MOL0     C94293   7.488   2.858  10.453  0.2552  0.3551 -0.4654
  699MOL0     C94294   7.369   2.835  10.468  0.1707 -0.1693 -0.5695
  699MOL0     C94295   8.188   3.300  10.613  0.2715  0.0462 -0.8258
  699MOL0     C94296   8.309   3.336  10.665 -0.1471  0.3821  0.0887
  699MOL0     C94297   8.392   3.429  10.589 -0.2151  0.4444  0.7735
  699MOL0     H94298   8.602   3.580  10.974  1.1499  0.5978  0.6481
  699MOL0     H94299   8.825   3.628  11.057 -0.2761 -0.1265  1.0583
  699MOL0     H94300   9.041   3.277  11.185  0.4948 -0.8675  0.9415
  699MOL0     H94301   9.103   3.389  11.071  1.5360  1.3300  0.5759
  699MOL0     H94302   9.252   3.321  11.270 -1.0965 -1.2420  2.1392
  699MOL0     H94303   9.144   3.424  11.373 -1.8156  0.3650 -1.1735
  699MOL0     H94304   9.227   3.628  11.254 -0.0099  0.2558 -1.1396
  699MOL0     H94305   9.278   3.526  11.112  2.0404 -0.3943  0.8147
  699MOL0     H94306   9.452   3.422  11.260 -0.4209 -1.0305 -1.3195
  699MOL0     H94307   9.469   3.578  11.196 -0.4726 -0.5380 -0.2080
  699MOL0     H94308   9.426   3.681  11.421  1.2537  0.3731  1.2480
  699MOL0     H94309   9.356   3.534  11.481  0.6317 -1.2903 -0.7522
  699MOL0     H94310   9.580   3.492  11.582  1.7807  1.0609  0.4001
  699MOL0     H94311   9.617   3.438  11.415 -0.4034  0.4010  0.0250
  699MOL0     H94312   9.646   3.716  11.518  0.3505  0.6363  0.8647
  699MOL0     H94313   9.681   3.657  11.351 -2.0059 -0.0458  0.5912
  699MOL0     H94314   9.876   3.496  11.479  4.8151  1.9653  2.4108
  699MOL0     H94315   9.899   3.674  11.482 -0.4091  0.6916  3.6434
  699MOL0     H94316  10.015   3.466  11.678 -2.8150 -2.5911 -1.9411
  699MOL0     H94317   9.922   3.432  12.060  0.4357  3.3779  0.1342
  699MOL0     H94318  10.025   3.368  11.936 -0.2860 -2.4023  1.7682
  699MOL0     H94319  10.155   3.587  11.927  0.4519  0.3361  0.6986
  699MOL0     H94320  10.057   3.652  12.045 -0.6723 -1.9415  3.3341
  699MOL0     H94321  10.113   3.510  12.219  1.3777 -2.1234  1.6596
  699MOL0     H94322  10.261   3.578  12.144  0.2188  0.6556 -0.3267
  699MOL0     H94323  10.159   3.297  12.110 -0.5143  0.3865 -2.8997
  699MOL0     H94324  10.313   3.351  12.176  0.1937 -1.9983 -1.4107
  699MOL0     H94325  10.353   3.314  11.727 -0.7137 -0.6923  2.3370
  699MOL0     H94326  10.585   3.332  11.639 -0.0353  2.3894 -1.4639
  699MOL0     H94327  11.001   3.332  11.647 -0.8833 -1.3987  0.8765
  699MOL0     H94328  11.241   3.354  11.574 -0.4362 -1.1255  0.9122
  699MOL0     H94329  11.462   3.646  11.813 -0.0932 -1.2231  2.9163
  699MOL0     H94330  11.551   3.519  11.875 -3.0628  1.8855  2.1969
  699MOL0     H94331  11.713   3.632  11.763 -1.5882 -0.2191  2.2059
  699MOL0     H94332  11.688   3.498  11.663 -1.2098  0.2410 -1.4136
  699MOL0     H94333  11.536   3.621  11.509 -0.1935 -0.6681  1.5507
  699MOL0     H94334  11.563   3.775  11.607  2.3688  1.1659  1.6188
  699MOL0     H94335  11.797   3.632  11.467  1.2160  1.3174  0.2841
  699MOL0     H94336  11.794   3.784  11.552  0.0044 -0.2908 -0.5518
  699MOL0     H94337  11.631   3.887  11.405 -2.7131 -2.8556  0.3119
  699MOL0     H94338  11.654   3.748  11.299 -1.8899  2.1557 -0.2829
  699MOL0     H94339  11.864   3.936  11.399 -0.0017 -2.3541  0.6254
  699MOL0     H94340  11.898   3.805  11.285 -1.6981 -1.9269 -0.4226
  699MOL0     H94341  11.897   4.039  11.184  0.9282 -2.3245 -2.0320
  699MOL0     H94342  11.736   4.064  11.237 -1.5976 -0.6556  0.2389
  699MOL0     H94343  11.829   3.835  11.045  0.0842  0.7927 -0.5897
  699MOL0     H94344  11.657   3.871  11.102  0.4433 -0.3859  3.6201
  699MOL0     H94345  11.318   3.563  11.950  0.8048 -0.5531 -0.3176
  699MOL0     H94346  11.094   3.574  11.996 -0.9505 -1.3433  1.0111
  699MOL0     H94347  10.695   3.533  12.010  0.3017 -1.2583 -0.4473
  699MOL0     H94348  10.480   3.481  12.104 -4.1470  0.3625 -0.4816
  699MOL0     H94349   8.831   3.242  11.255 -1.2929  1.9966  3.2822
  699MOL0     H94350   8.615   3.185  11.149  2.4035 -1.7153 -1.7954
  699MOL0     H94351   8.313   3.148  10.941  0.0518 -1.3474  0.0780
  699MOL0     H94352   8.099   3.065  10.847 -2.1837  0.0408 -1.4876
  699MOL0     H94353   7.886   3.081  10.769  0.2809  0.5637  0.7662
  699MOL0     H94354   7.980   2.962  10.684  2.3591  0.8005 -0.9778
  699MOL0     H94355   7.833   3.023  10.467 -2.8757 -3.2161 -1.5807
  699MOL0     H94356   7.741   3.127  10.576  2.2514  0.1663  2.1191
  699MOL0     H94357   7.617   2.943  10.666 -2.6721 -3.1115 -0.2387
  699MOL0     H94358   7.758   2.838  10.631  0.5090 -1.8678 -2.7908
  699MOL0     H94359   7.644   2.978  10.386  1.5823  0.3181  0.9431
  699MOL0     H94360   7.694   2.817  10.402  0.3869  1.7526 -1.1397
  699MOL0     H94361   7.263   2.819  10.466  0.0923  0.2322  0.0706
  699MOL0     H94362   8.143   3.342  10.523 -0.3504 -0.8910 -0.9753
  699MOL0     H94363   8.334   3.498  10.527 -1.6288 -0.6332  0.8626
  699MOL0     H94364   8.454   3.492  10.654  0.0947  0.3815  0.5420
  699MOL0     H94365   8.453   3.371  10.519 -2.0771 -0.4090 -0.2055
  700MOL0     O94366  10.391   1.323   1.043 -0.3666  0.5542  0.1294
  700MOL0     C94367  10.413   1.326   0.924 -0.1358  0.0326  0.0548
  700MOL0     O94368  10.538   1.330   0.862  0.7403 -0.7604 -0.8327
  700MOL0     C94369  10.654   1.300   0.927  0.6676 -0.4122  0.2167
  700MOL0     C94370  10.672   1.210   1.031 -0.1817  0.8110  0.0495
  700MOL0     C94371  10.800   1.189   1.079  0.1839 -0.2542 -0.0496
  700MOL0     C94372  10.904   1.265   1.022 -0.5913 -0.3679  0.4039
  700MOL0     O94373  11.032   1.242   1.066  0.4155 -0.4553  0.3282
  700MOL0     C94374  11.104   1.139   0.994  0.4108 -0.4040  0.0828
  700MOL0     C94375  11.217   1.187   0.898 -0.0987 -0.2644 -0.5190
  700MOL0     C94376  11.285   1.067   0.837  0.3272  0.2703  0.8456
  700MOL0     C94377  11.353   1.100   0.708  0.7109 -0.2762 -0.9375
  700MOL0     C94378  11.436   0.978   0.655  0.4134 -0.0236 -1.0421
  700MOL0     C94379  11.434   0.979   0.507 -0.7511 -0.2563 -0.2939
  700MOL0     C94380  11.509   0.852   0.459 -0.1249  0.6753 -0.6394
  700MOL0     C94381  11.557   0.857   0.316  0.3899 -0.6117  0.1728
  700MOL0     N94382  11.665   0.953   0.279 -1.1493  0.5286 -0.5217
  700MOL0     C94383  11.792   0.947   0.329  0.2477 -0.7278  0.4654
  700MOL0     C94384  11.848   1.061   0.282 -0.8592 -0.5561  0.2954
  700MOL0     C94385  11.996   1.095   0.298 -0.6518  0.0480  0.1311
  700MOL0     C94386  12.014   1.196   0.406  0.1988  0.4989 -0.6919
  700MOL0     C94387  12.083   1.146   0.535 -0.8613 -0.3675 -0.2477
  700MOL0     C94388  12.238   1.131   0.534  0.3612  0.4808  0.5503
  700MOL0     O94389  12.318   1.218   0.611  0.6391  0.4534  0.0972
  700MOL0     C94390  12.458   1.215   0.622 -0.9957  0.4547  0.1361
  700MOL0     C94391  12.548   1.157   0.525 -0.3781 -0.1256 -0.7026
  700MOL0     C94392  12.691   1.187   0.528 -0.3962  0.4980 -0.0684
  700MOL0     C94393  12.742   1.260   0.630 -0.8274 -0.1860 -0.7596
  700MOL0     C94394  12.885   1.298   0.647 -0.4385  0.0718 -0.3290
  700MOL0     O94395  12.969   1.206   0.617 -0.1624 -0.9871  0.1419
  700MOL0     C94396  13.097   1.251   0.607 -0.0169  0.6910 -0.3079
  700MOL0     C94397  13.165   1.250   0.490  0.8093 -0.1130  0.5015
  700MOL0     C94398  13.298   1.277   0.476 -0.4869  0.6662 -0.1053
  700MOL0     C94399  13.381   1.301   0.582  0.0272 -0.6388  0.0311
  700MOL0     O94400  13.515   1.322   0.565  0.2710  0.7934  0.9104
  700MOL0     C94401  13.604   1.208   0.566 -0.5819  1.0151 -0.2902
  700MOL0     C94402  13.749   1.258   0.547  0.2438  0.6037 -0.7480
  700MOL0     C94403  13.839   1.138   0.518  0.7480 -0.0446 -0.7814
  700MOL0     C94404  13.985   1.178   0.507  0.4956 -0.1702  0.2777
  700MOL0     C94405  14.070   1.052   0.469 -0.0877 -0.5554 -1.0392
  700MOL0     C94406  14.221   1.083   0.438  0.0708  0.3758  0.2682
  700MOL0     C94407  14.301   0.954   0.394  0.2353  1.1084 -1.4683
  700MOL0     C94408  14.453   0.996   0.356 -0.1754  0.1076 -0.1948
  700MOL0    Cl94409  14.543   0.840   0.324 -0.5292 -0.0580 -0.3446
  700MOL0     C94410  13.320   1.294   0.708  0.1063 -0.4316  0.1969
  700MOL0     C94411  13.183   1.268   0.719 -0.8336 -0.1692 -0.1008
  700MOL0     O94412  12.916   1.418   0.666 -0.3048 -0.4998  0.2487
  700MOL0     C94413  12.657   1.312   0.720  0.2356 -0.3278 -0.2025
  700MOL0     C94414  12.519   1.289   0.719  0.4582  0.4088  0.0971
  700MOL0     N94415  11.765   1.131   0.199  0.3055  0.4159 -0.6900
  700MOL0     N94416  11.653   1.065   0.201  0.6152 -0.4256 -0.5331
  700MOL0     C94417  10.877   1.375   0.940 -1.1077 -0.1238 -0.6295
  700MOL0     C94418  10.753   1.386   0.890  0.1128 -0.4278 -0.2479
  700MOL0     C94419  10.295   1.361   0.842  0.2128 -0.2280  0.1402
  700MOL0     C94420  10.170   1.299   0.875  0.4309 -0.3311  0.6358
  700MOL0     C94421  10.055   1.324   0.791  0.2848  0.4382  0.8442
  700MOL0     C94422  10.058   1.417   0.693  0.4124 -0.6291  0.3975
  700MOL0     O94423   9.943   1.446   0.625 -0.7375  0.0408  0.8138
  700MOL0     C94424   9.830   1.461   0.717 -0.0324  0.0873  0.1188
  700MOL0     C94425   9.730   1.555   0.661  0.5375 -0.2831 -0.0104
  700MOL0     C94426   9.593   1.542   0.731  0.6822 -0.2935 -0.5688
  700MOL0     C94427   9.508   1.676   0.725  0.1249 -0.9312 -0.1913
  700MOL0     C94428   9.399   1.653   0.823  0.2326  0.2626  1.0322
  700MOL0     C94429   9.329   1.639   0.914  0.3040  0.0500  0.1490
  700MOL0     C94430  10.179   1.475   0.660  0.1682  0.4393  1.0219
  700MOL0     C94431  10.299   1.449   0.725  0.5521 -1.1912 -0.0607
  700MOL0     C94432  10.418   1.524   0.660  0.9283 -0.2496  0.4802
  700MOL0     H94433  10.588   1.145   1.056  2.1642 -1.8914  1.5139
  700MOL0     H94434  10.816   1.106   1.148 -2.9548 -1.3546 -0.4861
  700MOL0     H94435  11.147   1.071   1.068  2.7299  0.8164 -0.0450
  700MOL0     H94436  11.030   1.079   0.941 -0.7367 -2.1728  3.3555
  700MOL0     H94437  11.292   1.240   0.959 -1.1325 -0.4584  0.9778
  700MOL0     H94438  11.181   1.256   0.821  0.0224 -0.1700 -0.4923
  700MOL0     H94439  11.221   0.980   0.814  3.6351 -2.5315  1.4414
  700MOL0     H94440  11.363   1.026   0.902  1.3834 -0.0052 -0.5513
  700MOL0     H94441  11.291   1.142   0.628  1.0327  2.3953  0.1065
  700MOL0     H94442  11.431   1.175   0.724  1.3831 -0.5436 -2.7663
  700MOL0     H94443  11.532   0.983   0.707 -0.6222  0.3216  0.9002
  700MOL0     H94444  11.393   0.883   0.687 -0.6904  0.2730 -1.5952
  700MOL0     H94445  11.333   0.964   0.468 -1.6663 -0.9630  2.1452
  700MOL0     H94446  11.485   1.071   0.476 -2.7709  1.0855  0.1388
  700MOL0     H94447  11.437   0.771   0.471  1.0277 -0.4222 -0.8796
  700MOL0     H94448  11.593   0.842   0.529 -1.3556  0.1175  0.7916
  700MOL0     H94449  11.599   0.760   0.289  1.5159  0.3179 -1.6344
  700MOL0     H94450  11.468   0.894   0.262 -0.4258 -0.8849  1.2957
  700MOL0     H94451  11.835   0.880   0.403  0.1910 -0.6175  0.5985
  700MOL0     H94452  12.065   1.009   0.303 -0.5557 -0.1772 -3.1897
  700MOL0     H94453  12.022   1.130   0.198  3.1986 -0.1205  0.9016
  700MOL0     H94454  12.072   1.280   0.367 -2.9520  3.0663 -0.2575
  700MOL0     H94455  11.918   1.241   0.434  0.3321 -0.0576  0.6976
  700MOL0     H94456  12.023   1.058   0.562  0.9946 -0.7905  2.8836
  700MOL0     H94457  12.066   1.219   0.615 -0.8072 -1.3709  0.6961
  700MOL0     H94458  12.266   1.131   0.428 -3.3873 -1.0276 -0.6100
  700MOL0     H94459  12.264   1.033   0.574  4.3099  1.1452  0.0055
  700MOL0     H94460  12.509   1.087   0.451  2.2893 -2.3629 -0.1683
  700MOL0     H94461  12.758   1.152   0.451  1.2082 -0.1154  1.5480
  700MOL0     H94462  13.100   1.244   0.403 -1.2707  3.1454  1.6582
  700MOL0     H94463  13.347   1.288   0.380 -0.1075 -3.0524 -0.4843
  700MOL0     H94464  13.593   1.168   0.667  0.1678  3.3254  0.7913
  700MOL0     H94465  13.578   1.136   0.489  0.3178 -0.8562  1.0829
  700MOL0     H94466  13.751   1.333   0.468  0.7732 -0.5850 -1.9030
  700MOL0     H94467  13.774   1.310   0.639  2.0074 -1.2426 -0.1302
  700MOL0     H94468  13.840   1.052   0.587 -0.6694 -0.7592 -1.6096
  700MOL0     H94469  13.805   1.084   0.429 -0.2026  0.4876 -0.7568
  700MOL0     H94470  14.018   1.226   0.600  2.8220 -3.1337  1.1420
  700MOL0     H94471  13.981   1.258   0.432 -0.1530 -0.4758 -0.0227
  700MOL0     H94472  14.033   1.000   0.380 -0.7715 -0.4572 -0.8207
  700MOL0     H94473  14.070   0.968   0.540 -1.0197  0.3820  0.1287
  700MOL0     H94474  14.214   1.155   0.356  0.1107  1.2101  0.9830
  700MOL0     H94475  14.267   1.136   0.523 -3.1308 -1.6103  3.5254
  700MOL0     H94476  14.253   0.895   0.315 -0.3982 -1.2690  0.5831
  700MOL0     H94477  14.303   0.885   0.479 -0.2551  0.6113 -1.8535
  700MOL0     H94478  14.447   1.057   0.266  1.7013  1.4267  0.5254
  700MOL0     H94479  14.510   1.040   0.438  2.6807 -2.0957 -0.8270
  700MOL0     H94480  13.392   1.302   0.788  0.6433 -0.4738 -0.2780
  700MOL0     H94481  13.132   1.264   0.814 -0.1586 -0.1066  0.2679
  700MOL0     H94482  12.703   1.376   0.794  1.6442 -0.7188 -0.7057
  700MOL0     H94483  12.467   1.327   0.806  0.4980  0.6561  0.0143
  700MOL0     H94484  10.962   1.438   0.913 -0.1595  0.0205  2.3448
  700MOL0     H94485  10.725   1.463   0.820 -2.4014  0.7264  1.8515
  700MOL0     H94486  10.164   1.239   0.965 -0.8239  1.7780  2.0391
  700MOL0     H94487   9.968   1.265   0.817  1.0562 -1.0286  0.2344
  700MOL0     H94488   9.855   1.499   0.817 -0.5776  1.3403 -0.1970
  700MOL0     H94489   9.782   1.364   0.730 -3.5530  1.8366  1.6132
  700MOL0     H94490   9.726   1.523   0.556  2.5647 -1.7069  0.2751
  700MOL0     H94491   9.773   1.653   0.682  0.2758 -0.7149  2.8718
  700MOL0     H94492   9.609   1.517   0.836  2.9907 -0.3812 -0.8925
  700MOL0     H94493   9.536   1.462   0.681  0.6596  0.3683 -1.6376
  700MOL0     H94494   9.554   1.769   0.757 -1.5883 -0.8290  2.1938
  700MOL0     H94495   9.455   1.681   0.629  0.8240  0.0190 -0.5472
  700MOL0     H94496   9.270   1.616   1.001 -0.2027 -1.0074 -0.4501
  700MOL0     H94497  10.166   1.549   0.581 -0.0524  1.4434  1.9777
  700MOL0     H94498  10.387   1.598   0.586 -2.2144 -0.9106  1.0024
  700MOL0     H94499  10.480   1.560   0.743  0.1466  5.0666 -0.9176
  700MOL0     H94500  10.477   1.450   0.605 -1.1385 -1.8832  0.3629
  701MOL0     O94501   2.040   6.003   1.514 -0.0032  0.2807 -0.1570
  701MOL0     C94502   2.032   6.023   1.633  0.1914  0.3123  0.4889
  701MOL0     O94503   2.055   6.148   1.698  0.0592  0.2864 -0.1270
  701MOL0     C94504   2.074   6.262   1.621 -0.1033 -0.5934  0.2012
  701MOL0     C94505   2.176   6.270   1.521  0.0793 -0.1377  0.0272
  701MOL0     C94506   2.205   6.389   1.462  0.1344 -0.1177  0.0068
  701MOL0     C94507   2.126   6.497   1.494 -0.1001 -0.7542  0.3166
  701MOL0     O94508   2.157   6.612   1.418  0.3619  0.2999  0.3128
  701MOL0     C94509   2.050   6.699   1.377  0.6107 -0.0488 -0.0506
  701MOL0     C94510   1.980   6.633   1.260 -0.1725 -0.0710  0.6832
  701MOL0     C94511   2.069   6.567   1.153  0.2155  0.3035 -0.6658
  701MOL0     C94512   2.146   6.669   1.075  0.6420 -0.1741  0.2720
  701MOL0     C94513   2.297   6.658   1.058 -0.1920  0.0243 -0.7380
  701MOL0     C94514   2.377   6.654   1.184 -0.1992 -0.3602  0.2929
  701MOL0     C94515   2.525   6.627   1.151 -0.0366  0.0389 -0.2328
  701MOL0     C94516   2.603   6.612   1.284 -0.3062 -0.7294  0.1098
  701MOL0     N94517   2.736   6.580   1.250 -1.2607 -0.3239  0.2015
  701MOL0     C94518   2.827   6.663   1.175 -0.3478  0.1896  0.4240
  701MOL0     C94519   2.945   6.594   1.165  0.3543  0.8438 -0.1792
  701MOL0     C94520   3.065   6.632   1.091  0.5884 -0.5241 -0.1755
  701MOL0     C94521   3.181   6.596   1.173 -0.4609  0.5278 -0.3281
  701MOL0     C94522   3.311   6.632   1.108  0.3739  0.4210 -1.3245
  701MOL0     C94523   3.434   6.604   1.203  0.4971  0.5829  0.1273
  701MOL0     O94524   3.553   6.632   1.122 -0.0776 -0.1616 -0.2170
  701MOL0     C94525   3.639   6.531   1.102 -0.0718  0.5699  0.7166
  701MOL0     C94526   3.773   6.559   1.101  0.2610 -0.3044  0.0551
  701MOL0     C94527   3.868   6.465   1.050 -0.5977  0.4407  0.0496
  701MOL0     C94528   3.824   6.355   0.984  0.2683  0.2514  1.2184
  701MOL0     C94529   3.926   6.252   0.931 -0.5215 -1.4584 -0.2130
  701MOL0     O94530   4.059   6.263   0.969  0.2742  0.0337 -1.3246
  701MOL0     C94531   4.152   6.166   0.921 -0.0685 -0.1389 -0.1066
  701MOL0     C94532   4.140   6.028   0.951 -0.7578 -0.6640 -0.5420
  701MOL0     C94533   4.247   5.937   0.920  0.8498 -0.3058  0.3784
  701MOL0     C94534   4.357   5.984   0.836 -0.1388  0.5473  0.3410
  701MOL0     O94535   4.457   5.897   0.788  0.5384  0.0879 -0.1169
  701MOL0     C94536   4.502   5.788   0.870  0.2588 -0.5037 -0.0545
  701MOL0     C94537   4.615   5.719   0.792 -0.1217  0.3318 -0.1401
  701MOL0     C94538   4.638   5.583   0.854 -0.6051  0.3128  0.4482
  701MOL0     C94539   4.736   5.489   0.781  0.6531  0.5132  0.3355
  701MOL0     C94540   4.881   5.534   0.790  0.1598  0.1219 -0.0426
  701MOL0     C94541   4.947   5.518   0.921 -1.1887 -0.0167 -0.3773
  701MOL0     C94542   5.097   5.534   0.913 -0.3883 -0.3486  0.0435
  701MOL0     C94543   5.161   5.573   1.053  0.4199 -0.2226  0.3584
  701MOL0    Cl94544   5.340   5.587   1.034 -0.0386  0.1372 -0.3266
  701MOL0     C94545   4.349   6.118   0.793 -0.0894  0.0284  0.0813
  701MOL0     C94546   4.247   6.216   0.835  0.5184 -0.2929  0.3336
  701MOL0     O94547   3.885   6.173   0.849 -0.0573 -0.3450  0.8198
  701MOL0     C94548   3.691   6.320   0.998 -0.8068  0.4954  0.4042
  701MOL0     C94549   3.600   6.402   1.057  0.0915 -0.4937  0.1945
  701MOL0     N94550   2.924   6.471   1.236  0.5739 -0.8937  0.2528
  701MOL0     N94551   2.808   6.471   1.287  0.0259 -0.1578  0.2311
  701MOL0     C94552   2.017   6.500   1.582  0.0983  0.4309  0.1820
  701MOL0     C94553   1.996   6.379   1.647  0.5607  0.4895 -0.0237
  701MOL0     C94554   1.987   5.904   1.713  0.9700 -0.3748  0.1614
  701MOL0     C94555   1.967   5.929   1.852  0.3498 -0.0888 -0.6306
  701MOL0     C94556   1.929   5.828   1.942 -0.0106  0.4039  0.1444
  701MOL0     C94557   1.897   5.699   1.888 -0.1722 -0.1965 -0.4184
  701MOL0     O94558   1.843   5.602   1.967 -0.1431  0.3968 -0.3345
  701MOL0     C94559   1.730   5.636   2.052  0.1983  0.3471  0.2389
  701MOL0     C94560   1.724   5.535   2.165  0.4197 -0.0822 -0.8703
  701MOL0     C94561   1.579   5.535   2.213  0.6548 -0.2551  1.0301
  701MOL0     C94562   1.556   5.476   2.351 -0.1922 -0.3500 -0.1460
  701MOL0     C94563   1.415   5.442   2.366 -1.1436  0.4607 -0.1616
  701MOL0     C94564   1.309   5.406   2.389 -0.1494  0.0648  0.8122
  701MOL0     C94565   1.917   5.679   1.747  0.3490 -0.0445  0.3532
  701MOL0     C94566   1.946   5.782   1.659 -0.6433  0.8710  0.1854
  701MOL0     C94567   1.941   5.743   1.514  0.1768  0.5616  0.2358
  701MOL0     H94568   2.229   6.187   1.476  2.2804  1.4283 -0.4648
  701MOL0     H94569   2.286   6.404   1.392  0.7025 -0.8839  0.4812
  701MOL0     H94570   1.978   6.707   1.459  1.7367 -1.4587  1.1408
  701MOL0     H94571   2.082   6.802   1.358  0.5606 -0.0754 -0.2772
  701MOL0     H94572   1.922   6.703   1.200  0.9342  0.3771  0.1058
  701MOL0     H94573   1.914   6.555   1.300  1.4908 -2.4847 -0.9639
  701MOL0     H94574   1.998   6.513   1.089 -2.1005 -0.4227  2.2889
  701MOL0     H94575   2.131   6.496   1.208 -1.0230  1.1156  1.9418
  701MOL0     H94576   2.100   6.669   0.976  0.4761 -0.2885  0.3491
  701MOL0     H94577   2.120   6.769   1.112 -1.5146 -0.5398 -0.0992
  701MOL0     H94578   2.318   6.569   0.998 -0.1586  0.7489 -1.8418
  701MOL0     H94579   2.328   6.744   0.997 -0.9875 -1.1311 -2.8651
  701MOL0     H94580   2.378   6.751   1.233  1.8017 -0.1060 -0.2053
  701MOL0     H94581   2.337   6.574   1.248  2.2381 -0.8346  1.3279
  701MOL0     H94582   2.569   6.699   1.081 -2.5025  0.3785 -1.5744
  701MOL0     H94583   2.532   6.529   1.101  3.1930 -0.2169  0.5298
  701MOL0     H94584   2.611   6.707   1.337 -0.0404 -0.4357 -0.4506
  701MOL0     H94585   2.560   6.541   1.356  1.7312  0.7682  3.0124
  701MOL0     H94586   2.807   6.766   1.147 -0.5004 -0.3582 -1.6462
  701MOL0     H94587   3.067   6.582   0.994  0.0985 -1.3631  0.2316
  701MOL0     H94588   3.075   6.739   1.071  2.4670 -0.6713 -0.2291
  701MOL0     H94589   3.169   6.647   1.269 -3.3188  0.5500 -0.6281
  701MOL0     H94590   3.172   6.489   1.189 -2.2415  0.8839  1.3794
  701MOL0     H94591   3.305   6.740   1.089 -0.0216  1.0075  1.6927
  701MOL0     H94592   3.318   6.579   1.013 -4.2758 -1.5416 -0.8389
  701MOL0     H94593   3.431   6.504   1.247 -0.6607  0.2176 -0.7149
  701MOL0     H94594   3.435   6.683   1.279 -0.1907 -1.1887  2.0554
  701MOL0     H94595   3.808   6.654   1.139 -2.0042  0.9104 -0.7547
  701MOL0     H94596   3.973   6.485   1.067 -1.2218  1.5934  3.2611
  701MOL0     H94597   4.051   5.996   1.004 -0.6992 -0.2200 -0.1679
  701MOL0     H94598   4.229   5.833   0.944  2.3750 -0.3826  1.3179
  701MOL0     H94599   4.559   5.832   0.953  1.8766  2.3114 -2.4568
  701MOL0     H94600   4.430   5.715   0.907  1.8273 -0.4555  3.5854
  701MOL0     H94601   4.591   5.710   0.686 -1.8550  1.4796  0.1159
  701MOL0     H94602   4.709   5.775   0.803 -0.7796  1.2711  0.9253
  701MOL0     H94603   4.685   5.591   0.952 -1.1781  0.6165  0.6997
  701MOL0     H94604   4.541   5.534   0.861 -1.0874  1.0982 -0.5039
  701MOL0     H94605   4.712   5.482   0.675  0.1104  2.8056  0.2489
  701MOL0     H94606   4.731   5.387   0.820 -0.9192  0.4053 -0.0711
  701MOL0     H94607   4.889   5.638   0.757 -1.3628  1.1784  2.6070
  701MOL0     H94608   4.939   5.473   0.721  2.9158  1.3271  1.0201
  701MOL0     H94609   4.902   5.585   0.995  1.4237 -0.8748  2.1809
  701MOL0     H94610   4.931   5.418   0.963  0.3012 -0.0244  0.2087
  701MOL0     H94611   5.122   5.591   0.823  0.3190 -1.4244 -0.4612
  701MOL0     H94612   5.146   5.443   0.877  1.4730  0.6208  0.0053
  701MOL0     H94613   5.122   5.672   1.081  1.5047  0.3605 -0.1272
  701MOL0     H94614   5.117   5.500   1.122 -3.0140  0.9883 -0.3047
  701MOL0     H94615   4.439   6.148   0.739  0.2309 -1.6093 -0.3453
  701MOL0     H94616   4.236   6.322   0.813  1.6966 -0.4376 -1.0148
  701MOL0     H94617   3.661   6.225   0.955 -0.5106 -0.5014  2.2829
  701MOL0     H94618   3.498   6.365   1.052  0.3052 -1.4832  2.2625
  701MOL0     H94619   1.956   6.586   1.608  2.1941  1.3238  2.6194
  701MOL0     H94620   1.920   6.374   1.724 -1.8687  0.1449 -2.3357
  701MOL0     H94621   1.989   6.028   1.892  0.5682  0.7405 -2.6403
  701MOL0     H94622   1.918   5.858   2.045  0.4614 -0.6907  0.5273
  701MOL0     H94623   1.637   5.610   2.001  0.7058 -2.5640  0.6503
  701MOL0     H94624   1.724   5.739   2.087 -0.1400 -0.1775  1.8027
  701MOL0     H94625   1.793   5.562   2.246 -3.3200 -1.5185  3.1733
  701MOL0     H94626   1.747   5.435   2.127  2.4365 -0.6286  1.4998
  701MOL0     H94627   1.521   5.481   2.137 -2.0281  1.6603  1.5869
  701MOL0     H94628   1.536   5.635   2.212  2.5179  0.5851  1.0263
  701MOL0     H94629   1.610   5.382   2.360 -0.6874 -0.9346 -2.5616
  701MOL0     H94630   1.598   5.547   2.424  0.3452 -0.2479 -0.5510
  701MOL0     H94631   1.204   5.408   2.411 -0.7963  0.6481 -1.9805
  701MOL0     H94632   1.907   5.580   1.705 -1.1432 -0.6996  2.1118
  701MOL0     H94633   1.866   5.666   1.492  0.6481 -0.4018  1.8064
  701MOL0     H94634   1.909   5.832   1.460  1.1127  0.2082 -0.9326
  701MOL0     H94635   2.040   5.711   1.480 -0.4299 -1.6763  0.3673
  702MOL0     O94636   9.694   2.966  10.865 -0.1271  0.1308  0.4070
  702MOL0     C94637   9.766   2.944  10.765  0.1194 -0.2617  0.6074
  702MOL0     O94638   9.715   2.910  10.650 -0.3726 -0.6368  0.0137
  702MOL0     C94639   9.583   2.899  10.617 -0.3021 -0.3796  1.0823
  702MOL0     C94640   9.466   2.949  10.673 -0.0723  0.7834 -0.0353
  702MOL0     C94641   9.335   2.910  10.624 -0.2734 -0.2236  0.0238
  702MOL0     C94642   9.325   2.819  10.519  0.3301  0.2257  0.3906
  702MOL0     O94643   9.209   2.760  10.467 -0.8655 -0.0541  0.1850
  702MOL0     C94644   9.087   2.799  10.525 -0.4147 -0.2518 -0.0170
  702MOL0     C94645   8.979   2.701  10.464 -0.5119  0.0389 -0.4997
  702MOL0     C94646   8.861   2.697  10.558  0.0950 -0.5964 -0.2418
  702MOL0     C94647   8.742   2.609  10.508 -0.7964  0.6424  0.0930
  702MOL0     C94648   8.623   2.609  10.607  0.2763 -1.0018  0.0518
  702MOL0     C94649   8.501   2.534  10.545 -0.6662  0.5177 -0.5625
  702MOL0     C94650   8.381   2.510  10.641  0.2212  0.7592 -0.2421
  702MOL0     C94651   8.301   2.640  10.672 -0.4973  0.0872 -0.2832
  702MOL0     N94652   8.200   2.640  10.777  0.3837  0.1388 -0.5146
  702MOL0     C94653   8.095   2.563  10.789  0.0625 -0.4544  0.4047
  702MOL0     C94654   8.033   2.607  10.905 -1.0844 -0.6100 -0.0403
  702MOL0     C94655   7.894   2.567  10.955  0.7502 -0.3191 -0.3341
  702MOL0     C94656   7.788   2.666  10.904 -0.0132  0.6865  0.6440
  702MOL0     C94657   7.786   2.806  10.965  0.2514  0.0676  0.1376
  702MOL0     C94658   7.769   2.812  11.114 -0.4804 -0.2741  0.4461
  702MOL0     O94659   7.774   2.946  11.165 -0.2847  0.1928 -0.2146
  702MOL0     C94660   7.886   3.002  11.223  0.1799  0.2797  0.2617
  702MOL0     C94661   8.009   2.985  11.166  0.1581  1.1438  0.0059
  702MOL0     C94662   8.111   3.048  11.229  0.3901 -0.5834 -0.4482
  702MOL0     C94663   8.100   3.125  11.351 -0.2149  0.4797 -0.2904
  702MOL0     C94664   8.216   3.188  11.418  0.0323  0.2065 -0.6772
  702MOL0     O94665   8.338   3.175  11.365 -0.2904 -0.0064 -1.0438
  702MOL0     C94666   8.437   3.237  11.445 -0.1417 -0.0798  0.5685
  702MOL0     C94667   8.493   3.369  11.411  0.5369 -0.0406 -0.6592
  702MOL0     C94668   8.579   3.436  11.492  0.3944  0.2377 -0.1819
  702MOL0     C94669   8.633   3.369  11.611 -0.6196 -0.4029 -0.2125
  702MOL0     O94670   8.725   3.430  11.696  0.1978  0.4203 -0.2130
  702MOL0     C94671   8.798   3.549  11.644 -1.2344  0.3807 -0.6141
  702MOL0     C94672   8.930   3.575  11.727  0.1169 -0.3387 -0.2109
  702MOL0     C94673   9.029   3.462  11.700 -0.4421  0.8048  1.2879
  702MOL0     C94674   9.159   3.485  11.775  0.7247 -0.4707 -0.2693
  702MOL0     C94675   9.255   3.361  11.776 -0.6011 -0.4664  0.2036
  702MOL0     C94676   9.381   3.400  11.855 -0.3617  0.5475 -0.1794
  702MOL0     C94677   9.356   3.409  12.009  0.5524  0.6684  0.5480
  702MOL0     C94678   9.489   3.433  12.075 -0.0203 -0.5326 -0.1569
  702MOL0    Cl94679   9.601   3.292  12.038  0.0687  0.3148 -0.5024
  702MOL0     C94680   8.587   3.240  11.644  0.2236 -0.5969  0.6060
  702MOL0     C94681   8.495   3.177  11.565  0.2639 -0.1463  0.0379
  702MOL0     O94682   8.185   3.260  11.515 -0.3835  0.5433 -0.5325
  702MOL0     C94683   7.968   3.148  11.408  0.5584 -0.7214 -0.0239
  702MOL0     C94684   7.858   3.089  11.340 -0.2908  0.3093 -0.3278
  702MOL0     N94685   8.106   2.707  10.966 -0.0146 -0.8567  0.7946
  702MOL0     N94686   8.210   2.730  10.876  0.8321  0.6493  0.4769
  702MOL0     C94687   9.441   2.777  10.453  0.5847 -0.8370  0.5436
  702MOL0     C94688   9.562   2.821  10.504  0.2970 -0.7005  0.4040
  702MOL0     C94689   9.911   2.962  10.794  0.0151  0.2739  0.2371
  702MOL0     C94690   9.945   3.014  10.923  0.4839  0.3929 -0.6973
  702MOL0     C94691  10.074   3.028  10.963  0.4245  0.5512  0.3358
  702MOL0     C94692  10.181   3.012  10.870  0.6200 -0.4167  0.5752
  702MOL0     O94693  10.310   3.035  10.898 -0.3781  0.4509  0.0678
  702MOL0     C94694  10.360   3.082  11.022 -0.0981  0.1422 -0.0375
  702MOL0     C94695  10.492   3.002  11.053 -0.1388  1.1199 -0.4752
  702MOL0     C94696  10.576   3.016  10.935 -0.4791  0.7678 -0.2981
  702MOL0     C94697  10.724   2.995  10.973  0.3989 -0.1971  0.5157
  702MOL0     C94698  10.804   2.964  10.854 -0.1631  0.6132  0.0085
  702MOL0     C94699  10.860   2.951  10.748  0.7567 -0.6253 -0.2215
  702MOL0     C94700  10.148   2.960  10.745  0.5539 -1.0129 -0.4251
  702MOL0     C94701  10.020   2.930  10.709 -0.7418  0.1993  0.5715
  702MOL0     C94702   9.994   2.872  10.566 -0.1393  0.4614 -0.1661
  702MOL0     H94703   9.463   3.014  10.760 -2.1372  1.0153 -0.2379
  702MOL0     H94704   9.262   2.957  10.689  2.1778  1.2486  1.8786
  702MOL0     H94705   9.089   2.786  10.634 -1.1281  1.3977  0.2257
  702MOL0     H94706   9.063   2.905  10.513  2.1906  0.5986  1.6105
  702MOL0     H94707   9.013   2.598  10.462  2.0610  0.7320  1.4687
  702MOL0     H94708   8.962   2.735  10.362  1.0939 -0.7028 -1.0389
  702MOL0     H94709   8.833   2.802  10.576  1.8384 -0.3866  1.5848
  702MOL0     H94710   8.886   2.650  10.653 -1.9263  0.1886  0.7462
  702MOL0     H94711   8.705   2.654  10.416  1.3041  2.1058 -0.1156
  702MOL0     H94712   8.780   2.509  10.489  0.0630  0.7738  1.0397
  702MOL0     H94713   8.665   2.561  10.696  4.2081 -0.6610 -1.3998
  702MOL0     H94714   8.592   2.713  10.622  2.9884  0.1132 -1.3534
  702MOL0     H94715   8.472   2.592  10.457 -1.1613  0.9870 -0.1011
  702MOL0     H94716   8.539   2.435  10.519 -0.9709 -0.2830  1.8160
  702MOL0     H94717   8.413   2.463  10.735  0.8993  3.1391  0.7792
  702MOL0     H94718   8.313   2.431  10.607 -1.1289  1.5860  0.4575
  702MOL0     H94719   8.376   2.718  10.680 -0.5603  0.3393 -1.7491
  702MOL0     H94720   8.259   2.666  10.574 -1.9692  0.2615  0.3594
  702MOL0     H94721   8.063   2.484  10.723 -0.4834  1.7831 -2.1915
  702MOL0     H94722   7.867   2.465  10.924 -0.4906 -0.8075  2.1388
  702MOL0     H94723   7.901   2.564  11.064  1.3683 -0.9122 -0.3818
  702MOL0     H94724   7.794   2.685  10.796  0.9362  3.4917  1.1203
  702MOL0     H94725   7.691   2.618  10.923  0.5208 -1.0544 -0.7392
  702MOL0     H94726   7.706   2.870  10.925  2.0000  0.7007 -2.5962
  702MOL0     H94727   7.876   2.858  10.931  1.1220 -1.3653  0.1711
  702MOL0     H94728   7.841   2.751  11.170 -2.1154 -1.9431  0.8241
  702MOL0     H94729   7.673   2.769  11.143 -0.9503 -0.0841 -0.7792
  702MOL0     H94730   8.034   2.939  11.071  1.2508 -1.2998  1.3869
  702MOL0     H94731   8.203   3.044  11.172  0.9234  0.0389  0.3471
  702MOL0     H94732   8.461   3.418  11.319  1.2040  0.0426 -0.8554
  702MOL0     H94733   8.610   3.536  11.462 -0.7081  0.0135 -2.2180
  702MOL0     H94734   8.828   3.552  11.539  0.1638  1.4648 -0.2132
  702MOL0     H94735   8.736   3.637  11.657 -1.9111 -0.1760  0.0107
  702MOL0     H94736   8.970   3.675  11.706 -0.3665 -0.2745 -0.8610
  702MOL0     H94737   8.897   3.578  11.831 -1.2353 -2.0836 -0.5513
  702MOL0     H94738   8.988   3.365  11.729  0.7137  0.1944  0.9360
  702MOL0     H94739   9.055   3.454  11.594 -1.9389 -0.6791  0.9833
  702MOL0     H94740   9.128   3.504  11.878 -1.0971 -2.3420 -0.4290
  702MOL0     H94741   9.204   3.574  11.729 -2.3531  1.4790  0.2181
  702MOL0     H94742   9.284   3.340  11.673 -0.4052  1.9066 -0.2972
  702MOL0     H94743   9.202   3.279  11.825 -2.0497  0.8526  0.9520
  702MOL0     H94744   9.451   3.316  11.849  1.5478  1.9851  0.7036
  702MOL0     H94745   9.431   3.488  11.814 -2.2105  1.3114 -0.8557
  702MOL0     H94746   9.310   3.316  12.046  1.9238 -0.3560 -0.2249
  702MOL0     H94747   9.287   3.492  12.024  0.8682  1.4925 -2.0081
  702MOL0     H94748   9.535   3.525  12.039  2.5559 -1.1944  1.1765
  702MOL0     H94749   9.468   3.432  12.182  1.3670 -1.1463  0.1378
  702MOL0     H94750   8.628   3.202  11.737  2.2682  0.1386  0.0608
  702MOL0     H94751   8.457   3.087  11.611 -0.5899 -1.0126 -2.2850
  702MOL0     H94752   7.953   3.218  11.488  2.6184 -0.0785 -0.1560
  702MOL0     H94753   7.756   3.109  11.371 -0.1174  0.5987  0.0658
  702MOL0     H94754   9.443   2.704  10.374  0.4742  0.7799 -1.0169
  702MOL0     H94755   9.646   2.771  10.456 -0.5921 -0.5256 -1.4218
  702MOL0     H94756   9.871   3.035  11.001  1.5186  0.4257  0.3028
  702MOL0     H94757  10.085   3.050  11.069  2.8574 -2.4724  0.8523
  702MOL0     H94758  10.292   3.076  11.107 -0.0434  3.5727  0.4130
  702MOL0     H94759  10.393   3.187  11.019  2.7183 -0.5988  1.3820
  702MOL0     H94760  10.471   2.897  11.074 -0.3451  1.0202 -1.1631
  702MOL0     H94761  10.528   3.054  11.143 -2.4894  1.6068  0.2590
  702MOL0     H94762  10.572   3.106  10.872 -1.2745 -0.6692 -2.3994
  702MOL0     H94763  10.553   2.942  10.858  0.6961 -0.3100  0.3443
  702MOL0     H94764  10.760   3.083  11.026 -0.4426  1.8621 -2.1053
  702MOL0     H94765  10.726   2.900  11.028 -0.5895 -0.5669 -0.0563
  702MOL0     H94766  10.893   2.938  10.646 -1.8825 -4.2087 -0.7917
  702MOL0     H94767  10.221   2.933  10.669 -4.0265 -1.3153 -5.2095
  702MOL0     H94768  10.092   2.829  10.545 -0.2792 -0.3365  0.7335
  702MOL0     H94769   9.924   2.788  10.557  1.4160 -0.6840 -3.0880
  702MOL0     H94770   9.969   2.959  10.505 -1.5774  0.8213  0.8727
  703MOL0     O94771   9.138   7.764   2.946  0.2447 -0.2147  0.4010
  703MOL0     C94772   9.126   7.817   3.056 -0.3882  0.5826 -0.7097
  703MOL0     O94773   9.215   7.815   3.157 -0.0609 -0.6882 -0.0002
  703MOL0     C94774   9.344   7.772   3.132  1.2145 -0.7218  0.2870
  703MOL0     C94775   9.450   7.876   3.142 -0.7041 -0.1540 -0.2540
  703MOL0     C94776   9.577   7.850   3.120  0.2185  0.1815  0.4310
  703MOL0     C94777   9.612   7.720   3.097  0.1989 -0.2934  0.0855
  703MOL0     O94778   9.746   7.689   3.086 -0.6268  0.3743 -0.4188
  703MOL0     C94779   9.816   7.710   2.965 -0.4450  0.3608 -0.5723
  703MOL0     C94780   9.938   7.608   2.969  0.4178 -0.0000 -0.8507
  703MOL0     C94781  10.030   7.669   3.079 -0.2314 -0.4089 -0.2052
  703MOL0     C94782  10.162   7.594   3.073 -0.5812 -0.4625  0.4309
  703MOL0     C94783  10.230   7.586   3.209 -0.3666 -0.0751  0.1727
  703MOL0     C94784  10.359   7.503   3.197 -0.0110 -0.2888 -0.3574
  703MOL0     C94785  10.431   7.515   3.327 -0.2294 -0.5688  0.7101
  703MOL0     C94786  10.539   7.405   3.329 -0.2433  0.7498  0.2804
  703MOL0     N94787  10.630   7.418   3.439  0.3045  0.0419 -0.1562
  703MOL0     C94788  10.653   7.323   3.536  0.2962  0.2506 -0.5257
  703MOL0     C94789  10.754   7.371   3.611 -0.4678  0.0250 -0.6226
  703MOL0     C94790  10.809   7.284   3.720  0.2882  1.2299  1.2428
  703MOL0     C94791  10.872   7.350   3.839  0.2622 -0.5382  0.4591
  703MOL0     C94792  10.956   7.255   3.932 -0.0775 -0.8904  0.3167
  703MOL0     C94793  11.069   7.177   3.865  0.1144  0.0846 -0.2310
  703MOL0     O94794  11.153   7.110   3.962  0.0252 -0.6386  0.6889
  703MOL0     C94795  11.285   7.087   3.931 -0.4626  0.0121  0.2842
  703MOL0     C94796  11.339   7.061   3.806 -0.3001  0.1264 -0.3711
  703MOL0     C94797  11.475   7.019   3.789 -0.2952 -0.6616 -0.3320
  703MOL0     C94798  11.557   6.993   3.900  0.1812  0.6345  0.6319
  703MOL0     C94799  11.694   6.936   3.890 -0.6717  0.3819 -0.0765
  703MOL0     O94800  11.757   6.933   3.763 -0.0024  0.2234 -0.6792
  703MOL0     C94801  11.878   6.863   3.746  0.4231  0.4936 -0.4858
  703MOL0     C94802  11.978   6.927   3.680 -0.3176  0.1700 -0.5444
  703MOL0     C94803  12.105   6.860   3.666  0.2439  0.1616  0.9717
  703MOL0     C94804  12.125   6.725   3.710  0.3113  0.7956  0.1109
  703MOL0     O94805  12.241   6.667   3.679 -0.3712 -0.6967 -0.5672
  703MOL0     C94806  12.282   6.544   3.741  0.0667  0.2488 -0.9901
  703MOL0     C94807  12.421   6.490   3.702  0.7944  0.2500  0.4982
  703MOL0     C94808  12.535   6.574   3.756 -1.3246  0.3922 -0.4054
  703MOL0     C94809  12.579   6.682   3.660 -0.1308  1.1337 -0.3084
  703MOL0     C94810  12.696   6.776   3.716  0.2047  0.0840  0.6515
  703MOL0     C94811  12.833   6.703   3.733 -0.2123  0.6020 -0.3091
  703MOL0     C94812  12.938   6.801   3.777 -0.0578 -0.3917 -0.5366
  703MOL0     C94813  13.063   6.717   3.806 -0.0944 -0.4414 -0.7660
  703MOL0    Cl94814  13.143   6.645   3.660 -0.5428 -0.1109 -0.1104
  703MOL0     C94815  12.016   6.658   3.758 -0.0751 -0.1090  0.0320
  703MOL0     C94816  11.897   6.727   3.789  1.0187  0.2010 -0.9550
  703MOL0     O94817  11.743   6.878   3.989  0.7520  0.2828  0.4745
  703MOL0     C94818  11.506   7.022   4.025  0.2250 -0.5409 -0.1928
  703MOL0     C94819  11.374   7.061   4.037 -0.1758 -0.9934 -0.1512
  703MOL0     N94820  10.792   7.493   3.563 -0.0467 -0.1607  0.1558
  703MOL0     N94821  10.717   7.518   3.457 -0.6094  0.8723 -0.6075
  703MOL0     C94822   9.520   7.618   3.074 -0.7600  0.7692 -0.7008
  703MOL0     C94823   9.385   7.644   3.100 -0.3927 -0.2422  0.0988
  703MOL0     C94824   8.994   7.886   3.075  0.3959 -0.6822 -0.4882
  703MOL0     C94825   8.971   7.956   3.195 -0.0913 -0.1581  0.7059
  703MOL0     C94826   8.855   8.030   3.217  0.5439 -0.3070 -0.2853
  703MOL0     C94827   8.746   8.032   3.127 -0.0163 -0.2611 -0.2346
  703MOL0     O94828   8.630   8.105   3.147  0.2312  0.4336  0.5233
  703MOL0     C94829   8.512   8.087   3.066 -0.9260  0.4304 -0.8135
  703MOL0     C94830   8.447   7.953   3.107 -0.1951  0.0329 -0.6129
  703MOL0     C94831   8.348   7.898   3.007 -0.6457 -0.3554  0.2201
  703MOL0     C94832   8.430   7.837   2.895  0.1370 -0.3136  0.8321
  703MOL0     C94833   8.334   7.792   2.791  0.8605  0.1304  0.3552
  703MOL0     C94834   8.241   7.751   2.715  0.6277  0.0477 -0.3048
  703MOL0     C94835   8.768   7.962   3.012 -0.7990  0.5743 -0.6809
  703MOL0     C94836   8.885   7.886   2.984 -0.3985 -0.5710  0.0609
  703MOL0     C94837   8.888   7.823   2.847 -0.7776 -0.2630 -0.0972
  703MOL0     H94838   9.428   7.974   3.182 -0.0985 -0.8776  2.0059
  703MOL0     H94839   9.652   7.928   3.122  0.0650  0.3561 -0.2493
  703MOL0     H94840   9.747   7.703   2.880 -3.0908  2.4956  1.1739
  703MOL0     H94841   9.853   7.813   2.966  0.5808  0.0273  1.5682
  703MOL0     H94842   9.990   7.632   2.875  1.2726 -0.2468 -0.4500
  703MOL0     H94843   9.910   7.505   2.992  0.5578  0.4364  1.5575
  703MOL0     H94844   9.989   7.656   3.179  2.2124 -2.4842  0.6192
  703MOL0     H94845  10.041   7.771   3.042 -1.0012 -0.7462 -1.4529
  703MOL0     H94846  10.144   7.491   3.040  3.0835 -1.4033  0.9118
  703MOL0     H94847  10.231   7.643   3.005 -1.4840 -0.9123 -0.8543
  703MOL0     H94848  10.261   7.687   3.240  1.6642 -1.2519  2.3168
  703MOL0     H94849  10.168   7.553   3.293  0.9410  2.0285  2.1173
  703MOL0     H94850  10.332   7.399   3.177  0.1408 -0.0835 -1.6654
  703MOL0     H94851  10.419   7.553   3.121  0.5299  1.2970  1.0230
  703MOL0     H94852  10.374   7.504   3.420 -0.2474  0.6856  0.8634
  703MOL0     H94853  10.494   7.604   3.324 -1.7547  0.5674 -3.3205
  703MOL0     H94854  10.491   7.307   3.322  3.5896 -1.2895 -0.6294
  703MOL0     H94855  10.590   7.411   3.232  0.4888 -1.1704  0.4833
  703MOL0     H94856  10.615   7.222   3.548  1.8089 -0.4188 -1.0986
  703MOL0     H94857  10.725   7.223   3.753 -0.3851  2.1785  1.3059
  703MOL0     H94858  10.872   7.206   3.676 -0.0449 -0.1919  3.1397
  703MOL0     H94859  10.922   7.438   3.799 -1.3376 -0.3900 -1.3637
  703MOL0     H94860  10.784   7.380   3.897  1.1680  3.0390  0.2506
  703MOL0     H94861  10.885   7.183   3.972 -0.6016 -1.7950 -2.0585
  703MOL0     H94862  10.988   7.319   4.015 -0.7146 -2.0164  1.4560
  703MOL0     H94863  11.125   7.257   3.818 -1.0464  1.6922  1.0100
  703MOL0     H94864  11.030   7.110   3.787  1.4675 -1.7065  0.5622
  703MOL0     H94865  11.277   7.079   3.719  1.0059 -0.0456 -1.3798
  703MOL0     H94866  11.513   7.008   3.688 -1.2288  0.7912 -0.8767
  703MOL0     H94867  11.952   7.028   3.647  1.3802  0.7495 -0.2186
  703MOL0     H94868  12.183   6.917   3.618 -0.1079  1.8964  2.3169
  703MOL0     H94869  12.263   6.539   3.848  1.8353 -1.0688 -0.6857
  703MOL0     H94870  12.213   6.469   3.703 -1.2385  1.0539 -0.2592
  703MOL0     H94871  12.424   6.391   3.748  0.6348  0.4947  1.0342
  703MOL0     H94872  12.418   6.481   3.593  1.8878 -2.4531  0.6147
  703MOL0     H94873  12.506   6.625   3.848 -0.6489 -1.7020  1.0565
  703MOL0     H94874  12.621   6.510   3.782 -4.0850 -2.4026  2.8407
  703MOL0     H94875  12.500   6.755   3.645 -1.0486  0.5015  1.1754
  703MOL0     H94876  12.614   6.642   3.564  0.0897  0.9227 -0.1398
  703MOL0     H94877  12.671   6.815   3.815 -0.7599  3.4060 -0.7614
  703MOL0     H94878  12.705   6.859   3.645  1.6238  0.5145  1.2869
  703MOL0     H94879  12.829   6.628   3.812 -1.1535 -0.6608 -1.5036
  703MOL0     H94880  12.868   6.643   3.649  1.3778 -0.5441  1.1201
  703MOL0     H94881  12.897   6.842   3.870  0.7764  1.1353 -0.8248
  703MOL0     H94882  12.964   6.878   3.704  0.4190 -1.3492 -1.4157
  703MOL0     H94883  13.134   6.779   3.861 -3.3200  1.6976  1.3211
  703MOL0     H94884  13.050   6.641   3.883 -0.6473  0.6593  0.2569
  703MOL0     H94885  12.015   6.551   3.778  0.3186  0.3737  3.1495
  703MOL0     H94886  11.823   6.673   3.847  3.4237 -0.7499  1.4544
  703MOL0     H94887  11.553   7.005   4.121  0.4661  1.7736  0.1672
  703MOL0     H94888  11.337   7.070   4.139 -0.2705 -3.6800  0.1385
  703MOL0     H94889   9.551   7.521   3.038 -3.6518 -1.1650  1.5243
  703MOL0     H94890   9.306   7.569   3.105 -0.8629  0.3270  2.0275
  703MOL0     H94891   9.047   7.951   3.273 -0.8179  2.9579  1.7730
  703MOL0     H94892   8.852   8.076   3.315 -0.9649 -0.8309 -0.0597
  703MOL0     H94893   8.545   8.093   2.962 -1.3315  2.6717 -0.8544
  703MOL0     H94894   8.431   8.157   3.086 -1.8254 -0.1848 -2.0926
  703MOL0     H94895   8.395   7.965   3.202 -0.1558 -0.9703 -0.4563
  703MOL0     H94896   8.528   7.880   3.110  0.6222  0.5675 -4.4308
  703MOL0     H94897   8.295   7.984   2.964 -1.7205 -0.1395  1.8625
  703MOL0     H94898   8.274   7.825   3.042 -0.4743 -1.3857 -1.4837
  703MOL0     H94899   8.502   7.913   2.863  0.2763 -0.4309  0.8719
  703MOL0     H94900   8.483   7.750   2.934 -0.7755 -0.3975  1.9226
  703MOL0     H94901   8.155   7.723   2.658  0.5117  1.5447 -0.9172
  703MOL0     H94902   8.697   7.954   2.930  1.2503  2.1915 -2.7567
  703MOL0     H94903   8.984   7.829   2.795 -0.2636 -3.8745  0.1394
  703MOL0     H94904   8.887   7.714   2.857 -0.4305 -0.3976 -1.3280
  703MOL0     H94905   8.812   7.862   2.778  0.5974  0.5678 -1.1940
  704MOL0     O94906   7.104   0.825  10.050 -0.4567  0.1355  0.4596
  704MOL0     C94907   7.067   0.832   9.933  0.0561 -0.3662 -0.2821
  704MOL0     O94908   7.146   0.876   9.820 -0.6987  0.2383 -0.1085
  704MOL0     C94909   7.282   0.867   9.819  0.3720  0.2602 -0.9933
  704MOL0     C94910   7.340   0.804   9.706 -0.3620 -0.2572  0.0511
  704MOL0     C94911   7.483   0.804   9.690  0.2169 -0.5450 -1.1510
  704MOL0     C94912   7.566   0.855   9.790 -0.4201  0.1597  0.2180
  704MOL0     O94913   7.702   0.844   9.766 -0.5575 -0.4163  0.3116
  704MOL0     C94914   7.796   0.877   9.873 -0.3747  0.9443  0.0117
  704MOL0     C94915   7.934   0.890   9.809  0.1809 -0.2632 -1.2825
  704MOL0     C94916   8.013   0.762   9.808  0.0219  0.2832  0.2568
  704MOL0     C94917   8.108   0.754   9.925 -0.1692 -0.7974  0.6442
  704MOL0     C94918   8.211   0.633   9.918  0.7769 -0.8397  0.2104
  704MOL0     C94919   8.253   0.614  10.066  0.1262  0.2074  0.4631
  704MOL0     C94920   8.371   0.520  10.071  0.0587  0.2885  0.8161
  704MOL0     C94921   8.498   0.577  10.011 -0.2167 -0.2797 -0.0393
  704MOL0     N94922   8.621   0.487  10.018 -0.3087 -0.3109 -0.7462
  704MOL0     C94923   8.678   0.430  10.135 -0.4504 -0.2095  0.2208
  704MOL0     C94924   8.805   0.386  10.102  0.3955  0.3590 -0.0034
  704MOL0     C94925   8.905   0.314  10.190 -0.2076 -0.0619 -0.0212
  704MOL0     C94926   8.973   0.413  10.275 -0.6643  0.0803  0.3789
  704MOL0     C94927   9.078   0.362  10.374 -0.0917  0.2483 -0.7012
  704MOL0     C94928   9.150   0.479  10.434  0.2494 -0.8925  0.2196
  704MOL0     O94929   9.235   0.539  10.331  1.0669 -0.7220 -0.1969
  704MOL0     C94930   9.350   0.610  10.368  0.2895  0.1113  0.2116
  704MOL0     C94931   9.373   0.657  10.499 -0.0808 -0.7640 -0.5417
  704MOL0     C94932   9.502   0.703  10.530 -0.2253  0.8505  0.4195
  704MOL0     C94933   9.598   0.735  10.430  0.4876 -0.3290  0.0848
  704MOL0     C94934   9.722   0.799  10.455 -0.3181  0.4650  0.1249
  704MOL0     O94935   9.788   0.853  10.347 -1.2494  0.2998  0.3887
  704MOL0     C94936   9.921   0.898  10.369  0.3471 -0.0269 -0.0839
  704MOL0     C94937   9.943   0.996  10.467  0.8651  0.3120 -0.0205
  704MOL0     C94938  10.071   1.040  10.492 -0.4247 -0.2858 -0.3065
  704MOL0     C94939  10.183   0.991  10.416 -0.0217 -0.7032 -1.2508
  704MOL0     O94940  10.313   1.028  10.437  0.1566  0.3815  0.5571
  704MOL0     C94941  10.356   1.059  10.570  0.6503 -0.8231  0.4572
  704MOL0     C94942  10.395   1.203  10.573 -0.1542  0.1184 -0.0551
  704MOL0     C94943  10.516   1.229  10.472  0.5378  0.2102  0.4088
  704MOL0     C94944  10.642   1.185  10.544 -0.4973  0.3325 -0.0518
  704MOL0     C94945  10.774   1.229  10.475  0.3999 -0.7984  0.7279
  704MOL0     C94946  10.891   1.206  10.562 -0.5395  0.9002  0.4152
  704MOL0     C94947  11.021   1.275  10.510 -0.3287 -0.3038 -1.1762
  704MOL0     C94948  11.141   1.266  10.596  0.2551 -0.4288 -0.5657
  704MOL0    Cl94949  11.283   1.336  10.503  0.2093 -0.0582 -0.1164
  704MOL0     C94950  10.161   0.892  10.322  0.3675  0.3848 -0.1241
  704MOL0     C94951  10.024   0.853  10.294  0.3813  0.1746 -0.0225
  704MOL0     O94952   9.767   0.799  10.571 -0.3559  0.5029  0.1915
  704MOL0     C94953   9.555   0.709  10.301 -0.5227 -0.0058 -0.1317
  704MOL0     C94954   9.447   0.635  10.269  0.2294 -0.6714  0.4245
  704MOL0     N94955   8.816   0.416   9.969 -0.1059  0.1952 -0.5630
  704MOL0     N94956   8.719   0.479   9.928  0.0368  0.8869 -0.2296
  704MOL0     C94957   7.508   0.901   9.901  0.9693  0.7003  0.0949
  704MOL0     C94958   7.371   0.913   9.923  0.7847  0.0790  0.3882
  704MOL0     C94959   6.933   0.770   9.911  0.3133  0.5671 -0.1961
  704MOL0     C94960   6.909   0.713   9.786 -0.6196  0.2457 -0.9388
  704MOL0     C94961   6.801   0.629   9.766  1.0161 -0.6539 -0.1761
  704MOL0     C94962   6.699   0.615   9.865 -0.5153  0.6894 -0.0675
  704MOL0     O94963   6.590   0.534   9.858 -0.1080 -0.1402 -0.0989
  704MOL0     C94964   6.535   0.506   9.729  0.5809  0.0118  0.0829
  704MOL0     C94965   6.418   0.404   9.738  0.2482 -0.1260 -0.4372
  704MOL0     C94966   6.296   0.472   9.791  0.3743 -0.4296 -0.2781
  704MOL0     C94967   6.183   0.361   9.834 -0.1219  0.1210 -0.6454
  704MOL0     C94968   6.218   0.288   9.961 -0.2221 -0.4599  0.1686
  704MOL0     C94969   6.239   0.232  10.068  0.5571  0.7828 -0.5471
  704MOL0     C94970   6.719   0.686   9.983  0.4257 -0.0947  0.2647
  704MOL0     C94971   6.831   0.760  10.010  0.1803 -0.2979 -0.2030
  704MOL0     C94972   6.828   0.827  10.149 -0.1065 -0.3058  0.1409
  704MOL0     H94973   7.283   0.757   9.626 -0.1735  0.2607 -0.3923
  704MOL0     H94974   7.531   0.788   9.594  2.2690  2.7303 -0.8133
  704MOL0     H94975   7.767   0.958   9.940 -0.6005 -2.1545  4.0211
  704MOL0     H94976   7.798   0.794   9.945  1.9237  1.4802  0.6327
  704MOL0     H94977   7.983   0.969   9.867 -1.2258  2.5257 -3.6126
  704MOL0     H94978   7.938   0.924   9.705  4.7085 -2.2422 -1.9791
  704MOL0     H94979   8.079   0.763   9.721  0.7209  0.6814  0.7819
  704MOL0     H94980   7.943   0.677   9.805 -0.9071  1.0022  1.0953
  704MOL0     H94981   8.169   0.845   9.931 -0.3243 -0.5940 -0.5911
  704MOL0     H94982   8.049   0.759  10.018 -0.7039  5.6627  0.4307
  704MOL0     H94983   8.163   0.550   9.866  0.2703 -0.3157 -0.1765
  704MOL0     H94984   8.294   0.674   9.860  0.1266  0.3912  0.0977
  704MOL0     H94985   8.282   0.708  10.114  1.1005  0.6484 -0.8954
  704MOL0     H94986   8.168   0.564  10.112  0.1709  1.1622  1.6174
  704MOL0     H94987   8.357   0.432  10.008  3.7302 -0.1415  0.3692
  704MOL0     H94988   8.394   0.498  10.176 -1.7792 -0.1089  1.1802
  704MOL0     H94989   8.491   0.602   9.905 -0.4068 -0.5078 -0.0812
  704MOL0     H94990   8.522   0.672  10.060  0.2928  1.0440 -2.7245
  704MOL0     H94991   8.629   0.437  10.231 -0.3692  1.5742  0.1511
  704MOL0     H94992   8.856   0.237  10.251 -0.2787 -0.0744 -0.0928
  704MOL0     H94993   8.982   0.262  10.132  0.2426 -1.3983  1.6967
  704MOL0     H94994   9.019   0.482  10.203 -1.2436  0.9703  0.8489
  704MOL0     H94995   8.896   0.472  10.326 -0.9268  1.0066 -1.0125
  704MOL0     H94996   9.157   0.298  10.333  1.5397  2.3663 -1.0296
  704MOL0     H94997   9.018   0.316  10.453 -0.0677  3.6084  1.4937
  704MOL0     H94998   9.212   0.430  10.510 -0.5249 -2.8309 -0.3177
  704MOL0     H94999   9.085   0.554  10.478 -1.0891 -2.2316  0.6066
  704MOL0     H95000   9.294   0.679  10.570  0.5767 -1.5321  0.4659
  704MOL0     H95001   9.522   0.727  10.634 -1.3228 -1.0349  1.1173
  704MOL0     H95002   9.857   1.031  10.523  0.2405 -1.8305  0.4373
  704MOL0     H95003  10.077   1.110  10.575  0.1311 -2.1967  1.3389
  704MOL0     H95004  10.281   1.046  10.648 -1.0736 -0.5049 -1.0584
  704MOL0     H95005  10.444   0.998  10.595  1.0316 -0.3592  0.2609
  704MOL0     H95006  10.310   1.264  10.541 -2.2321 -2.5530  0.0469
  704MOL0     H95007  10.427   1.237  10.672  1.7244  1.6281 -1.1186
  704MOL0     H95008  10.501   1.177  10.377 -3.7392  1.0994  0.3963
  704MOL0     H95009  10.526   1.335  10.450 -0.7071  0.0929 -0.8897
  704MOL0     H95010  10.639   1.077  10.560 -1.8751  0.2732 -0.5753
  704MOL0     H95011  10.640   1.233  10.642 -1.1907 -0.4224  0.3189
  704MOL0     H95012  10.764   1.338  10.463 -0.0134 -0.4144  3.6695
  704MOL0     H95013  10.793   1.184  10.377  2.6547  1.4648  0.0059
  704MOL0     H95014  10.872   1.245  10.663 -0.0897  2.7249 -0.1572
  704MOL0     H95015  10.911   1.099  10.570  1.2076  1.2417  1.0320
  704MOL0     H95016  10.997   1.380  10.492 -0.5506 -0.3045 -0.8877
  704MOL0     H95017  11.048   1.228  10.415  0.4864 -0.1750 -1.0152
  704MOL0     H95018  11.118   1.324  10.685 -0.9563  0.3037 -1.3288
  704MOL0     H95019  11.165   1.161  10.618  1.7010 -0.5350 -2.3559
  704MOL0     H95020  10.249   0.870  10.263 -2.1262 -1.6957 -3.4651
  704MOL0     H95021   9.988   0.788  10.215 -3.1403 -0.8458  2.1722
  704MOL0     H95022   9.626   0.724  10.219 -2.8118 -1.0542 -2.4500
  704MOL0     H95023   9.434   0.589  10.172 -2.8217 -1.5847  1.1481
  704MOL0     H95024   7.557   0.942   9.989 -1.8556 -0.6836  2.5170
  704MOL0     H95025   7.332   0.954  10.015 -3.8119 -2.1598 -0.2697
  704MOL0     H95026   6.985   0.723   9.709  0.4420  0.7392  0.1391
  704MOL0     H95027   6.790   0.590   9.665  0.8023 -1.5942  0.2042
  704MOL0     H95028   6.606   0.466   9.657 -0.3885 -3.5644  0.9022
  704MOL0     H95029   6.498   0.598   9.683 -0.0595  0.6569  1.8139
  704MOL0     H95030   6.449   0.328   9.810  1.1353  1.3817  0.8433
  704MOL0     H95031   6.392   0.356   9.643 -1.6616  3.7350 -2.1085
  704MOL0     H95032   6.260   0.552   9.726  1.3869  0.2205 -0.0770
  704MOL0     H95033   6.333   0.523   9.881 -1.3691  3.1605 -1.4052
  704MOL0     H95034   6.083   0.403   9.841 -0.1349 -0.2064  2.9294
  704MOL0     H95035   6.181   0.290   9.751 -2.4694  0.6125 -1.0775
  704MOL0     H95036   6.233   0.188  10.165 -0.9091  0.9674 -0.5241
  704MOL0     H95037   6.635   0.674  10.051  0.5404 -1.3313  0.2084
  704MOL0     H95038   6.868   0.927  10.127 -1.7830  0.7931  1.7190
  704MOL0     H95039   6.731   0.835  10.200  1.2834  0.0826  2.9179
  704MOL0     H95040   6.892   0.772  10.218  2.6142  1.5230 -0.7650
  705MOL0     O95041   5.762   6.068   6.206 -0.3762  0.1743  0.1410
  705MOL0     C95042   5.697   5.967   6.236  0.2854 -0.0862  1.0921
  705MOL0     O95043   5.739   5.838   6.220  0.2232  0.7521  0.1451
  705MOL0     C95044   5.851   5.811   6.150 -1.1828 -0.2425  0.7815
  705MOL0     C95045   5.836   5.742   6.030 -0.6197 -0.7789 -0.1989
  705MOL0     C95046   5.955   5.706   5.955  0.6173 -0.3121 -0.1423
  705MOL0     C95047   6.082   5.725   6.015 -0.0952  0.1508 -0.1901
  705MOL0     O95048   6.185   5.681   5.938 -0.6921 -0.6052  0.2029
  705MOL0     C95049   6.306   5.631   6.004  0.7693 -0.1258 -0.1048
  705MOL0     C95050   6.413   5.746   5.998  0.2629 -0.8256  0.0246
  705MOL0     C95051   6.465   5.762   5.854 -0.0576 -0.2551  0.3041
  705MOL0     C95052   6.606   5.823   5.839 -0.1316  0.2177  0.4252
  705MOL0     C95053   6.664   5.820   5.696  0.5109 -0.8909  0.2405
  705MOL0     C95054   6.809   5.885   5.684 -0.0399  0.0372 -0.4097
  705MOL0     C95055   6.887   5.874   5.556 -0.0019 -0.0106  0.2766
  705MOL0     C95056   6.805   5.920   5.432  0.0096  0.4731  0.2834
  705MOL0     N95057   6.888   5.944   5.313  0.0453 -1.1806 -0.2810
  705MOL0     C95058   6.964   5.853   5.244 -0.5813 -0.2141  0.1045
  705MOL0     C95059   7.043   5.933   5.165  0.4762 -0.7877  0.2644
  705MOL0     C95060   7.136   5.889   5.055  0.1902 -0.2448 -0.2880
  705MOL0     C95061   7.280   5.897   5.110  0.6635  0.4040 -0.1647
  705MOL0     C95062   7.375   5.821   5.017  0.3392 -0.9564  0.0044
  705MOL0     C95063   7.521   5.862   5.030 -0.8006  0.0324 -0.0708
  705MOL0     O95064   7.581   5.825   4.911 -0.6342 -0.0587 -0.3930
  705MOL0     C95065   7.668   5.717   4.919 -0.1311 -0.1197  0.1913
  705MOL0     C95066   7.626   5.583   4.886 -0.0056 -0.3089 -0.3653
  705MOL0     C95067   7.717   5.476   4.897  0.0161 -0.4837  0.1554
  705MOL0     C95068   7.849   5.507   4.925 -1.3370 -1.1539 -0.0200
  705MOL0     C95069   7.944   5.395   4.918 -0.2103  0.1259 -0.4333
  705MOL0     O95070   7.894   5.278   4.853  0.4082 -0.3322  0.2248
  705MOL0     C95071   7.979   5.182   4.806 -0.2978 -0.5651 -0.1877
  705MOL0     C95072   7.959   5.044   4.831  0.0096 -0.1319 -0.5088
  705MOL0     C95073   8.062   4.952   4.807 -0.6842 -0.6143 -1.1698
  705MOL0     C95074   8.186   4.996   4.756  0.3360 -0.6686 -0.0157
  705MOL0     O95075   8.304   4.925   4.735  0.8305  0.5906  0.5485
  705MOL0     C95076   8.335   4.826   4.836  0.2060  0.6104 -0.6228
  705MOL0     C95077   8.484   4.782   4.829 -0.6464  0.3959  0.0418
  705MOL0     C95078   8.577   4.902   4.822  0.6533 -0.4862 -0.4309
  705MOL0     C95079   8.723   4.858   4.831  0.5156  0.1366  0.0921
  705MOL0     C95080   8.813   4.980   4.826  0.5052 -0.3731 -0.4206
  705MOL0     C95081   8.957   4.948   4.786  0.3512  0.1401  0.8031
  705MOL0     C95082   9.014   4.840   4.883 -0.2831 -0.3897 -1.0954
  705MOL0     C95083   9.158   4.809   4.865  0.1120  0.2574  0.4299
  705MOL0    Cl95084   9.258   4.956   4.895 -0.4589 -0.0239  0.0516
  705MOL0     C95085   8.206   5.125   4.724 -0.4602 -0.3998  0.4022
  705MOL0     C95086   8.102   5.215   4.748 -0.8387 -0.2911 -0.2723
  705MOL0     O95087   8.060   5.402   4.966  0.1242 -0.3194  0.4608
  705MOL0     C95088   7.891   5.635   4.945 -0.2855  0.0857 -0.1386
  705MOL0     C95089   7.802   5.742   4.940  0.5644 -0.0299 -0.3200
  705MOL0     N95090   7.023   6.068   5.191  0.5919  0.8581  0.8486
  705MOL0     N95091   6.926   6.070   5.276  0.1738  0.8686  0.6428
  705MOL0     C95092   6.089   5.788   6.146  0.4845  0.0596  0.6191
  705MOL0     C95093   5.974   5.840   6.204 -0.5856  0.1836  0.0149
  705MOL0     C95094   5.561   5.998   6.275 -0.2119  0.7911 -0.4070
  705MOL0     C95095   5.468   5.898   6.254 -0.1722  0.9873  0.2806
  705MOL0     C95096   5.328   5.918   6.277 -0.6681 -0.4208 -0.0023
  705MOL0     C95097   5.290   6.033   6.332 -0.1270 -0.1809 -0.4149
  705MOL0     O95098   5.159   6.062   6.376 -0.5655  0.2500  0.3713
  705MOL0     C95099   5.057   5.962   6.386  0.1370  0.4648  0.2826
  705MOL0     C95100   4.939   6.031   6.467  0.4536  0.3237 -0.5051
  705MOL0     C95101   4.808   5.951   6.457  0.3363  0.7362  0.7179
  705MOL0     C95102   4.798   5.828   6.539 -0.5834  0.7969 -0.2416
  705MOL0     C95103   4.687   5.737   6.498 -0.4684  0.4798 -0.5476
  705MOL0     C95104   4.575   5.674   6.490 -0.3402  0.2071  0.0620
  705MOL0     C95105   5.386   6.129   6.374  0.4967 -0.0433  0.0993
  705MOL0     C95106   5.520   6.117   6.342 -0.2896  0.3087 -1.1738
  705MOL0     C95107   5.616   6.220   6.393  0.1463  0.3490  1.0671
  705MOL0     H95108   5.743   5.699   5.994 -1.6497  0.7689  0.4921
  705MOL0     H95109   5.943   5.645   5.866 -1.5134 -0.4452  0.1740
  705MOL0     H95110   6.288   5.617   6.111  2.6325 -0.7741  0.1514
  705MOL0     H95111   6.345   5.535   5.969  0.1922 -0.9050  1.3091
  705MOL0     H95112   6.496   5.713   6.060 -1.9901 -0.6652  3.3749
  705MOL0     H95113   6.368   5.837   6.038  0.1958  0.2875 -2.3811
  705MOL0     H95114   6.394   5.815   5.790  0.7018 -1.7998 -1.9721
  705MOL0     H95115   6.471   5.666   5.802  2.9596  0.1147 -0.2250
  705MOL0     H95116   6.607   5.926   5.875 -2.3496  0.4602 -0.0882
  705MOL0     H95117   6.681   5.765   5.895 -1.1635 -0.2480  1.3516
  705MOL0     H95118   6.674   5.717   5.661 -1.5099 -1.5367  1.3962
  705MOL0     H95119   6.598   5.882   5.635  1.3009 -0.9415 -0.6843
  705MOL0     H95120   6.791   5.990   5.710  1.5461  0.7869 -2.1046
  705MOL0     H95121   6.874   5.844   5.762  0.7031 -1.5589 -1.7975
  705MOL0     H95122   6.925   5.775   5.529 -0.6178  0.0184 -0.7630
  705MOL0     H95123   6.969   5.944   5.573 -0.0909  0.2163 -0.2017
  705MOL0     H95124   6.728   5.845   5.413  0.5487 -1.2413  3.9800
  705MOL0     H95125   6.762   6.014   5.467 -1.0039 -0.4104  1.4869
  705MOL0     H95126   6.967   5.745   5.257  2.8783 -0.1057  1.0707
  705MOL0     H95127   7.100   5.786   5.044 -1.8209  0.4640 -0.7168
  705MOL0     H95128   7.122   5.947   4.964  1.5347  1.2385  0.4164
  705MOL0     H95129   7.308   6.002   5.118  0.0729  0.6415 -1.0631
  705MOL0     H95130   7.285   5.856   5.211  1.9593 -1.1671 -0.8107
  705MOL0     H95131   7.344   5.849   4.916 -0.3799  2.1842  0.9886
  705MOL0     H95132   7.365   5.715   5.043  0.5195 -0.9167  0.2353
  705MOL0     H95133   7.578   5.812   5.109  1.0058  2.2178  0.1032
  705MOL0     H95134   7.536   5.971   5.030  1.6613 -0.2188 -1.9376
  705MOL0     H95135   7.530   5.557   4.844  1.5525 -2.3274 -3.0005
  705MOL0     H95136   7.679   5.382   4.858 -4.4556  0.6047  1.2188
  705MOL0     H95137   7.870   5.004   4.879  1.8224 -2.7274  0.9698
  705MOL0     H95138   8.041   4.854   4.849  2.9873 -0.1775  2.3489
  705MOL0     H95139   8.314   4.858   4.938 -2.3479 -0.2534 -0.8174
  705MOL0     H95140   8.272   4.738   4.825  1.8113 -1.1246  2.7404
  705MOL0     H95141   8.501   4.716   4.914  1.0605 -1.2499 -1.4605
  705MOL0     H95142   8.492   4.732   4.731 -1.7610  0.3842 -0.0565
  705MOL0     H95143   8.557   4.970   4.739  0.1735  1.6067  1.3134
  705MOL0     H95144   8.550   4.966   4.906 -2.0919 -0.7351 -1.0186
  705MOL0     H95145   8.736   4.800   4.739 -2.1131 -0.0011 -0.2708
  705MOL0     H95146   8.736   4.800   4.923  4.0604  2.1566  1.0685
  705MOL0     H95147   8.812   5.004   4.932  1.2370 -1.4742 -0.1548
  705MOL0     H95148   8.784   5.060   4.757 -2.7642 -2.4202 -1.6410
  705MOL0     H95149   8.960   4.917   4.681 -1.0753  1.6894  0.2559
  705MOL0     H95150   9.016   5.040   4.790  0.9351 -0.1249 -0.8341
  705MOL0     H95151   8.964   4.744   4.870  1.6530 -1.6678  0.4531
  705MOL0     H95152   9.002   4.868   4.988 -1.6849 -1.0418 -1.0539
  705MOL0     H95153   9.191   4.733   4.937  0.4338 -0.9214 -0.9083
  705MOL0     H95154   9.184   4.764   4.769  0.5090 -2.4623  1.6955
  705MOL0     H95155   8.311   5.148   4.707 -0.8892  2.3446  0.9949
  705MOL0     H95156   8.118   5.321   4.732  1.3977 -0.8852 -2.6624
  705MOL0     H95157   7.997   5.656   4.957 -0.6551  1.6722  0.6051
  705MOL0     H95158   7.847   5.840   4.951  2.0416 -0.8280  1.0647
  705MOL0     H95159   6.188   5.806   6.185  1.0463  1.5495 -1.3706
  705MOL0     H95160   5.989   5.883   6.303  0.7388  0.3367 -0.2319
  705MOL0     H95161   5.503   5.809   6.203 -1.2366 -0.4742  1.9964
  705MOL0     H95162   5.255   5.839   6.262 -0.8358 -0.1781 -0.5175
  705MOL0     H95163   5.086   5.868   6.434 -3.1654  0.0205  1.6654
  705MOL0     H95164   5.016   5.930   6.289  2.1781  1.7562 -1.0679
  705MOL0     H95165   4.919   6.132   6.429  2.2486  1.0100  0.2696
  705MOL0     H95166   4.966   6.039   6.573  1.0746 -0.2656 -0.6119
  705MOL0     H95167   4.787   5.931   6.352 -0.3575  1.2357  0.7568
  705MOL0     H95168   4.733   6.014   6.506  0.5994 -0.6055  3.0069
  705MOL0     H95169   4.894   5.775   6.532 -2.1169 -2.2876  0.0987
  705MOL0     H95170   4.791   5.845   6.647  0.7795  1.1213 -0.1936
  705MOL0     H95171   4.479   5.627   6.483  1.8252 -5.1355  0.9291
  705MOL0     H95172   5.348   6.217   6.424  0.5108 -0.0859  0.1848
  705MOL0     H95173   5.660   6.272   6.307 -1.2194  0.4912  0.4344
  705MOL0     H95174   5.567   6.291   6.460  0.7265 -0.9193  2.9405
  705MOL0     H95175   5.696   6.174   6.453  2.7951  2.1425 -0.8375
  706MOL0     O95176   1.639   0.651   5.482  0.2882  0.4570 -0.0370
  706MOL0     C95177   1.568   0.667   5.382 -0.3641  0.0551 -0.6001
  706MOL0     O95178   1.617   0.685   5.254 -0.7667  0.1724  1.4320
  706MOL0     C95179   1.741   0.628   5.235  0.2244  0.1041 -0.4328
  706MOL0     C95180   1.851   0.704   5.234 -0.1934  0.9024  1.1649
  706MOL0     C95181   1.978   0.652   5.195 -1.0905 -0.0888  0.0834
  706MOL0     C95182   2.001   0.513   5.183  1.0456 -0.0514 -0.6142
  706MOL0     O95183   2.120   0.453   5.154  0.0662  0.2599  0.2785
  706MOL0     C95184   2.235   0.532   5.169 -0.7355 -0.3394 -0.5227
  706MOL0     C95185   2.361   0.443   5.140 -0.1543 -0.5631 -0.1996
  706MOL0     C95186   2.488   0.525   5.153 -0.1265  0.2093 -0.5781
  706MOL0     C95187   2.592   0.417   5.150 -0.7877 -0.4410 -0.1469
  706MOL0     C95188   2.733   0.466   5.178 -0.3239  0.1930 -0.2086
  706MOL0     C95189   2.829   0.413   5.072  0.2224 -0.3733 -0.9414
  706MOL0     C95190   2.975   0.466   5.100 -0.6383 -0.2871 -0.1156
  706MOL0     C95191   3.081   0.415   5.001  0.1607  0.2635 -0.1241
  706MOL0     N95192   3.195   0.504   4.991 -0.1722 -0.5303  1.0660
  706MOL0     C95193   3.276   0.554   5.087 -0.4784  0.1043 -1.2040
  706MOL0     C95194   3.377   0.617   5.014  0.4221  0.0602  0.0097
  706MOL0     C95195   3.488   0.689   5.073 -0.0788 -0.0391  0.3539
  706MOL0     C95196   3.459   0.835   5.065 -1.0907 -0.2172  0.3388
  706MOL0     C95197   3.565   0.918   5.144 -0.6551 -0.0573 -0.6652
  706MOL0     C95198   3.709   0.863   5.131  0.5323  0.3688  0.9716
  706MOL0     O95199   3.796   0.964   5.165 -1.0576  0.5019 -0.5504
  706MOL0     C95200   3.932   0.934   5.159  0.1655 -0.6517  0.1540
  706MOL0     C95201   3.983   0.813   5.119  0.2007 -0.6530 -0.0748
  706MOL0     C95202   4.130   0.804   5.106 -0.2505  0.1204 -0.5785
  706MOL0     C95203   4.217   0.906   5.138  0.5768 -0.7936 -0.8724
  706MOL0     C95204   4.360   0.902   5.123  0.1566  0.4459  0.5464
  706MOL0     O95205   4.403   0.874   4.996  0.2950 -0.2759 -0.1331
  706MOL0     C95206   4.544   0.846   4.996  0.2355  0.1915 -0.2678
  706MOL0     C95207   4.586   0.727   5.063  0.5255 -0.1208 -0.6308
  706MOL0     C95208   4.725   0.700   5.077  0.6403  0.3411  0.3714
  706MOL0     C95209   4.816   0.777   5.010  0.7062 -0.5346  0.2480
  706MOL0     O95210   4.949   0.753   4.995  0.1119 -0.3359 -0.1732
  706MOL0     C95211   5.021   0.674   5.085  0.4227  0.9066 -0.9902
  706MOL0     C95212   5.166   0.659   5.029  0.3927  0.0964 -0.0153
  706MOL0     C95213   5.234   0.794   4.986  0.3404 -0.0291  0.1961
  706MOL0     C95214   5.381   0.779   4.953  0.2766  0.5741 -0.0717
  706MOL0     C95215   5.439   0.908   4.898  0.4598 -0.6499 -0.6299
  706MOL0     C95216   5.588   0.899   4.881 -0.1903 -0.4233 -0.8291
  706MOL0     C95217   5.663   1.028   4.845  0.0835 -0.2832  0.1369
  706MOL0     C95218   5.804   1.028   4.881  0.1994 -0.2649 -0.1665
  706MOL0    Cl95219   5.885   0.916   4.781 -0.2515 -0.4329 -0.3985
  706MOL0     C95220   4.766   0.884   4.934 -1.0420 -0.7173 -0.1119
  706MOL0     C95221   4.634   0.920   4.934 -0.2168 -0.5424 -0.2914
  706MOL0     O95222   4.429   0.951   5.215 -0.2118  0.0263 -0.1953
  706MOL0     C95223   4.153   1.023   5.181  0.4803  0.6145 -0.4654
  706MOL0     C95224   4.018   1.035   5.189  0.8085 -0.3036  0.3016
  706MOL0     N95225   3.352   0.613   4.879  0.3932  0.5601 -0.6678
  706MOL0     N95226   3.245   0.540   4.869 -0.4830  0.0447 -0.7930
  706MOL0     C95227   1.888   0.433   5.180 -0.2102  0.1442 -0.9425
  706MOL0     C95228   1.762   0.492   5.211 -0.6930  0.6307 -0.8840
  706MOL0     C95229   1.422   0.674   5.404  0.1626 -0.6847 -0.0686
  706MOL0     C95230   1.345   0.711   5.292  0.3538  0.7301 -0.8288
  706MOL0     C95231   1.211   0.719   5.290  0.1116  0.0844 -0.8762
  706MOL0     C95232   1.135   0.700   5.406 -0.3586 -0.1269 -0.0397
  706MOL0     O95233   0.997   0.715   5.402  0.1138  0.1047  0.2203
  706MOL0     C95234   0.925   0.669   5.516 -0.3942 -1.0740  0.2355
  706MOL0     C95235   0.774   0.653   5.478 -0.2951 -0.9245 -0.4741
  706MOL0     C95236   0.752   0.573   5.345 -0.7638  0.6993 -1.0636
  706MOL0     C95237   0.606   0.539   5.311  0.3686  0.1697 -0.0297
  706MOL0     C95238   0.571   0.415   5.384 -0.1540 -0.2183  0.7352
  706MOL0     C95239   0.553   0.303   5.423  0.0041  0.0128 -0.3777
  706MOL0     C95240   1.207   0.665   5.526 -0.3786 -0.3823  0.1270
  706MOL0     C95241   1.350   0.660   5.529 -0.2164 -0.1646  0.0927
  706MOL0     C95242   1.415   0.632   5.662  0.9750  0.9857 -0.2117
  706MOL0     H95243   1.835   0.807   5.266  2.4486  0.4820  4.3866
  706MOL0     H95244   2.057   0.726   5.184 -1.2423 -0.2111 -2.6048
  706MOL0     H95245   2.231   0.617   5.101 -0.4602 -0.1278 -0.2765
  706MOL0     H95246   2.241   0.568   5.272  1.9005 -0.9274 -0.3900
  706MOL0     H95247   2.357   0.395   5.042 -1.2003  0.4131 -0.6596
  706MOL0     H95248   2.363   0.357   5.208 -1.3654  0.8448  1.7055
  706MOL0     H95249   2.490   0.579   5.248  1.8205 -2.2913  0.9390
  706MOL0     H95250   2.499   0.600   5.075  0.0438  1.0739  0.2658
  706MOL0     H95251   2.580   0.331   5.217 -1.9541  0.4574  0.8515
  706MOL0     H95252   2.596   0.374   5.050 -1.9218 -2.9287  0.7997
  706MOL0     H95253   2.734   0.575   5.178  0.2602  0.2886  3.1291
  706MOL0     H95254   2.773   0.439   5.276  2.4447 -0.1520 -1.3203
  706MOL0     H95255   2.832   0.304   5.083  1.6617 -0.5901 -2.9414
  706MOL0     H95256   2.792   0.435   4.972 -3.1378  1.6650  0.5531
  706MOL0     H95257   3.014   0.430   5.196  0.0295  2.6047  0.8152
  706MOL0     H95258   2.968   0.575   5.091  1.4422 -0.2787 -3.8405
  706MOL0     H95259   3.118   0.315   5.024  0.5267  1.0460  3.2141
  706MOL0     H95260   3.028   0.415   4.905 -0.5746  0.2707  0.2721
  706MOL0     H95261   3.253   0.543   5.193 -0.2384  0.7865 -1.0805
  706MOL0     H95262   3.499   0.662   5.178  0.0292 -0.9541  0.1185
  706MOL0     H95263   3.576   0.664   5.013 -3.2182 -2.0653 -3.8726
  706MOL0     H95264   3.451   0.872   4.963 -1.1172 -1.0262  0.0402
  706MOL0     H95265   3.361   0.852   5.111 -0.6050 -3.6638  3.0638
  706MOL0     H95266   3.541   0.932   5.250  0.2737 -0.3241 -0.4030
  706MOL0     H95267   3.566   1.021   5.107 -0.9944 -0.0223 -0.5800
  706MOL0     H95268   3.715   0.838   5.025 -0.1668  3.4260  0.0980
  706MOL0     H95269   3.721   0.774   5.194 -0.6615 -0.5421 -0.0394
  706MOL0     H95270   3.923   0.732   5.080 -1.4665  0.1258  0.7966
  706MOL0     H95271   4.173   0.708   5.079  2.0091  1.0707 -0.5390
  706MOL0     H95272   4.506   0.669   5.108 -2.0225  2.4766 -1.4641
  706MOL0     H95273   4.756   0.613   5.133 -0.2889  0.4793  1.1219
  706MOL0     H95274   5.020   0.723   5.183 -2.3652 -2.0519  0.6652
  706MOL0     H95275   4.972   0.578   5.106 -2.3439  2.5139  0.5943
  706MOL0     H95276   5.220   0.598   5.102  1.4975 -0.2963 -1.1249
  706MOL0     H95277   5.161   0.601   4.936  0.8564 -2.4353  1.4439
  706MOL0     H95278   5.189   0.839   4.897  4.0998  0.8142 -1.4610
  706MOL0     H95279   5.218   0.862   5.071 -0.3006 -2.1536  1.8638
  706MOL0     H95280   5.403   0.691   4.893 -1.2921  0.2516 -0.2060
  706MOL0     H95281   5.437   0.756   5.045  0.2303  0.4366 -0.0788
  706MOL0     H95282   5.417   0.997   4.957  0.1012 -0.6016 -0.8317
  706MOL0     H95283   5.407   0.931   4.796  1.6207 -0.6996 -1.0193
  706MOL0     H95284   5.626   0.880   4.982  1.5165  0.8822 -1.1650
  706MOL0     H95285   5.616   0.824   4.806 -1.4086 -0.7974 -0.9284
  706MOL0     H95286   5.623   1.113   4.901  2.1560 -1.1877  3.2422
  706MOL0     H95287   5.655   1.044   4.737  0.3428  0.1400  0.1788
  706MOL0     H95288   5.847   1.127   4.863 -0.9663  0.2113 -0.3934
  706MOL0     H95289   5.812   1.010   4.988 -0.9801 -2.9749 -0.4474
  706MOL0     H95290   4.840   0.939   4.877 -0.7712 -0.7792  0.1774
  706MOL0     H95291   4.588   1.002   4.879 -0.6759  0.0495  0.9239
  706MOL0     H95292   4.217   1.107   5.205  1.1979 -0.2636  0.8082
  706MOL0     H95293   3.972   1.125   5.229 -1.5112 -0.3428 -1.9722
  706MOL0     H95294   1.905   0.328   5.158  0.5915  0.2965 -1.0908
  706MOL0     H95295   1.667   0.440   5.224  1.3044 -2.8273  1.7875
  706MOL0     H95296   1.399   0.732   5.201  2.6376  1.7771  0.6656
  706MOL0     H95297   1.152   0.737   5.200 -2.9266  0.6111  1.0853
  706MOL0     H95298   0.928   0.753   5.585  0.6362  0.3184 -1.4186
  706MOL0     H95299   0.954   0.567   5.542  0.4908 -0.4884  1.6283
  706MOL0     H95300   0.721   0.749   5.474  0.3283 -0.6161 -1.8624
  706MOL0     H95301   0.726   0.594   5.557 -0.1608  0.2819  0.5507
  706MOL0     H95302   0.805   0.478   5.353 -0.0624  1.2098  1.1306
  706MOL0     H95303   0.786   0.642   5.267  1.0266  0.9908 -0.0774
  706MOL0     H95304   0.540   0.621   5.342 -2.5448 -1.5256 -1.3790
  706MOL0     H95305   0.594   0.525   5.203 -5.0130 -0.7156  0.4376
  706MOL0     H95306   0.547   0.200   5.452 -2.9571 -0.2883 -1.6798
  706MOL0     H95307   1.144   0.656   5.614 -1.6796  3.5515 -0.1985
  706MOL0     H95308   1.486   0.711   5.687  1.1899  0.4588  0.8882
  706MOL0     H95309   1.354   0.640   5.753  1.6299  3.7380  0.0786
  706MOL0     H95310   1.471   0.539   5.666 -0.1770  0.3240  2.4449
  707MOL0     O95311   0.880   3.374   4.894 -0.1993  0.4334 -0.4281
  707MOL0     C95312   0.951   3.278   4.916 -0.0391  0.1457 -0.3214
  707MOL0     O95313   1.091   3.271   4.914 -0.1321 -0.1913  0.2297
  707MOL0     C95314   1.143   3.375   4.834  0.0317 -0.2082 -0.3887
  707MOL0     C95315   1.206   3.483   4.902  0.6060  0.1256  0.7299
  707MOL0     C95316   1.275   3.587   4.839  1.2801 -0.0877 -0.4287
  707MOL0     C95317   1.283   3.582   4.700 -0.1826  0.0823  0.1659
  707MOL0     O95318   1.364   3.675   4.633 -0.2644 -0.3008  1.0239
  707MOL0     C95319   1.450   3.612   4.537 -0.7250  0.1362 -0.6779
  707MOL0     C95320   1.564   3.712   4.493 -0.1593  0.3116  0.3794
  707MOL0     C95321   1.524   3.836   4.410  0.4438  0.4560  0.2831
  707MOL0     C95322   1.659   3.912   4.392  0.4120 -0.1227  0.4522
  707MOL0     C95323   1.617   4.040   4.316  0.1897 -0.2158 -0.4390
  707MOL0     C95324   1.530   4.137   4.402  0.1156 -0.1112  0.8144
  707MOL0     C95325   1.549   4.283   4.352 -0.3190 -0.6792  0.0295
  707MOL0     C95326   1.460   4.329   4.241 -0.3141  0.3561 -0.9990
  707MOL0     N95327   1.533   4.307   4.113 -0.1117  0.4419  0.1541
  707MOL0     C95328   1.634   4.374   4.052 -0.2425  0.2557  0.2658
  707MOL0     C95329   1.681   4.293   3.956 -1.1590  0.7811  0.9687
  707MOL0     C95330   1.819   4.291   3.886  0.0514  0.0333 -0.7783
  707MOL0     C95331   1.936   4.345   3.972  0.1392 -0.6401  0.1999
  707MOL0     C95332   1.956   4.288   4.112  0.1177 -0.4951  0.7329
  707MOL0     C95333   2.004   4.148   4.099 -0.6987  0.3251  0.8769
  707MOL0     O95334   2.107   4.132   3.998 -0.1670 -0.3105  0.5164
  707MOL0     C95335   2.239   4.097   4.032  0.6255  0.7994  0.9354
  707MOL0     C95336   2.303   3.996   3.973  0.4359  0.4583 -0.0430
  707MOL0     C95337   2.439   3.956   3.988  0.6218 -0.3973 -0.5906
  707MOL0     C95338   2.510   4.026   4.089  0.5409 -0.7206 -0.0295
  707MOL0     C95339   2.635   3.996   4.136  0.3502 -0.8007  0.1718
  707MOL0     O95340   2.664   4.042   4.268  0.5445 -0.3287 -0.2771
  707MOL0     C95341   2.792   4.015   4.306 -0.1247 -0.0124  0.7112
  707MOL0     C95342   2.792   3.925   4.413  0.5504  0.3914 -0.4484
  707MOL0     C95343   2.906   3.896   4.480  0.1445  0.8368  0.2809
  707MOL0     C95344   3.028   3.961   4.456  0.1614 -0.5118  0.6402
  707MOL0     O95345   3.144   3.933   4.525  0.1558  0.1595  0.6611
  707MOL0     C95346   3.144   4.020   4.639 -0.9338 -0.6241 -0.2687
  707MOL0     C95347   3.206   3.944   4.758  0.2357 -1.1152 -0.3408
  707MOL0     C95348   3.354   3.905   4.747  0.6513  0.3743  0.2557
  707MOL0     C95349   3.452   4.018   4.722 -0.5115  0.1489 -0.4888
  707MOL0     C95350   3.598   3.968   4.726 -0.3802  0.0104 -0.6555
  707MOL0     C95351   3.684   4.092   4.732 -0.3946 -0.0779 -0.1638
  707MOL0     C95352   3.672   4.182   4.601 -0.0655 -0.3698 -0.0899
  707MOL0     C95353   3.765   4.286   4.619  0.4134 -1.2295 -1.1284
  707MOL0    Cl95354   3.930   4.229   4.568  0.3133  0.0009 -0.0940
  707MOL0     C95355   3.032   4.050   4.353  0.6915  0.3040 -1.0648
  707MOL0     C95356   2.916   4.082   4.277  0.5148 -0.3353 -0.1182
  707MOL0     O95357   2.709   3.935   4.066 -0.1052 -0.2158  0.2830
  707MOL0     C95358   2.437   4.128   4.162 -0.0869  0.0273  0.1704
  707MOL0     C95359   2.312   4.163   4.125 -0.9970 -0.8132 -0.1524
  707MOL0     N95360   1.582   4.189   3.945  0.2718 -0.0501 -0.0187
  707MOL0     N95361   1.504   4.199   4.037 -0.4829  0.9750  0.2531
  707MOL0     C95362   1.222   3.474   4.631  0.0001  0.9381  0.3962
  707MOL0     C95363   1.156   3.367   4.700 -0.0283  0.9033 -0.7657
  707MOL0     C95364   0.881   3.147   4.937 -0.1334 -0.1375  0.4450
  707MOL0     C95365   0.927   3.059   5.038  0.1313 -0.4622  0.1184
  707MOL0     C95366   0.869   2.933   5.055  0.2778  0.1397  0.3059
  707MOL0     C95367   0.752   2.896   4.996  0.0395  0.6875 -0.3080
  707MOL0     O95368   0.676   2.793   5.033 -0.3670 -0.1668 -0.5952
  707MOL0     C95369   0.693   2.729   5.163  0.3318  0.0241  0.6132
  707MOL0     C95370   0.561   2.683   5.207 -0.4526  0.5397 -0.5476
  707MOL0     C95371   0.463   2.804   5.205  0.2887  0.5009 -0.5930
  707MOL0     C95372   0.355   2.797   5.319  0.4806  0.6318 -1.0724
  707MOL0     C95373   0.246   2.709   5.267 -0.7053  0.1263 -0.4049
  707MOL0     C95374   0.172   2.625   5.226  0.5893 -0.6766  0.0464
  707MOL0     C95375   0.700   2.988   4.907  0.2671 -0.1669  0.2764
  707MOL0     C95376   0.764   3.108   4.866  0.1714 -1.2231  0.2304
  707MOL0     C95377   0.695   3.192   4.756 -0.9266 -0.2786 -0.3328
  707MOL0     H95378   1.179   3.493   5.007 -2.9062  2.9093 -0.2194
  707MOL0     H95379   1.311   3.671   4.898  1.7251 -1.8126  1.9024
  707MOL0     H95380   1.505   3.523   4.571  0.9383  0.5057 -2.2400
  707MOL0     H95381   1.396   3.571   4.451  1.8059 -1.9440 -1.4427
  707MOL0     H95382   1.627   3.650   4.429  0.8390  2.4882 -0.8485
  707MOL0     H95383   1.623   3.747   4.579  3.2460 -0.4227 -1.4586
  707MOL0     H95384   1.443   3.889   4.460  1.9213  1.7450  1.4061
  707MOL0     H95385   1.495   3.810   4.308  3.8501 -1.8726 -0.2663
  707MOL0     H95386   1.696   3.936   4.492 -2.5953  0.8975  1.4503
  707MOL0     H95387   1.728   3.858   4.327  0.5560  0.2894  0.2611
  707MOL0     H95388   1.709   4.092   4.285  0.9409 -1.8046 -0.9707
  707MOL0     H95389   1.566   4.013   4.224 -0.9523  0.7181 -0.0971
  707MOL0     H95390   1.422   4.120   4.400 -0.0898  0.6268  3.1020
  707MOL0     H95391   1.569   4.120   4.502  2.4583 -2.7022 -0.3939
  707MOL0     H95392   1.657   4.297   4.340 -0.5277  1.7822  0.5198
  707MOL0     H95393   1.519   4.342   4.439 -1.6159  0.1076 -0.9243
  707MOL0     H95394   1.371   4.266   4.248  0.1082 -0.2036 -0.6239
  707MOL0     H95395   1.426   4.432   4.256 -1.7615  0.0071 -1.7007
  707MOL0     H95396   1.701   4.443   4.104 -2.0894  0.9687  1.8280
  707MOL0     H95397   1.840   4.186   3.863 -0.5718 -0.7469  1.8564
  707MOL0     H95398   1.815   4.343   3.791 -0.2984  1.4831  0.0056
  707MOL0     H95399   2.030   4.337   3.917  1.3048 -1.5832  2.2049
  707MOL0     H95400   1.905   4.450   3.981 -0.6839 -0.8280 -0.3580
  707MOL0     H95401   1.868   4.295   4.177  1.2738 -0.6646  2.3633
  707MOL0     H95402   2.039   4.351   4.145  2.2228 -1.4847 -2.2812
  707MOL0     H95403   1.917   4.086   4.075 -0.2994 -0.1481  0.6269
  707MOL0     H95404   2.033   4.122   4.201  1.0819 -0.7468  0.1366
  707MOL0     H95405   2.251   3.926   3.909  0.9218 -1.7161  1.8451
  707MOL0     H95406   2.479   3.862   3.953  0.8129 -1.7653  2.9212
  707MOL0     H95407   2.701   3.879   4.449 -1.3149  4.3443  0.3746
  707MOL0     H95408   2.900   3.831   4.567 -4.0064  0.2909 -0.2298
  707MOL0     H95409   3.210   4.106   4.627 -1.7000 -0.0457 -0.3604
  707MOL0     H95410   3.046   4.057   4.671 -0.5431  1.4259 -1.2862
  707MOL0     H95411   3.196   4.010   4.845 -1.0339 -2.1527  0.3313
  707MOL0     H95412   3.147   3.854   4.775 -0.3266 -0.6010  0.4774
  707MOL0     H95413   3.387   3.861   4.842  0.9782  2.7655  1.3234
  707MOL0     H95414   3.355   3.829   4.668 -1.9563  2.0672 -1.5693
  707MOL0     H95415   3.434   4.100   4.792  1.0686 -0.8787  1.2211
  707MOL0     H95416   3.434   4.049   4.619 -1.4741 -1.8095 -0.9431
  707MOL0     H95417   3.637   3.899   4.649  3.3675  1.3879 -0.2278
  707MOL0     H95418   3.621   3.910   4.816 -1.8875  0.0088 -0.2574
  707MOL0     H95419   3.645   4.155   4.812 -0.7542  0.4377 -0.7380
  707MOL0     H95420   3.786   4.056   4.748 -0.9503 -0.9871  1.5645
  707MOL0     H95421   3.568   4.214   4.587  0.0299 -0.8942 -2.5210
  707MOL0     H95422   3.698   4.128   4.509 -1.0777 -1.1278  0.0467
  707MOL0     H95423   3.748   4.375   4.557 -1.9892  0.4434  1.6812
  707MOL0     H95424   3.761   4.318   4.723  0.8102 -1.8132 -0.9269
  707MOL0     H95425   3.122   4.106   4.328  1.1260  1.8002  3.0364
  707MOL0     H95426   2.926   4.156   4.198 -1.6545  0.4576  0.2941
  707MOL0     H95427   2.479   4.186   4.243  4.0147 -2.5564  0.1942
  707MOL0     H95428   2.276   4.243   4.189  1.5752  0.5552 -0.3011
  707MOL0     H95429   1.218   3.470   4.522  0.3385 -2.7151  0.3755
  707MOL0     H95430   1.107   3.291   4.639  1.6072  0.7177 -1.9043
  707MOL0     H95431   1.012   3.096   5.095  0.0990  1.1677 -0.8176
  707MOL0     H95432   0.908   2.864   5.129 -1.0144  0.2769  1.1516
  707MOL0     H95433   0.732   2.800   5.237 -0.8527  0.5774  0.7277
  707MOL0     H95434   0.757   2.641   5.157 -1.4036 -1.2688  0.1045
  707MOL0     H95435   0.578   2.639   5.305 -0.4969 -0.9335 -1.1862
  707MOL0     H95436   0.519   2.603   5.146 -0.3090 -0.5008  0.6980
  707MOL0     H95437   0.417   2.820   5.107 -2.3674  1.6768  0.7491
  707MOL0     H95438   0.517   2.896   5.231 -0.7004  0.7522  0.6607
  707MOL0     H95439   0.396   2.752   5.410  1.2201 -0.4486 -1.9209
  707MOL0     H95440   0.302   2.888   5.351  0.3438 -0.8417  3.6139
  707MOL0     H95441   0.113   2.547   5.184  0.4064 -1.9600  2.5254
  707MOL0     H95442   0.604   2.955   4.867  2.0880 -3.6551 -1.6582
  707MOL0     H95443   0.655   3.116   4.688  1.2749 -1.9564  0.1246
  707MOL0     H95444   0.608   3.242   4.799 -1.2138 -0.6222 -0.5046
  707MOL0     H95445   0.766   3.256   4.702 -0.5312 -0.2832  0.1722
  708MOL0     O95446  10.258   4.438   8.962 -0.6913 -0.0461  0.5361
  708MOL0     C95447  10.278   4.539   9.029  0.3292 -0.1687  0.2124
  708MOL0     O95448  10.398   4.611   9.032  0.5995  0.0010  1.0675
  708MOL0     C95449  10.511   4.536   9.016 -1.0101  0.2151  0.1354
  708MOL0     C95450  10.560   4.526   8.884  0.3833  0.0071  0.2263
  708MOL0     C95451  10.685   4.451   8.867 -0.6300  0.2418 -0.6590
  708MOL0     C95452  10.758   4.404   8.978 -0.2056 -0.0563  0.2810
  708MOL0     O95453  10.879   4.341   8.968 -0.2458  0.3789 -0.3517
  708MOL0     C95454  10.937   4.339   8.836 -0.3910  0.9706 -0.0786
  708MOL0     C95455  11.080   4.277   8.846 -0.1380  0.8492  0.2782
  708MOL0     C95456  11.184   4.359   8.928  0.3488 -0.0859 -0.3936
  708MOL0     C95457  11.313   4.269   8.945  0.7115 -0.3879 -0.5829
  708MOL0     C95458  11.414   4.363   9.006 -0.8960  0.3689  0.1671
  708MOL0     C95459  11.542   4.286   9.029 -0.4986 -0.2021  0.5144
  708MOL0     C95460  11.656   4.380   9.067 -0.3790  0.1835  0.0340
  708MOL0     C95461  11.795   4.317   9.041 -0.3448  0.1805 -0.8142
  708MOL0     N95462  11.825   4.190   9.118 -0.2593 -0.3574  0.2835
  708MOL0     C95463  11.868   4.166   9.252 -0.5800  0.2621 -0.3222
  708MOL0     C95464  11.891   4.032   9.257  0.3649  0.3040 -0.2501
  708MOL0     C95465  11.920   3.958   9.377 -0.0219  0.3780  0.9954
  708MOL0     C95466  12.057   3.891   9.375  0.0438 -0.4210 -0.4273
  708MOL0     C95467  12.047   3.749   9.329  0.6579 -0.1373  0.7359
  708MOL0     C95468  12.194   3.693   9.310  0.1057 -0.1291 -0.4422
  708MOL0     O95469  12.199   3.552   9.302  0.2270 -0.3574 -0.8479
  708MOL0     C95470  12.320   3.491   9.264 -0.2581 -1.0594  1.0778
  708MOL0     C95471  12.442   3.564   9.266  0.0480 -0.1523  0.1465
  708MOL0     C95472  12.555   3.498   9.231  0.1386 -0.4085 -0.6121
  708MOL0     C95473  12.562   3.367   9.176  0.9424 -0.0306 -0.5904
  708MOL0     C95474  12.692   3.311   9.141  0.3715  0.0354 -0.2002
  708MOL0     O95475  12.805   3.373   9.192 -0.5444  0.4242  0.3305
  708MOL0     C95476  12.924   3.300   9.197  0.6004  0.6632  0.1054
  708MOL0     C95477  12.940   3.190   9.284  0.1814  0.1836  0.3067
  708MOL0     C95478  13.057   3.103   9.287  0.6013 -1.0701 -0.4337
  708MOL0     C95479  13.165   3.145   9.216  0.1336 -0.2183 -0.1526
  708MOL0     O95480  13.281   3.069   9.236  0.7413  0.3154  0.0727
  708MOL0     C95481  13.352   3.030   9.114 -0.3329 -0.5357  0.2113
  708MOL0     C95482  13.504   3.068   9.140 -0.3807  0.6624  0.5834
  708MOL0     C95483  13.508   3.213   9.188 -0.2158  0.2268  0.0581
  708MOL0     C95484  13.656   3.252   9.223  0.3567 -0.2679 -0.4271
  708MOL0     C95485  13.656   3.393   9.279  0.1695 -0.2962 -0.1149
  708MOL0     C95486  13.807   3.421   9.318 -0.8363  0.0420 -0.2406
  708MOL0     C95487  13.810   3.515   9.447  0.5118 -0.0517  0.0747
  708MOL0     C95488  13.807   3.436   9.585  0.1637  0.6276 -0.6419
  708MOL0    Cl95489  13.663   3.350   9.615  0.0540  0.0737 -0.0009
  708MOL0     C95490  13.149   3.256   9.128  0.1178 -0.7176  0.4516
  708MOL0     C95491  13.028   3.337   9.120 -1.5369  0.5952 -0.3613
  708MOL0     O95492  12.689   3.198   9.083  0.2941  0.2313  0.0847
  708MOL0     C95493  12.438   3.296   9.170  1.1640  0.0397 -0.2578
  708MOL0     C95494  12.318   3.362   9.219  0.4070  0.5716  0.3941
  708MOL0     N95495  11.858   3.966   9.140  0.8291 -0.4017  0.2105
  708MOL0     N95496  11.827   4.064   9.053 -0.6154 -0.2476  0.6875
  708MOL0     C95497  10.706   4.420   9.110  0.5163 -1.0974  0.0809
  708MOL0     C95498  10.590   4.495   9.125 -0.6506 -0.2064 -0.0483
  708MOL0     C95499  10.166   4.599   9.097 -0.4487 -0.2751 -0.1485
  708MOL0     C95500  10.161   4.734   9.103 -0.6785  0.0508 -0.0138
  708MOL0     C95501  10.066   4.797   9.183 -0.2516 -0.1608  0.1812
  708MOL0     C95502   9.963   4.724   9.238 -0.0715 -0.4033  0.3606
  708MOL0     O95503   9.871   4.776   9.319 -0.3752 -0.6059 -0.1152
  708MOL0     C95504   9.863   4.914   9.339 -0.2054 -0.7678  0.1527
  708MOL0     C95505   9.749   4.940   9.442  0.3028  0.6336  0.3497
  708MOL0     C95506   9.723   5.091   9.468 -0.4228  0.7068  0.4818
  708MOL0     C95507   9.831   5.168   9.552 -0.1936  0.0501  0.8727
  708MOL0     C95508   9.765   5.181   9.678 -0.1165  0.3319 -0.2925
  708MOL0     C95509   9.704   5.170   9.779  0.3732  0.0727  0.2149
  708MOL0     C95510   9.958   4.584   9.222  0.6516 -0.2574 -0.2675
  708MOL0     C95511  10.064   4.523   9.157 -0.8220  0.2052  0.3145
  708MOL0     C95512  10.060   4.372   9.162  0.4970 -0.5487 -0.6235
  708MOL0     H95513  10.511   4.584   8.807  1.1457  1.8645  1.0951
  708MOL0     H95514  10.725   4.460   8.767 -0.6581  2.2559 -0.5304
  708MOL0     H95515  10.881   4.266   8.777  2.7490 -3.3009  1.7086
  708MOL0     H95516  10.934   4.440   8.794  1.2692  0.7607 -0.7743
  708MOL0     H95517  11.122   4.265   8.746  0.7289  0.7453  0.6466
  708MOL0     H95518  11.073   4.178   8.893 -0.1847  0.8703  0.3160
  708MOL0     H95519  11.147   4.392   9.026  1.3316  0.9935 -0.3602
  708MOL0     H95520  11.208   4.445   8.864 -0.5412  1.0302  0.7048
  708MOL0     H95521  11.298   4.188   9.017  1.5122  0.4329  0.5439
  708MOL0     H95522  11.336   4.214   8.854 -2.7098 -2.1836 -0.5395
  708MOL0     H95523  11.433   4.446   8.937  1.0854 -0.8730 -0.8645
  708MOL0     H95524  11.401   4.412   9.103  0.9283  1.7564 -0.2450
  708MOL0     H95525  11.539   4.208   9.106  1.6949 -0.9290 -0.0631
  708MOL0     H95526  11.561   4.235   8.935 -0.4049  0.5940  0.0912
  708MOL0     H95527  11.659   4.429   9.165  2.3546 -0.9451  0.5970
  708MOL0     H95528  11.647   4.472   9.007  3.3716  0.5373 -0.2525
  708MOL0     H95529  11.825   4.304   8.937 -1.6112  2.4740 -1.5538
  708MOL0     H95530  11.868   4.386   9.083  1.0187 -0.2158 -2.4042
  708MOL0     H95531  11.897   4.243   9.323 -2.6332 -0.2488  1.1718
  708MOL0     H95532  11.931   4.027   9.461  0.6881 -0.2854  1.4545
  708MOL0     H95533  11.836   3.893   9.402  0.2682 -0.8499 -1.0153
  708MOL0     H95534  12.132   3.945   9.317  0.0983 -1.0041 -0.9069
  708MOL0     H95535  12.103   3.898   9.474 -1.0436  2.7400 -0.0135
  708MOL0     H95536  12.002   3.735   9.230  1.3545  0.3079  0.3453
  708MOL0     H95537  11.995   3.697   9.410  0.4441 -0.0255  0.6720
  708MOL0     H95538  12.255   3.719   9.397 -0.3396  1.5440 -0.5923
  708MOL0     H95539  12.233   3.745   9.221 -0.5204  2.4861  0.7248
  708MOL0     H95540  12.444   3.661   9.315 -3.0371  0.7122 -1.1503
  708MOL0     H95541  12.651   3.545   9.250 -0.5830  0.2116  1.8655
  708MOL0     H95542  12.860   3.152   9.346 -0.7790  0.1927 -0.8922
  708MOL0     H95543  13.062   3.008   9.338 -4.0822 -0.9529  0.6474
  708MOL0     H95544  13.357   2.924   9.089  2.9735 -0.2000 -1.1180
  708MOL0     H95545  13.319   3.090   9.029  0.9182 -0.1691 -0.0375
  708MOL0     H95546  13.548   3.000   9.214  0.7072 -1.1635 -1.6334
  708MOL0     H95547  13.554   3.064   9.043 -3.2819  3.0664 -1.1710
  708MOL0     H95548  13.482   3.275   9.102  1.7552  0.5443 -0.3554
  708MOL0     H95549  13.436   3.235   9.267 -2.5071 -1.6342 -1.3758
  708MOL0     H95550  13.710   3.251   9.128 -0.0416 -1.7351 -0.6552
  708MOL0     H95551  13.698   3.187   9.300 -1.1064  1.2466  1.7723
  708MOL0     H95552  13.594   3.390   9.369 -2.5781 -0.4039 -1.8921
  708MOL0     H95553  13.609   3.468   9.215  2.0928  1.2333  0.2016
  708MOL0     H95554  13.878   3.338   9.331 -2.6893 -1.3943  1.3349
  708MOL0     H95555  13.843   3.471   9.228  1.4102  0.2189  0.6776
  708MOL0     H95556  13.727   3.586   9.452 -1.3287 -1.9858 -1.2801
  708MOL0     H95557  13.904   3.571   9.451  0.9555 -0.8269  0.9168
  708MOL0     H95558  13.894   3.370   9.576  0.1299  0.8256 -3.7623
  708MOL0     H95559  13.823   3.510   9.663  0.5298  0.6105 -0.6985
  708MOL0     H95560  13.233   3.283   9.065 -0.2600  0.8740  0.5985
  708MOL0     H95561  13.009   3.417   9.050 -1.2699  1.8700  0.9576
  708MOL0     H95562  12.439   3.193   9.138  4.2446  1.0491 -4.1072
  708MOL0     H95563  12.226   3.305   9.219 -0.6857  2.2597  1.6652
  708MOL0     H95564  10.766   4.394   9.197  1.4221 -0.9103 -0.4763
  708MOL0     H95565  10.553   4.527   9.221 -0.1567  2.8922 -0.7688
  708MOL0     H95566  10.227   4.811   9.063 -2.5268  1.4838 -0.4740
  708MOL0     H95567  10.060   4.905   9.193  1.4408 -0.0177 -0.0761
  708MOL0     H95568   9.847   4.965   9.244  2.2075  1.0634  0.6161
  708MOL0     H95569   9.957   4.960   9.369  1.2261 -0.1428 -4.4862
  708MOL0     H95570   9.777   4.896   9.538 -2.5255 -3.2111 -0.3477
  708MOL0     H95571   9.658   4.890   9.407 -0.6901  0.9710  2.2827
  708MOL0     H95572   9.618   5.103   9.497 -1.4096 -1.8626 -1.5673
  708MOL0     H95573   9.741   5.137   9.371  0.6909 -0.8170 -0.0850
  708MOL0     H95574   9.927   5.116   9.544  1.1262  2.5809 -2.2123
  708MOL0     H95575   9.851   5.268   9.511  0.9355 -0.3558  0.3936
  708MOL0     H95576   9.645   5.155   9.867 -0.3874 -0.9505 -0.4476
  708MOL0     H95577   9.871   4.528   9.256  0.1949 -0.3042 -1.4475
  708MOL0     H95578   9.979   4.351   9.233  0.2733 -1.1857 -1.0611
  708MOL0     H95579  10.023   4.338   9.065 -2.2090  0.3348 -0.0038
  708MOL0     H95580  10.157   4.329   9.188  0.1612 -1.7686 -1.3235
  709MOL0     O95581  10.627   7.642   2.998  0.2637 -0.0877  0.0865
  709MOL0     C95582  10.717   7.683   3.075  0.6210 -0.1715 -0.1143
  709MOL0     O95583  10.825   7.611   3.110 -0.1742 -0.4731  0.2441
  709MOL0     C95584  10.868   7.503   3.038  0.3766  0.2147 -0.2183
  709MOL0     C95585  10.863   7.490   2.897 -0.3478 -0.2788 -0.7932
  709MOL0     C95586  10.897   7.379   2.831 -0.6724  0.7150 -0.6576
  709MOL0     C95587  10.930   7.262   2.903  0.7979 -0.2103  0.6253
  709MOL0     O95588  10.974   7.157   2.837 -0.0301 -0.3771  0.4529
  709MOL0     C95589  10.918   7.034   2.881 -0.4235  0.6252 -0.0475
  709MOL0     C95590  10.983   6.918   2.810 -0.5541  0.3900 -0.2143
  709MOL0     C95591  11.138   6.917   2.832  0.9514  0.3020 -0.6578
  709MOL0     C95592  11.209   6.833   2.725  0.2089 -0.1486  0.9541
  709MOL0     C95593  11.349   6.815   2.768 -0.6136  0.2497  1.3052
  709MOL0     C95594  11.441   6.941   2.802  0.5045  0.0466 -0.0710
  709MOL0     C95595  11.586   6.896   2.828  0.5402 -1.3926  0.7496
  709MOL0     C95596  11.661   7.011   2.908  0.9809  0.2141 -0.2266
  709MOL0     N95597  11.807   7.006   2.907  0.2700 -0.0285  0.0320
  709MOL0     C95598  11.887   7.117   2.883  0.7045  0.0423  0.3050
  709MOL0     C95599  12.011   7.063   2.883 -0.8983  0.2613  0.0259
  709MOL0     C95600  12.145   7.143   2.888 -0.1498  0.9029 -0.5312
  709MOL0     C95601  12.253   7.081   2.796  0.1582 -0.3948  0.2488
  709MOL0     C95602  12.387   7.144   2.823 -0.5748  0.5226 -0.3252
  709MOL0     C95603  12.488   7.091   2.722 -0.1041 -1.1302 -0.3468
  709MOL0     O95604  12.597   7.037   2.792  0.0571 -0.1987 -0.0342
  709MOL0     C95605  12.722   7.038   2.734  0.2127  0.7749  0.4805
  709MOL0     C95606  12.737   6.996   2.602 -0.3145  0.0585 -0.8641
  709MOL0     C95607  12.865   6.971   2.549 -0.2637 -0.4757 -0.0024
  709MOL0     C95608  12.979   6.992   2.625  0.2983  0.3529  1.4875
  709MOL0     C95609  13.119   6.979   2.573 -0.3836 -0.1968 -0.7118
  709MOL0     O95610  13.221   6.996   2.659  0.2859 -0.0430  0.4375
  709MOL0     C95611  13.346   7.023   2.610  0.5197  1.3099  0.3692
  709MOL0     C95612  13.384   7.148   2.551 -0.0071 -0.2246 -0.6042
  709MOL0     C95613  13.515   7.172   2.526 -0.0792  0.0009  0.4449
  709MOL0     C95614  13.616   7.077   2.547 -0.6203 -0.5012  0.4320
  709MOL0     O95615  13.747   7.105   2.523 -0.3248  0.1740 -0.6361
  709MOL0     C95616  13.793   7.228   2.460  0.1061  0.1161  0.1340
  709MOL0     C95617  13.947   7.223   2.484  0.3997  0.6503 -0.2575
  709MOL0     C95618  14.007   7.117   2.396 -0.4890  0.6839  0.4700
  709MOL0     C95619  14.160   7.131   2.395  0.2658  0.3830  1.2925
  709MOL0     C95620  14.246   7.055   2.297 -0.0270 -1.0288 -0.1888
  709MOL0     C95621  14.393   7.095   2.316  0.6972  0.2939  0.4742
  709MOL0     C95622  14.474   7.042   2.192 -0.3474 -0.6214  0.1553
  709MOL0     C95623  14.621   7.079   2.202  0.5464  0.2855  0.1778
  709MOL0    Cl95624  14.709   7.006   2.344  0.3165 -0.2820  0.3199
  709MOL0     C95625  13.581   6.950   2.601 -0.0654 -0.6961 -0.2597
  709MOL0     C95626  13.443   6.928   2.632 -0.6350  0.5733  0.1318
  709MOL0     O95627  13.128   6.963   2.449  0.1232 -0.1884 -0.4258
  709MOL0     C95628  12.957   7.044   2.758 -0.5271 -0.6169  0.1053
  709MOL0     C95629  12.826   7.072   2.809  0.4444  0.3645  0.0127
  709MOL0     N95630  12.001   6.931   2.894 -0.1054  1.3090  0.2817
  709MOL0     N95631  11.879   6.892   2.902  0.6235  0.4709  0.2467
  709MOL0     C95632  10.951   7.275   3.043 -0.9326  0.5866 -0.0021
  709MOL0     C95633  10.915   7.388   3.104  0.0921  0.1211 -0.5657
  709MOL0     C95634  10.703   7.814   3.148  0.7108  0.1696  0.0873
  709MOL0     C95635  10.791   7.850   3.246 -0.4793  0.2069 -0.5112
  709MOL0     C95636  10.765   7.965   3.310 -1.0426  0.1822 -0.6041
  709MOL0     C95637  10.667   8.055   3.283  0.6840 -1.2007  0.6930
  709MOL0     O95638  10.674   8.175   3.353  0.3541 -0.3592 -0.3772
  709MOL0     C95639  10.551   8.251   3.355  0.3206 -0.5736  0.3741
  709MOL0     C95640  10.581   8.365   3.460 -0.1719 -0.1998 -0.2996
  709MOL0     C95641  10.467   8.472   3.491  0.2957  0.7657 -0.5580
  709MOL0     C95642  10.334   8.405   3.531  0.0316 -1.0586  0.4356
  709MOL0     C95643  10.243   8.498   3.616 -0.1541 -0.6166 -0.5215
  709MOL0     C95644  10.191   8.567   3.699 -0.3620 -0.3623 -0.1701
  709MOL0     C95645  10.571   8.019   3.185  0.5526  0.0781 -0.3837
  709MOL0     C95646  10.590   7.894   3.118  0.2044 -0.1082 -0.4364
  709MOL0     C95647  10.484   7.870   3.007 -0.1894 -0.1587 -0.1098
  709MOL0     H95648  10.841   7.586   2.851 -1.3312  0.6158  1.4209
  709MOL0     H95649  10.887   7.379   2.723 -0.9508  1.1781 -0.6318
  709MOL0     H95650  10.927   7.014   2.988 -3.9141 -1.6694 -0.0375
  709MOL0     H95651  10.809   7.038   2.872 -0.6802 -2.2891  0.4823
  709MOL0     H95652  10.969   6.919   2.702 -0.2354 -0.6872 -0.2812
  709MOL0     H95653  10.948   6.818   2.838 -1.2225  0.2325 -1.5292
  709MOL0     H95654  11.169   6.874   2.928  0.6391 -1.3938 -1.3000
  709MOL0     H95655  11.172   7.021   2.831 -1.2196  1.1991  2.4443
  709MOL0     H95656  11.170   6.733   2.704  1.9577 -0.3608 -1.9146
  709MOL0     H95657  11.201   6.877   2.625 -1.2174 -0.6884  0.8017
  709MOL0     H95658  11.370   6.739   2.844  1.9229 -2.6281 -1.8943
  709MOL0     H95659  11.399   6.766   2.684 -0.0260 -0.1470  1.8708
  709MOL0     H95660  11.439   7.016   2.722 -2.1053  0.0654 -0.0857
  709MOL0     H95661  11.405   6.993   2.891  1.8382  1.6870 -0.4359
  709MOL0     H95662  11.640   6.878   2.734  0.6468  1.2861  0.2139
  709MOL0     H95663  11.584   6.802   2.883 -2.0545 -2.9833 -1.7828
  709MOL0     H95664  11.631   7.106   2.863 -0.2689 -0.0019  0.1219
  709MOL0     H95665  11.621   7.009   3.010 -0.1139 -1.6681 -0.6506
  709MOL0     H95666  11.866   7.223   2.891  1.8642  0.2190  1.2483
  709MOL0     H95667  12.129   7.250   2.869 -0.2205  1.6332  2.9498
  709MOL0     H95668  12.180   7.144   2.991 -2.5886 -1.1747  0.4027
  709MOL0     H95669  12.274   6.974   2.808  0.8506 -0.1064  2.0473
  709MOL0     H95670  12.214   7.109   2.698 -0.5373  1.0704  0.9261
  709MOL0     H95671  12.418   7.131   2.927 -0.7773 -1.2064 -0.4462
  709MOL0     H95672  12.385   7.253   2.812  0.9897  0.5443 -0.6583
  709MOL0     H95673  12.520   7.179   2.665  1.9077 -0.9882  0.9034
  709MOL0     H95674  12.450   7.023   2.645 -2.4766  0.1098 -0.3489
  709MOL0     H95675  12.655   6.967   2.536  1.9815 -1.6392 -3.1893
  709MOL0     H95676  12.888   6.926   2.453  3.9801  0.8850  0.1357
  709MOL0     H95677  13.305   7.221   2.533  1.1631  1.3332  0.2828
  709MOL0     H95678  13.544   7.272   2.497  0.2919 -0.0370  0.6778
  709MOL0     H95679  13.767   7.227   2.354  0.0154  1.0682  0.1410
  709MOL0     H95680  13.756   7.321   2.505 -4.7178 -1.3329 -0.3068
  709MOL0     H95681  13.993   7.321   2.469 -4.6196  3.2568 -0.7419
  709MOL0     H95682  13.960   7.199   2.590  1.4773  2.0000 -0.0522
  709MOL0     H95683  13.972   7.018   2.426  0.8235  0.4261  1.2143
  709MOL0     H95684  13.969   7.138   2.295  1.9655  2.4550 -0.1807
  709MOL0     H95685  14.197   7.101   2.493  0.9319  0.8075  1.1728
  709MOL0     H95686  14.183   7.236   2.376  2.3472 -0.2795 -0.2193
  709MOL0     H95687  14.214   7.090   2.198 -1.2659  1.4696  0.9885
  709MOL0     H95688  14.225   6.949   2.310  0.5122 -0.9803  1.2190
  709MOL0     H95689  14.400   7.204   2.319 -0.9808  0.4042  2.0568
  709MOL0     H95690  14.430   7.072   2.417 -1.5860 -0.8429  1.1133
  709MOL0     H95691  14.429   7.089   2.105  0.5631 -2.6019 -1.4652
  709MOL0     H95692  14.461   6.935   2.176  0.7519 -0.5070 -1.7570
  709MOL0     H95693  14.668   7.058   2.105 -1.8876 -0.8361 -0.8599
  709MOL0     H95694  14.635   7.186   2.218  1.1242  0.6303 -2.1496
  709MOL0     H95695  13.651   6.870   2.621 -1.6911 -2.4429 -1.2438
  709MOL0     H95696  13.405   6.839   2.681 -0.4023  0.4627  0.1140
  709MOL0     H95697  13.043   7.058   2.824  0.0086 -1.3096 -0.4361
  709MOL0     H95698  12.815   7.092   2.915 -3.9165  2.7090 -0.6361
  709MOL0     H95699  10.983   7.190   3.102 -0.7692  0.1102 -0.7649
  709MOL0     H95700  10.924   7.395   3.212 -0.0428  2.1439 -0.6599
  709MOL0     H95701  10.878   7.792   3.274  1.6729  2.7995 -1.3820
  709MOL0     H95702  10.828   7.981   3.397  0.0551 -0.9048 -1.1759
  709MOL0     H95703  10.471   8.180   3.378  1.7749 -3.3836 -2.4452
  709MOL0     H95704  10.527   8.302   3.262 -0.3536 -1.9042 -0.2018
  709MOL0     H95705  10.674   8.408   3.422  0.4451 -0.6691  0.6533
  709MOL0     H95706  10.605   8.311   3.552  1.8710  0.7929 -0.1908
  709MOL0     H95707  10.455   8.542   3.408 -1.3699  0.7164 -0.3960
  709MOL0     H95708  10.503   8.527   3.578 -1.1234  0.4142  0.2980
  709MOL0     H95709  10.267   8.388   3.446  0.9921 -1.2055 -0.3038
  709MOL0     H95710  10.340   8.311   3.586 -0.7944 -3.1694 -2.7769
  709MOL0     H95711  10.158   8.636   3.775 -0.3473 -0.5474  0.0053
  709MOL0     H95712  10.486   8.081   3.158  0.8468 -0.4786 -2.7926
  709MOL0     H95713  10.533   7.852   2.911  2.1254 -3.2837  1.4507
  709MOL0     H95714  10.432   7.774   3.022 -1.8877  0.6802 -0.4279
  709MOL0     H95715  10.408   7.947   2.994 -1.2499 -0.6944  2.3502
  710MOL0     O95716   0.499  10.569   2.260 -0.3354  0.1372  0.4227
  710MOL0     C95717   0.577  10.499   2.193 -0.2986 -0.4169  0.3925
  710MOL0     O95718   0.558  10.367   2.165 -0.2937  0.3461  0.0291
  710MOL0     C95719   0.445  10.296   2.208 -1.4170  0.3084  0.7814
  710MOL0     C95720   0.464  10.156   2.250 -0.2444 -0.5044 -0.2080
  710MOL0     C95721   0.358  10.070   2.271  0.5013 -0.1187 -0.1758
  710MOL0     C95722   0.233  10.133   2.275  0.2312  0.1407 -0.6608
  710MOL0     O95723   0.125  10.063   2.309  1.1229  0.5903 -0.4195
  710MOL0     C95724   0.115   9.923   2.300 -1.2094  0.4466  0.4897
  710MOL0     C95725  -0.006   9.885   2.387  0.4946  0.1868 -0.0884
  710MOL0     C95726  -0.023   9.731   2.392  0.1391 -0.4671  0.8559
  710MOL0     C95727  -0.088   9.672   2.264  0.4552  0.7153 -0.0368
  710MOL0     C95728  -0.126   9.521   2.263 -0.6859  0.1827 -0.2036
  710MOL0     C95729  -0.200   9.487   2.406 -0.3742  0.2002  0.7657
  710MOL0     C95730  -0.289   9.362   2.390  0.7128 -0.2558 -0.4014
  710MOL0     C95731  -0.229   9.217   2.355 -0.8395 -0.8358  0.8134
  710MOL0     N95732  -0.333   9.113   2.372  0.0444  0.1331  0.0162
  710MOL0     C95733  -0.419   9.069   2.275 -0.5801 -0.6768  0.2539
  710MOL0     C95734  -0.479   8.968   2.328 -0.7056  0.1167 -0.3447
  710MOL0     C95735  -0.569   8.880   2.244 -0.3483 -0.3752  0.9019
  710MOL0     C95736  -0.598   8.749   2.314  0.1203  0.0644  0.1251
  710MOL0     C95737  -0.688   8.658   2.231 -0.5643 -0.2887 -0.1897
  710MOL0     C95738  -0.749   8.540   2.315 -0.3472  0.5571 -0.0355
  710MOL0     O95739  -0.657   8.471   2.422 -0.0457 -0.0382  0.6784
  710MOL0     C95740  -0.535   8.422   2.393 -0.0878 -0.5449 -0.4046
  710MOL0     C95741  -0.489   8.388   2.268 -0.5552 -0.1208 -0.4393
  710MOL0     C95742  -0.357   8.357   2.240 -0.6284 -0.5326  0.4331
  710MOL0     C95743  -0.266   8.344   2.348 -0.0750 -0.0483  0.2219
  710MOL0     C95744  -0.120   8.320   2.317 -0.2053 -0.2112 -0.5704
  710MOL0     O95745  -0.035   8.313   2.426  0.4114 -0.0763  0.4172
  710MOL0     C95746   0.096   8.276   2.414  0.1335 -0.2574 -0.5738
  710MOL0     C95747   0.193   8.375   2.435 -1.0510  0.2155 -0.0749
  710MOL0     C95748   0.328   8.341   2.445  0.3849 -0.4670  0.3705
  710MOL0     C95749   0.363   8.208   2.434 -0.1141  0.2301 -0.9351
  710MOL0     O95750   0.488   8.157   2.456 -0.0266 -0.1434 -0.1280
  710MOL0     C95751   0.590   8.237   2.530 -0.5536  0.8393  0.1038
  710MOL0     C95752   0.698   8.143   2.579 -0.6359 -0.0816 -0.0512
  710MOL0     C95753   0.821   8.223   2.628  0.5484  0.3920  0.5945
  710MOL0     C95754   0.924   8.123   2.678 -0.2698 -1.0609  0.7011
  710MOL0     C95755   1.051   8.196   2.728  0.3521 -0.0809  0.1883
  710MOL0     C95756   1.139   8.084   2.781  0.7915 -0.6415  0.4180
  710MOL0     C95757   1.265   8.142   2.839 -0.8804 -0.4769 -0.1819
  710MOL0     C95758   1.342   8.062   2.942  0.7251  0.0766  0.3821
  710MOL0    Cl95759   1.361   7.902   2.873  0.0040 -0.0528  0.1783
  710MOL0     C95760   0.263   8.115   2.399 -0.3972  0.0190 -0.2183
  710MOL0     C95761   0.134   8.151   2.383 -0.3951 -0.9421  0.4265
  710MOL0     O95762  -0.088   8.301   2.198  0.1383  0.8698 -0.2890
  710MOL0     C95763  -0.310   8.368   2.481 -0.1330  0.1273 -0.6497
  710MOL0     C95764  -0.450   8.397   2.506  0.3954 -0.0715  0.0029
  710MOL0     N95765  -0.441   8.945   2.464  0.2252 -0.3118 -0.0299
  710MOL0     N95766  -0.359   9.043   2.487  0.0213  0.5870  0.6830
  710MOL0     C95767   0.212  10.267   2.253  0.4693 -0.5043 -0.4323
  710MOL0     C95768   0.320  10.348   2.213 -0.1608  0.7217  0.0624
  710MOL0     C95769   0.703  10.555   2.142  0.5341 -0.0078  0.3387
  710MOL0     C95770   0.695  10.694   2.109  0.7150  0.5404  0.8358
  710MOL0     C95771   0.798  10.764   2.046  0.4336 -0.4076  0.1179
  710MOL0     C95772   0.916  10.689   2.034 -0.4088 -1.0869 -0.0819
  710MOL0     O95773   1.024  10.763   1.991  0.3130 -0.2113  0.2797
  710MOL0     C95774   1.137  10.706   1.928  0.4109 -1.1097 -1.3124
  710MOL0     C95775   1.205  10.813   1.847  0.0999  0.3812 -0.1585
  710MOL0     C95776   1.130  10.855   1.730 -0.1516  0.1653 -0.2902
  710MOL0     C95777   1.216  10.961   1.652  0.9687  0.9284 -0.6646
  710MOL0     C95778   1.140  11.003   1.535 -0.4271 -0.4796  0.3945
  710MOL0     C95779   1.089  11.042   1.432  0.5936 -0.1593 -0.0778
  710MOL0     C95780   0.933  10.557   2.073  0.0292  1.1502 -0.4498
  710MOL0     C95781   0.826  10.485   2.126  0.1912  0.3488  0.3995
  710MOL0     C95782   0.849  10.340   2.157  0.4386  0.3629  0.5342
  710MOL0     H95783   0.566  10.118   2.248  0.2594  0.7482  0.7036
  710MOL0     H95784   0.376   9.963   2.269  1.7422  0.0686 -0.3474
  710MOL0     H95785   0.109   9.895   2.195  3.1471 -0.0542  0.1779
  710MOL0     H95786   0.199   9.875   2.351 -1.6477 -0.1033  0.6990
  710MOL0     H95787  -0.101   9.921   2.347  1.1951  5.7884  2.2887
  710MOL0     H95788   0.007   9.926   2.488 -2.5271 -0.9301  0.8566
  710MOL0     H95789  -0.093   9.704   2.471  0.2649  1.0509  1.5209
  710MOL0     H95790   0.078   9.693   2.412  1.4929  2.8561  1.0798
  710MOL0     H95791  -0.180   9.730   2.251 -0.3638 -0.4021  0.6292
  710MOL0     H95792  -0.027   9.691   2.175  0.7270  2.9144  0.5553
  710MOL0     H95793  -0.192   9.493   2.180 -0.3678 -1.7383  0.1469
  710MOL0     H95794  -0.036   9.461   2.252  1.0334  2.6408 -0.4511
  710MOL0     H95795  -0.128   9.483   2.488 -0.9052  1.9055  1.3482
  710MOL0     H95796  -0.252   9.577   2.439  1.0858  1.5353 -0.3734
  710MOL0     H95797  -0.368   9.397   2.323  1.3474  1.8349 -0.1575
  710MOL0     H95798  -0.333   9.351   2.490  2.7836  1.0363  0.7282
  710MOL0     H95799  -0.186   9.214   2.255 -3.0591 -0.8186 -0.1897
  710MOL0     H95800  -0.151   9.204   2.431  1.5117  3.0400 -0.6322
  710MOL0     H95801  -0.432   9.107   2.174  2.2041  2.5705  0.9411
  710MOL0     H95802  -0.661   8.933   2.218  0.8395  1.7787  0.8601
  710MOL0     H95803  -0.518   8.851   2.152  0.8436  2.4031  0.5997
  710MOL0     H95804  -0.506   8.693   2.332  1.9371  2.4615 -1.0945
  710MOL0     H95805  -0.647   8.777   2.408  0.4684 -1.1581  0.6985
  710MOL0     H95806  -0.631   8.610   2.151 -2.4998 -3.0977 -0.0088
  710MOL0     H95807  -0.769   8.717   2.187 -0.1805 -0.4089 -1.0904
  710MOL0     H95808  -0.789   8.466   2.245  0.5899  1.3452 -1.4516
  710MOL0     H95809  -0.840   8.580   2.362 -1.0522  0.3643 -1.1914
  710MOL0     H95810  -0.548   8.396   2.178  1.7452 -0.3763 -2.0771
  710MOL0     H95811  -0.341   8.312   2.143 -1.2618 -3.2314  1.4841
  710MOL0     H95812   0.153   8.473   2.458 -0.5923  0.4177 -0.1344
  710MOL0     H95813   0.414   8.405   2.465  1.9236 -2.4466  0.4731
  710MOL0     H95814   0.631   8.314   2.465 -1.2254  1.4549  0.3939
  710MOL0     H95815   0.553   8.294   2.616  0.3265  2.0675 -0.3050
  710MOL0     H95816   0.662   8.076   2.658  3.6345 -2.4997  0.1775
  710MOL0     H95817   0.725   8.076   2.497 -0.9068  2.0283 -1.9520
  710MOL0     H95818   0.869   8.276   2.545 -1.4874  0.8721 -0.3376
  710MOL0     H95819   0.797   8.297   2.705  5.5953  1.4934  1.4525
  710MOL0     H95820   0.947   8.059   2.592  0.6579  1.6989 -1.2208
  710MOL0     H95821   0.889   8.062   2.762  2.3145 -0.9718  1.9300
  710MOL0     H95822   1.028   8.268   2.808  2.5722  1.8576 -0.7772
  710MOL0     H95823   1.095   8.240   2.639  0.9658 -0.3026  0.3761
  710MOL0     H95824   1.091   8.021   2.856  2.1707  0.4454  2.2778
  710MOL0     H95825   1.162   8.016   2.698  3.1473  1.0179 -0.3852
  710MOL0     H95826   1.239   8.234   2.893 -1.8196 -1.4747  1.1297
  710MOL0     H95827   1.334   8.157   2.756  0.1773 -1.2538  0.5335
  710MOL0     H95828   1.439   8.111   2.959 -0.2093  1.8871  0.8173
  710MOL0     H95829   1.284   8.062   3.035  1.7881  0.1583  1.0640
  710MOL0     H95830   0.291   8.012   2.383  1.5386  0.4996 -0.1962
  710MOL0     H95831   0.059   8.073   2.367 -1.0124  0.0316 -1.6379
  710MOL0     H95832  -0.237   8.343   2.557 -0.3890 -0.4618 -0.5839
  710MOL0     H95833  -0.484   8.415   2.608  0.3202  3.0494 -0.4650
  710MOL0     H95834   0.116  10.315   2.263 -0.2464 -1.7873 -0.9129
  710MOL0     H95835   0.313  10.454   2.193  0.2080  0.6248 -0.6109
  710MOL0     H95836   0.602  10.738   2.142  0.6934 -0.6815  2.5148
  710MOL0     H95837   0.803  10.869   2.019 -0.2150 -0.4993 -0.3907
  710MOL0     H95838   1.108  10.628   1.857 -2.0247  0.5517 -2.2684
  710MOL0     H95839   1.208  10.659   1.997  0.5945  2.8373  1.5419
  710MOL0     H95840   1.301  10.769   1.817 -0.1361 -2.6734  2.8637
  710MOL0     H95841   1.235  10.892   1.916  1.0213 -0.0344 -0.0627
  710MOL0     H95842   1.033  10.896   1.760 -0.4578  0.1117 -1.1920
  710MOL0     H95843   1.110  10.781   1.653  0.2423 -0.5174  0.2470
  710MOL0     H95844   1.234  11.042   1.723  2.0314 -0.4371  0.6873
  710MOL0     H95845   1.314  10.920   1.627 -0.6193 -2.8504 -1.4580
  710MOL0     H95846   1.037  11.081   1.346 -0.0171 -2.1357 -0.6509
  710MOL0     H95847   1.032  10.515   2.054  0.5735  1.4320  1.5158
  710MOL0     H95848   0.830  10.276   2.070 -0.5508 -0.6863  1.4829
  710MOL0     H95849   0.953  10.316   2.183  0.2643 -1.4798 -0.2920
  710MOL0     H95850   0.792  10.311   2.245  3.2064 -3.4225  1.3312
  711MOL0     O95851   7.537   6.795   7.055  0.6700 -0.2152  0.0688
  711MOL0     C95852   7.515   6.761   7.173  0.2275 -0.5416  0.7384
  711MOL0     O95853   7.613   6.725   7.259 -0.5851 -0.2948  0.8042
  711MOL0     C95854   7.736   6.683   7.208  0.4197  0.1030 -0.4765
  711MOL0     C95855   7.837   6.764   7.158 -0.2489 -0.1945 -0.4200
  711MOL0     C95856   7.960   6.714   7.121  0.1462 -1.0814  0.3450
  711MOL0     C95857   7.988   6.580   7.131 -0.2072 -0.5413 -0.1532
  711MOL0     O95858   8.103   6.536   7.066  0.1930  0.4870 -0.9631
  711MOL0     C95859   8.088   6.440   6.965  0.4257 -0.4485 -0.6940
  711MOL0     C95860   8.214   6.421   6.889 -0.8675 -0.1182  0.3362
  711MOL0     C95861   8.316   6.366   6.986 -0.0352 -0.4506  0.2746
  711MOL0     C95862   8.442   6.319   6.908 -0.2029 -1.0293  0.8761
  711MOL0     C95863   8.555   6.284   7.005  0.4604 -0.8063 -0.4909
  711MOL0     C95864   8.695   6.264   6.933 -0.3723  0.2407 -0.1547
  711MOL0     C95865   8.744   6.388   6.854 -0.6739 -0.8019  0.4507
  711MOL0     C95866   8.756   6.523   6.937  0.5265  0.1987  0.0982
  711MOL0     N95867   8.836   6.519   7.061 -0.0451  0.1696  0.3004
  711MOL0     C95868   8.961   6.462   7.068  0.0694  0.4652 -0.4081
  711MOL0     C95869   8.989   6.468   7.203  0.0240 -0.7012  1.2121
  711MOL0     C95870   9.127   6.469   7.260  0.0311 -0.9010 -0.2944
  711MOL0     C95871   9.184   6.328   7.284  0.9268 -0.8114 -0.4517
  711MOL0     C95872   9.328   6.327   7.322 -0.2067 -1.5768  0.2705
  711MOL0     C95873   9.369   6.185   7.351 -0.5759  1.1335 -0.3289
  711MOL0     O95874   9.504   6.178   7.390 -0.0368 -0.0555 -0.6004
  711MOL0     C95875   9.602   6.142   7.295  0.1727  0.2087  0.4351
  711MOL0     C95876   9.732   6.105   7.345  0.8268 -0.1236 -0.6479
  711MOL0     C95877   9.833   6.076   7.257  0.3358  0.1255  0.1264
  711MOL0     C95878   9.798   6.067   7.115 -0.5130  0.4616 -0.5265
  711MOL0     C95879   9.906   6.033   7.025 -0.1016 -0.4771  0.6216
  711MOL0     O95880   9.890   6.053   6.889 -0.3297 -0.5546  0.7757
  711MOL0     C95881   9.962   5.987   6.785 -0.2322 -0.2471 -0.9283
  711MOL0     C95882  10.027   5.867   6.791 -0.5846  0.0260  0.3443
  711MOL0     C95883  10.100   5.816   6.684  0.4112  0.5804  0.4208
  711MOL0     C95884  10.109   5.886   6.567  0.5405  0.0300  0.3002
  711MOL0     O95885  10.184   5.846   6.462  0.4797 -0.3909  1.1671
  711MOL0     C95886  10.317   5.792   6.488  0.3540  0.1862 -0.1428
  711MOL0     C95887  10.382   5.762   6.351  0.3890 -0.3144 -0.1774
  711MOL0     C95888  10.518   5.701   6.374 -0.0230  0.0171  0.2501
  711MOL0     C95889  10.613   5.697   6.251 -0.3436 -0.4384 -0.6618
  711MOL0     C95890  10.740   5.632   6.275 -0.2812 -1.0120  0.4928
  711MOL0     C95891  10.838   5.672   6.161  0.7595  0.1379  0.6778
  711MOL0     C95892  10.959   5.584   6.164  0.5228  0.5553  0.7311
  711MOL0     C95893  11.080   5.663   6.211 -0.1922 -0.2799 -0.5104
  711MOL0    Cl95894  11.237   5.553   6.203 -0.2566 -0.1857 -0.1666
  711MOL0     C95895  10.043   6.013   6.556  0.4570  0.1771 -0.0241
  711MOL0     C95896   9.954   6.055   6.661 -0.4102  0.2833  0.0164
  711MOL0     O95897  10.005   5.977   7.075 -0.9671  0.2202  0.4188
  711MOL0     C95898   9.670   6.096   7.074  0.2375  0.7286 -0.1765
  711MOL0     C95899   9.574   6.138   7.162 -0.5647  0.0179  0.3279
  711MOL0     N95900   8.872   6.519   7.266 -1.1512  0.1676  0.2336
  711MOL0     N95901   8.779   6.535   7.183 -0.2650 -0.2882 -0.5745
  711MOL0     C95902   7.889   6.491   7.187 -0.0136 -0.0287  0.0881
  711MOL0     C95903   7.762   6.546   7.219 -0.3790  0.5895 -0.4258
  711MOL0     C95904   7.370   6.787   7.216  0.1743 -0.7298 -0.5286
  711MOL0     C95905   7.343   6.770   7.347  0.1677  1.1454 -1.4544
  711MOL0     C95906   7.215   6.793   7.408  0.5742  0.3682 -0.2866
  711MOL0     C95907   7.109   6.828   7.322 -0.0687 -0.0547 -0.4663
  711MOL0     O95908   6.972   6.841   7.351 -0.2245  0.5330 -0.2287
  711MOL0     C95909   6.912   6.720   7.387  0.0066 -0.3728  0.4677
  711MOL0     C95910   6.778   6.741   7.459 -0.2735  0.3844  0.0954
  711MOL0     C95911   6.668   6.789   7.364  0.3936 -0.4106 -0.2617
  711MOL0     C95912   6.579   6.891   7.422 -0.7525 -0.1248 -0.4488
  711MOL0     C95913   6.470   6.926   7.331 -0.7897 -0.0542  0.2081
  711MOL0     C95914   6.372   6.947   7.264 -1.2890  0.5435  1.3210
  711MOL0     C95915   7.136   6.859   7.190  0.2314 -0.0886  0.7210
  711MOL0     C95916   7.265   6.835   7.131 -0.1088  0.1845  0.3166
  711MOL0     C95917   7.260   6.832   6.983  0.3082  0.3739  0.3848
  711MOL0     H95918   7.818   6.870   7.156 -0.9399 -0.2760  0.7278
  711MOL0     H95919   8.039   6.778   7.082  3.0535 -3.6194  1.5540
  711MOL0     H95920   8.058   6.345   7.010  0.7776  0.1875  0.9308
  711MOL0     H95921   8.018   6.482   6.892  1.0990 -0.8507 -1.5970
  711MOL0     H95922   8.245   6.517   6.847 -1.7661 -0.2087 -0.5715
  711MOL0     H95923   8.198   6.342   6.816  0.6575 -0.9934  0.9229
  711MOL0     H95924   8.285   6.271   7.030  1.2821 -0.8491  0.3858
  711MOL0     H95925   8.332   6.442   7.064 -2.8700  2.4027 -1.6758
  711MOL0     H95926   8.412   6.231   6.850 -0.1768 -1.1298  1.0152
  711MOL0     H95927   8.482   6.404   6.852 -2.5673  0.4822  1.3039
  711MOL0     H95928   8.577   6.361   7.080 -2.6164 -0.6005  0.3318
  711MOL0     H95929   8.525   6.196   7.062 -1.1483 -0.9572 -1.5201
  711MOL0     H95930   8.774   6.242   7.006  1.1523 -0.3103 -1.8953
  711MOL0     H95931   8.690   6.171   6.877 -1.9367  1.1698 -1.6507
  711MOL0     H95932   8.688   6.397   6.761  1.1267 -2.2600 -0.8615
  711MOL0     H95933   8.844   6.364   6.818 -1.2911 -2.6245 -0.1430
  711MOL0     H95934   8.801   6.598   6.871  3.2840 -1.1330  0.3348
  711MOL0     H95935   8.658   6.564   6.963  1.0990  1.6739  0.0479
  711MOL0     H95936   9.032   6.446   6.987  0.2090  0.3176 -0.2583
  711MOL0     H95937   9.188   6.530   7.193  0.9405  2.3010  3.0888
  711MOL0     H95938   9.136   6.529   7.351 -1.2819  0.4663 -1.0125
  711MOL0     H95939   9.133   6.273   7.363  1.7084  1.3010  1.6172
  711MOL0     H95940   9.175   6.262   7.197  2.5095 -1.5447 -0.0956
  711MOL0     H95941   9.344   6.405   7.397  2.9593  0.4166 -2.2140
  711MOL0     H95942   9.390   6.360   7.238  1.8662 -1.8415  1.6242
  711MOL0     H95943   9.349   6.120   7.265 -0.1272  1.3318 -0.5890
  711MOL0     H95944   9.306   6.140   7.428  0.4205 -2.1565 -1.2499
  711MOL0     H95945   9.756   6.109   7.451  2.3408  2.7287 -1.0028
  711MOL0     H95946   9.931   6.054   7.298  0.1691 -0.4150  0.2374
  711MOL0     H95947  10.035   5.805   6.880  0.3242 -0.3877 -0.0122
  711MOL0     H95948  10.151   5.722   6.698 -2.2499 -1.0111  0.0077
  711MOL0     H95949  10.373   5.874   6.534 -2.4077  1.9614  0.2282
  711MOL0     H95950  10.322   5.703   6.551 -0.2441  1.4836  1.8340
  711MOL0     H95951  10.327   5.679   6.305 -1.7887 -0.0093  1.6895
  711MOL0     H95952  10.393   5.852   6.290  1.1704 -0.0464  0.3520
  711MOL0     H95953  10.569   5.754   6.454 -0.2277  0.3110  0.1843
  711MOL0     H95954  10.510   5.596   6.404 -0.0278 -0.0030  0.1785
  711MOL0     H95955  10.632   5.797   6.210  1.4009 -0.1052  0.8078
  711MOL0     H95956  10.559   5.636   6.179 -1.5745 -0.2204  0.0501
  711MOL0     H95957  10.722   5.524   6.279  0.7331 -1.1888  0.6836
  711MOL0     H95958  10.776   5.668   6.372 -1.1322 -1.5794  1.0302
  711MOL0     H95959  10.779   5.661   6.069 -1.9509 -0.3316  2.3344
  711MOL0     H95960  10.855   5.780   6.173  1.9546 -0.1181  1.4313
  711MOL0     H95961  10.984   5.535   6.069 -2.2373 -3.2581  1.7616
  711MOL0     H95962  10.937   5.501   6.231  1.5647 -0.3008  0.0419
  711MOL0     H95963  11.093   5.755   6.153  0.3306  0.3698  0.5958
  711MOL0     H95964  11.072   5.692   6.317  0.8850  3.4286 -1.2846
  711MOL0     H95965  10.035   6.069   6.464 -0.2530 -1.6856 -1.1385
  711MOL0     H95966   9.906   6.152   6.648  0.2616  0.3109 -3.0239
  711MOL0     H95967   9.648   6.088   6.968  1.2302  2.1637 -0.5097
  711MOL0     H95968   9.485   6.172   7.110 -1.1591  1.5698  2.1970
  711MOL0     H95969   7.911   6.385   7.198  0.4428 -0.1280 -1.5416
  711MOL0     H95970   7.687   6.477   7.257 -0.6111  1.0412 -0.0520
  711MOL0     H95971   7.422   6.763   7.421 -1.8970 -1.2790  0.7416
  711MOL0     H95972   7.201   6.771   7.513 -0.7108  1.1945 -0.2633
  711MOL0     H95973   6.977   6.665   7.456  2.7737 -1.4340 -2.7184
  711MOL0     H95974   6.900   6.653   7.302  1.1018 -2.3681  1.7991
  711MOL0     H95975   6.806   6.808   7.540  1.8636 -3.7748  3.2119
  711MOL0     H95976   6.749   6.647   7.506  2.0354 -1.2620 -1.5125
  711MOL0     H95977   6.616   6.701   7.325  0.1762 -1.0365  1.3519
  711MOL0     H95978   6.722   6.826   7.277  0.5307  0.2629  0.1045
  711MOL0     H95979   6.549   6.868   7.525  0.3738 -0.2363 -0.1376
  711MOL0     H95980   6.644   6.978   7.434 -0.9988 -0.2398  2.6371
  711MOL0     H95981   6.290   6.974   7.199 -0.4758 -0.9402 -0.4188
  711MOL0     H95982   7.049   6.888   7.133  0.5203  3.2326  1.7454
  711MOL0     H95983   7.165   6.838   6.930  0.0814 -2.1500  0.3610
  711MOL0     H95984   7.322   6.913   6.942 -0.4819 -0.6946 -3.2998
  711MOL0     H95985   7.276   6.738   6.929 -1.5945 -1.0488  2.1175
  712MOL0     O95986   2.081   2.800   6.416  0.1617  0.0083 -0.4797
  712MOL0     C95987   2.007   2.723   6.480  0.4005  0.5382 -0.0800
  712MOL0     O95988   2.055   2.610   6.544 -0.6302 -0.2379 -0.0327
  712MOL0     C95989   2.189   2.588   6.571  0.3606 -0.4055  0.1794
  712MOL0     C95990   2.281   2.697   6.602  0.0735 -0.1730 -0.0938
  712MOL0     C95991   2.408   2.661   6.635 -0.4070 -1.0798 -1.1470
  712MOL0     C95992   2.451   2.524   6.642  0.0319  0.1555 -0.7734
  712MOL0     O95993   2.582   2.492   6.663  0.4563  0.2502  0.3803
  712MOL0     C95994   2.656   2.584   6.741 -0.7044 -0.6787  0.3395
  712MOL0     C95995   2.778   2.511   6.807 -0.1566  0.4862 -1.1519
  712MOL0     C95996   2.728   2.387   6.881 -0.7835 -0.2807  0.2183
  712MOL0     C95997   2.821   2.315   6.970  0.0918  0.6915  0.0718
  712MOL0     C95998   2.768   2.195   7.060 -0.7691  0.1634  0.2447
  712MOL0     C95999   2.695   2.238   7.184  0.4287 -0.0230 -0.4502
  712MOL0     C96000   2.615   2.113   7.251 -0.5301  0.2016  0.1506
  712MOL0     C96001   2.517   2.041   7.164 -0.1327 -0.3750  0.4703
  712MOL0     N96002   2.418   2.130   7.104 -0.4582 -0.5561 -0.5086
  712MOL0     C96003   2.320   2.191   7.171 -0.3124 -0.1382 -0.4612
  712MOL0     C96004   2.234   2.238   7.079 -0.2886 -0.1824 -0.7768
  712MOL0     C96005   2.108   2.308   7.123 -0.2408  0.3077 -0.5866
  712MOL0     C96006   2.119   2.465   7.118  0.6231  0.3062  0.0885
  712MOL0     C96007   2.145   2.520   6.977  0.5676  0.0451  0.3180
  712MOL0     C96008   2.039   2.473   6.887  1.0899  0.0367 -0.0351
  712MOL0     O96009   1.909   2.489   6.942  0.0473 -0.0773  0.2599
  712MOL0     C96010   1.802   2.448   6.885 -0.7165  0.0977  0.4539
  712MOL0     C96011   1.678   2.478   6.946  0.3792  0.0624  0.0642
  712MOL0     C96012   1.568   2.443   6.885  1.1478  0.5712 -0.6966
  712MOL0     C96013   1.564   2.376   6.764 -0.4168  0.7143  0.3611
  712MOL0     C96014   1.433   2.344   6.705  0.3982 -0.3432  0.8697
  712MOL0     O96015   1.318   2.399   6.757  0.9433  0.4024  0.0018
  712MOL0     C96016   1.183   2.387   6.709  0.7447  0.8698  0.3106
  712MOL0     C96017   1.078   2.434   6.787  0.6618  0.2452 -0.6262
  712MOL0     C96018   0.946   2.432   6.740 -0.2741  0.5708 -0.1336
  712MOL0     C96019   0.919   2.375   6.617  0.1633  0.7272  0.5570
  712MOL0     O96020   0.786   2.378   6.566  0.5252 -0.4550  0.0234
  712MOL0     C96021   0.691   2.489   6.590  0.2165 -0.4631 -0.0476
  712MOL0     C96022   0.586   2.492   6.485 -0.5771  0.2398 -0.1819
  712MOL0     C96023   0.486   2.605   6.506 -0.7632  0.3505  0.3946
  712MOL0     C96024   0.546   2.745   6.458 -0.3014  0.0731  0.3908
  712MOL0     C96025   0.442   2.853   6.444 -0.3547  0.3114  0.7609
  712MOL0     C96026   0.479   2.960   6.337  0.4405  0.7134 -0.2989
  712MOL0     C96027   0.622   3.003   6.346  0.4733 -0.6326  0.7522
  712MOL0     C96028   0.623   3.130   6.258  0.6664 -0.2437 -0.4488
  712MOL0    Cl96029   0.574   3.096   6.085  0.3937  0.1818 -0.2734
  712MOL0     C96030   1.019   2.323   6.534 -0.1339  0.1781  0.0163
  712MOL0     C96031   1.150   2.327   6.587 -0.7225  0.1913  0.6313
  712MOL0     O96032   1.435   2.266   6.613  0.8379 -0.5359 -0.4429
  712MOL0     C96033   1.694   2.340   6.706  0.0296  0.6330 -0.2881
  712MOL0     C96034   1.806   2.368   6.772 -0.4576  0.3853  0.2039
  712MOL0     N96035   2.288   2.213   6.953 -0.3597  0.2657  1.5278
  712MOL0     N96036   2.388   2.136   6.966 -0.3504 -0.6820 -0.4278
  712MOL0     C96037   2.353   2.419   6.618  0.3027  0.0338 -0.1910
  712MOL0     C96038   2.218   2.456   6.576 -0.1423  0.0331  0.2399
  712MOL0     C96039   1.853   2.743   6.476 -0.0841 -0.2155 -0.1257
  712MOL0     C96040   1.776   2.664   6.560 -0.0787 -0.1118  0.0207
  712MOL0     C96041   1.637   2.682   6.562  0.1977 -0.5853 -1.1911
  712MOL0     C96042   1.572   2.765   6.482 -0.3604 -0.6751 -0.6860
  712MOL0     O96043   1.429   2.771   6.477  0.1382  0.7468 -0.1429
  712MOL0     C96044   1.343   2.659   6.522  0.1993 -1.0554  0.5260
  712MOL0     C96045   1.204   2.718   6.543  0.0210  0.3474  0.1157
  712MOL0     C96046   1.115   2.708   6.423  1.1341  0.1925  1.0357
  712MOL0     C96047   0.975   2.760   6.456 -0.3040  0.0421 -0.4913
  712MOL0     C96048   0.977   2.904   6.470 -0.3666  0.3760 -1.2593
  712MOL0     C96049   0.968   3.023   6.481 -0.8654 -0.4089 -0.4776
  712MOL0     C96050   1.646   2.848   6.400  0.3652  0.2565 -0.0022
  712MOL0     C96051   1.785   2.843   6.397 -0.0899 -0.1724  0.2701
  712MOL0     C96052   1.853   2.928   6.296  0.9209 -0.4026 -0.0097
  712MOL0     H96053   2.262   2.803   6.591  4.1265  0.8145  0.9144
  712MOL0     H96054   2.475   2.744   6.653 -4.4288  1.7264  2.9645
  712MOL0     H96055   2.683   2.670   6.680  1.3878 -1.5165  0.0134
  712MOL0     H96056   2.599   2.622   6.827  0.1661 -2.9949  2.0543
  712MOL0     H96057   2.825   2.569   6.887  1.1772 -1.4199 -0.4821
  712MOL0     H96058   2.849   2.483   6.728 -0.2687  1.1036 -1.4745
  712MOL0     H96059   2.691   2.319   6.804  0.2378 -0.8048  0.1802
  712MOL0     H96060   2.644   2.415   6.946 -0.2872 -3.7002  2.6094
  712MOL0     H96061   2.898   2.276   6.903 -1.8083  0.6556 -2.2162
  712MOL0     H96062   2.857   2.396   7.035  2.0451  0.3749 -0.5579
  712MOL0     H96063   2.704   2.130   7.000 -0.9276 -1.5887  2.2010
  712MOL0     H96064   2.851   2.129   7.090  0.0800  0.7207 -0.8097
  712MOL0     H96065   2.761   2.282   7.259 -0.4071 -0.4380  0.5533
  712MOL0     H96066   2.625   2.317   7.155  1.3642  1.1424  0.4107
  712MOL0     H96067   2.565   2.131   7.346 -3.0748  3.8563 -1.6619
  712MOL0     H96068   2.687   2.031   7.262 -0.5144  0.0243 -1.0869
  712MOL0     H96069   2.577   1.999   7.083 -0.2573 -0.1152  0.2402
  712MOL0     H96070   2.473   1.953   7.212  0.3562  0.3729  2.3849
  712MOL0     H96071   2.314   2.202   7.279  1.5848  1.4509 -0.4592
  712MOL0     H96072   2.026   2.259   7.071 -1.2265  1.1121  0.1775
  712MOL0     H96073   2.099   2.294   7.231  3.5003  1.6505  0.0785
  712MOL0     H96074   2.031   2.512   7.162 -1.3551 -1.7952 -1.3481
  712MOL0     H96075   2.207   2.495   7.176 -0.0286  1.2880  0.5946
  712MOL0     H96076   2.244   2.490   6.942  0.8226 -0.6367  1.5463
  712MOL0     H96077   2.133   2.629   6.976 -2.5627 -0.2204 -0.8582
  712MOL0     H96078   2.057   2.371   6.854 -0.0606 -0.2397  0.1286
  712MOL0     H96079   2.034   2.534   6.797  1.4404  0.2776  0.1084
  712MOL0     H96080   1.691   2.532   7.039 -0.8327  2.8619 -1.2580
  712MOL0     H96081   1.481   2.446   6.950  1.0545  1.7883 -0.8625
  712MOL0     H96082   1.112   2.473   6.882 -2.5258  0.2547  0.6239
  712MOL0     H96083   0.868   2.471   6.805 -2.4260 -3.2253 -0.1910
  712MOL0     H96084   0.653   2.468   6.691  2.5780 -0.7869  0.8350
  712MOL0     H96085   0.752   2.579   6.599  0.2926 -0.6798  2.0470
  712MOL0     H96086   0.640   2.507   6.391 -1.8108  1.4293 -0.7517
  712MOL0     H96087   0.537   2.394   6.482 -1.0498  0.4516  0.3486
  712MOL0     H96088   0.395   2.590   6.447 -2.7573 -1.6876  3.7018
  712MOL0     H96089   0.460   2.611   6.612 -0.4734  1.3293  0.4191
  712MOL0     H96090   0.595   2.721   6.363 -0.8857 -0.0943  0.1262
  712MOL0     H96091   0.624   2.780   6.527 -0.8145 -0.9709  1.5333
  712MOL0     H96092   0.428   2.908   6.537  1.0018  0.4319  0.9125
  712MOL0     H96093   0.346   2.808   6.416 -0.2544  0.0606  0.8107
  712MOL0     H96094   0.460   2.911   6.241  2.4697  0.9644 -0.8788
  712MOL0     H96095   0.409   3.043   6.346 -0.4711  0.2925 -2.6783
  712MOL0     H96096   0.693   2.925   6.318 -0.4458 -1.3011  0.2489
  712MOL0     H96097   0.648   3.042   6.445  0.0856  1.5869  0.0353
  712MOL0     H96098   0.555   3.203   6.303  1.0985 -0.5097  0.6737
  712MOL0     H96099   0.727   3.162   6.245  1.0218 -1.8472 -1.9029
  712MOL0     H96100   0.993   2.270   6.443  0.7823 -1.3920  0.6234
  712MOL0     H96101   1.222   2.280   6.522  0.8580 -3.1013  4.3537
  712MOL0     H96102   1.695   2.289   6.610 -1.5577  1.1187 -0.5962
  712MOL0     H96103   1.896   2.332   6.723 -1.9043 -3.8835  0.2865
  712MOL0     H96104   2.378   2.314   6.625  0.8473 -0.1404 -3.2631
  712MOL0     H96105   2.145   2.386   6.536 -2.1996  3.0069 -1.5943
  712MOL0     H96106   1.823   2.590   6.624 -0.4601  2.0081  2.9496
  712MOL0     H96107   1.575   2.622   6.628  1.1348 -2.6391 -2.0691
  712MOL0     H96108   1.378   2.614   6.615  0.4656 -3.3290 -0.6065
  712MOL0     H96109   1.342   2.570   6.458  3.2610 -0.9822  0.1973
  712MOL0     H96110   1.206   2.819   6.586 -2.0831  1.3135 -1.8516
  712MOL0     H96111   1.158   2.656   6.620  1.4465 -1.3438 -0.3288
  712MOL0     H96112   1.112   2.606   6.384 -0.1294 -0.8794  3.6874
  712MOL0     H96113   1.155   2.772   6.343 -1.3463 -1.0580 -1.3751
  712MOL0     H96114   0.907   2.737   6.374  0.4745 -0.9284 -0.8886
  712MOL0     H96115   0.938   2.712   6.548 -0.7247 -0.9504 -1.1512
  712MOL0     H96116   0.970   3.127   6.509  0.9624  0.5189 -3.4997
  712MOL0     H96117   1.601   2.917   6.329  1.2929 -1.3902 -2.3413
  712MOL0     H96118   1.909   2.861   6.230 -0.3412 -2.0616  0.5384
  712MOL0     H96119   1.776   2.981   6.238  0.3879  1.5990  2.3145
  712MOL0     H96120   1.924   2.999   6.339  0.2956 -0.1031  0.5436
  713MOL0     O96121   1.460   0.759   4.131 -0.4617 -0.1495  0.0726
  713MOL0     C96122   1.404   0.781   4.024 -0.7867 -0.5042  0.6700
  713MOL0     O96123   1.474   0.823   3.917  0.1453  0.1786  0.2482
  713MOL0     C96124   1.608   0.798   3.897  0.2172  0.0245 -0.8516
  713MOL0     C96125   1.696   0.881   3.954  0.5704  0.3876 -0.4938
  713MOL0     C96126   1.835   0.866   3.941  0.3021 -0.2893 -0.5363
  713MOL0     C96127   1.882   0.752   3.872  0.2483  0.6426  0.2233
  713MOL0     O96128   2.019   0.726   3.861  0.0455 -0.3974  0.0525
  713MOL0     C96129   2.102   0.752   3.982  0.1815 -0.0435 -0.2409
  713MOL0     C96130   2.214   0.651   3.956  0.4685 -0.9378  0.3516
  713MOL0     C96131   2.295   0.694   3.832  0.1522 -0.2254 -0.2570
  713MOL0     C96132   2.427   0.601   3.802  0.1503 -1.6957 -0.1225
  713MOL0     C96133   2.520   0.669   3.693  0.2016  0.0116 -0.0116
  713MOL0     C96134   2.649   0.581   3.675  0.0632 -0.2177  0.2810
  713MOL0     C96135   2.740   0.644   3.561  0.5481  0.0858 -0.5048
  713MOL0     C96136   2.869   0.564   3.539 -1.1022 -0.1672 -0.2175
  713MOL0     N96137   2.935   0.671   3.456  0.1745  0.6905  0.1584
  713MOL0     C96138   3.051   0.743   3.489  0.1840 -0.6816  0.4143
  713MOL0     C96139   3.084   0.809   3.374  0.4584  0.4829 -0.1222
  713MOL0     C96140   3.191   0.910   3.366 -1.2083  1.1277  0.1222
  713MOL0     C96141   3.244   0.928   3.221 -0.2237 -0.5753  0.3543
  713MOL0     C96142   3.360   1.015   3.226 -0.1618 -0.3471 -0.3794
  713MOL0     C96143   3.416   1.039   3.090 -0.2872  0.0938  0.6825
  713MOL0     O96144   3.513   1.144   3.090  0.8093 -0.5591  0.0907
  713MOL0     C96145   3.645   1.123   3.103  0.1832  0.3482 -0.3976
  713MOL0     C96146   3.722   1.238   3.112 -0.0968 -0.1797  0.2192
  713MOL0     C96147   3.864   1.229   3.117  0.1971  0.1002  0.2361
  713MOL0     C96148   3.933   1.107   3.111  0.4456  0.3191 -0.3174
  713MOL0     C96149   4.080   1.099   3.106  0.8191 -0.1264  0.1922
  713MOL0     O96150   4.138   0.978   3.076 -0.4399 -0.3467 -0.3103
  713MOL0     C96151   4.275   0.973   3.043  0.3497 -0.2887  0.0970
  713MOL0     C96152   4.331   0.843   3.052  0.2529 -0.0985  0.8278
  713MOL0     C96153   4.469   0.820   3.039  0.5489  0.0478 -0.0896
  713MOL0     C96154   4.556   0.933   3.022  0.2003 -0.2682 -0.0796
  713MOL0     O96155   4.690   0.928   3.010  0.4204 -0.2637  0.4256
  713MOL0     C96156   4.760   1.008   3.111 -0.2890 -1.2375 -0.3602
  713MOL0     C96157   4.913   1.018   3.087 -0.1878 -0.3851  0.3649
  713MOL0     C96158   4.977   0.889   3.082 -0.9615 -0.0592 -0.3395
  713MOL0     C96159   5.120   0.907   3.022 -0.1410 -0.1091  0.4183
  713MOL0     C96160   5.216   0.968   3.115  1.1590  0.0868  0.2884
  713MOL0     C96161   5.363   0.930   3.092 -0.2147 -0.2833 -0.5718
  713MOL0     C96162   5.445   0.992   3.208 -0.3592 -0.2627 -1.0506
  713MOL0     C96163   5.591   0.950   3.185 -0.3499  0.6736 -1.0053
  713MOL0    Cl96164   5.599   0.772   3.197  0.3396  0.1285 -0.0766
  713MOL0     C96165   4.498   1.056   3.010  0.2142 -0.5954  0.2058
  713MOL0     C96166   4.364   1.073   3.011 -0.3408  0.1910  0.3263
  713MOL0     O96167   4.137   1.204   3.125 -0.3656  0.0589  0.0813
  713MOL0     C96168   3.852   0.993   3.093 -0.0275  0.2931  0.0423
  713MOL0     C96169   3.714   0.997   3.101 -0.2550 -0.3315 -0.1620
  713MOL0     N96170   3.004   0.771   3.276 -0.3443  0.3890  0.3442
  713MOL0     N96171   2.915   0.693   3.321  0.2523  0.3264  0.4564
  713MOL0     C96172   1.792   0.668   3.804 -0.6101 -0.2507 -0.4083
  713MOL0     C96173   1.655   0.683   3.823  0.1206 -0.5072  0.1783
  713MOL0     C96174   1.263   0.774   4.015  0.1713  0.0330  0.1363
  713MOL0     C96175   1.206   0.832   3.900  0.1928 -0.0578 -0.0749
  713MOL0     C96176   1.069   0.830   3.871  0.8077  0.7924 -0.3977
  713MOL0     C96177   0.987   0.771   3.966 -0.8889  1.0915  0.0805
  713MOL0     O96178   0.851   0.761   3.946  0.1830 -0.0324 -0.0863
  713MOL0     C96179   0.789   0.818   3.831 -0.0720  0.3023 -0.4402
  713MOL0     C96180   0.632   0.818   3.837  0.4113 -0.4327  0.0934
  713MOL0     C96181   0.573   0.686   3.778 -0.6209  0.6160 -0.1883
  713MOL0     C96182   0.430   0.658   3.827 -0.0768 -0.8144  0.3678
  713MOL0     C96183   0.345   0.764   3.773 -0.7158  0.2804  1.5765
  713MOL0     C96184   0.270   0.855   3.735  0.0472 -0.0005 -0.0476
  713MOL0     C96185   1.039   0.706   4.078  0.4271  0.1192 -0.5132
  713MOL0     C96186   1.180   0.711   4.104  0.4091  0.2763 -0.5776
  713MOL0     C96187   1.213   0.643   4.230 -1.4217 -1.3945  0.1345
  713MOL0     H96188   1.653   0.961   4.012 -0.6587 -1.6494  1.6055
  713MOL0     H96189   1.905   0.936   3.985 -0.2655 -0.0901  0.0749
  713MOL0     H96190   2.126   0.858   3.988 -1.1033  0.3981 -2.2311
  713MOL0     H96191   2.051   0.731   4.076 -3.4883  0.0756 -2.0508
  713MOL0     H96192   2.181   0.547   3.943  0.6743 -1.2651  2.1277
  713MOL0     H96193   2.287   0.647   4.038  0.4305 -3.2377  0.3522
  713MOL0     H96194   2.316   0.802   3.838 -0.7335 -0.0287 -0.5383
  713MOL0     H96195   2.227   0.695   3.747 -1.0026 -2.3078  0.5934
  713MOL0     H96196   2.480   0.601   3.898 -0.6641  3.0022  0.5712
  713MOL0     H96197   2.406   0.496   3.782 -1.4406 -1.2462 -0.9544
  713MOL0     H96198   2.457   0.677   3.604 -2.1306  1.7107  1.6762
  713MOL0     H96199   2.549   0.771   3.720 -0.5236 -0.1729  1.5321
  713MOL0     H96200   2.709   0.581   3.767 -0.3752 -1.5736  0.5912
  713MOL0     H96201   2.633   0.476   3.651 -1.7705 -0.6159  2.8295
  713MOL0     H96202   2.766   0.746   3.592  1.1736  0.0257 -0.8191
  713MOL0     H96203   2.682   0.654   3.469  0.3401  2.8928 -0.1569
  713MOL0     H96204   2.924   0.543   3.631  1.2197  4.2016 -0.2853
  713MOL0     H96205   2.844   0.475   3.481 -3.0870 -1.5126  2.4927
  713MOL0     H96206   3.096   0.742   3.588  1.6834  0.6274 -0.2211
  713MOL0     H96207   3.161   1.007   3.406 -0.1434  0.7890  1.8535
  713MOL0     H96208   3.280   0.881   3.423 -1.5917  1.1952  0.7724
  713MOL0     H96209   3.274   0.827   3.193  1.9685 -0.2457  1.3413
  713MOL0     H96210   3.170   0.960   3.147  0.0094 -1.8788 -0.4837
  713MOL0     H96211   3.428   0.958   3.291 -0.7139  0.0471  0.5637
  713MOL0     H96212   3.344   1.111   3.275 -0.5108 -0.1583 -0.8562
  713MOL0     H96213   3.341   1.064   3.014  1.1561  5.7219  0.7135
  713MOL0     H96214   3.472   0.949   3.063  1.1075  1.3139 -0.5930
  713MOL0     H96215   3.666   1.329   3.125 -0.8387 -1.0134  4.2890
  713MOL0     H96216   3.915   1.323   3.133  0.2814  0.7755 -3.3538
  713MOL0     H96217   4.267   0.756   3.059  3.9247 -3.3922 -2.1012
  713MOL0     H96218   4.507   0.719   3.031  0.2760 -0.2199  1.5534
  713MOL0     H96219   4.727   1.112   3.102 -0.7437 -1.0957  2.2771
  713MOL0     H96220   4.732   0.973   3.211 -2.9251 -0.7796 -0.8756
  713MOL0     H96221   4.916   1.063   2.987 -1.6595  0.5244  0.6885
  713MOL0     H96222   4.962   1.081   3.162 -3.0363  0.2335  1.8319
  713MOL0     H96223   4.975   0.843   3.182 -4.0280  1.4178  0.3729
  713MOL0     H96224   4.924   0.821   3.014 -1.2226  0.2632 -0.4583
  713MOL0     H96225   5.110   0.963   2.929  1.2503 -1.6646 -0.7405
  713MOL0     H96226   5.160   0.806   3.004  0.0580  0.1040 -0.3632
  713MOL0     H96227   5.194   0.924   3.213  0.5537  0.8454  0.4963
  713MOL0     H96228   5.214   1.077   3.116  3.6822  0.3037 -2.9311
  713MOL0     H96229   5.375   0.821   3.089  0.1657 -0.2868  0.5741
  713MOL0     H96230   5.384   0.967   2.991 -0.1913 -0.8560 -0.7773
  713MOL0     H96231   5.404   0.969   3.307 -0.6780  2.2248 -0.5346
  713MOL0     H96232   5.436   1.101   3.213 -4.3920 -0.4995  1.3352
  713MOL0     H96233   5.615   0.992   3.087  0.4774 -0.8165 -1.4664
  713MOL0     H96234   5.650   0.982   3.272 -1.6425 -0.0550  0.1940
  713MOL0     H96235   4.562   1.142   2.997  1.3840 -1.3938  0.5458
  713MOL0     H96236   4.336   1.176   2.995 -0.2988  0.3150  1.0419
  713MOL0     H96237   3.901   0.897   3.078 -0.4407 -0.2047  1.6206
  713MOL0     H96238   3.672   0.898   3.086 -0.6828 -0.4735  1.7989
  713MOL0     H96239   1.840   0.577   3.769  0.6199 -1.3219  3.5246
  713MOL0     H96240   1.591   0.606   3.781  0.4274  0.1563 -1.6021
  713MOL0     H96241   1.262   0.863   3.812 -0.4856 -0.3264 -0.6113
  713MOL0     H96242   1.031   0.873   3.778 -1.0242  2.0944  0.8695
  713MOL0     H96243   0.814   0.747   3.753 -0.4894 -2.4028  1.7311
  713MOL0     H96244   0.826   0.916   3.799  0.5412  1.0596  2.2930
  713MOL0     H96245   0.609   0.903   3.773  3.3835 -0.0961 -0.6995
  713MOL0     H96246   0.594   0.839   3.938  1.4157  0.9723  0.2129
  713MOL0     H96247   0.647   0.609   3.803 -1.1808  0.2966  0.5448
  713MOL0     H96248   0.563   0.688   3.670 -3.2789  1.8080  0.0036
  713MOL0     H96249   0.380   0.565   3.801  0.3063 -0.3436 -2.3171
  713MOL0     H96250   0.430   0.658   3.937  1.0731  3.3758  0.5559
  713MOL0     H96251   0.204   0.934   3.702 -0.1339 -0.1848 -0.1260
  713MOL0     H96252   0.972   0.650   4.142  0.9840 -0.3560 -0.3361
  713MOL0     H96253   1.125   0.612   4.286  0.0897  1.2102  4.4436
  713MOL0     H96254   1.284   0.560   4.220 -2.0368 -2.0976  1.3508
  713MOL0     H96255   1.255   0.721   4.294 -1.6490 -0.4236 -0.8755
  714MOL0     O96256   5.883   7.761   3.005 -0.2370  0.8009  0.2293
  714MOL0     C96257   5.846   7.722   3.114  0.8305  0.0488  0.3157
  714MOL0     O96258   5.924   7.678   3.213 -0.3243  0.6067  0.5770
  714MOL0     C96259   6.059   7.663   3.198 -0.1869 -0.1991  0.4131
  714MOL0     C96260   6.118   7.540   3.208 -0.0991  0.3103  0.3365
  714MOL0     C96261   6.255   7.519   3.219  1.6524 -0.6080 -0.4627
  714MOL0     C96262   6.344   7.625   3.211  0.6917 -0.6367 -0.4473
  714MOL0     O96263   6.472   7.596   3.208 -0.1033 -0.1179 -0.1342
  714MOL0     C96264   6.569   7.695   3.179  0.2908  0.0825  0.1488
  714MOL0     C96265   6.697   7.622   3.148 -0.2110 -0.3461  0.4999
  714MOL0     C96266   6.809   7.730   3.104 -0.0624  0.2355  0.6286
  714MOL0     C96267   6.942   7.658   3.077  0.3911  0.4783 -0.3386
  714MOL0     C96268   7.066   7.743   3.024 -0.3469 -0.7723 -0.2883
  714MOL0     C96269   7.188   7.650   3.033 -0.2589 -0.5082  0.6248
  714MOL0     C96270   7.313   7.717   2.968 -0.2786 -0.4578  0.2981
  714MOL0     C96271   7.413   7.602   2.938  0.6053  0.5771 -0.0102
  714MOL0     N96272   7.455   7.518   3.051 -0.2151  0.3871  0.2603
  714MOL0     C96273   7.390   7.408   3.103 -0.5192 -0.0667  0.3984
  714MOL0     C96274   7.465   7.362   3.207 -0.4243 -0.4428  0.3405
  714MOL0     C96275   7.448   7.251   3.301  0.0530 -1.0772  0.2951
  714MOL0     C96276   7.303   7.250   3.353 -0.0416  0.1456  0.0501
  714MOL0     C96277   7.284   7.120   3.435  0.8073 -0.0507 -0.8334
  714MOL0     C96278   7.142   7.080   3.471 -0.5517  0.1928  0.2802
  714MOL0     O96279   7.091   7.160   3.585  0.0880 -0.2939  0.2479
  714MOL0     C96280   6.962   7.135   3.636 -0.6670  0.2585 -0.8164
  714MOL0     C96281   6.852   7.098   3.555 -0.0198  0.6807 -0.1212
  714MOL0     C96282   6.725   7.071   3.614  0.2115 -0.2019 -0.1958
  714MOL0     C96283   6.708   7.084   3.759 -0.8496  0.2262 -0.4374
  714MOL0     C96284   6.579   7.047   3.823 -0.6885  0.7572 -0.5589
  714MOL0     O96285   6.486   6.988   3.738  0.0062  0.4702 -0.6530
  714MOL0     C96286   6.356   6.952   3.786  0.2547 -0.2169  0.3325
  714MOL0     C96287   6.280   6.855   3.723  0.4355 -0.2698  0.3741
  714MOL0     C96288   6.144   6.826   3.760  0.5670  0.2976  0.1309
  714MOL0     C96289   6.088   6.893   3.871  0.4953  0.1679 -0.1091
  714MOL0     O96290   5.955   6.890   3.888  0.5968  0.3638  0.3344
  714MOL0     C96291   5.894   6.910   4.019 -0.3885  0.1002  0.2198
  714MOL0     C96292   5.740   6.899   4.018 -0.2531  0.3198  1.1038
  714MOL0     C96293   5.693   6.767   4.036 -0.6970  0.3898 -0.0299
  714MOL0     C96294   5.691   6.724   4.185  0.5487  0.2820  0.1035
  714MOL0     C96295   5.614   6.592   4.188  0.5794  0.3545 -0.6370
  714MOL0     C96296   5.604   6.559   4.335  0.2117 -0.6831  0.4748
  714MOL0     C96297   5.565   6.411   4.368  0.4915 -0.0223 -0.1826
  714MOL0     C96298   5.416   6.389   4.371  0.6409 -0.5859 -0.6014
  714MOL0    Cl96299   5.333   6.498   4.486  0.0783 -0.0304  0.1293
  714MOL0     C96300   6.164   6.983   3.935  0.0580 -0.3061 -1.1379
  714MOL0     C96301   6.289   7.017   3.889 -1.1804  0.4651  0.6040
  714MOL0     O96302   6.563   7.063   3.944  0.1160  0.0134  0.2719
  714MOL0     C96303   6.820   7.118   3.837 -0.1134 -0.5415  0.1077
  714MOL0     C96304   6.941   7.144   3.773  0.0564  0.4892 -0.4064
  714MOL0     N96305   7.573   7.448   3.215  0.3319 -1.4101 -0.4696
  714MOL0     N96306   7.566   7.544   3.125 -0.5982 -0.9565 -0.4447
  714MOL0     C96307   6.291   7.756   3.216 -0.4560  0.2003  0.2042
  714MOL0     C96308   6.150   7.775   3.200  0.3653 -0.8088  0.5968
  714MOL0     C96309   5.691   7.741   3.140 -0.8758 -0.4029 -0.0777
  714MOL0     C96310   5.655   7.760   3.273 -0.3163 -0.4453 -0.6290
  714MOL0     C96311   5.526   7.784   3.304 -0.0090  0.8052 -0.7413
  714MOL0     C96312   5.421   7.798   3.209 -0.4444 -0.1597  0.6470
  714MOL0     O96313   5.297   7.824   3.245 -0.0948 -0.0754  0.0656
  714MOL0     C96314   5.252   7.795   3.381 -0.1370  0.8912 -0.3324
  714MOL0     C96315   5.099   7.785   3.399 -0.4937 -0.1608  0.3867
  714MOL0     C96316   5.032   7.914   3.333  0.1167  0.0700  0.0130
  714MOL0     C96317   5.026   8.037   3.427 -0.3076  0.3509  0.7692
  714MOL0     C96318   4.968   8.149   3.343  0.4363  0.2979  0.7354
  714MOL0     C96319   4.917   8.235   3.273  0.6151  0.4116  0.2472
  714MOL0     C96320   5.457   7.777   3.077 -0.3270  0.9172 -0.1760
  714MOL0     C96321   5.594   7.745   3.034 -0.4969 -0.4640  0.0249
  714MOL0     C96322   5.623   7.747   2.887  1.1840  0.4834 -0.1608
  714MOL0     H96323   6.051   7.455   3.213  0.4299 -0.1534 -0.3087
  714MOL0     H96324   6.285   7.415   3.230  2.2895 -0.5964 -1.8942
  714MOL0     H96325   6.534   7.741   3.086  0.5612  0.8182  0.4094
  714MOL0     H96326   6.578   7.768   3.260  3.1671  0.8362 -0.7579
  714MOL0     H96327   6.685   7.551   3.065  1.0618 -0.1360  0.1106
  714MOL0     H96328   6.731   7.570   3.238  0.9644  0.6913  0.6769
  714MOL0     H96329   6.834   7.806   3.179  2.2199 -0.5685  0.7770
  714MOL0     H96330   6.778   7.779   3.012  0.8499 -0.1321  0.1068
  714MOL0     H96331   6.978   7.607   3.168 -1.6567  0.2963  0.4200
  714MOL0     H96332   6.924   7.571   3.013 -0.2013 -2.4755  3.4181
  714MOL0     H96333   7.037   7.780   2.926 -0.8426  1.9083  0.7998
  714MOL0     H96334   7.082   7.830   3.088  0.8458 -1.0101 -0.2355
  714MOL0     H96335   7.215   7.622   3.136 -0.4056  0.6673  1.0010
  714MOL0     H96336   7.168   7.557   2.980 -0.2215 -0.2711  0.1875
  714MOL0     H96337   7.367   7.790   3.029  2.4344 -0.9503 -1.3517
  714MOL0     H96338   7.279   7.760   2.873 -1.2412 -2.6625 -0.4081
  714MOL0     H96339   7.361   7.534   2.870 -1.1224  0.7378  1.1038
  714MOL0     H96340   7.500   7.646   2.887 -0.3218  1.7261 -0.6535
  714MOL0     H96341   7.290   7.369   3.086 -0.4838 -0.3177  0.7581
  714MOL0     H96342   7.465   7.156   3.248  1.7576 -0.6352 -0.0038
  714MOL0     H96343   7.514   7.260   3.388 -0.5122 -0.4793  0.6732
  714MOL0     H96344   7.281   7.337   3.417  1.5098 -0.4306  1.4380
  714MOL0     H96345   7.238   7.250   3.265 -0.8840  0.2876  0.6606
  714MOL0     H96346   7.340   7.139   3.527 -1.8919 -2.5312  1.4850
  714MOL0     H96347   7.332   7.039   3.379  0.7046  0.9363 -2.4290
  714MOL0     H96348   7.146   6.974   3.501 -4.1506 -0.3734 -0.8380
  714MOL0     H96349   7.080   7.097   3.383  1.4496 -0.7048 -1.3935
  714MOL0     H96350   6.866   7.097   3.448 -1.4905  2.7424 -0.4008
  714MOL0     H96351   6.647   7.035   3.549  1.3065  0.9602 -2.2458
  714MOL0     H96352   6.313   6.819   3.627 -1.7840 -0.3427 -0.4135
  714MOL0     H96353   6.092   6.754   3.697  1.4685 -1.0974  0.9248
  714MOL0     H96354   5.934   6.843   4.096 -3.4761  0.9056  2.7448
  714MOL0     H96355   5.914   7.012   4.055  1.4893  0.0462 -0.5453
  714MOL0     H96356   5.697   6.961   4.097  0.6458  0.6945  1.3171
  714MOL0     H96357   5.717   6.930   3.916  1.1008  0.7500  0.9064
  714MOL0     H96358   5.593   6.769   3.992  0.4136  0.6279 -2.7095
  714MOL0     H96359   5.756   6.696   3.981 -0.3308  1.7243 -1.4253
  714MOL0     H96360   5.642   6.804   4.240 -3.6395 -1.1581 -1.1925
  714MOL0     H96361   5.794   6.709   4.219  0.5859 -0.5514 -0.3556
  714MOL0     H96362   5.655   6.510   4.128  1.3431  1.6294 -1.9228
  714MOL0     H96363   5.510   6.599   4.154 -0.4454  0.9676  2.3275
  714MOL0     H96364   5.704   6.586   4.371  0.3234 -0.6126  0.1160
  714MOL0     H96365   5.527   6.622   4.380  0.9063 -0.3874  1.2904
  714MOL0     H96366   5.603   6.380   4.466 -2.1662  2.3498  1.7784
  714MOL0     H96367   5.604   6.343   4.292 -2.0417 -1.4025 -0.3681
  714MOL0     H96368   5.380   6.415   4.271  0.0707  0.0504 -0.2343
  714MOL0     H96369   5.400   6.284   4.397 -0.8420 -0.0539  0.8497
  714MOL0     H96370   6.122   7.045   4.014 -1.0347 -1.3041 -0.9110
  714MOL0     H96371   6.336   7.097   3.946  0.9748  0.2385 -0.7264
  714MOL0     H96372   6.804   7.116   3.945 -3.0742 -0.0300 -0.2414
  714MOL0     H96373   7.024   7.178   3.833 -0.7378  0.9300  0.4635
  714MOL0     H96374   6.358   7.841   3.210  1.5164 -1.3855 -2.5302
  714MOL0     H96375   6.119   7.874   3.169  0.6172 -1.2896 -1.2936
  714MOL0     H96376   5.743   7.775   3.334 -0.1205 -1.1451 -0.7248
  714MOL0     H96377   5.511   7.809   3.408  3.8010 -2.5395  0.8809
  714MOL0     H96378   5.284   7.874   3.450  0.2065 -1.0386  1.8520
  714MOL0     H96379   5.308   7.707   3.414  0.7264  0.8464 -1.8371
  714MOL0     H96380   5.083   7.770   3.507 -0.4505 -2.9424  0.0740
  714MOL0     H96381   5.053   7.698   3.351 -0.8018 -0.1000  0.5655
  714MOL0     H96382   4.932   7.883   3.300  0.0320 -0.0653  0.3867
  714MOL0     H96383   5.087   7.942   3.243 -0.7732  2.2914  0.1145
  714MOL0     H96384   4.964   8.013   3.514  0.4620 -1.0936  0.9660
  714MOL0     H96385   5.123   8.072   3.464 -1.1018  2.0935  1.3037
  714MOL0     H96386   4.861   8.315   3.230 -0.9334  0.5242  2.3320
  714MOL0     H96387   5.380   7.775   3.000  2.3883 -0.4212 -3.0803
  714MOL0     H96388   5.528   7.770   2.839 -0.0544 -0.4082  1.7140
  714MOL0     H96389   5.696   7.822   2.856  0.3132  2.4485  2.1836
  714MOL0     H96390   5.646   7.644   2.857 -0.4747 -0.2370  0.8986
  715MOL0     O96391   8.668   8.951   0.153 -0.1430  0.2540  0.3007
  715MOL0     C96392   8.753   8.860   0.137 -0.0963  0.1405 -0.3715
  715MOL0     O96393   8.862   8.842   0.210 -0.3703 -0.0821 -0.0599
  715MOL0     C96394   8.912   8.929   0.304  0.1470 -0.5369  0.2547
  715MOL0     C96395   8.945   8.879   0.428 -1.1247  0.1677 -0.4291
  715MOL0     C96396   8.994   8.965   0.528  0.7011  0.4922 -0.2470
  715MOL0     C96397   9.027   9.093   0.496 -0.5836 -0.3356  0.8322
  715MOL0     O96398   9.083   9.161   0.604  0.1594  0.0648 -0.2424
  715MOL0     C96399   9.055   9.298   0.625  0.3077 -0.7737 -0.4613
  715MOL0     C96400   9.115   9.343   0.752 -0.9966 -0.7160  0.8286
  715MOL0     C96401   9.265   9.343   0.755 -0.4542  0.3276 -1.0991
  715MOL0     C96402   9.317   9.472   0.696 -0.8667 -0.2124  0.0193
  715MOL0     C96403   9.467   9.489   0.709 -0.1100 -0.1681 -0.0424
  715MOL0     C96404   9.517   9.634   0.656 -0.4036 -0.1596 -0.2197
  715MOL0     C96405   9.660   9.639   0.601  0.2409  0.2902  1.0600
  715MOL0     C96406   9.674   9.548   0.470 -0.2416  0.0454 -0.7038
  715MOL0     N96407   9.806   9.501   0.433  0.2694  0.5798  1.1284
  715MOL0     C96408   9.903   9.585   0.382 -0.7534 -0.6303  0.1214
  715MOL0     C96409  10.022   9.515   0.381  0.1123 -0.0881 -0.7278
  715MOL0     C96410  10.152   9.571   0.344 -0.5442  0.3673  0.0869
  715MOL0     C96411  10.167   9.675   0.226  0.1002  0.9620 -0.1274
  715MOL0     C96412  10.314   9.725   0.247  0.7097 -0.1805 -0.6803
  715MOL0     C96413  10.324   9.847   0.154  0.4109 -0.2084  0.1984
  715MOL0     O96414  10.441   9.916   0.185  0.5628 -0.5472  0.0698
  715MOL0     C96415  10.556   9.902   0.119 -0.3440  0.0955  0.5307
  715MOL0     C96416  10.579   9.806   0.022  0.0369  0.0789  0.3251
  715MOL0     C96417  10.697   9.811  -0.050  0.0449 -0.4091  0.9277
  715MOL0     C96418  10.790   9.916  -0.028 -0.3389  0.0618 -0.2744
  715MOL0     C96419  10.916   9.915  -0.106 -0.1257  0.4182  0.0226
  715MOL0     O96420  11.032   9.942  -0.032  0.1232 -0.1986  0.3488
  715MOL0     C96421  11.157   9.914  -0.076  0.6538  0.5553 -0.1836
  715MOL0     C96422  11.201   9.920  -0.204 -0.5232  0.6315  0.0146
  715MOL0     C96423  11.340   9.900  -0.237 -0.3685 -0.8999 -0.2984
  715MOL0     C96424  11.438   9.906  -0.136  0.7432  0.7646 -0.0903
  715MOL0     O96425  11.569   9.909  -0.169 -0.2373 -0.4267  0.6523
  715MOL0     C96426  11.661   9.977  -0.084  0.2899  0.0097  0.1758
  715MOL0     C96427  11.791  10.012  -0.150  0.3523  0.4400  0.1369
  715MOL0     C96428  11.901  10.038  -0.047  0.6453  0.6698  0.3557
  715MOL0     C96429  12.033  10.072  -0.104  0.2666 -0.3838 -0.6778
  715MOL0     C96430  12.130  10.093   0.009 -0.3506  0.0402  0.6821
  715MOL0     C96431  12.251  10.175  -0.034 -1.0273  0.9399  0.3043
  715MOL0     C96432  12.353  10.200   0.073  0.5257 -0.9528 -0.0291
  715MOL0     C96433  12.490  10.246   0.028  0.1793 -0.7486  0.8380
  715MOL0    Cl96434  12.608  10.196   0.148 -0.1253 -0.0946  0.3400
  715MOL0     C96435  11.387   9.905  -0.001  0.5188 -0.7155  1.2796
  715MOL0     C96436  11.253   9.914   0.025  0.7699 -0.2255 -0.0103
  715MOL0     O96437  10.908   9.882  -0.225  0.3955  0.5672 -0.2694
  715MOL0     C96438  10.767  10.008   0.081 -0.3633  0.0460 -1.1090
  715MOL0     C96439  10.650   9.999   0.155  0.2327 -0.6094  0.0249
  715MOL0     N96440   9.990   9.393   0.439  0.0133 -0.2400  0.2864
  715MOL0     N96441   9.866   9.389   0.475 -0.4125 -0.7873 -0.1222
  715MOL0     C96442   8.989   9.149   0.371  0.5771 -0.6678 -0.4742
  715MOL0     C96443   8.936   9.068   0.280 -0.1302 -0.2184  0.2593
  715MOL0     C96444   8.716   8.741   0.049  0.0630 -0.0550  0.7681
  715MOL0     C96445   8.817   8.688  -0.033 -0.8165 -0.1221  0.1050
  715MOL0     C96446   8.795   8.580  -0.118  0.5512  0.4638  0.3726
  715MOL0     C96447   8.668   8.527  -0.136 -0.9725  0.3819 -0.6274
  715MOL0     O96448   8.656   8.425  -0.222 -0.7105 -0.2783  0.3998
  715MOL0     C96449   8.528   8.374  -0.253  0.9796 -0.0345 -0.9000
  715MOL0     C96450   8.526   8.267  -0.352  0.0014  0.7003  0.1452
  715MOL0     C96451   8.555   8.338  -0.481 -0.3973 -1.2727 -0.0410
  715MOL0     C96452   8.634   8.272  -0.592  0.0698  0.8832  0.1833
  715MOL0     C96453   8.571   8.156  -0.654 -0.3734  0.1453 -0.5495
  715MOL0     C96454   8.528   8.056  -0.696  0.4703 -0.8430 -0.1524
  715MOL0     C96455   8.567   8.582  -0.055 -0.5782  0.9283 -0.8653
  715MOL0     C96456   8.589   8.683   0.040  0.4137  0.6668 -0.2355
  715MOL0     C96457   8.480   8.733   0.134 -0.0036  0.0789 -0.5250
  715MOL0     H96458   8.932   8.773   0.447  0.7021  0.1184  0.7360
  715MOL0     H96459   9.018   8.926   0.627  1.5311 -4.8270 -2.2237
  715MOL0     H96460   9.100   9.364   0.550 -1.2776  0.7493 -0.1344
  715MOL0     H96461   8.947   9.314   0.630  0.3911 -0.1349 -0.7096
  715MOL0     H96462   9.075   9.277   0.830 -1.6423 -0.7662  0.4637
  715MOL0     H96463   9.074   9.438   0.787  1.2318  0.9017 -0.6934
  715MOL0     H96464   9.311   9.259   0.703  2.9213  2.7895 -2.4760
  715MOL0     H96465   9.294   9.348   0.861 -3.0797 -1.2030 -0.2196
  715MOL0     H96466   9.297   9.462   0.589 -2.0618  0.8486  0.1166
  715MOL0     H96467   9.263   9.560   0.731  0.5583 -0.1758  2.3109
  715MOL0     H96468   9.500   9.473   0.812 -2.1561  1.3675  0.9279
  715MOL0     H96469   9.517   9.411   0.651 -2.3514 -1.0862 -0.8332
  715MOL0     H96470   9.453   9.662   0.572  3.5226  1.4711 -2.9492
  715MOL0     H96471   9.509   9.705   0.739  3.1037  0.8740 -0.6105
  715MOL0     H96472   9.729   9.612   0.680 -0.6736 -0.2757  1.6865
  715MOL0     H96473   9.663   9.745   0.577 -0.5175  0.1727  0.3514
  715MOL0     H96474   9.610   9.461   0.482 -2.2588  1.6095  0.4088
  715MOL0     H96475   9.617   9.597   0.391 -0.5549 -0.9781 -1.1294
  715MOL0     H96476   9.904   9.690   0.355  2.7893 -0.6823 -0.4135
  715MOL0     H96477  10.182   9.624   0.435 -1.5690 -0.7204  1.0955
  715MOL0     H96478  10.210   9.480   0.328 -0.5172 -0.1275  2.6283
  715MOL0     H96479  10.166   9.632   0.125  1.9604  0.2086  0.1429
  715MOL0     H96480  10.090   9.751   0.241  2.1837  2.9889  0.8740
  715MOL0     H96481  10.392   9.654   0.218  0.9148  0.4568 -1.7422
  715MOL0     H96482  10.320   9.761   0.350  0.6574  0.9043 -1.0451
  715MOL0     H96483  10.237   9.914   0.158 -1.3396 -2.1402 -2.1814
  715MOL0     H96484  10.339   9.823   0.048  1.0405 -0.7176  0.4025
  715MOL0     H96485  10.507   9.731  -0.008 -2.2579  2.4423 -0.4706
  715MOL0     H96486  10.725   9.725  -0.109  0.7597  0.3959  0.0636
  715MOL0     H96487  11.133   9.933  -0.287 -1.4042 -0.0478  0.6043
  715MOL0     H96488  11.356   9.918  -0.343  1.5266 -1.5369 -0.1459
  715MOL0     H96489  11.606  10.067  -0.054 -0.0373 -1.1456  3.4245
  715MOL0     H96490  11.665   9.905  -0.002 -5.7718 -4.2217 -2.4788
  715MOL0     H96491  11.821   9.922  -0.205  0.6946  2.4219 -3.1904
  715MOL0     H96492  11.766  10.087  -0.226 -1.4237 -0.3278 -0.0804
  715MOL0     H96493  11.865  10.124   0.011  2.2527  1.5952  0.0322
  715MOL0     H96494  11.907   9.947   0.013 -0.4607  2.1167  2.8354
  715MOL0     H96495  12.014  10.169  -0.150 -0.5654  0.7089  1.8147
  715MOL0     H96496  12.060   9.993  -0.176 -1.9623 -2.8761  1.0360
  715MOL0     H96497  12.165  10.000   0.055  1.5012 -0.0462 -0.7956
  715MOL0     H96498  12.081  10.160   0.080  0.4495  0.1201  1.1671
  715MOL0     H96499  12.306  10.122  -0.112 -0.4837 -1.7908  2.3773
  715MOL0     H96500  12.223  10.268  -0.084 -0.5841  0.9445  0.0615
  715MOL0     H96501  12.363  10.100   0.117  0.3156 -1.2075 -0.5595
  715MOL0     H96502  12.317  10.275   0.144  2.4602  1.2412 -1.2157
  715MOL0     H96503  12.514  10.205  -0.070  1.9610  0.9970  0.4683
  715MOL0     H96504  12.493  10.355   0.017 -2.0730 -0.5529  1.6381
  715MOL0     H96505  11.455   9.906   0.085  1.6964  0.6019  0.3811
  715MOL0     H96506  11.229   9.923   0.130  0.8505  2.2044 -0.1514
  715MOL0     H96507  10.846  10.075   0.114  1.7409 -2.1720 -1.3399
  715MOL0     H96508  10.630  10.070   0.234 -3.1792 -1.6264  0.2245
  715MOL0     H96509   9.010   9.253   0.349  0.0879 -0.1730  1.2194
  715MOL0     H96510   8.900   9.105   0.185 -1.8435 -0.8094  0.6405
  715MOL0     H96511   8.921   8.716  -0.023 -0.5786  1.2671 -4.3131
  715MOL0     H96512   8.887   8.543  -0.163  0.1043  0.8943 -0.9319
  715MOL0     H96513   8.458   8.455  -0.275 -0.6534 -0.8252  1.0169
  715MOL0     H96514   8.493   8.335  -0.157  1.4156  1.9407  0.1267
  715MOL0     H96515   8.429   8.217  -0.351 -0.0577  0.6875 -2.0314
  715MOL0     H96516   8.606   8.199  -0.321 -1.1197 -0.8495 -0.2245
  715MOL0     H96517   8.616   8.427  -0.465 -1.5860 -0.1734 -1.4122
  715MOL0     H96518   8.457   8.372  -0.515 -0.3593 -2.9631 -2.0236
  715MOL0     H96519   8.661   8.338  -0.674  0.7261  1.5028  0.8824
  715MOL0     H96520   8.730   8.232  -0.556 -0.2432 -0.2972 -0.2396
  715MOL0     H96521   8.491   7.958  -0.722 -1.1259 -0.3968  0.2776
  715MOL0     H96522   8.470   8.533  -0.058 -0.3191  0.3729 -0.3207
  715MOL0     H96523   8.517   8.770   0.229 -2.6042 -2.1243  1.5353
  715MOL0     H96524   8.421   8.807   0.078 -1.4288 -0.4808  0.1857
  715MOL0     H96525   8.414   8.650   0.164  1.1350  0.1467  2.4857
  716MOL0     O96526   5.340   4.146   0.305  0.6170  0.4919  0.0073
  716MOL0     C96527   5.263   4.156   0.203 -0.3404 -0.1426  0.6238
  716MOL0     O96528   5.304   4.193   0.073  0.0351  0.6536  0.4066
  716MOL0     C96529   5.435   4.204   0.062  0.4483 -0.5442  0.1863
  716MOL0     C96530   5.482   4.334   0.026  1.1361  0.7839  0.4822
  716MOL0     C96531   5.623   4.354   0.018  0.9108  0.3096 -0.5072
  716MOL0     C96532   5.713   4.253   0.041  0.0192  0.2830  0.3685
  716MOL0     O96533   5.855   4.258   0.039 -0.5987 -0.5287  0.0458
  716MOL0     C96534   5.910   4.378   0.103  0.0729  0.7580  0.0290
  716MOL0     C96535   6.049   4.378   0.036 -0.4619  0.5630  0.0298
  716MOL0     C96536   6.132   4.491   0.093  0.2004 -0.1201 -0.7371
  716MOL0     C96537   6.259   4.506   0.013  0.4895 -0.2453  0.8343
  716MOL0     C96538   6.370   4.586   0.075 -0.3127  0.1244  0.3461
  716MOL0     C96539   6.495   4.589  -0.000 -0.1649  0.1189  0.2012
  716MOL0     C96540   6.612   4.633   0.093  0.1427 -0.3547  0.0401
  716MOL0     C96541   6.745   4.623   0.019 -0.7829 -0.0963 -0.3775
  716MOL0     N96542   6.861   4.616   0.115 -0.3596 -0.2512  0.7008
  716MOL0     C96543   6.886   4.526   0.215 -0.1996  0.4070 -0.2419
  716MOL0     C96544   7.005   4.567   0.270 -0.1960  0.1101 -0.0285
  716MOL0     C96545   7.069   4.513   0.389  0.5050  0.0126 -0.3670
  716MOL0     C96546   7.151   4.392   0.366 -0.6499 -0.2704  0.0668
  716MOL0     C96547   7.210   4.350   0.497 -0.4380 -0.6609 -0.0176
  716MOL0     C96548   7.330   4.266   0.476 -0.1984  0.2455 -0.2443
  716MOL0     O96549   7.375   4.226   0.609  0.2141 -0.3553  0.4484
  716MOL0     C96550   7.466   4.123   0.607 -0.1787  0.6018 -0.3905
  716MOL0     C96551   7.577   4.138   0.695  0.4185 -0.1231  0.2656
  716MOL0     C96552   7.668   4.039   0.716  1.0897  0.0774 -0.3747
  716MOL0     C96553   7.652   3.909   0.662 -0.6234  0.2605 -0.6505
  716MOL0     C96554   7.749   3.804   0.685 -0.0052 -0.3666 -0.2312
  716MOL0     O96555   7.856   3.839   0.757  0.3295 -0.4014 -0.2005
  716MOL0     C96556   7.941   3.740   0.781 -0.5199  0.0248  0.0110
  716MOL0     C96557   8.050   3.731   0.698 -0.0008 -0.4707 -0.0997
  716MOL0     C96558   8.147   3.633   0.717 -0.3906 -0.8914 -0.4193
  716MOL0     C96559   8.145   3.543   0.817 -0.0357  0.6958 -0.2482
  716MOL0     O96560   8.248   3.454   0.822  0.0367  0.5395  0.0648
  716MOL0     C96561   8.259   3.369   0.937 -0.1096  0.0401  0.2938
  716MOL0     C96562   8.166   3.239   0.931  0.0639 -0.8919 -0.9211
  716MOL0     C96563   8.221   3.121   1.009 -0.8474  0.9173 -0.2650
  716MOL0     C96564   8.112   3.017   1.027  0.3562 -0.4515 -0.0288
  716MOL0     C96565   8.164   2.881   1.102  0.2363 -0.4789 -0.3133
  716MOL0     C96566   8.208   2.923   1.239 -0.7329  0.2743 -0.2820
  716MOL0     C96567   8.244   2.801   1.317  0.6249 -0.2398 -1.2168
  716MOL0     C96568   8.347   2.712   1.248 -0.6587  0.0193 -0.8564
  716MOL0    Cl96569   8.420   2.598   1.370  0.0901 -0.1112  0.3673
  716MOL0     C96570   8.026   3.546   0.897 -0.6353  0.5044 -0.1102
  716MOL0     C96571   7.926   3.646   0.882  0.0488  0.7563 -0.8454
  716MOL0     O96572   7.744   3.703   0.611  0.6063  0.2914  0.2135
  716MOL0     C96573   7.532   3.887   0.582 -0.2628 -0.1412  0.9962
  716MOL0     C96574   7.439   3.994   0.549 -0.7971  0.5789 -0.6369
  716MOL0     N96575   7.053   4.677   0.201 -0.5557  0.2791  0.5555
  716MOL0     N96576   6.969   4.700   0.108 -0.1660 -0.3827  0.8194
  716MOL0     C96577   5.664   4.125   0.069  0.1863 -1.1059  0.4776
  716MOL0     C96578   5.524   4.107   0.081 -0.5278  1.2988 -0.3122
  716MOL0     C96579   5.116   4.115   0.205  0.3638 -0.1585  0.1584
  716MOL0     C96580   5.035   4.130   0.092 -0.7830 -0.5846 -0.1318
  716MOL0     C96581   4.899   4.106   0.101  0.9332  0.1254  0.0121
  716MOL0     C96582   4.839   4.058   0.210  0.4621 -0.4548 -0.0159
  716MOL0     O96583   4.708   4.014   0.226 -0.0457  0.0353 -0.3348
  716MOL0     C96584   4.596   4.044   0.134 -0.0615  0.7715  0.4816
  716MOL0     C96585   4.478   3.941   0.155 -0.6624  0.2108 -1.1469
  716MOL0     C96586   4.401   3.941   0.293  0.1994  0.3164  0.5348
  716MOL0     C96587   4.292   3.826   0.297 -0.3315 -0.1040 -0.4482
  716MOL0     C96588   4.219   3.849   0.418  0.6277 -0.0940  0.1717
  716MOL0     C96589   4.161   3.863   0.526 -0.1722  0.9284 -0.7359
  716MOL0     C96590   4.918   4.045   0.326  0.3927 -0.2253 -0.2092
  716MOL0     C96591   5.055   4.071   0.325  0.7668  0.8233  0.0038
  716MOL0     C96592   5.120   4.064   0.467 -0.0620 -0.1745 -0.1274
  716MOL0     H96593   5.401   4.403   0.007  0.1853 -0.3032  0.5139
  716MOL0     H96594   5.650   4.454  -0.016  1.2266 -0.2998 -2.1420
  716MOL0     H96595   5.861   4.472   0.074 -0.7445  0.4240  0.3005
  716MOL0     H96596   5.919   4.373   0.211  0.1180  0.3270  0.0064
  716MOL0     H96597   6.040   4.397  -0.072  1.7431 -0.3979 -0.3916
  716MOL0     H96598   6.107   4.289   0.063  1.1371  0.7069 -2.5454
  716MOL0     H96599   6.155   4.463   0.196  1.1308 -3.0611 -1.6453
  716MOL0     H96600   6.075   4.583   0.082 -2.2981 -1.7419 -2.3205
  716MOL0     H96601   6.289   4.402  -0.005 -0.4408 -0.2169 -1.0870
  716MOL0     H96602   6.242   4.549  -0.085 -0.2002  1.2969  1.6036
  716MOL0     H96603   6.336   4.688   0.094 -1.9798 -0.5011  0.8254
  716MOL0     H96604   6.392   4.547   0.175  0.0293 -1.7714 -0.4241
  716MOL0     H96605   6.510   4.489  -0.040 -1.4108 -0.1254  0.2957
  716MOL0     H96606   6.481   4.658  -0.084  0.9072 -1.0186 -0.9632
  716MOL0     H96607   6.616   4.556   0.171 -0.5194 -1.2604 -0.7852
  716MOL0     H96608   6.601   4.732   0.137  0.2604 -0.6220  0.6936
  716MOL0     H96609   6.749   4.543  -0.056 -0.6201  0.1238 -0.6040
  716MOL0     H96610   6.753   4.711  -0.045 -0.4369 -0.5371 -0.9550
  716MOL0     H96611   6.820   4.454   0.261 -4.4711  2.7738 -2.0676
  716MOL0     H96612   7.131   4.592   0.433  0.2126  1.2927 -2.1367
  716MOL0     H96613   7.005   4.486   0.474  2.9815 -0.5284  1.4283
  716MOL0     H96614   7.084   4.311   0.334 -3.5793  2.1300 -0.2250
  716MOL0     H96615   7.230   4.418   0.295 -2.2629 -0.5625 -1.9386
  716MOL0     H96616   7.138   4.293   0.556  0.3177 -1.6412 -0.0086
  716MOL0     H96617   7.237   4.440   0.554 -2.0177 -0.6163  0.6982
  716MOL0     H96618   7.409   4.320   0.423  0.0241 -0.7355 -0.9354
  716MOL0     H96619   7.309   4.178   0.416  1.0764  0.9071 -1.7203
  716MOL0     H96620   7.584   4.235   0.744 -1.6379 -0.1028  0.5905
  716MOL0     H96621   7.751   4.073   0.779  1.3261  0.9882 -1.1548
  716MOL0     H96622   8.065   3.796   0.612 -1.6557  1.5799  1.0494
  716MOL0     H96623   8.236   3.630   0.654  0.9855  2.3198  1.1115
  716MOL0     H96624   8.362   3.335   0.950 -0.9192 -2.2237  1.3082
  716MOL0     H96625   8.236   3.416   1.033  1.1558 -0.9782  1.1331
  716MOL0     H96626   8.064   3.268   0.957 -0.0430  0.4290 -2.6393
  716MOL0     H96627   8.162   3.207   0.826  2.7459 -1.0058 -1.0777
  716MOL0     H96628   8.320   3.096   0.969  1.3182  2.4955  3.5966
  716MOL0     H96629   8.256   3.151   1.108  2.0469 -0.4345 -0.7519
  716MOL0     H96630   8.076   2.995   0.926  1.2551  0.2770 -0.5232
  716MOL0     H96631   8.028   3.064   1.078 -0.4941 -0.6131 -1.2399
  716MOL0     H96632   8.242   2.839   1.038  0.7194  0.5416 -0.4200
  716MOL0     H96633   8.079   2.813   1.112 -0.6222  0.4546 -0.9871
  716MOL0     H96634   8.293   2.990   1.221 -2.2239  2.3969  0.2767
  716MOL0     H96635   8.133   2.986   1.286 -0.5449  1.0434 -0.9871
  716MOL0     H96636   8.154   2.744   1.341  1.0617 -0.4438  0.0542
  716MOL0     H96637   8.269   2.833   1.419  2.2730 -4.2322 -0.1679
  716MOL0     H96638   8.299   2.662   1.163 -1.4309 -2.5577  0.9578
  716MOL0     H96639   8.427   2.778   1.213  0.7017 -1.6415 -1.0161
  716MOL0     H96640   8.001   3.479   0.979  2.1514 -1.9145 -1.0665
  716MOL0     H96641   7.836   3.639   0.943 -0.7469 -1.9437 -2.1366
  716MOL0     H96642   7.512   3.784   0.553  0.6324 -0.4938  1.5653
  716MOL0     H96643   7.353   3.975   0.486  1.0967 -0.2082 -3.1630
  716MOL0     H96644   5.744   4.054   0.089 -2.8352 -4.5519  1.4443
  716MOL0     H96645   5.481   4.010   0.101 -0.7407  1.2055 -1.1883
  716MOL0     H96646   5.076   4.166  -0.001 -0.7729 -0.6344 -0.1472
  716MOL0     H96647   4.841   4.108   0.010 -1.4349  0.1529  1.4271
  716MOL0     H96648   4.633   4.033   0.032 -2.4293  0.2677 -0.3897
  716MOL0     H96649   4.561   4.147   0.146 -3.0250 -0.3993  3.4642
  716MOL0     H96650   4.510   3.838   0.132  1.7595  0.9843 -1.5376
  716MOL0     H96651   4.406   3.958   0.075 -0.0844  0.4476 -1.6215
  716MOL0     H96652   4.342   4.033   0.296  0.3270  0.3880  0.8641
  716MOL0     H96653   4.461   3.930   0.383 -1.1842 -1.0532  1.3469
  716MOL0     H96654   4.226   3.824   0.210 -0.3248 -0.6801 -0.4388
  716MOL0     H96655   4.352   3.735   0.305  1.7250  1.2451  0.6194
  716MOL0     H96656   4.101   3.884   0.612  1.7878 -0.5183  1.0880
  716MOL0     H96657   4.861   4.023   0.416  1.2248  0.2152  0.4478
  716MOL0     H96658   5.061   4.010   0.541  1.8468 -1.3776  0.5816
  716MOL0     H96659   5.218   4.017   0.455  1.1704  2.0169  0.7577
  716MOL0     H96660   5.141   4.165   0.505 -0.1042 -0.5614  0.9439
  717MOL0     O96661   6.121   6.544   4.252  0.6787 -0.0213 -0.1754
  717MOL0     C96662   6.142   6.519   4.133  0.1474 -0.4804 -0.6896
  717MOL0     O96663   6.258   6.556   4.061 -0.0150 -0.3023 -0.7191
  717MOL0     C96664   6.370   6.594   4.122 -0.8109 -0.8214 -0.1246
  717MOL0     C96665   6.449   6.700   4.062  0.2786 -0.4043 -0.2684
  717MOL0     C96666   6.567   6.754   4.118  0.3977 -0.2018 -0.4314
  717MOL0     C96667   6.606   6.706   4.247 -0.0506 -0.1121  1.2194
  717MOL0     O96668   6.710   6.776   4.310 -0.2426 -0.0053 -0.0661
  717MOL0     C96669   6.837   6.750   4.257 -0.1451  0.3267  0.4322
  717MOL0     C96670   6.918   6.878   4.282 -0.3041 -0.1789  0.3744
  717MOL0     C96671   7.035   6.879   4.181  0.6026 -0.2689  0.6233
  717MOL0     C96672   7.130   7.002   4.205  0.4682  0.1868 -0.1177
  717MOL0     C96673   7.257   6.995   4.130 -1.0969 -0.1206  0.9643
  717MOL0     C96674   7.334   7.129   4.154 -0.4437  0.1133  0.4307
  717MOL0     C96675   7.473   7.134   4.084  0.8597 -0.3099  0.4015
  717MOL0     C96676   7.562   7.037   4.151 -0.6887  0.2582 -0.4569
  717MOL0     N96677   7.694   7.074   4.095  0.9178  0.0631  0.5196
  717MOL0     C96678   7.745   7.043   3.967  0.1553 -0.0073 -0.0771
  717MOL0     C96679   7.872   7.101   3.972  0.4340  0.1885 -0.3573
  717MOL0     C96680   7.967   7.095   3.860 -0.1985  0.1303 -0.4915
  717MOL0     C96681   8.098   7.155   3.903 -0.5851 -0.2381  0.2590
  717MOL0     C96682   8.182   7.211   3.793 -0.0794  0.3710  0.6699
  717MOL0     C96683   8.303   7.294   3.852  0.4486  0.6926  0.3514
  717MOL0     O96684   8.376   7.356   3.745 -0.5843 -0.2863 -0.1922
  717MOL0     C96685   8.513   7.346   3.773 -0.0850 -0.0137  0.0712
  717MOL0     C96686   8.570   7.387   3.897  0.2250  0.1057  0.3720
  717MOL0     C96687   8.707   7.382   3.920 -0.5954  0.6624  1.0387
  717MOL0     C96688   8.795   7.336   3.819 -0.1137  0.5726 -0.3019
  717MOL0     C96689   8.937   7.333   3.835 -0.4468  0.0068 -0.4290
  717MOL0     O96690   9.014   7.343   3.722 -0.8345 -0.4239 -0.5317
  717MOL0     C96691   9.150   7.338   3.745 -0.1589 -0.4404 -0.0611
  717MOL0     C96692   9.226   7.456   3.749  0.0564  0.4155 -0.9417
  717MOL0     C96693   9.365   7.450   3.789  0.1619 -0.1119  0.4554
  717MOL0     C96694   9.417   7.333   3.844  0.0682  0.4960  0.5478
  717MOL0     O96695   9.555   7.323   3.880  0.8085 -0.1893  0.1229
  717MOL0     C96696   9.646   7.308   3.768  0.5944 -0.3148  0.0032
  717MOL0     C96697   9.790   7.311   3.812  0.0095 -0.2937  0.0579
  717MOL0     C96698   9.820   7.183   3.882 -0.0134  0.2788 -0.7100
  717MOL0     C96699   9.952   7.184   3.962  0.1071  0.8664  0.4973
  717MOL0     C96700  10.005   7.048   4.012  0.4657  0.3544 -0.0750
  717MOL0     C96701  10.139   7.057   4.082 -0.0081  0.7764 -0.4170
  717MOL0     C96702  10.257   7.048   3.989  0.6892  0.0945  1.2545
  717MOL0     C96703  10.387   7.065   4.059  0.2342 -0.6820 -0.1628
  717MOL0    Cl96704  10.515   6.972   3.977 -0.8411  0.4496 -0.2877
  717MOL0     C96705   9.340   7.221   3.850  0.1314  0.3110  0.3482
  717MOL0     C96706   9.208   7.220   3.792  0.0783 -0.8617 -0.3386
  717MOL0     O96707   8.986   7.333   3.951  0.7602  0.1177  0.2851
  717MOL0     C96708   8.731   7.297   3.699 -0.2511  0.2387 -0.0399
  717MOL0     C96709   8.599   7.297   3.676 -0.3305  0.6683  0.6321
  717MOL0     N96710   7.886   7.163   4.094 -0.7935  0.0319 -0.2236
  717MOL0     N96711   7.782   7.149   4.163  0.1934 -0.2999  0.7430
  717MOL0     C96712   6.529   6.608   4.313  0.4360  0.1103 -0.3931
  717MOL0     C96713   6.423   6.549   4.243  0.3021 -0.1589 -0.5737
  717MOL0     C96714   6.036   6.446   4.058 -0.1698  0.4457 -0.2861
  717MOL0     C96715   6.023   6.482   3.926  0.6204 -0.1086  0.1027
  717MOL0     C96716   5.924   6.416   3.853 -0.3502  0.5570  0.5886
  717MOL0     C96717   5.854   6.307   3.908  0.6653 -0.0048 -0.3423
  717MOL0     O96718   5.753   6.226   3.845 -0.2024  0.1103  0.0006
  717MOL0     C96719   5.729   6.266   3.711  0.3008  0.5686 -0.2045
  717MOL0     C96720   5.600   6.192   3.665  0.0354 -0.8156 -0.8125
  717MOL0     C96721   5.609   6.142   3.513  0.1910  0.3356  0.2468
  717MOL0     C96722   5.636   6.244   3.403 -0.4217 -0.4686  0.7335
  717MOL0     C96723   5.779   6.279   3.387  0.6586 -0.0531  0.0757
  717MOL0     C96724   5.895   6.262   3.365  0.1143 -0.8474 -0.9176
  717MOL0     C96725   5.864   6.274   4.040  0.6914 -0.1447  0.7362
  717MOL0     C96726   5.959   6.338   4.119 -0.8898 -0.3163 -0.0474
  717MOL0     C96727   5.975   6.276   4.263 -0.3786 -0.2415  0.9219
  717MOL0     H96728   6.428   6.742   3.964 -0.4784 -1.1776 -0.4487
  717MOL0     H96729   6.624   6.829   4.063 -1.3489  1.3464 -0.2231
  717MOL0     H96730   6.879   6.657   4.297  1.4072 -0.4081 -2.6528
  717MOL0     H96731   6.819   6.725   4.152  0.5069  0.2004  0.3504
  717MOL0     H96732   6.957   6.888   4.384 -0.2132 -0.3939  0.3618
  717MOL0     H96733   6.857   6.966   4.263  0.6913 -0.0099 -2.5142
  717MOL0     H96734   7.000   6.877   4.077  1.0791 -1.6203  0.4669
  717MOL0     H96735   7.095   6.787   4.183  1.1906  0.0859 -0.3166
  717MOL0     H96736   7.068   7.085   4.170 -0.3565 -0.6655 -0.7119
  717MOL0     H96737   7.151   7.015   4.312 -1.3372 -0.7006  0.3757
  717MOL0     H96738   7.317   6.912   4.168  0.6944 -0.8245 -2.9162
  717MOL0     H96739   7.242   6.980   4.022  3.1356 -2.1372  0.4332
  717MOL0     H96740   7.270   7.214   4.126  0.4085  1.2959  1.9297
  717MOL0     H96741   7.345   7.156   4.260  2.0216 -0.3194  0.3434
  717MOL0     H96742   7.507   7.237   4.098  1.2586 -0.1635 -1.4588
  717MOL0     H96743   7.461   7.111   3.978 -0.6885  0.3486  0.4053
  717MOL0     H96744   7.563   7.057   4.258 -1.2239 -1.9801  0.0167
  717MOL0     H96745   7.536   6.932   4.135  0.1390  0.2243 -1.7574
  717MOL0     H96746   7.707   6.987   3.883 -0.0909  0.6484 -0.4152
  717MOL0     H96747   7.963   6.988   3.837  1.8260  0.1443 -1.1510
  717MOL0     H96748   7.932   7.156   3.777 -1.7184  1.8285  1.2879
  717MOL0     H96749   8.087   7.241   3.969  0.2858  2.5479 -2.9570
  717MOL0     H96750   8.154   7.071   3.946 -1.0513 -0.9285 -0.4336
  717MOL0     H96751   8.109   7.276   3.744  0.6086  1.1972  0.7344
  717MOL0     H96752   8.219   7.131   3.728 -2.0019  1.0227 -1.3599
  717MOL0     H96753   8.362   7.210   3.890 -0.1163  0.2651  0.2758
  717MOL0     H96754   8.270   7.361   3.933  2.1749 -1.3121  2.8902
  717MOL0     H96755   8.490   7.427   3.959 -0.2784  0.0764 -0.2436
  717MOL0     H96756   8.738   7.412   4.020  0.0890  2.2972  0.3654
  717MOL0     H96757   9.182   7.548   3.713  0.7446  1.5125  0.8784
  717MOL0     H96758   9.428   7.539   3.789  1.4443 -0.9599  2.4606
  717MOL0     H96759   9.629   7.217   3.709 -1.4332  1.3731 -2.1909
  717MOL0     H96760   9.625   7.391   3.700  2.7498  0.6332  0.3979
  717MOL0     H96761   9.857   7.309   3.725  0.6771 -0.9089  0.5657
  717MOL0     H96762   9.811   7.395   3.879 -1.6075 -0.9866  1.5093
  717MOL0     H96763   9.743   7.162   3.957  0.6599  0.0254 -0.0838
  717MOL0     H96764   9.813   7.101   3.810  1.6989  0.8571 -1.5893
  717MOL0     H96765   9.952   7.250   4.049  0.4944 -1.3608  2.2827
  717MOL0     H96766  10.023   7.227   3.892 -1.4651  0.1506 -1.6389
  717MOL0     H96767   9.998   6.982   3.926 -0.1273  0.1652  0.1161
  717MOL0     H96768   9.934   7.008   4.085  0.4055  0.6909  0.0571
  717MOL0     H96769  10.138   7.144   4.148  0.5226  0.5763 -0.1358
  717MOL0     H96770  10.140   6.973   4.152 -5.4041  0.2521 -0.5869
  717MOL0     H96771  10.262   7.120   3.907  2.1850 -2.1823 -0.7778
  717MOL0     H96772  10.251   6.946   3.951  1.6095 -0.2941  2.1019
  717MOL0     H96773  10.417   7.170   4.054 -2.0240 -0.0437 -1.9930
  717MOL0     H96774  10.373   7.035   4.163  1.3080 -1.3530 -0.2012
  717MOL0     H96775   9.386   7.136   3.899  1.3781  0.6416 -0.1962
  717MOL0     H96776   9.145   7.133   3.805  1.4979 -1.8982 -0.1196
  717MOL0     H96777   8.785   7.252   3.616  1.3046  1.6886  0.1334
  717MOL0     H96778   8.559   7.264   3.581  1.6351  1.0854 -0.3904
  717MOL0     H96779   6.556   6.580   4.414  2.6488 -0.3098 -1.0559
  717MOL0     H96780   6.385   6.457   4.284 -0.1433 -0.1594 -0.9724
  717MOL0     H96781   6.092   6.552   3.879 -0.8055 -0.1167 -2.1595
  717MOL0     H96782   5.930   6.438   3.747 -2.0894 -0.3424  0.2655
  717MOL0     H96783   5.812   6.245   3.644 -0.0904  2.1895 -1.2666
  717MOL0     H96784   5.706   6.373   3.707 -4.2937 -0.1471  0.5806
  717MOL0     H96785   5.517   6.262   3.682  0.7336 -0.3454  0.8544
  717MOL0     H96786   5.581   6.108   3.732  0.6494 -0.4046 -0.1154
  717MOL0     H96787   5.513   6.090   3.506  1.0318 -1.0427 -3.0012
  717MOL0     H96788   5.679   6.057   3.511 -0.5088 -0.2911  1.1130
  717MOL0     H96789   5.606   6.192   3.312  4.9699  0.5614 -2.1024
  717MOL0     H96790   5.570   6.331   3.411  1.2198  0.9981 -0.5022
  717MOL0     H96791   5.999   6.259   3.340  0.1091  1.5607 -1.4951
  717MOL0     H96792   5.800   6.192   4.069 -0.7297 -0.7395 -3.3871
  717MOL0     H96793   6.066   6.319   4.306 -0.0158  0.0347 -0.0823
  717MOL0     H96794   5.890   6.302   4.327 -0.2817  1.1435  0.5376
  717MOL0     H96795   5.987   6.168   4.257  4.7736  0.1329 -0.6991
  718MOL0     O96796   0.888  10.278   3.192  0.5958 -0.3688  0.5066
  718MOL0     C96797   0.803  10.271   3.098  0.2344  0.3966 -0.2641
  718MOL0     O96798   0.824  10.205   2.976  0.7598 -0.4625 -0.3306
  718MOL0     C96799   0.943  10.137   2.958  0.6270 -0.6646  0.6569
  718MOL0     C96800   0.971  10.003   2.990  0.0022  0.7655 -0.0370
  718MOL0     C96801   1.096   9.939   2.967  0.0171 -0.0030 -0.6565
  718MOL0     C96802   1.199  10.021   2.903 -0.9961  0.3058 -0.6726
  718MOL0     O96803   1.330   9.971   2.887  0.5122  0.0461 -0.4370
  718MOL0     C96804   1.368   9.839   2.942  0.9637 -0.4266  0.4125
  718MOL0     C96805   1.519   9.808   2.920  0.6336  0.0222  0.1586
  718MOL0     C96806   1.612   9.910   2.966  0.2073 -0.3002 -0.1333
  718MOL0     C96807   1.742   9.893   2.895 -0.3633 -0.6308 -0.3928
  718MOL0     C96808   1.841   9.993   2.963  0.9257  0.6000  0.0627
  718MOL0     C96809   1.974  10.004   2.888  0.6244 -0.0326 -0.4987
  718MOL0     C96810   2.075  10.062   2.979  0.6678 -0.0100 -0.0480
  718MOL0     C96811   2.217  10.076   2.917  0.1412  0.0206  0.3701
  718MOL0     N96812   2.281   9.941   2.903 -0.2944 -0.3142  0.0920
  718MOL0     C96813   2.384   9.897   2.977  0.2319  0.6118 -0.2610
  718MOL0     C96814   2.404   9.775   2.926 -0.0212 -0.1776  0.5387
  718MOL0     C96815   2.508   9.690   2.985 -0.0702  0.8630 -0.1670
  718MOL0     C96816   2.622   9.684   2.882  0.4240 -0.2019 -0.2591
  718MOL0     C96817   2.591   9.598   2.757 -0.0369  1.0022  0.1478
  718MOL0     C96818   2.714   9.535   2.686  0.4376 -0.5901  0.0459
  718MOL0     O96819   2.771   9.430   2.767 -0.1613  0.5330  0.7134
  718MOL0     C96820   2.902   9.392   2.752  0.1847  0.0777 -0.7630
  718MOL0     C96821   2.972   9.387   2.627 -0.6249 -0.4616 -0.0178
  718MOL0     C96822   3.108   9.343   2.628  0.3921 -0.2898  0.8577
  718MOL0     C96823   3.166   9.293   2.739 -0.0342 -0.5830 -0.7276
  718MOL0     C96824   3.297   9.223   2.741 -0.7903 -0.2111 -0.3651
  718MOL0     O96825   3.382   9.257   2.638  0.3214 -0.2258  0.2290
  718MOL0     C96826   3.511   9.211   2.628  0.4048 -0.1787 -0.2566
  718MOL0     C96827   3.597   9.227   2.739  0.4302 -0.0644  0.2096
  718MOL0     C96828   3.725   9.172   2.732  0.8192 -0.0603 -0.3501
  718MOL0     C96829   3.769   9.120   2.608 -1.2646  0.4384  0.3184
  718MOL0     O96830   3.901   9.062   2.586 -0.1903 -0.1085  0.1644
  718MOL0     C96831   3.997   9.068   2.687 -1.0869 -0.1088 -0.1439
  718MOL0     C96832   4.135   9.001   2.660  0.2167 -1.0805  0.3986
  718MOL0     C96833   4.197   9.045   2.524  0.2199 -0.5559  0.1637
  718MOL0     C96834   4.339   9.011   2.520  0.4142 -0.5728 -0.1595
  718MOL0     C96835   4.413   9.144   2.543 -0.1022 -0.9517  0.4740
  718MOL0     C96836   4.565   9.121   2.554  0.6782 -0.0191  0.7034
  718MOL0     C96837   4.615   9.063   2.421 -0.8969 -0.2035  0.4265
  718MOL0     C96838   4.765   9.099   2.397  0.6000  0.2194  0.3509
  718MOL0    Cl96839   4.828   9.050   2.233 -0.6081 -0.1682 -0.0583
  718MOL0     C96840   3.685   9.112   2.503 -0.3728 -0.1709  1.0916
  718MOL0     C96841   3.554   9.151   2.512  0.2399  0.0775  0.0666
  718MOL0     O96842   3.327   9.139   2.826  0.0241  0.4379 -0.2017
  718MOL0     C96843   3.100   9.296   2.861 -0.0518  0.2867 -0.0482
  718MOL0     C96844   2.969   9.343   2.872 -0.6777  0.1766  0.0765
  718MOL0     N96845   2.306   9.737   2.835 -0.2263 -0.0720  0.0169
  718MOL0     N96846   2.231   9.842   2.819 -0.8168  0.0001 -0.5850
  718MOL0     C96847   1.172  10.159   2.875  0.4682 -0.3634  0.1292
  718MOL0     C96848   1.047  10.219   2.898  1.0579  0.0291  0.1274
  718MOL0     C96849   0.659  10.303   3.130  0.6390 -0.6169  1.1757
  718MOL0     C96850   0.559  10.215   3.077 -0.4464  0.4277  0.9626
  718MOL0     C96851   0.425  10.225   3.096 -0.1142 -0.6380  0.0321
  718MOL0     C96852   0.380  10.331   3.179  0.1985 -0.0342  0.5816
  718MOL0     O96853   0.246  10.355   3.214 -0.1205  0.1367  0.2132
  718MOL0     C96854   0.142  10.270   3.175 -0.2000 -0.8651  0.5361
  718MOL0     C96855   0.022  10.300   3.266 -0.2420 -0.0176 -0.0990
  718MOL0     C96856   0.039  10.265   3.414 -0.6727 -0.3243 -0.0260
  718MOL0     C96857  -0.093  10.259   3.490  0.0210  0.2568 -0.3116
  718MOL0     C96858  -0.082  10.202   3.624  0.8989 -0.8077 -0.4435
  718MOL0     C96859  -0.072  10.152   3.734  0.0512 -0.2876 -0.2934
  718MOL0     C96860   0.480  10.424   3.220  0.7327  0.1011  0.5357
  718MOL0     C96861   0.613  10.410   3.199 -0.4083 -0.0860 -0.3164
  718MOL0     C96862   0.709  10.508   3.269  0.0770 -0.7275  0.0171
  718MOL0     H96863   0.891   9.947   3.038 -1.4778  0.1690 -2.9441
  718MOL0     H96864   1.108   9.834   2.994 -0.3739 -0.4216 -2.0159
  718MOL0     H96865   1.351   9.829   3.049  1.1603  2.4599  0.7833
  718MOL0     H96866   1.302   9.761   2.901 -1.2329  1.2176  0.6478
  718MOL0     H96867   1.539   9.779   2.817  0.3250 -0.6172  0.2740
  718MOL0     H96868   1.534   9.721   2.984 -0.8510  0.5860  1.3640
  718MOL0     H96869   1.622   9.902   3.075 -0.0148 -0.0774 -0.0963
  718MOL0     H96870   1.577  10.012   2.948  0.5524  0.1590  1.6096
  718MOL0     H96871   1.784   9.792   2.889  2.9122  0.6517 -1.7037
  718MOL0     H96872   1.733   9.925   2.790  1.9777  1.5377 -0.0470
  718MOL0     H96873   1.798  10.093   2.979 -3.6710 -1.2993  1.0760
  718MOL0     H96874   1.875   9.944   3.054 -1.4982  1.5491  1.5723
  718MOL0     H96875   1.995   9.900   2.859 -0.4239 -0.8551  1.4722
  718MOL0     H96876   1.965  10.074   2.804  0.0585  1.3516  0.6801
  718MOL0     H96877   2.088   9.997   3.065 -0.2047 -1.0036 -0.6465
  718MOL0     H96878   2.034  10.161   3.004 -0.5519 -0.5784  0.2658
  718MOL0     H96879   2.225  10.130   2.823  0.0079 -3.5193 -1.8833
  718MOL0     H96880   2.263  10.137   2.995 -0.7209  1.2865 -0.0780
  718MOL0     H96881   2.431   9.941   3.064  0.5513 -1.0761  0.4535
  718MOL0     H96882   2.544   9.727   3.081 -3.0597 -0.4837  1.6018
  718MOL0     H96883   2.478   9.589   3.010 -0.7431  0.8461 -0.9824
  718MOL0     H96884   2.645   9.784   2.843 -1.0421  0.4618  0.4910
  718MOL0     H96885   2.709   9.635   2.925  2.5278 -0.4195 -4.2465
  718MOL0     H96886   2.548   9.674   2.691  0.3022  0.2353 -0.9719
  718MOL0     H96887   2.525   9.515   2.784  0.2092  0.9366  0.5501
  718MOL0     H96888   2.786   9.613   2.659  0.5071 -0.9750 -0.9309
  718MOL0     H96889   2.672   9.497   2.593 -1.7998  1.5153  0.0878
  718MOL0     H96890   2.937   9.437   2.537 -1.4072 -0.5663  0.2235
  718MOL0     H96891   3.169   9.345   2.538 -0.1079  0.6207  0.5245
  718MOL0     H96892   3.551   9.277   2.824  0.1005  1.5867 -0.9038
  718MOL0     H96893   3.789   9.166   2.819 -0.3979 -1.9965  0.4566
  718MOL0     H96894   4.022   9.172   2.711  0.0031 -0.6028  1.0691
  718MOL0     H96895   3.941   9.025   2.770 -4.0760 -0.7742 -2.3552
  718MOL0     H96896   4.201   9.024   2.745  0.3665 -2.5978  0.7178
  718MOL0     H96897   4.126   8.892   2.658  1.5032 -1.1976  0.1069
  718MOL0     H96898   4.147   8.980   2.451  2.1326 -1.9603  0.0437
  718MOL0     H96899   4.161   9.145   2.500 -2.7781 -2.0770 -2.4660
  718MOL0     H96900   4.361   8.974   2.420 -0.1981  0.9423 -0.8976
  718MOL0     H96901   4.355   8.929   2.590 -2.6811  0.1330  1.5531
  718MOL0     H96902   4.379   9.184   2.639 -3.3944  1.3628 -1.4645
  718MOL0     H96903   4.385   9.225   2.475  1.1959 -1.0210 -0.1829
  718MOL0     H96904   4.623   9.212   2.576  2.3388  0.0135 -3.0620
  718MOL0     H96905   4.579   9.047   2.633  1.2354  0.2754  0.8898
  718MOL0     H96906   4.545   9.104   2.347  0.4338  1.0737 -0.1822
  718MOL0     H96907   4.601   8.958   2.395  3.2403 -0.3497 -2.0513
  718MOL0     H96908   4.794   9.203   2.414  1.9819 -0.0034 -0.4557
  718MOL0     H96909   4.828   9.043   2.466  0.7712  1.8706  1.6008
  718MOL0     H96910   3.722   9.071   2.410  0.3461 -0.4366  1.4899
  718MOL0     H96911   3.486   9.148   2.427 -1.1715 -0.0739  1.1668
  718MOL0     H96912   3.142   9.247   2.949 -0.1763  0.5877  0.1790
  718MOL0     H96913   2.919   9.343   2.968 -1.5460  0.3511 -0.3631
  718MOL0     H96914   1.246  10.224   2.830 -1.7624  1.8927 -0.5195
  718MOL0     H96915   1.030  10.326   2.884 -0.6643 -0.4412 -1.9992
  718MOL0     H96916   0.583  10.129   3.015  2.7902  0.0609  2.5396
  718MOL0     H96917   0.380  10.154   3.028  1.7524 -0.3595 -1.5906
  718MOL0     H96918   0.159  10.162   3.180 -2.8411 -1.4188 -0.4926
  718MOL0     H96919   0.117  10.277   3.069 -1.5116 -4.1976  0.5129
  718MOL0     H96920  -0.071  10.252   3.235 -2.6398  1.8395  3.5355
  718MOL0     H96921  -0.001  10.407   3.258  3.0638  0.8634  0.4262
  718MOL0     H96922   0.097  10.345   3.460 -2.5872  0.9301  0.3228
  718MOL0     H96923   0.096  10.172   3.423 -1.6325 -1.3234 -3.0798
  718MOL0     H96924  -0.138  10.358   3.495  0.4097  0.3892  1.9977
  718MOL0     H96925  -0.159  10.194   3.432  1.7871  1.7300 -4.3587
  718MOL0     H96926  -0.056  10.123   3.836  1.5916  0.6259 -0.2457
  718MOL0     H96927   0.442  10.512   3.271 -3.8081 -1.3171  0.1012
  718MOL0     H96928   0.754  10.477   3.364 -1.2660  1.1142  1.3154
  718MOL0     H96929   0.788  10.526   3.195 -1.0190  0.1519 -0.9783
  718MOL0     H96930   0.663  10.605   3.283 -0.6956 -1.1723  0.5962
  719MOL0     O96931   6.089   5.263   2.458 -1.0123  0.0122  0.1396
  719MOL0     C96932   6.031   5.335   2.378  1.1798 -0.2001 -0.7614
  719MOL0     O96933   6.059   5.461   2.340 -0.4022  0.0681  0.3053
  719MOL0     C96934   6.174   5.523   2.385  0.1447 -0.0053 -1.2442
  719MOL0     C96935   6.235   5.506   2.511 -0.3849 -0.1511  0.7250
  719MOL0     C96936   6.357   5.580   2.540 -0.0249  0.1127 -0.9168
  719MOL0     C96937   6.395   5.686   2.463 -0.5168 -0.4820 -0.6188
  719MOL0     O96938   6.522   5.744   2.477 -1.2254 -0.1245 -0.5800
  719MOL0     C96939   6.568   5.772   2.609 -0.2204  0.3925  0.6787
  719MOL0     C96940   6.665   5.874   2.584  0.7491  0.4905 -0.0777
  719MOL0     C96941   6.780   5.842   2.495 -0.6787  0.8623  1.1610
  719MOL0     C96942   6.893   5.951   2.512  0.2891  0.0025  0.0740
  719MOL0     C96943   7.022   5.910   2.437 -0.6817 -0.7036  0.2568
  719MOL0     C96944   7.128   5.843   2.525  0.7278  0.4782 -0.3661
  719MOL0     C96945   7.260   5.819   2.446 -0.0133 -0.1447 -0.9680
  719MOL0     C96946   7.378   5.809   2.538 -0.5506  0.5944 -0.2759
  719MOL0     N96947   7.502   5.806   2.461 -0.4508 -0.0759  0.2451
  719MOL0     C96948   7.595   5.910   2.446 -0.0956  0.2398 -0.6100
  719MOL0     C96949   7.693   5.854   2.367 -0.8724  0.3215 -0.2748
  719MOL0     C96950   7.813   5.918   2.296  0.5870  1.2322  1.4410
  719MOL0     C96951   7.949   5.865   2.351 -0.2397  0.3018 -0.4191
  719MOL0     C96952   8.067   5.945   2.295 -0.3250  0.8605 -0.7774
  719MOL0     C96953   8.201   5.890   2.342 -0.2911  0.2752  0.2032
  719MOL0     O96954   8.305   5.986   2.298  0.2298  0.2389  0.9038
  719MOL0     C96955   8.436   5.964   2.336 -0.8179  0.2602  0.0960
  719MOL0     C96956   8.487   5.853   2.405 -0.0025  0.3402  0.9654
  719MOL0     C96957   8.622   5.844   2.425 -0.7959 -0.0212  0.6210
  719MOL0     C96958   8.707   5.960   2.384 -0.1055  0.5898  0.0709
  719MOL0     C96959   8.861   5.944   2.407 -0.8355 -0.1001 -0.0453
  719MOL0     O96960   8.902   5.826   2.462 -0.0930  0.5366  0.0093
  719MOL0     C96961   9.038   5.811   2.457  0.2209 -0.3326 -0.0836
  719MOL0     C96962   9.099   5.851   2.574 -0.0632 -0.9938  0.2398
  719MOL0     C96963   9.234   5.884   2.571 -0.1858 -0.0450  1.2585
  719MOL0     C96964   9.316   5.872   2.455  0.0191  0.0672 -0.4342
  719MOL0     O96965   9.455   5.892   2.470 -0.0031  0.0735  0.2892
  719MOL0     C96966   9.546   5.873   2.357 -0.3279 -0.1509  0.5663
  719MOL0     C96967   9.691   5.854   2.401 -0.1291  0.9323  0.2976
  719MOL0     C96968   9.785   5.847   2.281 -0.5828  0.3516 -0.2432
  719MOL0     C96969   9.930   5.864   2.332  0.1739  0.8164  0.1601
  719MOL0     C96970  10.021   5.827   2.213 -0.3636  0.2831  0.7051
  719MOL0     C96971  10.169   5.798   2.250  0.2445  0.2729 -0.7487
  719MOL0     C96972  10.250   5.749   2.121 -0.2573  0.3069 -0.4303
  719MOL0     C96973  10.370   5.677   2.181 -0.7501 -0.7304  0.3982
  719MOL0    Cl96974  10.322   5.510   2.217  0.4162  0.1902  0.0713
  719MOL0     C96975   9.252   5.830   2.339 -0.7416 -0.0920  0.6671
  719MOL0     C96976   9.113   5.802   2.338 -0.0732  0.0856  0.7421
  719MOL0     O96977   8.936   6.034   2.379 -0.1316  0.3175  0.8780
  719MOL0     C96978   8.656   6.068   2.325 -0.2440  0.5034  0.2946
  719MOL0     C96979   8.518   6.067   2.297 -0.4227  0.5688  0.1719
  719MOL0     N96980   7.667   5.722   2.355 -0.0494 -0.3399 -0.0300
  719MOL0     N96981   7.557   5.692   2.417  0.1809  0.2393  0.5105
  719MOL0     C96982   6.331   5.706   2.344  0.1291 -0.1206  0.1273
  719MOL0     C96983   6.220   5.625   2.306 -0.0369 -0.0816  0.4100
  719MOL0     C96984   5.908   5.278   2.322 -0.0295 -0.1438  0.2879
  719MOL0     C96985   5.845   5.182   2.397 -0.5702  0.8021  0.2291
  719MOL0     C96986   5.729   5.102   2.358 -0.0512 -0.1552 -0.1312
  719MOL0     C96987   5.679   5.125   2.228 -0.1291 -0.2329  0.8376
  719MOL0     O96988   5.564   5.064   2.192 -0.1450  0.1878 -0.9087
  719MOL0     C96989   5.538   5.040   2.056  0.4657  0.6178  1.0583
  719MOL0     C96990   5.433   4.935   2.044  0.3883  0.1733  0.0091
  719MOL0     C96991   5.422   4.883   1.894 -0.2374  0.3518 -0.9127
  719MOL0     C96992   5.380   4.978   1.788 -0.2948 -0.0638 -0.0699
  719MOL0     C96993   5.243   5.014   1.803  0.7297 -0.5341  0.0783
  719MOL0     C96994   5.128   5.050   1.815  0.5011  0.1426  0.5003
  719MOL0     C96995   5.738   5.232   2.155  0.1722  0.5391  0.1024
  719MOL0     C96996   5.851   5.302   2.197  0.7312  0.5934  0.4704
  719MOL0     C96997   5.896   5.400   2.104 -0.4264  0.1653 -0.8505
  719MOL0     H96998   6.197   5.429   2.578 -1.6366 -0.2325 -0.0263
  719MOL0     H96999   6.421   5.547   2.622  0.3020  0.8819 -0.8544
  719MOL0     H97000   6.492   5.804   2.681  0.1747 -1.6635  2.1231
  719MOL0     H97001   6.616   5.677   2.636  0.1945 -0.0420 -1.4183
  719MOL0     H97002   6.719   5.885   2.678  1.5149  0.4282 -0.5044
  719MOL0     H97003   6.632   5.974   2.552  0.0266 -0.7540 -3.6856
  719MOL0     H97004   6.746   5.854   2.392  1.9061 -0.7308  0.0158
  719MOL0     H97005   6.812   5.738   2.506 -0.6730  0.8331  0.8738
  719MOL0     H97006   6.852   6.038   2.461 -0.5340 -0.4670 -0.0883
  719MOL0     H97007   6.912   5.980   2.616 -0.1694  0.2358  0.0956
  719MOL0     H97008   6.990   5.854   2.349 -4.2484  1.4704 -0.0524
  719MOL0     H97009   7.070   6.002   2.401 -1.6705  0.6458  2.1880
  719MOL0     H97010   7.149   5.900   2.616  0.7118 -2.7361  1.8271
  719MOL0     H97011   7.083   5.748   2.553  2.9063 -0.0364  1.7895
  719MOL0     H97012   7.271   5.897   2.371  0.5311  1.0444  0.3169
  719MOL0     H97013   7.248   5.723   2.394 -0.7867  0.0794 -1.2239
  719MOL0     H97014   7.377   5.892   2.610 -0.2197 -2.6637  3.8230
  719MOL0     H97015   7.382   5.719   2.599 -3.0654  1.6234  1.5616
  719MOL0     H97016   7.579   6.015   2.466 -0.8346 -0.4944  3.4256
  719MOL0     H97017   7.802   5.884   2.193 -2.4167  1.5714  1.5830
  719MOL0     H97018   7.803   6.026   2.297 -0.3442  1.2001 -0.4852
  719MOL0     H97019   7.962   5.875   2.459  0.0228  1.8022 -0.5566
  719MOL0     H97020   7.955   5.758   2.331 -3.7191 -0.4892  1.8322
  719MOL0     H97021   8.065   6.047   2.334  0.5286 -0.5113  3.3533
  719MOL0     H97022   8.055   5.949   2.186  0.4133 -1.2524 -0.9727
  719MOL0     H97023   8.224   5.792   2.301 -0.6585 -0.1162  0.9182
  719MOL0     H97024   8.198   5.876   2.451  2.4387  0.2770  0.3455
  719MOL0     H97025   8.432   5.764   2.434  1.6283 -0.8827  0.4041
  719MOL0     H97026   8.661   5.754   2.472  1.1423 -0.4619 -1.6472
  719MOL0     H97027   9.042   5.862   2.666 -2.1952  0.1160 -1.1145
  719MOL0     H97028   9.287   5.915   2.661 -0.9584 -1.6953  2.3217
  719MOL0     H97029   9.517   5.782   2.304  2.5538 -1.7168  1.4517
  719MOL0     H97030   9.539   5.956   2.286  1.6933  0.8892  1.4875
  719MOL0     H97031   9.722   5.936   2.466 -0.8689  0.9032  0.6986
  719MOL0     H97032   9.694   5.754   2.445 -0.1817 -0.0272 -1.7705
  719MOL0     H97033   9.779   5.746   2.239 -0.5240 -0.1903  0.9981
  719MOL0     H97034   9.757   5.923   2.207 -2.9959 -0.5583 -0.3477
  719MOL0     H97035   9.942   5.796   2.417  1.5549  0.8904  0.0582
  719MOL0     H97036   9.945   5.966   2.369  0.4612  1.1445 -0.8379
  719MOL0     H97037  10.017   5.901   2.133  0.8502 -2.0400 -1.6802
  719MOL0     H97038   9.986   5.741   2.154  3.7709 -0.0532 -1.6707
  719MOL0     H97039  10.216   5.878   2.309  0.0129 -0.4727  0.4919
  719MOL0     H97040  10.166   5.719   2.325 -0.3712  0.2057 -0.8371
  719MOL0     H97041  10.279   5.839   2.066 -1.2684 -0.0551 -1.6174
  719MOL0     H97042  10.194   5.679   2.058 -0.0221 -1.7706  1.5304
  719MOL0     H97043  10.456   5.681   2.113 -2.5858  1.1038 -1.9976
  719MOL0     H97044  10.397   5.729   2.274  1.1633  1.4463 -1.2777
  719MOL0     H97045   9.313   5.828   2.249 -1.1682 -1.4422  0.3783
  719MOL0     H97046   9.060   5.770   2.249 -0.5058  2.2056  0.2018
  719MOL0     H97047   8.730   6.139   2.287  0.9214  1.8780  4.6136
  719MOL0     H97048   8.475   6.139   2.228  0.6758  0.5868 -0.5269
  719MOL0     H97049   6.376   5.778   2.276 -1.2990  1.1319  0.4743
  719MOL0     H97050   6.178   5.644   2.208 -0.4760 -2.2880  0.1219
  719MOL0     H97051   5.875   5.159   2.499 -1.4151 -1.6034  0.0205
  719MOL0     H97052   5.687   5.032   2.429 -0.7288  1.7546  1.4592
  719MOL0     H97053   5.625   5.007   1.999 -0.6958  4.0088 -3.2208
  719MOL0     H97054   5.499   5.130   2.009 -1.2646 -1.3976 -1.6169
  719MOL0     H97055   5.339   4.976   2.082  1.5835  2.3175  0.8551
  719MOL0     H97056   5.461   4.847   2.102  0.3226  1.1428  1.5780
  719MOL0     H97057   5.342   4.809   1.899 -0.0526  0.1869 -0.2199
  719MOL0     H97058   5.518   4.842   1.862 -0.7576 -0.7318 -1.1098
  719MOL0     H97059   5.451   5.062   1.783  0.7237 -0.9958 -2.9722
  719MOL0     H97060   5.395   4.936   1.688 -2.6446 -0.0363 -0.4846
  719MOL0     H97061   5.031   5.092   1.824  0.1478 -0.5358 -0.0193
  719MOL0     H97062   5.700   5.256   2.056 -1.8504  0.0041  0.6832
  719MOL0     H97063   5.839   5.419   2.012 -0.5648  1.8556 -0.4554
  719MOL0     H97064   5.892   5.497   2.155 -4.7072  0.6311 -1.6716
  719MOL0     H97065   5.993   5.375   2.062 -1.4019 -1.6812 -2.1409
  720MOL0     O97066   8.547   1.142   5.222  0.7593  0.5156 -0.3434
  720MOL0     C97067   8.581   1.200   5.319  0.0396  0.2662  0.5012
  720MOL0     O97068   8.592   1.336   5.328 -0.3219 -0.1498  0.2982
  720MOL0     C97069   8.525   1.415   5.236 -0.4210  0.4968  0.0983
  720MOL0     C97070   8.585   1.532   5.181  0.4169  0.9575 -0.1219
  720MOL0     C97071   8.514   1.612   5.078  0.2016  0.4886 -0.5898
  720MOL0     C97072   8.380   1.584   5.056 -0.0487 -0.1747  0.0696
  720MOL0     O97073   8.305   1.660   4.964 -0.6491 -0.0432 -0.5392
  720MOL0     C97074   8.380   1.747   4.871 -0.1636  0.4729  0.7886
  720MOL0     C97075   8.286   1.785   4.757  0.0663 -0.3035 -0.9279
  720MOL0     C97076   8.194   1.675   4.703  0.2894  0.3223  0.4372
  720MOL0     C97077   8.266   1.578   4.608 -0.4708 -0.6928 -0.4243
  720MOL0     C97078   8.266   1.431   4.663  0.2792  0.1885  0.8101
  720MOL0     C97079   8.125   1.370   4.642 -0.1841  0.5357  0.0090
  720MOL0     C97080   8.124   1.221   4.665 -0.1675  0.1533  0.5435
  720MOL0     C97081   8.109   1.168   4.810 -0.0535 -0.4904  0.3560
  720MOL0     N97082   7.975   1.179   4.869  0.3608 -0.4391 -0.6788
  720MOL0     C97083   7.951   1.283   4.961 -0.1285  0.0388  0.7148
  720MOL0     C97084   7.825   1.276   4.983 -0.1911 -0.0859  0.1390
  720MOL0     C97085   7.744   1.373   5.062 -0.6563  0.3996 -0.2417
  720MOL0     C97086   7.748   1.504   4.981  0.2135  0.1235  0.0168
  720MOL0     C97087   7.674   1.620   5.047 -0.4155 -0.6028 -0.3137
  720MOL0     C97088   7.750   1.687   5.167 -0.6616  0.2875  1.0416
  720MOL0     O97089   7.743   1.599   5.282  0.2676  0.2314 -0.1362
  720MOL0     C97090   7.789   1.654   5.405  1.0570  0.2858  0.1304
  720MOL0     C97091   7.859   1.769   5.426 -0.9153 -1.0408  0.3401
  720MOL0     C97092   7.909   1.802   5.552 -0.6579 -0.9235 -0.8553
  720MOL0     C97093   7.875   1.722   5.659 -0.7008  0.6107  0.3864
  720MOL0     C97094   7.906   1.765   5.795 -0.8309  0.0397  0.8709
  720MOL0     O97095   7.896   1.672   5.888  0.0219 -0.4942 -0.0325
  720MOL0     C97096   7.937   1.704   6.014  0.1350 -0.2240 -0.6151
  720MOL0     C97097   7.849   1.683   6.122 -0.9873 -1.1253  0.8837
  720MOL0     C97098   7.889   1.716   6.255 -0.0644 -0.7033  0.2835
  720MOL0     C97099   8.007   1.781   6.289 -0.1358  0.3179  0.2357
  720MOL0     O97100   8.037   1.807   6.418  0.3625 -0.2025 -0.6790
  720MOL0     C97101   7.933   1.874   6.494  0.4517  0.6409  0.5007
  720MOL0     C97102   7.893   2.001   6.422 -0.0832 -0.1121 -0.5726
  720MOL0     C97103   8.000   2.111   6.454  0.1105  0.5445 -0.0983
  720MOL0     C97104   7.988   2.258   6.408  0.5183  0.3052  0.0849
  720MOL0     C97105   8.086   2.340   6.476 -0.7805 -0.2847 -0.3095
  720MOL0     C97106   8.050   2.485   6.472 -0.1814 -0.4674  0.0344
  720MOL0     C97107   8.169   2.572   6.510 -0.7399 -1.4941  0.3937
  720MOL0     C97108   8.129   2.720   6.476  0.2502  0.6258 -0.6789
  720MOL0    Cl97109   8.174   2.773   6.310  0.2220  0.0718 -0.2204
  720MOL0     C97110   8.092   1.811   6.183 -0.2391 -0.7620  0.6509
  720MOL0     C97111   8.060   1.774   6.042  0.2295  0.0584  0.1800
  720MOL0     O97112   7.928   1.887   5.807  0.0558 -0.1344 -0.1501
  720MOL0     C97113   7.801   1.611   5.641  0.1698 -0.0746  0.1339
  720MOL0     C97114   7.765   1.570   5.511  0.2799 -1.1814 -0.0630
  720MOL0     N97115   7.772   1.167   4.922 -0.2153 -0.5456  0.4550
  720MOL0     N97116   7.864   1.103   4.851  0.5153  0.2505 -0.0232
  720MOL0     C97117   8.314   1.467   5.114 -0.1362 -0.0274 -0.8165
  720MOL0     C97118   8.395   1.380   5.190 -0.2686 -0.1010  0.2269
  720MOL0     C97119   8.637   1.116   5.435 -0.0008  0.0258 -0.1923
  720MOL0     C97120   8.729   1.182   5.520 -0.2959  0.2432 -1.0593
  720MOL0     C97121   8.796   1.111   5.617  0.3385 -0.2001  0.0868
  720MOL0     C97122   8.773   0.972   5.633 -0.4841  0.3363  0.1002
  720MOL0     O97123   8.843   0.917   5.737  0.1227 -0.1426  0.0233
  720MOL0     C97124   8.848   0.776   5.754  0.0694 -0.1142  0.1416
  720MOL0     C97125   8.931   0.711   5.650  0.5764  0.1889  0.0258
  720MOL0     C97126   9.067   0.760   5.651 -1.3584 -0.4243  0.3235
  720MOL0     C97127   9.159   0.687   5.545 -0.6920  0.7349  0.3191
  720MOL0     C97128   9.303   0.722   5.569  0.2670  0.3018  0.5931
  720MOL0     C97129   9.419   0.761   5.568 -0.0016  0.3612 -0.6430
  720MOL0     C97130   8.674   0.905   5.554 -0.8041 -0.4324 -0.1588
  720MOL0     C97131   8.609   0.986   5.453  0.6072  0.6081 -0.1158
  720MOL0     C97132   8.507   0.899   5.379  0.3229 -0.3329  0.0721
  720MOL0     H97133   8.687   1.547   5.214  0.1809  2.3059  0.0552
  720MOL0     H97134   8.563   1.702   5.042  0.0589  0.8442  0.0781
  720MOL0     H97135   8.415   1.841   4.914  0.0930  0.9552 -0.4512
  720MOL0     H97136   8.461   1.685   4.831 -0.9978 -0.7363  0.9128
  720MOL0     H97137   8.349   1.834   4.681  2.7977  0.0852  1.4349
  720MOL0     H97138   8.223   1.863   4.800 -0.9902 -2.1611  1.0534
  720MOL0     H97139   8.106   1.716   4.654 -1.1247  0.4344  2.9231
  720MOL0     H97140   8.148   1.621   4.785 -1.5144  2.2035  0.7401
  720MOL0     H97141   8.215   1.569   4.511  1.7662 -2.2964 -1.5468
  720MOL0     H97142   8.364   1.621   4.585  0.4763 -1.1640  2.3185
  720MOL0     H97143   8.346   1.369   4.621  1.0888  0.6583  1.6060
  720MOL0     H97144   8.295   1.433   4.769  2.0647 -0.5630  0.3857
  720MOL0     H97145   8.065   1.422   4.717  1.0037 -0.7460  1.9420
  720MOL0     H97146   8.082   1.394   4.545 -0.0104 -2.9759 -1.0752
  720MOL0     H97147   8.210   1.166   4.625 -0.9811 -1.4001  0.8423
  720MOL0     H97148   8.034   1.186   4.612 -0.4330  0.6821  0.6377
  720MOL0     H97149   8.145   1.065   4.816  0.4199 -0.2775  4.6473
  720MOL0     H97150   8.183   1.218   4.873 -0.1295  2.2807 -1.5923
  720MOL0     H97151   8.022   1.360   4.989 -0.3651  0.1003  1.1527
  720MOL0     H97152   7.640   1.337   5.066 -1.1786  1.3298 -3.2722
  720MOL0     H97153   7.778   1.384   5.165  1.9137  0.6022 -1.0592
  720MOL0     H97154   7.851   1.537   4.966 -0.2293  2.2300  1.3304
  720MOL0     H97155   7.698   1.485   4.885 -1.6229 -2.6810  1.3715
  720MOL0     H97156   7.570   1.603   5.075 -0.4278  0.9199  0.6609
  720MOL0     H97157   7.662   1.699   4.972 -1.3549 -0.6134 -0.1776
  720MOL0     H97158   7.701   1.783   5.187  0.3076  0.6220  1.9139
  720MOL0     H97159   7.857   1.709   5.156 -0.7979  0.5585  0.1423
  720MOL0     H97160   7.888   1.841   5.350  1.2068 -1.7642  0.3999
  720MOL0     H97161   7.969   1.890   5.570 -1.4112 -0.7084  0.8472
  720MOL0     H97162   7.761   1.624   6.097 -0.1670 -2.0911  0.1893
  720MOL0     H97163   7.821   1.673   6.328 -1.4217 -1.1784 -1.1913
  720MOL0     H97164   7.851   1.804   6.508 -1.4226  2.9305  1.4445
  720MOL0     H97165   7.962   1.897   6.597 -0.0389 -0.1582  0.8229
  720MOL0     H97166   7.894   1.991   6.313 -0.1011 -2.6153 -0.4133
  720MOL0     H97167   7.796   2.023   6.468  0.8058 -0.1861  1.4100
  720MOL0     H97168   8.008   2.110   6.563 -1.5252 -0.8992  0.0388
  720MOL0     H97169   8.099   2.089   6.413  1.6243  1.5608  2.7204
  720MOL0     H97170   7.887   2.295   6.429  1.1073  0.7408  2.4665
  720MOL0     H97171   7.998   2.263   6.299 -0.7542 -0.2108 -0.0798
  720MOL0     H97172   8.176   2.322   6.416 -1.8305  0.3505 -2.1176
  720MOL0     H97173   8.095   2.295   6.576 -2.0450 -2.8320 -1.2492
  720MOL0     H97174   8.028   2.517   6.370  2.8714 -1.8025 -1.1906
  720MOL0     H97175   7.964   2.502   6.537  1.1523  1.8281  1.3267
  720MOL0     H97176   8.268   2.547   6.470 -0.5590 -0.4375  0.1469
  720MOL0     H97177   8.200   2.565   6.615  3.3247  1.5532 -0.3334
  720MOL0     H97178   8.023   2.737   6.493  0.9192  3.6423  1.4890
  720MOL0     H97179   8.175   2.791   6.546  0.8030  0.1454 -0.5496
  720MOL0     H97180   8.188   1.861   6.197 -0.5673  0.3209 -0.7406
  720MOL0     H97181   8.127   1.794   5.959 -1.4840  3.0125 -0.6416
  720MOL0     H97182   7.752   1.540   5.708 -1.1034  0.6675  0.0210
  720MOL0     H97183   7.711   1.478   5.494  1.9436 -2.1261 -0.4610
  720MOL0     H97184   8.217   1.452   5.068 -0.3368 -1.5557  0.0520
  720MOL0     H97185   8.342   1.301   5.242 -2.2432  0.4225 -0.8839
  720MOL0     H97186   8.766   1.281   5.497 -0.5043  0.2719 -1.2719
  720MOL0     H97187   8.872   1.173   5.663  0.8343 -0.3300 -0.5353
  720MOL0     H97188   8.748   0.734   5.770  0.2226 -0.2661  0.7083
  720MOL0     H97189   8.890   0.754   5.853 -1.4032 -0.2366  0.7677
  720MOL0     H97190   8.890   0.727   5.550 -0.1084  1.0974  0.4307
  720MOL0     H97191   8.913   0.605   5.672 -0.8780  0.6175  1.0822
  720MOL0     H97192   9.110   0.740   5.750 -0.2524 -1.2503 -0.3045
  720MOL0     H97193   9.072   0.867   5.626  2.0046 -1.0174 -2.2864
  720MOL0     H97194   9.146   0.579   5.559 -1.1484  1.1479  4.2446
  720MOL0     H97195   9.123   0.714   5.445 -2.5077 -0.1089  0.7064
  720MOL0     H97196   9.525   0.778   5.560 -0.3736  2.6984 -1.2403
  720MOL0     H97197   8.655   0.799   5.566  1.1924 -0.7417  0.6648
  720MOL0     H97198   8.519   0.792   5.396  0.5421 -0.3824 -0.3714
  720MOL0     H97199   8.403   0.923   5.402  1.0285  2.1190  0.9877
  720MOL0     H97200   8.520   0.904   5.270  4.7820  0.3221  0.4119
  721MOL0     O97201   4.033  10.557   9.549  0.0765 -0.7822  0.0380
  721MOL0     C97202   3.936  10.617   9.507  0.8666  0.6504  0.1768
  721MOL0     O97203   3.941  10.735   9.437  0.3255  0.6560  0.6543
  721MOL0     C97204   4.063  10.784   9.414  0.1573  0.2994 -0.0032
  721MOL0     C97205   4.140  10.869   9.495 -1.0009  0.2859 -0.7147
  721MOL0     C97206   4.265  10.910   9.458 -0.3165  0.6480  0.1549
  721MOL0     C97207   4.321  10.867   9.335  0.2258  0.4324  0.4588
  721MOL0     O97208   4.451  10.907   9.297  0.4196 -0.1440  0.8119
  721MOL0     C97209   4.478  11.043   9.307  0.0750 -0.0647 -0.6717
  721MOL0     C97210   4.589  11.087   9.212 -0.2417  0.8283  0.5301
  721MOL0     C97211   4.726  11.066   9.260  0.5941  0.0506 -0.4277
  721MOL0     C97212   4.826  11.122   9.154 -0.3141 -0.0021 -0.2488
  721MOL0     C97213   4.963  11.085   9.192  0.6295 -0.5198 -0.3204
  721MOL0     C97214   5.060  11.168   9.111 -0.1194  0.1632 -0.7172
  721MOL0     C97215   5.212  11.128   9.127  0.4029  0.4489  0.3368
  721MOL0     C97216   5.233  10.998   9.052  0.4496  0.5520  0.4481
  721MOL0     N97217   5.377  10.970   9.043  0.0049  0.3427  0.0739
  721MOL0     C97218   5.441  10.854   9.067  0.9645 -0.7086 -0.1412
  721MOL0     C97219   5.570  10.869   9.031  0.5588 -0.3439 -1.1004
  721MOL0     C97220   5.671  10.758   9.045 -0.5686 -0.5834 -1.1274
  721MOL0     C97221   5.792  10.772   8.955  0.4354  0.4719  0.6938
  721MOL0     C97222   5.886  10.863   9.035  0.3769 -0.1566 -0.4335
  721MOL0     C97223   6.023  10.887   8.969 -0.0531 -0.9513 -0.0069
  721MOL0     O97224   6.072  10.762   8.927 -0.4977 -0.5660  0.5646
  721MOL0     C97225   6.183  10.771   8.849  0.1246 -0.9116 -0.0465
  721MOL0     C97226   6.304  10.838   8.887  0.1195 -0.3468 -0.3648
  721MOL0     C97227   6.406  10.867   8.796 -0.6769  0.9051 -0.0751
  721MOL0     C97228   6.395  10.813   8.663 -0.2414  0.3083 -0.1888
  721MOL0     C97229   6.503  10.837   8.568 -0.8603  0.7559 -0.4839
  721MOL0     O97230   6.502  10.771   8.454 -0.2764 -0.4387 -0.1430
  721MOL0     C97231   6.584  10.773   8.338 -0.2404  0.0564 -0.1398
  721MOL0     C97232   6.672  10.878   8.298  0.2594  1.1907  0.3071
  721MOL0     C97233   6.746  10.863   8.177 -0.6867 -0.1297 -1.5683
  721MOL0     C97234   6.743  10.740   8.110 -0.1081 -0.0896  0.4822
  721MOL0     O97235   6.812  10.699   7.995 -0.1226  0.1015  0.8935
  721MOL0     C97236   6.852  10.797   7.899 -0.7793 -0.4711  0.7083
  721MOL0     C97237   6.987  10.833   7.924 -0.7754 -0.0645  0.3738
  721MOL0     C97238   7.091  10.729   7.874  1.3107 -0.3553 -0.5023
  721MOL0     C97239   7.240  10.775   7.873 -0.0435 -0.5085  0.4156
  721MOL0     C97240   7.290  10.812   8.010  0.0905  0.6592  0.2057
  721MOL0     C97241   7.436  10.864   8.006  0.1524 -0.2280 -0.5944
  721MOL0     C97242   7.496  10.892   8.149  0.9858  0.4425  0.4841
  721MOL0     C97243   7.643  10.898   8.152  0.1306  0.0458 -0.2528
  721MOL0    Cl97244   7.713  11.002   8.025 -0.0858 -0.1438  0.2296
  721MOL0     C97245   6.639  10.647   8.136 -0.6073  0.0072 -0.4946
  721MOL0     C97246   6.571  10.662   8.256  0.3862  0.5789  0.0276
  721MOL0     O97247   6.594  10.914   8.600 -0.6299 -0.3976  0.4998
  721MOL0     C97248   6.281  10.741   8.621  1.3188  0.1142 -0.2565
  721MOL0     C97249   6.178  10.723   8.721 -0.1819 -0.6370  0.1339
  721MOL0     N97250   5.579  10.993   8.969 -0.4549  0.0600 -0.0316
  721MOL0     N97251   5.465  11.050   8.976  0.2104  0.7479 -0.4653
  721MOL0     C97252   4.251  10.774   9.258  0.7300  0.3155  0.8771
  721MOL0     C97253   4.119  10.738   9.294  0.1514  0.2679 -0.0510
  721MOL0     C97254   3.806  10.558   9.526 -0.1036  0.3758 -0.0896
  721MOL0     C97255   3.745  10.603   9.646 -0.1382  0.5357 -0.1164
  721MOL0     C97256   3.611  10.585   9.667 -0.1692 -0.2128 -1.0018
  721MOL0     C97257   3.543  10.495   9.579  0.6511 -0.7783  0.8376
  721MOL0     O97258   3.411  10.468   9.602 -0.2085 -0.8229 -0.5725
  721MOL0     C97259   3.390  10.360   9.691 -0.0871 -0.5429 -0.7600
  721MOL0     C97260   3.260  10.392   9.766 -0.4957  0.0910 -0.4296
  721MOL0     C97261   3.140  10.388   9.660 -0.6321  0.2692  0.8163
  721MOL0     C97262   2.999  10.399   9.713  0.9517 -0.1190 -0.6536
  721MOL0     C97263   2.995  10.476   9.835  0.3069 -0.6644 -0.0139
  721MOL0     C97264   2.997  10.529   9.941  0.6935  0.2289 -0.3360
  721MOL0     C97265   3.604  10.435   9.465 -0.5461 -0.1612  0.6375
  721MOL0     C97266   3.733  10.483   9.434 -0.0224 -0.6090 -0.0931
  721MOL0     C97267   3.800  10.439   9.307  1.1476  0.2506 -0.0362
  721MOL0     H97268   4.096  10.915   9.584  0.1212  0.7631 -0.3848
  721MOL0     H97269   4.321  10.975   9.524 -0.6607  0.8229  0.2753
  721MOL0     H97270   4.388  11.105   9.300 -1.5690 -2.3754 -0.9121
  721MOL0     H97271   4.511  11.060   9.410  0.1474  2.8223 -1.0694
  721MOL0     H97272   4.566  11.192   9.188  1.2754  1.3219  1.1343
  721MOL0     H97273   4.581  11.030   9.119 -1.1510 -0.0982  1.1653
  721MOL0     H97274   4.745  10.959   9.276  2.5732  0.2834 -0.9738
  721MOL0     H97275   4.741  11.119   9.354 -3.1808 -1.4056  1.2112
  721MOL0     H97276   4.814  11.079   9.054  0.4913  1.0749 -0.8366
  721MOL0     H97277   4.815  11.231   9.153  0.7786  0.1170 -0.2114
  721MOL0     H97278   4.981  11.118   9.295  2.4014  0.4761 -0.8886
  721MOL0     H97279   4.981  10.977   9.188 -2.2431 -1.1434  1.1187
  721MOL0     H97280   5.027  11.167   9.007 -2.3190  0.7586 -0.0613
  721MOL0     H97281   5.042  11.268   9.151 -2.1625 -0.7379  0.7608
  721MOL0     H97282   5.245  11.120   9.231  0.2677 -2.0250  0.2440
  721MOL0     H97283   5.275  11.206   9.083  1.1938 -0.3510  0.0237
  721MOL0     H97284   5.185  10.920   9.111  0.8367 -0.0777 -0.0593
  721MOL0     H97285   5.193  11.001   8.950  0.9534  0.0151  0.2256
  721MOL0     H97286   5.400  10.763   9.110 -1.2805  0.3879  0.1843
  721MOL0     H97287   5.689  10.746   9.152 -3.7453  0.3329 -0.3733
  721MOL0     H97288   5.624  10.661   9.029 -0.3907 -0.9953  0.6229
  721MOL0     H97289   5.836  10.673   8.936  0.7422  0.8227 -0.5083
  721MOL0     H97290   5.765  10.827   8.865  1.7770  2.4106  1.4130
  721MOL0     H97291   5.903  10.820   9.134  2.2746  0.1910 -0.5693
  721MOL0     H97292   5.845  10.964   9.046 -0.7970 -0.6603 -0.0770
  721MOL0     H97293   6.091  10.940   9.036  2.2354 -2.0589 -1.2968
  721MOL0     H97294   6.008  10.952   8.882  2.2943  1.6431  1.4106
  721MOL0     H97295   6.323  10.862   8.991  2.3761  2.1152 -1.2378
  721MOL0     H97296   6.497  10.916   8.829 -1.3720  1.7528  0.6255
  721MOL0     H97297   6.662  10.976   8.343 -0.2742 -0.4850  4.1935
  721MOL0     H97298   6.818  10.941   8.155  1.2460 -0.8961  1.4453
  721MOL0     H97299   6.855  10.760   7.796  1.1461 -1.4960  1.0799
  721MOL0     H97300   6.800  10.892   7.910 -0.2025  0.0944 -1.1061
  721MOL0     H97301   7.005  10.927   7.872 -3.3568 -1.2880 -3.0616
  721MOL0     H97302   7.012  10.855   8.028  0.5401  0.9812 -0.1345
  721MOL0     H97303   7.084  10.640   7.937  0.0357 -0.4645 -0.7794
  721MOL0     H97304   7.067  10.698   7.772  0.6939  0.9121 -0.7707
  721MOL0     H97305   7.257  10.861   7.808  0.5045 -1.4093 -0.6732
  721MOL0     H97306   7.293  10.684   7.843 -3.3139 -3.2024  2.1251
  721MOL0     H97307   7.280  10.714   8.057 -3.5504  0.4681 -0.6828
  721MOL0     H97308   7.226  10.885   8.060 -1.2362 -0.2930 -0.0592
  721MOL0     H97309   7.503  10.792   7.959  2.6200  1.3925  0.2340
  721MOL0     H97310   7.447  10.960   7.953 -0.8101  0.7640  0.9208
  721MOL0     H97311   7.471  10.809   8.216  0.6814  0.5139  0.4602
  721MOL0     H97312   7.451  10.987   8.178  0.8265  0.1817  1.1093
  721MOL0     H97313   7.664  10.949   8.247 -1.0665  0.6460 -0.2856
  721MOL0     H97314   7.683  10.796   8.146  0.7976  0.3951 -2.7963
  721MOL0     H97315   6.617  10.563   8.070 -0.5325  0.9681 -1.7919
  721MOL0     H97316   6.491  10.596   8.286 -0.1617  0.9699 -0.5636
  721MOL0     H97317   6.263  10.687   8.529  0.7930  0.1469 -0.1777
  721MOL0     H97318   6.095  10.661   8.688 -0.6094 -0.4851  0.8818
  721MOL0     H97319   4.299  10.741   9.166  1.3849  1.7121  0.7007
  721MOL0     H97320   4.069  10.688   9.212  0.3212 -0.3549  0.2105
  721MOL0     H97321   3.817  10.653   9.710  1.1406 -0.3718 -0.7990
  721MOL0     H97322   3.561  10.623   9.756  3.0640  1.5418  0.2415
  721MOL0     H97323   3.470  10.350   9.765 -0.5267 -0.9039 -0.3357
  721MOL0     H97324   3.384  10.268   9.632  0.1192 -0.8603 -0.2887
  721MOL0     H97325   3.277  10.470   9.840 -0.1535 -2.0254  1.8447
  721MOL0     H97326   3.244  10.302   9.827  0.1182  1.4058  1.7955
  721MOL0     H97327   3.142  10.298   9.598 -0.9288  0.4957  0.4744
  721MOL0     H97328   3.154  10.478   9.600  1.4759  0.9685  2.2205
  721MOL0     H97329   2.938  10.433   9.629 -0.6495  0.9306  0.8760
  721MOL0     H97330   2.971  10.298   9.745 -0.7477  0.5496  0.0655
  721MOL0     H97331   2.979  10.591  10.026 -0.9858 -1.2102  0.4241
  721MOL0     H97332   3.563  10.354   9.405  0.7783 -0.3039 -0.1280
  721MOL0     H97333   3.870  10.518   9.281 -0.3513  2.5346  2.4276
  721MOL0     H97334   3.842  10.339   9.326 -0.3865 -0.8516 -1.9888
  721MOL0     H97335   3.728  10.429   9.225  0.7907  0.8979  0.1953
  722MOL0     O97336   2.253   1.604   7.530 -0.0295 -0.5951  0.1734
  722MOL0     C97337   2.259   1.604   7.648  0.3483 -0.5698 -0.0731
  722MOL0     O97338   2.373   1.608   7.715  0.4275  0.1296 -0.3845
  722MOL0     C97339   2.483   1.645   7.644 -0.2484 -0.0152  0.2919
  722MOL0     C97340   2.494   1.779   7.593  1.1711  0.7700 -0.1290
  722MOL0     C97341   2.617   1.819   7.546  0.3882  0.4187  0.6738
  722MOL0     C97342   2.729   1.733   7.551  0.6198 -1.0315  0.0681
  722MOL0     O97343   2.849   1.749   7.492 -0.0275  0.2050 -0.4745
  722MOL0     C97344   2.868   1.846   7.390 -0.4489 -0.5483 -0.8408
  722MOL0     C97345   3.011   1.827   7.353  0.4761  0.3516 -0.1771
  722MOL0     C97346   3.073   1.923   7.245  0.0913  0.2868 -0.8987
  722MOL0     C97347   3.222   1.935   7.234 -0.8184  0.1544  0.2870
  722MOL0     C97348   3.266   2.011   7.115  0.6053  0.3354  0.0504
  722MOL0     C97349   3.217   2.154   7.109 -0.7183 -0.0633  0.5038
  722MOL0     C97350   3.213   2.231   6.977 -0.5600 -0.0885  0.2574
  722MOL0     C97351   3.202   2.378   6.989  1.7946 -0.4776 -0.6484
  722MOL0     N97352   3.294   2.447   6.904  0.0252 -0.0101 -0.4733
  722MOL0     C97353   3.437   2.464   6.901  1.8764  0.6882 -0.4374
  722MOL0     C97354   3.473   2.536   6.802 -0.7457 -0.4708 -0.0535
  722MOL0     C97355   3.610   2.584   6.775 -0.4275 -0.1530  0.1180
  722MOL0     C97356   3.656   2.532   6.632  0.2546 -0.5399  0.6441
  722MOL0     C97357   3.656   2.380   6.615  0.3955 -0.2555 -0.9901
  722MOL0     C97358   3.744   2.312   6.723  1.1649  0.5298  0.1495
  722MOL0     O97359   3.765   2.177   6.689  0.0480  0.2028 -0.5710
  722MOL0     C97360   3.664   2.083   6.711 -0.1625  0.4755 -0.4166
  722MOL0     C97361   3.551   2.101   6.787 -0.7342  0.0167  0.0698
  722MOL0     C97362   3.464   1.991   6.804 -0.3517  0.0830 -0.5132
  722MOL0     C97363   3.496   1.863   6.750 -0.0073  0.2847 -0.2275
  722MOL0     C97364   3.400   1.751   6.764  0.3172 -0.8105  0.2368
  722MOL0     O97365   3.300   1.769   6.855  0.0736 -0.5252  0.2049
  722MOL0     C97366   3.182   1.691   6.852  0.2220 -0.0542  0.6565
  722MOL0     C97367   3.118   1.669   6.726 -0.2257 -0.2754  0.3195
  722MOL0     C97368   2.994   1.615   6.719 -0.2876  0.1761  0.1520
  722MOL0     C97369   2.922   1.600   6.836  0.0998 -0.5914 -0.3357
  722MOL0     O97370   2.793   1.549   6.837  0.2921 -0.3817  0.1028
  722MOL0     C97371   2.717   1.552   6.718  0.3889  0.2205 -0.2626
  722MOL0     C97372   2.568   1.507   6.743 -0.4595 -0.2389  0.1992
  722MOL0     C97373   2.478   1.526   6.618  0.7593  1.0082 -0.5736
  722MOL0     C97374   2.336   1.491   6.653 -0.1689 -0.1465 -0.0253
  722MOL0     C97375   2.254   1.514   6.533  0.4762  0.6680  0.2700
  722MOL0     C97376   2.110   1.519   6.569  0.2408 -0.4598  0.2644
  722MOL0     C97377   2.036   1.576   6.450 -0.4340 -0.2747 -0.2280
  722MOL0     C97378   1.889   1.541   6.457 -0.3820 -0.6176 -0.3494
  722MOL0    Cl97379   1.799   1.637   6.588  0.1594  0.2672 -0.3600
  722MOL0     C97380   2.981   1.629   6.962  0.6563 -0.1924 -0.0047
  722MOL0     C97381   3.110   1.669   6.966  0.5126  0.8371 -0.5725
  722MOL0     O97382   3.411   1.655   6.681 -0.4055 -0.6884 -0.3137
  722MOL0     C97383   3.616   1.850   6.675 -0.6178 -0.3766 -0.3523
  722MOL0     C97384   3.700   1.956   6.659  0.5873  0.5832  1.6762
  722MOL0     N97385   3.363   2.547   6.726 -0.4728 -0.5746 -0.0737
  722MOL0     N97386   3.260   2.495   6.781  0.6035  0.0182 -0.3613
  722MOL0     C97387   2.721   1.611   7.611 -0.1893 -0.1921 -0.4239
  722MOL0     C97388   2.602   1.563   7.669 -0.5807 -0.2327 -0.1572
  722MOL0     C97389   2.129   1.603   7.736 -0.4956 -1.2406  0.4574
  722MOL0     C97390   2.127   1.581   7.874  0.1425 -0.1224  0.5331
  722MOL0     C97391   2.014   1.597   7.951 -0.1401  0.9346 -0.0327
  722MOL0     C97392   1.892   1.630   7.891  0.6335  0.4327  0.1970
  722MOL0     O97393   1.782   1.631   7.979  0.1911  0.8830  0.9681
  722MOL0     C97394   1.658   1.675   7.926  0.6048 -0.4744  0.4111
  722MOL0     C97395   1.555   1.651   8.031 -0.9621  0.6922 -0.1747
  722MOL0     C97396   1.566   1.759   8.140 -0.6373  0.6226  0.2393
  722MOL0     C97397   1.487   1.728   8.268  0.0290  0.6452 -0.5711
  722MOL0     C97398   1.347   1.705   8.241 -0.3801  0.3150  0.1737
  722MOL0     C97399   1.228   1.703   8.203  0.5223 -0.1270 -0.5401
  722MOL0     C97400   1.889   1.652   7.751 -0.1861  0.0668  0.5344
  722MOL0     C97401   2.001   1.638   7.676 -1.0690  0.5328 -0.4179
  722MOL0     C97402   1.982   1.673   7.531  0.4298  0.0869  0.4353
  722MOL0     H97403   2.399   1.832   7.591  2.3560  3.0609  1.0457
  722MOL0     H97404   2.623   1.916   7.497  1.7682 -0.2168 -0.5053
  722MOL0     H97405   2.807   1.820   7.302  0.4449 -3.0145 -0.8202
  722MOL0     H97406   2.855   1.951   7.416 -0.6416 -0.5291 -1.0087
  722MOL0     H97407   3.010   1.728   7.306  0.7986 -0.2462  1.0252
  722MOL0     H97408   3.074   1.824   7.443  0.1274  4.5660  0.4062
  722MOL0     H97409   3.044   2.019   7.289  0.6433 -0.3935  1.0379
  722MOL0     H97410   3.025   1.914   7.147 -1.7142 -2.7816  0.1197
  722MOL0     H97411   3.256   1.994   7.320  2.3831  3.2507 -2.7668
  722MOL0     H97412   3.276   1.841   7.244 -0.5733 -0.6517 -5.3216
  722MOL0     H97413   3.375   2.009   7.107  0.7616 -1.5242  1.8491
  722MOL0     H97414   3.224   1.961   7.027 -0.4098  1.3663 -0.0706
  722MOL0     H97415   3.118   2.164   7.154 -1.2020 -0.6064 -0.4033
  722MOL0     H97416   3.274   2.219   7.177  0.6088 -0.4221 -0.2189
  722MOL0     H97417   3.131   2.195   6.914 -0.0958 -0.0217 -0.3964
  722MOL0     H97418   3.306   2.206   6.925 -1.1839  1.1875 -1.5715
  722MOL0     H97419   3.099   2.408   6.967  2.1907  1.9627  0.5766
  722MOL0     H97420   3.210   2.409   7.093  0.9992 -1.1970 -0.3521
  722MOL0     H97421   3.507   2.435   6.978  1.9482  0.8179 -0.4531
  722MOL0     H97422   3.604   2.693   6.782 -1.4175 -0.2593  1.3480
  722MOL0     H97423   3.681   2.543   6.848  0.3585 -1.2116 -1.1865
  722MOL0     H97424   3.586   2.578   6.562  1.2364  0.5152  0.3306
  722MOL0     H97425   3.753   2.571   6.599 -0.8415  1.9676  0.2035
  722MOL0     H97426   3.703   2.350   6.520  0.0214 -3.2027 -0.3341
  722MOL0     H97427   3.556   2.342   6.637 -0.1723  1.9956  0.6517
  722MOL0     H97428   3.709   2.317   6.827  1.7500 -0.0563  0.3854
  722MOL0     H97429   3.840   2.362   6.710  0.6806  1.0825 -1.5034
  722MOL0     H97430   3.520   2.188   6.844 -0.9823 -1.1655  1.8449
  722MOL0     H97431   3.375   1.988   6.867  1.2742 -2.0352  1.8753
  722MOL0     H97432   3.155   1.707   6.631  0.8621  0.6507  1.0781
  722MOL0     H97433   2.950   1.600   6.621  1.1049  0.2795 -0.5113
  722MOL0     H97434   2.723   1.651   6.672 -2.1831  1.0414  0.9480
  722MOL0     H97435   2.760   1.474   6.653  3.8321  2.7105 -1.2402
  722MOL0     H97436   2.576   1.400   6.764  1.8495 -0.6754 -2.3874
  722MOL0     H97437   2.522   1.555   6.830 -0.9317  0.0508 -0.2074
  722MOL0     H97438   2.483   1.631   6.587 -0.7445  2.1055  2.4663
  722MOL0     H97439   2.513   1.458   6.539  0.5919 -1.6177  1.4877
  722MOL0     H97440   2.295   1.550   6.736 -0.1351 -0.7191  0.4095
  722MOL0     H97441   2.327   1.390   6.693 -1.7551  0.0051  0.0578
  722MOL0     H97442   2.273   1.429   6.467 -0.0074 -0.7602  1.9054
  722MOL0     H97443   2.290   1.606   6.485  4.5538 -2.2064 -2.8661
  722MOL0     H97444   2.078   1.416   6.585  1.6795 -1.1560 -1.0202
  722MOL0     H97445   2.092   1.579   6.658 -0.3887  1.8868 -1.3224
  722MOL0     H97446   2.075   1.551   6.351  0.5948 -2.7855  0.7401
  722MOL0     H97447   2.033   1.685   6.459 -0.9889 -0.3041 -0.0304
  722MOL0     H97448   1.847   1.562   6.358 -1.3230  0.6738  0.2863
  722MOL0     H97449   1.872   1.434   6.475  0.6534 -0.1567  5.2614
  722MOL0     H97450   2.930   1.630   7.058  1.4829 -1.0332  0.4558
  722MOL0     H97451   3.155   1.695   7.061 -1.6948 -0.9765  1.0617
  722MOL0     H97452   3.632   1.763   6.611 -0.8647  1.7491 -3.5070
  722MOL0     H97453   3.785   1.949   6.591 -1.9659  0.0755 -1.7068
  722MOL0     H97454   2.808   1.547   7.618  0.2718  0.4196 -0.4110
  722MOL0     H97455   2.605   1.475   7.733 -4.0083 -1.3746 -1.3706
  722MOL0     H97456   2.228   1.571   7.913  0.7024 -0.4265 -0.9616
  722MOL0     H97457   2.029   1.584   8.057 -1.5869  0.9326  0.1916
  722MOL0     H97458   1.622   1.611   7.845 -1.7105 -1.8451  2.4021
  722MOL0     H97459   1.660   1.778   7.887 -2.8609 -0.8545 -1.2048
  722MOL0     H97460   1.566   1.552   8.078 -0.1575  1.3934  1.1743
  722MOL0     H97461   1.456   1.654   7.986  0.1891 -0.0639 -3.0312
  722MOL0     H97462   1.548   1.853   8.086 -1.4068 -1.1054 -2.7637
  722MOL0     H97463   1.665   1.764   8.186 -0.7393 -2.5297  1.0420
  722MOL0     H97464   1.537   1.644   8.316 -0.0503  1.4026  0.8907
  722MOL0     H97465   1.497   1.810   8.340  0.3640 -1.6455  2.1850
  722MOL0     H97466   1.125   1.687   8.180  0.4467 -4.7887  1.8913
  722MOL0     H97467   1.792   1.665   7.704 -0.4358 -0.1173  0.9923
  722MOL0     H97468   2.019   1.591   7.469 -1.8151 -0.3306 -0.4478
  722MOL0     H97469   1.878   1.691   7.503  0.9004 -0.2845 -1.7039
  722MOL0     H97470   2.030   1.766   7.501  0.4743 -0.7662 -2.3881
  723MOL0     O97471   3.980   8.666   7.792 -0.2007 -0.0505  0.3694
  723MOL0     C97472   3.971   8.553   7.744  0.2496  1.1495 -0.0484
  723MOL0     O97473   4.063   8.486   7.664  0.5424 -0.1202 -0.2708
  723MOL0     C97474   4.181   8.552   7.636  0.6871  0.1175 -0.5890
  723MOL0     C97475   4.269   8.590   7.741 -1.0345  0.0474  0.7578
  723MOL0     C97476   4.376   8.686   7.718  0.5710  0.7448  0.3829
  723MOL0     C97477   4.400   8.723   7.583 -0.2450  0.2213 -0.3410
  723MOL0     O97478   4.512   8.798   7.544 -0.3755  0.1834  0.3486
  723MOL0     C97479   4.580   8.890   7.626  0.4135  0.2432  0.0413
  723MOL0     C97480   4.670   8.994   7.551 -0.8870  0.0834 -0.6169
  723MOL0     C97481   4.606   9.066   7.433 -0.0971  0.5390 -1.6654
  723MOL0     C97482   4.699   9.159   7.364  0.0231 -0.4069  0.2302
  723MOL0     C97483   4.720   9.287   7.450  0.0239  0.2201  0.1502
  723MOL0     C97484   4.790   9.404   7.373  0.3025 -0.1842 -1.0390
  723MOL0     C97485   4.800   9.525   7.465 -0.3948 -0.8022  0.6187
  723MOL0     C97486   4.948   9.567   7.467  0.0425  0.3304  0.0929
  723MOL0     N97487   4.989   9.636   7.341 -0.3318 -0.4024  0.0273
  723MOL0     C97488   5.086   9.590   7.259 -1.2627  0.2688  1.1949
  723MOL0     C97489   5.077   9.677   7.154 -0.7877 -0.1247 -0.8678
  723MOL0     C97490   5.173   9.664   7.046  1.0643 -0.4142  0.2695
  723MOL0     C97491   5.294   9.746   7.083  0.7956 -0.1257  0.0419
  723MOL0     C97492   5.378   9.776   6.953  1.2720 -0.1501 -0.2561
  723MOL0     C97493   5.510   9.836   6.985  0.0485  0.2668 -0.7818
  723MOL0     O97494   5.591   9.855   6.864  0.4029 -0.3610 -0.4150
  723MOL0     C97495   5.727   9.881   6.883 -0.1956  0.5689  0.4828
  723MOL0     C97496   5.790   9.924   7.009 -0.3710 -0.5653  0.9805
  723MOL0     C97497   5.922   9.958   7.004 -0.0693  0.4181 -0.2536
  723MOL0     C97498   6.006   9.938   6.892 -0.5970 -0.0433 -0.7170
  723MOL0     C97499   6.156   9.976   6.889 -0.6561  0.5832  0.8081
  723MOL0     O97500   6.236   9.954   6.774 -0.7520 -0.0565  0.4287
  723MOL0     C97501   6.377   9.960   6.777 -0.2177 -0.6780  0.2315
  723MOL0     C97502   6.443   9.887   6.689  0.3268  0.1659  0.3432
  723MOL0     C97503   6.575   9.898   6.678 -1.1696 -0.0662  0.1485
  723MOL0     C97504   6.654   9.985   6.763 -0.7460  0.0590  0.0061
  723MOL0     O97505   6.787   9.978   6.744 -0.1702 -0.5543 -0.4391
  723MOL0     C97506   6.863  10.079   6.817 -0.2293  0.3509 -0.2067
  723MOL0     C97507   7.016  10.067   6.803  1.0661 -0.2826  0.6951
  723MOL0     C97508   7.090  10.186   6.867  0.2152  1.2076 -0.6330
  723MOL0     C97509   7.227  10.199   6.810  0.2894  0.6303  0.3177
  723MOL0     C97510   7.319  10.288   6.902 -0.6909 -0.6076  0.0411
  723MOL0     C97511   7.421  10.378   6.836 -0.2710 -0.1142  0.1727
  723MOL0     C97512   7.517  10.419   6.950 -0.0032  0.6136 -0.2863
  723MOL0     C97513   7.574  10.553   6.918  0.5133 -0.1492 -0.2845
  723MOL0    Cl97514   7.704  10.612   7.024  0.2477 -0.2425 -0.1520
  723MOL0     C97515   6.584  10.060   6.858  0.4953 -0.3694  0.1362
  723MOL0     C97516   6.448  10.050   6.850  0.3632  0.6021 -0.0549
  723MOL0     O97517   6.196  10.024   6.992 -0.1737  0.5915  0.1905
  723MOL0     C97518   5.944   9.893   6.775 -0.0739 -0.4053 -0.4299
  723MOL0     C97519   5.803   9.870   6.771  0.4027  0.0448  0.3067
  723MOL0     N97520   4.986   9.782   7.178  0.8464 -0.6741 -0.9700
  723MOL0     N97521   4.943   9.757   7.304 -0.2348 -0.3395 -0.0501
  723MOL0     C97522   4.317   8.682   7.480  0.7104 -0.1069  0.5070
  723MOL0     C97523   4.203   8.605   7.506  0.0160  0.2533 -0.2939
  723MOL0     C97524   3.845   8.482   7.769 -0.4902 -1.6595  1.2612
  723MOL0     C97525   3.831   8.417   7.889 -0.3242 -1.0666 -0.7772
  723MOL0     C97526   3.708   8.377   7.939  0.3809 -0.0178 -1.0517
  723MOL0     C97527   3.585   8.392   7.868  0.3513 -0.5554  0.3224
  723MOL0     O97528   3.474   8.324   7.910 -0.4419 -0.6307 -0.2600
  723MOL0     C97529   3.354   8.349   7.831  1.1804 -0.8258 -0.7963
  723MOL0     C97530   3.228   8.323   7.926 -0.1097  0.0103  0.1984
  723MOL0     C97531   3.107   8.378   7.861 -0.0054  1.2865  0.7745
  723MOL0     C97532   2.984   8.392   7.943  0.7377  0.0413 -0.3060
  723MOL0     C97533   2.942   8.262   7.994 -0.5019 -0.0946 -0.2032
  723MOL0     C97534   2.901   8.158   8.036  0.5918  0.1227  0.6323
  723MOL0     C97535   3.597   8.466   7.745 -0.3870 -0.2310  0.4335
  723MOL0     C97536   3.719   8.521   7.697 -0.4915  0.1632  0.3610
  723MOL0     C97537   3.722   8.604   7.576 -0.0838 -0.2753 -0.6139
  723MOL0     H97538   4.271   8.550   7.842 -1.0203 -1.5850  0.1445
  723MOL0     H97539   4.442   8.728   7.793 -0.6671  1.2138  1.2406
  723MOL0     H97540   4.508   8.950   7.683  1.0538  2.2239 -1.1278
  723MOL0     H97541   4.649   8.826   7.682  1.1718  1.6807  0.8015
  723MOL0     H97542   4.766   8.952   7.522 -0.1835  0.5550  0.9356
  723MOL0     H97543   4.695   9.073   7.622 -1.5708  2.3641 -2.7615
  723MOL0     H97544   4.515   9.125   7.451  0.3742  1.3037 -1.7394
  723MOL0     H97545   4.566   8.984   7.372 -2.2583  0.5484 -0.3681
  723MOL0     H97546   4.788   9.103   7.335  1.0187  0.4440  1.5835
  723MOL0     H97547   4.651   9.190   7.270  0.7213  0.3204  0.1040
  723MOL0     H97548   4.621   9.320   7.483 -0.4855 -1.6857  0.6883
  723MOL0     H97549   4.778   9.274   7.542 -0.8897  1.6969  0.9670
  723MOL0     H97550   4.887   9.376   7.331 -0.6646 -1.2208 -2.6878
  723MOL0     H97551   4.736   9.432   7.283 -1.0910 -0.2450 -0.2614
  723MOL0     H97552   4.762   9.504   7.566 -1.9726 -1.5000 -0.0889
  723MOL0     H97553   4.736   9.595   7.410  0.9995 -1.1970 -1.6023
  723MOL0     H97554   4.949   9.644   7.545  0.3285 -1.5584  2.0475
  723MOL0     H97555   5.021   9.489   7.488  2.1087  2.3746  0.9208
  723MOL0     H97556   5.150   9.504   7.276 -2.0522 -0.3874  0.9593
  723MOL0     H97557   5.200   9.560   7.027  0.5567 -0.3165 -1.0908
  723MOL0     H97558   5.121   9.699   6.956 -1.3101  2.3551  2.4954
  723MOL0     H97559   5.265   9.846   7.116 -0.2884 -0.9461  1.7670
  723MOL0     H97560   5.349   9.698   7.165 -0.1086  1.8689  1.9369
  723MOL0     H97561   5.322   9.838   6.882 -3.1001 -0.3790  2.5845
  723MOL0     H97562   5.396   9.681   6.902  2.1038 -0.3790  0.4428
  723MOL0     H97563   5.556   9.754   7.041 -1.4085 -0.3565 -0.4537
  723MOL0     H97564   5.509   9.930   7.041  0.7026  0.0541 -0.4017
  723MOL0     H97565   5.735   9.951   7.098 -0.5494 -0.2161  0.7634
  723MOL0     H97566   5.958   9.992   7.101  0.9369  0.7215 -0.7128
  723MOL0     H97567   6.373   9.813   6.651 -0.4924  1.2640 -0.3525
  723MOL0     H97568   6.625   9.829   6.610 -2.5430 -2.8380  1.7715
  723MOL0     H97569   6.841  10.177   6.773 -0.0384 -0.5460 -2.4695
  723MOL0     H97570   6.841  10.075   6.924 -0.7529  1.7838 -0.2403
  723MOL0     H97571   7.053   9.972   6.841 -3.0985 -2.1656  0.6445
  723MOL0     H97572   7.032  10.087   6.697 -0.2812  0.8875  0.6792
  723MOL0     H97573   7.034  10.277   6.844  0.6138  1.8853  0.9453
  723MOL0     H97574   7.098  10.178   6.975  3.0876 -0.3983 -0.8630
  723MOL0     H97575   7.218  10.252   6.714  1.2623  1.9475  0.9076
  723MOL0     H97576   7.270  10.101   6.789 -0.9180  0.0313  0.5956
  723MOL0     H97577   7.356  10.221   6.980  0.6280 -0.2013 -0.2066
  723MOL0     H97578   7.256  10.354   6.962 -0.6408 -0.8464  0.3601
  723MOL0     H97579   7.485  10.334   6.760  0.2722  1.0598 -0.0678
  723MOL0     H97580   7.365  10.460   6.790 -1.1650 -0.5133  0.5064
  723MOL0     H97581   7.593  10.344   6.973 -0.3655  0.6680  1.2043
  723MOL0     H97582   7.460  10.437   7.042  1.1519 -1.7202  0.9834
  723MOL0     H97583   7.618  10.552   6.818 -0.1129  0.2199 -0.5671
  723MOL0     H97584   7.486  10.618   6.921 -1.8533 -3.1567  2.0000
  723MOL0     H97585   6.629  10.131   6.927 -2.7021 -0.1063  2.1231
  723MOL0     H97586   6.391  10.121   6.909 -1.5349 -2.8224  2.6793
  723MOL0     H97587   6.008   9.890   6.687  3.4579  1.3601  1.8236
  723MOL0     H97588   5.764   9.828   6.679 -0.2532  2.3863 -0.5549
  723MOL0     H97589   4.334   8.724   7.382  0.3959  2.7501  1.5853
  723MOL0     H97590   4.143   8.559   7.428  0.5410 -3.2679  1.1998
  723MOL0     H97591   3.916   8.395   7.954 -1.8488 -0.6287  1.4466
  723MOL0     H97592   3.715   8.326   8.034 -1.5509  3.4996  1.2103
  723MOL0     H97593   3.353   8.279   7.748 -0.6223 -0.0944 -1.4395
  723MOL0     H97594   3.337   8.454   7.806 -0.2557  0.0233  3.0427
  723MOL0     H97595   3.236   8.370   8.024 -1.2873  2.5020 -0.8149
  723MOL0     H97596   3.226   8.217   7.953 -0.8089  0.1701  0.8028
  723MOL0     H97597   3.092   8.308   7.778  0.2729  0.3651  1.4870
  723MOL0     H97598   3.134   8.467   7.803 -3.2665  0.1151 -3.0461
  723MOL0     H97599   3.002   8.462   8.026  0.7883 -1.8418  1.3553
  723MOL0     H97600   2.911   8.435   7.874  0.2022  1.6608  1.1761
  723MOL0     H97601   2.877   8.067   8.088  2.1923  0.2630  1.6979
  723MOL0     H97602   3.517   8.467   7.671 -0.5555 -3.6446  0.4407
  723MOL0     H97603   3.619   8.639   7.567 -0.6677 -1.0461  2.1593
  723MOL0     H97604   3.792   8.687   7.580 -1.0367  0.5327  3.3985
  723MOL0     H97605   3.753   8.544   7.490 -1.9552 -2.4450  0.1102
  724MOL0     O97606  10.032  10.270   4.272 -0.6009 -0.4180 -0.6231
  724MOL0     C97607   9.992  10.305   4.383  0.1177  0.0556 -0.3549
  724MOL0     O97608  10.052  10.278   4.499 -0.1081 -0.0729  0.2428
  724MOL0     C97609  10.185  10.261   4.503 -0.4069 -0.2449 -0.4028
  724MOL0     C97610  10.243  10.148   4.558  0.1550 -0.5129  0.4771
  724MOL0     C97611  10.384  10.140   4.585 -0.0589 -0.3771 -0.2210
  724MOL0     C97612  10.462  10.255   4.561  0.3387 -1.2018 -0.4629
  724MOL0     O97613  10.588  10.264   4.600 -0.4430 -0.3288 -0.5971
  724MOL0     C97614  10.674  10.151   4.574  0.5501 -0.0362  0.1609
  724MOL0     C97615  10.814  10.206   4.559  0.9792  0.4208  0.6838
  724MOL0     C97616  10.880  10.229   4.692 -0.2486 -0.4546  0.8462
  724MOL0     C97617  11.017  10.288   4.685 -1.5696 -0.3102  0.0697
  724MOL0     C97618  11.121  10.185   4.649 -0.5427 -0.9129  0.1175
  724MOL0     C97619  11.245  10.251   4.596  0.6364 -0.4463 -0.6994
  724MOL0     C97620  11.363  10.151   4.575  0.1690 -0.5610 -0.0797
  724MOL0     C97621  11.472  10.234   4.524 -0.2993  1.1125 -0.4834
  724MOL0     N97622  11.597  10.159   4.530  0.0699 -0.4341 -0.0788
  724MOL0     C97623  11.655  10.107   4.640 -0.0178 -0.1386 -1.3330
  724MOL0     C97624  11.761  10.031   4.604 -0.1391 -0.4180  0.0954
  724MOL0     C97625  11.835   9.938   4.696 -0.6916 -0.1999 -0.1307
  724MOL0     C97626  11.835   9.794   4.664 -0.2667 -0.0343 -0.1017
  724MOL0     C97627  11.701   9.738   4.630  0.4746 -0.1780  0.4433
  724MOL0     C97628  11.593   9.751   4.736 -0.4156 -0.2163 -0.6075
  724MOL0     O97629  11.485   9.660   4.691  0.2056 -0.4248 -0.0613
  724MOL0     C97630  11.356   9.705   4.685 -0.5056 -1.0809 -0.3159
  724MOL0     C97631  11.266   9.638   4.608 -0.1581  0.1212 -0.0885
  724MOL0     C97632  11.129   9.672   4.624 -0.0788  0.1293 -1.3207
  724MOL0     C97633  11.082   9.772   4.709 -0.5374 -0.2537 -0.5026
  724MOL0     C97634  10.937   9.810   4.721  0.1133  0.4670  0.3523
  724MOL0     O97635  10.894   9.866   4.841  0.7431 -0.2783  0.9510
  724MOL0     C97636  10.761   9.894   4.864  0.2720  0.9705 -0.4309
  724MOL0     C97637  10.718  10.028   4.901 -0.1189 -0.1514 -0.3875
  724MOL0     C97638  10.577  10.045   4.923 -0.1801  0.5784 -1.1557
  724MOL0     C97639  10.488   9.935   4.927  0.7948 -0.0414  0.2059
  724MOL0     O97640  10.361   9.969   4.930 -0.3852  0.0775  0.2189
  724MOL0     C97641  10.263   9.874   4.882 -0.4597  0.0947  0.3098
  724MOL0     C97642  10.125   9.944   4.891 -0.2771 -0.8476  0.1817
  724MOL0     C97643  10.003   9.852   4.847 -0.6727 -0.4058  0.2292
  724MOL0     C97644   9.866   9.915   4.877  0.0067  0.1977  0.4756
  724MOL0     C97645   9.748   9.823   4.880 -0.0941 -0.7304 -0.1133
  724MOL0     C97646   9.616   9.898   4.914  0.0162  0.0436 -0.0919
  724MOL0     C97647   9.575   9.996   4.797 -0.7087 -0.6158  0.1760
  724MOL0     C97648   9.455   9.952   4.717  0.4556 -0.7196  0.1382
  724MOL0    Cl97649   9.459   9.781   4.682 -0.0468  0.6884  0.1797
  724MOL0     C97650  10.534   9.808   4.911 -0.6441  0.1013  0.3572
  724MOL0     C97651  10.669   9.791   4.880  0.1619  0.1530  0.2632
  724MOL0     O97652  10.865   9.792   4.626 -0.0410 -0.4785  0.1524
  724MOL0     C97653  11.176   9.841   4.779  0.2701 -0.5246 -0.5939
  724MOL0     C97654  11.307   9.799   4.769  0.2772  0.9086  0.1407
  724MOL0     N97655  11.769  10.055   4.460  0.0087  0.3567  0.4414
  724MOL0     N97656  11.677  10.142   4.427  0.0698 -0.0933 -0.4754
  724MOL0     C97657  10.409  10.365   4.501  0.7717  0.0456  0.8300
  724MOL0     C97658  10.277  10.366   4.464 -0.8868  0.5599  0.3375
  724MOL0     C97659   9.867  10.378   4.383 -0.5096  0.5225  0.0344
  724MOL0     C97660   9.845  10.475   4.291 -1.1741 -0.7967 -1.7166
  724MOL0     C97661   9.744  10.567   4.322  0.2213 -0.4230 -0.1330
  724MOL0     C97662   9.659  10.562   4.429  0.7917  0.0902 -0.0191
  724MOL0     O97663   9.558  10.647   4.456  0.0885 -0.2529 -0.1386
  724MOL0     C97664   9.512  10.739   4.356 -0.0505  0.1639 -1.5279
  724MOL0     C97665   9.405  10.661   4.275  0.7248  0.1875 -0.4827
  724MOL0     C97666   9.278  10.629   4.367 -0.5516 -0.3313  0.7024
  724MOL0     C97667   9.186  10.526   4.289  0.1992 -0.4630 -0.2436
  724MOL0     C97668   9.235  10.393   4.306 -0.1710 -0.3760  0.0180
  724MOL0     C97669   9.275  10.280   4.315  0.1090 -0.3284  0.0048
  724MOL0     C97670   9.674  10.453   4.506 -0.3701 -0.1372 -0.3206
  724MOL0     C97671   9.768  10.349   4.486  0.1659  0.2618  0.6802
  724MOL0     C97672   9.784  10.241   4.585 -0.2887 -0.6984  0.5162
  724MOL0     H97673  10.172  10.076   4.598  0.2766 -1.3390 -0.7534
  724MOL0     H97674  10.421  10.050   4.632  0.9154  0.5577  0.8434
  724MOL0     H97675  10.662  10.069   4.646  1.0790 -0.6236 -0.4106
  724MOL0     H97676  10.638  10.116   4.477  1.7633 -1.9359  0.3461
  724MOL0     H97677  10.803  10.302   4.508  0.6118 -0.5663 -1.1830
  724MOL0     H97678  10.867  10.143   4.487 -2.4937  1.4332 -3.1393
  724MOL0     H97679  10.896  10.130   4.736  0.7761 -1.4999 -1.6468
  724MOL0     H97680  10.810  10.284   4.755  0.4666  2.0844 -0.4527
  724MOL0     H97681  11.015  10.374   4.617 -1.1650  0.0308  0.4807
  724MOL0     H97682  11.045  10.322   4.785 -0.9981 -1.0346  0.1660
  724MOL0     H97683  11.151  10.131   4.740 -0.2099  1.1794  1.2974
  724MOL0     H97684  11.091  10.108   4.578  2.6719 -0.6926 -1.6689
  724MOL0     H97685  11.222  10.284   4.494 -1.5993  3.0330  0.7417
  724MOL0     H97686  11.283  10.325   4.666  3.3016 -2.9063  0.6949
  724MOL0     H97687  11.330  10.072   4.507 -3.0448 -0.0195  0.6425
  724MOL0     H97688  11.388  10.104   4.671 -1.4487  0.0295  0.6702
  724MOL0     H97689  11.447  10.268   4.423  0.7292  0.5581 -0.9359
  724MOL0     H97690  11.484  10.314   4.598  0.3028  1.7742 -1.2813
  724MOL0     H97691  11.616  10.113   4.741 -2.3911 -2.1882 -2.0087
  724MOL0     H97692  11.942   9.962   4.692 -0.0439 -2.7917 -0.2469
  724MOL0     H97693  11.796   9.963   4.796 -1.1137 -3.7750  0.7414
  724MOL0     H97694  11.883   9.790   4.566 -2.6029  2.7167 -1.5283
  724MOL0     H97695  11.891   9.732   4.734  1.2000  3.3630  2.0056
  724MOL0     H97696  11.711   9.634   4.598  0.9263  0.2074 -0.7226
  724MOL0     H97697  11.670   9.789   4.538  0.6460 -1.2774 -0.2466
  724MOL0     H97698  11.558   9.853   4.751  1.0666 -0.0527  2.4236
  724MOL0     H97699  11.628   9.713   4.832  1.2566 -0.3101 -1.2231
  724MOL0     H97700  11.287   9.550   4.548 -1.6067  0.0155 -0.4717
  724MOL0     H97701  11.069   9.604   4.565  1.5807 -1.6807 -1.0269
  724MOL0     H97702  10.780  10.114   4.922 -0.7926  0.4482 -0.8433
  724MOL0     H97703  10.538  10.144   4.942 -1.0112 -0.0777  0.9237
  724MOL0     H97704  10.282   9.838   4.780  0.3723  1.6111 -0.1090
  724MOL0     H97705  10.267   9.783   4.943  0.3332  0.4491  0.8146
  724MOL0     H97706  10.111   9.977   4.994 -0.3118  2.7380 -0.8498
  724MOL0     H97707  10.135  10.039   4.839 -0.0009 -1.4719 -0.9295
  724MOL0     H97708  10.006   9.817   4.743 -1.4840 -1.7058  0.6114
  724MOL0     H97709  10.011   9.761   4.908  0.3015  0.7281  1.8913
  724MOL0     H97710   9.857   9.985   4.793 -0.2300 -3.0047 -2.3770
  724MOL0     H97711   9.865   9.969   4.972  0.5090 -1.4294  1.4495
  724MOL0     H97712   9.775   9.744   4.950  0.4408 -2.5790 -2.2670
  724MOL0     H97713   9.728   9.769   4.787 -1.9466 -0.9205  0.3673
  724MOL0     H97714   9.538   9.825   4.938  0.9334  0.0150  3.2410
  724MOL0     H97715   9.619   9.953   5.008 -0.2305  1.0292 -0.6506
  724MOL0     H97716   9.659   9.995   4.728  2.3303 -1.5151  3.5395
  724MOL0     H97717   9.564  10.101   4.824 -0.3016  0.4925 -3.5552
  724MOL0     H97718   9.361   9.980   4.764 -0.0951  1.5834 -2.0843
  724MOL0     H97719   9.444  10.002   4.620 -0.1739  0.1959  0.6722
  724MOL0     H97720  10.477   9.717   4.925  0.8992 -1.0955 -0.8772
  724MOL0     H97721  10.708   9.692   4.860  2.4061  1.1116 -0.4259
  724MOL0     H97722  11.157   9.935   4.831  1.7840 -0.4745 -0.0792
  724MOL0     H97723  11.374   9.853   4.834  0.3241  2.4083 -1.0884
  724MOL0     H97724  10.470  10.452   4.479 -0.5830  0.7304 -0.3150
  724MOL0     H97725  10.245  10.458   4.415  0.5212 -0.8319 -3.6032
  724MOL0     H97726   9.904  10.474   4.200  1.0945 -2.5963 -0.3282
  724MOL0     H97727   9.737  10.645   4.247 -0.4538  1.8309  2.1338
  724MOL0     H97728   9.593  10.783   4.297 -0.4533 -0.4075 -2.5248
  724MOL0     H97729   9.463  10.823   4.407  0.5906  0.7262 -1.8243
  724MOL0     H97730   9.454  10.569   4.245  0.0688 -0.4550  0.3447
  724MOL0     H97731   9.364  10.716   4.190 -2.7579  0.0670  0.9372
  724MOL0     H97732   9.215  10.717   4.382 -2.0675 -1.4831  1.5368
  724MOL0     H97733   9.316  10.597   4.465 -1.3507 -1.3370  0.7095
  724MOL0     H97734   9.087  10.511   4.333 -0.4486 -2.9387 -2.2858
  724MOL0     H97735   9.171  10.557   4.185 -1.1767  1.5448  0.4905
  724MOL0     H97736   9.297  10.175   4.316  1.2603 -0.0973  0.0339
  724MOL0     H97737   9.623  10.439   4.601  0.1423 -1.0935 -0.1697
  724MOL0     H97738   9.811  10.143   4.547  0.7211  0.5047 -2.1043
  724MOL0     H97739   9.859  10.263   4.662  1.0456 -1.1356 -0.6277
  724MOL0     H97740   9.688  10.231   4.637 -0.8379  1.0416 -0.1015
  725MOL0     O97741   6.426   2.438  10.145 -0.0296  0.5993 -0.2263
  725MOL0     C97742   6.381   2.377  10.239  0.3728 -0.0646 -0.3292
  725MOL0     O97743   6.458   2.339  10.342  0.1781 -0.4175  0.2561
  725MOL0     C97744   6.588   2.373  10.350 -0.0927  0.0754  0.0640
  725MOL0     C97745   6.687   2.319  10.260  0.1446 -1.2476 -0.0822
  725MOL0     C97746   6.818   2.352  10.265  0.1540  0.1759  0.8751
  725MOL0     C97747   6.866   2.446  10.359  0.8434 -0.6532 -0.1769
  725MOL0     O97748   6.998   2.481  10.364  0.0406 -0.5701  0.1099
  725MOL0     C97749   7.086   2.496  10.258  0.2010  0.3010  0.1042
  725MOL0     C97750   7.224   2.515  10.310 -0.2702  0.6625 -0.0184
  725MOL0     C97751   7.316   2.561  10.198  0.0001 -0.1153 -0.3925
  725MOL0     C97752   7.461   2.509  10.219 -0.4691  0.5730  0.2453
  725MOL0     C97753   7.548   2.586  10.119  0.7450  0.0631  0.2137
  725MOL0     C97754   7.689   2.530  10.105  0.6830 -0.8188  0.1677
  725MOL0     C97755   7.754   2.601   9.981 -0.2335 -0.7586  0.8141
  725MOL0     C97756   7.911   2.584   9.976 -0.6618 -0.5872  0.1269
  725MOL0     N97757   7.978   2.618  10.098  0.2668 -0.1785 -0.2378
  725MOL0     C97758   7.991   2.744  10.146 -1.3592 -0.0516  0.1064
  725MOL0     C97759   8.082   2.740  10.249 -0.1202 -0.4184 -0.4905
  725MOL0     C97760   8.125   2.850  10.344  0.5853 -0.2152  0.6792
  725MOL0     C97761   8.276   2.880  10.335 -0.5132 -0.4346  0.5481
  725MOL0     C97762   8.318   3.004  10.422 -0.8617  0.0201 -0.3234
  725MOL0     C97763   8.435   2.969  10.507  0.3692 -0.5116  0.2894
  725MOL0     O97764   8.513   3.083  10.535 -0.2365 -0.0826  0.3153
  725MOL0     C97765   8.626   3.111  10.464  0.3612  0.2477  0.5606
  725MOL0     C97766   8.724   3.175  10.540 -0.5510 -0.1742  0.4458
  725MOL0     C97767   8.853   3.184  10.485 -0.1715 -0.2404  0.4314
  725MOL0     C97768   8.880   3.161  10.349  0.0223  0.2709 -0.0377
  725MOL0     C97769   9.023   3.177  10.313  1.1015  0.7801 -0.0421
  725MOL0     O97770   9.051   3.094  10.203  0.1046  0.5925  0.1478
  725MOL0     C97771   9.178   3.089  10.160  1.5739 -0.9987  0.4185
  725MOL0     C97772   9.206   3.139  10.031  0.3209  0.1811 -0.1635
  725MOL0     C97773   9.338   3.132   9.987 -0.4332  0.0821 -0.4277
  725MOL0     C97774   9.442   3.097  10.079 -0.0458  0.0140  0.4183
  725MOL0     O97775   9.567   3.090  10.023 -0.3154 -0.2739  0.3565
  725MOL0     C97776   9.622   3.216   9.974 -0.1041 -0.1943 -0.8228
  725MOL0     C97777   9.709   3.280  10.077 -0.2826  0.4956 -0.7057
  725MOL0     C97778   9.836   3.189  10.093  0.5531 -0.2542 -0.6777
  725MOL0     C97779   9.931   3.249  10.205 -0.4735  0.7467  0.1660
  725MOL0     C97780  10.044   3.152  10.231 -0.3751 -0.0260 -0.4047
  725MOL0     C97781  10.137   3.198  10.346  1.0273 -0.0575 -0.3298
  725MOL0     C97782  10.257   3.102  10.362  0.1787 -0.0028  0.8554
  725MOL0     C97783  10.363   3.139  10.470  0.8446  0.4938 -0.0601
  725MOL0    Cl97784  10.445   3.295  10.433  0.0694 -0.2565  0.1569
  725MOL0     C97785   9.411   3.058  10.212  0.1888 -0.5349 -0.3038
  725MOL0     C97786   9.273   3.047  10.246 -0.5614  0.1575 -0.1709
  725MOL0     O97787   9.103   3.233  10.381  0.2817 -0.1478 -0.4316
  725MOL0     C97788   8.776   3.107  10.267  0.4103  0.2337 -0.2908
  725MOL0     C97789   8.651   3.074  10.334  0.5354 -0.3126 -0.0953
  725MOL0     N97790   8.123   2.606  10.260  0.6536  0.2111 -1.0318
  725MOL0     N97791   8.049   2.538  10.178  0.1674 -0.0950 -0.1152
  725MOL0     C97792   6.779   2.481  10.465  0.0192  0.0117  0.3681
  725MOL0     C97793   6.643   2.436  10.457  0.1222 -0.4722 -1.0139
  725MOL0     C97794   6.234   2.331  10.241  0.1408 -0.2890 -0.2401
  725MOL0     C97795   6.186   2.263  10.360 -0.7673  1.4153  0.5083
  725MOL0     C97796   6.062   2.200  10.362 -0.6637  0.6246 -0.1776
  725MOL0     C97797   5.972   2.229  10.255  0.1558  0.1159 -0.2187
  725MOL0     O97798   5.842   2.187  10.247  0.1420  0.0739 -0.4765
  725MOL0     C97799   5.787   2.086  10.329  0.2115 -0.5884 -0.3283
  725MOL0     C97800   5.846   1.942  10.307  0.2937 -0.1632  0.8774
  725MOL0     C97801   5.780   1.847  10.212 -0.5205  0.1663 -0.0399
  725MOL0     C97802   5.745   1.917  10.085  0.4958  0.3204  0.7646
  725MOL0     C97803   5.658   1.827   9.999  0.2347  0.7443 -0.6663
  725MOL0     C97804   5.583   1.776   9.914  0.1233  0.7705 -0.7022
  725MOL0     C97805   6.015   2.297  10.144  0.3168  0.0175  1.1897
  725MOL0     C97806   6.141   2.341  10.131  0.0762 -0.1748  0.2933
  725MOL0     C97807   6.179   2.406  10.003  0.4980  0.0568  0.6176
  725MOL0     H97808   6.660   2.258  10.175  3.1980  0.6181 -2.6175
  725MOL0     H97809   6.881   2.301  10.192 -0.7312 -0.0594  0.2477
  725MOL0     H97810   7.086   2.405  10.197 -2.0964 -1.4511  2.4673
  725MOL0     H97811   7.033   2.574  10.202 -2.8595  0.3126  2.6868
  725MOL0     H97812   7.261   2.426  10.361  0.1269  0.6447 -0.3290
  725MOL0     H97813   7.219   2.604  10.374 -0.9284  0.6501 -0.0482
  725MOL0     H97814   7.331   2.667  10.218 -1.1726  0.0246 -0.2051
  725MOL0     H97815   7.275   2.546  10.098 -2.5739 -1.7132  0.8091
  725MOL0     H97816   7.494   2.521  10.323 -1.7094  3.1832  0.4188
  725MOL0     H97817   7.480   2.406  10.188 -3.1523  0.3346 -0.8719
  725MOL0     H97818   7.493   2.577  10.025  1.0728  0.5438 -0.0295
  725MOL0     H97819   7.546   2.690  10.150 -0.0657  0.3875 -0.8677
  725MOL0     H97820   7.735   2.544  10.203  0.3235 -0.8771  0.3451
  725MOL0     H97821   7.687   2.423  10.083  1.4254 -0.9424  0.6782
  725MOL0     H97822   7.731   2.708   9.984 -4.7716 -1.4198 -1.5999
  725MOL0     H97823   7.709   2.561   9.890  2.1771  0.3074 -0.9413
  725MOL0     H97824   7.923   2.475   9.972 -1.6703 -0.7829  1.6117
  725MOL0     H97825   7.953   2.641   9.893  2.2545 -1.7736  0.6501
  725MOL0     H97826   7.951   2.833  10.098 -0.6832 -0.2350 -0.8131
  725MOL0     H97827   8.074   2.940  10.310  0.6017  0.3982  2.2417
  725MOL0     H97828   8.095   2.816  10.443  0.3863 -3.5540 -0.3776
  725MOL0     H97829   8.333   2.788  10.354  1.6053  0.3962 -1.2823
  725MOL0     H97830   8.303   2.904  10.231 -1.5755  1.6670  0.7057
  725MOL0     H97831   8.245   3.037  10.496  0.9165 -0.8501  1.9658
  725MOL0     H97832   8.334   3.096  10.365  0.0722  0.5516  0.7513
  725MOL0     H97833   8.497   2.882  10.482 -0.7793 -0.9032 -1.2627
  725MOL0     H97834   8.387   2.933  10.599  1.5740 -1.5892  0.5391
  725MOL0     H97835   8.713   3.205  10.644 -0.2730 -0.7778  0.6521
  725MOL0     H97836   8.937   3.211  10.549 -0.6477  0.8916  0.6030
  725MOL0     H97837   9.125   3.175   9.968  0.5223 -1.8348 -1.6615
  725MOL0     H97838   9.361   3.145   9.881  0.0998  0.2584 -0.2960
  725MOL0     H97839   9.672   3.196   9.879  0.4273  0.8582 -0.7857
  725MOL0     H97840   9.548   3.291   9.946 -0.2788 -0.5808 -1.4075
  725MOL0     H97841   9.741   3.377  10.036  1.4631 -0.6254 -2.1722
  725MOL0     H97842   9.652   3.298  10.169 -0.0084 -1.4390 -0.1150
  725MOL0     H97843   9.801   3.091  10.127 -3.2604  1.0965 -0.2076
  725MOL0     H97844   9.895   3.182  10.001  1.3935  1.2439 -0.2929
  725MOL0     H97845   9.875   3.275  10.295 -0.5533  0.8913  0.0756
  725MOL0     H97846   9.975   3.342  10.167 -1.0488 -0.2008 -3.0625
  725MOL0     H97847  10.105   3.149  10.140  3.8375  2.2680  2.0454
  725MOL0     H97848  10.003   3.053  10.253  0.2965 -0.1724  0.2635
  725MOL0     H97849  10.178   3.298  10.325  0.6703  0.9080  3.0370
  725MOL0     H97850  10.084   3.208  10.441 -2.0723  0.4309 -1.9942
  725MOL0     H97851  10.316   3.111  10.270  2.3985 -1.6091  2.0178
  725MOL0     H97852  10.221   3.000  10.374  0.3359 -0.3771 -1.4192
  725MOL0     H97853  10.325   3.134  10.572  4.0136 -0.8275  1.1781
  725MOL0     H97854  10.447   3.069  10.469  2.7055  2.6287  0.1896
  725MOL0     H97855   9.491   3.036  10.283 -0.0679 -3.0109 -0.6840
  725MOL0     H97856   9.247   3.001  10.341 -1.0529  1.0474  0.1378
  725MOL0     H97857   8.810   3.084  10.166 -0.2942  1.4478 -0.8254
  725MOL0     H97858   8.578   3.024  10.272  1.8677 -0.2830 -1.7702
  725MOL0     H97859   6.818   2.531  10.554  0.8852 -0.3134  0.1820
  725MOL0     H97860   6.576   2.450  10.542  2.0683  4.6859  0.0287
  725MOL0     H97861   6.247   2.249  10.448 -0.2496  0.9712  0.0842
  725MOL0     H97862   6.034   2.151  10.455  2.1371 -0.2334  0.3015
  725MOL0     H97863   5.679   2.090  10.309  0.2106 -0.4105 -0.2937
  725MOL0     H97864   5.804   2.117  10.433 -1.9484 -1.4676  0.3485
  725MOL0     H97865   5.855   1.907  10.410 -0.7842  1.5034  1.5853
  725MOL0     H97866   5.945   1.956  10.263 -0.1884  0.9320  0.1005
  725MOL0     H97867   5.698   1.792  10.259 -0.5303 -1.7392 -2.1130
  725MOL0     H97868   5.843   1.761  10.188  0.1948  1.0840 -1.5814
  725MOL0     H97869   5.679   1.999  10.115 -1.6587 -0.9105 -0.3658
  725MOL0     H97870   5.833   1.945  10.027  1.4719 -2.5317  0.7031
  725MOL0     H97871   5.512   1.731   9.848 -0.9561  0.7397  0.4323
  725MOL0     H97872   5.944   2.311  10.063  0.0046  0.1526  1.4835
  725MOL0     H97873   6.201   2.509  10.032  1.4968  0.6640 -2.0016
  725MOL0     H97874   6.267   2.368   9.951  0.0783 -0.4940  0.3007
  725MOL0     H97875   6.102   2.409   9.924  2.3245  0.2673 -1.2506
  726MOL0     O97876   3.651   5.061   2.193  0.7073  0.3803 -0.7164
  726MOL0     C97877   3.699   5.145   2.269  0.8797 -0.4135  0.2497
  726MOL0     O97878   3.804   5.125   2.355 -0.5289 -0.5183  0.1635
  726MOL0     C97879   3.871   5.006   2.373 -0.0133 -0.0395 -0.1689
  726MOL0     C97880   3.872   4.906   2.267 -0.1853  0.4031 -0.0653
  726MOL0     C97881   3.932   4.782   2.285  0.7591  0.1312  0.4439
  726MOL0     C97882   3.992   4.756   2.411  0.2660  0.6930 -0.5498
  726MOL0     O97883   4.063   4.639   2.413  1.0124  0.3122 -0.5419
  726MOL0     C97884   4.151   4.613   2.524  0.0524 -0.0667  0.4074
  726MOL0     C97885   4.173   4.455   2.542  0.4456 -0.1490 -0.1500
  726MOL0     C97886   4.253   4.433   2.668 -0.0427  0.2030 -0.5681
  726MOL0     C97887   4.302   4.295   2.669  0.1799  0.3075  0.0934
  726MOL0     C97888   4.440   4.262   2.718  0.2998 -0.5422  0.0009
  726MOL0     C97889   4.450   4.292   2.876  0.6140  0.2004 -0.0653
  726MOL0     C97890   4.593   4.265   2.927  0.1291 -0.7794  0.5351
  726MOL0     C97891   4.573   4.244   3.080  0.7420 -0.2924 -0.0437
  726MOL0     N97892   4.703   4.226   3.150 -0.5552 -0.1693 -0.4890
  726MOL0     C97893   4.707   4.244   3.293 -0.7706  0.2653 -0.4837
  726MOL0     C97894   4.836   4.202   3.319  0.2312  0.4573  0.3465
  726MOL0     C97895   4.892   4.198   3.455 -0.7513  0.1991  0.7879
  726MOL0     C97896   4.984   4.318   3.483  0.7907  0.4123 -0.4127
  726MOL0     C97897   5.011   4.324   3.643  0.0061 -0.7140  0.4925
  726MOL0     C97898   5.125   4.416   3.691  0.7916  0.4128 -0.1353
  726MOL0     O97899   5.115   4.550   3.643  0.0465 -0.1871  0.0752
  726MOL0     C97900   5.213   4.625   3.704 -1.0839  0.7398  0.3216
  726MOL0     C97901   5.353   4.607   3.672 -0.0048 -0.5636  0.0872
  726MOL0     C97902   5.454   4.689   3.732  0.1469  0.3939  0.5532
  726MOL0     C97903   5.421   4.789   3.832 -0.3690  1.0801 -0.0687
  726MOL0     C97904   5.521   4.860   3.916  1.1013  0.2623 -0.1253
  726MOL0     O97905   5.651   4.846   3.886  0.4278  0.1096 -0.6564
  726MOL0     C97906   5.748   4.866   3.973 -0.3866  0.0961 -0.1455
  726MOL0     C97907   5.740   4.872   4.114 -0.1448 -0.4512  0.5196
  726MOL0     C97908   5.855   4.859   4.189  0.7918  0.9532 -0.5085
  726MOL0     C97909   5.981   4.836   4.126 -0.5958  0.2880 -0.7560
  726MOL0     O97910   6.099   4.806   4.193 -0.1844 -0.1201 -0.7253
  726MOL0     C97911   6.088   4.738   4.318  0.0385 -0.5390  0.1004
  726MOL0     C97912   6.225   4.687   4.358 -0.2517  0.9840  0.1245
  726MOL0     C97913   6.223   4.618   4.496  1.1614 -0.3906 -0.2446
  726MOL0     C97914   6.364   4.584   4.543 -0.0709  0.2547 -0.0236
  726MOL0     C97915   6.370   4.501   4.670 -0.4735  0.6798  0.8957
  726MOL0     C97916   6.515   4.478   4.709  0.3863  0.5774 -0.4294
  726MOL0     C97917   6.517   4.415   4.840 -0.2175  0.2195  0.0795
  726MOL0     C97918   6.625   4.321   4.872 -0.6142  0.7911 -0.1473
  726MOL0    Cl97919   6.621   4.291   5.047 -0.6211 -0.4681 -0.5424
  726MOL0     C97920   5.994   4.824   3.987 -0.7939  0.3600 -0.1116
  726MOL0     C97921   5.876   4.852   3.916  0.0486  0.5241 -0.3861
  726MOL0     O97922   5.467   4.916   4.010 -0.5552  0.0097 -0.1567
  726MOL0     C97923   5.285   4.818   3.849  0.3218  0.9028  0.0934
  726MOL0     C97924   5.188   4.733   3.785 -0.0648  0.0497 -0.7531
  726MOL0     N97925   4.906   4.169   3.203  0.5338  0.3980 -0.7859
  726MOL0     N97926   4.828   4.187   3.100 -0.1494  0.3849 -0.2226
  726MOL0     C97927   3.986   4.854   2.521  0.3514  0.0386  0.1114
  726MOL0     C97928   3.928   4.982   2.497  0.1294  0.2861 -0.0881
  726MOL0     C97929   3.625   5.277   2.277 -0.3385  0.8700 -0.1630
  726MOL0     C97930   3.492   5.276   2.240 -0.3563  0.1751  0.5741
  726MOL0     C97931   3.409   5.383   2.252 -0.5046 -0.9198 -0.9069
  726MOL0     C97932   3.456   5.507   2.307  0.0303  0.3667 -0.8236
  726MOL0     O97933   3.383   5.618   2.329 -0.8562  0.0534 -0.4535
  726MOL0     C97934   3.253   5.595   2.377 -0.5356 -0.3348  0.2669
  726MOL0     C97935   3.193   5.736   2.405  0.5083 -0.9015 -0.3090
  726MOL0     C97936   3.181   5.825   2.286 -0.5057  0.2609 -0.8896
  726MOL0     C97937   3.093   5.950   2.307 -0.2892 -1.1315  0.0163
  726MOL0     C97938   2.944   5.934   2.327 -0.5375  0.1061  0.0705
  726MOL0     C97939   2.822   5.927   2.330 -0.1024 -0.7790  0.1080
  726MOL0     C97940   3.596   5.517   2.337  0.2802  0.3601  0.0907
  726MOL0     C97941   3.682   5.398   2.320 -0.4817  0.5589  0.2062
  726MOL0     C97942   3.833   5.423   2.333  0.4214 -0.1118  0.1803
  726MOL0     H97943   3.836   4.925   2.167 -0.4073  2.1885  0.3255
  726MOL0     H97944   3.938   4.700   2.215  3.9462 -1.8403  2.7413
  726MOL0     H97945   4.244   4.667   2.508 -0.4185  0.2641 -1.4096
  726MOL0     H97946   4.096   4.645   2.613 -1.5967 -3.1240  0.6531
  726MOL0     H97947   4.217   4.418   2.449 -2.7862  0.0412 -1.8719
  726MOL0     H97948   4.075   4.407   2.546 -0.8811  2.4146  3.2070
  726MOL0     H97949   4.204   4.448   2.765  0.7388 -0.4309 -0.0508
  726MOL0     H97950   4.334   4.506   2.666  1.1916 -0.8210  2.9925
  726MOL0     H97951   4.232   4.237   2.729 -0.8449  1.8679  0.4571
  726MOL0     H97952   4.300   4.260   2.565  0.4735  1.9135 -0.4765
  726MOL0     H97953   4.454   4.156   2.694 -2.2401 -1.2096  1.1313
  726MOL0     H97954   4.507   4.328   2.662  0.2727  1.9577  2.6730
  726MOL0     H97955   4.422   4.393   2.905  0.8040  0.0870  0.5238
  726MOL0     H97956   4.377   4.223   2.920  2.1967  0.1633  2.7422
  726MOL0     H97957   4.668   4.342   2.914 -1.1972  0.7759  1.7359
  726MOL0     H97958   4.631   4.174   2.879 -0.9320 -0.2416 -1.4088
  726MOL0     H97959   4.502   4.317   3.120  1.9837  0.1445  1.4718
  726MOL0     H97960   4.516   4.152   3.096 -0.9805  0.7990  0.3754
  726MOL0     H97961   4.630   4.275   3.363 -1.5601 -1.7124 -0.3867
  726MOL0     H97962   4.815   4.179   3.530 -0.8119 -0.8699  0.4649
  726MOL0     H97963   4.953   4.107   3.456  0.4738  0.9410 -1.0074
  726MOL0     H97964   5.076   4.299   3.428  0.9520  0.5287 -0.1831
  726MOL0     H97965   4.937   4.414   3.460  0.8591  0.6152  0.2548
  726MOL0     H97966   5.041   4.225   3.679 -0.1694  0.1834  3.3478
  726MOL0     H97967   4.917   4.345   3.694 -2.1196  0.3745 -3.4697
  726MOL0     H97968   5.212   4.369   3.643  0.2454  2.5682 -3.5756
  726MOL0     H97969   5.136   4.420   3.800 -0.5450  1.0375 -0.0061
  726MOL0     H97970   5.369   4.534   3.593  0.5690  0.4508 -0.7665
  726MOL0     H97971   5.556   4.675   3.697  0.4507  2.4459  0.4611
  726MOL0     H97972   5.641   4.870   4.160  0.1212  2.4280  1.4271
  726MOL0     H97973   5.829   4.855   4.294  2.0213 -0.3402 -0.2228
  726MOL0     H97974   6.047   4.799   4.398 -2.1889 -2.0044  0.1649
  726MOL0     H97975   6.012   4.661   4.303  1.2428 -1.2124 -3.4009
  726MOL0     H97976   6.254   4.611   4.284  0.3396 -0.3240  1.6398
  726MOL0     H97977   6.291   4.773   4.365 -0.8407  1.2919  3.1217
  726MOL0     H97978   6.179   4.686   4.570  0.2346 -0.1869 -0.9661
  726MOL0     H97979   6.162   4.528   4.482  2.7294 -1.4069 -0.8273
  726MOL0     H97980   6.428   4.672   4.549  2.4863 -1.4989  0.2860
  726MOL0     H97981   6.415   4.529   4.463 -3.9372 -2.2454 -1.0499
  726MOL0     H97982   6.327   4.405   4.640  0.5659  0.6802 -0.7510
  726MOL0     H97983   6.312   4.542   4.753 -0.1029  0.2389  1.3749
  726MOL0     H97984   6.560   4.416   4.630  0.8290  2.2550 -1.5515
  726MOL0     H97985   6.564   4.575   4.708 -1.8663  1.7739 -1.3890
  726MOL0     H97986   6.428   4.352   4.853 -0.4891  1.0146  2.4169
  726MOL0     H97987   6.517   4.488   4.921  3.5947  2.0129 -1.2720
  726MOL0     H97988   6.621   4.235   4.804 -0.9931  0.9953 -0.3846
  726MOL0     H97989   6.720   4.368   4.845 -0.6146  0.0291 -1.6082
  726MOL0     H97990   6.091   4.802   3.944 -0.1873 -1.0143  1.8236
  726MOL0     H97991   5.879   4.822   3.811 -1.3656 -2.2801  0.2633
  726MOL0     H97992   5.244   4.894   3.914 -1.2927  1.9651 -2.0711
  726MOL0     H97993   5.084   4.758   3.804  0.1004  0.2024 -0.0315
  726MOL0     H97994   4.016   4.830   2.622 -0.4722 -3.3543 -0.3196
  726MOL0     H97995   3.921   5.032   2.592 -0.4327 -0.5469  0.3163
  726MOL0     H97996   3.449   5.182   2.206 -0.9339  2.0047 -4.8079
  726MOL0     H97997   3.303   5.375   2.228 -0.6556 -1.7112 -0.0500
  726MOL0     H97998   3.243   5.528   2.462 -0.7760 -2.0489 -1.0533
  726MOL0     H97999   3.193   5.555   2.295 -0.5677  0.4316 -0.0942
  726MOL0     H98000   3.255   5.788   2.479  1.5507 -0.9425 -1.1340
  726MOL0     H98001   3.089   5.723   2.437 -0.6879 -0.0807 -3.4538
  726MOL0     H98002   3.138   5.763   2.206  0.4155 -0.0749 -1.1383
  726MOL0     H98003   3.279   5.860   2.252 -0.4053  0.3067 -0.5620
  726MOL0     H98004   3.137   6.009   2.388  0.8909  0.3206 -1.6094
  726MOL0     H98005   3.099   6.009   2.215 -1.2846  0.2251  0.7796
  726MOL0     H98006   2.715   5.923   2.325 -0.1637  1.1723 -1.3334
  726MOL0     H98007   3.625   5.612   2.379 -0.4989 -0.5594  2.9198
  726MOL0     H98008   3.857   5.530   2.333  2.2523 -0.4777 -0.4592
  726MOL0     H98009   3.867   5.373   2.424  1.0839 -2.0527 -1.0513
  726MOL0     H98010   3.886   5.377   2.248 -0.9402  1.4349 -1.5919
  727MOL0     O98011   7.470   6.887   4.600 -0.4477 -0.8769 -0.1072
  727MOL0     C98012   7.440   6.821   4.692 -0.1322  0.2095 -0.1192
  727MOL0     O98013   7.524   6.771   4.789 -0.4378 -0.3765 -0.0842
  727MOL0     C98014   7.662   6.810   4.789 -0.0379  0.0203  0.3580
  727MOL0     C98015   7.700   6.942   4.757 -0.1784  0.0934  0.0748
  727MOL0     C98016   7.836   6.981   4.757 -0.1353 -0.3130 -0.0892
  727MOL0     C98017   7.939   6.882   4.772  0.5217 -0.6886  0.5879
  727MOL0     O98018   8.067   6.903   4.748 -0.5211  0.2035 -0.4354
  727MOL0     C98019   8.133   7.022   4.798 -0.1461  0.5325 -0.0830
  727MOL0     C98020   8.287   7.011   4.803 -0.3812 -0.3488 -0.5709
  727MOL0     C98021   8.360   6.933   4.688 -0.7833 -0.2334  0.0493
  727MOL0     C98022   8.506   6.992   4.679  0.1792 -0.5494  0.1901
  727MOL0     C98023   8.597   6.896   4.602  0.0149  0.1522 -0.0168
  727MOL0     C98024   8.738   6.957   4.589 -1.1712 -0.0559 -0.1500
  727MOL0     C98025   8.836   6.879   4.501 -0.3573 -1.1529  0.7359
  727MOL0     C98026   8.825   6.725   4.516 -0.7146  0.3279  0.3444
  727MOL0     N98027   8.942   6.669   4.450  0.4526  0.4430 -0.2723
  727MOL0     C98028   9.013   6.570   4.506 -0.6204 -0.0965  0.7156
  727MOL0     C98029   9.103   6.535   4.417  0.5830 -0.4111  0.6690
  727MOL0     C98030   9.223   6.453   4.427  0.1936 -0.1749  0.0535
  727MOL0     C98031   9.311   6.500   4.547 -0.4906  0.6627  0.7699
  727MOL0     C98032   9.324   6.656   4.555  0.4106  0.5381 -0.4511
  727MOL0     C98033   9.455   6.699   4.637 -0.6375 -0.1867  0.0914
  727MOL0     O98034   9.584   6.690   4.569 -0.1500  0.0512 -0.0226
  727MOL0     C98035   9.703   6.710   4.637  0.4393  0.4214 -0.8006
  727MOL0     C98036   9.729   6.799   4.741  0.0410  0.7232  0.0025
  727MOL0     C98037   9.849   6.801   4.810  0.5345  0.5803 -0.2188
  727MOL0     C98038   9.951   6.704   4.791 -0.0567  0.7657  0.3670
  727MOL0     C98039  10.076   6.713   4.873  0.6783  0.2941  0.4757
  727MOL0     O98040  10.165   6.608   4.848 -0.1410  0.6009  0.2226
  727MOL0     C98041  10.285   6.585   4.916 -0.6733 -0.8407 -1.0870
  727MOL0     C98042  10.342   6.460   4.906 -0.3280  0.0451 -0.2038
  727MOL0     C98043  10.453   6.424   4.975 -0.0340 -0.1146  0.1012
  727MOL0     C98044  10.525   6.511   5.045 -0.4178 -0.0475 -0.0181
  727MOL0     O98045  10.640   6.469   5.105 -0.3624 -0.1498  0.5894
  727MOL0     C98046  10.715   6.552   5.193 -0.3107 -0.8532  0.2963
  727MOL0     C98047  10.797   6.488   5.310 -0.3472  0.3452 -0.0960
  727MOL0     C98048  10.720   6.385   5.380  0.4181  0.3973 -0.2265
  727MOL0     C98049  10.646   6.434   5.504  0.2156 -0.1493  0.3176
  727MOL0     C98050  10.606   6.318   5.598  0.4108 -0.3685 -0.9697
  727MOL0     C98051  10.513   6.216   5.540  0.4752  0.7432 -0.7954
  727MOL0     C98052  10.517   6.077   5.620 -0.4870  0.5832  0.4545
  727MOL0     C98053  10.519   5.958   5.530  0.2277  1.2685 -0.6127
  727MOL0    Cl98054  10.660   5.936   5.427  0.3096  0.2573  0.0737
  727MOL0     C98055  10.491   6.649   5.037 -0.4943  0.4098  0.6753
  727MOL0     C98056  10.366   6.687   4.976 -0.6696  0.7333  0.7156
  727MOL0     O98057  10.095   6.813   4.944 -0.3740 -0.7068  0.3733
  727MOL0     C98058   9.921   6.603   4.696  0.2562 -0.3079  0.5163
  727MOL0     C98059   9.801   6.610   4.622  0.3803 -0.1751 -0.4559
  727MOL0     N98060   9.081   6.616   4.308 -0.9716 -0.2789  0.1315
  727MOL0     N98061   8.989   6.695   4.322 -0.1826 -0.6605 -0.5721
  727MOL0     C98062   7.903   6.751   4.801 -0.2500  0.9051 -0.0035
  727MOL0     C98063   7.769   6.720   4.821  0.7993  1.0094  0.2567
  727MOL0     C98064   7.291   6.782   4.710  0.0488 -0.4475 -0.3914
  727MOL0     C98065   7.238   6.760   4.843  0.0877 -1.0679 -0.6351
  727MOL0     C98066   7.104   6.727   4.867  0.5300 -0.7091  0.1020
  727MOL0     C98067   7.017   6.710   4.760 -0.1871  0.1504  0.9071
  727MOL0     O98068   6.886   6.702   4.788 -0.2155 -0.2996 -0.6378
  727MOL0     C98069   6.798   6.648   4.686  0.0597 -1.0427  0.3014
  727MOL0     C98070   6.664   6.656   4.754 -0.9600 -0.0092 -0.7987
  727MOL0     C98071   6.609   6.798   4.794  0.4731  0.0342 -0.2111
  727MOL0     C98072   6.564   6.891   4.678  0.7816  0.4310  0.3572
  727MOL0     C98073   6.456   6.820   4.617 -0.5226  0.0618  0.4148
  727MOL0     C98074   6.371   6.747   4.575  0.4869 -0.3331  0.5041
  727MOL0     C98075   7.070   6.705   4.632 -0.5595  0.5459  0.4055
  727MOL0     C98076   7.201   6.747   4.608 -0.0115 -0.0405  0.0820
  727MOL0     C98077   7.244   6.760   4.463  0.2432  0.6564 -1.0916
  727MOL0     H98078   7.622   7.016   4.742 -0.9384 -0.6140  0.4919
  727MOL0     H98079   7.866   7.083   4.736  0.7734 -0.7484 -0.9648
  727MOL0     H98080   8.120   7.095   4.718 -0.0136 -0.6276 -1.2038
  727MOL0     H98081   8.087   7.059   4.890 -0.5631  0.1620 -0.1399
  727MOL0     H98082   8.314   6.962   4.898 -0.0991 -1.1089 -1.0302
  727MOL0     H98083   8.331   7.111   4.798  0.6554 -0.8359 -1.9079
  727MOL0     H98084   8.306   6.959   4.596 -1.1640  1.4052  0.6922
  727MOL0     H98085   8.360   6.826   4.709 -0.2623  0.1559  2.2397
  727MOL0     H98086   8.499   7.084   4.621  3.5306 -0.0229  0.4283
  727MOL0     H98087   8.548   7.003   4.779  0.3988  1.1253 -0.0715
  727MOL0     H98088   8.613   6.802   4.656 -0.0251 -0.2575 -0.7072
  727MOL0     H98089   8.565   6.865   4.503 -2.2670 -1.1870  1.0645
  727MOL0     H98090   8.745   7.057   4.547  4.2812 -0.2061 -0.3328
  727MOL0     H98091   8.785   6.972   4.687  2.1409 -0.9269 -1.4769
  727MOL0     H98092   8.937   6.915   4.522 -0.2519  0.2818 -1.8282
  727MOL0     H98093   8.811   6.911   4.399  1.4500 -2.8453 -0.3349
  727MOL0     H98094   8.808   6.692   4.619 -0.3831  0.1419  0.3404
  727MOL0     H98095   8.735   6.699   4.460 -0.3080  0.9232 -0.6203
  727MOL0     H98096   9.010   6.525   4.605 -0.0177  2.2378  1.8554
  727MOL0     H98097   9.187   6.351   4.443  1.4029 -0.7220 -0.5896
  727MOL0     H98098   9.291   6.457   4.341  1.9570 -0.3710  1.3752
  727MOL0     H98099   9.267   6.463   4.641  1.2538 -3.0454  0.3213
  727MOL0     H98100   9.412   6.458   4.542 -0.5881  0.5622 -3.4320
  727MOL0     H98101   9.243   6.710   4.605 -2.4904 -1.0423 -3.0830
  727MOL0     H98102   9.325   6.703   4.456 -2.0793  2.7327  0.4200
  727MOL0     H98103   9.452   6.629   4.721  1.9950  0.2785  0.6678
  727MOL0     H98104   9.449   6.798   4.684  2.6423 -0.4852  1.4203
  727MOL0     H98105   9.661   6.881   4.762 -1.0245  0.7852 -3.1326
  727MOL0     H98106   9.861   6.885   4.877  1.7621 -0.4490  0.8993
  727MOL0     H98107  10.288   6.385   4.849 -4.2510  0.2682  2.8001
  727MOL0     H98108  10.488   6.321   4.974  3.5993  0.9669  1.1669
  727MOL0     H98109  10.775   6.610   5.123 -1.6502 -0.5461 -0.6416
  727MOL0     H98110  10.648   6.621   5.245  2.5337  3.6366 -1.4390
  727MOL0     H98111  10.880   6.446   5.252 -1.5589  1.1672 -2.5971
  727MOL0     H98112  10.848   6.556   5.377  0.3337  0.1919 -0.4520
  727MOL0     H98113  10.650   6.332   5.315  1.6348  1.0401 -2.1536
  727MOL0     H98114  10.784   6.302   5.412 -1.9435 -1.7069 -0.6935
  727MOL0     H98115  10.557   6.486   5.468 -1.6700 -2.7434  0.9487
  727MOL0     H98116  10.705   6.502   5.567 -2.7003 -0.4446  3.6539
  727MOL0     H98117  10.556   6.362   5.685  1.1861 -1.9739  0.3459
  727MOL0     H98118  10.694   6.272   5.644  0.2143  2.7676  3.1064
  727MOL0     H98119  10.414   6.257   5.522  0.5221  0.1318 -2.5840
  727MOL0     H98120  10.539   6.203   5.435  1.1941 -0.3472 -0.5040
  727MOL0     H98121  10.428   6.055   5.680 -0.4259  0.5548  0.5352
  727MOL0     H98122  10.606   6.088   5.683 -0.6173  2.7842  0.3302
  727MOL0     H98123  10.505   5.871   5.595 -0.3966  1.4170 -0.5359
  727MOL0     H98124  10.439   5.968   5.456  1.4613  1.3337 -1.9823
  727MOL0     H98125  10.563   6.720   5.073 -0.2139 -0.0157  0.9641
  727MOL0     H98126  10.345   6.792   4.959 -1.6075  0.1414 -2.6120
  727MOL0     H98127   9.986   6.517   4.681 -0.2070 -1.5242  4.3065
  727MOL0     H98128   9.788   6.527   4.553  1.8751 -1.7113  1.0182
  727MOL0     H98129   7.983   6.679   4.789 -0.3968  1.1208 -2.8994
  727MOL0     H98130   7.746   6.616   4.836  2.1039  0.7039  0.2229
  727MOL0     H98131   7.299   6.799   4.924  0.8716  0.7830 -2.0358
  727MOL0     H98132   7.064   6.715   4.968  0.6157 -0.2822  0.1906
  727MOL0     H98133   6.818   6.547   4.649  1.0038 -0.5517 -0.5717
  727MOL0     H98134   6.801   6.715   4.601 -1.2628  0.2549  1.2384
  727MOL0     H98135   6.673   6.599   4.846 -1.0129  0.5515 -0.4404
  727MOL0     H98136   6.593   6.594   4.698 -2.2458 -1.1691  1.9729
  727MOL0     H98137   6.685   6.851   4.851  0.1621  1.8916 -1.4335
  727MOL0     H98138   6.526   6.790   4.865 -0.6261 -1.0266 -1.5338
  727MOL0     H98139   6.537   6.988   4.721  3.1897 -0.1060  3.4355
  727MOL0     H98140   6.647   6.911   4.610  1.4952  0.7052  1.2808
  727MOL0     H98141   6.288   6.687   4.542  0.4943 -0.0526 -0.0473
  727MOL0     H98142   7.020   6.670   4.543  1.5239  1.0233 -1.0403
  727MOL0     H98143   7.311   6.676   4.442 -0.5862 -1.0693  2.2855
  727MOL0     H98144   7.159   6.736   4.398 -2.1967  0.8307  1.7514
  727MOL0     H98145   7.285   6.859   4.443 -0.1386  1.1143  0.2786
  728MOL0     O98146   0.964   6.286   7.141  0.3950 -0.5767 -0.5282
  728MOL0     C98147   0.977   6.231   7.036  0.2455 -0.2256  0.2241
  728MOL0     O98148   0.911   6.270   6.927  0.0872 -0.1110 -0.2083
  728MOL0     C98149   0.794   6.343   6.923 -0.4328 -0.0751 -0.4416
  728MOL0     C98150   0.695   6.344   7.018  0.3451 -0.1811 -0.0624
  728MOL0     C98151   0.585   6.421   7.009 -0.5719 -0.6961 -0.3133
  728MOL0     C98152   0.570   6.520   6.903 -0.3393  0.7521 -0.0903
  728MOL0     O98153   0.456   6.590   6.905 -0.4347  1.0176  0.3355
  728MOL0     C98154   0.448   6.702   6.817  0.2657  0.1636 -0.1098
  728MOL0     C98155   0.396   6.669   6.672 -0.4801 -0.5999  0.3064
  728MOL0     C98156   0.304   6.770   6.595 -0.2065 -0.2923  0.1106
  728MOL0     C98157   0.199   6.706   6.499 -0.6687 -0.1379 -1.5634
  728MOL0     C98158   0.145   6.797   6.391 -0.6367 -0.2889  0.4619
  728MOL0     C98159   0.031   6.898   6.429 -0.5601 -0.3910 -0.3740
  728MOL0     C98160  -0.002   7.005   6.328 -0.0073 -0.0404  0.7480
  728MOL0     C98161  -0.077   6.933   6.219  0.0473  1.5548 -0.4446
  728MOL0     N98162  -0.099   7.022   6.106 -0.1256  0.1519 -0.2108
  728MOL0     C98163  -0.003   7.047   6.014  0.0345 -0.4369  0.7778
  728MOL0     C98164  -0.059   7.139   5.932 -0.1657  0.4124  0.3865
  728MOL0     C98165   0.018   7.187   5.813 -0.1724 -0.3856  0.6659
  728MOL0     C98166   0.072   7.078   5.732 -1.4536  0.3546  0.1519
  728MOL0     C98167   0.186   7.130   5.651 -0.7964  0.4067  0.5926
  728MOL0     C98168   0.247   7.018   5.561 -1.0710  1.2255 -0.1497
  728MOL0     O98169   0.327   6.926   5.643  0.4642  0.4303  1.2054
  728MOL0     C98170   0.434   6.850   5.597  0.9627  0.6772  0.5594
  728MOL0     C98171   0.469   6.846   5.467 -0.0498 -0.1608  1.3018
  728MOL0     C98172   0.595   6.796   5.432 -0.3011 -0.7048  0.3216
  728MOL0     C98173   0.675   6.732   5.529 -0.7264  0.1271 -0.5149
  728MOL0     C98174   0.800   6.665   5.481 -1.2569 -1.2778 -0.1768
  728MOL0     O98175   0.880   6.614   5.580  0.0272 -0.3496  0.2825
  728MOL0     C98176   1.009   6.564   5.553 -0.0586  0.1523  0.1522
  728MOL0     C98177   1.094   6.588   5.449  0.4424  0.0035  0.1683
  728MOL0     C98178   1.223   6.541   5.437 -0.1194  0.0021  0.1138
  728MOL0     C98179   1.269   6.461   5.542  0.1101  0.0768 -0.4959
  728MOL0     O98180   1.392   6.401   5.546 -0.1959 -0.0771 -0.2673
  728MOL0     C98181   1.474   6.426   5.429  0.3504 -0.1544 -0.2492
  728MOL0     C98182   1.609   6.369   5.448 -1.0345 -0.2992  0.2350
  728MOL0     C98183   1.707   6.463   5.519  0.8446 -0.7868  0.2187
  728MOL0     C98184   1.848   6.403   5.512  0.9841  0.5380 -0.0556
  728MOL0     C98185   1.868   6.274   5.595 -0.2047  0.9407  0.3400
  728MOL0     C98186   2.020   6.235   5.615  0.5272  0.2085 -0.0521
  728MOL0     C98187   2.037   6.114   5.711  0.3632  0.7996  0.0071
  728MOL0     C98188   2.180   6.086   5.746 -0.0301 -0.1860  0.6260
  728MOL0    Cl98189   2.281   6.056   5.601  0.0701 -0.4857  0.0921
  728MOL0     C98190   1.188   6.434   5.653  0.4627 -0.1381  0.5259
  728MOL0     C98191   1.052   6.479   5.660 -0.9720 -0.7572 -0.2517
  728MOL0     O98192   0.823   6.670   5.362 -1.0652 -0.0534 -0.9790
  728MOL0     C98193   0.623   6.712   5.649  0.6799  0.0643 -0.4678
  728MOL0     C98194   0.511   6.779   5.693  0.3266 -0.0759  0.2568
  728MOL0     N98195  -0.176   7.174   5.981  0.1325  0.1870 -0.0175
  728MOL0     N98196  -0.197   7.100   6.085  0.9501 -0.0594  0.5432
  728MOL0     C98197   0.677   6.529   6.811  0.7914  0.3465 -0.5733
  728MOL0     C98198   0.791   6.446   6.823  0.2997  0.9122 -0.6007
  728MOL0     C98199   1.093   6.150   7.009 -0.5237  0.6300  0.1603
  728MOL0     C98200   1.151   6.146   6.882 -0.1218  0.4715 -0.3258
  728MOL0     C98201   1.275   6.091   6.857  1.2604 -0.9379 -0.1878
  728MOL0     C98202   1.348   6.048   6.957 -0.0983 -0.1886  0.0583
  728MOL0     O98203   1.478   6.011   6.938 -0.3523  0.2103 -0.9921
  728MOL0     C98204   1.550   6.074   6.821  0.9131  0.2059 -0.3878
  728MOL0     C98205   1.706   6.071   6.832  0.1095  0.0095  0.0439
  728MOL0     C98206   1.742   6.129   6.973  0.2316  0.0736  0.7735
  728MOL0     C98207   1.887   6.173   6.982  0.1323 -0.5168  0.5943
  728MOL0     C98208   1.977   6.060   6.963 -0.1079 -0.1888 -0.0411
  728MOL0     C98209   2.053   5.965   6.947 -0.0411 -0.1287 -0.0997
  728MOL0     C98210   1.294   6.036   7.084  0.0138  0.6895  0.5034
  728MOL0     C98211   1.169   6.088   7.111 -0.4251  0.5363 -0.4644
  728MOL0     C98212   1.110   6.067   7.251 -0.5929 -0.1458  1.3331
  728MOL0     H98213   0.678   6.267   7.092 -0.3480  0.4356  0.4336
  728MOL0     H98214   0.514   6.407   7.089  1.1873  0.3991  1.5263
  728MOL0     H98215   0.388   6.778   6.868 -0.3935  0.4341 -1.2552
  728MOL0     H98216   0.545   6.752   6.812  1.3526 -1.5678  1.9255
  728MOL0     H98217   0.342   6.574   6.679  0.7775 -1.2544  1.7046
  728MOL0     H98218   0.487   6.654   6.613  0.4511 -1.2042  1.8287
  728MOL0     H98219   0.373   6.833   6.538 -1.7568 -1.4221 -3.3192
  728MOL0     H98220   0.247   6.836   6.662 -1.5009 -1.2735  0.0306
  728MOL0     H98221   0.255   6.623   6.455 -0.8840 -0.1628 -1.7903
  728MOL0     H98222   0.119   6.663   6.560 -1.2255  2.7044 -0.1231
  728MOL0     H98223   0.231   6.845   6.343 -0.3761 -1.7625 -0.6015
  728MOL0     H98224   0.117   6.728   6.312 -1.3026  0.1497  0.3103
  728MOL0     H98225  -0.060   6.839   6.447 -1.5901  1.2624  0.0118
  728MOL0     H98226   0.046   6.949   6.525  0.4323 -0.3130 -0.5597
  728MOL0     H98227   0.092   7.038   6.281  0.2002 -0.0524  1.1556
  728MOL0     H98228  -0.062   7.086   6.370 -2.0009 -1.5098  0.8839
  728MOL0     H98229  -0.018   6.845   6.191 -2.9745 -1.3316  1.4774
  728MOL0     H98230  -0.174   6.894   6.253  0.0746  1.5123 -0.4133
  728MOL0     H98231   0.094   6.998   6.014 -0.1671 -0.8474 -0.3778
  728MOL0     H98232  -0.044   7.246   5.745  2.6132  0.2190 -1.5257
  728MOL0     H98233   0.102   7.248   5.846 -0.0659 -0.0195 -0.2647
  728MOL0     H98234   0.097   6.985   5.783 -4.1273 -0.2365  0.5575
  728MOL0     H98235  -0.011   7.038   5.673  0.1510 -2.2781 -0.4944
  728MOL0     H98236   0.268   7.146   5.722  0.9163  0.5109 -1.3240
  728MOL0     H98237   0.165   7.224   5.599  0.6053  0.1662 -0.4509
  728MOL0     H98238   0.307   7.083   5.496 -2.3852  1.6163 -1.0309
  728MOL0     H98239   0.167   6.965   5.510 -0.1038 -1.5020  1.0213
  728MOL0     H98240   0.413   6.908   5.398 -0.3994 -0.4098  1.3619
  728MOL0     H98241   0.621   6.794   5.327 -0.6387 -0.8095  0.2397
  728MOL0     H98242   1.066   6.668   5.381  0.6741  0.4690  0.6178
  728MOL0     H98243   1.277   6.568   5.347  0.9127  1.8046  1.2052
  728MOL0     H98244   1.424   6.378   5.344  1.1297 -1.3239 -0.0707
  728MOL0     H98245   1.484   6.533   5.409  0.5566  0.4617  2.6485
  728MOL0     H98246   1.597   6.271   5.496  0.1723 -0.7632 -0.3441
  728MOL0     H98247   1.652   6.360   5.347 -1.4016 -2.4857  0.2106
  728MOL0     H98248   1.713   6.557   5.464  0.1564 -0.4555  0.6920
  728MOL0     H98249   1.674   6.474   5.623  3.4353 -1.2204  1.1730
  728MOL0     H98250   1.921   6.478   5.545  1.0535 -0.0124  1.0872
  728MOL0     H98251   1.871   6.385   5.407  1.4940  0.0449  0.1316
  728MOL0     H98252   1.820   6.193   5.541  0.3733  1.3563 -0.8237
  728MOL0     H98253   1.812   6.292   5.687  0.3081 -2.5629  1.5015
  728MOL0     H98254   2.063   6.213   5.517 -0.7179 -0.4750 -0.4672
  728MOL0     H98255   2.076   6.321   5.653 -0.7792  2.4734 -2.8296
  728MOL0     H98256   1.994   6.022   5.670  0.4598  2.2411 -3.7688
  728MOL0     H98257   1.988   6.138   5.805 -0.1147  0.1292 -0.0620
  728MOL0     H98258   2.206   6.174   5.805 -2.7317  1.7202 -0.8219
  728MOL0     H98259   2.198   6.006   5.819  3.1227 -0.1026  0.1103
  728MOL0     H98260   1.227   6.367   5.729  1.5492  0.4088  0.4741
  728MOL0     H98261   0.999   6.466   5.754  0.3629 -2.3793  0.3148
  728MOL0     H98262   0.676   6.654   5.724  1.9796  2.3837  0.5277
  728MOL0     H98263   0.479   6.760   5.794  0.4544 -2.1381 -0.0524
  728MOL0     H98264   0.675   6.604   6.732 -1.4307 -0.3932 -1.2784
  728MOL0     H98265   0.870   6.453   6.749  0.5045 -1.7470 -0.7513
  728MOL0     H98266   1.105   6.202   6.801  0.4091 -0.4160 -1.2603
  728MOL0     H98267   1.299   6.085   6.752 -2.0602 -1.0472 -1.0541
  728MOL0     H98268   1.509   6.174   6.803  0.5773  0.3348  0.9712
  728MOL0     H98269   1.528   6.008   6.737 -0.0646 -0.5423  0.4171
  728MOL0     H98270   1.746   6.143   6.760 -0.4380  0.4169  0.1394
  728MOL0     H98271   1.751   5.973   6.814 -1.1764 -0.0804 -3.6877
  728MOL0     H98272   1.717   6.052   7.047  0.1652  0.7141  1.4268
  728MOL0     H98273   1.679   6.217   6.987  0.5185  0.5102 -0.5941
  728MOL0     H98274   1.921   6.238   6.901 -2.0904  0.5224  0.4261
  728MOL0     H98275   1.906   6.201   7.086 -1.5293 -0.6590  0.9578
  728MOL0     H98276   2.125   5.886   6.939 -1.3457 -1.5689  1.6529
  728MOL0     H98277   1.341   5.988   7.169 -1.7576  0.9436  1.6908
  728MOL0     H98278   1.002   6.054   7.238 -0.3325 -0.5903 -0.8009
  728MOL0     H98279   1.144   5.978   7.304 -0.2305  0.7147  2.6023
  728MOL0     H98280   1.127   6.156   7.313  0.1535  0.5697  0.1342
  729MOL0     O98281   3.489   9.083   5.324 -0.0510 -0.1919 -0.0854
  729MOL0     C98282   3.543   9.164   5.398 -0.2912 -0.0707  0.2809
  729MOL0     O98283   3.467   9.248   5.478 -0.2068 -0.1886 -0.1704
  729MOL0     C98284   3.330   9.240   5.469 -0.5879  0.0077  0.1602
  729MOL0     C98285   3.252   9.158   5.546  0.2683  0.0801  0.1650
  729MOL0     C98286   3.110   9.160   5.534 -0.3334  0.6906  0.0979
  729MOL0     C98287   3.043   9.258   5.461 -0.7296  0.2765  0.0624
  729MOL0     O98288   2.904   9.273   5.451 -1.0697 -0.6137  0.1811
  729MOL0     C98289   2.820   9.199   5.545  0.2169 -0.0329  0.1043
  729MOL0     C98290   2.671   9.249   5.553  0.1950  0.3628 -0.8259
  729MOL0     C98291   2.603   9.215   5.426 -0.6288  0.3982 -0.1556
  729MOL0     C98292   2.452   9.237   5.422  0.4711 -0.4516 -0.6013
  729MOL0     C98293   2.399   9.369   5.489  0.1677  0.3420  0.7453
  729MOL0     C98294   2.435   9.494   5.414 -0.0563  0.6582  0.3287
  729MOL0     C98295   2.393   9.620   5.491 -0.0312  0.5246 -0.8005
  729MOL0     C98296   2.431   9.749   5.413  0.0418  0.6399 -0.1393
  729MOL0     N98297   2.553   9.798   5.481 -0.4914 -0.4101  0.5152
  729MOL0     C98298   2.678   9.742   5.488 -0.1568  0.3818 -0.0630
  729MOL0     C98299   2.731   9.807   5.596  0.2795 -0.2139  0.3413
  729MOL0     C98300   2.873   9.779   5.659  0.8454 -0.2468  0.4817
  729MOL0     C98301   2.907   9.627   5.659  0.6282 -1.3045  0.5313
  729MOL0     C98302   3.011   9.591   5.760 -0.8280 -0.2208  0.1106
  729MOL0     C98303   3.155   9.577   5.704 -0.0256  0.2691  0.4714
  729MOL0     O98304   3.193   9.693   5.629 -0.2761  0.0846  0.5574
  729MOL0     C98305   3.283   9.775   5.693  0.1834 -0.0064  0.2710
  729MOL0     C98306   3.416   9.732   5.682  0.1149  0.5298 -0.4803
  729MOL0     C98307   3.517   9.798   5.746  0.2632  0.6251 -0.1538
  729MOL0     C98308   3.491   9.911   5.824 -0.1581  0.4011 -0.5305
  729MOL0     C98309   3.606   9.995   5.869  0.2952  0.8197 -0.0603
  729MOL0     O98310   3.578  10.073   5.974  0.0060 -0.5430  0.8125
  729MOL0     C98311   3.661  10.179   5.991  0.3909  0.1813 -0.4396
  729MOL0     C98312   3.664  10.285   5.900 -0.6316 -0.5795 -0.2132
  729MOL0     C98313   3.748  10.390   5.919 -0.3615 -0.4258  0.0193
  729MOL0     C98314   3.826  10.407   6.034 -0.7596 -0.1937  0.0842
  729MOL0     O98315   3.914  10.500   6.064 -0.9491 -0.1859 -0.2852
  729MOL0     C98316   3.966  10.578   5.952  0.3776 -0.5118 -1.0682
  729MOL0     C98317   4.072  10.668   5.995 -0.1769  0.8794  0.1760
  729MOL0     C98318   4.122  10.766   5.884 -1.6660 -0.1081 -0.2897
  729MOL0     C98319   4.261  10.828   5.922 -0.3888 -0.2961 -0.2009
  729MOL0     C98320   4.313  10.934   5.831 -0.7619 -1.1040  0.4360
  729MOL0     C98321   4.435  11.008   5.891 -0.0601 -0.2238  1.1749
  729MOL0     C98322   4.568  10.922   5.878  1.1643 -1.4739 -0.6494
  729MOL0     C98323   4.679  10.986   5.976  1.0901 -0.5424 -0.1576
  729MOL0    Cl98324   4.725  11.165   5.941  0.3203 -0.1427 -0.1845
  729MOL0     C98325   3.822  10.304   6.133  0.9593 -0.1921  0.1243
  729MOL0     C98326   3.730  10.200   6.107 -0.0413  0.7024  1.2302
  729MOL0     O98327   3.703  10.003   5.796  0.2385  0.3537 -0.5992
  729MOL0     C98328   3.357   9.952   5.839  0.4482 -0.3814  0.3500
  729MOL0     C98329   3.256   9.885   5.775  0.4834  0.0645  0.4705
  729MOL0     N98330   2.637   9.911   5.639 -0.5089  0.1284 -0.3215
  729MOL0     N98331   2.543   9.908   5.555  0.2881  0.1497  0.4342
  729MOL0     C98332   3.122   9.353   5.391 -0.1027 -0.0690 -0.2096
  729MOL0     C98333   3.258   9.337   5.384 -1.1822 -0.9355  0.4970
  729MOL0     C98334   3.685   9.191   5.409  0.0022 -0.0752 -0.1029
  729MOL0     C98335   3.735   9.251   5.523 -1.0408  0.3608 -0.0794
  729MOL0     C98336   3.868   9.257   5.551 -0.0990 -0.0211 -0.1972
  729MOL0     C98337   3.968   9.207   5.468  0.1748  0.4227  0.6878
  729MOL0     O98338   4.094   9.217   5.519 -0.5486  0.7011  0.5473
  729MOL0     C98339   4.203   9.167   5.435  0.7975  0.8901 -0.4658
  729MOL0     C98340   4.328   9.248   5.470  0.1636  0.4505  0.2284
  729MOL0     C98341   4.435   9.200   5.371  0.1840  0.0175  0.2469
  729MOL0     C98342   4.526   9.326   5.367 -0.3349  0.2452 -0.2731
  729MOL0     C98343   4.631   9.305   5.270  0.5008  0.0508  0.1830
  729MOL0     C98344   4.731   9.286   5.205  0.5841 -0.0167 -0.6583
  729MOL0     C98345   3.919   9.156   5.339 -0.6658 -0.9249 -0.1651
  729MOL0     C98346   3.780   9.152   5.311  0.1908 -0.0267  0.6410
  729MOL0     C98347   3.752   9.115   5.171 -0.2208  0.8640 -0.4872
  729MOL0     H98348   3.315   9.096   5.609  4.2493  3.3052 -0.1863
  729MOL0     H98349   3.056   9.084   5.589  1.6481  0.2660  1.5780
  729MOL0     H98350   2.819   9.093   5.518  0.5306 -0.2780  1.0172
  729MOL0     H98351   2.855   9.209   5.648 -3.0675  3.3244  1.0982
  729MOL0     H98352   2.672   9.358   5.568  1.5605  0.7232 -3.0787
  729MOL0     H98353   2.619   9.201   5.637 -1.7926  3.2856 -0.2216
  729MOL0     H98354   2.619   9.107   5.412  1.3290  0.8790 -2.3035
  729MOL0     H98355   2.649   9.276   5.347 -0.3766  1.1722  0.5765
  729MOL0     H98356   2.415   9.247   5.319 -0.5989  2.2756 -0.0383
  729MOL0     H98357   2.395   9.160   5.475 -1.9429 -0.2120 -2.6475
  729MOL0     H98358   2.291   9.361   5.475  0.4715  1.2622 -3.0850
  729MOL0     H98359   2.432   9.370   5.594 -1.1689 -2.3498  1.2878
  729MOL0     H98360   2.544   9.494   5.410  0.0236  0.6022  1.8090
  729MOL0     H98361   2.390   9.494   5.314  1.3988 -2.6669 -0.4522
  729MOL0     H98362   2.429   9.618   5.594 -1.1155  0.0217 -0.4173
  729MOL0     H98363   2.283   9.621   5.495 -0.0381  2.6352 -0.6798
  729MOL0     H98364   2.434   9.730   5.306 -0.4614 -1.2712  0.1462
  729MOL0     H98365   2.360   9.828   5.438 -0.5878 -0.6246  2.4225
  729MOL0     H98366   2.724   9.658   5.437 -1.5965 -1.7292  1.9096
  729MOL0     H98367   2.943   9.848   5.612 -2.4424  1.1392 -2.8288
  729MOL0     H98368   2.882   9.819   5.760  2.3470  1.0007 -0.1108
  729MOL0     H98369   2.818   9.567   5.680 -0.2062 -0.9349 -1.6773
  729MOL0     H98370   2.939   9.598   5.559 -1.0918 -0.4069 -0.3240
  729MOL0     H98371   2.987   9.496   5.809  4.7128 -1.8203  0.3894
  729MOL0     H98372   3.020   9.674   5.830  0.3977  1.6608 -2.1484
  729MOL0     H98373   3.148   9.497   5.630 -0.7045  0.9825 -0.2567
  729MOL0     H98374   3.218   9.552   5.790 -2.4542 -1.1491  1.9517
  729MOL0     H98375   3.447   9.656   5.611  0.2550 -0.7271  0.8829
  729MOL0     H98376   3.624   9.778   5.738  0.5085  0.0433  3.1338
  729MOL0     H98377   3.601  10.278   5.812  2.6883  1.7951 -3.0086
  729MOL0     H98378   3.763  10.466   5.842  1.7358 -1.3349 -0.5291
  729MOL0     H98379   4.002  10.525   5.864 -1.0221  0.3440 -2.1814
  729MOL0     H98380   3.886  10.649   5.929  0.8593  0.5288  0.2995
  729MOL0     H98381   4.037  10.722   6.083  0.7498  0.4421  0.8353
  729MOL0     H98382   4.156  10.604   6.025 -0.7810  0.8089  1.8191
  729MOL0     H98383   4.137  10.716   5.788 -0.2972 -0.0995 -0.0961
  729MOL0     H98384   4.046  10.844   5.880 -2.0020 -0.3284  1.0383
  729MOL0     H98385   4.325  10.739   5.917 -0.1245 -0.0495 -2.5872
  729MOL0     H98386   4.269  10.867   6.023  2.2014 -2.6003  0.6205
  729MOL0     H98387   4.226  11.000   5.823  1.0223  1.6541  2.0793
  729MOL0     H98388   4.328  10.909   5.725  0.5425 -3.7819  1.1659
  729MOL0     H98389   4.453  11.097   5.831  2.7811 -0.8481  0.9855
  729MOL0     H98390   4.417  11.041   5.994 -1.1128 -0.1464  0.9811
  729MOL0     H98391   4.594  10.919   5.772 -0.7571 -1.3651 -1.1648
  729MOL0     H98392   4.543  10.820   5.909 -0.3259 -0.9528 -0.0100
  729MOL0     H98393   4.652  10.992   6.082  1.7688  3.3784 -0.0671
  729MOL0     H98394   4.771  10.928   5.974  1.3752 -0.6512  4.9216
  729MOL0     H98395   3.863  10.311   6.233 -1.0522 -2.7501  1.2357
  729MOL0     H98396   3.727  10.118   6.179 -0.4319 -0.5257 -0.1493
  729MOL0     H98397   3.331  10.032   5.907  1.9820 -0.0605  0.5863
  729MOL0     H98398   3.153   9.909   5.797  0.3824 -1.1590  1.4638
  729MOL0     H98399   3.066   9.436   5.348 -2.5357 -1.9125 -0.8169
  729MOL0     H98400   3.307   9.421   5.337  1.3033 -2.7513 -0.3463
  729MOL0     H98401   3.672   9.295   5.600 -0.6302  2.3781 -0.8478
  729MOL0     H98402   3.897   9.308   5.642  1.1693  1.8785 -1.5790
  729MOL0     H98403   4.170   9.178   5.332  0.9107  2.3174 -0.3719
  729MOL0     H98404   4.219   9.061   5.459  1.6817  1.3570  1.2057
  729MOL0     H98405   4.370   9.241   5.571  1.5221  0.5693 -0.3021
  729MOL0     H98406   4.304   9.354   5.452 -0.6991 -0.2508 -3.4121
  729MOL0     H98407   4.392   9.191   5.271 -1.1174  0.8699  0.7120
  729MOL0     H98408   4.485   9.107   5.400 -2.2343 -0.4309  3.5963
  729MOL0     H98409   4.475   9.413   5.325  1.2498  0.7710 -1.1933
  729MOL0     H98410   4.562   9.348   5.468  0.1566  0.1443 -0.4205
  729MOL0     H98411   4.816   9.293   5.139  0.4407 -0.7650 -0.9295
  729MOL0     H98412   3.992   9.120   5.268 -1.5050 -0.3129 -1.3804
  729MOL0     H98413   3.648   9.124   5.138 -0.7997  0.4048  1.1358
  729MOL0     H98414   3.809   9.170   5.095  1.4475 -3.6707 -2.9317
  729MOL0     H98415   3.775   9.010   5.150 -1.7537  0.8774 -2.6045
  730MOL0     O98416   9.169   5.633   8.344  0.2701  0.3158  0.2290
  730MOL0     C98417   9.224   5.526   8.378  0.5880 -0.5934 -0.8583
  730MOL0     O98418   9.154   5.412   8.401  0.6813  0.7852 -0.4749
  730MOL0     C98419   9.014   5.416   8.399  0.9765  0.4245 -0.2133
  730MOL0     C98420   8.917   5.525   8.385  1.5844 -0.3103 -0.9756
  730MOL0     C98421   8.781   5.513   8.379  0.8200 -0.0565 -0.0573
  730MOL0     C98422   8.722   5.383   8.394  0.2822 -0.1921 -0.2943
  730MOL0     O98423   8.587   5.348   8.400  0.5777 -0.2549 -0.2885
  730MOL0     C98424   8.497   5.456   8.394 -0.0849 -0.6366 -0.0272
  730MOL0     C98425   8.358   5.395   8.383  0.6253 -1.5341  1.1364
  730MOL0     C98426   8.242   5.500   8.360 -0.2788  1.1471 -0.1058
  730MOL0     C98427   8.110   5.434   8.398  0.1484  0.0956  0.5939
  730MOL0     C98428   8.002   5.538   8.400  0.4179  0.2929  0.3640
  730MOL0     C98429   7.865   5.476   8.453  0.4771  0.9655  0.0629
  730MOL0     C98430   7.745   5.572   8.455 -0.2223  0.2694  0.3965
  730MOL0     C98431   7.619   5.498   8.493 -0.2256 -1.0881  0.7783
  730MOL0     N98432   7.511   5.600   8.499 -0.2647 -0.3207  0.5674
  730MOL0     C98433   7.388   5.581   8.557  0.7219 -0.0625  0.0906
  730MOL0     C98434   7.322   5.691   8.509  0.3649  0.0726  0.1188
  730MOL0     C98435   7.184   5.741   8.534 -0.2479  0.3010  0.8194
  730MOL0     C98436   7.146   5.758   8.676  0.2763  0.7878  1.4511
  730MOL0     C98437   7.194   5.897   8.729 -0.2044  0.1022  0.2812
  730MOL0     C98438   7.156   5.914   8.879  0.0233 -0.0503 -0.2644
  730MOL0     O98439   7.231   5.829   8.965 -0.7721  0.4459 -0.4279
  730MOL0     C98440   7.369   5.798   8.931 -0.1849  0.3762 -0.3204
  730MOL0     C98441   7.413   5.664   8.922 -0.1539 -1.0895  1.0286
  730MOL0     C98442   7.553   5.631   8.892  0.2295 -0.4832  0.3734
  730MOL0     C98443   7.641   5.746   8.885 -0.1067 -0.0569  0.0559
  730MOL0     C98444   7.784   5.725   8.872 -0.6771 -0.2210 -0.9823
  730MOL0     O98445   7.871   5.842   8.868 -0.3807  0.5735 -0.1677
  730MOL0     C98446   8.006   5.829   8.835  0.0290  1.2326  0.2272
  730MOL0     C98447   8.054   5.746   8.735 -0.7686  0.4536 -0.2016
  730MOL0     C98448   8.195   5.751   8.697  1.4408  0.1284 -0.3721
  730MOL0     C98449   8.291   5.829   8.770  0.7696 -0.1036 -0.1231
  730MOL0     O98450   8.430   5.832   8.744 -0.1453 -0.4086  0.6427
  730MOL0     C98451   8.481   5.734   8.646  0.1273  0.6391 -0.5993
  730MOL0     C98452   8.628   5.773   8.612 -0.2054 -1.0374  0.0603
  730MOL0     C98453   8.634   5.859   8.492 -1.2798 -0.1399 -0.0918
  730MOL0     C98454   8.769   5.923   8.475 -0.1752 -0.1228 -0.4315
  730MOL0     C98455   8.790   5.962   8.328 -0.3856  0.0418 -0.2962
  730MOL0     C98456   8.921   6.048   8.316  0.7177  0.1698  0.2942
  730MOL0     C98457   8.921   6.109   8.173 -0.1782  0.0798  0.0373
  730MOL0     C98458   9.066   6.096   8.113  0.4309  0.6199 -0.7493
  730MOL0    Cl98459   9.181   6.215   8.180 -0.4039 -0.0419  0.0257
  730MOL0     C98460   8.233   5.915   8.871 -0.1643  0.5117 -0.4261
  730MOL0     C98461   8.093   5.917   8.895 -0.6792  0.8567 -0.2477
  730MOL0     O98462   7.829   5.616   8.866  0.5806  0.3031  0.6723
  730MOL0     C98463   7.588   5.874   8.890  0.0211 -0.4743  0.6833
  730MOL0     C98464   7.454   5.906   8.903  0.1768  0.8830  0.0641
  730MOL0     N98465   7.398   5.761   8.420  0.1416  1.0223 -0.0550
  730MOL0     N98466   7.511   5.704   8.413  0.2935  1.0170 -0.3950
  730MOL0     C98467   8.814   5.274   8.398  0.0563  0.2886 -0.2930
  730MOL0     C98468   8.955   5.289   8.408  0.3367 -0.1761 -0.5958
  730MOL0     C98469   9.370   5.510   8.395 -1.0576  0.0977  0.1997
  730MOL0     C98470   9.416   5.392   8.448 -0.2429  1.0000  0.4716
  730MOL0     C98471   9.561   5.369   8.461  0.7950  0.1360 -1.3519
  730MOL0     C98472   9.650   5.465   8.426 -0.1334 -0.7726  0.6666
  730MOL0     O98473   9.788   5.469   8.443 -0.0014 -0.4301 -0.7562
  730MOL0     C98474   9.863   5.357   8.499  0.7459 -0.3244  0.2589
  730MOL0     C98475  10.014   5.381   8.488 -0.5852  0.7431  0.1199
  730MOL0     C98476  10.091   5.250   8.520 -0.0809 -0.1603  0.3144
  730MOL0     C98477  10.211   5.219   8.427  0.6156 -0.2041  0.8315
  730MOL0     C98478  10.304   5.332   8.400 -0.0370  0.5363  1.0450
  730MOL0     C98479  10.396   5.405   8.380  0.6872 -1.2221  0.6632
  730MOL0     C98480   9.598   5.590   8.391 -0.4690 -0.0459 -0.2907
  730MOL0     C98481   9.464   5.612   8.372  0.5974 -0.7130  0.0121
  730MOL0     C98482   9.434   5.759   8.352  0.5027 -0.7247  0.3326
  730MOL0     H98483   8.941   5.631   8.376 -0.1020  0.0202 -1.8327
  730MOL0     H98484   8.713   5.596   8.364  0.6155 -0.2863 -0.3871
  730MOL0     H98485   8.498   5.521   8.482 -2.0702  1.3161 -1.3356
  730MOL0     H98486   8.524   5.512   8.304  0.7748 -2.6469 -1.0915
  730MOL0     H98487   8.335   5.328   8.467 -0.2914 -0.3373  1.8727
  730MOL0     H98488   8.356   5.334   8.293  2.1618 -1.2723  0.9009
  730MOL0     H98489   8.242   5.533   8.256 -0.8436 -1.1838 -0.9319
  730MOL0     H98490   8.256   5.589   8.421  4.6087  1.9105 -1.9430
  730MOL0     H98491   8.079   5.356   8.329 -0.0114  1.3724 -0.8455
  730MOL0     H98492   8.118   5.395   8.500 -2.4816  0.6866  1.1022
  730MOL0     H98493   8.033   5.601   8.484 -0.6160  0.2529  0.7849
  730MOL0     H98494   7.998   5.591   8.304 -0.2589  0.4282  0.4628
  730MOL0     H98495   7.831   5.392   8.393  0.9189  1.4065 -0.8314
  730MOL0     H98496   7.890   5.436   8.552  1.4011 -0.7550 -0.8203
  730MOL0     H98497   7.741   5.614   8.354  0.3698  2.1180  1.1017
  730MOL0     H98498   7.759   5.654   8.526 -2.3277  1.5062 -0.5228
  730MOL0     H98499   7.596   5.427   8.413  1.9691 -0.0286 -0.9046
  730MOL0     H98500   7.635   5.448   8.589  0.7281 -1.1451  0.5993
  730MOL0     H98501   7.362   5.506   8.631 -1.4666  0.4144 -0.1190
  730MOL0     H98502   7.177   5.845   8.500 -0.4597  0.0740  0.1674
  730MOL0     H98503   7.108   5.685   8.479 -0.2133  3.0602 -2.4016
  730MOL0     H98504   7.037   5.747   8.686  0.2636 -1.4272 -0.2978
  730MOL0     H98505   7.189   5.680   8.739 -2.9437 -0.2767  2.5453
  730MOL0     H98506   7.145   5.982   8.681 -2.1129 -0.9336  0.2905
  730MOL0     H98507   7.300   5.910   8.705  0.4590 -3.2993  0.7769
  730MOL0     H98508   7.051   5.888   8.894 -0.2274 -0.4809 -2.3748
  730MOL0     H98509   7.168   6.020   8.905 -2.4169 -0.1208  1.4857
  730MOL0     H98510   7.331   5.595   8.935 -1.5790  0.5897  1.2286
  730MOL0     H98511   7.606   5.538   8.872  4.3177  1.7030 -0.1650
  730MOL0     H98512   7.990   5.690   8.669 -0.8623  3.5912 -3.0274
  730MOL0     H98513   8.220   5.672   8.627 -1.4555 -1.6193  0.4159
  730MOL0     H98514   8.474   5.639   8.700  0.7705  1.9684  1.9692
  730MOL0     H98515   8.419   5.737   8.556 -2.6128  0.0019  1.1638
  730MOL0     H98516   8.665   5.835   8.694  0.6906  0.8291 -1.6789
  730MOL0     H98517   8.692   5.684   8.601 -1.2902 -2.0516  1.5343
  730MOL0     H98518   8.619   5.810   8.395  0.3500  4.0104 -2.6993
  730MOL0     H98519   8.557   5.936   8.502 -0.1091  0.8865  1.5700
  730MOL0     H98520   8.859   5.871   8.510 -3.0683 -3.4867  2.7451
  730MOL0     H98521   8.774   6.013   8.535  0.0630 -0.1353 -0.4307
  730MOL0     H98522   8.702   6.019   8.296  0.2405  1.7279  0.8249
  730MOL0     H98523   8.794   5.872   8.265 -0.2183  1.3103 -2.1693
  730MOL0     H98524   8.909   6.130   8.387  0.5988  1.9154 -1.6408
  730MOL0     H98525   9.001   5.980   8.346  0.1344 -0.7963 -0.2777
  730MOL0     H98526   8.900   6.216   8.178 -1.4018 -0.0970 -0.9170
  730MOL0     H98527   8.857   6.053   8.104  0.8669 -0.3301 -0.6138
  730MOL0     H98528   9.098   5.993   8.125  0.5818  0.7876  0.3719
  730MOL0     H98529   9.052   6.106   8.005  0.7206  1.9011 -0.6838
  730MOL0     H98530   8.302   5.987   8.913  0.6614 -1.0157  0.9701
  730MOL0     H98531   8.056   5.991   8.966 -2.3679  0.7522 -0.9797
  730MOL0     H98532   7.656   5.959   8.891  1.3376 -1.4427 -0.9916
  730MOL0     H98533   7.424   6.010   8.910  0.7318  0.9719  1.6182
  730MOL0     H98534   8.773   5.174   8.395  0.5587  0.1032 -1.2341
  730MOL0     H98535   9.024   5.205   8.414  0.8714  0.2442 -0.8902
  730MOL0     H98536   9.361   5.302   8.474  1.4113 -0.2859 -0.2548
  730MOL0     H98537   9.595   5.274   8.503  1.1360  0.8102 -0.0365
  730MOL0     H98538   9.834   5.270   8.439 -1.9455 -0.0517  1.0244
  730MOL0     H98539   9.838   5.333   8.603  1.1346  0.3784  0.5232
  730MOL0     H98540  10.053   5.459   8.553  0.3174 -2.6364  4.0579
  730MOL0     H98541  10.034   5.408   8.383  1.1815 -0.8544 -0.0213
  730MOL0     H98542  10.018   5.170   8.529 -3.0667  2.1077 -1.7605
  730MOL0     H98543  10.131   5.259   8.622  2.0816  1.0746 -0.5535
  730MOL0     H98544  10.266   5.134   8.468 -0.7382 -0.9661  1.1047
  730MOL0     H98545  10.168   5.174   8.337  4.7402 -3.2061  0.0422
  730MOL0     H98546  10.472   5.478   8.359 -1.3942  0.8188 -0.3068
  730MOL0     H98547   9.659   5.679   8.399  0.1064 -0.5103  0.6621
  730MOL0     H98548   9.361   5.782   8.430 -0.0569 -4.3876  1.0532
  730MOL0     H98549   9.520   5.826   8.349 -1.0351  1.3939  0.4310
  730MOL0     H98550   9.381   5.775   8.258 -2.4461  1.8525  2.2052
  731MOL0     O98551   3.685   9.786   7.672  0.3321 -0.0607 -0.1654
  731MOL0     C98552   3.655   9.677   7.631  0.3588  0.4918  0.8686
  731MOL0     O98553   3.741   9.572   7.623 -0.2659 -0.0721  0.0654
  731MOL0     C98554   3.878   9.592   7.620 -0.2294 -0.8608 -0.0771
  731MOL0     C98555   3.954   9.503   7.692  0.6495  0.0847 -0.3564
  731MOL0     C98556   4.096   9.510   7.691 -0.1909  0.7812  0.3244
  731MOL0     C98557   4.168   9.585   7.592 -0.1673 -0.1187 -0.3530
  731MOL0     O98558   4.301   9.588   7.605  0.3683 -0.4423  0.8459
  731MOL0     C98559   4.369   9.712   7.590  0.6527  0.4369  0.5432
  731MOL0     C98560   4.430   9.723   7.452 -0.1782 -0.0870 -0.0842
  731MOL0     C98561   4.503   9.853   7.433  0.6839 -0.1986  0.2018
  731MOL0     C98562   4.524   9.871   7.285 -1.1422 -0.5812  0.7391
  731MOL0     C98563   4.616   9.989   7.251  0.4960  0.0361 -0.0903
  731MOL0     C98564   4.642  10.016   7.104  0.1377 -0.2444  0.0503
  731MOL0     C98565   4.761  10.115   7.091  0.1369 -0.6763  0.7232
  731MOL0     C98566   4.830  10.103   6.959 -1.0149 -0.1380  0.6979
  731MOL0     N98567   4.962  10.167   6.951  0.0420 -0.1413 -0.0040
  731MOL0     C98568   5.079  10.101   6.972 -0.3178 -0.8628  0.1212
  731MOL0     C98569   5.174  10.199   6.960  0.2667 -0.5666 -0.5895
  731MOL0     C98570   5.324  10.175   6.986 -0.4235  0.2118  0.1584
  731MOL0     C98571   5.414  10.277   6.926  0.1632  0.8350  0.6436
  731MOL0     C98572   5.563  10.240   6.960 -0.0451  0.6000  1.0469
  731MOL0     C98573   5.662  10.321   6.872 -0.3457 -0.0411  0.7762
  731MOL0     O98574   5.792  10.286   6.915 -0.1683  0.7133 -0.1517
  731MOL0     C98575   5.905  10.336   6.857  0.5675  0.4764  1.3150
  731MOL0     C98576   5.909  10.425   6.745  0.4227  0.7645 -0.1705
  731MOL0     C98577   6.025  10.483   6.702  0.1486 -0.4391  1.0576
  731MOL0     C98578   6.145  10.440   6.758 -0.1648  0.4857 -0.8948
  731MOL0     C98579   6.273  10.515   6.733 -0.1581 -0.3740  0.3332
  731MOL0     O98580   6.378  10.507   6.830  0.2870  0.5339  0.3263
  731MOL0     C98581   6.493  10.568   6.794 -0.8439  1.1867  0.1155
  731MOL0     C98582   6.498  10.710   6.802 -0.4889 -0.6501  0.9232
  731MOL0     C98583   6.615  10.776   6.757  0.8013  0.6819 -0.6464
  731MOL0     C98584   6.720  10.703   6.704  0.1541 -0.5721 -0.2205
  731MOL0     O98585   6.836  10.764   6.663  0.3624 -1.2299  0.4572
  731MOL0     C98586   6.822  10.905   6.621  0.9098  0.0300 -0.1437
  731MOL0     C98587   6.948  10.953   6.549 -0.5729  0.1177  0.1133
  731MOL0     C98588   7.054  10.992   6.644  0.4581 -0.1131  0.0788
  731MOL0     C98589   7.180  11.043   6.561 -0.5435  0.6367 -0.4784
  731MOL0     C98590   7.293  11.111   6.651  0.5021  0.5067 -0.6172
  731MOL0     C98591   7.250  11.258   6.703  0.7331 -0.7393 -0.3508
  731MOL0     C98592   7.351  11.349   6.773 -0.0540 -0.4951 -0.1335
  731MOL0     C98593   7.289  11.444   6.874 -0.8144 -0.3020 -1.2280
  731MOL0    Cl98594   7.421  11.545   6.941 -0.1187  0.0209  0.2486
  731MOL0     C98595   6.719  10.567   6.715 -0.3583  0.0428  0.2919
  731MOL0     C98596   6.605  10.498   6.757  0.2914  0.9933  0.1183
  731MOL0     O98597   6.286  10.557   6.622  0.4937  0.4084  0.7772
  731MOL0     C98598   6.145  10.352   6.873  0.1729  0.2880 -0.1063
  731MOL0     C98599   6.023  10.298   6.919 -0.4795 -0.3675 -0.2574
  731MOL0     N98600   5.107  10.325   6.933 -0.0666  0.1255 -0.4067
  731MOL0     N98601   4.985  10.300   6.933 -0.1689  0.0121 -0.5946
  731MOL0     C98602   4.085   9.675   7.522 -0.0249 -0.0033 -0.3476
  731MOL0     C98603   3.945   9.675   7.524 -0.1175 -0.6235 -0.1005
  731MOL0     C98604   3.520   9.652   7.592 -0.5523 -0.3633 -0.2910
  731MOL0     C98605   3.469   9.520   7.620 -0.7943 -0.4581 -0.6904
  731MOL0     C98606   3.345   9.481   7.583 -1.1679  0.8380 -0.1289
  731MOL0     C98607   3.267   9.574   7.509  0.1838  0.6566 -0.2514
  731MOL0     O98608   3.139   9.568   7.471 -0.4001  0.3454  0.5835
  731MOL0     C98609   3.047   9.487   7.537  0.3988 -0.0854 -0.3531
  731MOL0     C98610   2.908   9.560   7.538 -0.6740  0.5099  0.1614
  731MOL0     C98611   2.790   9.457   7.568 -1.0221 -0.6371  0.2267
  731MOL0     C98612   2.669   9.537   7.615  0.2440 -0.7476  0.2305
  731MOL0     C98613   2.640   9.659   7.545 -0.2269 -0.3579  0.2345
  731MOL0     C98614   2.613   9.753   7.473 -1.2891 -0.0351  0.6876
  731MOL0     C98615   3.319   9.690   7.460  0.0381  0.3461 -0.2346
  731MOL0     C98616   3.444   9.733   7.510  0.2777  0.3389 -0.1923
  731MOL0     C98617   3.480   9.873   7.455 -1.1134 -0.1361 -0.2897
  731MOL0     H98618   3.906   9.434   7.761 -0.0223  0.0404 -0.8497
  731MOL0     H98619   4.157   9.463   7.768 -1.6364  0.7684  1.5069
  731MOL0     H98620   4.307   9.797   7.620 -0.4879 -0.1195 -0.1794
  731MOL0     H98621   4.444   9.710   7.669 -0.5345 -0.0018  1.7050
  731MOL0     H98622   4.357   9.700   7.374  0.0669 -3.2275  0.4825
  731MOL0     H98623   4.499   9.638   7.445 -1.9461 -1.4890 -1.4340
  731MOL0     H98624   4.604   9.852   7.476  1.1739 -1.4754 -0.9288
  731MOL0     H98625   4.448   9.937   7.477  0.5993 -0.0267 -0.2236
  731MOL0     H98626   4.578   9.783   7.248  0.4347  0.7307 -0.2312
  731MOL0     H98627   4.433   9.875   7.225  0.0407 -0.3838 -1.1237
  731MOL0     H98628   4.579  10.079   7.301  2.3686  0.6162  0.3288
  731MOL0     H98629   4.710   9.967   7.304 -0.1156  1.0100  1.4697
  731MOL0     H98630   4.646   9.927   7.040  0.9088 -0.0859 -0.1295
  731MOL0     H98631   4.549  10.058   7.063  1.3592 -0.3685 -3.1539
  731MOL0     H98632   4.822  10.099   7.180  2.6613 -0.9160 -0.9680
  731MOL0     H98633   4.725  10.218   7.101 -0.6181 -0.9190  0.6272
  731MOL0     H98634   4.843  10.001   6.921  1.2218  1.1624 -2.5286
  731MOL0     H98635   4.764  10.145   6.882  2.7616  3.9333 -0.7701
  731MOL0     H98636   5.092   9.998   7.002  1.5234 -2.2389 -4.4462
  731MOL0     H98637   5.330  10.189   7.094 -3.4115  0.3705  0.3970
  731MOL0     H98638   5.353  10.077   6.948  0.8113  1.4546 -2.3290
  731MOL0     H98639   5.403  10.269   6.817  2.8651 -2.8982  0.4548
  731MOL0     H98640   5.385  10.378   6.956  1.0418  1.3961 -0.3358
  731MOL0     H98641   5.584  10.133   6.955 -1.8967  0.1961  1.0880
  731MOL0     H98642   5.587  10.275   7.061 -2.8848  2.6187  1.1523
  731MOL0     H98643   5.643  10.429   6.880 -3.8048 -0.6274  2.4735
  731MOL0     H98644   5.642  10.293   6.768 -1.2081  2.1550  0.2762
  731MOL0     H98645   5.817  10.449   6.692 -0.0511  0.2421  0.3993
  731MOL0     H98646   6.034  10.561   6.627  3.0964 -0.5516  1.1634
  731MOL0     H98647   6.416  10.768   6.844 -0.1330 -2.1197  3.9219
  731MOL0     H98648   6.615  10.884   6.769  2.5571  1.1453 -3.8139
  731MOL0     H98649   6.738  10.907   6.550 -0.9030 -1.3514  1.8208
  731MOL0     H98650   6.803  10.972   6.705 -3.9384 -0.5899 -0.4227
  731MOL0     H98651   6.992  10.869   6.495  1.0717  1.6625 -1.0810
  731MOL0     H98652   6.925  11.031   6.477 -5.0271 -1.6602 -0.6766
  731MOL0     H98653   7.020  11.073   6.709  2.0385  1.0955 -0.5050
  731MOL0     H98654   7.068  10.902   6.703 -0.6261  1.3384  2.7198
  731MOL0     H98655   7.153  11.121   6.490  1.2065  4.5973  2.7595
  731MOL0     H98656   7.216  10.953   6.511  1.0684  1.2461 -0.4784
  731MOL0     H98657   7.380  11.135   6.589  0.9484  0.5198  0.0043
  731MOL0     H98658   7.321  11.041   6.730 -1.8829  1.3499  1.0952
  731MOL0     H98659   7.203  11.319   6.626  1.7130 -1.4600 -1.5549
  731MOL0     H98660   7.170  11.229   6.772 -0.4514  0.0194 -1.3760
  731MOL0     H98661   7.389  11.419   6.699 -1.8474  0.5903 -0.0630
  731MOL0     H98662   7.423  11.283   6.824  0.1802  2.7714  4.3395
  731MOL0     H98663   7.218  11.506   6.818 -1.1284  1.0450  0.5891
  731MOL0     H98664   7.229  11.401   6.954 -2.1843  2.8700 -0.4034
  731MOL0     H98665   6.807  10.516   6.677 -0.2894  0.6552 -0.3899
  731MOL0     H98666   6.599  10.389   6.760 -0.2732  1.0475  1.7826
  731MOL0     H98667   6.230  10.318   6.932 -2.1702 -2.5895  1.9025
  731MOL0     H98668   6.021  10.224   6.998 -1.6632 -1.6199 -1.4035
  731MOL0     H98669   4.134   9.750   7.461 -1.2629  2.0563  1.0388
  731MOL0     H98670   3.890   9.739   7.456 -2.4880 -0.3677  1.9339
  731MOL0     H98671   3.524   9.449   7.680 -1.2208 -1.0978 -1.0488
  731MOL0     H98672   3.323   9.380   7.616  4.3458 -0.0620  1.7170
  731MOL0     H98673   3.081   9.459   7.637 -1.3173  4.2587  1.6683
  731MOL0     H98674   3.048   9.397   7.475 -0.9293 -0.2692 -0.1302
  731MOL0     H98675   2.902   9.610   7.440 -3.9176  0.8619  0.4383
  731MOL0     H98676   2.907   9.636   7.617 -0.7480  0.2689  0.3935
  731MOL0     H98677   2.818   9.378   7.638 -0.4174 -1.5013 -0.9627
  731MOL0     H98678   2.768   9.397   7.480 -0.6720 -0.5666  0.0882
  731MOL0     H98679   2.584   9.468   7.609 -2.0069  1.3593  3.9904
  731MOL0     H98680   2.689   9.553   7.721  4.1234 -1.8989 -0.1800
  731MOL0     H98681   2.579   9.824   7.401  0.5904 -0.8864 -1.1474
  731MOL0     H98682   3.263   9.756   7.394 -0.8075 -1.2407 -1.1648
  731MOL0     H98683   3.526   9.927   7.538 -0.7964 -3.1164  1.6721
  731MOL0     H98684   3.541   9.862   7.365 -1.4556  2.7009 -0.9388
  731MOL0     H98685   3.388   9.925   7.425 -0.2463  0.5382 -1.8537
  732MOL0     O98686   6.888  10.622   5.411 -0.8918  0.6014 -0.0575
  732MOL0     C98687   6.980  10.619   5.490  0.2303 -0.1286  0.0488
  732MOL0     O98688   7.100  10.682   5.479 -0.6224  0.6186 -0.3370
  732MOL0     C98689   7.128  10.785   5.395 -0.0261  0.1449  0.0033
  732MOL0     C98690   7.229  10.873   5.431  0.3464  0.0183 -0.8659
  732MOL0     C98691   7.283  10.966   5.345 -0.3170 -0.0816 -0.0434
  732MOL0     C98692   7.230  10.986   5.216  0.0818  0.2872 -0.4879
  732MOL0     O98693   7.303  11.074   5.136  0.5005  0.3861  0.0412
  732MOL0     C98694   7.214  11.183   5.105  0.5702 -0.6098  0.4277
  732MOL0     C98695   7.276  11.312   5.144 -0.2813 -0.0696  0.0262
  732MOL0     C98696   7.391  11.341   5.047  0.0720 -0.1374  0.3968
  732MOL0     C98697   7.449  11.473   5.086 -0.6120 -0.2528 -0.1923
  732MOL0     C98698   7.565  11.515   4.990  0.0177 -0.3634  0.2549
  732MOL0     C98699   7.596  11.666   5.025  0.3339 -0.5702  0.5787
  732MOL0     C98700   7.708  11.731   4.926 -0.0023 -0.1039 -0.0667
  732MOL0     C98701   7.846  11.675   4.963  0.2897  0.1514 -0.4751
  732MOL0     N98702   7.944  11.734   4.877 -0.3925  0.4450 -0.4724
  732MOL0     C98703   7.981  11.868   4.872 -0.0771  0.2705 -0.9401
  732MOL0     C98704   8.070  11.862   4.770  0.3195 -0.0166 -0.4897
  732MOL0     C98705   8.144  11.988   4.721 -0.0079 -0.5079  0.3913
  732MOL0     C98706   8.284  11.991   4.790 -0.5644 -0.0606 -0.3211
  732MOL0     C98707   8.356  12.119   4.766 -0.6634  0.0911  0.2326
  732MOL0     C98708   8.463  12.132   4.873  0.9560 -0.0133  0.4564
  732MOL0     O98709   8.561  12.031   4.857 -0.1635  0.8539  0.5356
  732MOL0     C98710   8.678  12.038   4.930  0.6233 -0.4749  0.5604
  732MOL0     C98711   8.779  11.963   4.869 -0.3805 -0.6580  0.2592
  732MOL0     C98712   8.906  11.978   4.927  0.3368 -0.2265  0.1099
  732MOL0     C98713   8.929  12.058   5.043 -0.1753  1.0823  1.2299
  732MOL0     C98714   9.058  12.049   5.114  0.1961 -0.1483  0.3082
  732MOL0     O98715   9.164  11.984   5.048  0.2321  0.3430  0.5508
  732MOL0     C98716   9.273  11.946   5.118  0.2969 -0.0501 -0.0507
  732MOL0     C98717   9.356  12.038   5.181  0.7257  0.5974  0.4528
  732MOL0     C98718   9.467  11.996   5.249 -0.8452 -0.0676  1.5376
  732MOL0     C98719   9.505  11.861   5.241 -0.2103 -0.0093  0.8998
  732MOL0     O98720   9.619  11.805   5.285  0.3192  0.4079 -0.2528
  732MOL0     C98721   9.719  11.895   5.345  0.7126 -0.2989 -0.0052
  732MOL0     C98722   9.811  11.815   5.436  0.4584  0.3142 -0.1635
  732MOL0     C98723   9.895  11.709   5.357  0.3957 -0.3453  0.6974
  732MOL0     C98724   9.878  11.565   5.410  0.2107  0.1105  0.6718
  732MOL0     C98725   9.932  11.451   5.328  0.7348 -0.2154  0.4144
  732MOL0     C98726   9.955  11.333   5.413 -0.2221 -0.3625  0.1456
  732MOL0     C98727  10.047  11.223   5.341 -0.9841  0.2657 -0.1492
  732MOL0     C98728  10.084  11.113   5.427 -0.2829  0.0338 -0.1590
  732MOL0    Cl98729  10.223  11.165   5.534 -0.5280 -0.4756 -0.1200
  732MOL0     C98730   9.438  11.769   5.162 -0.1924 -0.1453 -0.6445
  732MOL0     C98731   9.318  11.807   5.108 -0.1884 -0.0178 -0.1064
  732MOL0     O98732   9.065  12.093   5.227 -0.1116  0.3670 -0.2423
  732MOL0     C98733   8.829  12.135   5.093  0.2410  0.7876 -0.3361
  732MOL0     C98734   8.704  12.130   5.035 -0.0695  0.3001  0.1596
  732MOL0     N98735   8.090  11.735   4.725 -0.2686 -0.4952 -0.0275
  732MOL0     N98736   8.019  11.657   4.794 -0.4200 -0.8572  0.0957
  732MOL0     C98737   7.116  10.911   5.189 -0.4422  0.7853  0.1634
  732MOL0     C98738   7.068  10.810   5.270  0.1467  1.4067  0.2189
  732MOL0     C98739   6.941  10.553   5.619  0.1734  0.9750 -0.2037
  732MOL0     C98740   7.041  10.540   5.713 -0.5044 -0.3832  0.1454
  732MOL0     C98741   7.023  10.481   5.841 -0.4544 -0.4628  0.2317
  732MOL0     C98742   6.908  10.422   5.870  0.4030 -0.3812 -0.7170
  732MOL0     O98743   6.895  10.339   5.981  0.5339 -0.0096 -0.6771
  732MOL0     C98744   6.773  10.302   6.042  0.2005  0.0604  0.2674
  732MOL0     C98745   6.737  10.160   5.990 -0.9004 -0.3553  0.3772
  732MOL0     C98746   6.607  10.107   6.046 -0.5812  0.5012  0.3734
  732MOL0     C98747   6.491  10.114   5.953  0.6103  0.1486  0.4067
  732MOL0     C98748   6.450  10.251   5.919  0.2904  0.1888 -0.6187
  732MOL0     C98749   6.430  10.370   5.903  1.3809  0.0886 -0.5409
  732MOL0     C98750   6.801  10.437   5.782 -0.2138  0.1656 -0.2605
  732MOL0     C98751   6.809  10.500   5.655  0.4245  0.7662  0.3080
  732MOL0     C98752   6.680  10.511   5.573 -0.0972 -0.7898  0.0526
  732MOL0     H98753   7.283  10.863   5.525  3.7288  3.4005 -2.1494
  732MOL0     H98754   7.368  11.030   5.368  0.1169 -0.0157 -1.7148
  732MOL0     H98755   7.188  11.181   4.999 -1.0483  2.4766  0.6487
  732MOL0     H98756   7.112  11.185   5.145  1.0665  1.6878  1.7900
  732MOL0     H98757   7.325  11.300   5.241 -1.0251 -1.0886  0.2953
  732MOL0     H98758   7.202  11.393   5.152  1.1503  1.2086  0.9984
  732MOL0     H98759   7.369  11.338   4.940 -0.6043  1.2535  0.4740
  732MOL0     H98760   7.464  11.261   5.069  1.7859  1.1787 -0.2851
  732MOL0     H98761   7.360  11.537   5.085 -1.2179 -1.0227  1.2240
  732MOL0     H98762   7.493  11.467   5.186  1.2930 -2.2370 -1.0758
  732MOL0     H98763   7.654  11.452   4.995 -0.5363 -1.1410  0.5860
  732MOL0     H98764   7.528  11.512   4.887 -0.1314  1.1424  0.2381
  732MOL0     H98765   7.506  11.728   5.018 -0.9327 -2.4193 -0.4453
  732MOL0     H98766   7.639  11.673   5.125  1.4053 -1.2214  0.1798
  732MOL0     H98767   7.715  11.839   4.940  0.1442 -0.3670  2.3913
  732MOL0     H98768   7.672  11.722   4.823 -1.9149  3.4972  0.1306
  732MOL0     H98769   7.863  11.685   5.071 -3.9671 -1.3769  0.5611
  732MOL0     H98770   7.836  11.566   4.957 -3.7473  0.2856  0.7182
  732MOL0     H98771   7.951  11.942   4.946  2.7897 -0.7369  1.4393
  732MOL0     H98772   8.146  11.986   4.612 -0.3652  0.8586  0.3385
  732MOL0     H98773   8.073  12.066   4.751  0.2269  0.4032 -1.2803
  732MOL0     H98774   8.256  11.963   4.892 -3.3330 -0.1903 -1.0597
  732MOL0     H98775   8.344  11.907   4.751 -1.5863  0.3387 -2.9654
  732MOL0     H98776   8.288  12.205   4.766  0.5823  1.0991  0.4136
  732MOL0     H98777   8.392  12.119   4.663 -0.2332  2.2344  0.3316
  732MOL0     H98778   8.416  12.130   4.972 -0.1514 -0.0715 -0.0550
  732MOL0     H98779   8.505  12.231   4.854  1.6738 -1.0235 -4.5550
  732MOL0     H98780   8.756  11.902   4.783 -0.3996 -0.0515 -0.1790
  732MOL0     H98781   8.999  11.939   4.885  3.5309  4.8451  1.5792
  732MOL0     H98782   9.324  12.141   5.190 -0.6667  0.0528  2.3514
  732MOL0     H98783   9.521  12.064   5.313  1.9255 -0.4924 -0.1572
  732MOL0     H98784   9.768  11.963   5.276 -0.3444  0.9628  0.4478
  732MOL0     H98785   9.671  11.961   5.418  3.6625  0.3361  1.5225
  732MOL0     H98786   9.882  11.880   5.488  0.2713 -0.2899  0.8838
  732MOL0     H98787   9.739  11.776   5.508 -1.9933  2.9283 -1.0357
  732MOL0     H98788   9.870  11.724   5.251 -1.3066 -1.0271  0.9670
  732MOL0     H98789  10.002  11.729   5.363  0.4106 -0.3390  0.4433
  732MOL0     H98790   9.770  11.548   5.423  0.2884 -1.0682 -0.0905
  732MOL0     H98791   9.935  11.564   5.504 -0.1424 -1.4611  0.8912
  732MOL0     H98792  10.017  11.488   5.270 -0.2657 -0.7503 -1.5088
  732MOL0     H98793   9.858  11.433   5.249 -0.5882  1.0345  1.3380
  732MOL0     H98794  10.013  11.359   5.502  0.9819 -2.8754  0.1890
  732MOL0     H98795   9.856  11.300   5.447 -0.9043  1.5390  0.1016
  732MOL0     H98796  10.135  11.271   5.297  0.6103 -2.3800 -0.0845
  732MOL0     H98797   9.991  11.168   5.265 -1.3394  1.0721 -0.4823
  732MOL0     H98798   9.997  11.084   5.487 -1.1186  1.9654 -0.3913
  732MOL0     H98799  10.113  11.029   5.363  1.4671  0.2426  0.2882
  732MOL0     H98800   9.490  11.675   5.145  1.6861  1.0981 -2.2864
  732MOL0     H98801   9.261  11.727   5.062 -3.1280 -0.2427  3.4159
  732MOL0     H98802   8.845  12.200   5.178 -1.0605  2.0437 -1.0288
  732MOL0     H98803   8.623  12.189   5.075  0.0323  2.1047 -2.1028
  732MOL0     H98804   7.087  10.897   5.085 -1.2980 -1.4514  0.6314
  732MOL0     H98805   6.991  10.739   5.241  0.9981 -0.7456  2.8975
  732MOL0     H98806   7.142  10.577   5.708  0.2292 -1.3364  4.1435
  732MOL0     H98807   7.095  10.492   5.921  0.8259 -0.4519 -0.8788
  732MOL0     H98808   6.689  10.371   6.028 -0.6355 -0.2360  3.1759
  732MOL0     H98809   6.779  10.307   6.151 -1.7741  1.2173  0.3773
  732MOL0     H98810   6.812  10.086   6.017 -1.1371 -1.1163 -0.9590
  732MOL0     H98811   6.731  10.165   5.881 -0.7646  0.2853  0.3935
  732MOL0     H98812   6.571  10.166   6.131 -2.0083  0.3830 -0.1186
  732MOL0     H98813   6.628  10.005   6.080  1.7011  0.8308  0.1344
  732MOL0     H98814   6.515  10.067   5.858  0.3839  0.3381  0.2538
  732MOL0     H98815   6.407  10.065   6.002 -1.8284  3.6101  0.0606
  732MOL0     H98816   6.405  10.464   5.859  1.3648  0.8145  0.9394
  732MOL0     H98817   6.704  10.398   5.811  0.2441 -0.6496  0.1947
  732MOL0     H98818   6.672  10.619   5.559  2.7629 -0.4213  0.6495
  732MOL0     H98819   6.693  10.466   5.474 -1.4892 -3.0863  0.8378
  732MOL0     H98820   6.591  10.468   5.620 -1.0713  1.0333 -0.0370
  733MOL0     O98821   0.910  10.014   6.026 -0.5100 -0.3831 -0.4444
  733MOL0     C98822   0.879  10.104   5.946 -0.4208  0.1658  0.0370
  733MOL0     O98823   0.954  10.150   5.839 -0.3854  1.0130  0.3215
  733MOL0     C98824   1.075  10.085   5.812  0.9530 -1.3920 -0.3419
  733MOL0     C98825   1.176  10.064   5.911  1.2067  0.8697  0.4011
  733MOL0     C98826   1.284   9.986   5.874 -0.6901 -0.2443  0.1528
  733MOL0     C98827   1.306   9.952   5.736  0.1204  0.6261  0.4035
  733MOL0     O98828   1.421   9.893   5.692  0.4237 -0.4216  0.2706
  733MOL0     C98829   1.476   9.786   5.763 -0.1108  0.5329  0.0401
  733MOL0     C98830   1.539   9.689   5.670 -0.1239  0.6041  0.6084
  733MOL0     C98831   1.678   9.728   5.622 -0.7161  0.6130  0.2744
  733MOL0     C98832   1.717   9.635   5.508  0.4101 -0.0981 -0.9472
  733MOL0     C98833   1.857   9.662   5.452  0.7044  0.0316  1.0321
  733MOL0     C98834   1.868   9.579   5.314  0.0731 -0.3507  0.5885
  733MOL0     C98835   2.007   9.580   5.233  0.3779 -0.5996 -0.0199
  733MOL0     C98836   2.046   9.713   5.170 -0.5052  0.4179  0.4417
  733MOL0     N98837   2.180   9.721   5.095  0.3832  0.3552 -0.0754
  733MOL0     C98838   2.262   9.617   5.041  1.7668  0.0534  0.0947
  733MOL0     C98839   2.362   9.681   4.988  0.3830  0.3192 -0.4539
  733MOL0     C98840   2.474   9.621   4.906 -0.7337  0.3509 -0.8094
  733MOL0     C98841   2.562   9.517   4.984 -0.6776 -0.7170 -0.6462
  733MOL0     C98842   2.629   9.588   5.106  0.6777 -0.1421 -0.4586
  733MOL0     C98843   2.775   9.640   5.078 -0.1696 -0.0932  0.6087
  733MOL0     O98844   2.865   9.660   5.188  0.4572 -0.2693 -0.5263
  733MOL0     C98845   2.997   9.692   5.154  0.1973 -0.2723  0.2814
  733MOL0     C98846   3.077   9.710   5.265 -0.0890 -1.0135 -0.4923
  733MOL0     C98847   3.212   9.710   5.259  0.2902 -0.0459  0.6957
  733MOL0     C98848   3.277   9.685   5.132 -1.1018 -0.1942 -0.9024
  733MOL0     C98849   3.416   9.649   5.139 -0.4759  0.1330  0.4664
  733MOL0     O98850   3.462   9.617   5.262 -0.0309 -0.0912 -0.3826
  733MOL0     C98851   3.604   9.618   5.276  0.0429 -0.2833 -0.7521
  733MOL0     C98852   3.662   9.742   5.294  0.2329  0.1706  0.0805
  733MOL0     C98853   3.795   9.765   5.290 -0.3674  0.2441 -0.9982
  733MOL0     C98854   3.883   9.650   5.274 -0.9133 -0.6385 -0.5120
  733MOL0     O98855   4.015   9.678   5.288  0.4014  1.0563 -0.6087
  733MOL0     C98856   4.105   9.569   5.257  0.8145 -0.8507  0.3303
  733MOL0     C98857   4.253   9.619   5.267  0.0811  0.2562  0.0297
  733MOL0     C98858   4.289   9.667   5.409 -0.7016 -0.0595 -0.3756
  733MOL0     C98859   4.439   9.684   5.447  1.0263 -0.7603  0.2761
  733MOL0     C98860   4.458   9.796   5.557  0.0396  0.4513  0.5314
  733MOL0     C98861   4.607   9.794   5.598 -0.4056 -0.8761  1.4363
  733MOL0     C98862   4.650   9.924   5.660 -0.2732  0.9480  1.1085
  733MOL0     C98863   4.804   9.929   5.667 -0.2660 -0.1397 -1.0074
  733MOL0    Cl98864   4.856  10.097   5.712 -0.2136 -0.2442  0.3102
  733MOL0     C98865   3.824   9.526   5.253  0.6427  0.4402 -0.2015
  733MOL0     C98866   3.685   9.511   5.253 -1.2584  0.6265  0.1757
  733MOL0     O98867   3.482   9.659   5.036 -0.0788  0.9146  0.4119
  733MOL0     C98868   3.195   9.674   5.018  0.4052  0.2408  0.2701
  733MOL0     C98869   3.057   9.682   5.030 -0.4007  0.0250  0.1638
  733MOL0     N98870   2.355   9.820   5.014 -0.3827 -0.0712  0.0729
  733MOL0     N98871   2.246   9.839   5.090  0.3898  1.2132  0.8662
  733MOL0     C98872   1.216   9.985   5.641 -0.3012  0.1305 -0.2499
  733MOL0     C98873   1.101  10.050   5.679  0.3099 -0.4655  0.5848
  733MOL0     C98874   0.757  10.188   5.974  0.6071 -0.0135 -0.6498
  733MOL0     C98875   0.759  10.256   6.094  0.2056 -1.0922 -0.2884
  733MOL0     C98876   0.652  10.326   6.123  0.2722  0.4887  0.3784
  733MOL0     C98877   0.546  10.349   6.040 -0.3061  0.0325  0.3183
  733MOL0     O98878   0.447  10.441   6.077  0.4458  0.2687  0.0293
  733MOL0     C98879   0.319  10.428   6.009 -0.2272 -0.3034 -0.9137
  733MOL0     C98880   0.243  10.314   6.079  0.2382 -0.3854 -0.1081
  733MOL0     C98881   0.111  10.277   6.009 -0.4227 -0.9610  0.4863
  733MOL0     C98882   0.141  10.187   5.893  0.5300  0.1419 -1.2827
  733MOL0     C98883   0.024  10.177   5.813 -0.5652  0.0541  0.0454
  733MOL0     C98884  -0.086  10.172   5.754 -0.2751 -0.2120 -0.0072
  733MOL0     C98885   0.552  10.287   5.914  1.3857  0.1048 -0.3722
  733MOL0     C98886   0.657  10.208   5.880 -0.2320 -0.3175  0.3143
  733MOL0     C98887   0.666  10.155   5.738 -0.1869  0.1290  0.6845
  733MOL0     H98888   1.157  10.094   6.013  0.5789  0.5446  0.3868
  733MOL0     H98889   1.363   9.964   5.944 -0.2754  3.0360  0.8932
  733MOL0     H98890   1.552   9.819   5.834 -0.2525  0.4599  0.2272
  733MOL0     H98891   1.398   9.729   5.816  1.8676 -2.3186  0.0816
  733MOL0     H98892   1.476   9.682   5.580 -0.5093 -0.0377  0.9201
  733MOL0     H98893   1.547   9.591   5.718  2.2008 -0.1714 -1.1715
  733MOL0     H98894   1.747   9.719   5.706 -0.5820 -1.6234 -0.0285
  733MOL0     H98895   1.671   9.827   5.574 -2.7257  0.1560 -0.4780
  733MOL0     H98896   1.709   9.534   5.548 -1.3632  0.2092 -0.4591
  733MOL0     H98897   1.644   9.652   5.428 -1.7338 -1.4716  0.6054
  733MOL0     H98898   1.865   9.767   5.423  0.6283  0.9550  4.0108
  733MOL0     H98899   1.938   9.645   5.524  2.2781  0.5669 -0.5351
  733MOL0     H98900   1.847   9.479   5.354  2.1260 -0.5879  1.2160
  733MOL0     H98901   1.793   9.608   5.241 -0.5701 -0.3056  1.2549
  733MOL0     H98902   1.992   9.498   5.162 -0.5537 -0.2534 -0.2304
  733MOL0     H98903   2.083   9.545   5.304  2.5300 -1.2693 -2.4908
  733MOL0     H98904   1.965   9.749   5.105 -0.5838  1.1599  0.9354
  733MOL0     H98905   2.048   9.778   5.258 -2.1999 -1.6623  2.0996
  733MOL0     H98906   2.249   9.509   5.038  0.7935  0.1823 -1.3475
  733MOL0     H98907   2.449   9.573   4.811  2.2976 -0.9725 -1.0624
  733MOL0     H98908   2.539   9.706   4.884  0.4423 -0.4269 -0.4238
  733MOL0     H98909   2.493   9.436   5.006 -1.8433  0.0918 -1.1819
  733MOL0     H98910   2.631   9.483   4.906  0.0158  1.2629 -0.9513
  733MOL0     H98911   2.625   9.513   5.186 -0.4930  2.4404  2.0734
  733MOL0     H98912   2.567   9.672   5.136  2.4240  1.8918 -2.2031
  733MOL0     H98913   2.765   9.730   5.017 -0.3035 -2.1007 -2.5823
  733MOL0     H98914   2.820   9.558   5.022  2.4233 -0.2763  2.7275
  733MOL0     H98915   3.029   9.717   5.362 -2.2550 -0.3796 -1.5375
  733MOL0     H98916   3.278   9.734   5.342  1.6375 -1.2401  0.0075
  733MOL0     H98917   3.596   9.827   5.288 -2.1686 -1.3138  2.7183
  733MOL0     H98918   3.831   9.868   5.292 -1.5892  0.6898  1.0550
  733MOL0     H98919   4.085   9.483   5.322 -0.2594 -1.2431 -0.4855
  733MOL0     H98920   4.086   9.527   5.157  0.2894 -1.4150  0.6581
  733MOL0     H98921   4.312   9.534   5.231 -0.3521 -1.3255  2.7763
  733MOL0     H98922   4.271   9.702   5.198 -1.3965  2.7231  2.4227
  733MOL0     H98923   4.231   9.757   5.429  2.1597  2.2016 -1.3893
  733MOL0     H98924   4.241   9.594   5.474 -3.9339  0.5481 -1.8937
  733MOL0     H98925   4.499   9.722   5.364 -2.9233  4.1937 -0.7737
  733MOL0     H98926   4.476   9.584   5.474 -0.6366 -1.4531  0.1672
  733MOL0     H98927   4.392   9.787   5.643  1.0390  0.1904  1.2942
  733MOL0     H98928   4.434   9.891   5.509 -2.6481  0.0047  0.8615
  733MOL0     H98929   4.616   9.721   5.679 -0.9159 -1.4089  1.0241
  733MOL0     H98930   4.669   9.773   5.510 -1.7858 -1.5432  0.5947
  733MOL0     H98931   4.597   9.933   5.756  0.8588 -0.1789  1.8745
  733MOL0     H98932   4.619  10.008   5.597 -2.8038 -0.5824  0.1890
  733MOL0     H98933   4.852   9.854   5.730  1.8352  0.8439 -1.3670
  733MOL0     H98934   4.841   9.906   5.567 -0.4148 -1.0923 -0.8487
  733MOL0     H98935   3.888   9.440   5.233 -0.9100 -1.1014  1.1271
  733MOL0     H98936   3.656   9.414   5.214 -2.2446  1.1442 -0.4262
  733MOL0     H98937   3.235   9.674   4.918 -2.1018  1.1723 -0.8079
  733MOL0     H98938   3.001   9.661   4.939 -3.2582 -0.0994  1.8174
  733MOL0     H98939   1.242   9.955   5.540 -1.4857 -1.6812 -0.0727
  733MOL0     H98940   1.030  10.080   5.604  0.7970 -0.1056  0.2663
  733MOL0     H98941   0.841  10.248   6.164  0.7927  2.3248 -0.3941
  733MOL0     H98942   0.659  10.369   6.222 -0.6628 -1.0477  1.1549
  733MOL0     H98943   0.337  10.408   5.903  2.5881  2.4806 -1.1107
  733MOL0     H98944   0.267  10.523   6.024  0.7707  0.3109 -1.3144
  733MOL0     H98945   0.222  10.335   6.184  4.6654  0.2985  0.8385
  733MOL0     H98946   0.317  10.234   6.087 -0.5800 -0.9778  3.0592
  733MOL0     H98947   0.052  10.362   5.972 -0.2800 -0.6376  0.9902
  733MOL0     H98948   0.042  10.225   6.076 -1.1724  2.0640  2.2801
  733MOL0     H98949   0.226  10.228   5.837 -0.0646  0.4482 -1.9751
  733MOL0     H98950   0.169  10.087   5.927  1.4858  0.3246 -1.4777
  733MOL0     H98951  -0.175  10.176   5.694 -2.3998 -0.1685  2.9206
  733MOL0     H98952   0.479  10.295   5.834  0.2104 -5.9278 -0.3516
  733MOL0     H98953   0.585  10.160   5.665  1.5593 -1.0405 -1.4464
  733MOL0     H98954   0.747  10.210   5.687 -2.7455  2.7458 -0.8971
  733MOL0     H98955   0.692  10.049   5.744  0.2725  0.1371 -0.6933
  734MOL0     O98956   0.447   8.702   1.730 -0.1449 -0.4894 -0.3546
  734MOL0     C98957   0.408   8.820   1.716  0.0645  0.8445  0.0937
  734MOL0     O98958   0.480   8.935   1.722  0.5214  0.2740 -0.3079
  734MOL0     C98959   0.617   8.931   1.713 -0.6886 -0.3401 -0.3569
  734MOL0     C98960   0.677   8.916   1.589 -0.5102 -0.1333  0.5510
  734MOL0     C98961   0.817   8.925   1.577 -0.1263 -0.2054 -0.8772
  734MOL0     C98962   0.893   8.965   1.682 -0.4721  0.2124 -0.3364
  734MOL0     O98963   1.027   8.978   1.658  0.5668 -0.2210  0.5759
  734MOL0     C98964   1.115   9.020   1.762 -0.5978 -0.7028 -0.0154
  734MOL0     C98965   1.261   9.015   1.704  0.9932  0.3931  0.3605
  734MOL0     C98966   1.357   9.013   1.817  0.4934  0.0836  0.1688
  734MOL0     C98967   1.502   8.978   1.760  0.3563 -0.3214 -0.1265
  734MOL0     C98968   1.605   8.969   1.875 -0.1550  0.1489  0.2206
  734MOL0     C98969   1.742   8.925   1.826  0.3683  0.6323  0.2367
  734MOL0     C98970   1.848   8.916   1.945  0.5743  0.7481  1.1496
  734MOL0     C98971   1.987   8.899   1.887 -1.0082  0.3722  0.9032
  734MOL0     N98972   2.060   8.773   1.913 -0.7425  0.1921 -0.9165
  734MOL0     C98973   2.002   8.652   1.897  0.7908 -0.2620  0.2655
  734MOL0     C98974   2.102   8.561   1.901  0.1967  0.7424  0.7364
  734MOL0     C98975   2.100   8.415   1.884  0.4841  0.5135  0.6605
  734MOL0     C98976   1.968   8.361   1.812 -0.1599 -0.0214 -0.7954
  734MOL0     C98977   1.964   8.207   1.839  0.8010 -0.2981 -0.5907
  734MOL0     C98978   1.832   8.152   1.779  0.4798 -0.3140  0.0423
  734MOL0     O98979   1.733   8.203   1.874 -0.0753 -1.2156  0.4783
  734MOL0     C98980   1.603   8.175   1.843 -0.4363  1.0251  0.5625
  734MOL0     C98981   1.546   8.210   1.721  0.1668  0.7375 -0.4439
  734MOL0     C98982   1.418   8.180   1.705  0.4942  0.4793  0.4743
  734MOL0     C98983   1.333   8.114   1.797  0.6128  0.5840 -0.9574
  734MOL0     C98984   1.189   8.083   1.765 -0.0331 -0.4218  0.0195
  734MOL0     O98985   1.150   8.088   1.636  0.3055  0.1823 -0.2978
  734MOL0     C98986   1.015   8.049   1.601 -0.1801 -0.3862  0.3758
  734MOL0     C98987   0.938   8.140   1.525 -0.2170  0.0968  1.8310
  734MOL0     C98988   0.797   8.113   1.493 -0.1206  0.3420  0.5304
  734MOL0     C98989   0.730   7.996   1.542  0.6452  0.1057  0.6749
  734MOL0     O98990   0.598   7.980   1.513  0.5275 -0.1867 -0.4654
  734MOL0     C98991   0.531   7.862   1.560  0.1671  0.8584 -0.3042
  734MOL0     C98992   0.394   7.852   1.478 -0.9979  0.4137  0.1517
  734MOL0     C98993   0.334   7.721   1.494 -0.6486  0.2271  0.5597
  734MOL0     C98994   0.301   7.694   1.638  0.3180 -0.2951  0.3017
  734MOL0     C98995   0.251   7.548   1.649  0.1806 -0.6209 -0.7759
  734MOL0     C98996   0.219   7.510   1.793 -0.7594 -1.1550  0.5456
  734MOL0     C98997   0.141   7.378   1.803  0.2061 -0.0709  0.2982
  734MOL0     C98998   0.094   7.355   1.940  0.0889  0.8653  0.0277
  734MOL0    Cl98999  -0.008   7.187   1.948 -0.8239  0.3992  0.3054
  734MOL0     C99000   0.811   7.902   1.621 -0.6396 -0.2608 -0.2607
  734MOL0     C99001   0.947   7.933   1.654 -0.6045 -0.1482  0.5542
  734MOL0     O99002   1.114   8.064   1.854 -0.0157  0.6515  0.4250
  734MOL0     C99003   1.391   8.077   1.920 -0.1764 -0.0332  0.3310
  734MOL0     C99004   1.531   8.105   1.942 -0.5022 -0.3171  0.2836
  734MOL0     N99005   2.211   8.638   1.938  0.0245  0.2141  0.2386
  734MOL0     N99006   2.191   8.765   1.946 -0.3078 -0.3929  0.4577
  734MOL0     C99007   0.836   8.982   1.814 -0.5123 -0.2219  1.0591
  734MOL0     C99008   0.696   8.970   1.826 -0.3538  0.4172 -1.1429
  734MOL0     C99009   0.266   8.842   1.701  0.6772  0.9975  0.1915
  734MOL0     C99010   0.198   8.878   1.818 -0.2639  0.0507  0.5326
  734MOL0     C99011   0.065   8.902   1.805  0.7156  0.5020  0.0527
  734MOL0     C99012  -0.011   8.880   1.694 -0.1603  0.3555 -0.6211
  734MOL0     O99013  -0.146   8.892   1.671  0.2020  0.2829  0.4286
  734MOL0     C99014  -0.228   8.944   1.769 -0.5693  0.4824 -0.5585
  734MOL0     C99015  -0.375   8.942   1.722  0.6538  0.4526  0.7184
  734MOL0     C99016  -0.391   9.037   1.600 -0.3227  0.1226  0.3748
  734MOL0     C99017  -0.545   9.068   1.573 -0.4996  0.2784 -0.3873
  734MOL0     C99018  -0.598   8.971   1.479  0.6134 -0.3261 -0.2472
  734MOL0     C99019  -0.619   8.894   1.392  0.3942 -0.1354  0.7708
  734MOL0     C99020   0.058   8.841   1.573  0.0846  0.2377  0.4500
  734MOL0     C99021   0.199   8.817   1.582  0.2068 -0.7601  0.4705
  734MOL0     C99022   0.279   8.774   1.465 -0.4174  0.1794  0.3779
  734MOL0     H99023   0.622   8.884   1.501 -1.6391 -3.7813  2.3686
  734MOL0     H99024   0.862   8.904   1.481  1.9823 -0.0211  0.0235
  734MOL0     H99025   1.084   9.113   1.809  0.3092 -0.4145  0.0193
  734MOL0     H99026   1.119   8.947   1.843 -0.9203 -0.9045 -0.1771
  734MOL0     H99027   1.271   9.109   1.648 -1.9098 -0.1489 -1.2766
  734MOL0     H99028   1.277   8.933   1.634  1.0719  0.8109 -0.1179
  734MOL0     H99029   1.326   8.940   1.893 -2.0810 -0.0685 -0.9258
  734MOL0     H99030   1.359   9.112   1.862  3.3484 -0.3916  1.2937
  734MOL0     H99031   1.511   8.882   1.709  1.7766 -0.8248  1.0286
  734MOL0     H99032   1.516   9.051   1.680 -0.8187 -0.0962 -0.1477
  734MOL0     H99033   1.619   9.065   1.924 -1.5896 -0.0437  1.0575
  734MOL0     H99034   1.580   8.889   1.945  2.3054 -2.6512 -1.8619
  734MOL0     H99035   1.737   8.829   1.774  3.4634 -0.0892  1.0768
  734MOL0     H99036   1.786   8.986   1.748  1.8967  2.1377  2.1742
  734MOL0     H99037   1.823   8.832   2.010 -2.0406 -1.1998 -2.0761
  734MOL0     H99038   1.836   9.008   2.003 -2.7954  0.0879  1.6798
  734MOL0     H99039   1.993   8.904   1.778  0.7185 -0.5028  0.9257
  734MOL0     H99040   2.045   8.978   1.935 -0.2259  1.5611 -1.8333
  734MOL0     H99041   1.898   8.636   1.867 -0.0611  1.6731  1.9763
  734MOL0     H99042   2.182   8.395   1.815  0.0897  3.1777 -0.7116
  734MOL0     H99043   2.127   8.370   1.980  0.3186  2.2348  1.5555
  734MOL0     H99044   1.889   8.407   1.872  0.0290  1.0296 -1.3278
  734MOL0     H99045   1.962   8.389   1.706  0.3891  1.3528 -0.4901
  734MOL0     H99046   1.957   8.191   1.947  0.0594 -1.3197 -0.7713
  734MOL0     H99047   2.042   8.148   1.790 -2.8848 -2.7862 -4.0902
  734MOL0     H99048   1.831   8.043   1.786  1.1332 -0.2635  1.1715
  734MOL0     H99049   1.818   8.187   1.676 -1.7359  2.3246  1.1311
  734MOL0     H99050   1.611   8.253   1.645  3.2843  0.1725  1.7282
  734MOL0     H99051   1.373   8.207   1.609 -1.0207 -1.8749  0.4472
  734MOL0     H99052   0.993   8.230   1.501  1.3006 -1.3673 -0.6011
  734MOL0     H99053   0.745   8.186   1.431 -1.9206 -2.2017 -1.1669
  734MOL0     H99054   0.592   7.773   1.539 -1.8476 -1.1407  1.6558
  734MOL0     H99055   0.511   7.871   1.668  2.1662  0.0984  0.1681
  734MOL0     H99056   0.325   7.931   1.511  0.1986  0.9313  1.5076
  734MOL0     H99057   0.427   7.874   1.376  3.3760 -2.9695  0.5580
  734MOL0     H99058   0.243   7.722   1.434  1.3431 -0.6278 -2.7138
  734MOL0     H99059   0.402   7.650   1.446 -1.5814  0.1402 -0.6861
  734MOL0     H99060   0.214   7.756   1.664  0.8915  0.6929 -0.0676
  734MOL0     H99061   0.375   7.735   1.707 -0.5253  1.6367  0.1256
  734MOL0     H99062   0.330   7.479   1.618  2.5201  1.2719  0.6611
  734MOL0     H99063   0.161   7.545   1.587  0.3010  0.6963 -1.0460
  734MOL0     H99064   0.317   7.492   1.838 -0.0817 -3.4532 -1.6490
  734MOL0     H99065   0.170   7.589   1.850  0.1271 -0.2158  0.0403
  734MOL0     H99066   0.220   7.305   1.784  0.1390  0.4370 -2.2583
  734MOL0     H99067   0.066   7.362   1.724  0.1204  2.4264 -0.2098
  734MOL0     H99068   0.183   7.356   2.004  1.1214  1.5003 -1.3768
  734MOL0     H99069   0.035   7.438   1.978  1.4607  2.1047 -0.4671
  734MOL0     H99070   0.774   7.811   1.668  1.8959  0.2196  3.0173
  734MOL0     H99071   1.003   7.859   1.711 -1.2979 -3.2906 -2.5137
  734MOL0     H99072   1.328   8.031   1.995  0.2750  1.8722  1.9402
  734MOL0     H99073   1.572   8.077   2.038 -0.7388 -0.1310  0.4381
  734MOL0     H99074   0.904   9.000   1.896  1.8974 -1.7203 -0.4798
  734MOL0     H99075   0.654   8.984   1.926  0.9695 -1.3556 -0.2850
  734MOL0     H99076   0.264   8.882   1.904 -0.5674  1.0860  0.7364
  734MOL0     H99077   0.013   8.939   1.893 -0.9900 -0.6421 -0.4291
  734MOL0     H99078  -0.199   9.049   1.779 -1.0669  0.5123  0.9477
  734MOL0     H99079  -0.219   8.899   1.868 -0.1869  1.4867 -0.1180
  734MOL0     H99080  -0.451   8.971   1.795 -3.0781 -3.2046 -1.3203
  734MOL0     H99081  -0.392   8.838   1.694  0.8089  0.9202 -1.2833
  734MOL0     H99082  -0.347   8.978   1.519 -1.2142 -1.9733  1.3447
  734MOL0     H99083  -0.327   9.123   1.623  1.4143 -1.3587  1.3468
  734MOL0     H99084  -0.605   9.084   1.663 -1.7834 -2.8513 -0.5506
  734MOL0     H99085  -0.547   9.158   1.510 -2.8247 -1.1880 -2.6386
  734MOL0     H99086  -0.632   8.837   1.302 -1.2867  3.0794 -1.2185
  734MOL0     H99087   0.001   8.827   1.482 -2.1978  0.2196  1.7950
  734MOL0     H99088   0.217   8.720   1.393  0.4311 -2.4548  1.4744
  734MOL0     H99089   0.329   8.864   1.427  3.0177 -1.2882  0.9831
  734MOL0     H99090   0.356   8.701   1.493  0.5333  0.0533 -2.2260
  735MOL0     O99091   0.839   1.931   7.074  0.2002  0.5933  0.0408
  735MOL0     C99092   0.819   1.961   6.959  0.6936 -0.2511  0.5693
  735MOL0     O99093   0.917   1.969   6.855  0.1536 -0.7606 -0.1133
  735MOL0     C99094   1.056   1.955   6.875 -0.0924 -0.0473  0.0696
  735MOL0     C99095   1.113   1.860   6.960 -0.6972 -0.0180 -0.0824
  735MOL0     C99096   1.255   1.842   6.967  0.3447  0.4008  0.0621
  735MOL0     C99097   1.340   1.926   6.897 -0.0726  0.3690 -0.3255
  735MOL0     O99098   1.475   1.892   6.913 -0.3578 -0.2039 -0.0893
  735MOL0     C99099   1.569   1.965   6.839  0.0606 -0.1587 -0.1863
  735MOL0     C99100   1.710   1.944   6.893  0.4506  0.3927 -0.4633
  735MOL0     C99101   1.807   2.004   6.794  0.1366 -0.2094  0.4971
  735MOL0     C99102   1.947   1.957   6.831  0.1216 -0.3356 -0.1696
  735MOL0     C99103   2.062   1.999   6.730 -0.5396  0.1515 -0.6883
  735MOL0     C99104   2.192   1.917   6.778 -0.6544 -0.3846 -0.2361
  735MOL0     C99105   2.305   1.963   6.689  0.4887 -0.0952  0.7430
  735MOL0     C99106   2.431   1.903   6.740 -0.1884 -0.0135  0.1401
  735MOL0     N99107   2.541   1.938   6.653  0.1138  0.0849  0.2976
  735MOL0     C99108   2.615   2.051   6.667 -0.7287  0.1139 -0.0444
  735MOL0     C99109   2.713   2.032   6.575  0.0640  0.3657  0.4422
  735MOL0     C99110   2.809   2.139   6.529 -0.2477 -0.0818 -0.1385
  735MOL0     C99111   2.942   2.137   6.605  0.1139  0.2166  0.3468
  735MOL0     C99112   3.038   2.028   6.551 -0.2243 -0.0991  0.0001
  735MOL0     C99113   3.154   2.019   6.652 -0.0561  0.0809 -0.0335
  735MOL0     O99114   3.213   2.146   6.654 -0.4098  0.1782  0.2278
  735MOL0     C99115   3.298   2.204   6.550  0.7615 -0.2099 -0.9234
  735MOL0     C99116   3.384   2.122   6.472  0.8102  0.9200  0.2631
  735MOL0     C99117   3.452   2.174   6.361 -0.4824  0.2514 -0.7932
  735MOL0     C99118   3.442   2.309   6.325  0.5045 -0.1178 -0.1917
  735MOL0     C99119   3.520   2.368   6.220 -0.0636  0.0084 -0.1523
  735MOL0     O99120   3.491   2.487   6.179 -0.9902  0.1485  0.1339
  735MOL0     C99121   3.586   2.564   6.126 -0.5143 -0.3137 -0.4168
  735MOL0     C99122   3.573   2.607   5.996  0.4276  0.8173  0.0533
  735MOL0     C99123   3.679   2.669   5.929 -0.1161  0.8271  1.0996
  735MOL0     C99124   3.794   2.713   5.991 -0.3109  0.5278 -0.1677
  735MOL0     O99125   3.907   2.765   5.926  0.5482  0.0768 -0.4238
  735MOL0     C99126   3.898   2.821   5.803 -0.9611  0.7982 -0.1351
  735MOL0     C99127   4.042   2.863   5.754 -0.7027 -0.2148  0.8715
  735MOL0     C99128   4.140   2.743   5.775 -0.5300  0.4939  0.0000
  735MOL0     C99129   4.255   2.782   5.681  0.2885  0.7489 -0.6264
  735MOL0     C99130   4.350   2.664   5.663 -0.2928 -0.0353 -0.1457
  735MOL0     C99131   4.495   2.707   5.615  0.3403  0.8283 -0.4475
  735MOL0     C99132   4.585   2.588   5.586  0.7147  0.3097 -0.9614
  735MOL0     C99133   4.534   2.492   5.475  0.6069 -0.1919 -0.1839
  735MOL0    Cl99134   4.425   2.567   5.361  0.2660 -0.0274  0.5370
  735MOL0     C99135   3.807   2.679   6.127  0.2847 -0.3357  0.0478
  735MOL0     C99136   3.706   2.601   6.189 -0.0237 -0.4344 -0.1759
  735MOL0     O99137   3.620   2.304   6.177 -0.3530  0.1580  0.2278
  735MOL0     C99138   3.359   2.390   6.402  0.7585 -0.9229 -0.3542
  735MOL0     C99139   3.286   2.342   6.510 -0.0474  0.5758 -0.2753
  735MOL0     N99140   2.688   1.922   6.501  0.0939  0.7849 -0.5445
  735MOL0     N99141   2.583   1.855   6.553  0.0746 -0.0208  0.1047
  735MOL0     C99142   1.285   2.015   6.802 -0.4323  0.3892 -0.0823
  735MOL0     C99143   1.144   2.027   6.790  0.5510  0.6125  0.1654
  735MOL0     C99144   0.683   2.006   6.923  0.5912  0.7199  0.3747
  735MOL0     C99145   0.667   2.084   6.800 -0.2663  0.2101 -1.0701
  735MOL0     C99146   0.550   2.151   6.761  0.7599 -0.1876  0.3249
  735MOL0     C99147   0.432   2.130   6.837 -0.8810 -0.1131  0.4024
  735MOL0     O99148   0.318   2.194   6.790  0.0964  0.3201  0.2353
  735MOL0     C99149   0.204   2.187   6.872 -0.4250  0.0283 -0.5481
  735MOL0     C99150   0.103   2.287   6.824  1.3994  1.0296  0.1672
  735MOL0     C99151   0.013   2.228   6.715  0.2471 -0.6825  0.0996
  735MOL0     C99152   0.096   2.197   6.592  0.2042 -0.0571  0.0520
  735MOL0     C99153   0.015   2.175   6.468 -0.3641 -0.0030  0.9289
  735MOL0     C99154  -0.050   2.155   6.365  0.2288 -0.3651  0.0226
  735MOL0     C99155   0.435   2.035   6.942 -0.3394 -1.0638 -0.0691
  735MOL0     C99156   0.558   1.974   6.992 -0.4870 -0.8546 -0.3981
  735MOL0     C99157   0.550   1.881   7.111  0.1695 -0.4289  0.2894
  735MOL0     H99158   1.048   1.795   7.017 -1.8715  0.3335 -0.9880
  735MOL0     H99159   1.300   1.757   7.019  2.5794  1.4290 -0.0842
  735MOL0     H99160   1.570   1.933   6.734  1.0600 -5.0013  1.0495
  735MOL0     H99161   1.553   2.073   6.847 -0.8785 -0.2669 -0.5478
  735MOL0     H99162   1.735   1.838   6.903 -0.0062  0.4099  1.0787
  735MOL0     H99163   1.712   1.977   6.998  0.8081 -1.7029  0.2284
  735MOL0     H99164   1.804   2.113   6.803  1.8949  0.0768 -1.6521
  735MOL0     H99165   1.775   1.980   6.692 -2.2509  1.0691  0.8836
  735MOL0     H99166   1.980   1.973   6.934 -2.7637 -0.6852  0.8979
  735MOL0     H99167   1.939   1.849   6.813 -0.8079  0.3903 -5.8160
  735MOL0     H99168   2.036   1.972   6.627 -0.3939 -2.6028 -0.0711
  735MOL0     H99169   2.074   2.107   6.740  0.2779 -0.0218  0.4510
  735MOL0     H99170   2.216   1.945   6.881  0.9128  3.1010 -1.3899
  735MOL0     H99171   2.186   1.808   6.779  0.3331 -0.4926  2.4254
  735MOL0     H99172   2.318   2.072   6.690 -1.5107  0.1889  0.0250
  735MOL0     H99173   2.279   1.938   6.586 -1.9047  2.2599  0.6807
  735MOL0     H99174   2.460   1.931   6.842  1.3330  0.6507 -0.4405
  735MOL0     H99175   2.438   1.794   6.744  0.0079 -0.0802 -1.4995
  735MOL0     H99176   2.604   2.137   6.733 -1.2107  0.6768 -0.8317
  735MOL0     H99177   2.822   2.142   6.421  1.1874  3.0855  0.0102
  735MOL0     H99178   2.771   2.236   6.562 -0.7400  0.0612 -1.0861
  735MOL0     H99179   2.986   2.231   6.570  1.2769 -0.5291 -0.2309
  735MOL0     H99180   2.928   2.116   6.711  3.7765 -1.5629  0.6145
  735MOL0     H99181   3.077   2.063   6.455 -0.3869  2.4846  0.8052
  735MOL0     H99182   2.992   1.930   6.534  2.2184 -0.8084 -3.9687
  735MOL0     H99183   3.216   1.937   6.616 -0.7719 -0.6812  0.4349
  735MOL0     H99184   3.126   1.984   6.752  1.6911 -0.6916  0.2214
  735MOL0     H99185   3.397   2.016   6.491  1.4716  0.6704 -1.4388
  735MOL0     H99186   3.512   2.106   6.302  1.6281  1.1311  0.2269
  735MOL0     H99187   3.485   2.588   5.934  1.7018  0.7524 -1.8235
  735MOL0     H99188   3.653   2.686   5.825 -0.3673  1.4853  1.2665
  735MOL0     H99189   3.865   2.746   5.731 -1.7855  1.2919 -0.2845
  735MOL0     H99190   3.833   2.908   5.814 -1.1571  0.5624  0.6482
  735MOL0     H99191   4.024   2.889   5.650 -0.8575  1.5672  1.3132
  735MOL0     H99192   4.083   2.953   5.800 -0.5962  1.0025 -1.4985
  735MOL0     H99193   4.170   2.742   5.881  3.3113 -0.5548 -0.9362
  735MOL0     H99194   4.094   2.648   5.746 -2.1530  1.3051 -0.2399
  735MOL0     H99195   4.310   2.856   5.740  1.1103  1.8474 -2.6949
  735MOL0     H99196   4.219   2.832   5.591  0.0836 -1.1206 -1.6225
  735MOL0     H99197   4.304   2.594   5.592  0.0807  0.1849 -0.6097
  735MOL0     H99198   4.357   2.609   5.757 -1.2087 -0.4937 -0.3285
  735MOL0     H99199   4.492   2.773   5.528 -0.1772 -2.0343 -2.7327
  735MOL0     H99200   4.544   2.760   5.698  2.0445 -1.1120 -0.1428
  735MOL0     H99201   4.613   2.538   5.679 -0.4847  0.3371 -0.5753
  735MOL0     H99202   4.676   2.637   5.549  1.8862 -0.7946  0.3723
  735MOL0     H99203   4.620   2.455   5.418 -0.3656 -2.8643 -0.0786
  735MOL0     H99204   4.485   2.409   5.528  1.5632 -0.0334  1.0073
  735MOL0     H99205   3.905   2.698   6.168 -0.1231  1.7318  0.1526
  735MOL0     H99206   3.710   2.574   6.294 -0.0616 -1.2324 -0.3719
  735MOL0     H99207   3.354   2.495   6.374 -1.5225 -0.8992  0.0083
  735MOL0     H99208   3.221   2.406   6.568 -0.0439  0.0614  0.3030
  735MOL0     H99209   1.363   2.054   6.737  1.1134  3.4149  3.2465
  735MOL0     H99210   1.098   2.088   6.713  0.4996  0.5466  0.1447
  735MOL0     H99211   0.752   2.104   6.736  1.5534 -0.7339  0.9344
  735MOL0     H99212   0.567   2.207   6.670  0.6091  2.4321  1.8030
  735MOL0     H99213   0.245   2.233   6.963  1.9048 -0.0582 -1.4893
  735MOL0     H99214   0.169   2.085   6.890  0.6618 -0.3261 -0.3804
  735MOL0     H99215   0.139   2.387   6.801 -0.3949  1.4247 -1.1600
  735MOL0     H99216   0.029   2.297   6.904 -0.9755  0.3669 -1.8084
  735MOL0     H99217  -0.074   2.292   6.696  0.6027 -0.3009 -0.2581
  735MOL0     H99218  -0.027   2.132   6.748 -1.9094  0.3226  0.5600
  735MOL0     H99219   0.171   2.276   6.584  0.1703  0.3533  2.8901
  735MOL0     H99220   0.142   2.102   6.619  0.2957  0.4076  1.5975
  735MOL0     H99221  -0.112   2.129   6.281 -3.0699 -0.3697  2.2423
  735MOL0     H99222   0.341   2.022   6.995 -2.0920  1.2267 -2.3949
  735MOL0     H99223   0.611   1.794   7.086 -1.2914 -2.3749  2.9178
  735MOL0     H99224   0.588   1.936   7.198  2.3616  1.1538 -1.5649
  735MOL0     H99225   0.453   1.832   7.128  0.8334 -1.7860  0.3109
  736MOL0     O99226   3.503   2.479   5.675  0.3117 -0.2089  0.2693
  736MOL0     C99227   3.489   2.368   5.726 -0.2567  0.0563 -0.5183
  736MOL0     O99228   3.565   2.263   5.697 -0.3446 -0.3285 -0.7512
  736MOL0     C99229   3.695   2.286   5.646 -0.3801 -0.3300 -0.3370
  736MOL0     C99230   3.733   2.237   5.520 -0.0036  0.1224 -0.5430
  736MOL0     C99231   3.861   2.264   5.481  0.1929 -0.2557  0.1527
  736MOL0     C99232   3.953   2.336   5.557  0.1923 -1.0100  1.4134
  736MOL0     O99233   4.081   2.355   5.501  0.9189  0.1883  0.2449
  736MOL0     C99234   4.070   2.447   5.388 -0.2643 -1.3294 -0.3303
  736MOL0     C99235   4.086   2.388   5.248 -0.1221  1.0474  0.2670
  736MOL0     C99236   4.193   2.272   5.252  0.3861 -0.0396  0.2534
  736MOL0     C99237   4.204   2.194   5.115  0.4229 -0.3349  0.4820
  736MOL0     C99238   4.264   2.056   5.129  0.1861 -1.3778  0.0351
  736MOL0     C99239   4.298   2.008   4.988 -0.3296  0.9162 -0.0530
  736MOL0     C99240   4.358   1.870   4.989  0.6224  0.4936  0.5035
  736MOL0     C99241   4.434   1.832   4.859 -0.3362  0.0735  0.3206
  736MOL0     N99242   4.566   1.897   4.851 -0.1224 -0.2464 -0.2732
  736MOL0     C99243   4.673   1.857   4.925  0.2400 -0.2100 -0.2168
  736MOL0     C99244   4.780   1.914   4.853 -0.1286  0.4917 -0.0615
  736MOL0     C99245   4.930   1.912   4.889 -0.4826 -0.1306 -0.2305
  736MOL0     C99246   5.002   2.029   4.812  0.3665 -0.2340 -0.2713
  736MOL0     C99247   5.134   2.067   4.885 -0.3052 -0.7592 -0.4317
  736MOL0     C99248   5.230   1.955   4.923  0.2290  0.2056 -0.0083
  736MOL0     O99249   5.298   2.001   5.043  0.1146 -0.2003  0.6739
  736MOL0     C99250   5.434   1.976   5.055 -0.1077  0.3664 -0.0599
  736MOL0     C99251   5.500   1.848   5.026  0.9757  0.6637  1.0607
  736MOL0     C99252   5.631   1.839   5.027  0.0275 -0.6336 -0.1047
  736MOL0     C99253   5.717   1.954   5.056  0.3864  0.4576 -0.1061
  736MOL0     C99254   5.866   1.941   5.053 -0.3367  0.5838 -0.2741
  736MOL0     O99255   5.938   2.026   5.144 -0.5230  0.1339  0.3570
  736MOL0     C99256   6.075   2.005   5.150  0.1653  0.3708  1.1156
  736MOL0     C99257   6.158   2.045   5.046  0.2077  0.9399 -0.4769
  736MOL0     C99258   6.301   2.030   5.065  1.1497  0.4593 -0.5166
  736MOL0     C99259   6.357   1.962   5.170  0.6072 -0.8297 -0.1157
  736MOL0     O99260   6.491   1.933   5.183  0.3122 -0.3437 -0.5830
  736MOL0     C99261   6.584   1.999   5.093 -0.3636  1.2893  0.7561
  736MOL0     C99262   6.724   1.951   5.139 -0.2302 -0.3404 -1.1899
  736MOL0     C99263   6.828   2.003   5.040 -0.3002 -1.2381 -0.4281
  736MOL0     C99264   6.972   1.963   5.086 -0.5788 -0.1405  0.1741
  736MOL0     C99265   7.076   2.046   5.009  0.4347  0.1100  0.2426
  736MOL0     C99266   7.213   2.026   5.064 -0.3067  0.0334  0.7721
  736MOL0     C99267   7.285   1.886   5.045  0.0362 -0.2138  0.2452
  736MOL0     C99268   7.403   1.854   5.137 -0.4315 -0.4875 -1.2779
  736MOL0    Cl99269   7.543   1.973   5.102  0.6686 -0.1425 -0.3957
  736MOL0     C99270   6.263   1.903   5.260 -1.1519 -0.1961 -0.1006
  736MOL0     C99271   6.126   1.930   5.255  0.5281  0.0639  0.2963
  736MOL0     O99272   5.916   1.851   4.981  0.2300 -0.3722 -0.0358
  736MOL0     C99273   5.655   2.076   5.088 -1.1273 -0.0754 -1.0952
  736MOL0     C99274   5.517   2.085   5.087  0.2569  0.1963  0.4035
  736MOL0     N99275   4.722   1.985   4.750  0.5365  0.0018  0.6163
  736MOL0     N99276   4.597   1.979   4.746 -0.2157  0.3180 -0.3333
  736MOL0     C99277   3.906   2.394   5.673  0.8742 -0.0052  0.3037
  736MOL0     C99278   3.781   2.366   5.724  0.7341 -0.3115 -0.2522
  736MOL0     C99279   3.375   2.349   5.825 -0.0764 -0.6319  0.3544
  736MOL0     C99280   3.273   2.446   5.833 -0.0210  0.5725  0.2034
  736MOL0     C99281   3.166   2.440   5.921 -0.2997 -0.1703 -0.1219
  736MOL0     C99282   3.151   2.330   5.998 -0.0281 -0.2667 -1.1295
  736MOL0     O99283   3.039   2.327   6.077  0.0520  0.4348 -0.3133
  736MOL0     C99284   3.006   2.211   6.146  0.5857 -0.7139  0.4276
  736MOL0     C99285   2.946   2.094   6.061 -0.3963  0.1283 -0.4477
  736MOL0     C99286   2.837   2.142   5.969  0.2450 -0.1063  0.4100
  736MOL0     C99287   2.791   2.033   5.863  0.5290 -0.7115  0.3270
  736MOL0     C99288   2.733   1.911   5.917 -0.2396  0.7400 -0.1318
  736MOL0     C99289   2.683   1.809   5.956  0.0080 -0.0872  0.1829
  736MOL0     C99290   3.247   2.218   5.987 -0.4715  0.9483  0.5019
  736MOL0     C99291   3.360   2.232   5.899 -0.0360  0.1873 -0.5819
  736MOL0     C99292   3.460   2.113   5.911 -0.7754 -0.1225 -0.9336
  736MOL0     H99293   3.670   2.167   5.467  1.3889 -1.9552  0.4275
  736MOL0     H99294   3.919   2.226   5.398  0.7265  3.6065 -1.4273
  736MOL0     H99295   3.975   2.500   5.388  0.5060  0.0924 -0.1239
  736MOL0     H99296   4.155   2.515   5.398 -0.0561 -1.7670  1.2599
  736MOL0     H99297   4.115   2.470   5.181 -0.9926  1.2511  0.1299
  736MOL0     H99298   3.987   2.353   5.216 -0.0251 -0.9659  1.9671
  736MOL0     H99299   4.169   2.205   5.335  1.3051  0.0232  0.5870
  736MOL0     H99300   4.292   2.316   5.270 -0.5856  2.5624 -0.3166
  736MOL0     H99301   4.104   2.182   5.073  0.5882 -1.9774  0.5049
  736MOL0     H99302   4.261   2.252   5.042 -0.8315  0.0520 -0.2164
  736MOL0     H99303   4.357   2.065   5.185 -0.5544  2.1070  0.9698
  736MOL0     H99304   4.195   1.985   5.175 -1.9404 -0.7682 -1.9873
  736MOL0     H99305   4.210   2.006   4.923  0.1818 -2.8031 -0.8517
  736MOL0     H99306   4.371   2.078   4.945  0.2054  1.7474  2.0860
  736MOL0     H99307   4.272   1.805   5.008  1.9496 -1.2996  0.6231
  736MOL0     H99308   4.427   1.851   5.072  0.0992 -1.7743  0.4910
  736MOL0     H99309   4.447   1.725   4.842 -1.0679  0.2631 -1.7902
  736MOL0     H99310   4.378   1.866   4.771  1.7432  1.3157 -0.6024
  736MOL0     H99311   4.661   1.787   5.008  1.3275 -0.0633  0.0859
  736MOL0     H99312   4.944   1.920   4.997 -1.2123 -0.7397 -0.0800
  736MOL0     H99313   4.974   1.816   4.860 -0.8144 -0.1120 -0.8198
  736MOL0     H99314   5.031   1.996   4.711  2.0528 -1.0147  0.4356
  736MOL0     H99315   4.945   2.123   4.811  0.7360  0.0692  1.9874
  736MOL0     H99316   5.120   2.136   4.968  1.1289  0.5960 -1.2667
  736MOL0     H99317   5.184   2.130   4.811  2.0248  0.9221  2.3974
  736MOL0     H99318   5.302   1.923   4.846 -0.3062 -2.4977  0.5138
  736MOL0     H99319   5.168   1.865   4.930  0.8538 -0.1480  1.4117
  736MOL0     H99320   5.437   1.762   5.009  1.1699  0.2073  2.5043
  736MOL0     H99321   5.663   1.737   5.008 -1.2424 -1.2838  1.1519
  736MOL0     H99322   6.118   2.096   4.959 -2.5367  1.8593  1.1901
  736MOL0     H99323   6.360   2.083   4.990  2.7244 -0.8957 -0.2885
  736MOL0     H99324   6.573   1.954   4.993  0.9699  0.8520  0.7870
  736MOL0     H99325   6.576   2.108   5.093 -0.5440  1.3136 -1.0659
  736MOL0     H99326   6.753   1.971   5.243 -0.5820 -1.8682 -0.7793
  736MOL0     H99327   6.725   1.842   5.138 -1.2507 -0.4412  1.3360
  736MOL0     H99328   6.808   1.961   4.941  1.3456  1.5615 -2.0587
  736MOL0     H99329   6.826   2.112   5.038  1.9175 -1.0839  1.5158
  736MOL0     H99330   6.989   1.857   5.068 -0.1066  0.4768 -4.2268
  736MOL0     H99331   6.987   1.981   5.193  2.7589  0.2824 -0.2729
  736MOL0     H99332   7.050   2.150   5.027  0.5950  0.1425  0.2804
  736MOL0     H99333   7.070   2.030   4.901  0.1115  4.3929 -0.5358
  736MOL0     H99334   7.272   2.104   5.016  0.2182 -0.3013  0.8657
  736MOL0     H99335   7.200   2.055   5.168 -2.5688 -1.5991  1.0186
  736MOL0     H99336   7.325   1.878   4.943 -0.2921  1.1458 -0.0003
  736MOL0     H99337   7.206   1.810   5.056 -0.3715  0.3985  1.8611
  736MOL0     H99338   7.370   1.866   5.241 -0.0359  0.7680 -1.2765
  736MOL0     H99339   7.444   1.756   5.114  0.9582 -0.5272  1.0587
  736MOL0     H99340   6.305   1.846   5.342 -2.1318 -1.6746 -0.5922
  736MOL0     H99341   6.059   1.875   5.321 -0.8393 -0.4188 -1.4266
  736MOL0     H99342   5.717   2.162   5.108  1.2135 -1.6468 -1.1663
  736MOL0     H99343   5.460   2.177   5.097  1.0041  1.1635 -2.9037
  736MOL0     H99344   3.976   2.453   5.732  0.4450 -0.4093  1.2424
  736MOL0     H99345   3.740   2.391   5.822 -1.9922  1.0056 -1.6108
  736MOL0     H99346   3.283   2.533   5.767 -4.8813 -0.2263 -1.9919
  736MOL0     H99347   3.087   2.514   5.923  1.7709  2.2036 -1.3734
  736MOL0     H99348   2.920   2.230   6.211 -0.0675 -2.8261  0.2764
  736MOL0     H99349   3.086   2.185   6.216  0.1913  1.9910  2.0177
  736MOL0     H99350   2.914   2.017   6.132 -0.3262 -0.9072 -1.5110
  736MOL0     H99351   3.016   2.044   5.992  0.7029  2.1288 -0.8422
  736MOL0     H99352   2.865   2.224   5.902  1.3371 -1.1349 -0.4294
  736MOL0     H99353   2.758   2.189   6.029  1.1724  1.9700  0.0871
  736MOL0     H99354   2.715   2.077   5.799  0.4299  0.3122  1.1188
  736MOL0     H99355   2.869   2.004   5.793  0.1480 -2.2540  0.5075
  736MOL0     H99356   2.621   1.725   5.982 -0.7786  0.5425  0.3845
  736MOL0     H99357   3.240   2.126   6.043  0.9753  1.0888  0.9587
  736MOL0     H99358   3.414   2.039   5.978 -0.3055  1.6963  1.5272
  736MOL0     H99359   3.487   2.064   5.817 -0.4597  1.2996 -1.6093
  736MOL0     H99360   3.551   2.145   5.961  0.4165 -2.6407 -1.3602
  737MOL0     O99361   0.251   6.405   5.172  1.0969  0.5197 -0.3459
  737MOL0     C99362   0.171   6.480   5.121  0.4721 -0.3577 -0.1497
  737MOL0     O99363   0.167   6.517   4.990 -0.4592  0.6942  0.7073
  737MOL0     C99364   0.274   6.511   4.908  0.1107  0.5149 -0.9871
  737MOL0     C99365   0.297   6.610   4.814 -0.7993  0.1782  0.2879
  737MOL0     C99366   0.412   6.618   4.733 -1.1719  0.0349  0.2103
  737MOL0     C99367   0.508   6.518   4.732 -0.2433 -0.3409  1.1398
  737MOL0     O99368   0.622   6.521   4.652 -0.2130 -0.3626  0.7600
  737MOL0     C99369   0.658   6.642   4.582  0.0851  0.5771  0.2371
  737MOL0     C99370   0.778   6.616   4.498 -0.1989  0.2177  0.2246
  737MOL0     C99371   0.905   6.583   4.581 -0.1868 -0.4590  1.3413
  737MOL0     C99372   1.043   6.639   4.526  0.5421 -0.3064  0.7017
  737MOL0     C99373   1.156   6.565   4.594 -0.6131  0.7203  0.3181
  737MOL0     C99374   1.296   6.633   4.575  0.7594  0.4371  0.6541
  737MOL0     C99375   1.418   6.567   4.636  1.0570  0.4592 -1.2854
  737MOL0     C99376   1.546   6.656   4.627 -0.4290  0.7073  0.1647
  737MOL0     N99377   1.674   6.593   4.662 -0.2565 -0.2308 -0.1774
  737MOL0     C99378   1.723   6.479   4.606 -0.5763 -0.2105  1.2068
  737MOL0     C99379   1.833   6.445   4.671  0.4170  0.4814 -0.4037
  737MOL0     C99380   1.920   6.329   4.645 -1.2198  0.8815  1.1836
  737MOL0     C99381   1.984   6.370   4.510  0.0708 -0.0810  0.3656
  737MOL0     C99382   2.100   6.281   4.472  0.3949 -0.5337  1.0989
  737MOL0     C99383   2.173   6.327   4.345  0.4091 -0.9719  0.6408
  737MOL0     O99384   2.274   6.219   4.314 -0.0736  0.1333 -0.5343
  737MOL0     C99385   2.388   6.214   4.401 -0.7327  0.1472  1.4525
  737MOL0     C99386   2.435   6.087   4.430  0.6124 -0.4952  0.4910
  737MOL0     C99387   2.546   6.081   4.510 -0.1791  0.0069 -0.0018
  737MOL0     C99388   2.618   6.196   4.555  0.1457 -0.3950 -0.5358
  737MOL0     C99389   2.748   6.188   4.618 -0.7221 -0.1143 -0.6405
  737MOL0     O99390   2.792   6.305   4.683  0.0207 -0.3341 -0.3570
  737MOL0     C99391   2.866   6.284   4.793 -0.0580 -0.1937 -0.0713
  737MOL0     C99392   2.820   6.221   4.917  0.3255 -0.6142 -0.0249
  737MOL0     C99393   2.916   6.196   5.010  0.0402  0.8675 -0.5633
  737MOL0     C99394   3.050   6.250   5.015 -0.1060  0.0602  0.4136
  737MOL0     O99395   3.134   6.233   5.115  0.1980 -0.2482  0.4903
  737MOL0     C99396   3.085   6.159   5.226 -0.4829  0.0091 -0.2589
  737MOL0     C99397   3.191   6.195   5.334  0.2760 -0.4759 -0.7833
  737MOL0     C99398   3.321   6.129   5.319 -0.3455  0.0432  0.2304
  737MOL0     C99399   3.435   6.175   5.420  0.5533 -0.8342  0.5221
  737MOL0     C99400   3.540   6.068   5.442 -0.7994 -0.1673 -0.5496
  737MOL0     C99401   3.655   6.122   5.522  0.0471 -0.1935 -0.0997
  737MOL0     C99402   3.762   6.021   5.572  0.6566 -0.2285 -0.4631
  737MOL0     C99403   3.892   6.085   5.605 -0.3309 -0.0172 -0.0401
  737MOL0    Cl99404   3.986   5.962   5.697  0.6130  0.4023 -0.2034
  737MOL0     C99405   3.084   6.324   4.899  1.4986  0.4225 -0.1331
  737MOL0     C99406   2.998   6.331   4.788  0.2027 -0.2097 -0.3327
  737MOL0     O99407   2.799   6.080   4.631  0.3097  0.5664 -0.2313
  737MOL0     C99408   2.567   6.327   4.517  0.1436 -0.4871  0.6055
  737MOL0     C99409   2.452   6.337   4.447  0.1912  0.2262 -0.3554
  737MOL0     N99410   1.847   6.530   4.775 -0.3764 -0.4100 -0.4032
  737MOL0     N99411   1.757   6.625   4.764  0.3665  0.2965  0.1136
  737MOL0     C99412   0.487   6.411   4.827 -0.2603 -0.1993  0.4713
  737MOL0     C99413   0.375   6.417   4.918  0.3687  0.1517 -0.1257
  737MOL0     C99414   0.072   6.546   5.219 -0.1872  0.6353  0.6301
  737MOL0     C99415  -0.055   6.565   5.165 -0.6195 -0.2269  0.1426
  737MOL0     C99416  -0.156   6.627   5.243 -0.8200  0.4309  0.4793
  737MOL0     C99417  -0.136   6.668   5.382 -0.2246 -0.0255  0.7067
  737MOL0     O99418  -0.227   6.726   5.464  0.2523  0.3907  0.1092
  737MOL0     C99419  -0.322   6.818   5.402  0.2613  0.5659 -0.3276
  737MOL0     C99420  -0.395   6.906   5.508  0.2658  0.2956  0.3474
  737MOL0     C99421  -0.293   7.006   5.554  1.1063 -0.1653 -0.2608
  737MOL0     C99422  -0.351   7.090   5.663 -0.0880 -0.8640 -0.1505
  737MOL0     C99423  -0.429   7.208   5.610 -0.0742  1.0544  0.5403
  737MOL0     C99424  -0.515   7.291   5.591 -0.3482 -0.1414 -0.5257
  737MOL0     C99425   0.002   6.650   5.426 -0.9962  0.5865  0.4356
  737MOL0     C99426   0.104   6.589   5.351  0.3884 -0.0700  0.1952
  737MOL0     C99427   0.234   6.562   5.421 -1.1667  0.0898  0.2594
  737MOL0     H99428   0.222   6.688   4.808 -0.6745  0.1931 -1.3116
  737MOL0     H99429   0.412   6.705   4.668 -1.5631  1.0433  1.5112
  737MOL0     H99430   0.578   6.673   4.514  1.0131  0.6989 -0.8309
  737MOL0     H99431   0.691   6.719   4.653 -1.6028  0.9201  0.6822
  737MOL0     H99432   0.801   6.700   4.433  0.2592 -0.6032 -0.7026
  737MOL0     H99433   0.754   6.529   4.435  0.6672 -0.9094  1.3861
  737MOL0     H99434   0.907   6.474   4.585  2.6300 -0.5297  0.2284
  737MOL0     H99435   0.896   6.608   4.687  1.9552  0.6857  1.3032
  737MOL0     H99436   1.052   6.627   4.418 -0.2116 -1.3911  0.7377
  737MOL0     H99437   1.051   6.748   4.531 -2.3200  0.1818 -1.9893
  737MOL0     H99438   1.141   6.568   4.702 -3.6534  0.5510 -0.0218
  737MOL0     H99439   1.165   6.460   4.562  0.3398  0.4407  1.4468
  737MOL0     H99440   1.320   6.645   4.469 -0.7615  3.2767  0.5535
  737MOL0     H99441   1.284   6.734   4.614 -0.6848  0.9042 -0.8817
  737MOL0     H99442   1.439   6.468   4.596  1.6578 -2.0801  4.2704
  737MOL0     H99443   1.397   6.549   4.742  1.1008  2.5788 -0.8829
  737MOL0     H99444   1.561   6.692   4.525 -1.0867 -1.3584 -0.7083
  737MOL0     H99445   1.533   6.735   4.702 -1.3492 -2.2671  3.4064
  737MOL0     H99446   1.678   6.417   4.528 -3.7328 -0.2233  2.8560
  737MOL0     H99447   1.994   6.308   4.723 -0.5157 -1.7541 -0.0947
  737MOL0     H99448   1.864   6.236   4.629  0.2951  0.1237  0.0491
  737MOL0     H99449   1.912   6.369   4.428 -1.4700  4.0492  1.3951
  737MOL0     H99450   2.013   6.476   4.506  1.9131 -0.5932 -2.0637
  737MOL0     H99451   2.082   6.175   4.454  1.1471 -0.7383  1.5323
  737MOL0     H99452   2.173   6.288   4.553  0.4596 -1.1335  1.0972
  737MOL0     H99453   2.209   6.430   4.356  1.4351 -1.2032 -0.3736
  737MOL0     H99454   2.108   6.334   4.258  2.5060  1.6094 -0.8835
  737MOL0     H99455   2.391   6.000   4.382 -2.3443  0.9854  0.2826
  737MOL0     H99456   2.600   5.990   4.536 -2.6056 -1.1971  1.2504
  737MOL0     H99457   2.716   6.194   4.931 -1.6837  4.5604 -2.3346
  737MOL0     H99458   2.889   6.126   5.089 -0.1845 -0.3630 -1.6845
  737MOL0     H99459   2.996   6.197   5.276 -0.1677  2.2465 -1.2588
  737MOL0     H99460   3.067   6.057   5.192 -0.4295  0.0659 -0.4591
  737MOL0     H99461   3.195   6.304   5.330  0.2081 -0.4354 -0.0235
  737MOL0     H99462   3.143   6.167   5.428 -1.5687 -2.2999 -2.1896
  737MOL0     H99463   3.295   6.023   5.314 -3.6327  0.7749 -1.1446
  737MOL0     H99464   3.361   6.156   5.220  2.9720 -0.4669  1.2920
  737MOL0     H99465   3.397   6.190   5.522 -0.3594 -0.4209  0.1301
  737MOL0     H99466   3.468   6.273   5.385 -3.1275  0.9646  1.5189
  737MOL0     H99467   3.575   6.050   5.341  0.1519  2.0618 -0.6652
  737MOL0     H99468   3.491   5.981   5.488 -1.0032  0.2816  0.1077
  737MOL0     H99469   3.700   6.206   5.468  0.5103 -0.1451  0.3535
  737MOL0     H99470   3.611   6.156   5.616  0.2931  0.6831 -0.2932
  737MOL0     H99471   3.780   5.935   5.507 -1.2557 -1.4230  0.5396
  737MOL0     H99472   3.713   5.982   5.661  0.6245 -0.3294 -0.5240
  737MOL0     H99473   3.949   6.114   5.517  2.2519  0.6647  1.7372
  737MOL0     H99474   3.873   6.168   5.674 -1.2178  0.2299 -0.5625
  737MOL0     H99475   3.183   6.367   4.895  2.3886 -1.6223 -2.2094
  737MOL0     H99476   3.056   6.367   4.703  1.2801  0.7450  0.7585
  737MOL0     H99477   2.620   6.413   4.554  1.1083 -0.5469 -0.5579
  737MOL0     H99478   2.414   6.434   4.417  3.4484  1.7133 -0.1082
  737MOL0     H99479   0.557   6.331   4.848  1.4758  1.3712  1.0339
  737MOL0     H99480   0.373   6.339   4.994  0.4496 -2.9200 -3.0680
  737MOL0     H99481  -0.082   6.547   5.061  1.7357  0.9930 -0.7371
  737MOL0     H99482  -0.253   6.637   5.196  0.0938 -0.2013 -1.6536
  737MOL0     H99483  -0.393   6.765   5.337 -0.5961  0.6270  0.5289
  737MOL0     H99484  -0.272   6.885   5.332 -0.2983 -0.1039 -1.3931
  737MOL0     H99485  -0.436   6.838   5.584  1.9817  0.8120  1.8042
  737MOL0     H99486  -0.478   6.964   5.466 -0.1076  0.2318  0.9725
  737MOL0     H99487  -0.252   7.074   5.479  0.4707 -0.8390 -1.2502
  737MOL0     H99488  -0.213   6.940   5.591 -0.5311 -1.4954  1.1045
  737MOL0     H99489  -0.402   7.033   5.741 -0.2861 -1.9782 -1.0679
  737MOL0     H99490  -0.260   7.138   5.701  1.2779 -0.5228 -3.4824
  737MOL0     H99491  -0.578   7.374   5.564 -0.1866 -0.5180 -2.1761
  737MOL0     H99492   0.030   6.698   5.519  0.4657  2.9316 -1.0902
  737MOL0     H99493   0.260   6.627   5.505  1.4700 -0.5970  0.0813
  737MOL0     H99494   0.224   6.460   5.458 -3.8963  0.5797  1.1250
  737MOL0     H99495   0.319   6.571   5.352  0.0062 -4.1555  0.8992
  738MOL0     O99496   6.615   4.579   8.546 -0.6584 -0.6385 -0.0068
  738MOL0     C99497   6.658   4.588   8.427  0.3846 -0.4447 -0.0202
  738MOL0     O99498   6.592   4.530   8.315 -0.7924 -0.2981  0.5567
  738MOL0     C99499   6.454   4.513   8.333  0.0093  0.3896  0.2452
  738MOL0     C99500   6.394   4.399   8.283  0.0754  0.2093 -0.1406
  738MOL0     C99501   6.252   4.378   8.297 -0.7846  0.1949 -0.3422
  738MOL0     C99502   6.176   4.481   8.352 -0.4201  0.0915 -1.4584
  738MOL0     O99503   6.041   4.468   8.372  0.2031  0.5946 -0.6381
  738MOL0     C99504   6.001   4.380   8.477 -0.0936  0.0943  0.2761
  738MOL0     C99505   5.860   4.319   8.455 -0.1546 -0.1245  0.3509
  738MOL0     C99506   5.863   4.166   8.442  0.4932 -0.3012 -0.5126
  738MOL0     C99507   5.749   4.118   8.352  0.5634 -0.1677  0.5712
  738MOL0     C99508   5.609   4.163   8.397  0.2440  0.5804 -0.5106
  738MOL0     C99509   5.565   4.082   8.522 -0.6455 -0.7456  0.1133
  738MOL0     C99510   5.567   3.932   8.518  0.1870  0.0797  1.2291
  738MOL0     C99511   5.470   3.873   8.411  0.2960 -0.4268  0.1187
  738MOL0     N99512   5.520   3.742   8.383  0.0030  0.4670 -0.1318
  738MOL0     C99513   5.553   3.638   8.464 -0.8040  0.8750  0.1618
  738MOL0     C99514   5.628   3.546   8.386 -0.5083 -0.0910 -0.6751
  738MOL0     C99515   5.718   3.434   8.425  0.5638  0.5323 -0.4384
  738MOL0     C99516   5.806   3.371   8.314  0.1369 -0.3682  0.2191
  738MOL0     C99517   5.861   3.233   8.357 -0.4940 -0.0754  0.3502
  738MOL0     C99518   5.934   3.170   8.237 -0.1367 -0.7653 -0.1124
  738MOL0     O99519   6.068   3.230   8.213 -0.2941  0.9174  0.0241
  738MOL0     C99520   6.162   3.204   8.310  0.3130  0.0967 -0.1828
  738MOL0     C99521   6.193   3.077   8.358 -0.0686  0.7456  0.0055
  738MOL0     C99522   6.313   3.054   8.434 -0.9514 -0.6846 -0.1554
  738MOL0     C99523   6.396   3.163   8.467  0.0383 -0.1116  1.0881
  738MOL0     C99524   6.516   3.140   8.561  0.1292  0.0735 -0.9317
  738MOL0     O99525   6.537   3.008   8.608  0.3046  0.0226 -0.5260
  738MOL0     C99526   6.662   2.971   8.634  0.5025  0.6003 -0.3631
  738MOL0     C99527   6.675   2.896   8.747 -0.1878  1.0451  0.0293
  738MOL0     C99528   6.794   2.841   8.790 -0.0486 -0.7838  0.0500
  738MOL0     C99529   6.912   2.874   8.729  0.2225 -0.5294  1.0658
  738MOL0     O99530   7.030   2.822   8.775  0.2554  0.2509 -0.2991
  738MOL0     C99531   7.154   2.836   8.703  0.2023  0.5332 -0.3284
  738MOL0     C99532   7.262   2.747   8.778  0.8633  1.3727 -0.4753
  738MOL0     C99533   7.385   2.750   8.684 -0.2777  0.6153  0.0154
  738MOL0     C99534   7.490   2.660   8.749 -0.1287  0.9182  0.4568
  738MOL0     C99535   7.609   2.659   8.649 -0.0768  0.1540 -0.8861
  738MOL0     C99536   7.718   2.553   8.689  0.7156 -0.4528  0.0905
  738MOL0     C99537   7.811   2.596   8.799  0.1807  0.3432  0.1908
  738MOL0     C99538   7.896   2.474   8.836 -0.5788  0.5425  0.6100
  738MOL0    Cl99539   7.809   2.357   8.940 -0.4722  0.2561  0.8119
  738MOL0     C99540   6.905   2.963   8.614 -0.2648  0.8671  0.3575
  738MOL0     C99541   6.780   3.016   8.568 -0.2277  0.4132 -0.0031
  738MOL0     O99542   6.588   3.235   8.578 -0.6811  0.1009 -0.0458
  738MOL0     C99543   6.356   3.292   8.427  0.4406 -0.3865  0.2852
  738MOL0     C99544   6.239   3.313   8.348 -0.0330  0.4156  0.0224
  738MOL0     N99545   5.629   3.584   8.259 -0.2172  0.1466 -0.1370
  738MOL0     N99546   5.561   3.694   8.262 -0.2168  0.1645  0.3813
  738MOL0     C99547   6.234   4.599   8.388  0.2121 -0.2966  0.1185
  738MOL0     C99548   6.371   4.620   8.375 -0.2709 -0.4468  0.2003
  738MOL0     C99549   6.791   4.642   8.393 -0.1138 -0.4522  0.2840
  738MOL0     C99550   6.859   4.600   8.276 -0.0589 -0.2570 -0.3976
  738MOL0     C99551   6.986   4.648   8.248 -0.2942 -0.4565  0.4832
  738MOL0     C99552   7.061   4.732   8.337 -0.6791  0.9047 -0.0865
  738MOL0     O99553   7.185   4.777   8.303 -0.0848  0.1894  0.4312
  738MOL0     C99554   7.285   4.803   8.408  0.3498 -0.4138  0.6882
  738MOL0     C99555   7.314   4.690   8.508 -0.1903  0.1253  0.2005
  738MOL0     C99556   7.430   4.717   8.601  0.4296  0.0225 -0.2144
  738MOL0     C99557   7.409   4.845   8.690  0.1681  0.4118  0.5121
  738MOL0     C99558   7.536   4.848   8.765 -0.3236  0.5704  0.4079
  738MOL0     C99559   7.655   4.857   8.797  0.2172 -0.8598 -0.1393
  738MOL0     C99560   6.992   4.766   8.450  0.3147  0.3190 -0.2037
  738MOL0     C99561   6.867   4.723   8.481  0.0217  0.6498 -0.1756
  738MOL0     C99562   6.811   4.772   8.611 -0.0944 -0.2202  0.2237
  738MOL0     H99563   6.461   4.318   8.255 -1.9391 -1.0670 -1.5722
  738MOL0     H99564   6.207   4.284   8.265  1.4883 -1.8295  1.8957
  738MOL0     H99565   6.075   4.299   8.475 -0.3859 -0.2226 -2.9652
  738MOL0     H99566   6.007   4.426   8.576 -1.3884 -0.7815  0.7855
  738MOL0     H99567   5.817   4.356   8.362  0.2224 -1.1477 -0.2529
  738MOL0     H99568   5.795   4.341   8.540  2.2566 -1.5256  2.7379
  738MOL0     H99569   5.861   4.115   8.538  0.0320 -2.9139 -1.7978
  738MOL0     H99570   5.961   4.136   8.403  1.2035  0.6880  0.4397
  738MOL0     H99571   5.768   4.165   8.255 -1.0960 -0.0881  0.2628
  738MOL0     H99572   5.742   4.010   8.336 -0.7645  0.0392 -0.3546
  738MOL0     H99573   5.612   4.267   8.431 -1.2388  0.1281  1.1941
  738MOL0     H99574   5.553   4.145   8.305  2.1826 -2.8700 -1.1995
  738MOL0     H99575   5.609   4.114   8.616  1.9783 -1.7181 -0.6838
  738MOL0     H99576   5.459   4.102   8.542 -0.3840  1.3427 -0.2782
  738MOL0     H99577   5.529   3.894   8.613 -0.8566 -1.4081  0.2639
  738MOL0     H99578   5.672   3.902   8.514  0.9127  2.5282  0.2587
  738MOL0     H99579   5.366   3.860   8.445 -0.4239 -0.4993 -1.9854
  738MOL0     H99580   5.465   3.931   8.319 -2.4211 -0.0300  0.4389
  738MOL0     H99581   5.531   3.636   8.571 -0.7331 -1.8528  0.2043
  738MOL0     H99582   5.783   3.467   8.506  2.8903  1.1245 -2.4700
  738MOL0     H99583   5.650   3.362   8.472  0.3042  1.2091  0.2431
  738MOL0     H99584   5.753   3.375   8.219 -2.4616  2.7530  1.6034
  738MOL0     H99585   5.897   3.431   8.311 -1.4737  2.2264  0.6382
  738MOL0     H99586   5.768   3.181   8.382 -0.6588 -0.9682 -1.8748
  738MOL0     H99587   5.929   3.239   8.442  0.2977  2.3590 -0.3670
  738MOL0     H99588   5.862   3.181   8.154  1.5349  2.0286 -1.3362
  738MOL0     H99589   5.943   3.063   8.255 -4.9108 -1.3442  0.3186
  738MOL0     H99590   6.151   2.987   8.315  3.3374 -1.1406  0.2940
  738MOL0     H99591   6.340   2.955   8.469  0.3479 -1.2116 -2.4482
  738MOL0     H99592   6.580   2.876   8.794  0.4859  0.0160  1.0242
  738MOL0     H99593   6.792   2.788   8.885 -0.5328  1.0253  1.0868
  738MOL0     H99594   7.143   2.804   8.599 -1.4971 -0.6630  0.1878
  738MOL0     H99595   7.188   2.939   8.713 -0.5285  0.8634 -1.1546
  738MOL0     H99596   7.294   2.779   8.878 -0.6202 -0.1553  0.5501
  738MOL0     H99597   7.217   2.648   8.787  0.5201  1.4128 -1.6029
  738MOL0     H99598   7.362   2.710   8.585 -0.6531  2.3496 -0.6198
  738MOL0     H99599   7.421   2.852   8.672  0.5656  0.3268  0.0611
  738MOL0     H99600   7.447   2.560   8.754  0.9953  0.3284 -0.8410
  738MOL0     H99601   7.520   2.677   8.853 -2.1970  0.5509  1.1540
  738MOL0     H99602   7.645   2.762   8.643 -0.2931  0.3815  1.0836
  738MOL0     H99603   7.576   2.631   8.548 -1.0691  1.6538 -1.0144
  738MOL0     H99604   7.661   2.460   8.701 -0.1083  0.0266  0.0060
  738MOL0     H99605   7.787   2.531   8.608  0.4843 -0.7772 -0.0208
  738MOL0     H99606   7.761   2.645   8.884  0.2384  3.4341 -1.3986
  738MOL0     H99607   7.883   2.664   8.751 -0.2615  0.9013  0.3161
  738MOL0     H99608   7.929   2.425   8.743  2.0939 -0.3391  1.9274
  738MOL0     H99609   7.986   2.502   8.890  1.5288  0.2133 -2.4669
  738MOL0     H99610   6.997   2.998   8.568 -1.1002  1.6529 -0.7728
  738MOL0     H99611   6.767   3.078   8.480  0.8646  0.6213 -0.0369
  738MOL0     H99612   6.420   3.379   8.444  1.9555 -0.6143 -3.1973
  738MOL0     H99613   6.225   3.413   8.309  1.3876 -0.2779 -2.5288
  738MOL0     H99614   6.173   4.678   8.430 -1.8754 -1.7382 -0.0736
  738MOL0     H99615   6.406   4.721   8.388 -3.2205  1.1489 -2.7012
  738MOL0     H99616   6.809   4.531   8.208 -1.0281  1.7697 -1.8556
  738MOL0     H99617   7.036   4.616   8.157 -0.1199  0.2845  0.3114
  738MOL0     H99618   7.257   4.895   8.460  1.4745  0.6302 -0.4854
  738MOL0     H99619   7.377   4.830   8.356  0.7457  1.9121  2.3966
  738MOL0     H99620   7.340   4.597   8.458  2.1238  0.7241  0.1709
  738MOL0     H99621   7.224   4.673   8.567 -1.5673 -0.0733 -1.8511
  738MOL0     H99622   7.522   4.711   8.541 -0.5328 -0.7959 -1.6691
  738MOL0     H99623   7.428   4.627   8.664 -0.3755  0.3066  0.1686
  738MOL0     H99624   7.414   4.927   8.618 -2.3974  0.0444 -0.1856
  738MOL0     H99625   7.316   4.832   8.745  0.0052 -1.5516 -0.1518
  738MOL0     H99626   7.762   4.858   8.807  0.4417 -1.3814 -2.0702
  738MOL0     H99627   7.039   4.833   8.521 -2.4420 -0.9218  3.1326
  738MOL0     H99628   6.709   4.812   8.613 -0.5908 -1.4591  2.2028
  738MOL0     H99629   6.802   4.684   8.675 -0.4316 -1.7041 -1.7529
  738MOL0     H99630   6.869   4.853   8.657 -0.2412 -0.6897  1.2744
  739MOL0     O99631   1.226   1.146   8.814  0.0860  0.1918  0.4815
  739MOL0     C99632   1.181   1.037   8.791 -0.2164  0.0801  0.1100
  739MOL0     O99633   1.259   0.928   8.771 -0.5775  0.2247 -0.0529
  739MOL0     C99634   1.387   0.936   8.823  0.2347 -0.0509  0.6706
  739MOL0     C99635   1.501   0.951   8.740 -0.7235  0.2717  0.5360
  739MOL0     C99636   1.630   0.970   8.780  0.4069 -0.3442 -0.5426
  739MOL0     C99637   1.661   0.956   8.916  0.2923 -0.6959 -0.7483
  739MOL0     O99638   1.781   0.979   8.969 -0.6103 -0.3083  0.1258
  739MOL0     C99639   1.880   0.887   8.935 -0.8633  0.5190 -0.5632
  739MOL0     C99640   1.992   0.878   9.040  0.3094 -0.0514 -0.1180
  739MOL0     C99641   1.952   0.830   9.177  0.0310  0.2796  0.2150
  739MOL0     C99642   2.072   0.822   9.269  0.7677  0.5493 -0.4228
  739MOL0     C99643   2.164   0.700   9.242 -0.4188  0.1992  0.7077
  739MOL0     C99644   2.280   0.728   9.338 -0.1959 -0.0254 -0.3907
  739MOL0     C99645   2.381   0.600   9.350  0.3431 -0.0670 -0.3707
  739MOL0     C99646   2.468   0.576   9.224  1.1000  0.6095 -0.3302
  739MOL0     N99647   2.593   0.645   9.225 -0.3905 -0.2951 -0.0070
  739MOL0     C99648   2.681   0.638   9.121 -0.2646 -0.9206  0.2322
  739MOL0     C99649   2.789   0.701   9.169  0.4045 -0.2317  0.2509
  739MOL0     C99650   2.916   0.708   9.086 -0.5407  0.0872  0.9644
  739MOL0     C99651   2.921   0.794   8.952 -0.0886  0.4354  0.3658
  739MOL0     C99652   2.937   0.939   8.984 -0.0120 -0.0884  0.1957
  739MOL0     C99653   3.079   0.994   9.012  0.5246 -0.3763 -0.9212
  739MOL0     O99654   3.069   1.141   9.012 -0.6426  0.4202 -0.2662
  739MOL0     C99655   3.175   1.208   8.970 -0.2559  0.0341  0.7152
  739MOL0     C99656   3.295   1.206   9.039 -0.1799 -0.7619 -0.3126
  739MOL0     C99657   3.410   1.272   8.993  0.7409  0.3234  0.3135
  739MOL0     C99658   3.392   1.365   8.892  0.3072 -0.5379 -0.2273
  739MOL0     C99659   3.515   1.427   8.848  0.4279 -0.0117  0.3985
  739MOL0     O99660   3.622   1.428   8.928  0.1050  0.4006  0.0588
  739MOL0     C99661   3.746   1.473   8.900 -0.0206 -0.2180 -0.2536
  739MOL0     C99662   3.852   1.385   8.937  0.1127 -0.3471 -0.4408
  739MOL0     C99663   3.986   1.423   8.923  0.2327  0.1548 -0.0432
  739MOL0     C99664   4.019   1.541   8.856 -0.3009  0.4096  0.9888
  739MOL0     O99665   4.145   1.595   8.833  0.2040 -0.2036  0.0832
  739MOL0     C99666   4.264   1.510   8.842  0.3753 -0.2739  0.6501
  739MOL0     C99667   4.264   1.408   8.724 -0.5624  0.7080  0.1059
  739MOL0     C99668   4.401   1.343   8.701  0.1780  0.0102 -0.0622
  739MOL0     C99669   4.379   1.215   8.615  0.1454 -0.7713 -0.0832
  739MOL0     C99670   4.515   1.161   8.572  0.3298  0.0800 -0.0984
  739MOL0     C99671   4.635   1.171   8.667 -0.9934  0.9431 -0.3811
  739MOL0     C99672   4.753   1.111   8.608  0.2212 -0.4613 -0.0557
  739MOL0     C99673   4.875   1.103   8.692  0.3355  0.2910  0.6983
  739MOL0    Cl99674   5.013   1.031   8.596  0.1755 -0.3787  0.0439
  739MOL0     C99675   3.914   1.628   8.818  0.6014 -0.2535  0.0634
  739MOL0     C99676   3.779   1.595   8.841  0.5946 -0.1174 -0.6520
  739MOL0     O99677   3.511   1.467   8.731  0.2162  0.0684 -0.1066
  739MOL0     C99678   3.265   1.374   8.828 -0.6719 -0.3593  0.1218
  739MOL0     C99679   3.154   1.305   8.874  0.4303 -0.3929 -0.3652
  739MOL0     N99680   2.773   0.756   9.303  0.4247  0.5621  0.5531
  739MOL0     N99681   2.649   0.719   9.329  0.3349  0.1228 -1.0168
  739MOL0     C99682   1.546   0.943   9.002 -0.4665  0.4638 -0.9529
  739MOL0     C99683   1.414   0.927   8.960  0.1111 -0.0977  0.2433
  739MOL0     C99684   1.033   1.026   8.788  0.6514  0.2430  0.1888
  739MOL0     C99685   0.974   0.898   8.768  0.5476 -0.0411  0.8234
  739MOL0     C99686   0.836   0.876   8.776 -0.5140  1.0989  1.0375
  739MOL0     C99687   0.750   0.977   8.791 -1.1978 -0.4738 -0.1637
  739MOL0     O99688   0.618   0.946   8.784  0.1103 -0.6917  0.2046
  739MOL0     C99689   0.520   1.049   8.774  0.1533 -0.6015  0.1752
  739MOL0     C99690   0.386   0.966   8.739 -0.4099 -0.6675  0.5580
  739MOL0     C99691   0.388   0.896   8.603 -0.4177 -1.0999  0.2602
  739MOL0     C99692   0.262   0.823   8.573  0.7098  0.4045  0.0730
  739MOL0     C99693   0.236   0.710   8.662 -0.0989  0.5451  0.3308
  739MOL0     C99694   0.231   0.626   8.749 -0.2918  0.2914 -0.2669
  739MOL0     C99695   0.806   1.105   8.808 -0.1635  0.1460 -0.7621
  739MOL0     C99696   0.943   1.130   8.804  0.5300 -1.0385 -0.0739
  739MOL0     C99697   0.970   1.281   8.816 -0.1451 -0.9618 -0.3833
  739MOL0     H99698   1.487   0.952   8.632  0.7524  0.0545  0.3288
  739MOL0     H99699   1.700   0.991   8.699 -1.8069 -0.6531 -2.6487
  739MOL0     H99700   1.832   0.789   8.932  1.0326 -0.4162 -1.5543
  739MOL0     H99701   1.919   0.907   8.835  1.7717  1.9471  0.6550
  739MOL0     H99702   2.033   0.978   9.055  0.0021  0.1986 -0.9214
  739MOL0     H99703   2.069   0.816   8.993  0.1175 -1.8253  1.7682
  739MOL0     H99704   1.884   0.745   9.176 -2.1244  1.9173 -1.8254
  739MOL0     H99705   1.891   0.910   9.219 -0.5655 -0.4250  0.7044
  739MOL0     H99706   2.123   0.918   9.260 -1.2385  1.7591  0.2963
  739MOL0     H99707   2.030   0.816   9.370  0.2507 -2.7771 -0.7132
  739MOL0     H99708   2.100   0.613   9.262  0.4324 -0.1404  2.1686
  739MOL0     H99709   2.201   0.695   9.140 -1.3102 -3.1472  0.4209
  739MOL0     H99710   2.327   0.823   9.310 -0.6522  0.8931  1.7146
  739MOL0     H99711   2.240   0.744   9.439  0.7611 -0.5186  0.0762
  739MOL0     H99712   2.309   0.521   9.373  0.1003 -0.3883 -2.0944
  739MOL0     H99713   2.448   0.607   9.436  1.0296  1.8029 -1.0054
  739MOL0     H99714   2.474   0.467   9.214 -1.1228  0.4006  0.0342
  739MOL0     H99715   2.417   0.606   9.132  0.8734 -0.0982 -0.4411
  739MOL0     H99716   2.676   0.576   9.032  2.5391 -2.8097  1.2345
  739MOL0     H99717   3.000   0.732   9.151 -1.2269  1.1313  1.4941
  739MOL0     H99718   2.937   0.609   9.044 -0.2720  1.1159 -1.4858
  739MOL0     H99719   3.009   0.762   8.896 -1.2760 -0.2130 -1.2072
  739MOL0     H99720   2.827   0.769   8.901 -0.8543 -3.1310  3.0856
  739MOL0     H99721   2.878   0.973   9.069 -1.0318  1.4633 -1.0717
  739MOL0     H99722   2.904   0.994   8.895 -1.5345  2.9782  2.4557
  739MOL0     H99723   3.150   0.956   8.938 -0.5854 -1.7490 -1.3072
  739MOL0     H99724   3.117   0.955   9.107  0.0229  1.6080  0.1638
  739MOL0     H99725   3.304   1.141   9.125  0.5713  2.6660  2.4424
  739MOL0     H99726   3.509   1.253   9.035  1.1801 -2.1311 -1.6021
  739MOL0     H99727   3.824   1.290   8.983  0.1309  0.3444  1.0618
  739MOL0     H99728   4.063   1.358   8.964 -0.1339 -0.5557 -0.4753
  739MOL0     H99729   4.352   1.567   8.811 -2.0699  1.5996 -3.8463
  739MOL0     H99730   4.280   1.467   8.941 -2.3377  2.8204  2.6622
  739MOL0     H99731   4.204   1.323   8.758 -1.7257  1.2123 -0.6433
  739MOL0     H99732   4.218   1.452   8.635  1.4733  2.7553 -0.0538
  739MOL0     H99733   4.466   1.411   8.644  3.5186  0.5682  3.8881
  739MOL0     H99734   4.447   1.319   8.797  4.0467 -0.5259 -1.8668
  739MOL0     H99735   4.319   1.248   8.530 -0.6344  1.3169  1.2307
  739MOL0     H99736   4.326   1.139   8.673  3.0484 -2.8583  0.0656
  739MOL0     H99737   4.547   1.219   8.486  4.0836 -2.5818 -0.7753
  739MOL0     H99738   4.505   1.059   8.533  1.3838  0.0915 -0.4353
  739MOL0     H99739   4.651   1.270   8.711  1.1701 -0.3664  2.0794
  739MOL0     H99740   4.609   1.107   8.752 -0.2044  1.1678  0.0294
  739MOL0     H99741   4.777   1.172   8.520 -1.9586  1.2859  0.4724
  739MOL0     H99742   4.725   1.007   8.590 -0.5002 -0.5894  1.6687
  739MOL0     H99743   4.914   1.200   8.722  0.9879 -0.0613  1.0018
  739MOL0     H99744   4.854   1.040   8.779  3.3543 -4.9295 -1.8638
  739MOL0     H99745   3.946   1.721   8.772  0.8822  0.3991  1.5242
  739MOL0     H99746   3.698   1.663   8.819  0.1680  1.4747  4.4297
  739MOL0     H99747   3.260   1.437   8.741 -1.5288  0.0003  0.4249
  739MOL0     H99748   3.056   1.316   8.829  1.5272  1.9473 -2.3800
  739MOL0     H99749   1.564   0.944   9.109 -1.9676  2.2616 -0.6641
  739MOL0     H99750   1.333   0.913   9.031 -0.9117 -1.7939 -1.1751
  739MOL0     H99751   1.035   0.814   8.736  0.4859 -0.4899  1.8374
  739MOL0     H99752   0.801   0.774   8.765 -3.3664  2.0033  0.8262
  739MOL0     H99753   0.525   1.126   8.697  0.1617 -0.3358  0.4388
  739MOL0     H99754   0.499   1.090   8.873  0.7825 -1.3674  0.6353
  739MOL0     H99755   0.305   1.039   8.748  0.3704  0.6712 -2.1083
  739MOL0     H99756   0.371   0.893   8.819 -0.8215  1.0124  2.0897
  739MOL0     H99757   0.481   0.838   8.598  1.3910  1.6487 -0.5509
  739MOL0     H99758   0.398   0.982   8.536  0.0390 -0.5917  0.9657
  739MOL0     H99759   0.180   0.895   8.570 -1.0714 -1.5340 -0.3290
  739MOL0     H99760   0.276   0.788   8.470 -3.2900 -0.2469 -0.4108
  739MOL0     H99761   0.251   0.552   8.824  1.8772  1.3658  0.2821
  739MOL0     H99762   0.740   1.189   8.827 -1.5656 -0.8475 -1.0527
  739MOL0     H99763   1.046   1.294   8.894  1.1079 -2.8079 -1.2344
  739MOL0     H99764   1.004   1.321   8.720  0.3466 -0.0659  0.1499
  739MOL0     H99765   0.883   1.346   8.834  0.1221 -0.3588 -1.2167
  740MOL0     O99766   6.913   6.089   6.630  0.2714 -0.3104  0.2096
  740MOL0     C99767   6.862   6.193   6.594  0.0888  0.4199 -0.3494
  740MOL0     O99768   6.916   6.279   6.495 -0.0430 -0.2997  0.5343
  740MOL0     C99769   7.014   6.225   6.419 -0.5235  1.1207 -0.4045
  740MOL0     C99770   6.990   6.097   6.348  0.5424 -0.7403 -0.9048
  740MOL0     C99771   7.096   6.036   6.293  0.4847 -0.0998 -0.0177
  740MOL0     C99772   7.221   6.091   6.279 -0.4924  0.1153  0.3865
  740MOL0     O99773   7.314   6.026   6.205 -1.3799 -0.1965  0.0940
  740MOL0     C99774   7.391   6.106   6.116  0.1125 -1.2858 -0.8772
  740MOL0     C99775   7.448   6.028   6.006 -0.0226 -0.2077  0.3212
  740MOL0     C99776   7.552   6.106   5.925  0.7240 -0.1009 -0.4276
  740MOL0     C99777   7.611   6.045   5.806  0.0962  0.0463 -0.0575
  740MOL0     C99778   7.682   6.142   5.717  0.6978 -0.7587 -0.0783
  740MOL0     C99779   7.798   6.064   5.660 -0.2093  0.0274  0.3500
  740MOL0     C99780   7.882   6.148   5.558 -0.0772  0.1218 -0.7620
  740MOL0     C99781   7.955   6.271   5.615  0.4544  0.0942 -0.5625
  740MOL0     N99782   8.072   6.303   5.535  0.5874  0.6867  0.4312
  740MOL0     C99783   8.092   6.407   5.445 -0.3704 -0.5042  0.4230
  740MOL0     C99784   8.213   6.379   5.382 -0.7009  0.8166  0.4433
  740MOL0     C99785   8.278   6.459   5.271  0.9714  0.4156 -0.0344
  740MOL0     C99786   8.405   6.402   5.205 -0.8089 -0.3526 -0.2822
  740MOL0     C99787   8.527   6.441   5.295 -0.0001  0.5835  0.1784
  740MOL0     C99788   8.663   6.376   5.247 -1.0612  0.0200 -0.3682
  740MOL0     O99789   8.758   6.398   5.356  0.0761 -0.5304 -0.6271
  740MOL0     C99790   8.889   6.391   5.324 -0.3544 -0.3453  0.1628
  740MOL0     C99791   8.943   6.341   5.203 -0.0713 -0.0066  0.2826
  740MOL0     C99792   9.082   6.328   5.183 -0.3398  0.6310  0.9778
  740MOL0     C99793   9.171   6.366   5.286 -0.6409 -1.0537  0.1083
  740MOL0     C99794   9.323   6.349   5.276  0.1259  0.0316 -0.2410
  740MOL0     O99795   9.395   6.389   5.391  0.3789  1.8801 -0.1857
  740MOL0     C99796   9.526   6.356   5.390 -0.2993  0.2822 -0.3362
  740MOL0     C99797   9.609   6.460   5.426 -0.7570 -1.3274  0.2870
  740MOL0     C99798   9.749   6.440   5.445  0.0184  0.3301 -0.1172
  740MOL0     C99799   9.802   6.309   5.404 -0.9591 -0.3971  0.1125
  740MOL0     O99800   9.934   6.263   5.404  0.0283  0.4502  0.5226
  740MOL0     C99801  10.045   6.353   5.429  0.3150 -0.2838  0.9777
  740MOL0     C99802  10.083   6.416   5.286  0.8689  0.2510  0.4084
  740MOL0     C99803  10.208   6.494   5.294 -0.5843 -1.2354 -0.2721
  740MOL0     C99804  10.200   6.606   5.391 -0.7986  0.6154 -0.3613
  740MOL0     C99805  10.322   6.707   5.383 -1.0429  0.5809  0.4159
  740MOL0     C99806  10.360   6.779   5.512 -0.0762  0.3316 -0.7085
  740MOL0     C99807  10.499   6.839   5.503  0.7303 -0.0491  0.0749
  740MOL0     C99808  10.477   6.961   5.414 -0.4542  0.2934  0.4999
  740MOL0    Cl99809  10.595   7.082   5.467  0.0259  0.5570  0.9517
  740MOL0     C99810   9.718   6.207   5.374  0.2747  0.7960 -0.3831
  740MOL0     C99811   9.580   6.230   5.374 -0.0932  0.4431 -0.4499
  740MOL0     O99812   9.359   6.293   5.171  0.1730  0.7969 -0.7827
  740MOL0     C99813   9.122   6.435   5.398 -0.0272  0.0820  0.2538
  740MOL0     C99814   8.981   6.445   5.415  0.0655  0.5881 -0.5760
  740MOL0     N99815   8.260   6.267   5.450  0.3486 -0.0878 -0.6438
  740MOL0     N99816   8.180   6.216   5.530  0.4864  0.0282 -0.2020
  740MOL0     C99817   7.240   6.215   6.333  0.1065 -0.1999  0.3643
  740MOL0     C99818   7.136   6.279   6.404 -0.0729 -0.4612  0.2672
  740MOL0     C99819   6.736   6.237   6.664 -0.2245  0.0410  0.1188
  740MOL0     C99820   6.686   6.363   6.639 -0.5396  0.2146  0.7901
  740MOL0     C99821   6.559   6.394   6.692 -0.1416  0.0806  0.3474
  740MOL0     C99822   6.482   6.316   6.775  0.7938 -0.2676  0.3030
  740MOL0     O99823   6.366   6.353   6.822  0.6009 -0.5523  0.4635
  740MOL0     C99824   6.364   6.378   6.959 -0.4829 -0.1091 -0.6317
  740MOL0     C99825   6.230   6.320   6.994 -0.3285  0.3439  0.9741
  740MOL0     C99826   6.201   6.349   7.142  0.2566  0.1714  0.4560
  740MOL0     C99827   6.058   6.284   7.181 -0.0538  0.0146  0.2279
  740MOL0     C99828   6.047   6.293   7.322  0.3776  0.0435 -1.2782
  740MOL0     C99829   6.041   6.304   7.444 -0.3535 -0.4841 -0.4364
  740MOL0     C99830   6.527   6.184   6.794  0.6847 -0.4988 -0.6103
  740MOL0     C99831   6.654   6.143   6.740 -0.1908  0.7765  1.1847
  740MOL0     C99832   6.682   6.001   6.765 -0.6329 -0.8048  0.5631
  740MOL0     H99833   6.894   6.046   6.361 -0.0328  0.8418  1.8838
  740MOL0     H99834   7.077   5.941   6.243 -2.9429  0.0211  0.8102
  740MOL0     H99835   7.333   6.188   6.073  0.3805 -1.4072 -1.4919
  740MOL0     H99836   7.470   6.151   6.177  0.3103 -1.5779 -0.9198
  740MOL0     H99837   7.366   5.993   5.943 -0.6672  2.3958 -0.3681
  740MOL0     H99838   7.500   5.943   6.051 -1.1869 -1.9815 -1.4667
  740MOL0     H99839   7.633   6.138   5.991  1.4582  2.0830 -2.2426
  740MOL0     H99840   7.512   6.204   5.897  0.3425 -0.2208 -0.3108
  740MOL0     H99841   7.669   5.959   5.841 -3.4860 -1.8201  1.9923
  740MOL0     H99842   7.541   5.984   5.747  3.0966 -2.6863 -1.0750
  740MOL0     H99843   7.624   6.194   5.639  0.0930 -0.7137  0.3872
  740MOL0     H99844   7.719   6.225   5.779 -0.2689 -0.1850 -0.2356
  740MOL0     H99845   7.873   6.036   5.734  3.2042  4.0911 -1.1540
  740MOL0     H99846   7.758   5.976   5.610  1.2234  0.0655 -0.9255
  740MOL0     H99847   7.825   6.170   5.467 -0.9105  1.0270 -0.0410
  740MOL0     H99848   7.959   6.080   5.519  0.5728  0.9582 -0.9861
  740MOL0     H99849   7.881   6.351   5.605  0.3028 -0.1113 -1.0981
  740MOL0     H99850   7.972   6.261   5.723 -1.9118 -0.5426 -0.1757
  740MOL0     H99851   8.030   6.493   5.422  1.6352  1.1832  0.9487
  740MOL0     H99852   8.209   6.458   5.186  2.4356 -0.7177 -1.2686
  740MOL0     H99853   8.299   6.563   5.299  2.4358 -0.2841  1.6625
  740MOL0     H99854   8.393   6.293   5.206  1.0840 -0.7073  3.4064
  740MOL0     H99855   8.409   6.435   5.101 -0.6964  2.1793  0.4660
  740MOL0     H99856   8.496   6.398   5.390  2.6970  0.0971  0.9136
  740MOL0     H99857   8.537   6.549   5.281 -0.6320  0.4132 -1.9817
  740MOL0     H99858   8.694   6.415   5.149  0.4375  2.2920  0.9163
  740MOL0     H99859   8.651   6.267   5.237  0.9398 -0.3349  0.4972
  740MOL0     H99860   8.885   6.304   5.120  1.1817 -2.5418  0.4100
  740MOL0     H99861   9.118   6.277   5.095 -0.9261  3.1835 -0.8438
  740MOL0     H99862   9.562   6.554   5.454  1.2049 -0.0191 -0.5919
  740MOL0     H99863   9.805   6.529   5.473  0.0689 -0.5885  3.1329
  740MOL0     H99864  10.022   6.426   5.507  0.9481  1.0389 -0.0350
  740MOL0     H99865  10.137   6.306   5.466 -0.9088 -1.1544  3.1109
  740MOL0     H99866  10.099   6.340   5.209  1.2732  1.1805 -0.4551
  740MOL0     H99867   9.993   6.470   5.252 -0.3989 -1.2631  1.2237
  740MOL0     H99868  10.287   6.421   5.317  0.7407  0.1532 -0.2299
  740MOL0     H99869  10.230   6.540   5.197  0.7063 -1.9335 -0.3482
  740MOL0     H99870  10.196   6.571   5.494  1.2256 -0.5287 -0.6329
  740MOL0     H99871  10.112   6.670   5.376 -1.3934  0.1839  1.1903
  740MOL0     H99872  10.313   6.775   5.298 -3.0782  1.4168  1.2300
  740MOL0     H99873  10.412   6.646   5.375 -1.1556  0.1576  1.9238
  740MOL0     H99874  10.287   6.852   5.549 -0.4524 -1.1146  1.5926
  740MOL0     H99875  10.372   6.701   5.587 -0.7515 -3.3588 -4.0825
  740MOL0     H99876  10.570   6.762   5.473 -1.0404 -3.2160  3.2947
  740MOL0     H99877  10.525   6.875   5.603 -1.4630 -1.4038  1.2365
  740MOL0     H99878  10.507   6.928   5.314 -0.9205  2.3608 -0.3810
  740MOL0     H99879  10.377   7.004   5.401 -0.6984 -0.6338 -1.0317
  740MOL0     H99880   9.769   6.116   5.344  1.2860  1.4032 -0.5978
  740MOL0     H99881   9.513   6.144   5.377 -0.2619  0.5703  2.8552
  740MOL0     H99882   9.175   6.479   5.483 -2.1855  0.2506  1.5907
  740MOL0     H99883   8.958   6.491   5.511  2.0049 -0.8798  0.6641
  740MOL0     H99884   7.336   6.265   6.335 -0.2316  0.4894  2.9204
  740MOL0     H99885   7.151   6.376   6.450 -2.1023  0.4873 -0.9147
  740MOL0     H99886   6.742   6.433   6.577  1.1276 -2.8773 -1.5237
  740MOL0     H99887   6.524   6.495   6.674  0.4360  0.5862  1.9371
  740MOL0     H99888   6.365   6.486   6.979  1.4161 -0.0643 -0.7609
  740MOL0     H99889   6.448   6.339   7.016  0.3076  4.8921  2.2040
  740MOL0     H99890   6.229   6.216   6.963  0.1194  0.8285 -0.7501
  740MOL0     H99891   6.156   6.363   6.925  3.1051 -1.1370 -4.2116
  740MOL0     H99892   6.207   6.456   7.166  0.2075  0.6923 -1.6349
  740MOL0     H99893   6.283   6.300   7.196 -1.0464 -1.6116  0.8999
  740MOL0     H99894   5.976   6.345   7.142 -1.2257 -0.9129  1.1699
  740MOL0     H99895   6.041   6.178   7.156  0.5455 -0.2111  0.7463
  740MOL0     H99896   6.045   6.323   7.549 -0.5288  1.2225 -0.7159
  740MOL0     H99897   6.468   6.116   6.856  1.0980 -0.1974  0.1254
  740MOL0     H99898   6.717   5.965   6.668  0.7616  2.3874 -0.2504
  740MOL0     H99899   6.750   5.980   6.849  1.1975 -1.5735 -1.0184
  740MOL0     H99900   6.589   5.947   6.786 -1.4110 -0.4960 -1.8538
  741MOL0     O99901   7.876   3.486   6.758  0.0507 -0.0455 -0.4154
  741MOL0     C99902   7.754   3.477   6.779  0.1889  0.2765  0.1733
  741MOL0     O99903   7.659   3.508   6.691  0.2895 -0.3922  0.1993
  741MOL0     C99904   7.685   3.532   6.560 -0.2425  0.0390  0.3973
  741MOL0     C99905   7.775   3.451   6.481 -0.2631 -0.4469  0.5491
  741MOL0     C99906   7.793   3.479   6.346 -1.0402  0.4536  0.4368
  741MOL0     C99907   7.745   3.598   6.291  0.2127 -0.2498 -0.2564
  741MOL0     O99908   7.775   3.635   6.162  0.3946 -0.3115  0.4156
  741MOL0     C99909   7.875   3.743   6.166  0.1115  0.0144  0.0842
  741MOL0     C99910   8.016   3.696   6.120  0.5747 -0.2291 -0.1024
  741MOL0     C99911   8.112   3.816   6.127  0.1538 -0.0468  0.7966
  741MOL0     C99912   8.243   3.762   6.059 -0.4804  0.4191  0.9828
  741MOL0     C99913   8.367   3.749   6.155  0.3552 -0.2923  0.6934
  741MOL0     C99914   8.363   3.625   6.248 -0.3750 -0.3111  0.1885
  741MOL0     C99915   8.490   3.590   6.313 -0.5737 -0.0236 -0.9252
  741MOL0     C99916   8.580   3.518   6.202 -1.4636  0.0443 -0.0781
  741MOL0     N99917   8.698   3.465   6.264  0.2307  0.4917 -0.2515
  741MOL0     C99918   8.825   3.527   6.293  0.1874 -0.1944  0.3734
  741MOL0     C99919   8.913   3.429   6.311 -0.4145 -0.0893  0.5503
  741MOL0     C99920   9.053   3.457   6.356 -0.6413 -0.6665 -0.0093
  741MOL0     C99921   9.170   3.416   6.257  0.1055  0.2570 -0.4623
  741MOL0     C99922   9.188   3.268   6.274  0.2143  0.5066 -0.0107
  741MOL0     C99923   9.326   3.235   6.221  0.5774  0.4299  0.8443
  741MOL0     O99924   9.423   3.271   6.317 -0.0672 -0.2696 -0.0832
  741MOL0     C99925   9.553   3.237   6.298  1.0513  0.8197 -0.3314
  741MOL0     C99926   9.647   3.296   6.380  0.3392  0.0607  0.4077
  741MOL0     C99927   9.781   3.272   6.373  0.6828 -0.6107 -0.7302
  741MOL0     C99928   9.826   3.176   6.284 -0.4658 -0.8352 -0.5165
  741MOL0     C99929   9.970   3.127   6.281 -0.6184 -0.8726 -0.4666
  741MOL0     O99930  10.042   3.132   6.400  0.1480 -0.3204  1.0064
  741MOL0     C99931  10.171   3.082   6.397  0.4983  0.2929 -0.3568
  741MOL0     C99932  10.284   3.126   6.322  0.3222 -0.5185  0.1981
  741MOL0     C99933  10.401   3.041   6.334  0.1836  0.1081  0.0462
  741MOL0     C99934  10.410   2.918   6.414  0.1009  0.1454  0.0217
  741MOL0     O99935  10.521   2.847   6.426 -0.7043 -0.7829 -0.4368
  741MOL0     C99936  10.628   2.860   6.334 -0.9805 -0.1644  0.0061
  741MOL0     C99937  10.721   2.737   6.359 -0.6334  0.5538 -0.1414
  741MOL0     C99938  10.834   2.730   6.245  0.5429 -0.3023 -0.4533
  741MOL0     C99939  10.894   2.591   6.238 -0.2329 -0.2416 -0.4709
  741MOL0     C99940  11.015   2.585   6.146  0.4276  0.2076  0.0703
  741MOL0     C99941  11.134   2.673   6.190  0.7427 -0.5365  1.0666
  741MOL0     C99942  11.208   2.596   6.308 -0.9874  0.2790  0.3766
  741MOL0     C99943  11.361   2.595   6.280 -0.0162  0.2387  0.4180
  741MOL0    Cl99944  11.435   2.766   6.280 -0.0549 -0.4407 -0.6445
  741MOL0     C99945  10.294   2.878   6.478  0.1209 -0.8130  1.3906
  741MOL0     C99946  10.172   2.958   6.465 -1.3394 -0.4039 -0.5260
  741MOL0     O99947  10.007   3.093   6.169 -0.5145 -0.5684 -0.0181
  741MOL0     C99948   9.738   3.122   6.194  0.3677 -0.7189  0.5592
  741MOL0     C99949   9.601   3.148   6.205 -1.1221  0.0520  0.2525
  741MOL0     N99950   8.846   3.305   6.298 -0.0710 -0.1991 -0.0687
  741MOL0     N99951   8.721   3.334   6.265  0.7247  0.2888 -0.1745
  741MOL0     C99952   7.654   3.678   6.371  0.0827 -0.3483  0.6156
  741MOL0     C99953   7.633   3.645   6.501  0.5465 -1.3513  0.5956
  741MOL0     C99954   7.712   3.445   6.927  0.8879 -0.3181  0.9773
  741MOL0     C99955   7.775   3.346   7.003  0.7017  0.3937  0.6478
  741MOL0     C99956   7.734   3.306   7.132  0.2576 -0.3990  0.9264
  741MOL0     C99957   7.632   3.378   7.198 -0.3359 -0.3829  0.1965
  741MOL0     O99958   7.589   3.350   7.325 -0.1601  0.6556  0.1295
  741MOL0     C99959   7.660   3.249   7.400 -0.0333 -0.0949 -0.4941
  741MOL0     C99960   7.608   3.246   7.544 -0.2753 -0.1617  0.3893
  741MOL0     C99961   7.456   3.271   7.557  0.0949  0.8205  0.3311
  741MOL0     C99962   7.417   3.261   7.697 -0.0315 -0.0887 -0.4094
  741MOL0     C99963   7.281   3.275   7.725  0.5428  0.4043  0.2057
  741MOL0     C99964   7.163   3.297   7.744  0.1793 -0.3650 -0.7098
  741MOL0     C99965   7.577   3.478   7.124  0.6917 -0.2662  0.1050
  741MOL0     C99966   7.607   3.512   6.989 -0.1757 -0.1661 -0.7502
  741MOL0     C99967   7.530   3.631   6.933  0.6651  0.0356  0.5189
  741MOL0     H99968   7.821   3.363   6.524 -0.0719 -0.0950  1.0782
  741MOL0     H99969   7.866   3.433   6.280  1.3163  0.2169  3.0371
  741MOL0     H99970   7.852   3.809   6.082  3.2716  0.3234 -0.6590
  741MOL0     H99971   7.876   3.792   6.264  2.1335  0.3031 -0.0405
  741MOL0     H99972   8.014   3.660   6.017  1.7659 -1.4969  0.2848
  741MOL0     H99973   8.055   3.609   6.175  5.0050  0.6553 -1.4584
  741MOL0     H99974   8.142   3.848   6.227  2.1625  1.2318 -0.1401
  741MOL0     H99975   8.073   3.901   6.071 -0.2196 -0.4488  0.4349
  741MOL0     H99976   8.238   3.661   6.019  0.5876 -0.0820  2.0550
  741MOL0     H99977   8.266   3.824   5.972  0.5491 -0.0972  0.8798
  741MOL0     H99978   8.458   3.744   6.095 -0.3058  1.5763 -0.5415
  741MOL0     H99979   8.369   3.845   6.208  2.6361  1.5469 -2.3830
  741MOL0     H99980   8.287   3.646   6.324 -2.6373  0.3134 -2.0927
  741MOL0     H99981   8.327   3.540   6.189  2.0995 -0.9804 -0.4834
  741MOL0     H99982   8.478   3.526   6.402  0.4067  0.4620 -0.4221
  741MOL0     H99983   8.544   3.674   6.358  0.9543 -1.5471  0.2005
  741MOL0     H99984   8.531   3.430   6.160  1.2968 -1.4185 -0.4061
  741MOL0     H99985   8.614   3.588   6.125 -1.1308 -0.5417 -0.4653
  741MOL0     H99986   8.828   3.635   6.293 -4.3785  0.1204  0.5701
  741MOL0     H99987   9.060   3.566   6.366 -0.8202 -0.5814 -0.7069
  741MOL0     H99988   9.072   3.410   6.453  0.9353 -1.0561 -0.4759
  741MOL0     H99989   9.147   3.449   6.156 -1.7787  1.4436  0.2908
  741MOL0     H99990   9.265   3.455   6.296 -2.1321  2.6039  3.3223
  741MOL0     H99991   9.101   3.222   6.226 -0.3038 -0.3196  1.6131
  741MOL0     H99992   9.190   3.243   6.381  4.1775  1.4580  0.2934
  741MOL0     H99993   9.331   3.281   6.122  1.5931 -0.6508  0.3547
  741MOL0     H99994   9.330   3.127   6.203 -0.7803  0.4452  0.3790
  741MOL0     H99995   9.599   3.366   6.449 -3.1211 -0.7283 -0.9707
  741MOL0     H99996   9.839   3.308   6.457  1.5197 -0.4646 -1.3504
  741MOL0     H99997  10.280   3.207   6.251  0.0024 -2.9747 -2.8022
  741MOL0     H99998  10.494   3.067   6.284  0.0030  0.2797 -0.2046
  741MOL0     H99999  10.598   2.863   6.229  1.2140  0.9790 -0.6543
  741MOL0     H    0  10.699   2.943   6.342 -2.0431  0.9918 -1.7036
  741MOL0     H    1  10.774   2.744   6.455 -0.2346  0.8166 -0.3787
  741MOL0     H    2  10.656   2.649   6.357 -0.6708  0.5930 -1.7492
  741MOL0     H    3  10.786   2.742   6.147  0.6329  0.3482 -0.4185
  741MOL0     H    4  10.907   2.805   6.273  0.5651 -0.2543 -0.6422
  741MOL0     H    5  10.818   2.523   6.198 -0.1330  0.2392 -1.5231
  741MOL0     H    6  10.924   2.561   6.339  2.2025 -0.5878 -1.2260
  741MOL0     H    7  10.983   2.627   6.050  2.1661  1.7987  0.1363
  741MOL0     H    8  11.040   2.479   6.131 -2.6652 -0.8917  1.6408
  741MOL0     H    9  11.205   2.699   6.111  0.5446  2.4834  1.7531
  741MOL0     H   10  11.107   2.773   6.226  3.7325  0.6186  0.3531
  741MOL0     H   11  11.174   2.493   6.308 -2.8399  0.8609  0.0245
  741MOL0     H   12  11.194   2.644   6.405 -0.6728 -2.8704  2.0878
  741MOL0     H   13  11.407   2.531   6.356  0.5232  2.1612  1.7641
  741MOL0     H   14  11.374   2.550   6.181  0.8297 -0.3167  0.7771
  741MOL0     H   15  10.295   2.790   6.541 -1.2782 -1.1052  1.0227
  741MOL0     H   16  10.084   2.925   6.519 -1.0060 -1.0184 -0.3445
  741MOL0     H   17   9.763   3.036   6.132 -0.0643 -1.0806  0.8792
  741MOL0     H   18   9.532   3.079   6.158  0.0225 -0.9044 -0.0666
  741MOL0     H   19   7.617   3.764   6.317 -0.5638 -1.7852 -1.3426
  741MOL0     H   20   7.556   3.685   6.566 -0.1269 -2.4642  0.5042
  741MOL0     H   21   7.864   3.300   6.962 -0.3649 -1.6769  0.5586
  741MOL0     H   22   7.793   3.232   7.185 -0.4499 -0.1380  2.1123
  741MOL0     H   23   7.768   3.271   7.402  0.5234 -2.5141 -0.7867
  741MOL0     H   24   7.656   3.149   7.356  1.3151  0.0625 -1.0493
  741MOL0     H   25   7.656   3.328   7.598 -3.2115  0.8426  1.7332
  741MOL0     H   26   7.638   3.149   7.585 -0.7129 -1.7205 -2.6909
  741MOL0     H   27   7.407   3.189   7.505  4.4057 -1.6013 -0.4079
  741MOL0     H   28   7.423   3.368   7.519  0.6989  1.3542  1.1187
  741MOL0     H   29   7.458   3.174   7.749 -0.8937 -0.2590 -0.0010
  741MOL0     H   30   7.454   3.355   7.740 -1.6391  0.0364  0.7895
  741MOL0     H   31   7.061   3.329   7.760  0.7727  0.9367  0.7659
  741MOL0     H   32   7.509   3.541   7.180  0.1929  2.0721 -2.8723
  741MOL0     H   33   7.588   3.723   6.923  0.4835  0.8453  4.8924
  741MOL0     H   34   7.489   3.614   6.832 -2.2311 -0.7389  1.7194
  741MOL0     H   35   7.447   3.660   6.997  2.7809  3.4973  1.9615
  742MOL0     O   36   7.673   8.654   8.314  0.4179  0.1363 -0.4024
  742MOL0     C   37   7.730   8.565   8.378 -0.5111 -0.3342  0.4874
  742MOL0     O   38   7.838   8.500   8.329 -0.2901 -0.2431 -0.5301
  742MOL0     C   39   7.896   8.547   8.205  1.1631 -0.0203  0.2443
  742MOL0     C   40   7.837   8.504   8.084  0.2849  0.0022 -0.4338
  742MOL0     C   41   7.880   8.549   7.963  0.1536 -0.2017  0.6426
  742MOL0     C   42   7.987   8.640   7.958 -0.2205  0.3570  0.4295
  742MOL0     O   43   8.032   8.691   7.840  0.2590  0.2415 -0.4836
  742MOL0     C   44   8.060   8.591   7.739  0.4148  0.4478 -0.6829
  742MOL0     C   45   8.181   8.636   7.659 -0.1136 -1.1236 -0.2981
  742MOL0     C   46   8.300   8.684   7.753 -0.9859  0.2674  0.2900
  742MOL0     C   47   8.434   8.661   7.680  0.2132  0.1234 -0.4698
  742MOL0     C   48   8.551   8.722   7.753 -0.9743  0.1035  0.5174
  742MOL0     C   49   8.568   8.650   7.888 -0.0254 -0.1456  0.1709
  742MOL0     C   50   8.692   8.703   7.968  0.4187 -0.0459  0.1018
  742MOL0     C   51   8.819   8.617   7.930  0.1123  0.1404 -0.5776
  742MOL0     N   52   8.950   8.682   7.960  0.5127 -0.3568  0.2232
  742MOL0     C   53   9.046   8.640   8.044  0.2820  0.6423  0.2595
  742MOL0     C   54   9.156   8.716   8.016  0.8522  0.6535 -0.1755
  742MOL0     C   55   9.290   8.700   8.091  0.7302 -1.1362  0.2082
  742MOL0     C   56   9.387   8.607   8.009  0.0666 -0.1821  0.2064
  742MOL0     C   57   9.518   8.600   8.092  0.2987  0.3142  0.3884
  742MOL0     C   58   9.620   8.513   8.013 -0.1474  0.5031 -0.3551
  742MOL0     O   59   9.609   8.375   8.054  0.2513  0.0638  0.1348
  742MOL0     C   60   9.718   8.292   8.052 -0.7163 -0.6119  0.0783
  742MOL0     C   61   9.756   8.213   8.161  0.8244  0.2704  0.0709
  742MOL0     C   62   9.878   8.146   8.154  0.4159 -0.2308 -0.5425
  742MOL0     C   63   9.947   8.147   8.034 -0.6742  0.2792 -0.1029
  742MOL0     C   64  10.090   8.094   8.044 -0.2740 -0.1483 -0.0682
  742MOL0     O   65  10.144   8.054   8.162  0.2788  0.5212 -1.1680
  742MOL0     C   66  10.274   8.009   8.169  0.6773  0.5168 -0.4867
  742MOL0     C   67  10.342   7.935   8.066 -1.3183 -1.1826  0.4658
  742MOL0     C   68  10.475   7.901   8.084 -0.9241  0.9784 -0.2299
  742MOL0     C   69  10.547   7.920   8.200  0.8381 -0.4879 -0.0509
  742MOL0     O   70  10.674   7.865   8.216 -0.2626 -0.3795  0.5947
  742MOL0     C   71  10.779   7.870   8.115 -0.1128  0.2466 -0.4409
  742MOL0     C   72  10.887   7.777   8.145 -0.4083 -0.0807  0.4013
  742MOL0     C   73  11.007   7.807   8.062  0.2850  0.0083 -0.1808
  742MOL0     C   74  11.135   7.764   8.132 -0.5235  0.0195  0.1996
  742MOL0     C   75  11.250   7.795   8.034  0.0557 -1.1426 -0.9172
  742MOL0     C   76  11.383   7.752   8.090  0.7070 -0.2215  0.4392
  742MOL0     C   77  11.489   7.738   7.980  0.9441 -0.4055  0.2342
  742MOL0     C   78  11.633   7.715   8.031  0.3508  0.0692 -0.7331
  742MOL0    Cl   79  11.741   7.674   7.893 -0.5467 -0.5717  0.0659
  742MOL0     C   80  10.477   7.980   8.302 -0.5328 -0.5375  0.9574
  742MOL0     C   81  10.347   8.034   8.289  0.2216  0.7212  0.3934
  742MOL0     O   82  10.156   8.124   7.940  0.5581  0.0700  0.3360
  742MOL0     C   83   9.906   8.221   7.926  0.4975 -0.7230  0.0971
  742MOL0     C   84   9.785   8.285   7.930 -0.5963 -0.3360 -0.4089
  742MOL0     N   85   9.118   8.803   7.918 -0.4754 -0.6715  0.3197
  742MOL0     N   86   8.999   8.779   7.881  0.5021 -0.0056  0.4718
  742MOL0     C   87   8.043   8.686   8.074 -1.0902 -0.0048  0.2262
  742MOL0     C   88   7.997   8.635   8.204  0.5159 -0.0484  0.3238
  742MOL0     C   89   7.676   8.509   8.507 -0.2192 -0.2613 -0.4111
  742MOL0     C   90   7.733   8.392   8.556  0.0085 -0.0106  0.2614
  742MOL0     C   91   7.700   8.340   8.683  0.6065  0.5632 -0.3667
  742MOL0     C   92   7.603   8.406   8.771 -0.9480  0.1578  0.0183
  742MOL0     O   93   7.586   8.355   8.895 -0.0623 -0.7367  0.2653
  742MOL0     C   94   7.514   8.430   8.991  0.6453  0.4083  0.0261
  742MOL0     C   95   7.479   8.324   9.094  0.2219 -0.7034  0.3326
  742MOL0     C   96   7.386   8.368   9.207  0.4127 -0.1866 -0.0168
  742MOL0     C   97   7.306   8.241   9.265 -0.8980  0.4405 -0.1560
  742MOL0     C   98   7.399   8.153   9.332 -0.7920 -1.0594  0.2368
  742MOL0     C   99   7.477   8.076   9.386  0.2573 -0.5454 -0.3324
  742MOL0     C  100   7.550   8.525   8.728 -0.2725 -0.6560 -0.1144
  742MOL0     C  101   7.586   8.578   8.600 -0.3824 -0.2918  0.0350
  742MOL0     C  102   7.526   8.707   8.554  0.4148 -0.0580  0.0190
  742MOL0     H  103   7.765   8.423   8.083 -0.6074  0.6978  1.7588
  742MOL0     H  104   7.824   8.526   7.872 -1.7446  0.3290  1.6294
  742MOL0     H  105   8.085   8.492   7.779  1.2421  0.8210 -0.2531
  742MOL0     H  106   7.980   8.577   7.666  1.1577  0.5936 -1.5437
  742MOL0     H  107   8.164   8.726   7.599  1.3682 -0.8582 -0.3689
  742MOL0     H  108   8.201   8.557   7.586 -0.2687  0.5002 -2.2060
  742MOL0     H  109   8.285   8.612   7.834 -4.2012 -0.7771 -1.0813
  742MOL0     H  110   8.283   8.789   7.779 -0.6087  0.6151 -0.8129
  742MOL0     H  111   8.455   8.554   7.666  3.5471  0.6110 -0.0430
  742MOL0     H  112   8.436   8.707   7.580  1.9671 -1.2432 -1.1232
  742MOL0     H  113   8.643   8.713   7.695  0.0638  1.2060  1.9205
  742MOL0     H  114   8.546   8.830   7.771  3.3822  0.6218 -0.2714
  742MOL0     H  115   8.476   8.669   7.943  0.9815  2.7261  1.0519
  742MOL0     H  116   8.566   8.541   7.881  0.3369 -0.4136  3.0669
  742MOL0     H  117   8.674   8.704   8.076 -2.2030  0.8201 -0.2828
  742MOL0     H  118   8.713   8.806   7.936  2.0067 -1.0482 -2.3362
  742MOL0     H  119   8.822   8.522   7.983 -0.2441  1.2236  1.5092
  742MOL0     H  120   8.820   8.596   7.823  2.5356 -2.0379 -0.2023
  742MOL0     H  121   9.034   8.578   8.133 -0.1162 -0.0610 -0.2780
  742MOL0     H  122   9.330   8.802   8.098 -1.5669 -0.1914  0.4470
  742MOL0     H  123   9.271   8.654   8.188 -3.1223  0.3299  0.3433
  742MOL0     H  124   9.344   8.508   8.023  1.0545 -0.6327  0.0983
  742MOL0     H  125   9.395   8.643   7.906 -0.1282  0.2389  0.3338
  742MOL0     H  126   9.495   8.550   8.187 -1.8635 -0.1420 -0.3091
  742MOL0     H  127   9.558   8.701   8.105 -1.1073  0.9383  0.1020
  742MOL0     H  128   9.720   8.553   8.032  2.1039 -4.2627 -0.8248
  742MOL0     H  129   9.616   8.524   7.904  1.5756 -1.3403 -0.6567
  742MOL0     H  130   9.697   8.194   8.251  2.5155 -2.3086  0.7778
  742MOL0     H  131   9.912   8.094   8.243  0.4060 -0.6449 -0.7797
  742MOL0     H  132  10.301   7.906   7.970  0.1360 -0.4435 -0.4005
  742MOL0     H  133  10.522   7.840   8.007  0.3381  2.5370 -0.7396
  742MOL0     H  134  10.725   7.848   8.022 -2.5818  0.7143  0.8186
  742MOL0     H  135  10.817   7.972   8.111  0.4511 -0.0011 -2.6316
  742MOL0     H  136  10.910   7.800   8.250 -1.5865  1.1276  0.4156
  742MOL0     H  137  10.848   7.675   8.139 -1.5295  0.3663 -0.1427
  742MOL0     H  138  11.005   7.750   7.969 -3.0941 -3.3007  1.6326
  742MOL0     H  139  11.018   7.916   8.060  0.4165  0.0085 -2.7879
  742MOL0     H  140  11.148   7.657   8.150  2.0864  0.3836  0.8745
  742MOL0     H  141  11.160   7.812   8.227  0.3442 -2.0767  1.0757
  742MOL0     H  142  11.255   7.901   8.007  3.2501 -0.7592  0.6954
  742MOL0     H  143  11.244   7.737   7.942  1.7656 -0.2470 -1.6454
  742MOL0     H  144  11.411   7.819   8.172 -0.9199  0.5144  0.4546
  742MOL0     H  145  11.365   7.650   8.125  0.0736 -0.5644 -0.8170
  742MOL0     H  146  11.486   7.830   7.921  0.9594 -1.1569 -0.9708
  742MOL0     H  147  11.466   7.666   7.901  0.2103  1.1482 -1.0090
  742MOL0     H  148  11.656   7.811   8.079  0.2148 -0.7913  1.1206
  742MOL0     H  149  11.632   7.630   8.099 -0.7010 -0.3771 -1.2874
  742MOL0     H  150  10.509   7.998   8.404 -1.0018  0.7870  0.8814
  742MOL0     H  151  10.302   8.077   8.378  1.4926 -1.7612  2.3753
  742MOL0     H  152   9.957   8.230   7.830 -2.7576  0.2451 -1.6752
  742MOL0     H  153   9.750   8.335   7.840  0.8881  0.4146 -0.5884
  742MOL0     H  154   8.122   8.760   8.079 -0.4935 -0.3698 -2.3364
  742MOL0     H  155   8.036   8.669   8.299  1.4360 -0.0607 -0.0398
  742MOL0     H  156   7.795   8.325   8.497  1.1537  0.4229  0.9499
  742MOL0     H  157   7.749   8.250   8.719  0.2448  0.7211  0.5341
  742MOL0     H  158   7.415   8.462   8.957  0.1135 -0.3875  0.7761
  742MOL0     H  159   7.568   8.513   9.038  2.3526 -0.7506  0.2147
  742MOL0     H  160   7.575   8.292   9.136  0.1074  0.0073  1.1611
  742MOL0     H  161   7.434   8.239   9.041 -0.8738  1.1181 -1.8313
  742MOL0     H  162   7.311   8.438   9.170  2.6000  2.1536 -0.2466
  742MOL0     H  163   7.446   8.413   9.287 -0.5799  1.3303 -0.0913
  742MOL0     H  164   7.235   8.274   9.342  0.2074 -0.5992  1.3512
  742MOL0     H  165   7.252   8.182   9.190  0.5881 -0.0798 -0.8528
  742MOL0     H  166   7.549   8.009   9.430 -0.3772 -2.2245 -1.7140
  742MOL0     H  167   7.483   8.589   8.786 -1.4966 -0.6443 -1.4845
  742MOL0     H  168   7.598   8.783   8.521 -1.3462  1.5351 -0.3044
  742MOL0     H  169   7.467   8.685   8.465  0.1290 -1.6711  0.5755
  742MOL0     H  170   7.462   8.751   8.631  0.5761 -0.6768  0.5138
  743MOL0     O  171   5.989   6.177   2.113  0.2524  0.5284  0.0568
  743MOL0     C  172   5.961   6.066   2.154  0.5953 -0.1029 -0.1256
  743MOL0     O  173   6.040   5.950   2.142 -0.3047 -0.5418  0.2854
  743MOL0     C  174   6.180   5.971   2.131  0.9564  0.8788  0.8597
  743MOL0     C  175   6.253   5.907   2.029  0.1072 -0.0534  1.1361
  743MOL0     C  176   6.390   5.922   2.009 -0.3287 -0.4075 -0.6964
  743MOL0     C  177   6.463   6.001   2.101 -0.1399  0.0534  0.0122
  743MOL0     O  178   6.597   6.007   2.062 -0.3963  0.2620  0.0348
  743MOL0     C  179   6.686   6.087   2.143  0.2331  0.0062  1.1670
  743MOL0     C  180   6.828   6.056   2.105 -0.5312  0.1880 -0.0852
  743MOL0     C  181   6.936   6.172   2.116  0.4511 -0.0440  0.2380
  743MOL0     C  182   7.081   6.117   2.130 -0.0149 -0.4786 -0.3253
  743MOL0     C  183   7.170   6.232   2.184  1.3093  0.0350 -0.2617
  743MOL0     C  184   7.314   6.189   2.219 -0.3975 -0.0832 -1.0206
  743MOL0     C  185   7.403   6.142   2.100  0.4702  0.7844 -0.1555
  743MOL0     C  186   7.549   6.116   2.146  0.1209 -0.0766  0.6058
  743MOL0     N  187   7.642   6.088   2.035  0.2171  0.0352  0.0604
  743MOL0     C  188   7.635   5.972   1.961  0.1692 -0.3332 -0.5695
  743MOL0     C  189   7.761   5.956   1.922  0.1642 -0.8002 -0.0410
  743MOL0     C  190   7.808   5.820   1.873 -0.3203  0.3689 -0.2727
  743MOL0     C  191   7.958   5.796   1.910 -0.6155  0.6811  0.1933
  743MOL0     C  192   8.062   5.891   1.846  0.2239 -0.3141  0.3105
  743MOL0     C  193   8.202   5.869   1.883  0.4282 -0.5217 -0.6218
  743MOL0     O  194   8.287   5.967   1.814  0.8085  0.5726 -0.3419
  743MOL0     C  195   8.411   5.973   1.860 -0.5424  0.3071  0.2802
  743MOL0     C  196   8.465   5.900   1.965  0.0013 -0.1541  0.1542
  743MOL0     C  197   8.603   5.926   1.992 -0.0929  0.4788 -0.1290
  743MOL0     C  198   8.675   6.028   1.931 -0.4182  0.1184  0.3615
  743MOL0     C  199   8.825   6.049   1.949 -0.0299 -0.1808 -0.5233
  743MOL0     O  200   8.890   5.983   2.049  0.2371  0.2840 -0.1893
  743MOL0     C  201   9.026   5.994   2.036 -0.3161 -0.8105 -0.0789
  743MOL0     C  202   9.096   6.091   2.102 -0.0075 -0.5656  0.5482
  743MOL0     C  203   9.240   6.093   2.105  0.5610 -0.1566  0.0170
  743MOL0     C  204   9.315   6.002   2.032  0.0970  0.5538  0.2205
  743MOL0     O  205   9.452   6.014   2.033 -0.9373  0.3573  0.0980
  743MOL0     C  206   9.529   5.943   1.936 -0.0383 -0.3949  0.1329
  743MOL0     C  207   9.567   5.807   1.986  0.4441 -0.4038  0.5856
  743MOL0     C  208   9.649   5.735   1.883  0.0620 -0.0963  0.3379
  743MOL0     C  209   9.790   5.798   1.884  0.0746 -0.5667 -0.6715
  743MOL0     C  210   9.894   5.732   1.789 -0.3189  0.0011 -0.3257
  743MOL0     C  211   9.901   5.574   1.795 -0.3914  0.1989  0.0306
  743MOL0     C  212   9.943   5.530   1.942  0.3922 -0.8944  0.7325
  743MOL0     C  213   9.926   5.384   1.975  0.1608  0.2542 -0.2222
  743MOL0    Cl  214  10.062   5.288   1.897  0.0572  0.2406 -0.1665
  743MOL0     C  215   9.245   5.895   1.966 -0.0645  0.2280  0.3838
  743MOL0     C  216   9.096   5.890   1.981 -0.6915  0.2876 -0.4604
  743MOL0     O  217   8.874   6.148   1.886  0.2248  0.2970  0.1269
  743MOL0     C  218   8.611   6.110   1.839  0.2995 -0.6242 -0.5627
  743MOL0     C  219   8.481   6.078   1.801 -0.2806  0.5967  0.1617
  743MOL0     N  220   7.830   6.067   1.968 -0.0706 -0.1175 -0.3424
  743MOL0     N  221   7.755   6.148   2.041  1.1237  0.2381  0.5558
  743MOL0     C  222   6.389   6.064   2.202 -0.3540  0.3392 -0.2323
  743MOL0     C  223   6.247   6.048   2.219 -1.2548  0.2257 -0.7007
  743MOL0     C  224   5.818   6.058   2.197  0.7228 -0.3865 -0.4021
  743MOL0     C  225   5.797   6.031   2.338 -0.0933  0.0377  0.2772
  743MOL0     C  226   5.674   6.045   2.399 -0.3733 -0.0077  0.8811
  743MOL0     C  227   5.559   6.081   2.319 -0.8290 -0.1248  0.2035
  743MOL0     O  228   5.435   6.099   2.373  0.4388  0.0310 -0.8000
  743MOL0     C  229   5.422   6.104   2.514  1.4470  0.1290  1.0848
  743MOL0     C  230   5.279   6.145   2.562  0.2760  0.7465 -0.0505
  743MOL0     C  231   5.177   6.033   2.516 -0.1698  0.6115  0.1527
  743MOL0     C  232   5.062   6.023   2.620  0.8421  0.2384 -0.2025
  743MOL0     C  233   4.958   6.132   2.603 -0.5619  0.0001  0.2371
  743MOL0     C  234   4.891   6.235   2.590  0.4010  0.1729  0.0826
  743MOL0     C  235   5.581   6.093   2.184  0.3650 -0.4788 -0.0197
  743MOL0     C  236   5.708   6.085   2.117 -0.3867  0.2972  0.3406
  743MOL0     C  237   5.720   6.122   1.968 -0.0545 -0.5305 -0.5635
  743MOL0     H  238   6.188   5.851   1.962 -2.4152  1.7568  1.9055
  743MOL0     H  239   6.447   5.871   1.931  0.1452 -1.0574  0.0683
  743MOL0     H  240   6.663   6.193   2.127  2.2907  0.0568 -2.3233
  743MOL0     H  241   6.674   6.063   2.249  2.6604  2.1945  2.0422
  743MOL0     H  242   6.833   6.017   2.003 -1.9959  0.1838 -0.1684
  743MOL0     H  243   6.850   5.969   2.168 -4.0343 -0.3640  0.5551
  743MOL0     H  244   6.907   6.227   2.206 -0.9548 -3.9401  2.4520
  743MOL0     H  245   6.934   6.232   2.025 -1.9565 -1.6925 -0.9130
  743MOL0     H  246   7.087   6.029   2.195 -2.6843 -0.3151  0.2977
  743MOL0     H  247   7.109   6.091   2.028  1.3095 -0.7035  0.0798
  743MOL0     H  248   7.178   6.309   2.107  0.4243  1.2409  0.8140
  743MOL0     H  249   7.127   6.290   2.267  3.1024  1.5187 -0.3044
  743MOL0     H  250   7.362   6.275   2.268 -3.4542  0.3301  1.5223
  743MOL0     H  251   7.315   6.109   2.293  0.8845  0.8321  0.0051
  743MOL0     H  252   7.411   6.225   2.029  0.8784  1.0740  0.2233
  743MOL0     H  253   7.355   6.054   2.057 -3.2902  1.6211  1.9389
  743MOL0     H  254   7.586   6.191   2.216  0.0305 -1.3321  2.0663
  743MOL0     H  255   7.540   6.019   2.196  0.1585 -0.7085 -0.5796
  743MOL0     H  256   7.558   5.895   1.961  1.5555 -1.7577  0.3170
  743MOL0     H  257   7.747   5.742   1.918  1.2071  0.0797  1.4237
  743MOL0     H  258   7.806   5.814   1.764 -0.4272 -0.1211 -0.2455
  743MOL0     H  259   7.972   5.781   2.018 -2.5285 -1.1537  0.2578
  743MOL0     H  260   7.976   5.699   1.865 -1.3527  2.1585 -3.6189
  743MOL0     H  261   8.037   5.994   1.874 -0.2765 -0.2059 -0.5066
  743MOL0     H  262   8.049   5.890   1.737 -0.3105 -2.3067  0.3580
  743MOL0     H  263   8.234   5.767   1.862  2.9948  0.1521 -0.3820
  743MOL0     H  264   8.204   5.879   1.992  0.9618 -0.7177 -0.6114
  743MOL0     H  265   8.419   5.824   2.027 -1.4577  1.5397  1.2310
  743MOL0     H  266   8.668   5.865   2.054  1.0227  0.6631 -1.0724
  743MOL0     H  267   9.040   6.155   2.169 -0.5054 -0.3904 -0.0291
  743MOL0     H  268   9.291   6.163   2.170  0.4091 -0.2894  0.2836
  743MOL0     H  269   9.483   5.940   1.836 -0.2951  4.5619 -0.1184
  743MOL0     H  270   9.619   6.004   1.927 -0.1080 -0.3669 -0.4351
  743MOL0     H  271   9.622   5.811   2.081 -0.5711 -2.4082  1.3350
  743MOL0     H  272   9.478   5.748   2.012 -0.3151  1.4126  2.4750
  743MOL0     H  273   9.645   5.630   1.912  1.6313 -0.0764  0.6962
  743MOL0     H  274   9.609   5.746   1.781  3.3392  1.7764 -0.9055
  743MOL0     H  275   9.828   5.785   1.986  0.4459  0.1299 -0.7126
  743MOL0     H  276   9.791   5.901   1.848 -1.4065 -0.9500 -1.8963
  743MOL0     H  277   9.995   5.763   1.816 -0.3108 -0.5526  0.2988
  743MOL0     H  278   9.865   5.766   1.689  1.2264  4.0699  0.4089
  743MOL0     H  279   9.803   5.531   1.771 -0.2399 -0.9897  1.4056
  743MOL0     H  280   9.982   5.538   1.731  0.5072  1.0168  0.6716
  743MOL0     H  281   9.880   5.584   2.014  2.3664  0.5123  1.4857
  743MOL0     H  282  10.049   5.558   1.947  0.3638  0.1033 -2.3047
  743MOL0     H  283   9.926   5.366   2.083  1.1440 -0.4866 -0.3305
  743MOL0     H  284   9.832   5.342   1.938  1.4325 -1.1182 -2.0924
  743MOL0     H  285   9.290   5.803   1.929  1.2278  0.4239  1.3727
  743MOL0     H  286   9.041   5.804   1.945 -0.7412  0.5175 -0.9485
  743MOL0     H  287   8.661   6.186   1.780 -1.3330  2.8883  2.2124
  743MOL0     H  288   8.431   6.140   1.726  0.0335  0.1277 -0.4469
  743MOL0     H  289   6.428   6.129   2.279  0.5232 -1.6717  1.1080
  743MOL0     H  290   6.200   6.093   2.306 -2.0433 -3.4671  0.9575
  743MOL0     H  291   5.886   6.004   2.393 -0.2015 -1.5979 -0.2976
  743MOL0     H  292   5.669   6.032   2.506 -2.0189  0.1376  0.8568
  743MOL0     H  293   5.500   6.173   2.548  3.2117 -0.2218 -1.9596
  743MOL0     H  294   5.449   6.005   2.554 -1.9760 -0.6801  1.7501
  743MOL0     H  295   5.249   6.241   2.521 -3.0038  0.5624  1.5631
  743MOL0     H  296   5.284   6.156   2.671  0.3321 -0.4284  0.0833
  743MOL0     H  297   5.225   5.935   2.511 -0.0325  0.5386  2.1245
  743MOL0     H  298   5.125   6.057   2.423  0.5688 -0.3704 -0.5346
  743MOL0     H  299   5.004   5.930   2.611 -3.7338  2.6204  1.3487
  743MOL0     H  300   5.104   6.018   2.721  0.4456 -2.7056 -0.0873
  743MOL0     H  301   4.835   6.325   2.576 -2.0779 -1.3821 -0.6193
  743MOL0     H  302   5.494   6.119   2.125 -0.6839 -0.5416  1.4689
  743MOL0     H  303   5.818   6.160   1.940 -0.7291  1.1565 -0.7495
  743MOL0     H  304   5.707   6.027   1.915  0.2434 -0.7359 -0.2731
  743MOL0     H  305   5.652   6.200   1.932 -0.5246 -2.4226 -4.2585
  744MOL0     O  306  10.185   2.574  10.060 -0.0887 -0.3983 -0.1173
  744MOL0     C  307  10.110   2.653  10.115 -1.2435  0.3326  0.2243
  744MOL0     O  308  10.155   2.770  10.173  0.5204  0.4717 -0.4527
  744MOL0     C  309  10.291   2.795  10.169  0.5555  0.1030  0.8109
  744MOL0     C  310  10.369   2.757  10.277 -0.0129  0.8085  0.3594
  744MOL0     C  311  10.508   2.778  10.264 -0.7648  0.8460  0.2270
  744MOL0     C  312  10.566   2.828  10.141 -0.2751  0.1824  0.4699
  744MOL0     O  313  10.709   2.840  10.133 -0.2579 -0.0351  0.5841
  744MOL0     C  314  10.794   2.876  10.242  0.3712  0.0155 -0.1743
  744MOL0     C  315  10.940   2.906  10.197 -0.1598 -0.4529  0.9398
  744MOL0     C  316  11.024   2.962  10.319  0.2048 -1.1280 -0.2825
  744MOL0     C  317  11.152   2.874  10.349 -0.8181  0.3216 -0.1891
  744MOL0     C  318  11.227   2.932  10.473  0.8910 -0.4235  0.6125
  744MOL0     C  319  11.336   2.842  10.523  0.1262 -0.0395 -0.7643
  744MOL0     C  320  11.453   2.815  10.430 -0.4404  0.5844 -0.1506
  744MOL0     C  321  11.560   2.917  10.473 -0.7774  0.2705  0.2494
  744MOL0     N  322  11.681   2.888  10.393 -0.1953  0.1906 -0.6141
  744MOL0     C  323  11.733   2.961  10.293 -0.1844  0.2849  0.7593
  744MOL0     C  324  11.844   2.899  10.251  0.4324 -0.7381 -0.4754
  744MOL0     C  325  11.948   2.943  10.153 -0.1529 -0.0458  0.6349
  744MOL0     C  326  12.063   2.849  10.133 -0.5679 -0.2577  0.6023
  744MOL0     C  327  12.157   2.894  10.011 -0.3375 -0.1167  0.3235
  744MOL0     C  328  12.238   2.764   9.962  1.4087 -1.0812 -0.3944
  744MOL0     O  329  12.266   2.787   9.828  0.1567 -0.0984  0.3334
  744MOL0     C  330  12.347   2.693   9.767 -0.1163 -0.4864 -0.4876
  744MOL0     C  331  12.346   2.698   9.629 -0.0403 -0.2769 -0.6213
  744MOL0     C  332  12.432   2.617   9.560  0.6378 -0.5012  0.4282
  744MOL0     C  333  12.518   2.526   9.613  0.0078 -0.5843  0.0556
  744MOL0     C  334  12.596   2.431   9.530  0.7293 -1.1501 -0.4125
  744MOL0     O  335  12.569   2.426   9.400 -0.4706  0.0365  0.3634
  744MOL0     C  336  12.649   2.355   9.318  0.4243  0.8406 -0.4106
  744MOL0     C  337  12.595   2.293   9.210  0.3069  0.4575  0.4367
  744MOL0     C  338  12.667   2.220   9.117  0.5538  0.2906  0.3140
  744MOL0     C  339  12.802   2.187   9.144  0.1604  0.3526  0.3915
  744MOL0     O  340  12.896   2.113   9.080 -0.5044 -0.2351  0.5056
  744MOL0     C  341  12.853   2.049   8.960 -0.3059  0.0177 -0.0160
  744MOL0     C  342  12.966   1.958   8.912 -0.2220  0.2109  1.2907
  744MOL0     C  343  12.934   1.903   8.771  0.4194  0.2184 -0.0197
  744MOL0     C  344  13.051   1.814   8.728  0.4397  0.8871  0.2112
  744MOL0     C  345  13.017   1.763   8.589  0.2353  0.7023  0.2486
  744MOL0     C  346  13.116   1.673   8.521 -0.2421 -0.6491  1.0215
  744MOL0     C  347  13.243   1.749   8.480 -0.2788 -0.6274 -0.1580
  744MOL0     C  348  13.325   1.674   8.378 -0.4860  0.4434 -1.1276
  744MOL0    Cl  349  13.441   1.803   8.347  0.0603  0.1842  0.3251
  744MOL0     C  350  12.853   2.243   9.254 -0.8564 -0.2628 -0.5135
  744MOL0     C  351  12.786   2.325   9.336 -0.0535  0.6145 -0.1204
  744MOL0     O  352  12.676   2.372   9.589 -0.4648 -0.2409 -0.8303
  744MOL0     C  353  12.516   2.519   9.756 -0.1059 -0.8873 -0.2054
  744MOL0     C  354  12.437   2.607   9.831  0.4877  0.7543  0.0820
  744MOL0     N  355  11.855   2.781  10.326  0.0849  0.9330 -0.3990
  744MOL0     N  356  11.754   2.776  10.406 -0.1314  0.1906 -0.3260
  744MOL0     C  357  10.482   2.852  10.031  0.1085 -0.1230 -0.5500
  744MOL0     C  358  10.347   2.852  10.052  0.0048  0.1234  0.3572
  744MOL0     C  359   9.961   2.629  10.108  0.5190  0.6507 -0.3113
  744MOL0     C  360   9.880   2.731  10.163  0.4584  0.7143 -0.4777
  744MOL0     C  361   9.740   2.730  10.162 -0.4378 -0.1030  0.7287
  744MOL0     C  362   9.676   2.632  10.096  0.7138 -0.1594  0.1703
  744MOL0     O  363   9.541   2.646  10.096  0.7341  0.6665  0.4184
  744MOL0     C  364   9.457   2.540  10.052 -0.9351 -0.0439  0.8096
  744MOL0     C  365   9.311   2.557  10.078  0.7283  0.3987 -0.3568
  744MOL0     C  366   9.260   2.696  10.052  0.3721  0.5401 -0.3449
  744MOL0     C  367   9.117   2.709   9.986  0.3782  0.8910  0.2995
  744MOL0     C  368   9.025   2.621  10.048  0.0593 -0.2748 -0.1029
  744MOL0     C  369   8.944   2.549  10.100  1.2455  0.0408 -0.3072
  744MOL0     C  370   9.746   2.530  10.039 -0.1900  0.4985 -0.7869
  744MOL0     C  371   9.892   2.532  10.037  0.0599  1.2621 -0.4910
  744MOL0     C  372   9.952   2.434   9.949 -0.2272 -0.6558 -0.2135
  744MOL0     H  373  10.323   2.709  10.362  1.2277 -0.6339  0.2426
  744MOL0     H  374  10.588   2.753  10.334  0.4274  1.2307 -0.9485
  744MOL0     H  375  10.743   2.960  10.292  0.6475  1.0012 -1.4939
  744MOL0     H  376  10.802   2.790  10.309  1.3056  0.6403  0.5456
  744MOL0     H  377  10.938   2.975  10.113 -0.7656 -0.3235  1.0621
  744MOL0     H  378  10.981   2.809  10.166 -0.4679 -0.8557  1.7635
  744MOL0     H  379  10.966   2.984  10.409 -1.1960  1.8949 -1.7745
  744MOL0     H  380  11.067   3.058  10.285 -0.2074 -1.0275 -0.5221
  744MOL0     H  381  11.117   2.773  10.371  2.4533 -0.8896 -0.0207
  744MOL0     H  382  11.218   2.858  10.263  0.9306  0.0118  1.1668
  744MOL0     H  383  11.261   3.032  10.446  0.4971  0.0604  1.8386
  744MOL0     H  384  11.145   2.948  10.543  1.9451  2.9305  1.2599
  744MOL0     H  385  11.360   2.884  10.621  1.2596  0.3875 -1.2054
  744MOL0     H  386  11.287   2.746  10.543 -2.3236  0.8308 -2.1747
  744MOL0     H  387  11.418   2.827  10.327 -0.8667 -1.7244 -0.3230
  744MOL0     H  388  11.497   2.715  10.435  2.0860  1.4313 -2.6692
  744MOL0     H  389  11.529   3.015  10.437  3.5382  0.5642 -3.5455
  744MOL0     H  390  11.588   2.910  10.578 -1.5672 -1.3764  0.3834
  744MOL0     H  391  11.710   3.060  10.256 -0.9237 -0.3449 -0.5833
  744MOL0     H  392  11.897   2.963  10.059  0.1365  0.0961  0.5064
  744MOL0     H  393  11.986   3.042  10.181 -0.5700  0.5827 -0.9563
  744MOL0     H  394  12.122   2.837  10.224  0.2253 -0.0946  0.1167
  744MOL0     H  395  12.023   2.750  10.109  3.6321 -1.6128 -1.8883
  744MOL0     H  396  12.222   2.977  10.041  1.9920 -1.9918  0.7805
  744MOL0     H  397  12.099   2.928   9.926  1.2833  3.0212  0.3393
  744MOL0     H  398  12.185   2.669   9.973  0.3908 -0.4304  0.6732
  744MOL0     H  399  12.332   2.759  10.017  1.3810  0.0977 -0.2056
  744MOL0     H  400  12.270   2.758   9.579  2.0285  3.5105  0.4005
  744MOL0     H  401  12.434   2.614   9.452  1.8163 -2.9652  0.4555
  744MOL0     H  402  12.489   2.308   9.190  0.4774 -0.0432 -0.9883
  744MOL0     H  403  12.616   2.188   9.026 -2.0501  1.9502  1.0939
  744MOL0     H  404  12.762   1.989   8.960 -0.3366  0.0487 -0.7509
  744MOL0     H  405  12.843   2.124   8.880  0.9293  2.2325  1.7855
  744MOL0     H  406  13.059   2.015   8.906 -1.7692  2.7892 -0.3420
  744MOL0     H  407  12.980   1.878   8.985  1.5491  1.3008  2.2305
  744MOL0     H  408  12.843   1.843   8.758  1.2183 -0.9926 -0.2089
  744MOL0     H  409  12.925   1.992   8.708 -1.4175  0.4091  0.4531
  744MOL0     H  410  13.078   1.739   8.803  0.9451  0.3756 -0.4730
  744MOL0     H  411  13.149   1.863   8.720  2.9438 -3.8717 -2.8162
  744MOL0     H  412  12.990   1.847   8.524  0.1949  0.2962 -0.2624
  744MOL0     H  413  12.922   1.708   8.596  0.2181  0.0343 -3.4026
  744MOL0     H  414  13.136   1.579   8.573 -2.2774  0.4318  4.0017
  744MOL0     H  415  13.065   1.639   8.429  3.1409 -3.8675  0.0814
  744MOL0     H  416  13.301   1.782   8.567 -3.3973 -1.6132  2.5185
  744MOL0     H  417  13.223   1.839   8.421 -0.0045 -1.4428 -1.5240
  744MOL0     H  418  13.375   1.593   8.433  1.2074  2.3915  0.3542
  744MOL0     H  419  13.271   1.646   8.287 -0.3067  1.7387 -1.6537
  744MOL0     H  420  12.956   2.237   9.287 -0.8690  2.0319  0.1635
  744MOL0     H  421  12.832   2.372   9.422 -1.9955 -1.6279  2.3106
  744MOL0     H  422  12.573   2.443   9.809  0.6298 -0.8415 -0.8986
  744MOL0     H  423  12.457   2.605   9.937 -0.4345  2.7801  0.3409
  744MOL0     H  424  10.528   2.893   9.942 -0.6454  0.3163 -0.7484
  744MOL0     H  425  10.286   2.873   9.965  1.6136 -1.6595 -1.2718
  744MOL0     H  426   9.928   2.816  10.211 -3.7545  2.4437  1.1725
  744MOL0     H  427   9.680   2.814  10.194 -1.3452 -1.3829  2.6558
  744MOL0     H  428   9.492   2.441  10.081  0.6499 -0.5472 -2.3911
  744MOL0     H  429   9.472   2.537   9.944 -1.9543  0.3252  0.6407
  744MOL0     H  430   9.285   2.518  10.177 -2.3468 -1.8837 -1.9291
  744MOL0     H  431   9.259   2.490  10.010 -2.1518  0.4433  1.6150
  744MOL0     H  432   9.331   2.741   9.983  0.9864  0.9857  0.5604
  744MOL0     H  433   9.264   2.752  10.146  1.9690 -0.2766  0.1114
  744MOL0     H  434   9.078   2.811   9.982 -1.1798  0.4720  2.7330
  744MOL0     H  435   9.125   2.675   9.882  1.6102 -0.9783  0.9493
  744MOL0     H  436   8.880   2.478  10.149  1.2329 -0.9796 -1.7364
  744MOL0     H  437   9.694   2.450   9.987 -1.0292 -0.8478  1.8999
  744MOL0     H  438  10.020   2.372  10.009 -0.0419 -1.0382 -0.8152
  744MOL0     H  439   9.882   2.369   9.896  0.6779 -2.7142  1.0090
  744MOL0     H  440  10.012   2.477   9.868 -1.6291 -0.0018 -0.9319
  745MOL0     O  441  11.230   1.239   1.785 -0.4023  0.7043 -0.1631
  745MOL0     C  442  11.260   1.128   1.819  0.4152  0.3637 -0.5528
  745MOL0     O  443  11.368   1.050   1.764 -0.9257 -0.0307  0.1842
  745MOL0     C  444  11.498   1.094   1.767 -0.6238 -0.1518  0.2966
  745MOL0     C  445  11.601   1.031   1.697  0.3925  0.1506  0.3313
  745MOL0     C  446  11.735   1.074   1.708  0.1503 -0.2700 -0.3810
  745MOL0     C  447  11.768   1.186   1.780 -0.7802 -0.8744  0.9985
  745MOL0     O  448  11.905   1.221   1.789 -0.0943  0.7752 -0.1845
  745MOL0     C  449  11.991   1.184   1.681  0.2859 -0.7607 -0.0532
  745MOL0     C  450  12.122   1.266   1.702  0.0483 -0.5455 -0.1889
  745MOL0     C  451  12.202   1.215   1.823  0.2130  0.5401 -0.8663
  745MOL0     C  452  12.332   1.294   1.834  0.3594 -0.5961  0.2326
  745MOL0     C  453  12.435   1.235   1.928  0.2233 -0.2493  0.8836
  745MOL0     C  454  12.581   1.292   1.911  0.8676  0.0208 -0.4534
  745MOL0     C  455  12.667   1.267   2.030  1.0000 -0.4190  0.1338
  745MOL0     C  456  12.743   1.136   2.038  0.9635 -0.1697 -0.6267
  745MOL0     N  457  12.804   1.123   2.174  0.5069 -0.2785 -1.1021
  745MOL0     C  458  12.933   1.132   2.213 -0.2492  0.5419  0.2795
  745MOL0     C  459  12.939   1.109   2.344 -0.7868  0.2554 -0.3211
  745MOL0     C  460  13.063   1.118   2.437 -0.3865  0.3257  0.0483
  745MOL0     C  461  13.120   1.258   2.451  0.3228 -0.2949 -0.1055
  745MOL0     C  462  13.260   1.270   2.513  0.2380  0.0838  0.2277
  745MOL0     C  463  13.251   1.279   2.666  0.9798 -0.1868  0.5111
  745MOL0     O  464  13.364   1.225   2.743  0.5958 -0.3159 -0.4283
  745MOL0     C  465  13.491   1.244   2.710 -0.6321  0.6556  0.6759
  745MOL0     C  466  13.543   1.355   2.653 -0.6502 -0.4457  0.4867
  745MOL0     C  467  13.678   1.379   2.638 -0.2181  0.1397 -0.1542
  745MOL0     C  468  13.771   1.286   2.677 -0.6761 -0.0881 -0.0500
  745MOL0     C  469  13.913   1.310   2.675  0.4478  0.0898  0.1991
  745MOL0     O  470  13.992   1.224   2.748  0.4889  0.2719  0.2044
  745MOL0     C  471  14.126   1.236   2.722 -0.0648 -0.5316  0.1067
  745MOL0     C  472  14.193   1.175   2.610  0.2729  1.0774  0.0135
  745MOL0     C  473  14.333   1.192   2.593 -0.3304 -0.5490  0.7499
  745MOL0     C  474  14.395   1.271   2.689 -0.7519 -0.0249  0.1185
  745MOL0     O  475  14.537   1.270   2.682 -0.9036  0.2931 -0.0318
  745MOL0     C  476  14.618   1.325   2.779 -0.0408  0.2049 -0.1811
  745MOL0     C  477  14.761   1.293   2.747 -0.1628  0.1457  0.1763
  745MOL0     C  478  14.857   1.384   2.834  0.5962  0.0007  0.0055
  745MOL0     C  479  15.002   1.394   2.813 -0.6585 -0.4607 -0.3832
  745MOL0     C  480  15.041   1.431   2.667  0.1819  0.3173  0.2425
  745MOL0     C  481  15.000   1.574   2.628 -0.0943  0.7856  0.3941
  745MOL0     C  482  15.076   1.627   2.496 -0.2397  0.2562 -0.5825
  745MOL0     C  483  15.031   1.773   2.448  0.4953 -0.4376 -0.6480
  745MOL0    Cl  484  15.066   1.896   2.576  0.0977 -0.0009  0.3680
  745MOL0     C  485  14.336   1.321   2.803  0.0173 -0.5951  0.0985
  745MOL0     C  486  14.195   1.308   2.818 -0.0981  0.1819 -0.7734
  745MOL0     O  487  13.958   1.407   2.609 -0.2024  0.0506  0.4424
  745MOL0     C  488  13.721   1.173   2.741  0.2934 -0.6943  0.3753
  745MOL0     C  489  13.582   1.153   2.754 -0.7278  0.0206  0.0772
  745MOL0     N  490  12.804   1.080   2.379 -0.5834  0.3483  0.6473
  745MOL0     N  491  12.726   1.071   2.278  0.0263 -0.3662 -0.0475
  745MOL0     C  492  11.669   1.257   1.835  0.9059 -1.6397 -0.8390
  745MOL0     C  493  11.536   1.214   1.840 -0.1292 -0.2152  0.1619
  745MOL0     C  494  11.157   1.058   1.906 -0.0666  0.8451  0.5842
  745MOL0     C  495  11.196   0.930   1.948  0.3717 -0.2012 -0.7637
  745MOL0     C  496  11.108   0.861   2.023 -1.0523 -0.2718 -0.5219
  745MOL0     C  497  10.984   0.904   2.060 -0.1427  0.1528  0.4100
  745MOL0     O  498  10.911   0.811   2.132  0.3506  0.0866 -0.3319
  745MOL0     C  499  10.767   0.815   2.141 -0.3246 -0.0981  0.0770
  745MOL0     C  500  10.697   0.681   2.116 -0.1752 -0.0114 -0.3860
  745MOL0     C  501  10.729   0.576   2.219  0.0873  0.0373  0.0944
  745MOL0     C  502  10.651   0.448   2.192  0.1774  0.2324  0.5453
  745MOL0     C  503  10.637   0.358   2.309 -0.4059 -0.4798 -0.8268
  745MOL0     C  504  10.648   0.287   2.411 -0.1223  0.4492  0.3452
  745MOL0     C  505  10.953   1.032   2.032  0.7864 -0.8815 -0.6536
  745MOL0     C  506  11.036   1.111   1.959 -0.5991 -0.0017 -0.3407
  745MOL0     C  507  10.991   1.253   1.939 -0.3191 -1.0506 -0.2571
  745MOL0     H  508  11.584   0.937   1.646  0.5810 -0.2384  0.9675
  745MOL0     H  509  11.813   1.018   1.657  0.3887 -1.3890  1.1614
  745MOL0     H  510  12.003   1.076   1.687 -0.6069 -1.2016 -3.5941
  745MOL0     H  511  11.942   1.217   1.588 -2.7641  0.8201  1.9345
  745MOL0     H  512  12.097   1.372   1.715  2.3995 -0.1467  1.5803
  745MOL0     H  513  12.172   1.270   1.605  0.1074  2.3465 -0.1232
  745MOL0     H  514  12.223   1.108   1.829 -0.3489  0.4673  0.2087
  745MOL0     H  515  12.139   1.226   1.912  0.1707 -4.0808 -0.0660
  745MOL0     H  516  12.391   1.297   1.742  0.9373  0.3637  0.6247
  745MOL0     H  517  12.309   1.397   1.861  0.3625  0.4819 -3.4282
  745MOL0     H  518  12.406   1.259   2.031 -0.9404 -0.4546  0.6247
  745MOL0     H  519  12.439   1.126   1.922  0.2332 -0.1896 -2.1801
  745MOL0     H  520  12.630   1.259   1.819  0.0822 -0.4687 -0.7080
  745MOL0     H  521  12.569   1.397   1.885  0.2006 -0.4484 -2.1704
  745MOL0     H  522  12.605   1.272   2.119 -0.5274 -0.6014 -0.8863
  745MOL0     H  523  12.734   1.354   2.027  2.3591 -1.4468 -0.8110
  745MOL0     H  524  12.670   1.055   2.026  0.1796  0.1812  1.4226
  745MOL0     H  525  12.827   1.131   1.968  2.0651 -0.1831  0.6651
  745MOL0     H  526  13.014   1.170   2.152 -1.4263  2.4625 -0.1530
  745MOL0     H  527  13.034   1.088   2.538 -0.4100  1.3660  0.3586
  745MOL0     H  528  13.131   1.041   2.400 -1.5396 -0.4928 -0.4481
  745MOL0     H  529  13.127   1.314   2.357 -1.3293  0.1238 -0.0108
  745MOL0     H  530  13.042   1.318   2.499 -0.1489 -1.5000  0.6769
  745MOL0     H  531  13.292   1.371   2.486 -0.1731  1.1294  3.2227
  745MOL0     H  532  13.330   1.190   2.485  1.1515  0.0701  2.3791
  745MOL0     H  533  13.159   1.228   2.696  0.5061 -0.6663 -1.6038
  745MOL0     H  534  13.235   1.385   2.692  3.1576 -0.2820  2.6125
  745MOL0     H  535  13.480   1.431   2.609 -0.5153 -0.7213 -0.1988
  745MOL0     H  536  13.710   1.466   2.582 -0.4881  1.6419  1.9091
  745MOL0     H  537  14.140   1.103   2.549  2.3953  0.2453 -0.9645
  745MOL0     H  538  14.400   1.144   2.523  1.7118  0.1089  2.1559
  745MOL0     H  539  14.607   1.433   2.788  2.3217  0.3496  2.2663
  745MOL0     H  540  14.593   1.278   2.874  2.5731  0.2260  0.5760
  745MOL0     H  541  14.791   1.189   2.767 -2.9320 -0.7966 -0.1338
  745MOL0     H  542  14.783   1.321   2.644  0.2605 -1.1896 -0.1141
  745MOL0     H  543  14.822   1.488   2.826 -1.1452 -0.3320  2.1656
  745MOL0     H  544  14.836   1.360   2.939  1.8974  1.5251  0.6757
  745MOL0     H  545  15.049   1.300   2.846  0.6808  0.6178  0.9060
  745MOL0     H  546  15.038   1.470   2.883  2.4687 -1.7837 -0.3871
  745MOL0     H  547  15.009   1.357   2.594 -1.6886 -0.2923  1.6143
  745MOL0     H  548  15.151   1.435   2.661  0.1294 -0.0775 -1.2972
  745MOL0     H  549  14.892   1.572   2.612 -0.3692 -4.3564  1.3060
  745MOL0     H  550  15.025   1.639   2.712 -1.2277  0.0980  1.2941
  745MOL0     H  551  15.052   1.563   2.410 -1.9144  0.8041 -0.5470
  745MOL0     H  552  15.185   1.629   2.511  0.2202  1.0212 -3.4093
  745MOL0     H  553  15.088   1.795   2.358  0.9542 -2.1609 -0.8158
  745MOL0     H  554  14.929   1.773   2.408 -0.1036 -2.8769  0.6557
  745MOL0     H  555  14.387   1.384   2.875  0.0263  1.4460 -1.5775
  745MOL0     H  556  14.156   1.356   2.907  0.8762 -0.2153 -0.1189
  745MOL0     H  557  13.769   1.094   2.797  0.8651 -1.9206 -1.7186
  745MOL0     H  558  13.549   1.068   2.812 -0.9886  0.1745  0.1589
  745MOL0     H  559  11.698   1.352   1.878  0.7829 -2.0635  0.2230
  745MOL0     H  560  11.473   1.279   1.899 -1.9822 -0.6980 -1.1588
  745MOL0     H  561  11.300   0.897   1.941  1.0401  1.6129  0.0102
  745MOL0     H  562  11.133   0.759   2.052 -0.4780  0.3233  1.1414
  745MOL0     H  563  10.724   0.885   2.069 -1.2676 -0.3117  0.4181
  745MOL0     H  564  10.727   0.861   2.232 -1.2218  1.0453 -0.8539
  745MOL0     H  565  10.722   0.644   2.016  1.0591  1.2203 -0.5684
  745MOL0     H  566  10.589   0.700   2.107 -1.0701 -2.2816  3.4848
  745MOL0     H  567  10.689   0.607   2.316  0.7203  0.9294  0.0755
  745MOL0     H  568  10.838   0.563   2.223  0.3183  2.0614  2.1670
  745MOL0     H  569  10.551   0.481   2.161  0.1305 -0.2326  0.1829
  745MOL0     H  570  10.704   0.401   2.109  2.8239 -0.4639  2.5148
  745MOL0     H  571  10.658   0.207   2.481  3.2871 -1.8690 -2.4195
  745MOL0     H  572  10.859   1.071   2.070  0.2813 -4.1264  1.8420
  745MOL0     H  573  11.073   1.324   1.951  0.1193 -1.1409 -2.3584
  745MOL0     H  574  10.960   1.264   1.835  1.1114  1.3913 -0.4785
  745MOL0     H  575  10.906   1.286   1.999  1.4685 -0.8248  2.2968
  746MOL0     O  576   4.893  11.263   2.118 -0.4294 -0.1465 -0.0415
  746MOL0     C  577   4.893  11.170   2.046 -0.3028  0.3055 -0.0969
  746MOL0     O  578   4.996  11.140   1.961 -0.3322 -0.3082 -0.5695
  746MOL0     C  579   5.091  11.233   1.935  0.1782  0.2533  0.8378
  746MOL0     C  580   5.207  11.255   2.007  0.4048 -0.0953  0.0041
  746MOL0     C  581   5.309  11.338   1.958  0.0796  0.1869  0.0223
  746MOL0     C  582   5.301  11.395   1.829  0.4632 -0.7343  0.4896
  746MOL0     O  583   5.400  11.460   1.758 -0.4110 -0.7179  0.6563
  746MOL0     C  584   5.527  11.475   1.815 -0.8199  0.3131 -0.4793
  746MOL0     C  585   5.630  11.525   1.720 -0.0135  0.8994  0.3034
  746MOL0     C  586   5.770  11.532   1.792  0.1829  0.2368 -0.7603
  746MOL0     C  587   5.866  11.599   1.698  0.4904 -0.2604  0.0238
  746MOL0     C  588   6.004  11.605   1.762  0.1927  0.6848 -0.9116
  746MOL0     C  589   6.072  11.463   1.778 -0.6105  0.0112 -0.3613
  746MOL0     C  590   6.224  11.474   1.776 -0.2201  0.0733 -0.1918
  746MOL0     C  591   6.286  11.567   1.877  0.4987 -0.2783 -0.0534
  746MOL0     N  592   6.436  11.558   1.867  0.6184 -0.4900  0.0241
  746MOL0     C  593   6.505  11.462   1.930  0.4850  0.1225  0.5557
  746MOL0     C  594   6.631  11.492   1.896 -0.0197 -0.7668  0.0587
  746MOL0     C  595   6.743  11.394   1.943  0.4725  0.7028  0.9520
  746MOL0     C  596   6.885  11.436   1.926  0.5479  0.6477  0.4365
  746MOL0     C  597   6.938  11.412   1.786 -0.5893 -0.0120 -0.7139
  746MOL0     C  598   7.088  11.402   1.769  1.0252 -0.3712  0.4895
  746MOL0     O  599   7.157  11.532   1.791  0.3704 -0.6573 -0.7000
  746MOL0     C  600   7.291  11.541   1.765 -0.6503 -0.4833  0.2461
  746MOL0     C  601   7.369  11.448   1.699  0.3323  0.3826 -0.1221
  746MOL0     C  602   7.512  11.472   1.670 -0.3288  0.0759 -0.7568
  746MOL0     C  603   7.571  11.589   1.707  0.2855 -0.8061 -0.7241
  746MOL0     C  604   7.718  11.616   1.684  0.0081 -0.8715  0.1958
  746MOL0     O  605   7.744  11.749   1.661 -0.4234  0.5213 -0.3790
  746MOL0     C  606   7.881  11.766   1.642  0.0295 -0.2018  0.1694
  746MOL0     C  607   7.934  11.781   1.520  0.0347  0.5616 -0.3323
  746MOL0     C  608   8.064  11.825   1.495  0.0438 -0.3221 -0.3711
  746MOL0     C  609   8.152  11.831   1.604  0.3251 -0.2536  0.0271
  746MOL0     O  610   8.278  11.866   1.575 -0.2035 -0.3237  0.0496
  746MOL0     C  611   8.376  11.909   1.681  0.5785 -0.3857  0.1400
  746MOL0     C  612   8.498  11.942   1.599  0.2564 -0.1382 -0.4179
  746MOL0     C  613   8.554  11.824   1.521 -0.1114 -0.5192 -0.2814
  746MOL0     C  614   8.704  11.822   1.502  0.3000 -0.4727  0.5257
  746MOL0     C  615   8.745  11.730   1.386  0.3400  0.1563  0.3798
  746MOL0     C  616   8.897  11.721   1.374  0.0376  0.2364 -0.9278
  746MOL0     C  617   8.946  11.645   1.255 -0.2903  0.0358 -0.0213
  746MOL0     C  618   9.096  11.638   1.263  0.1863 -0.3759 -0.0593
  746MOL0    Cl  619   9.168  11.556   1.410 -0.1261  0.0837 -0.1664
  746MOL0     C  620   8.098  11.811   1.735  0.6172  1.0309 -0.4244
  746MOL0     C  621   7.962  11.780   1.754  0.5980 -0.9414  0.1381
  746MOL0     O  622   7.794  11.524   1.675 -0.3014  0.1426 -0.1928
  746MOL0     C  623   7.494  11.682   1.777  0.9767  0.6249  0.4688
  746MOL0     C  624   7.350  11.663   1.800 -0.9377 -0.0049  0.0457
  746MOL0     N  625   6.634  11.593   1.800  0.5217  0.0432 -0.1005
  746MOL0     N  626   6.512  11.629   1.780 -0.5998  0.0431  0.5666
  746MOL0     C  627   5.181  11.385   1.765 -0.1233  0.7856 -1.1267
  746MOL0     C  628   5.073  11.303   1.810  0.1749 -0.4874 -0.0914
  746MOL0     C  629   4.773  11.070   2.063 -0.8123 -0.7092  0.7609
  746MOL0     C  630   4.750  10.988   1.953  0.2978  0.2104  0.8655
  746MOL0     C  631   4.649  10.890   1.960  0.1887 -0.3480  0.1112
  746MOL0     C  632   4.562  10.881   2.067  0.2156 -0.4221 -0.6782
  746MOL0     O  633   4.450  10.798   2.049  0.5261  0.2129  0.2990
  746MOL0     C  634   4.348  10.808   2.151  1.5903  0.7113 -0.6461
  746MOL0     C  635   4.255  10.935   2.139  0.2700 -0.0842  0.3299
  746MOL0     C  636   4.172  10.922   2.006  0.5945 -0.1297  1.2442
  746MOL0     C  637   4.223  11.015   1.892 -0.1518  0.1405 -0.6746
  746MOL0     C  638   4.188  10.951   1.761  0.2554  0.4715 -0.1810
  746MOL0     C  639   4.194  10.874   1.664  0.4423  0.3982  0.5125
  746MOL0     C  640   4.589  10.966   2.181 -0.2071 -0.3634 -0.2229
  746MOL0     C  641   4.692  11.055   2.177 -0.2530  0.0371  0.1815
  746MOL0     C  642   4.726  11.123   2.309 -0.7682  0.5815 -0.4906
  746MOL0     H  643   5.217  11.195   2.097 -0.5429  1.1201  0.9567
  746MOL0     H  644   5.404  11.353   2.008  0.6018 -2.3371 -0.0617
  746MOL0     H  645   5.524  11.546   1.898  2.3908  0.4437 -0.3363
  746MOL0     H  646   5.556  11.372   1.840 -1.0369  0.1717 -0.8045
  746MOL0     H  647   5.594  11.620   1.678  0.8677  1.9940  1.9354
  746MOL0     H  648   5.638  11.454   1.637 -1.1658  1.2356 -0.1277
  746MOL0     H  649   5.796  11.429   1.817  0.6830  0.5053 -0.1639
  746MOL0     H  650   5.764  11.593   1.882 -2.0092 -1.9067  0.6765
  746MOL0     H  651   5.868  11.543   1.603 -0.7786  0.2013 -0.2908
  746MOL0     H  652   5.830  11.701   1.682  0.1976 -0.2404  0.8094
  746MOL0     H  653   6.062  11.670   1.696  2.7625  0.5107  1.0249
  746MOL0     H  654   6.001  11.640   1.866  0.2398  1.8464 -1.2906
  746MOL0     H  655   6.031  11.405   1.861  1.6035 -0.0018  0.7998
  746MOL0     H  656   6.042  11.405   1.690 -1.1344 -1.3947  0.6978
  746MOL0     H  657   6.247  11.498   1.672 -1.8045 -0.1221 -0.6097
  746MOL0     H  658   6.266  11.377   1.802 -1.6229 -0.3014  0.7900
  746MOL0     H  659   6.260  11.671   1.854  1.1979 -0.2504 -0.7460
  746MOL0     H  660   6.249  11.546   1.977  0.6105 -0.9994 -0.1620
  746MOL0     H  661   6.487  11.371   1.986 -1.5723 -0.3903 -0.8745
  746MOL0     H  662   6.745  11.390   2.053  0.7217  2.3514  1.0332
  746MOL0     H  663   6.738  11.292   1.904  0.7089  0.2532  2.0547
  746MOL0     H  664   6.902  11.540   1.956  0.6960  0.2623  1.7589
  746MOL0     H  665   6.939  11.366   1.991 -0.2290 -3.1640 -2.6747
  746MOL0     H  666   6.904  11.493   1.722 -0.2833 -0.5966 -1.6415
  746MOL0     H  667   6.890  11.318   1.757 -0.4850 -1.6572  3.6568
  746MOL0     H  668   7.104  11.377   1.664 -0.7006  2.4420 -0.5306
  746MOL0     H  669   7.124  11.327   1.840  0.1137 -2.2555 -0.9697
  746MOL0     H  670   7.317  11.363   1.656 -1.6666  2.5348 -2.2717
  746MOL0     H  671   7.577  11.408   1.611  0.0114  3.5122 -4.5184
  746MOL0     H  672   7.869  11.772   1.433 -1.6033  3.6727  0.4503
  746MOL0     H  673   8.108  11.843   1.398  0.2149  3.2275  0.2466
  746MOL0     H  674   8.335  11.997   1.731  0.5148 -1.1462  1.4655
  746MOL0     H  675   8.386  11.819   1.743 -1.2503 -1.7224 -1.4104
  746MOL0     H  676   8.471  12.026   1.535 -1.1391  1.2032  1.8025
  746MOL0     H  677   8.572  11.971   1.674 -1.5280 -2.3340  2.4084
  746MOL0     H  678   8.535  11.733   1.579  1.6082  0.1854  1.4787
  746MOL0     H  679   8.506  11.830   1.423  0.4312  1.2896 -0.4761
  746MOL0     H  680   8.757  11.776   1.586  0.2296  0.7416  1.2589
  746MOL0     H  681   8.744  11.922   1.479 -0.1511 -0.7694 -1.7742
  746MOL0     H  682   8.705  11.771   1.293  1.1330  0.2675  0.0845
  746MOL0     H  683   8.716  11.625   1.396  4.5580 -1.0684  1.9939
  746MOL0     H  684   8.944  11.820   1.362  1.7396 -0.4735 -0.4624
  746MOL0     H  685   8.939  11.685   1.468 -1.6416  1.0470  0.1927
  746MOL0     H  686   8.914  11.693   1.162  1.9677  2.3501  0.2792
  746MOL0     H  687   8.913  11.542   1.266  0.5756 -0.0959  1.8634
  746MOL0     H  688   9.127  11.586   1.172  3.6103 -1.1856  1.4347
  746MOL0     H  689   9.149  11.734   1.260  0.6105 -0.6013  0.1945
  746MOL0     H  690   8.163  11.832   1.819  1.3954 -3.2359  0.2953
  746MOL0     H  691   7.927  11.798   1.855  0.9561  0.5966  0.0114
  746MOL0     H  692   7.529  11.780   1.807 -2.7006  1.6334  1.9371
  746MOL0     H  693   7.293  11.741   1.848 -2.2211  0.5768 -2.2859
  746MOL0     H  694   5.193  11.414   1.661  1.1090  0.9646 -0.9426
  746MOL0     H  695   4.987  11.288   1.746  0.7210  2.2793 -1.6305
  746MOL0     H  696   4.817  10.998   1.869 -1.4095  1.1233 -0.4373
  746MOL0     H  697   4.641  10.827   1.872  2.1223  1.3127 -1.3301
  746MOL0     H  698   4.402  10.806   2.246  2.5146 -3.2933 -1.0902
  746MOL0     H  699   4.293  10.714   2.150  3.0381 -0.2362  1.2929
  746MOL0     H  700   4.321  11.022   2.140  3.3124 -2.1847 -1.3434
  746MOL0     H  701   4.189  10.924   2.226 -0.6511 -0.3964 -0.3850
  746MOL0     H  702   4.069  10.955   2.020  1.0182  2.0709 -0.3643
  746MOL0     H  703   4.166  10.816   1.977 -1.1665  0.1707  0.3994
  746MOL0     H  704   4.179  11.111   1.920  1.9844  0.8917  0.3703
  746MOL0     H  705   4.332  11.012   1.901 -0.1885 -0.3780 -0.3160
  746MOL0     H  706   4.187  10.809   1.579  2.0781  0.9982 -0.1096
  746MOL0     H  707   4.540  10.958   2.278 -0.4007 -0.5098 -0.3323
  746MOL0     H  708   4.834  11.140   2.313 -0.5492 -0.7929 -0.0603
  746MOL0     H  709   4.651  11.201   2.322 -0.9230  0.3200  0.1979
  746MOL0     H  710   4.714  11.052   2.391  1.5322 -3.4803 -3.2732
  747MOL0     O  711   0.831   5.213   3.736  0.0778  1.0708 -0.3231
  747MOL0     C  712   0.808   5.233   3.852  0.0650 -0.2130 -0.1098
  747MOL0     O  713   0.898   5.277   3.939  0.0302  0.0616 -0.7822
  747MOL0     C  714   1.026   5.326   3.915 -0.0474  0.1197 -0.2092
  747MOL0     C  715   1.090   5.355   4.031 -0.4839  0.1084 -0.1836
  747MOL0     C  716   1.205   5.433   4.027 -0.6827 -0.2063  0.2914
  747MOL0     C  717   1.264   5.478   3.907  0.1846 -1.0767 -0.3722
  747MOL0     O  718   1.378   5.555   3.913  0.8881 -0.6594  0.2500
  747MOL0     C  719   1.440   5.607   3.790 -0.5740 -0.0353  0.1798
  747MOL0     C  720   1.574   5.674   3.829 -1.0256 -0.9864  0.5642
  747MOL0     C  721   1.689   5.570   3.840  0.3477 -0.7048  0.1703
  747MOL0     C  722   1.826   5.630   3.827 -0.5184  0.6855 -0.5357
  747MOL0     C  723   1.930   5.528   3.878  0.1749  0.6798  0.5373
  747MOL0     C  724   2.070   5.579   3.870 -0.8815  0.7943  0.3583
  747MOL0     C  725   2.164   5.473   3.936  0.6579 -1.2363  0.4443
  747MOL0     C  726   2.318   5.504   3.933  0.1092 -0.1156  0.0109
  747MOL0     N  727   2.409   5.394   3.984  0.9404 -0.6889 -0.0133
  747MOL0     C  728   2.472   5.401   4.102  0.1232  0.0813  0.2732
  747MOL0     C  729   2.576   5.326   4.091 -0.6880 -0.4212 -0.0950
  747MOL0     C  730   2.675   5.295   4.211 -0.3241  0.0372  0.6624
  747MOL0     C  731   2.809   5.225   4.163  1.0851  0.8523 -0.4641
  747MOL0     C  732   2.896   5.167   4.271  0.1139 -0.0585 -0.1141
  747MOL0     C  733   2.972   5.277   4.346  0.8098  0.1630  0.2145
  747MOL0     O  734   3.069   5.330   4.256 -0.1715 -0.0602  0.0837
  747MOL0     C  735   3.197   5.284   4.286  0.0804 -0.8772  0.1024
  747MOL0     C  736   3.239   5.163   4.347 -0.5040 -0.0382  0.3521
  747MOL0     C  737   3.374   5.134   4.362  0.2452 -0.1239  0.2766
  747MOL0     C  738   3.471   5.230   4.331  1.1123 -0.6837 -0.0503
  747MOL0     C  739   3.613   5.191   4.348 -0.6887 -0.8136 -0.0331
  747MOL0     O  740   3.641   5.057   4.377 -0.4384  0.1982  0.2161
  747MOL0     C  741   3.764   5.026   4.435  0.0796 -0.0743 -0.1926
  747MOL0     C  742   3.855   4.937   4.375  0.0230  0.0827 -0.2175
  747MOL0     C  743   3.982   4.916   4.431  0.0456  0.0467  0.6310
  747MOL0     C  744   4.026   4.987   4.551 -0.7567  0.1383 -0.6385
  747MOL0     O  745   4.149   4.961   4.604 -0.1156 -0.4950 -0.4027
  747MOL0     C  746   4.254   4.992   4.508  0.4271 -0.0526  0.3694
  747MOL0     C  747   4.393   5.028   4.575 -0.3086  0.7636 -0.1903
  747MOL0     C  748   4.403   5.168   4.646  0.1300  0.5206  0.0966
  747MOL0     C  749   4.542   5.197   4.715  0.4489 -0.8474 -0.5027
  747MOL0     C  750   4.525   5.336   4.774 -0.2313 -0.5322 -0.0629
  747MOL0     C  751   4.656   5.406   4.797 -0.3223 -0.6712 -0.1301
  747MOL0     C  752   4.644   5.551   4.852 -0.0503  0.6409 -0.4090
  747MOL0     C  753   4.785   5.613   4.864 -0.6359  0.4307  0.7021
  747MOL0    Cl  754   4.851   5.672   4.706 -0.1512 -0.0456  0.4667
  747MOL0     C  755   3.935   5.073   4.614 -0.2104  0.5111 -0.8151
  747MOL0     C  756   3.810   5.085   4.564 -0.5086 -0.2801  0.8022
  747MOL0     O  757   3.701   5.283   4.347  0.1245  0.1224  0.5624
  747MOL0     C  758   3.428   5.348   4.260 -0.6858  0.4188  0.2506
  747MOL0     C  759   3.294   5.373   4.240  0.1974  0.8547 -0.0301
  747MOL0     N  760   2.585   5.262   3.969 -0.4818 -0.4502 -0.6588
  747MOL0     N  761   2.479   5.307   3.901 -0.0438  0.6676  0.0560
  747MOL0     C  762   1.194   5.450   3.786 -0.6595  0.0587 -0.0419
  747MOL0     C  763   1.075   5.378   3.797 -0.3257 -0.2404 -0.4517
  747MOL0     C  764   0.682   5.183   3.909  1.2665  0.8743  0.8353
  747MOL0     C  765   0.677   5.136   4.046 -0.5484 -0.5772  0.6896
  747MOL0     C  766   0.556   5.087   4.099 -0.1406 -0.3143  0.7353
  747MOL0     C  767   0.435   5.067   4.023  0.1595  0.3284 -0.5051
  747MOL0     O  768   0.316   5.032   4.086  0.5333  0.2532  0.2046
  747MOL0     C  769   0.322   4.936   4.190 -0.3776  0.6027  0.0442
  747MOL0     C  770   0.187   4.867   4.188 -0.0276  0.6031 -0.3412
  747MOL0     C  771   0.182   4.730   4.270  0.2553  0.8908  0.3755
  747MOL0     C  772   0.191   4.754   4.423 -0.2130  0.1264 -0.0137
  747MOL0     C  773   0.066   4.804   4.473  0.1575 -0.5865 -1.3377
  747MOL0     C  774  -0.029   4.844   4.539 -0.0459 -0.2510  0.9206
  747MOL0     C  775   0.444   5.104   3.890 -0.0107  0.6283  0.7206
  747MOL0     C  776   0.557   5.168   3.834  0.2928 -0.2546  0.1897
  747MOL0     C  777   0.553   5.211   3.686 -0.5276  0.6327 -0.0850
  747MOL0     H  778   1.049   5.316   4.123  0.3505 -0.4870 -0.0467
  747MOL0     H  779   1.262   5.454   4.117  1.5556 -2.4275 -0.4933
  747MOL0     H  780   1.461   5.523   3.723  0.4579  0.9737 -0.8121
  747MOL0     H  781   1.372   5.678   3.741 -0.4923  0.4812  0.8026
  747MOL0     H  782   1.554   5.723   3.924 -0.4480 -2.9737  1.7568
  747MOL0     H  783   1.600   5.758   3.763 -1.4743 -1.9788 -0.9138
  747MOL0     H  784   1.667   5.498   3.761 -3.3867  2.4504 -1.9830
  747MOL0     H  785   1.672   5.530   3.941 -2.7978 -0.8687 -0.3116
  747MOL0     H  786   1.851   5.660   3.725  2.7948 -0.7376 -0.2642
  747MOL0     H  787   1.825   5.717   3.892 -2.5566  0.1034  0.3122
  747MOL0     H  788   1.913   5.513   3.985 -1.5198  1.5326  0.4233
  747MOL0     H  789   1.921   5.432   3.827 -0.9492  1.9567 -1.8035
  747MOL0     H  790   2.090   5.582   3.762 -3.1339  1.7613 -0.0904
  747MOL0     H  791   2.077   5.682   3.906 -0.5585  2.0190 -2.8697
  747MOL0     H  792   2.145   5.384   3.876 -1.6821  0.6034 -1.7640
  747MOL0     H  793   2.131   5.465   4.040  0.3645 -0.6282  0.3982
  747MOL0     H  794   2.356   5.533   3.834  2.4114 -0.4960  0.7311
  747MOL0     H  795   2.339   5.595   3.990  1.1683  0.1141 -0.7027
  747MOL0     H  796   2.434   5.452   4.190 -1.5349 -2.2873  1.0407
  747MOL0     H  797   2.706   5.385   4.266 -0.6741 -0.0771  1.0552
  747MOL0     H  798   2.621   5.232   4.283  0.2855 -0.0098  1.0792
  747MOL0     H  799   2.791   5.140   4.095  1.1782 -0.5740  1.2179
  747MOL0     H  800   2.867   5.293   4.100 -2.5325  1.2559 -3.7612
  747MOL0     H  801   2.977   5.110   4.223  1.3879  2.4797 -1.1825
  747MOL0     H  802   2.835   5.117   4.346  1.3889  0.5259  1.3622
  747MOL0     H  803   3.017   5.268   4.445  1.5426  1.2714 -0.0015
  747MOL0     H  804   2.900   5.358   4.364  0.6345  0.2417 -0.7887
  747MOL0     H  805   3.168   5.089   4.381  0.2394 -1.4951 -1.1421
  747MOL0     H  806   3.409   5.042   4.409  1.3121 -0.7775 -1.6869
  747MOL0     H  807   3.831   4.891   4.280  0.0316  1.8992 -1.1387
  747MOL0     H  808   4.057   4.861   4.376  0.0514  1.0644 -0.4270
  747MOL0     H  809   4.266   4.902   4.449 -4.5256 -0.5697 -0.2633
  747MOL0     H  810   4.218   5.077   4.450 -0.5633  0.1312  1.2267
  747MOL0     H  811   4.412   4.967   4.664  1.9689 -0.9593 -1.7277
  747MOL0     H  812   4.471   5.021   4.499 -0.9512  1.2859 -0.9150
  747MOL0     H  813   4.392   5.241   4.566  2.0789  0.1196 -0.5995
  747MOL0     H  814   4.322   5.188   4.717  0.8009  1.0249  0.7379
  747MOL0     H  815   4.627   5.207   4.647 -0.7525  2.6650 -1.7150
  747MOL0     H  816   4.569   5.120   4.788 -0.0911 -0.8180 -0.2645
  747MOL0     H  817   4.472   5.339   4.870 -0.5111 -0.4909 -0.2158
  747MOL0     H  818   4.466   5.401   4.708  0.8686  0.2022 -0.3640
  747MOL0     H  819   4.711   5.336   4.860  0.2945  0.5592  0.7336
  747MOL0     H  820   4.714   5.408   4.705  3.1173 -1.8331  1.8272
  747MOL0     H  821   4.592   5.543   4.948  3.5912 -1.0375  1.6346
  747MOL0     H  822   4.578   5.604   4.783 -1.1339 -1.6374 -1.2201
  747MOL0     H  823   4.774   5.699   4.930 -1.2421  1.0046 -0.1320
  747MOL0     H  824   4.866   5.548   4.898 -2.0584 -0.9870  1.5372
  747MOL0     H  825   3.941   5.125   4.709  0.7074  1.0056 -1.1334
  747MOL0     H  826   3.744   5.142   4.629  1.2188  0.4136  2.0373
  747MOL0     H  827   3.499   5.427   4.239 -0.1473  0.7667  3.0265
  747MOL0     H  828   3.260   5.468   4.201 -1.2838 -1.2973 -4.6682
  747MOL0     H  829   1.220   5.490   3.688 -1.3175 -0.9070 -0.6312
  747MOL0     H  830   1.017   5.349   3.710  0.4065  3.1983 -2.2879
  747MOL0     H  831   0.769   5.147   4.102 -0.4512  0.3784  0.3503
  747MOL0     H  832   0.555   5.058   4.204  0.4757 -0.6814  0.6446
  747MOL0     H  833   0.352   4.991   4.279  1.0680  1.3206 -0.8569
  747MOL0     H  834   0.398   4.859   4.176  1.1599  2.3702 -1.8037
  747MOL0     H  835   0.171   4.840   4.084 -1.2577  0.6321 -0.1826
  747MOL0     H  836   0.115   4.940   4.226 -0.0024  0.3384  0.2380
  747MOL0     H  837   0.265   4.664   4.244  0.0911  0.8407 -0.0308
  747MOL0     H  838   0.101   4.662   4.242  1.7276 -1.4701  1.5488
  747MOL0     H  839   0.205   4.660   4.477 -1.8792  0.5779  1.2731
  747MOL0     H  840   0.268   4.831   4.436 -1.8382  1.6407  1.1637
  747MOL0     H  841  -0.107   4.881   4.602 -0.2220 -0.5234  0.8625
  747MOL0     H  842   0.350   5.090   3.837 -0.6910 -0.4701  2.1471
  747MOL0     H  843   0.457   5.193   3.639  0.0877 -2.1548 -0.4366
  747MOL0     H  844   0.575   5.318   3.682 -2.9123  1.1772 -0.0832
  747MOL0     H  845   0.623   5.156   3.623 -3.3738 -1.4600 -1.6404
  748MOL0     O  846   4.132   0.918   7.123  0.4782 -0.4297 -0.3530
  748MOL0     C  847   4.036   0.881   7.185  0.4791  0.6738 -0.3685
  748MOL0     O  848   4.021   0.865   7.323 -0.2584  0.2649  0.3708
  748MOL0     C  849   4.124   0.871   7.413 -0.2021 -0.6119  0.0655
  748MOL0     C  850   4.102   0.857   7.548 -0.1364  0.2862 -0.9549
  748MOL0     C  851   4.199   0.866   7.647 -0.5048  0.4677 -0.6578
  748MOL0     C  852   4.335   0.880   7.617 -0.2669 -0.2905  0.6431
  748MOL0     O  853   4.434   0.895   7.713 -0.1633 -0.3908 -0.4964
  748MOL0     C  854   4.421   1.022   7.780  0.3171  0.5809 -0.2819
  748MOL0     C  855   4.503   1.141   7.719 -1.2245 -0.0920  0.2852
  748MOL0     C  856   4.660   1.116   7.693  0.0892 -0.3268  0.0975
  748MOL0     C  857   4.726   1.246   7.635 -0.1273 -0.3459 -0.8616
  748MOL0     C  858   4.879   1.218   7.610  0.4865 -0.4778 -0.4327
  748MOL0     C  859   4.906   1.134   7.488  0.5573  0.1465 -0.5225
  748MOL0     C  860   5.043   1.061   7.487  0.2157  0.8272  0.1278
  748MOL0     C  861   5.171   1.135   7.453 -0.1730 -0.0301 -0.5049
  748MOL0     N  862   5.294   1.067   7.510 -0.1558  0.6015  0.4244
  748MOL0     C  863   5.412   1.029   7.442 -0.1753  0.3095  0.4354
  748MOL0     C  864   5.473   0.929   7.515  0.2204 -0.6920  1.0105
  748MOL0     C  865   5.607   0.869   7.480 -0.0467  0.7749 -1.0761
  748MOL0     C  866   5.727   0.959   7.486  0.2746 -0.5229 -1.1439
  748MOL0     C  867   5.857   0.890   7.449 -0.8598  0.3640  0.0586
  748MOL0     C  868   5.981   0.982   7.475  0.3470 -0.9892 -0.3280
  748MOL0     O  869   5.981   1.080   7.380 -0.5822 -0.3767  0.3254
  748MOL0     C  870   6.105   1.148   7.369  0.3769 -0.4376  0.1874
  748MOL0     C  871   6.233   1.127   7.420 -0.2437  0.8107 -0.4417
  748MOL0     C  872   6.332   1.213   7.385 -0.1815  0.0575 -0.0525
  748MOL0     C  873   6.314   1.317   7.294  0.6081  0.2080  0.5010
  748MOL0     C  874   6.434   1.400   7.245 -0.1747 -0.3541 -0.3083
  748MOL0     O  875   6.560   1.354   7.289 -0.6909  0.2867  0.0179
  748MOL0     C  876   6.672   1.419   7.243 -1.1093 -0.7662  0.2244
  748MOL0     C  877   6.773   1.361   7.169  0.6613  0.5924 -0.3068
  748MOL0     C  878   6.892   1.436   7.140  0.0136  0.2807 -0.2566
  748MOL0     C  879   6.909   1.565   7.195 -0.0401 -0.8346 -0.1549
  748MOL0     O  880   7.029   1.635   7.184  0.3735 -0.0036  0.4125
  748MOL0     C  881   7.133   1.590   7.090 -0.0685  0.0028 -0.6401
  748MOL0     C  882   7.231   1.500   7.164 -0.9625  0.6196  0.5252
  748MOL0     C  883   7.360   1.473   7.100 -0.4210  0.4590  0.0838
  748MOL0     C  884   7.431   1.606   7.062  0.4521 -0.0737  0.1230
  748MOL0     C  885   7.582   1.578   7.069 -0.3099  0.4213  0.0050
  748MOL0     C  886   7.663   1.696   7.013 -0.5195 -0.4140  0.5867
  748MOL0     C  887   7.814   1.688   7.041 -0.2942 -0.3556 -0.2786
  748MOL0     C  888   7.888   1.815   7.029  0.1187  0.2676 -0.3973
  748MOL0    Cl  889   7.889   1.880   6.860 -0.0180  0.3994  0.0568
  748MOL0     C  890   6.808   1.612   7.281 -0.8473  0.0684  0.1734
  748MOL0     C  891   6.688   1.537   7.303 -0.9928 -0.3424  0.0450
  748MOL0     O  892   6.415   1.486   7.163 -0.7409  0.5696  0.0641
  748MOL0     C  893   6.185   1.339   7.233  0.0802 -0.1268  0.6423
  748MOL0     C  894   6.080   1.247   7.274 -0.6349  0.4819 -1.1479
  748MOL0     N  895   5.404   0.927   7.635  0.3585  0.6779 -0.0756
  748MOL0     N  896   5.307   1.006   7.626  0.6561  0.9301  0.9320
  748MOL0     C  897   4.362   0.903   7.479 -0.2950 -0.5653  0.3666
  748MOL0     C  898   4.264   0.894   7.383 -0.5719 -0.4077 -0.8330
  748MOL0     C  899   3.902   0.873   7.110  0.2185 -0.6068  0.2509
  748MOL0     C  900   3.785   0.897   7.191 -0.6380  0.2478 -0.6125
  748MOL0     C  901   3.657   0.883   7.139  0.2490 -0.1914  0.6631
  748MOL0     C  902   3.638   0.856   7.001  0.4533  0.1688  0.4385
  748MOL0     O  903   3.526   0.847   6.937  0.5209 -1.1817  0.3839
  748MOL0     C  904   3.405   0.817   7.011 -0.3817 -0.0863 -0.2518
  748MOL0     C  905   3.286   0.857   6.919 -0.5356 -0.8785 -0.3577
  748MOL0     C  906   3.155   0.831   6.990  0.1633 -0.2581 -0.0116
  748MOL0     C  907   3.043   0.910   6.918  0.1877  0.2054 -0.3497
  748MOL0     C  908   3.034   0.880   6.783  0.5816 -0.8584  0.3300
  748MOL0     C  909   3.031   0.854   6.666  0.5329 -0.0343  0.2125
  748MOL0     C  910   3.756   0.850   6.918 -0.7820  0.2095  0.2589
  748MOL0     C  911   3.889   0.847   6.974  0.3663 -0.7883  0.3089
  748MOL0     C  912   4.002   0.844   6.872  0.2711  1.0095 -0.1289
  748MOL0     H  913   4.002   0.835   7.584  0.0220  2.8039  1.3871
  748MOL0     H  914   4.158   0.856   7.747 -1.2655  0.6224 -0.9419
  748MOL0     H  915   4.317   1.054   7.787  0.7260  1.7599  1.0838
  748MOL0     H  916   4.447   1.006   7.885 -1.6712  1.1939  0.3469
  748MOL0     H  917   4.492   1.231   7.780  2.6422  2.0502 -1.7250
  748MOL0     H  918   4.459   1.154   7.619  0.2403  2.4874 -0.1106
  748MOL0     H  919   4.671   1.028   7.630  1.0354  0.2777 -0.6112
  748MOL0     H  920   4.707   1.083   7.786  2.4082  0.7054 -0.6195
  748MOL0     H  921   4.682   1.276   7.540  0.6798 -0.0336 -1.1479
  748MOL0     H  922   4.715   1.322   7.713  2.1929 -1.2561  0.4708
  748MOL0     H  923   4.941   1.307   7.600  1.4136 -0.9482  0.8697
  748MOL0     H  924   4.916   1.166   7.699 -0.4607 -0.0532  0.2249
  748MOL0     H  925   4.834   1.051   7.479 -0.3314  0.9297 -0.8408
  748MOL0     H  926   4.887   1.200   7.403 -1.2406  0.1420 -0.1752
  748MOL0     H  927   5.034   0.980   7.414 -0.5678  0.8177  0.2238
  748MOL0     H  928   5.047   1.021   7.589  0.2876 -1.5612 -0.7326
  748MOL0     H  929   5.183   1.145   7.344 -0.9218  1.0210 -0.5064
  748MOL0     H  930   5.166   1.240   7.484  0.7304 -0.6806  2.0614
  748MOL0     H  931   5.436   1.058   7.340 -1.8376 -1.2836 -0.4730
  748MOL0     H  932   5.624   0.784   7.547  2.7154  2.3481  0.3976
  748MOL0     H  933   5.598   0.834   7.377 -0.1426  1.0514 -1.1635
  748MOL0     H  934   5.717   1.050   7.425  1.2699 -1.1592 -2.2858
  748MOL0     H  935   5.729   0.992   7.591 -4.2952 -1.8658 -0.4307
  748MOL0     H  936   5.856   0.856   7.345  0.6749  3.5274 -1.1339
  748MOL0     H  937   5.879   0.807   7.516  0.8292 -0.2231 -1.1728
  748MOL0     H  938   6.070   0.919   7.487 -0.5731 -2.3907 -0.5944
  748MOL0     H  939   5.963   1.020   7.576 -0.4174  1.6576 -1.3775
  748MOL0     H  940   6.257   1.042   7.483 -1.7627 -2.4463 -3.9039
  748MOL0     H  941   6.435   1.201   7.417 -0.2265  0.6950  0.3638
  748MOL0     H  942   6.746   1.263   7.131 -0.4818  0.4091  0.8910
  748MOL0     H  943   6.957   1.378   7.076 -1.2619 -1.5709  0.0587
  748MOL0     H  944   7.083   1.548   7.003  0.6488  0.8928 -1.5084
  748MOL0     H  945   7.178   1.680   7.047 -0.2202  1.5719  2.2691
  748MOL0     H  946   7.258   1.529   7.266  2.2326  0.3715 -0.1762
  748MOL0     H  947   7.170   1.410   7.181  0.0888 -0.3851 -0.7853
  748MOL0     H  948   7.425   1.420   7.171  2.5924  2.1663 -1.1994
  748MOL0     H  949   7.342   1.418   7.007  0.2442  1.0992 -0.4419
  748MOL0     H  950   7.390   1.684   7.127  1.0986  0.0266  0.4102
  748MOL0     H  951   7.399   1.640   6.963 -4.2617 -0.7030  1.1697
  748MOL0     H  952   7.616   1.485   7.022 -0.6455  0.4308 -0.2547
  748MOL0     H  953   7.595   1.563   7.177 -0.4301 -2.9995 -0.3654
  748MOL0     H  954   7.636   1.718   6.909  0.5480  0.7452  0.5326
  748MOL0     H  955   7.626   1.779   7.073  1.8441  1.4855 -0.3876
  748MOL0     H  956   7.853   1.628   6.958  1.3256  0.5509 -0.2148
  748MOL0     H  957   7.836   1.629   7.131  1.4666 -0.0356 -0.4802
  748MOL0     H  958   7.863   1.893   7.102  2.5966  1.9368 -1.2281
  748MOL0     H  959   7.993   1.788   7.041 -0.6499 -2.8166  0.1742
  748MOL0     H  960   6.837   1.695   7.345  0.9303 -0.4023  0.0444
  748MOL0     H  961   6.611   1.582   7.365  0.1750  0.3298  1.0429
  748MOL0     H  962   6.168   1.414   7.156  4.0901  0.1662 -0.1711
  748MOL0     H  963   5.984   1.251   7.224  0.2147 -0.3696 -2.9660
  748MOL0     H  964   4.461   0.926   7.440 -0.7292  2.0147  0.6117
  748MOL0     H  965   4.297   0.907   7.280 -2.1474  3.1159 -1.0364
  748MOL0     H  966   3.781   0.902   7.299 -3.5621  1.1564 -0.6916
  748MOL0     H  967   3.569   0.887   7.203  1.5203  1.0002  2.4277
  748MOL0     H  968   3.395   0.874   7.104 -0.3100  1.0034 -0.8937
  748MOL0     H  969   3.417   0.710   7.031 -0.9807 -0.1546 -0.2461
  748MOL0     H  970   3.297   0.807   6.822  2.0113  3.2298 -2.4664
  748MOL0     H  971   3.295   0.965   6.902 -2.0313  0.2552  4.4694
  748MOL0     H  972   3.163   0.859   7.096  2.5086  1.0338 -0.4637
  748MOL0     H  973   3.120   0.728   6.994 -3.4207  0.7472 -1.2061
  748MOL0     H  974   2.949   0.883   6.967  0.2362  0.2149 -0.2524
  748MOL0     H  975   3.063   1.015   6.941 -2.7098  0.5133  1.2151
  748MOL0     H  976   3.053   0.849   6.561  3.3226  4.8669  0.2896
  748MOL0     H  977   3.757   0.849   6.809  0.3657 -3.3652  0.1902
  748MOL0     H  978   3.971   0.848   6.767 -0.7357 -1.8785 -0.0347
  748MOL0     H  979   4.052   0.941   6.878 -1.0484  1.9049 -2.3494
  748MOL0     H  980   4.072   0.763   6.893 -1.1491 -0.2843 -0.2268
  749MOL0     O  981   9.676   7.933   4.844 -0.4769 -0.1582  0.0668
  749MOL0     C  982   9.581   7.855   4.858 -0.2159 -0.0227 -0.1109
  749MOL0     O  983   9.590   7.738   4.930  0.1500 -0.3625  0.1431
  749MOL0     C  984   9.703   7.703   5.001 -0.0239  0.3747 -0.4573
  749MOL0     C  985   9.821   7.677   4.936  0.5516 -1.1872  0.1145
  749MOL0     C  986   9.933   7.633   5.005  0.1232 -0.9148  0.5344
  749MOL0     C  987   9.925   7.601   5.136  0.4875  0.5712 -0.5670
  749MOL0     O  988  10.028   7.538   5.215  0.0543 -0.1036 -0.0683
  749MOL0     C  989  10.164   7.561   5.164  0.2674  0.2929 -0.6551
  749MOL0     C  990  10.259   7.585   5.279 -0.5161  0.2624 -0.1868
  749MOL0     C  991  10.373   7.470   5.291 -0.2697  0.1548 -0.1133
  749MOL0     C  992  10.507   7.505   5.221  0.4580  0.7308  0.0609
  749MOL0     C  993  10.622   7.407   5.236 -0.6290 -0.5530  0.1285
  749MOL0     C  994  10.747   7.473   5.193 -0.0096  0.9392 -0.5525
  749MOL0     C  995  10.841   7.359   5.198 -0.4244  0.2558  0.3915
  749MOL0     C  996  10.978   7.398   5.163 -0.0224 -0.5957 -0.3306
  749MOL0     N  997  11.068   7.282   5.160 -0.4382 -0.2252  0.0737
  749MOL0     C  998  11.140   7.233   5.265 -0.1204 -0.4161  0.1975
  749MOL0     C  999  11.225   7.145   5.217 -0.7900  0.2735  0.3925
  749MOL0     C 1000  11.326   7.065   5.298 -0.1424  0.6273  0.1698
  749MOL0     C 1001  11.429   6.987   5.216 -0.1660 -0.5177 -0.5328
  749MOL0     C 1002  11.531   7.090   5.169 -0.5644 -0.2760 -0.1338
  749MOL0     C 1003  11.635   7.021   5.073  0.3418 -0.9263  0.1525
  749MOL0     O 1004  11.688   6.890   5.118  0.1473 -0.4376 -0.2851
  749MOL0     C 1005  11.811   6.846   5.069  0.5865 -0.5236  0.8867
  749MOL0     C 1006  11.907   6.923   5.000  0.1370  0.9586  1.7247
  749MOL0     C 1007  12.018   6.852   4.961 -0.3715 -0.4569 -0.1485
  749MOL0     C 1008  12.048   6.718   4.991 -0.0077  0.8971 -0.5212
  749MOL0     C 1009  12.179   6.657   4.962  0.3118  0.2975  0.3243
  749MOL0     O 1010  12.195   6.524   4.981 -0.1654 -0.4314  0.9865
  749MOL0     C 1011  12.321   6.467   4.976  0.0432 -0.1430 -0.0465
  749MOL0     C 1012  12.413   6.501   5.068 -0.6218 -0.4107 -0.0607
  749MOL0     C 1013  12.547   6.450   5.052  0.7836 -0.9053  1.1468
  749MOL0     C 1014  12.578   6.361   4.949  0.1730 -0.1666 -0.0732
  749MOL0     O 1015  12.701   6.301   4.922  0.2016  0.4536 -0.1035
  749MOL0     C 1016  12.806   6.337   5.015  0.3323  1.0134  0.5459
  749MOL0     C 1017  12.928   6.262   4.980 -0.1269  0.1176  0.9250
  749MOL0     C 1018  13.057   6.293   5.053 -0.2906 -0.1812  0.1397
  749MOL0     C 1019  13.171   6.208   4.998 -0.2854 -0.2048  0.1274
  749MOL0     C 1020  13.309   6.254   5.040  0.7188 -0.3944  0.1165
  749MOL0     C 1021  13.425   6.171   4.977 -0.1561 -0.5616 -0.1433
  749MOL0     C 1022  13.543   6.198   5.073 -0.3117  0.4539  1.0308
  749MOL0     C 1023  13.672   6.125   5.031 -0.3676 -0.6472  0.7323
  749MOL0    Cl 1024  13.788   6.162   5.152  0.1047 -0.0754 -0.0925
  749MOL0     C 1025  12.470   6.327   4.859 -0.8465 -0.0537  0.4742
  749MOL0     C 1026  12.342   6.372   4.870  0.2900  0.0674 -0.3900
  749MOL0     O 1027  12.271   6.726   4.926 -0.6384  0.1972 -0.0232
  749MOL0     C 1028  11.945   6.651   5.059 -0.1124 -0.2106 -1.4260
  749MOL0     C 1029  11.826   6.710   5.097 -0.1814 -0.2679  0.3262
  749MOL0     N 1030  11.209   7.133   5.083  0.2517 -0.0852 -0.4529
  749MOL0     N 1031  11.121   7.224   5.046  0.0131 -0.4954 -0.3510
  749MOL0     C 1032   9.803   7.628   5.207  0.5755 -0.6735  0.7117
  749MOL0     C 1033   9.699   7.689   5.137 -0.5004 -0.3334  0.5529
  749MOL0     C 1034   9.455   7.877   4.779  0.0634 -0.9844 -0.5248
  749MOL0     C 1035   9.333   7.822   4.830  0.5272  0.5063  0.1565
  749MOL0     C 1036   9.210   7.835   4.762 -0.2816 -0.0125  0.5878
  749MOL0     C 1037   9.198   7.907   4.645 -0.6643  0.1935  0.2201
  749MOL0     O 1038   9.062   7.912   4.605  0.0575  0.7556  0.3879
  749MOL0     C 1039   9.029   8.006   4.506  0.7842 -0.6604  0.8328
  749MOL0     C 1040   9.047   8.152   4.557  0.4313  0.6928 -0.9458
  749MOL0     C 1041   9.066   8.250   4.439  0.4414 -0.9454 -0.5356
  749MOL0     C 1042   9.186   8.250   4.352  0.8359  0.3721  0.4693
  749MOL0     C 1043   9.309   8.283   4.416 -0.4690  0.5953 -0.0418
  749MOL0     C 1044   9.406   8.320   4.473 -0.8661  0.0369  0.0618
  749MOL0     C 1045   9.320   7.965   4.590  0.0501  0.0777  0.1649
  749MOL0     C 1046   9.446   7.947   4.655  0.0804 -0.2916  0.6955
  749MOL0     C 1047   9.565   7.996   4.591 -0.1266  0.3845  0.2385
  749MOL0     H 1048   9.824   7.703   4.831 -1.6116  1.2857  0.5717
  749MOL0     H 1049  10.015   7.624   4.934 -1.5201 -0.4720 -1.5129
  749MOL0     H 1050  10.202   7.474   5.111 -0.7544 -1.1015  0.7955
  749MOL0     H 1051  10.172   7.648   5.099  1.5638  0.7079  0.0304
  749MOL0     H 1052  10.212   7.585   5.378  0.1128 -0.8481  0.1278
  749MOL0     H 1053  10.306   7.684   5.277 -2.2438  1.1126 -0.0323
  749MOL0     H 1054  10.341   7.377   5.243 -2.3064  1.2229 -0.9817
  749MOL0     H 1055  10.385   7.450   5.397  0.4275 -2.1160 -0.5704
  749MOL0     H 1056  10.478   7.524   5.117  1.5009 -1.9331 -0.7914
  749MOL0     H 1057  10.548   7.599   5.259  0.9395  1.3012 -1.7685
  749MOL0     H 1058  10.630   7.372   5.339 -5.2504  0.6659  1.1331
  749MOL0     H 1059  10.592   7.326   5.169 -1.2644 -0.9280  0.8549
  749MOL0     H 1060  10.733   7.497   5.087 -1.0954 -1.8285 -1.1128
  749MOL0     H 1061  10.767   7.552   5.266 -1.8059  0.6584  0.2984
  749MOL0     H 1062  10.810   7.269   5.144  3.3700 -1.0955  0.1705
  749MOL0     H 1063  10.846   7.323   5.301 -0.8124  1.1431  0.7273
  749MOL0     H 1064  10.980   7.445   5.064  0.4256 -0.0400 -0.0678
  749MOL0     H 1065  11.016   7.471   5.236 -0.9779  1.6901 -1.9874
  749MOL0     H 1066  11.137   7.257   5.371 -0.3755  2.1442 -0.3245
  749MOL0     H 1067  11.385   7.130   5.363  0.7673 -0.2788  0.2741
  749MOL0     H 1068  11.273   6.983   5.347 -0.4859  0.8990  0.2610
  749MOL0     H 1069  11.471   6.923   5.294 -1.7043  2.8754  3.4502
  749MOL0     H 1070  11.397   6.923   5.133  2.2874 -2.4069 -0.1140
  749MOL0     H 1071  11.587   7.131   5.254 -0.1015  0.8176 -0.9468
  749MOL0     H 1072  11.481   7.179   5.130 -1.3283 -0.1498  1.0459
  749MOL0     H 1073  11.714   7.097   5.058 -0.9698  0.5452  0.4592
  749MOL0     H 1074  11.588   7.009   4.975 -1.6051  0.3916  0.8779
  749MOL0     H 1075  11.911   7.028   4.972  1.8646  0.1687 -1.5568
  749MOL0     H 1076  12.097   6.912   4.918  1.1502 -2.2776 -0.0021
  749MOL0     H 1077  12.393   6.582   5.138 -1.6184 -0.5128 -0.2168
  749MOL0     H 1078  12.617   6.476   5.130 -0.6952  0.6132  2.0254
  749MOL0     H 1079  12.828   6.444   5.005  0.9138  0.7027 -2.2948
  749MOL0     H 1080  12.771   6.301   5.112 -0.7661 -1.7323 -0.7468
  749MOL0     H 1081  12.903   6.157   4.998  1.2189 -0.0007  2.1864
  749MOL0     H 1082  12.934   6.269   4.871 -0.3693  1.4638  0.9815
  749MOL0     H 1083  13.080   6.400   5.052  0.3378 -0.3156 -0.9352
  749MOL0     H 1084  13.046   6.256   5.156 -1.2302  0.7240  0.3857
  749MOL0     H 1085  13.165   6.198   4.890  1.5617  0.0333 -0.0284
  749MOL0     H 1086  13.155   6.110   5.045 -1.3233 -1.2588 -2.2501
  749MOL0     H 1087  13.317   6.258   5.149  2.8926 -0.1074  0.0026
  749MOL0     H 1088  13.325   6.361   5.021 -0.1381 -0.1871  0.5240
  749MOL0     H 1089  13.389   6.068   4.977  0.6183 -0.8617 -1.7600
  749MOL0     H 1090  13.442   6.202   4.874 -0.2830  1.1465  0.3230
  749MOL0     H 1091  13.506   6.162   5.169  0.6764  0.6838  1.5076
  749MOL0     H 1092  13.569   6.304   5.075  0.9372  0.2086 -0.3897
  749MOL0     H 1093  13.648   6.019   5.027 -0.5064 -0.6150  0.7061
  749MOL0     H 1094  13.707   6.163   4.935 -1.4712  2.6617  1.4825
  749MOL0     H 1095  12.485   6.247   4.787 -3.0612  0.6768 -0.8983
  749MOL0     H 1096  12.257   6.346   4.807  0.6804 -2.0644 -0.1030
  749MOL0     H 1097  11.963   6.546   5.081 -0.1291  0.1285  0.3329
  749MOL0     H 1098  11.740   6.660   5.140  1.3394 -0.9647  2.7800
  749MOL0     H 1099   9.794   7.609   5.314 -0.9997 -2.3003  0.3359
  749MOL0     H 1100   9.613   7.708   5.202 -0.7982 -0.0220  0.0738
  749MOL0     H 1101   9.342   7.769   4.924 -3.4492 -3.4558 -1.3461
  749MOL0     H 1102   9.121   7.801   4.815 -0.1554  1.0511  1.5347
  749MOL0     H 1103   8.925   7.994   4.474  1.6994  0.5496 -3.1099
  749MOL0     H 1104   9.087   7.980   4.417  3.2800 -1.9855  2.7312
  749MOL0     H 1105   9.127   8.159   4.632 -1.3562 -0.0490  1.1277
  749MOL0     H 1106   8.956   8.181   4.610  0.7711  2.1764 -1.1452
  749MOL0     H 1107   9.049   8.345   4.489  0.2295 -0.5498 -1.3377
  749MOL0     H 1108   8.974   8.249   4.380 -0.2043  2.0049  0.2689
  749MOL0     H 1109   9.203   8.154   4.303  1.9418  0.3271  0.9000
  749MOL0     H 1110   9.165   8.318   4.269 -3.5972 -1.4779 -0.1977
  749MOL0     H 1111   9.490   8.345   4.534  0.3352 -3.2842 -0.0040
  749MOL0     H 1112   9.320   8.029   4.502  1.1014  0.0138  0.1003
  749MOL0     H 1113   9.603   8.087   4.639 -0.8838  1.6644 -1.4652
  749MOL0     H 1114   9.635   7.913   4.602 -0.3933 -0.1002 -1.3534
  749MOL0     H 1115   9.565   8.011   4.482  0.9593  0.1370  0.1941
  750MOL0     O 1116   2.644   5.672   1.644 -0.0849  0.1131  0.0615
  750MOL0     C 1117   2.655   5.710   1.760 -0.3679 -0.4577 -0.0188
  750MOL0     O 1118   2.773   5.709   1.828  0.9353  1.2388 -0.2575
  750MOL0     C 1119   2.865   5.616   1.791 -0.3662  0.8855  0.3850
  750MOL0     C 1120   2.830   5.492   1.756 -0.2736  0.5824  0.0668
  750MOL0     C 1121   2.923   5.399   1.723  0.1248 -0.6065 -0.2552
  750MOL0     C 1122   3.055   5.417   1.742  0.5493  0.5565  0.2873
  750MOL0     O 1123   3.131   5.309   1.707  1.1534  0.1734  0.5214
  750MOL0     C 1124   3.272   5.351   1.663  0.7987  0.1317  0.8981
  750MOL0     C 1125   3.343   5.221   1.609 -0.7251  0.8486 -0.0002
  750MOL0     C 1126   3.370   5.122   1.728  0.2435  0.0134 -0.9149
  750MOL0     C 1127   3.487   5.180   1.818 -0.4440 -0.8146  0.5662
  750MOL0     C 1128   3.569   5.067   1.885 -0.3825 -0.1360 -0.0222
  750MOL0     C 1129   3.648   4.981   1.778 -0.3285  0.1096 -0.3812
  750MOL0     C 1130   3.725   4.881   1.865 -0.2074 -0.1381  0.4877
  750MOL0     C 1131   3.799   4.781   1.765  0.7532  1.2308  1.0875
  750MOL0     N 1132   3.869   4.678   1.843 -0.4905  0.3496 -0.7698
  750MOL0     C 1133   3.803   4.591   1.927  1.9108 -0.3372 -0.6538
  750MOL0     C 1134   3.898   4.516   1.990  0.5022 -0.1489  0.5399
  750MOL0     C 1135   3.880   4.394   2.082 -0.0996 -0.0606  0.0270
  750MOL0     C 1136   3.942   4.397   2.224 -0.0579  0.6141  0.7159
  750MOL0     C 1137   3.940   4.258   2.293  1.1816 -0.4883 -0.9491
  750MOL0     C 1138   3.800   4.221   2.329 -0.4093 -0.5653 -0.3550
  750MOL0     O 1139   3.789   4.105   2.416  0.2840  0.7466 -0.2516
  750MOL0     C 1140   3.810   4.115   2.559  0.6390  0.6089  0.6175
  750MOL0     C 1141   3.777   4.232   2.630  0.8615  0.0200  0.0134
  750MOL0     C 1142   3.784   4.240   2.771 -0.6860  0.1019  0.4840
  750MOL0     C 1143   3.822   4.121   2.848  0.0836 -0.6159  0.1130
  750MOL0     C 1144   3.844   4.134   2.995 -0.5474 -0.8490  0.1423
  750MOL0     O 1145   3.895   4.026   3.058 -0.5671  0.5717 -0.5786
  750MOL0     C 1146   3.906   4.013   3.198  0.5840  0.1991  0.3946
  750MOL0     C 1147   3.899   3.884   3.250 -0.5719  0.2881  0.1712
  750MOL0     C 1148   3.917   3.840   3.383  0.7612  0.5598 -0.8199
  750MOL0     C 1149   3.930   3.942   3.479 -0.5009 -0.3845  0.1725
  750MOL0     O 1150   3.951   3.926   3.613 -0.0521  0.3401  0.4745
  750MOL0     C 1151   3.879   3.808   3.666 -0.6376  0.3552  0.4288
  750MOL0     C 1152   3.902   3.794   3.821 -0.2358  0.2788  0.0937
  750MOL0     C 1153   4.045   3.757   3.863 -0.7981 -0.4329  0.6238
  750MOL0     C 1154   4.059   3.734   4.018  0.6202 -0.3370  0.1490
  750MOL0     C 1155   4.189   3.669   4.045 -1.2244 -1.1682 -0.4489
  750MOL0     C 1156   4.305   3.775   4.048  0.2506 -0.2061  0.1564
  750MOL0     C 1157   4.440   3.707   4.072  0.1727  0.4879  0.2948
  750MOL0     C 1158   4.548   3.826   4.107  0.2825  0.6309 -0.1647
  750MOL0    Cl 1159   4.700   3.739   4.127  0.0277  0.0130 -0.6004
  750MOL0     C 1160   3.951   4.074   3.424  0.0356  0.7297 -0.2811
  750MOL0     C 1161   3.929   4.114   3.290  0.2310  1.3729  1.0111
  750MOL0     O 1162   3.823   4.243   3.038  0.5965  0.2381  0.5122
  750MOL0     C 1163   3.843   4.005   2.775 -0.0215  0.4642 -0.6750
  750MOL0     C 1164   3.840   3.999   2.635  0.1447  0.8216  0.0379
  750MOL0     N 1165   4.015   4.585   1.962 -1.1274  0.2202  0.0640
  750MOL0     N 1166   3.997   4.679   1.880 -0.2458 -0.0889  0.2756
  750MOL0     C 1167   3.093   5.532   1.808  0.4014 -0.1001 -0.8617
  750MOL0     C 1168   2.997   5.638   1.828 -0.3827 -0.0616 -0.5242
  750MOL0     C 1169   2.534   5.765   1.837 -0.0447 -0.6603  0.8964
  750MOL0     C 1170   2.556   5.803   1.972 -0.0661 -0.5754  0.9330
  750MOL0     C 1171   2.452   5.839   2.052 -0.0224 -1.4807 -0.2402
  750MOL0     C 1172   2.325   5.839   2.015  0.3703 -0.9555 -0.2201
  750MOL0     O 1173   2.217   5.880   2.090  0.7073  0.7624 -0.7024
  750MOL0     C 1174   2.231   5.887   2.234  0.9156 -0.2030  0.6988
  750MOL0     C 1175   2.082   5.895   2.291 -0.0957  0.5114  0.6694
  750MOL0     C 1176   2.026   6.034   2.277 -0.1695 -0.4045 -0.5129
  750MOL0     C 1177   1.903   6.063   2.369  0.8657  0.0953 -0.3412
  750MOL0     C 1178   1.789   5.972   2.367  0.3602 -0.0048 -1.0520
  750MOL0     C 1179   1.707   5.889   2.349  0.6231  0.2624  0.3583
  750MOL0     C 1180   2.299   5.792   1.887  0.0232  0.3506  0.3763
  750MOL0     C 1181   2.400   5.752   1.799  0.6804 -0.0344  0.1728
  750MOL0     C 1182   2.348   5.691   1.672 -0.3922  0.4770  0.4047
  750MOL0     H 1183   2.733   5.461   1.718  0.3580 -2.4731  0.6466
  750MOL0     H 1184   2.893   5.304   1.680  0.9960 -0.6101 -0.8568
  750MOL0     H 1185   3.264   5.426   1.585 -0.9084 -0.0074  0.8995
  750MOL0     H 1186   3.335   5.401   1.737  2.7374 -1.3366  0.3120
  750MOL0     H 1187   3.430   5.249   1.549 -0.6982 -0.9216 -0.8667
  750MOL0     H 1188   3.279   5.179   1.530  1.4027 -2.6798 -0.0572
  750MOL0     H 1189   3.385   5.022   1.688  2.3777 -1.0212  2.1448
  750MOL0     H 1190   3.277   5.107   1.784  0.7320 -1.2082 -0.3918
  750MOL0     H 1191   3.556   5.243   1.761  1.5886  0.3154  3.9435
  750MOL0     H 1192   3.441   5.246   1.892  0.5102  1.0701 -0.4708
  750MOL0     H 1193   3.646   5.118   1.944 -3.8971 -0.8337  5.9390
  750MOL0     H 1194   3.505   5.009   1.951 -1.5569  1.6392  0.4622
  750MOL0     H 1195   3.577   4.926   1.716  0.3851  0.0128 -1.1392
  750MOL0     H 1196   3.709   5.039   1.708  1.2864 -0.7361  0.2572
  750MOL0     H 1197   3.655   4.824   1.927 -0.8167 -0.2390 -0.2827
  750MOL0     H 1198   3.801   4.930   1.927  0.5528  0.8235 -1.1277
  750MOL0     H 1199   3.724   4.736   1.699 -2.8348  1.8909  4.3849
  750MOL0     H 1200   3.868   4.838   1.703 -0.0815  3.0231  1.7367
  750MOL0     H 1201   3.695   4.578   1.936  1.5449  0.2915 -3.3167
  750MOL0     H 1202   3.774   4.377   2.102 -0.3391  0.2907 -0.9286
  750MOL0     H 1203   3.916   4.304   2.030 -0.8327 -0.1654 -0.3104
  750MOL0     H 1204   4.048   4.423   2.217  0.0013  1.9906  4.6246
  750MOL0     H 1205   3.892   4.462   2.296 -1.9916 -0.5065  0.4715
  750MOL0     H 1206   3.994   4.261   2.388 -1.0592  2.1416  0.4025
  750MOL0     H 1207   3.989   4.179   2.236 -0.8425 -1.8355 -0.8961
  750MOL0     H 1208   3.770   4.171   2.236  0.0225 -1.9838  0.2381
  750MOL0     H 1209   3.729   4.299   2.355  3.4027  2.4100  2.3513
  750MOL0     H 1210   3.741   4.321   2.580 -2.3154 -1.5777 -0.8275
  750MOL0     H 1211   3.752   4.328   2.825 -4.0665 -0.6629 -0.0444
  750MOL0     H 1212   3.883   3.815   3.168  1.3717 -1.0692  0.8488
  750MOL0     H 1213   3.907   3.735   3.409  1.7533  0.5273 -0.5216
  750MOL0     H 1214   3.771   3.828   3.660 -1.0742 -1.0573  2.5179
  750MOL0     H 1215   3.914   3.714   3.624  2.1936  1.9741 -1.1313
  750MOL0     H 1216   3.874   3.887   3.870 -4.5759 -1.3831  1.1593
  750MOL0     H 1217   3.836   3.712   3.851 -0.0287 -0.8737 -2.2783
  750MOL0     H 1218   4.052   3.658   3.817 -0.8675 -0.1640  0.0292
  750MOL0     H 1219   4.110   3.839   3.832 -1.5014 -0.0344  0.1972
  750MOL0     H 1220   3.982   3.665   4.052  0.7632  0.2499  1.7299
  750MOL0     H 1221   4.041   3.832   4.064  1.1727 -0.8102  1.4304
  750MOL0     H 1222   4.210   3.591   3.971  1.6084 -1.4939  0.5671
  750MOL0     H 1223   4.188   3.616   4.141 -0.3063 -0.0185  0.2171
  750MOL0     H 1224   4.317   3.807   3.944 -0.1001  1.4189  0.5874
  750MOL0     H 1225   4.278   3.865   4.104 -1.5151 -0.7246  0.1985
  750MOL0     H 1226   4.471   3.655   3.981  3.8482  0.6218  1.3091
  750MOL0     H 1227   4.443   3.635   4.153 -2.7868 -1.8445 -1.4595
  750MOL0     H 1228   4.567   3.894   4.024 -0.7665 -0.2014 -1.1234
  750MOL0     H 1229   4.518   3.876   4.200 -0.6406 -0.9313  0.4230
  750MOL0     H 1230   3.986   4.145   3.499  0.8021 -1.7837  1.9069
  750MOL0     H 1231   3.931   4.216   3.254  2.9750  0.3841 -2.1460
  750MOL0     H 1232   3.859   3.914   2.832  1.9808  1.3468  0.2858
  750MOL0     H 1233   3.856   3.904   2.585 -0.3676  0.4240  0.6102
  750MOL0     H 1234   3.195   5.541   1.844 -0.5553  2.1470  1.5981
  750MOL0     H 1235   3.027   5.729   1.879 -0.4939 -1.6620  2.6874
  750MOL0     H 1236   2.654   5.803   2.018  0.6568  0.4997 -0.5483
  750MOL0     H 1237   2.487   5.874   2.149  0.3582  0.1466 -0.9452
  750MOL0     H 1238   2.299   5.963   2.274  1.3467 -1.0058  1.5158
  750MOL0     H 1239   2.268   5.790   2.266 -0.5740 -0.9116  0.3466
  750MOL0     H 1240   2.091   5.879   2.398 -0.9747  0.6958  0.7791
  750MOL0     H 1241   2.019   5.817   2.246  1.2555  0.6057 -1.5419
  750MOL0     H 1242   1.977   6.046   2.179 -2.7318  2.9044  0.9501
  750MOL0     H 1243   2.104   6.110   2.289 -0.6568  0.0380 -0.0470
  750MOL0     H 1244   1.931   6.086   2.472 -1.2413 -0.1567  0.3318
  750MOL0     H 1245   1.861   6.158   2.334  0.1874 -0.1423 -0.1913
  750MOL0     H 1246   1.639   5.810   2.321  0.5462  1.0485 -1.8687
  750MOL0     H 1247   2.197   5.763   1.864  0.2511 -0.4837  0.3788
  750MOL0     H 1248   2.416   5.728   1.594  3.6990  0.2648  3.4991
  750MOL0     H 1249   2.348   5.583   1.692 -1.5928  0.7380  1.9854
  750MOL0     H 1250   2.243   5.702   1.644 -0.4601  0.5649  0.6925
  751MOL0     O 1251   9.067   7.993   4.110  0.4344  0.1962  0.2820
  751MOL0     C 1252   9.040   7.883   4.063  0.1114 -1.0786 -0.1892
  751MOL0     O 1253   9.129   7.783   4.042  0.2148  0.8912 -0.0957
  751MOL0     C 1254   9.256   7.795   4.069  0.3309  0.8713 -0.1691
  751MOL0     C 1255   9.309   7.845   4.189  0.0747  1.0234  0.8827
  751MOL0     C 1256   9.443   7.835   4.214 -0.3327  0.0587 -0.4834
  751MOL0     C 1257   9.534   7.777   4.133  0.6118  0.0695  1.0054
  751MOL0     O 1258   9.661   7.783   4.183 -0.4279 -0.1074 -0.3874
  751MOL0     C 1259   9.738   7.662   4.163 -1.0676  0.1085  0.7171
  751MOL0     C 1260   9.880   7.693   4.177  0.2410 -1.2780 -0.2646
  751MOL0     C 1261   9.980   7.578   4.208  1.2363 -0.2557 -0.0564
  751MOL0     C 1262  10.119   7.617   4.185 -0.7699  0.0170 -0.3626
  751MOL0     C 1263  10.222   7.502   4.178  0.0880 -0.1803 -0.5739
  751MOL0     C 1264  10.254   7.454   4.313  0.4475 -0.3960 -0.3012
  751MOL0     C 1265  10.349   7.327   4.327 -0.3537  0.8961  1.0349
  751MOL0     C 1266  10.491   7.360   4.333 -0.4499  0.6659  0.4057
  751MOL0     N 1267  10.578   7.237   4.324 -0.2789 -0.5443  0.0547
  751MOL0     C 1268  10.666   7.217   4.212  0.3778  0.2632 -0.8372
  751MOL0     C 1269  10.702   7.085   4.230 -0.2674 -0.4063 -0.2905
  751MOL0     C 1270  10.798   7.003   4.136  0.0083  1.1653 -0.5309
  751MOL0     C 1271  10.775   6.848   4.149  0.5385  0.3582 -0.1017
  751MOL0     C 1272  10.847   6.779   4.263 -0.3826 -0.1005 -0.9739
  751MOL0     C 1273  10.998   6.803   4.255  0.8430  0.2031 -0.2138
  751MOL0     O 1274  11.070   6.681   4.276  0.7713 -0.0564  0.1005
  751MOL0     C 1275  11.202   6.659   4.233  0.4839 -0.6468 -0.2936
  751MOL0     C 1276  11.261   6.731   4.129 -1.4879 -0.6636  0.1942
  751MOL0     C 1277  11.400   6.713   4.085  0.2724 -0.2129  0.2395
  751MOL0     C 1278  11.474   6.612   4.152  0.6259  0.1037 -0.3897
  751MOL0     C 1279  11.607   6.578   4.112  0.5072  0.0504  0.3772
  751MOL0     O 1280  11.702   6.541   4.204 -0.2698 -0.1138 -0.1801
  751MOL0     C 1281  11.832   6.526   4.160  0.0930  0.3562  0.3283
  751MOL0     C 1282  11.915   6.633   4.135  0.3224 -0.7432  0.0012
  751MOL0     C 1283  12.052   6.613   4.119 -0.6122 -0.1380  0.1542
  751MOL0     C 1284  12.107   6.487   4.121  0.4019 -0.6246 -0.1939
  751MOL0     O 1285  12.238   6.468   4.136  0.1813  0.4452  0.3509
  751MOL0     C 1286  12.277   6.361   4.222  0.6467 -0.0452 -0.4490
  751MOL0     C 1287  12.433   6.343   4.243 -0.3368  0.2128  0.1521
  751MOL0     C 1288  12.495   6.321   4.105  0.7228 -0.7524 -0.4655
  751MOL0     C 1289  12.638   6.292   4.130 -0.0086 -0.1370  0.3989
  751MOL0     C 1290  12.732   6.253   4.014 -0.2818 -0.1848 -0.4937
  751MOL0     C 1291  12.883   6.263   4.046  0.1832 -0.4677  0.3425
  751MOL0     C 1292  12.989   6.267   3.920  0.3962 -0.9817  0.0162
  751MOL0     C 1293  12.978   6.152   3.829 -0.4030 -0.2957 -0.0394
  751MOL0    Cl 1294  13.069   6.188   3.690  0.0500  0.0512  0.0548
  751MOL0     C 1295  12.023   6.379   4.125 -0.1147  0.0717  0.0404
  751MOL0     C 1296  11.882   6.396   4.149  0.2044  0.2532  0.0870
  751MOL0     O 1297  11.626   6.589   3.992  0.8627  0.0775 -0.0869
  751MOL0     C 1298  11.413   6.537   4.257 -0.4221 -0.4700 -1.0180
  751MOL0     C 1299  11.280   6.571   4.297  0.5017  0.2892  0.4373
  751MOL0     N 1300  10.637   7.029   4.339  0.2906  0.8651  0.2281
  751MOL0     N 1301  10.567   7.121   4.393  0.4359  0.0400 -0.0775
  751MOL0     C 1302   9.488   7.730   4.012  0.0558 -0.2179 -1.2941
  751MOL0     C 1303   9.342   7.735   3.980 -0.4126 -0.7518  0.0211
  751MOL0     C 1304   8.900   7.869   4.013 -0.4754 -0.6064  0.0520
  751MOL0     C 1305   8.881   7.756   3.929  0.3136 -0.8096 -0.1988
  751MOL0     C 1306   8.751   7.724   3.881 -0.3237  0.6916  0.1116
  751MOL0     C 1307   8.635   7.796   3.920 -0.4317 -0.0666  1.4173
  751MOL0     O 1308   8.512   7.766   3.869  0.2705 -0.3145 -0.0092
  751MOL0     C 1309   8.400   7.853   3.881 -0.1737 -0.5052  0.9326
  751MOL0     C 1310   8.323   7.837   4.009  0.5665 -0.0641  0.5379
  751MOL0     C 1311   8.309   7.688   4.046  0.4652  0.8853 -0.2118
  751MOL0     C 1312   8.193   7.664   4.150 -0.0669 -0.0166 -0.7449
  751MOL0     C 1313   8.057   7.651   4.090  0.2940  0.1374 -0.2773
  751MOL0     C 1314   7.945   7.626   4.054  0.4949 -1.0795 -1.0346
  751MOL0     C 1315   8.664   7.913   4.001  0.4809 -1.2241 -0.1585
  751MOL0     C 1316   8.788   7.944   4.044 -0.0642  0.8012 -0.7623
  751MOL0     C 1317   8.793   8.058   4.136 -0.3017 -0.0414 -0.0632
  751MOL0     H 1318   9.233   7.889   4.252 -1.5212 -2.0584  1.3358
  751MOL0     H 1319   9.480   7.869   4.310 -0.4136 -0.1261 -0.3865
  751MOL0     H 1320   9.722   7.582   4.236 -0.6625 -0.2845  0.3865
  751MOL0     H 1321   9.715   7.623   4.063  2.9744  0.9406 -0.7328
  751MOL0     H 1322   9.883   7.768   4.256 -1.3235  1.5809 -2.7031
  751MOL0     H 1323   9.908   7.743   4.084  2.8054  0.9235  1.5577
  751MOL0     H 1324   9.946   7.494   4.148 -0.6540  0.9801 -0.8218
  751MOL0     H 1325   9.956   7.553   4.312 -1.3329 -0.3420 -0.5919
  751MOL0     H 1326  10.130   7.676   4.094  3.5780 -1.1481 -0.8311
  751MOL0     H 1327  10.147   7.674   4.275  1.0444  0.8378 -1.3796
  751MOL0     H 1328  10.170   7.422   4.124 -0.3061 -1.2025  1.2393
  751MOL0     H 1329  10.310   7.528   4.118 -0.1808 -1.0545 -1.3673
  751MOL0     H 1330  10.287   7.539   4.373 -1.0314  1.5369 -2.1165
  751MOL0     H 1331  10.162   7.406   4.348 -0.9249  0.3045 -2.7281
  751MOL0     H 1332  10.325   7.258   4.246 -2.6599  0.8365  1.7050
  751MOL0     H 1333  10.319   7.275   4.419  0.6501  0.5568  1.1872
  751MOL0     H 1334  10.517   7.422   4.247 -1.3210  0.5329  0.0406
  751MOL0     H 1335  10.506   7.404   4.433 -2.7822 -1.4759  1.8155
  751MOL0     H 1336  10.695   7.286   4.134 -0.2479  0.1371 -1.1903
  751MOL0     H 1337  10.772   7.025   4.032  0.3477 -1.0132 -1.1187
  751MOL0     H 1338  10.900   7.026   4.169  0.0332 -0.1234  0.3911
  751MOL0     H 1339  10.667   6.831   4.149  0.2963  1.6319 -1.7804
  751MOL0     H 1340  10.817   6.801   4.060  1.2074 -0.3589  0.5762
  751MOL0     H 1341  10.832   6.671   4.251 -0.5956 -0.2099  0.1731
  751MOL0     H 1342  10.809   6.808   4.361 -0.1355  1.6140 -1.3585
  751MOL0     H 1343  11.031   6.881   4.323 -1.9198  2.3548 -1.1512
  751MOL0     H 1344  11.022   6.844   4.157  1.6037  3.1022  1.1043
  751MOL0     H 1345  11.211   6.820   4.091  1.8368  2.0616  1.6499
  751MOL0     H 1346  11.434   6.779   4.007 -0.8156  1.1014  0.8320
  751MOL0     H 1347  11.881   6.736   4.132  1.2922 -0.2924  2.4841
  751MOL0     H 1348  12.112   6.703   4.109  0.8236 -0.8966  1.4825
  751MOL0     H 1349  12.230   6.376   4.319  1.0797 -0.0151 -0.2394
  751MOL0     H 1350  12.244   6.267   4.177 -1.1690  0.0449  0.6279
  751MOL0     H 1351  12.466   6.438   4.287 -2.1233  1.3615 -0.8854
  751MOL0     H 1352  12.450   6.254   4.304 -0.6759 -1.5464 -2.1875
  751MOL0     H 1353  12.444   6.238   4.054 -1.2247  0.5852 -0.8076
  751MOL0     H 1354  12.483   6.418   4.055  0.8659  0.2195  1.3327
  751MOL0     H 1355  12.647   6.203   4.194 -0.4579  0.1402  0.8588
  751MOL0     H 1356  12.678   6.376   4.188 -0.5047 -0.0899  0.6824
  751MOL0     H 1357  12.705   6.319   3.932 -2.4385  0.2779  0.5252
  751MOL0     H 1358  12.699   6.154   3.981  0.0760 -0.9402  1.2707
  751MOL0     H 1359  12.897   6.357   4.100  0.7097  0.0591 -0.6775
  751MOL0     H 1360  12.901   6.179   4.114  2.2610  1.1091  1.8595
  751MOL0     H 1361  13.091   6.258   3.960  0.7644 -0.3412 -0.7547
  751MOL0     H 1362  12.970   6.359   3.863  2.3825 -0.7104 -0.2629
  751MOL0     H 1363  13.029   6.067   3.875  1.3332 -0.1363 -1.5523
  751MOL0     H 1364  12.873   6.130   3.810 -0.5165  0.2301 -0.0432
  751MOL0     H 1365  12.054   6.275   4.123 -3.2766 -1.0571  2.0925
  751MOL0     H 1366  11.809   6.315   4.155  0.4758 -0.2474 -2.2706
  751MOL0     H 1367  11.474   6.463   4.309  0.4280  1.2700  0.5796
  751MOL0     H 1368  11.239   6.537   4.391 -0.2665 -0.4999 -0.1743
  751MOL0     H 1369   9.560   7.694   3.938  2.2714 -0.5905  0.9181
  751MOL0     H 1370   9.298   7.710   3.885 -1.7219 -0.5542  0.5583
  751MOL0     H 1371   8.963   7.693   3.896  0.3085 -1.2916  0.6764
  751MOL0     H 1372   8.755   7.631   3.826 -0.0105  0.8750 -0.1758
  751MOL0     H 1373   8.334   7.820   3.800  2.1535  1.0580 -1.8068
  751MOL0     H 1374   8.428   7.958   3.869  0.5045 -0.7951 -0.1719
  751MOL0     H 1375   8.224   7.875   3.981 -0.7221 -2.8069  1.0178
  751MOL0     H 1376   8.373   7.901   4.082  3.7580 -1.6044 -0.1637
  751MOL0     H 1377   8.402   7.636   4.072  0.5093 -0.5381 -2.9061
  751MOL0     H 1378   8.287   7.633   3.954  0.3624  1.3401 -0.4594
  751MOL0     H 1379   8.216   7.578   4.214  0.6721  1.2177  0.7235
  751MOL0     H 1380   8.197   7.753   4.213 -1.3488  0.7572 -1.7062
  751MOL0     H 1381   7.840   7.620   4.032 -0.5688  3.8621  1.2378
  751MOL0     H 1382   8.593   7.992   4.024  1.6068  1.1464 -3.9335
  751MOL0     H 1383   8.859   8.138   4.101  0.0572  0.3777  1.4948
  751MOL0     H 1384   8.696   8.101   4.162  0.3171 -0.6659  4.0334
  751MOL0     H 1385   8.836   8.013   4.226 -2.4089 -1.8460  0.1359
  752MOL0     O 1386   4.228  10.918   2.824  0.0265 -0.2715 -0.0494
  752MOL0     C 1387   4.192  11.033   2.793 -0.0022  0.6481 -0.0226
  752MOL0     O 1388   4.276  11.144   2.763 -0.4644 -0.0716 -0.3398
  752MOL0     C 1389   4.410  11.140   2.770 -0.4778 -0.3242 -0.5593
  752MOL0     C 1390   4.480  11.088   2.891  0.8231 -0.2957  0.9985
  752MOL0     C 1391   4.611  11.095   2.908  0.1746  0.1690  0.2945
  752MOL0     C 1392   4.687  11.147   2.808  0.0210 -0.3091 -0.5061
  752MOL0     O 1393   4.822  11.160   2.811 -0.2311  0.4726 -0.5688
  752MOL0     C 1394   4.905  11.049   2.844  0.2353  0.4133 -0.1842
  752MOL0     C 1395   5.052  11.083   2.848 -0.7440  0.9260 -0.3645
  752MOL0     C 1396   5.155  10.974   2.856  0.5524  1.2571 -0.0183
  752MOL0     C 1397   5.299  11.033   2.858 -0.4302  0.3529  0.2813
  752MOL0     C 1398   5.409  10.931   2.861  0.0338 -0.2266 -1.1180
  752MOL0     C 1399   5.526  10.956   2.775 -0.7185 -0.3752 -0.2367
  752MOL0     C 1400   5.630  10.848   2.799  0.1646  0.3836  0.0044
  752MOL0     C 1401   5.715  10.860   2.920 -0.2571 -0.4223 -0.5070
  752MOL0     N 1402   5.789  10.736   2.943 -0.1378 -0.1431  0.5339
  752MOL0     C 1403   5.906  10.685   2.885  0.3462  0.2453 -0.4658
  752MOL0     C 1404   5.915  10.562   2.930 -0.4055  0.2569 -0.0161
  752MOL0     C 1405   5.991  10.446   2.864 -0.5599 -0.4037 -0.1149
  752MOL0     C 1406   6.143  10.447   2.899 -0.4035  0.7291 -0.3604
  752MOL0     C 1407   6.216  10.549   2.819  0.2999 -0.2186 -0.4063
  752MOL0     C 1408   6.372  10.537   2.841  0.2118 -0.6737 -0.3489
  752MOL0     O 1409   6.417  10.423   2.769  0.1608  0.1959  1.0252
  752MOL0     C 1410   6.537  10.369   2.805 -1.3771  0.1260 -0.1108
  752MOL0     C 1411   6.617  10.408   2.915  0.4137 -0.7414 -0.7920
  752MOL0     C 1412   6.745  10.355   2.950  0.0383  0.3502 -0.3208
  752MOL0     C 1413   6.808  10.269   2.852  0.7789  0.0586  0.4477
  752MOL0     C 1414   6.935  10.205   2.876 -0.3591  0.4467  0.5621
  752MOL0     O 1415   6.961  10.085   2.831  0.1709  0.1929  0.0343
  752MOL0     C 1416   7.077  10.005   2.847  0.1246  0.9411 -0.5856
  752MOL0     C 1417   7.063   9.862   2.857  0.3912  0.1016  0.4956
  752MOL0     C 1418   7.174   9.786   2.849 -0.1185 -0.4153  0.4084
  752MOL0     C 1419   7.307   9.842   2.856  0.7588  0.1405  0.0642
  752MOL0     O 1420   7.410   9.756   2.872  0.5408 -0.2933  0.1565
  752MOL0     C 1421   7.545   9.796   2.853 -0.9784 -0.8712  0.5419
  752MOL0     C 1422   7.627   9.681   2.811 -0.7227 -0.6493 -0.3798
  752MOL0     C 1423   7.657   9.590   2.936  0.0322 -0.2040  0.0946
  752MOL0     C 1424   7.676   9.447   2.876 -0.2420  0.4601 -0.5215
  752MOL0     C 1425   7.709   9.356   2.994 -0.6356  0.1318 -0.3116
  752MOL0     C 1426   7.598   9.318   3.088 -0.4918 -0.4018  0.4764
  752MOL0     C 1427   7.653   9.209   3.176 -0.5345 -0.2145  0.0073
  752MOL0     C 1428   7.543   9.134   3.252  0.8771 -0.0595  0.9592
  752MOL0    Cl 1429   7.619   9.004   3.350  0.5065  0.2027 -0.0584
  752MOL0     C 1430   7.318   9.983   2.864 -0.5367  0.4515 -0.0732
  752MOL0     C 1431   7.207  10.060   2.858 -0.5281 -0.6973 -0.1538
  752MOL0     O 1432   7.016  10.268   2.946  0.4082 -0.1563  0.4396
  752MOL0     C 1433   6.731  10.223   2.738 -0.4599  0.4723  0.0797
  752MOL0     C 1434   6.595  10.267   2.724 -0.2402 -0.0774 -0.9100
  752MOL0     N 1435   5.818  10.538   3.023  0.7118 -0.6236 -0.7573
  752MOL0     N 1436   5.739  10.641   3.025  0.1098 -0.2532  0.4749
  752MOL0     C 1437   4.631  11.196   2.691  0.0413  0.4898  0.0670
  752MOL0     C 1438   4.492  11.196   2.671 -0.0844  0.4565 -0.2890
  752MOL0     C 1439   4.045  11.052   2.765 -0.2145 -0.1355  0.1738
  752MOL0     C 1440   4.001  11.189   2.746  0.1016  0.1150 -0.4507
  752MOL0     C 1441   3.866  11.231   2.741  0.2813 -0.8730  0.5555
  752MOL0     C 1442   3.765  11.128   2.747  0.7227  0.3059  0.3245
  752MOL0     O 1443   3.631  11.144   2.764 -0.4632 -0.8103  0.3383
  752MOL0     C 1444   3.573  11.273   2.722  0.2792 -0.3334  0.1309
  752MOL0     C 1445   3.444  11.251   2.640 -0.4226  0.0431  0.4751
  752MOL0     C 1446   3.335  11.179   2.715 -0.0489 -0.6639  0.2812
  752MOL0     C 1447   3.196  11.186   2.639 -0.3279  0.2183 -0.4944
  752MOL0     C 1448   3.075  11.169   2.720 -0.0615  0.0329  0.5953
  752MOL0     C 1449   2.985  11.160   2.790 -0.6611 -1.0671  0.0216
  752MOL0     C 1450   3.814  10.999   2.772  0.2026  0.1248  0.0888
  752MOL0     C 1451   3.950  10.953   2.770 -0.0828 -0.5051  0.0339
  752MOL0     C 1452   3.981  10.805   2.802 -0.2550 -0.6672 -0.1174
  752MOL0     H 1453   4.417  11.041   2.966  1.1102 -1.3402  0.6139
  752MOL0     H 1454   4.654  11.060   3.001  3.0325  0.8436 -0.6887
  752MOL0     H 1455   4.863  11.018   2.940 -1.2600  0.7565 -0.6975
  752MOL0     H 1456   4.894  10.973   2.766  1.7742 -2.3252  2.0477
  752MOL0     H 1457   5.058  11.150   2.934 -0.4347 -0.1750  0.5033
  752MOL0     H 1458   5.081  11.149   2.766 -0.3967  2.5515  1.0065
  752MOL0     H 1459   5.152  10.906   2.770 -0.8076 -0.0824  1.0372
  752MOL0     H 1460   5.130  10.901   2.934  0.7318 -3.1191 -3.6166
  752MOL0     H 1461   5.313  11.092   2.766  0.6549  1.1823  0.9596
  752MOL0     H 1462   5.306  11.104   2.941  1.3795  0.5046  0.0245
  752MOL0     H 1463   5.437  10.930   2.967  1.7363  0.8308 -1.5066
  752MOL0     H 1464   5.382  10.826   2.845  3.3589 -2.3061  4.2566
  752MOL0     H 1465   5.477  10.940   2.678 -2.0880  0.4373  0.2976
  752MOL0     H 1466   5.559  11.058   2.798 -0.7531 -1.1017  3.5833
  752MOL0     H 1467   5.699  10.869   2.716 -0.2454 -2.3418 -1.1113
  752MOL0     H 1468   5.585  10.749   2.794 -1.0730  0.9844 -2.7378
  752MOL0     H 1469   5.786  10.942   2.912  2.0738 -2.0750  1.6785
  752MOL0     H 1470   5.639  10.867   2.998 -1.4586  2.8661 -1.7983
  752MOL0     H 1471   5.970  10.718   2.804  1.9963 -1.3127  0.1376
  752MOL0     H 1472   5.948  10.355   2.906 -0.0048 -0.0042  1.3877
  752MOL0     H 1473   5.982  10.450   2.755 -0.2252 -1.7279 -0.2075
  752MOL0     H 1474   6.154  10.481   3.002  2.6039  2.0895 -1.0395
  752MOL0     H 1475   6.185  10.346   2.897  1.6802  1.5623 -1.1310
  752MOL0     H 1476   6.182  10.651   2.838  2.1174  0.3126  0.2729
  752MOL0     H 1477   6.196  10.523   2.715  2.0622 -0.6919 -0.6640
  752MOL0     H 1478   6.391  10.537   2.949 -0.1109 -0.9090 -0.2920
  752MOL0     H 1479   6.426  10.617   2.789 -0.2538  1.0848  1.7198
  752MOL0     H 1480   6.572  10.465   2.995  2.3008  0.1942 -0.3323
  752MOL0     H 1481   6.789  10.380   3.047  2.8142 -0.7345 -1.1964
  752MOL0     H 1482   6.961   9.833   2.838  0.5855  0.6578 -1.6294
  752MOL0     H 1483   7.167   9.680   2.827 -0.8147 -0.2350 -0.2868
  752MOL0     H 1484   7.565   9.860   2.766  3.0380 -1.4966  0.7887
  752MOL0     H 1485   7.579   9.849   2.942  0.0770  2.8874 -1.8495
  752MOL0     H 1486   7.578   9.620   2.735 -2.3188 -1.1262  0.9673
  752MOL0     H 1487   7.723   9.717   2.775 -2.3867  2.2688 -2.3139
  752MOL0     H 1488   7.749   9.614   2.989 -1.4100  0.2642  2.5590
  752MOL0     H 1489   7.584   9.593   3.017 -0.9428 -0.8543 -0.7202
  752MOL0     H 1490   7.749   9.435   2.795  0.1804  0.2777 -0.1140
  752MOL0     H 1491   7.578   9.427   2.830 -0.4642  1.0323 -0.3099
  752MOL0     H 1492   7.798   9.393   3.046 -1.2605  2.5449 -0.8607
  752MOL0     H 1493   7.746   9.262   2.950 -1.1368  0.3817 -1.3021
  752MOL0     H 1494   7.571   9.399   3.158 -0.4057 -1.0171  1.2359
  752MOL0     H 1495   7.499   9.286   3.054 -0.3726 -1.3529  1.0014
  752MOL0     H 1496   7.711   9.265   3.250 -0.8374  0.7356 -0.4551
  752MOL0     H 1497   7.717   9.142   3.117 -0.9858 -1.9912  1.4499
  752MOL0     H 1498   7.484   9.194   3.323  0.9370  2.0846 -0.6963
  752MOL0     H 1499   7.480   9.080   3.181  2.7274 -0.9753 -0.0421
  752MOL0     H 1500   7.414  10.023   2.895 -0.1155 -0.4391 -0.2226
  752MOL0     H 1501   7.215  10.168   2.853 -1.1195 -0.6828 -3.5169
  752MOL0     H 1502   6.781  10.160   2.665 -0.5216 -1.0211  1.2844
  752MOL0     H 1503   6.543  10.238   2.633  2.5512 -1.7673 -2.1066
  752MOL0     H 1504   4.698  11.237   2.616 -0.4031  0.0134 -0.5929
  752MOL0     H 1505   4.457  11.251   2.584 -1.0028 -0.1881 -0.3416
  752MOL0     H 1506   4.069  11.274   2.745  1.8091 -1.1814 -2.4460
  752MOL0     H 1507   3.841  11.337   2.738 -0.1196 -0.8890  2.2791
  752MOL0     H 1508   3.643  11.325   2.656  0.3365  1.2602  1.3777
  752MOL0     H 1509   3.539  11.333   2.807  3.3879 -1.2544  2.1987
  752MOL0     H 1510   3.485  11.187   2.562  0.2284  2.7725 -1.5625
  752MOL0     H 1511   3.409  11.341   2.590 -1.1250  0.1296  1.1032
  752MOL0     H 1512   3.315  11.241   2.803 -1.3735  2.0114 -1.7725
  752MOL0     H 1513   3.375  11.083   2.750  2.7597  0.8481  1.5826
  752MOL0     H 1514   3.182  11.284   2.593 -1.2852  0.4099  0.1913
  752MOL0     H 1515   3.204  11.122   2.550  0.1201  1.3751 -1.3165
  752MOL0     H 1516   2.908  11.139   2.862 -1.2364  0.0467 -0.2451
  752MOL0     H 1517   3.740  10.926   2.804  0.5229 -1.5004 -2.5225
  752MOL0     H 1518   4.068  10.782   2.741  1.1089  0.6618  1.2610
  752MOL0     H 1519   4.010  10.806   2.907 -0.8276  3.0494  0.1126
  752MOL0     H 1520   3.897  10.736   2.784 -1.2116 -0.0951  1.8577
  753MOL0     O 1521   3.597   0.747   2.855 -0.6594  0.0892  0.4677
  753MOL0     C 1522   3.534   0.821   2.788  0.6284 -0.1316  0.4148
  753MOL0     O 1523   3.588   0.899   2.688  0.2827 -0.3642  0.1916
  753MOL0     C 1524   3.722   0.881   2.667  0.5623  0.4283  0.5617
  753MOL0     C 1525   3.814   0.968   2.725  1.1075 -0.6302 -0.4634
  753MOL0     C 1526   3.945   0.965   2.675 -0.4027 -0.3342  0.0101
  753MOL0     C 1527   3.984   0.864   2.582  0.4629 -0.3346  0.4701
  753MOL0     O 1528   4.115   0.842   2.541  0.3593 -0.4531  0.4350
  753MOL0     C 1529   4.222   0.916   2.606  0.7065 -0.3921 -0.7784
  753MOL0     C 1530   4.333   0.896   2.503  0.2707  0.0319 -0.4612
  753MOL0     C 1531   4.458   0.982   2.539  0.7193 -0.1582  0.1051
  753MOL0     C 1532   4.549   0.981   2.416  0.1863  0.3056 -0.5051
  753MOL0     C 1533   4.694   1.020   2.455 -0.4987 -0.3571 -0.3781
  753MOL0     C 1534   4.767   1.031   2.329 -0.2360 -0.5421  0.4632
  753MOL0     C 1535   4.918   1.051   2.342 -0.2105 -0.0618 -0.6510
  753MOL0     C 1536   4.967   1.189   2.361  0.2081  0.0810  0.3859
  753MOL0     N 1537   5.115   1.199   2.333 -0.0166  0.1248  0.0607
  753MOL0     C 1538   5.177   1.260   2.228  0.6795  0.5901  0.9128
  753MOL0     C 1539   5.301   1.274   2.278 -0.5229  0.2096  0.8671
  753MOL0     C 1540   5.404   1.347   2.193  0.6509  0.7297  0.7870
  753MOL0     C 1541   5.401   1.496   2.217 -0.1529  0.6449  0.2867
  753MOL0     C 1542   5.505   1.567   2.122  0.3867 -0.0292  0.1973
  753MOL0     C 1543   5.644   1.519   2.155 -0.0224 -0.0691  0.6904
  753MOL0     O 1544   5.732   1.620   2.106 -0.3269 -0.9460 -0.4401
  753MOL0     C 1545   5.868   1.602   2.114  0.7565  0.6714 -0.2384
  753MOL0     C 1546   5.955   1.695   2.062 -0.1398 -0.9870  0.0695
  753MOL0     C 1547   6.096   1.675   2.076 -0.5201 -0.1859 -0.2854
  753MOL0     C 1548   6.145   1.558   2.133 -0.6314  0.3026  0.8470
  753MOL0     C 1549   6.284   1.539   2.144 -0.1239 -0.3173  0.1186
  753MOL0     O 1550   6.323   1.435   2.226  0.7026  0.1059 -0.4229
  753MOL0     C 1551   6.463   1.416   2.246  0.0996 -1.3162 -1.1643
  753MOL0     C 1552   6.487   1.348   2.367  0.3056  0.9205 -1.1486
  753MOL0     C 1553   6.613   1.295   2.398  0.1201 -0.4615 -0.7308
  753MOL0     C 1554   6.716   1.336   2.312 -0.9923 -0.3793 -0.9133
  753MOL0     O 1555   6.848   1.295   2.327  0.4157  0.7509  0.1021
  753MOL0     C 1556   6.889   1.280   2.468  0.0673 -0.5444 -0.5706
  753MOL0     C 1557   7.034   1.331   2.492  0.8355 -0.2048 -0.0501
  753MOL0     C 1558   7.125   1.220   2.429  0.6227  0.2762 -0.2312
  753MOL0     C 1559   7.267   1.265   2.447  0.5795 -0.5516 -0.2914
  753MOL0     C 1560   7.359   1.157   2.380 -0.4428 -0.0056 -0.8739
  753MOL0     C 1561   7.498   1.167   2.443 -0.5309 -0.5304  0.3579
  753MOL0     C 1562   7.568   1.047   2.413 -1.5396  0.2469 -0.6676
  753MOL0     C 1563   7.698   1.037   2.502  1.2038  1.6353 -0.2226
  753MOL0    Cl 1564   7.800   0.898   2.446 -0.3976  0.2171 -0.1045
  753MOL0     C 1565   6.693   1.415   2.196  0.2051 -0.5126  0.5043
  753MOL0     C 1566   6.566   1.453   2.161 -0.4677  0.8688 -0.8635
  753MOL0     O 1567   6.355   1.607   2.068 -0.4007  0.4351 -0.1437
  753MOL0     C 1568   6.052   1.468   2.179 -0.6022  0.7309 -0.4109
  753MOL0     C 1569   5.913   1.482   2.177 -0.2018 -0.5077  0.3828
  753MOL0     N 1570   5.319   1.211   2.402  0.1977  0.8676 -0.0076
  753MOL0     N 1571   5.205   1.165   2.427  0.2098  0.2343  0.4213
  753MOL0     C 1572   3.892   0.774   2.540  0.0447  0.7702 -0.2724
  753MOL0     C 1573   3.759   0.788   2.578 -0.3381  0.8679 -0.0302
  753MOL0     C 1574   3.388   0.819   2.802 -0.2396 -0.5474  0.2407
  753MOL0     C 1575   3.308   0.917   2.733  0.7900  0.1486 -0.3081
  753MOL0     C 1576   3.169   0.906   2.729  0.0749 -0.4324 -0.2168
  753MOL0     C 1577   3.109   0.819   2.818  0.7364 -0.2470 -0.8607
  753MOL0     O 1578   2.975   0.817   2.834  0.2192  0.0310 -0.3421
  753MOL0     C 1579   2.935   0.888   2.954  0.5479 -0.0281  0.5889
  753MOL0     C 1580   2.798   0.957   2.936 -0.5561  0.3210  0.4453
  753MOL0     C 1581   2.692   0.866   2.987  0.4019  0.3479  0.2410
  753MOL0     C 1582   2.568   0.856   2.898 -0.0590  0.0815 -0.1918
  753MOL0     C 1583   2.474   0.750   2.940  0.8613 -0.2863  0.1597
  753MOL0     C 1584   2.383   0.680   2.978  0.0791  0.5171 -0.9125
  753MOL0     C 1585   3.183   0.733   2.899 -0.1517 -0.0084  1.1069
  753MOL0     C 1586   3.321   0.729   2.889 -0.1917 -0.1096 -0.2950
  753MOL0     C 1587   3.385   0.615   2.973 -0.1101  0.0692 -0.6252
  753MOL0     H 1588   3.775   1.048   2.788  1.0329  0.8624 -2.3262
  753MOL0     H 1589   4.021   1.032   2.715 -0.7131  1.2398 -1.8698
  753MOL0     H 1590   4.210   1.023   2.624 -0.3161 -0.6704  0.3654
  753MOL0     H 1591   4.253   0.868   2.700 -2.8830 -0.7127  0.4210
  753MOL0     H 1592   4.298   0.906   2.400 -2.4552  0.5434  0.4264
  753MOL0     H 1593   4.378   0.797   2.513  0.3788  0.0393 -0.8742
  753MOL0     H 1594   4.512   0.943   2.626 -1.4433 -0.4618  1.3732
  753MOL0     H 1595   4.433   1.086   2.560  1.6870  0.0368  0.3205
  753MOL0     H 1596   4.541   0.884   2.367 -1.7648  0.7664 -1.1861
  753MOL0     H 1597   4.510   1.049   2.339 -0.5681  1.6875  1.0323
  753MOL0     H 1598   4.699   1.119   2.501 -0.3098 -0.7583  0.5021
  753MOL0     H 1599   4.742   0.950   2.524  0.9671  1.4232  0.4889
  753MOL0     H 1600   4.747   0.943   2.267 -1.5069 -0.4778  0.7465
  753MOL0     H 1601   4.733   1.114   2.268  2.0966 -0.5046 -0.9183
  753MOL0     H 1602   4.950   1.006   2.247 -0.7962  0.5097 -1.1317
  753MOL0     H 1603   4.941   0.977   2.419 -1.4429  0.7730  0.5517
  753MOL0     H 1604   4.911   1.249   2.288 -1.2882 -2.8648 -1.0878
  753MOL0     H 1605   4.945   1.226   2.461  0.9602 -0.8907  0.9197
  753MOL0     H 1606   5.133   1.305   2.139 -1.2362 -0.2712  1.3665
  753MOL0     H 1607   5.498   1.308   2.234 -0.2053 -1.6873  0.6121
  753MOL0     H 1608   5.394   1.319   2.088  0.3691  0.5952  0.8487
  753MOL0     H 1609   5.301   1.528   2.189 -1.0712 -1.7045  0.6449
  753MOL0     H 1610   5.422   1.530   2.319 -0.2473 -1.8394  1.2127
  753MOL0     H 1611   5.502   1.676   2.130  1.9851  0.3831 -3.1797
  753MOL0     H 1612   5.488   1.552   2.015 -0.9456  0.9561  0.2483
  753MOL0     H 1613   5.649   1.419   2.111  0.4304 -0.0776  0.7478
  753MOL0     H 1614   5.662   1.508   2.262  1.6746 -0.6417  0.3868
  753MOL0     H 1615   5.920   1.791   2.024  1.1055 -1.3757 -2.2415
  753MOL0     H 1616   6.164   1.753   2.044 -2.6402  1.2524 -1.5666
  753MOL0     H 1617   6.404   1.324   2.433  0.9640  1.3726 -0.1363
  753MOL0     H 1618   6.632   1.229   2.482  1.3123  0.5785 -0.1603
  753MOL0     H 1619   6.830   1.345   2.533  2.0161 -0.0727  0.7973
  753MOL0     H 1620   6.879   1.176   2.498 -1.9898 -0.3279 -0.3295
  753MOL0     H 1621   7.054   1.423   2.436  0.4054 -0.2113 -0.2189
  753MOL0     H 1622   7.057   1.348   2.597 -0.5714 -0.1111  0.2511
  753MOL0     H 1623   7.097   1.121   2.466 -0.5912 -1.4144 -4.8749
  753MOL0     H 1624   7.091   1.222   2.324  0.0591  0.7411 -0.0502
  753MOL0     H 1625   7.297   1.273   2.552  1.7340  0.4149 -0.6785
  753MOL0     H 1626   7.278   1.360   2.395  3.6466 -1.9898 -2.6501
  753MOL0     H 1627   7.362   1.170   2.272 -1.4696  0.8897 -0.8187
  753MOL0     H 1628   7.321   1.056   2.397 -0.6592 -0.2113 -2.4664
  753MOL0     H 1629   7.550   1.253   2.398 -4.1116  1.0033 -1.3662
  753MOL0     H 1630   7.496   1.183   2.551  0.6648  2.4883  0.0398
  753MOL0     H 1631   7.600   1.049   2.309 -2.1068  4.1422 -0.9079
  753MOL0     H 1632   7.504   0.963   2.443 -1.4246  0.5663  0.5306
  753MOL0     H 1633   7.753   1.132   2.510  0.9502  1.7193  0.6351
  753MOL0     H 1634   7.669   1.018   2.606 -0.7010  2.1536 -0.6112
  753MOL0     H 1635   6.776   1.433   2.127  0.3328  1.6849  1.1494
  753MOL0     H 1636   6.557   1.490   2.060 -0.3334 -1.3293 -1.7381
  753MOL0     H 1637   6.095   1.375   2.216 -1.8265  0.7951  1.2761
  753MOL0     H 1638   5.851   1.401   2.214 -0.5024 -0.4636 -0.0159
  753MOL0     H 1639   3.914   0.691   2.474 -1.2524  0.0934  0.1330
  753MOL0     H 1640   3.686   0.723   2.531  0.7204  0.0419 -0.5667
  753MOL0     H 1641   3.347   0.998   2.672  0.7716  0.6220  0.2953
  753MOL0     H 1642   3.116   0.983   2.673  1.1745 -0.7919 -1.8275
  753MOL0     H 1643   3.010   0.967   2.970 -1.1087  1.3426  2.0324
  753MOL0     H 1644   2.931   0.829   3.046  0.0698 -2.6292 -0.9936
  753MOL0     H 1645   2.781   0.980   2.830  2.2637 -0.7032 -0.2990
  753MOL0     H 1646   2.807   1.052   2.989  0.0041  0.2413  0.4988
  753MOL0     H 1647   2.665   0.901   3.088  2.5285 -0.5112  1.1610
  753MOL0     H 1648   2.728   0.764   2.997  0.5635  0.4956  1.3422
  753MOL0     H 1649   2.514   0.950   2.904  0.4091  0.5216 -2.0880
  753MOL0     H 1650   2.586   0.849   2.790 -3.1052  0.4880 -0.8277
  753MOL0     H 1651   2.314   0.621   3.035  0.8975 -0.5295 -0.9540
  753MOL0     H 1652   3.121   0.673   2.965 -2.2299 -3.2691 -3.3099
  753MOL0     H 1653   3.470   0.572   2.920 -0.8852 -0.2711 -1.6352
  753MOL0     H 1654   3.425   0.652   3.067  1.1778 -0.8094 -0.7960
  753MOL0     H 1655   3.320   0.531   3.001  1.8651 -0.7919  1.7331
  754MOL0     O 1656   3.684   3.060   1.856 -0.3398  0.5523  0.1617
  754MOL0     C 1657   3.644   2.970   1.783  0.1148  0.0498  0.4801
  754MOL0     O 1658   3.716   2.913   1.684  0.3571  0.6739  0.0891
  754MOL0     C 1659   3.824   2.983   1.624  0.6977  0.8912  0.7245
  754MOL0     C 1660   3.803   3.096   1.554  0.4390 -0.5838  0.0883
  754MOL0     C 1661   3.912   3.190   1.519 -0.2670  0.5741  0.3262
  754MOL0     C 1662   4.040   3.152   1.562  0.6752  1.5274  0.2862
  754MOL0     O 1663   4.147   3.235   1.534  0.2969  0.2699  0.2673
  754MOL0     C 1664   4.267   3.202   1.608 -0.3775 -0.5257 -0.1093
  754MOL0     C 1665   4.349   3.335   1.589 -0.0028  0.1021  0.3197
  754MOL0     C 1666   4.495   3.309   1.634  1.3779 -0.2922 -0.6393
  754MOL0     C 1667   4.545   3.455   1.632 -0.5892  0.1471 -0.6954
  754MOL0     C 1668   4.694   3.462   1.682  0.3268  0.0452 -0.5245
  754MOL0     C 1669   4.751   3.602   1.685 -0.5912 -0.2135  0.5186
  754MOL0     C 1670   4.899   3.614   1.719  0.6536  0.0094  0.3787
  754MOL0     C 1671   4.936   3.759   1.762  0.6225  0.0681 -0.8212
  754MOL0     N 1672   5.074   3.774   1.809 -0.3840  0.4170  0.2826
  754MOL0     C 1673   5.148   3.682   1.876 -0.1313 -0.2415 -0.4081
  754MOL0     C 1674   5.269   3.746   1.899 -0.1763  0.0812 -0.3461
  754MOL0     C 1675   5.380   3.687   1.982 -0.6525  0.3735  0.1070
  754MOL0     C 1676   5.521   3.697   1.912  0.0855  0.2930  0.4189
  754MOL0     C 1677   5.629   3.668   2.007 -0.8262 -0.3103 -0.8076
  754MOL0     C 1678   5.641   3.727   2.153 -0.1816  0.4488 -0.0792
  754MOL0     O 1679   5.727   3.644   2.236  0.5325 -0.3032 -0.0139
  754MOL0     C 1680   5.859   3.664   2.246 -0.1529 -0.6119  0.7018
  754MOL0     C 1681   5.930   3.754   2.157 -0.7446 -0.2265  0.3210
  754MOL0     C 1682   6.066   3.762   2.166 -0.5578  0.0189 -0.0986
  754MOL0     C 1683   6.136   3.688   2.262  0.5604  0.0532 -0.5566
  754MOL0     C 1684   6.282   3.713   2.283  0.2744 -0.6104  0.0139
  754MOL0     O 1685   6.315   3.722   2.417 -0.7912  0.0840  0.2108
  754MOL0     C 1686   6.441   3.780   2.455  0.3384  0.7307 -0.2034
  754MOL0     C 1687   6.456   3.852   2.571 -0.1512 -0.2912 -0.3342
  754MOL0     C 1688   6.580   3.912   2.612  0.7400  0.6173  0.2849
  754MOL0     C 1689   6.697   3.881   2.534  0.5017  0.1367 -0.0337
  754MOL0     O 1690   6.824   3.920   2.562  0.3508 -0.1273 -0.4506
  754MOL0     C 1691   6.850   3.960   2.702 -0.5456 -0.4257 -0.5613
  754MOL0     C 1692   6.995   3.935   2.737  0.2955 -0.3781  0.5762
  754MOL0     C 1693   7.082   4.030   2.658  0.1979  0.0517 -0.4324
  754MOL0     C 1694   7.213   4.053   2.735  0.3167  0.2049 -0.0005
  754MOL0     C 1695   7.316   4.126   2.655  0.2520  0.1339  0.1566
  754MOL0     C 1696   7.305   4.271   2.636 -0.3071 -0.1658 -0.1493
  754MOL0     C 1697   7.415   4.313   2.526  0.6199  0.0760 -0.7168
  754MOL0     C 1698   7.410   4.463   2.523  0.1604 -0.4905 -0.3573
  754MOL0    Cl 1699   7.560   4.524   2.445  0.0594 -0.0067 -0.2931
  754MOL0     C 1700   6.685   3.812   2.414  0.4205 -0.2861  0.2231
  754MOL0     C 1701   6.560   3.768   2.383  0.6612  0.2043 -0.2580
  754MOL0     O 1702   6.357   3.741   2.190  1.0678  0.3734  0.0593
  754MOL0     C 1703   6.064   3.601   2.349  0.6696  0.0417  0.2945
  754MOL0     C 1704   5.928   3.582   2.337  0.0489 -0.3682  0.1499
  754MOL0     N 1705   5.267   3.869   1.838  0.0081 -0.2090  0.3220
  754MOL0     N 1706   5.148   3.881   1.790  0.4183 -0.2384  0.6614
  754MOL0     C 1707   4.059   3.024   1.615  0.2491  0.8798 -0.2505
  754MOL0     C 1708   3.957   2.941   1.657  0.4405  0.2789  0.2533
  754MOL0     C 1709   3.537   2.889   1.833  0.1151 -0.0949 -0.2979
  754MOL0     C 1710   3.560   2.754   1.848  0.1902  0.2547 -0.6564
  754MOL0     C 1711   3.459   2.667   1.906  0.0504 -1.3721 -0.4546
  754MOL0     C 1712   3.334   2.722   1.940  0.3213 -0.4480  0.2968
  754MOL0     O 1713   3.226   2.655   1.990 -0.0633 -0.0159  0.1901
  754MOL0     C 1714   3.254   2.514   2.010  0.5156 -0.1099 -0.0449
  754MOL0     C 1715   3.139   2.440   2.077 -0.1949 -0.1220  0.3417
  754MOL0     C 1716   3.027   2.380   1.983  0.2816 -0.1285  0.6295
  754MOL0     C 1717   2.907   2.340   2.057 -0.1451 -1.0077 -0.2887
  754MOL0     C 1718   2.937   2.247   2.168  0.3143 -0.7097  0.3747
  754MOL0     C 1719   2.955   2.172   2.260  0.8435  0.8886 -0.0785
  754MOL0     C 1720   3.307   2.858   1.916  0.3987  0.0868 -0.3951
  754MOL0     C 1721   3.410   2.941   1.868 -0.5103  0.5172 -0.2146
  754MOL0     C 1722   3.386   3.085   1.846 -0.6738  0.1162  0.0822
  754MOL0     H 1723   3.701   3.122   1.527  1.1459  0.7505 -1.5117
  754MOL0     H 1724   3.893   3.278   1.458 -3.6284  0.2771  0.7456
  754MOL0     H 1725   4.252   3.179   1.714 -2.3362 -2.6405 -0.7485
  754MOL0     H 1726   4.303   3.112   1.557 -1.4619 -1.6623  1.0404
  754MOL0     H 1727   4.297   3.414   1.645  0.0573  0.8195 -0.6037
  754MOL0     H 1728   4.347   3.360   1.483  1.8427  0.3949  0.3280
  754MOL0     H 1729   4.547   3.245   1.562 -1.3536  0.7725 -3.8438
  754MOL0     H 1730   4.503   3.273   1.737  1.4944  1.6490  0.0892
  754MOL0     H 1731   4.546   3.506   1.535  0.3985  0.8992 -0.2993
  754MOL0     H 1732   4.485   3.521   1.695  0.5231  2.4048 -1.9014
  754MOL0     H 1733   4.691   3.423   1.784  0.0212  0.9251 -0.1821
  754MOL0     H 1734   4.757   3.398   1.620  0.0832 -1.2315  0.5110
  754MOL0     H 1735   4.738   3.640   1.583  1.2990  0.5947  0.5400
  754MOL0     H 1736   4.688   3.664   1.749  0.2218  0.3883  0.7482
  754MOL0     H 1737   4.964   3.587   1.636  0.3866 -0.3611  0.2896
  754MOL0     H 1738   4.919   3.553   1.807  2.5180  1.3748  0.9699
  754MOL0     H 1739   4.906   3.826   1.680 -3.7567 -1.4210 -0.7120
  754MOL0     H 1740   4.874   3.779   1.850  0.5615 -1.2421 -0.5533
  754MOL0     H 1741   5.136   3.578   1.904 -0.5896 -0.2926 -0.7949
  754MOL0     H 1742   5.389   3.749   2.072  2.8799 -0.1935  0.2705
  754MOL0     H 1743   5.347   3.584   1.996  1.0873 -0.5258 -1.9812
  754MOL0     H 1744   5.538   3.625   1.832  2.6489  1.2556 -0.0008
  754MOL0     H 1745   5.526   3.798   1.870 -2.4135 -0.3667 -1.7250
  754MOL0     H 1746   5.724   3.673   1.953  0.3082 -3.9161  0.5366
  754MOL0     H 1747   5.633   3.560   2.027  0.5920 -0.3393 -1.1431
  754MOL0     H 1748   5.546   3.733   2.207 -1.3179  0.1538 -1.9294
  754MOL0     H 1749   5.670   3.832   2.138 -1.7785  0.7493 -1.4226
  754MOL0     H 1750   5.889   3.823   2.084  3.2417  4.6505  2.1620
  754MOL0     H 1751   6.121   3.828   2.099 -3.0538  0.9764 -1.3126
  754MOL0     H 1752   6.365   3.867   2.628  0.2095 -0.1328  0.2034
  754MOL0     H 1753   6.584   3.977   2.699  1.5844  1.5989 -0.4560
  754MOL0     H 1754   6.818   4.064   2.709 -0.5002 -0.2848 -2.1015
  754MOL0     H 1755   6.803   3.890   2.772  2.7689 -0.1938  2.1756
  754MOL0     H 1756   7.014   3.931   2.844  1.4252 -1.2165  0.3526
  754MOL0     H 1757   7.022   3.836   2.699 -2.6539 -0.2103 -2.4496
  754MOL0     H 1758   7.100   3.980   2.563  0.1893 -2.3363  0.7531
  754MOL0     H 1759   7.020   4.116   2.631 -1.3097 -1.5439 -2.3823
  754MOL0     H 1760   7.233   3.953   2.776 -1.5832  0.1756  0.9682
  754MOL0     H 1761   7.190   4.110   2.826  0.3814 -1.5922  1.2107
  754MOL0     H 1762   7.330   4.077   2.557  3.5801  1.5995 -0.2094
  754MOL0     H 1763   7.407   4.116   2.714  0.1007  0.3392  0.4218
  754MOL0     H 1764   7.214   4.303   2.585  0.4410  0.3566 -1.1990
  754MOL0     H 1765   7.336   4.317   2.729 -1.0859  2.9080 -1.3093
  754MOL0     H 1766   7.385   4.271   2.430  1.9876 -0.5642 -0.8813
  754MOL0     H 1767   7.515   4.276   2.552  0.6469  0.9349  0.4739
  754MOL0     H 1768   7.317   4.496   2.476 -0.3144 -1.2582  0.0265
  754MOL0     H 1769   7.410   4.500   2.626 -0.2524  0.8552 -0.8174
  754MOL0     H 1770   6.775   3.794   2.356  0.9569 -1.3543  1.3445
  754MOL0     H 1771   6.554   3.703   2.296 -1.8720 -0.8043  0.5638
  754MOL0     H 1772   6.122   3.548   2.424  0.0456 -0.2114  0.6091
  754MOL0     H 1773   5.877   3.508   2.398 -0.4186 -1.1942 -1.2125
  754MOL0     H 1774   4.160   2.984   1.624 -0.4479 -0.6603  1.1375
  754MOL0     H 1775   3.976   2.845   1.705 -1.1723  0.0141  0.4379
  754MOL0     H 1776   3.653   2.709   1.815  0.2251  1.3419 -2.1409
  754MOL0     H 1777   3.490   2.565   1.922  1.4776 -1.1201 -1.4070
  754MOL0     H 1778   3.348   2.505   2.064  1.7578  0.6497 -1.9753
  754MOL0     H 1779   3.264   2.461   1.915 -4.0509  0.5776 -1.1329
  754MOL0     H 1780   3.085   2.523   2.124  2.4354  2.5785 -1.0549
  754MOL0     H 1781   3.172   2.362   2.146 -0.5365  1.8991  2.9376
  754MOL0     H 1782   3.070   2.295   1.930 -0.7153 -2.9719  3.9789
  754MOL0     H 1783   2.997   2.456   1.910 -2.6438  0.4155  2.2315
  754MOL0     H 1784   2.862   2.433   2.094  5.2000  1.2460  1.6544
  754MOL0     H 1785   2.831   2.294   1.993 -0.0850  0.6138 -1.6135
  754MOL0     H 1786   2.964   2.094   2.333  0.3813  1.3468  0.4725
  754MOL0     H 1787   3.216   2.908   1.946  0.0033  0.1238 -1.6197
  754MOL0     H 1788   3.404   3.110   1.741 -1.5039 -1.3996 -0.4476
  754MOL0     H 1789   3.288   3.130   1.868 -0.6114  1.1119 -1.4744
  754MOL0     H 1790   3.457   3.147   1.902  1.2104  0.8127 -2.8355
  755MOL0     O 1791   8.264   4.373   3.292 -0.8456 -0.6161 -0.1743
  755MOL0     C 1792   8.227   4.446   3.376 -0.0752 -0.0044 -0.0118
  755MOL0     O 1793   8.289   4.556   3.412 -0.0313 -0.0124  0.2681
  755MOL0     C 1794   8.425   4.562   3.387  0.1818 -0.7273 -0.0380
  755MOL0     C 1795   8.472   4.589   3.250  0.3721  0.0117  0.0176
  755MOL0     C 1796   8.600   4.606   3.216  0.2880 -0.2312 -0.5518
  755MOL0     C 1797   8.695   4.609   3.330  0.0634 -0.8231  0.8572
  755MOL0     O 1798   8.828   4.626   3.302  0.0060 -0.2255 -0.3533
  755MOL0     C 1799   8.912   4.672   3.412 -0.2619  0.3227 -0.4165
  755MOL0     C 1800   9.045   4.747   3.365  0.2091 -0.0486 -0.3542
  755MOL0     C 1801   9.131   4.654   3.279 -0.7088 -0.4317  0.4792
  755MOL0     C 1802   9.264   4.729   3.250  0.9915 -0.1223 -0.1760
  755MOL0     C 1803   9.368   4.637   3.171  0.6640 -0.1913 -0.0169
  755MOL0     C 1804   9.501   4.719   3.155 -0.4358 -0.2382  0.4050
  755MOL0     C 1805   9.597   4.624   3.081 -0.4870  0.2129 -0.1615
  755MOL0     C 1806   9.728   4.689   3.028 -1.0321  0.2442 -0.2358
  755MOL0     N 1807   9.794   4.591   2.929  0.0900  0.4205 -0.5465
  755MOL0     C 1808   9.924   4.560   2.920 -0.5260 -0.5071 -0.2863
  755MOL0     C 1809   9.940   4.517   2.796 -0.7274  0.7171  1.0606
  755MOL0     C 1810  10.080   4.473   2.748 -0.3935  0.3726 -0.6808
  755MOL0     C 1811  10.198   4.559   2.788 -0.1491 -0.4374  0.1177
  755MOL0     C 1812  10.320   4.488   2.746 -0.9435  0.3063  0.0212
  755MOL0     C 1813  10.384   4.536   2.612  0.1174  0.5394 -0.4694
  755MOL0     O 1814  10.513   4.600   2.624  0.4106  0.3482 -0.0292
  755MOL0     C 1815  10.630   4.531   2.624 -0.4690  0.2037 -0.1128
  755MOL0     C 1816  10.638   4.392   2.654 -0.0500  0.0719  0.3411
  755MOL0     C 1817  10.759   4.318   2.664 -0.6476  0.7410  0.3391
  755MOL0     C 1818  10.882   4.392   2.643 -0.2981  0.4392  0.2881
  755MOL0     C 1819  11.008   4.328   2.633 -0.9466  0.6969 -0.2795
  755MOL0     O 1820  11.110   4.413   2.586  0.0549  0.5291 -0.5811
  755MOL0     C 1821  11.236   4.360   2.569 -0.1405  0.5698 -0.7254
  755MOL0     C 1822  11.352   4.395   2.646  0.5612 -0.3121  0.0909
  755MOL0     C 1823  11.480   4.345   2.613 -1.1681  0.5285 -0.0788
  755MOL0     C 1824  11.497   4.270   2.490 -0.6891 -0.3096 -0.1121
  755MOL0     O 1825  11.622   4.234   2.454 -0.3697 -0.4259  0.7339
  755MOL0     C 1826  11.659   4.236   2.313 -0.3819 -0.2944 -0.0451
  755MOL0     C 1827  11.805   4.256   2.291 -0.4012  0.9709  0.9000
  755MOL0     C 1828  11.907   4.203   2.397  0.7576 -0.2206  0.6266
  755MOL0     C 1829  11.909   4.048   2.385  0.6221  1.4039 -0.0075
  755MOL0     C 1830  11.990   3.971   2.499 -0.7601  0.1006  0.4590
  755MOL0     C 1831  12.141   3.987   2.480  0.0064  0.3061  0.1927
  755MOL0     C 1832  12.208   3.899   2.582 -0.3788 -0.0049  0.1754
  755MOL0     C 1833  12.360   3.900   2.562  0.5010 -0.6647  0.4858
  755MOL0    Cl 1834  12.444   3.859   2.715 -0.1147 -0.2700 -0.1958
  755MOL0     C 1835  11.387   4.243   2.415  0.8138 -0.5454  0.5197
  755MOL0     C 1836  11.254   4.276   2.455  0.1607  0.0575  0.0470
  755MOL0     O 1837  11.019   4.201   2.653  0.1827  0.0520  0.5071
  755MOL0     C 1838  10.870   4.533   2.611  0.0744  0.3965  0.1580
  755MOL0     C 1839  10.747   4.594   2.598  0.0095 -0.8871 -0.2122
  755MOL0     N 1840   9.813   4.502   2.734 -0.8711 -0.3312 -0.6712
  755MOL0     N 1841   9.723   4.553   2.815 -0.3986  0.2840 -0.5043
  755MOL0     C 1842   8.651   4.594   3.465  1.1939  0.5368 -0.0175
  755MOL0     C 1843   8.513   4.566   3.495 -0.1245  0.3589  0.1420
  755MOL0     C 1844   8.094   4.425   3.431 -0.2143  0.0057 -0.0899
  755MOL0     C 1845   8.001   4.527   3.392 -0.3557  0.2574  0.0657
  755MOL0     C 1846   7.863   4.508   3.409 -0.1999 -0.3347 -0.1524
  755MOL0     C 1847   7.819   4.403   3.488  0.1295 -0.0794 -0.0935
  755MOL0     O 1848   7.690   4.361   3.512 -0.1485  0.2644 -0.0237
  755MOL0     C 1849   7.588   4.431   3.440 -1.1891 -0.5744  1.0715
  755MOL0     C 1850   7.457   4.357   3.463 -0.6929  0.2233  0.1326
  755MOL0     C 1851   7.428   4.343   3.618  0.2617 -0.3847  0.1278
  755MOL0     C 1852   7.306   4.417   3.653 -0.3156  0.0855 -0.3512
  755MOL0     C 1853   7.186   4.365   3.576  0.4318  0.1718  0.0662
  755MOL0     C 1854   7.096   4.353   3.498  0.4234  1.0536  0.1573
  755MOL0     C 1855   7.913   4.305   3.525  0.4890 -0.3913  0.3000
  755MOL0     C 1856   8.047   4.315   3.486  0.3098 -0.3169  1.2083
  755MOL0     C 1857   8.137   4.204   3.520  0.2188 -0.1463 -1.3129
  755MOL0     H 1858   8.404   4.578   3.166 -1.5655 -2.2132  1.7447
  755MOL0     H 1859   8.631   4.602   3.113  2.6246 -1.7950  0.1193
  755MOL0     H 1860   8.864   4.753   3.468  1.0966  0.5050  0.5226
  755MOL0     H 1861   8.939   4.586   3.474 -0.8501 -2.6737 -3.9537
  755MOL0     H 1862   9.103   4.772   3.453  0.2153  0.6976 -0.5649
  755MOL0     H 1863   9.016   4.842   3.320  0.9922  0.1416 -0.4549
  755MOL0     H 1864   9.083   4.623   3.185 -1.8751 -0.1186  0.9566
  755MOL0     H 1865   9.151   4.561   3.334  0.9376 -0.6211 -0.3786
  755MOL0     H 1866   9.243   4.824   3.201 -0.5068 -0.4508 -0.2224
  755MOL0     H 1867   9.309   4.749   3.347  1.8726  0.5254 -0.7057
  755MOL0     H 1868   9.394   4.551   3.233  2.0617 -1.1667 -1.8208
  755MOL0     H 1869   9.329   4.597   3.077  0.6953 -0.4924  0.0954
  755MOL0     H 1870   9.483   4.803   3.088 -0.4776 -1.0520 -0.6325
  755MOL0     H 1871   9.546   4.755   3.248  3.3666 -0.1797 -1.2941
  755MOL0     H 1872   9.542   4.575   3.000  1.4253  0.4496 -1.6599
  755MOL0     H 1873   9.623   4.545   3.152  2.1353 -0.8167 -2.0876
  755MOL0     H 1874   9.706   4.785   2.980 -2.0685  1.2472  2.0695
  755MOL0     H 1875   9.793   4.703   3.115  1.5878 -0.6904 -1.9290
  755MOL0     H 1876   9.998   4.558   2.998 -1.9275  3.9871  1.4738
  755MOL0     H 1877  10.086   4.374   2.794 -0.7067  1.4541  1.8541
  755MOL0     H 1878  10.072   4.464   2.639 -1.1057 -2.2398 -0.4701
  755MOL0     H 1879  10.185   4.655   2.737  2.4191  0.8966  1.7397
  755MOL0     H 1880  10.199   4.580   2.896 -0.6672 -0.4539  0.1289
  755MOL0     H 1881  10.307   4.380   2.740 -1.6582  0.4605 -1.5949
  755MOL0     H 1882  10.400   4.485   2.821 -0.9890 -1.0612  0.0272
  755MOL0     H 1883  10.308   4.599   2.566 -3.0439 -1.9834  0.9400
  755MOL0     H 1884  10.405   4.455   2.542  2.5417  2.5565 -2.2771
  755MOL0     H 1885  10.540   4.350   2.672  0.4841 -1.0315  0.8233
  755MOL0     H 1886  10.767   4.213   2.690  0.4487 -0.4380 -3.9076
  755MOL0     H 1887  11.351   4.448   2.741  3.2146 -0.4344  0.2639
  755MOL0     H 1888  11.568   4.365   2.673 -1.0530  0.1232 -0.1063
  755MOL0     H 1889  11.621   4.141   2.274 -0.9577 -0.7083  1.4677
  755MOL0     H 1890  11.601   4.314   2.262  2.1960  1.1683 -0.8953
  755MOL0     H 1891  11.830   4.209   2.195  1.0429  1.2782  1.1105
  755MOL0     H 1892  11.823   4.364   2.286  1.8026  0.6450  1.0619
  755MOL0     H 1893  12.008   4.242   2.379  1.1886  0.0201  3.1612
  755MOL0     H 1894  11.870   4.237   2.494 -1.4728 -2.0265  0.4770
  755MOL0     H 1895  11.947   4.029   2.285  1.5147  4.0838 -0.2650
  755MOL0     H 1896  11.811   3.999   2.387  2.1356 -1.9612 -0.6347
  755MOL0     H 1897  11.968   3.864   2.499  1.7921 -0.4972  1.2838
  755MOL0     H 1898  11.961   4.020   2.592  0.8510  1.1373  0.4523
  755MOL0     H 1899  12.180   3.969   2.379 -0.4217  0.9883 -0.1114
  755MOL0     H 1900  12.171   4.092   2.494  1.5827  0.4629 -3.1833
  755MOL0     H 1901  12.159   3.802   2.577  1.7567 -1.1830  0.7476
  755MOL0     H 1902  12.189   3.947   2.678 -0.0706  3.1492 -1.2254
  755MOL0     H 1903  12.396   3.827   2.489  1.0471 -0.9643  1.0468
  755MOL0     H 1904  12.383   3.999   2.521 -0.8800  0.6895  2.7463
  755MOL0     H 1905  11.391   4.174   2.332 -0.8624  0.0933 -0.1385
  755MOL0     H 1906  11.165   4.247   2.401 -1.1759 -1.0963  2.6944
  755MOL0     H 1907  10.954   4.596   2.584  0.0260  1.2061  1.7713
  755MOL0     H 1908  10.748   4.696   2.562  0.7135 -0.7302  0.2229
  755MOL0     H 1909   8.725   4.601   3.544 -0.8224 -3.8691  2.6054
  755MOL0     H 1910   8.473   4.535   3.591 -0.2087 -0.4128 -0.1352
  755MOL0     H 1911   8.049   4.612   3.345 -0.6406 -0.5055 -1.6740
  755MOL0     H 1912   7.801   4.588   3.372 -2.7582 -2.7834 -1.5488
  755MOL0     H 1913   7.599   4.420   3.332 -0.0079  0.6083  1.0483
  755MOL0     H 1914   7.580   4.537   3.468  0.3729 -0.3707  0.8360
  755MOL0     H 1915   7.482   4.257   3.427  2.4876  0.0377  2.4228
  755MOL0     H 1916   7.376   4.400   3.403 -0.8543 -1.9759 -1.3144
  755MOL0     H 1917   7.511   4.381   3.679  2.2354  0.2969 -2.7738
  755MOL0     H 1918   7.418   4.238   3.650 -3.5514 -0.0236  0.5147
  755MOL0     H 1919   7.274   4.397   3.756 -1.3493 -2.6291 -1.1160
  755MOL0     H 1920   7.318   4.525   3.642 -0.4573 -0.0678 -2.2162
  755MOL0     H 1921   7.024   4.330   3.423 -0.2032 -2.6595  1.6973
  755MOL0     H 1922   7.887   4.214   3.579 -1.7148 -0.1607 -0.2772
  755MOL0     H 1923   8.102   4.148   3.607 -1.0984  1.1398 -0.9774
  755MOL0     H 1924   8.150   4.133   3.439  1.8021 -0.0360 -1.1962
  755MOL0     H 1925   8.237   4.240   3.549 -0.0765 -0.1729 -0.1940
  756MOL0     O 1926   8.952   7.807   9.620  0.0182 -0.5669 -0.3145
  756MOL0     C 1927   8.860   7.870   9.567 -0.3564  0.0891  1.2653
  756MOL0     O 1928   8.875   7.976   9.479 -0.2757  0.3502 -0.4242
  756MOL0     C 1929   8.993   8.027   9.433  0.0364 -0.8477 -0.1316
  756MOL0     C 1930   8.965   8.154   9.365 -0.3915  0.1693  0.6432
  756MOL0     C 1931   9.075   8.232   9.321  0.2182  0.7955 -0.8280
  756MOL0     C 1932   9.204   8.186   9.323 -0.1845  0.5783 -0.4898
  756MOL0     O 1933   9.311   8.247   9.265 -0.2068  0.0613 -0.3733
  756MOL0     C 1934   9.291   8.276   9.120  1.2312  0.4656 -0.3602
  756MOL0     C 1935   9.422   8.302   9.039  0.3666  0.1641 -0.2572
  756MOL0     C 1936   9.407   8.385   8.906  0.2430  0.1174  0.3919
  756MOL0     C 1937   9.318   8.301   8.817  0.6701  0.1112 -0.4200
  756MOL0     C 1938   9.282   8.354   8.671 -0.1426 -0.0048 -0.4299
  756MOL0     C 1939   9.250   8.505   8.670 -0.2229  0.3289  0.8587
  756MOL0     C 1940   9.182   8.538   8.527 -0.8210 -0.2893 -0.3424
  756MOL0     C 1941   9.125   8.676   8.525 -0.4607  0.5601 -0.0081
  756MOL0     N 1942   9.235   8.768   8.533 -0.0754  0.2676 -0.6092
  756MOL0     C 1943   9.283   8.818   8.658 -0.2936 -0.6582 -0.7230
  756MOL0     C 1944   9.388   8.893   8.622  0.3752 -0.3964  0.2036
  756MOL0     C 1945   9.491   8.968   8.715 -0.5136  0.9605 -1.0474
  756MOL0     C 1946   9.626   8.963   8.652 -0.1249  1.4627 -1.0690
  756MOL0     C 1947   9.730   9.017   8.747  0.1006  0.5562 -0.1862
  756MOL0     C 1948   9.871   9.021   8.691 -0.1941 -0.4680  0.3724
  756MOL0     O 1949   9.915   8.881   8.696  0.5830  0.2597 -0.8180
  756MOL0     C 1950  10.045   8.842   8.700  0.2758  0.3723  0.0598
  756MOL0     C 1951  10.148   8.931   8.683 -0.8718 -0.2235 -0.0816
  756MOL0     C 1952  10.280   8.890   8.672 -0.4766  1.1061  0.3286
  756MOL0     C 1953  10.310   8.753   8.677 -0.4404  0.6422  0.9697
  756MOL0     C 1954  10.456   8.720   8.652 -0.0508  0.2330  0.5083
  756MOL0     O 1955  10.493   8.596   8.679  0.2603 -0.5896 -0.1804
  756MOL0     C 1956  10.630   8.571   8.677  0.9423  0.1864  0.6162
  756MOL0     C 1957  10.711   8.590   8.792  1.0421  0.2800  1.1504
  756MOL0     C 1958  10.836   8.561   8.793 -0.5823 -0.7969  0.0638
  756MOL0     C 1959  10.904   8.521   8.677  1.2568 -0.6771  1.6937
  756MOL0     O 1960  11.033   8.486   8.690  0.0779  0.4622 -0.1626
  756MOL0     C 1961  11.129   8.513   8.590  0.5690  0.3709 -0.2661
  756MOL0     C 1962  11.261   8.454   8.631  0.5404  0.9397 -0.4562
  756MOL0     C 1963  11.358   8.477   8.512 -0.1426  0.3163 -0.4249
  756MOL0     C 1964  11.501   8.447   8.544 -0.5778 -0.6953 -0.1556
  756MOL0     C 1965  11.579   8.448   8.411  0.2985  0.2716 -0.4261
  756MOL0     C 1966  11.736   8.426   8.417  0.1997 -0.3686  0.0435
  756MOL0     C 1967  11.787   8.305   8.337  0.3892 -0.7840 -0.7631
  756MOL0     C 1968  11.758   8.300   8.180 -0.2755  0.4509  0.4534
  756MOL0    Cl 1969  11.841   8.428   8.100 -0.5789  0.1951  0.4194
  756MOL0     C 1970  10.831   8.511   8.559  0.5120  0.2646 -0.1768
  756MOL0     C 1971  10.689   8.522   8.565 -0.3068 -0.4107  0.1537
  756MOL0     O 1972  10.531   8.803   8.601 -0.8089 -0.3715 -0.5820
  756MOL0     C 1973  10.210   8.660   8.704  0.7991  0.7604 -0.2932
  756MOL0     C 1974  10.075   8.704   8.723  0.3218 -0.2174  0.0619
  756MOL0     N 1975   9.395   8.896   8.484  0.5517 -0.2638 -0.2074
  756MOL0     N 1976   9.303   8.821   8.432 -0.1187 -0.3732 -1.8550
  756MOL0     C 1977   9.229   8.064   9.396 -0.2409 -0.7590  0.1185
  756MOL0     C 1978   9.126   7.992   9.455  0.0675 -0.3300 -0.9113
  756MOL0     C 1979   8.719   7.858   9.612 -0.4152 -0.3971 -0.3656
  756MOL0     C 1980   8.638   7.968   9.616  0.5082 -0.4461 -0.5546
  756MOL0     C 1981   8.501   7.958   9.645  0.4247  0.0522 -0.1832
  756MOL0     C 1982   8.446   7.837   9.677 -0.1343  0.6026  0.1069
  756MOL0     O 1983   8.311   7.841   9.706 -0.3582 -0.5838 -0.0970
  756MOL0     C 1984   8.228   7.726   9.713 -0.1467 -0.0177 -0.6146
  756MOL0     C 1985   8.186   7.694   9.855 -0.1929 -0.1457 -0.1566
  756MOL0     C 1986   8.114   7.818   9.923 -1.1312 -0.3103  0.5665
  756MOL0     C 1987   7.987   7.783  10.012 -0.4822 -0.0573  0.4508
  756MOL0     C 1988   7.949   7.909  10.091 -0.2044  0.5224 -0.6451
  756MOL0     C 1989   7.930   8.020  10.138  0.2125 -0.5088  0.3374
  756MOL0     C 1990   8.527   7.727   9.674  0.3612  0.0114  0.5524
  756MOL0     C 1991   8.663   7.729   9.640  0.1201  0.2111  0.3887
  756MOL0     C 1992   8.717   7.586   9.649 -0.8229 -0.2890  0.2114
  756MOL0     H 1993   8.868   8.201   9.355  0.2893  1.7225  1.1744
  756MOL0     H 1994   9.055   8.332   9.287  1.4772  1.9595  1.5787
  756MOL0     H 1995   9.236   8.195   9.071  0.7596  0.5286  0.0537
  756MOL0     H 1996   9.235   8.370   9.108  1.7027  1.2364  2.6533
  756MOL0     H 1997   9.462   8.200   9.027 -3.0611 -1.3447 -0.0375
  756MOL0     H 1998   9.498   8.354   9.099  0.9510  0.4130 -1.1981
  756MOL0     H 1999   9.503   8.410   8.861 -0.0133  4.4094  1.7881
  756MOL0     H 2000   9.353   8.480   8.915 -0.3647  0.0456 -1.9657
  756MOL0     H 2001   9.382   8.213   8.816 -0.6660 -0.8926 -2.1694
  756MOL0     H 2002   9.224   8.282   8.870  2.0337 -1.2490  1.6357
  756MOL0     H 2003   9.357   8.327   8.597 -0.8883 -1.5661 -0.6475
  756MOL0     H 2004   9.191   8.298   8.651  1.2027 -1.3387 -3.3447
  756MOL0     H 2005   9.178   8.529   8.749 -0.3960 -0.2243  0.8712
  756MOL0     H 2006   9.344   8.562   8.676 -0.5371  1.2510 -1.7583
  756MOL0     H 2007   9.095   8.476   8.505 -2.6527  1.9580  0.2370
  756MOL0     H 2008   9.256   8.530   8.447  0.3523  0.4603  0.6302
  756MOL0     H 2009   9.065   8.705   8.438  1.0004  1.7490 -0.6727
  756MOL0     H 2010   9.054   8.689   8.608 -0.5257 -2.7393  0.5748
  756MOL0     H 2011   9.258   8.789   8.760 -2.7411 -0.5446 -1.2158
  756MOL0     H 2012   9.460   9.068   8.745  1.7659  1.7494 -1.1008
  756MOL0     H 2013   9.500   8.916   8.811 -0.9907  5.7764  1.9265
  756MOL0     H 2014   9.652   8.864   8.615 -0.3080  1.9252 -2.4700
  756MOL0     H 2015   9.614   9.022   8.561 -0.2621 -0.4398 -2.3429
  756MOL0     H 2016   9.739   8.950   8.832  3.9529  0.8189 -0.2038
  756MOL0     H 2017   9.696   9.119   8.771  0.3113  0.6813 -0.4132
  756MOL0     H 2018   9.935   9.091   8.745 -0.2271  0.8518 -1.1919
  756MOL0     H 2019   9.880   9.044   8.584 -3.1096 -1.0314 -0.0988
  756MOL0     H 2020  10.121   9.031   8.648  0.9005  0.7587  1.1861
  756MOL0     H 2021  10.357   8.961   8.642 -0.5345  0.4770 -1.4016
  756MOL0     H 2022  10.670   8.624   8.886  2.1967  0.7044  1.5043
  756MOL0     H 2023  10.901   8.580   8.877  2.1923 -1.3488 -1.8055
  756MOL0     H 2024  11.095   8.474   8.493  0.0372  1.2173 -0.4345
  756MOL0     H 2025  11.139   8.622   8.586 -2.2050  0.8400  2.1280
  756MOL0     H 2026  11.296   8.506   8.721  0.4557 -0.1480  0.2175
  756MOL0     H 2027  11.245   8.351   8.663 -2.3004  1.0345 -1.2570
  756MOL0     H 2028  11.323   8.417   8.428 -2.2798 -0.1689  0.7504
  756MOL0     H 2029  11.358   8.582   8.479  0.9108  0.5173  0.1633
  756MOL0     H 2030  11.505   8.343   8.578 -0.0060 -0.6634 -0.1100
  756MOL0     H 2031  11.544   8.516   8.618  1.5745 -2.0455 -0.0637
  756MOL0     H 2032  11.569   8.552   8.379 -0.4402  0.1930 -0.4674
  756MOL0     H 2033  11.542   8.378   8.335  0.6102 -1.7787  1.2229
  756MOL0     H 2034  11.794   8.513   8.385 -2.0107  0.5308 -1.8539
  756MOL0     H 2035  11.758   8.413   8.523  0.0075  4.7836  0.9814
  756MOL0     H 2036  11.748   8.214   8.384 -1.2574  0.7155  0.9815
  756MOL0     H 2037  11.896   8.297   8.345  0.2314 -1.3319  3.7719
  756MOL0     H 2038  11.796   8.205   8.143  3.4630  1.6032  0.9210
  756MOL0     H 2039  11.650   8.305   8.161 -0.6122  0.6503  2.2383
  756MOL0     H 2040  10.881   8.501   8.464 -0.9198  2.3272 -1.2271
  756MOL0     H 2041  10.625   8.506   8.479  0.1312  1.5288 -0.6017
  756MOL0     H 2042  10.233   8.555   8.715  2.1888  1.0221 -0.4770
  756MOL0     H 2043   9.999   8.637   8.761  0.5266 -0.4987 -0.0232
  756MOL0     H 2044   9.324   8.012   9.393  1.1015  1.5912 -1.0810
  756MOL0     H 2045   9.153   7.898   9.504  4.5717 -0.5018 -3.2044
  756MOL0     H 2046   8.667   8.070   9.596  4.1725 -0.8894  1.5605
  756MOL0     H 2047   8.430   8.040   9.657  3.0559  2.1841  2.0050
  756MOL0     H 2048   8.272   7.636   9.668  0.8130 -0.7635  1.6632
  756MOL0     H 2049   8.143   7.752   9.650 -0.2088  1.8492  0.1666
  756MOL0     H 2050   8.275   7.672   9.915  0.3328 -1.7185 -1.4606
  756MOL0     H 2051   8.119   7.607   9.863 -1.5400  0.9348  0.9887
  756MOL0     H 2052   8.063   7.879   9.847  0.7572  2.1411  1.1595
  756MOL0     H 2053   8.179   7.894   9.966 -1.3373 -0.7643  1.7259
  756MOL0     H 2054   7.903   7.749   9.951 -2.1266 -0.3920  2.7411
  756MOL0     H 2055   8.013   7.700  10.079 -0.3101 -0.1302  0.2947
  756MOL0     H 2056   7.920   8.120  10.176 -1.4497 -1.1327  1.6577
  756MOL0     H 2057   8.479   7.634   9.705 -0.7075  0.6738  0.9342
  756MOL0     H 2058   8.649   7.531   9.584  1.3103 -0.4088 -2.0819
  756MOL0     H 2059   8.818   7.580   9.607 -1.2348  1.1134 -1.0521
  756MOL0     H 2060   8.705   7.561   9.755  3.2733  1.3351  1.2357
  757MOL0     O 2061   4.009   0.438   2.622 -0.2565 -0.3656 -1.1560
  757MOL0     C 2062   3.951   0.340   2.588  1.5161 -0.1788  0.7021
  757MOL0     O 2063   4.000   0.220   2.551  0.1274  0.1146 -0.0830
  757MOL0     C 2064   4.131   0.216   2.512 -0.1233 -0.2295  0.0814
  757MOL0     C 2065   4.180   0.206   2.379 -0.0510 -0.3241 -0.6031
  757MOL0     C 2066   4.315   0.185   2.350 -0.0198 -0.9141  0.4621
  757MOL0     C 2067   4.410   0.179   2.447 -0.2258 -0.7582  0.6673
  757MOL0     O 2068   4.544   0.183   2.407 -0.0936  0.1468 -0.4406
  757MOL0     C 2069   4.632   0.263   2.486 -0.3163  0.0959 -0.5397
  757MOL0     C 2070   4.768   0.278   2.420 -0.4489 -0.0571  0.4943
  757MOL0     C 2071   4.892   0.296   2.512 -0.5158 -0.2245 -0.7477
  757MOL0     C 2072   5.021   0.321   2.431  0.8054 -0.3884 -0.1782
  757MOL0     C 2073   5.139   0.356   2.515  0.4922  0.6883 -0.0405
  757MOL0     C 2074   5.257   0.377   2.419 -0.1158 -0.0729 -0.2946
  757MOL0     C 2075   5.393   0.383   2.508 -0.1954  0.0872 -0.6555
  757MOL0     C 2076   5.454   0.252   2.538  0.0528 -0.5871  0.5386
  757MOL0     N 2077   5.541   0.209   2.424  0.3017  0.0351 -0.7407
  757MOL0     C 2078   5.676   0.227   2.410 -0.3444 -0.1219  0.0174
  757MOL0     C 2079   5.704   0.173   2.289  0.8826 -0.6369  0.7124
  757MOL0     C 2080   5.836   0.185   2.236  0.7343 -0.1055 -0.1183
  757MOL0     C 2081   5.939   0.090   2.315  0.0437 -0.1426 -0.0310
  757MOL0     C 2082   6.074   0.100   2.243 -0.2273 -0.1818 -0.3530
  757MOL0     C 2083   6.152   0.229   2.288  0.3116 -0.7086 -0.0626
  757MOL0     O 2084   6.278   0.227   2.209 -0.2396 -0.2482 -0.1428
  757MOL0     C 2085   6.392   0.185   2.278  0.0391 -0.0013  0.0997
  757MOL0     C 2086   6.517   0.248   2.247 -0.0571  0.1063 -0.1316
  757MOL0     C 2087   6.633   0.197   2.289 -0.2565  0.6884 -0.4792
  757MOL0     C 2088   6.637   0.100   2.385 -0.3411  0.2765  1.2136
  757MOL0     C 2089   6.762   0.048   2.440 -0.8917  0.2527  0.2762
  757MOL0     O 2090   6.877   0.044   2.363  0.3901 -0.3477 -0.2409
  757MOL0     C 2091   6.987   0.011   2.429  0.7633 -0.4728 -0.0879
  757MOL0     C 2092   7.030  -0.121   2.418 -0.3461 -0.6226 -0.3909
  757MOL0     C 2093   7.153  -0.162   2.467 -1.0794  0.2816  0.4571
  757MOL0     C 2094   7.236  -0.062   2.526  0.6946  0.9119 -0.7753
  757MOL0     O 2095   7.345  -0.093   2.607  0.0121 -0.0790  0.1864
  757MOL0     C 2096   7.464  -0.098   2.519 -0.3176  0.3626 -0.0316
  757MOL0     C 2097   7.572  -0.179   2.586  0.1796  0.0903 -0.0204
  757MOL0     C 2098   7.713  -0.152   2.533  0.0951 -0.4684 -0.1517
  757MOL0     C 2099   7.776  -0.021   2.589  0.6060 -0.5019  1.7817
  757MOL0     C 2100   7.924  -0.023   2.591 -0.5989 -0.8348  0.5170
  757MOL0     C 2101   7.988   0.097   2.642  0.8130 -0.0119 -0.1566
  757MOL0     C 2102   8.138   0.093   2.650  0.4154 -0.5585 -0.4578
  757MOL0     C 2103   8.206   0.224   2.681  0.2260 -0.3322 -0.4667
  757MOL0    Cl 2104   8.160   0.283   2.841 -0.2271  0.1759  0.1822
  757MOL0     C 2105   7.192   0.067   2.526  0.2279 -0.3221  0.2505
  757MOL0     C 2106   7.064   0.111   2.494  0.2977  0.2686 -0.0238
  757MOL0     O 2107   6.758   0.009   2.551  0.3766  0.4937 -0.1075
  757MOL0     C 2108   6.513   0.046   2.429 -0.4213  0.1171  0.1723
  757MOL0     C 2109   6.393   0.081   2.378  0.3308 -0.0321  0.1162
  757MOL0     N 2110   5.586   0.127   2.227  0.3429  0.2127 -0.3704
  757MOL0     N 2111   5.490   0.154   2.313  0.5787  0.7506  0.5764
  757MOL0     C 2112   4.363   0.178   2.578  0.1461  0.2387  0.3778
  757MOL0     C 2113   4.225   0.199   2.609 -0.6920  0.6436 -0.6835
  757MOL0     C 2114   3.808   0.346   2.570  0.8036 -0.0849 -0.7637
  757MOL0     C 2115   3.752   0.281   2.458 -0.2297 -0.4343 -0.0179
  757MOL0     C 2116   3.615   0.289   2.435 -0.6725  0.7155  0.1550
  757MOL0     C 2117   3.532   0.354   2.524  0.6563 -0.1037  0.1568
  757MOL0     O 2118   3.402   0.336   2.494  0.0803  0.2563  0.2434
  757MOL0     C 2119   3.307   0.431   2.557  0.5506  1.0524  0.3598
  757MOL0     C 2120   3.257   0.382   2.694  0.1787  0.2956  0.1565
  757MOL0     C 2121   3.146   0.265   2.690 -0.1673  0.3252  0.6358
  757MOL0     C 2122   3.019   0.310   2.623 -0.2827 -1.5047 -0.1538
  757MOL0     C 2123   2.959   0.407   2.719 -1.5309  0.3669 -0.1584
  757MOL0     C 2124   2.916   0.469   2.814 -0.8851 -1.3109 -0.2038
  757MOL0     C 2125   3.587   0.417   2.639 -0.7607 -0.2112  0.0016
  757MOL0     C 2126   3.721   0.413   2.664 -0.7772 -0.1992  0.2614
  757MOL0     C 2127   3.773   0.485   2.788  0.2982  0.9837  0.6966
  757MOL0     H 2128   4.105   0.210   2.300 -0.9388 -1.1729  0.1608
  757MOL0     H 2129   4.350   0.193   2.248 -2.9054  0.3578 -0.5354
  757MOL0     H 2130   4.585   0.359   2.510  1.6936  0.5435  1.9896
  757MOL0     H 2131   4.640   0.211   2.582 -1.4149 -2.3737 -1.6947
  757MOL0     H 2132   4.766   0.358   2.345  1.0426  1.1157  1.6386
  757MOL0     H 2133   4.807   0.192   2.365  3.3779 -0.2405  3.0823
  757MOL0     H 2134   4.909   0.197   2.555  0.2200  0.8096  1.4677
  757MOL0     H 2135   4.874   0.374   2.586 -3.0222 -0.0504 -1.4344
  757MOL0     H 2136   5.037   0.231   2.371  0.4921 -1.4861  1.3112
  757MOL0     H 2137   5.001   0.404   2.364  1.2132  0.1774  0.3885
  757MOL0     H 2138   5.130   0.443   2.580  1.2555  0.2676  0.6415
  757MOL0     H 2139   5.158   0.267   2.577  0.0382  2.7784  3.3364
  757MOL0     H 2140   5.251   0.301   2.341  0.8616  1.2758 -1.7645
  757MOL0     H 2141   5.241   0.472   2.366 -0.1827 -0.0398 -0.2145
  757MOL0     H 2142   5.369   0.434   2.602  1.0287 -0.8934  0.2311
  757MOL0     H 2143   5.465   0.441   2.450 -1.1039  0.8272 -1.0662
  757MOL0     H 2144   5.523   0.268   2.621  0.7101 -0.2830 -0.0561
  757MOL0     H 2145   5.375   0.182   2.568  0.3672 -1.1094  0.1611
  757MOL0     H 2146   5.741   0.283   2.478 -1.1647 -1.8528  2.3500
  757MOL0     H 2147   5.833   0.171   2.128  1.5518  2.2767 -0.5042
  757MOL0     H 2148   5.863   0.291   2.238 -2.6074  0.8483  0.6493
  757MOL0     H 2149   5.947   0.115   2.421 -1.0713 -0.2309  0.0861
  757MOL0     H 2150   5.896  -0.011   2.307 -0.7645  0.2824 -1.3708
  757MOL0     H 2151   6.051   0.096   2.137 -1.3965 -1.9786 -0.0863
  757MOL0     H 2152   6.146   0.020   2.265  2.0070  1.7767 -0.1604
  757MOL0     H 2153   6.176   0.218   2.394 -0.0061  0.5201  0.1567
  757MOL0     H 2154   6.101   0.326   2.282 -2.1503 -1.8446  1.2513
  757MOL0     H 2155   6.520   0.323   2.169 -1.6137  1.4687  1.0523
  757MOL0     H 2156   6.723   0.247   2.256  0.6776 -0.3177  0.4528
  757MOL0     H 2157   6.958  -0.197   2.390  1.8243 -3.0005  0.1175
  757MOL0     H 2158   7.184  -0.265   2.479 -1.6650 -0.3839 -2.8623
  757MOL0     H 2159   7.438  -0.134   2.419  1.7937 -0.7468 -0.2227
  757MOL0     H 2160   7.498   0.004   2.499  0.4825 -0.3735 -2.7880
  757MOL0     H 2161   7.566  -0.163   2.694 -1.0535 -0.6824  0.0430
  757MOL0     H 2162   7.560  -0.286   2.566  1.7558 -0.3184  1.0377
  757MOL0     H 2163   7.777  -0.234   2.565 -1.8159 -1.8317  0.3452
  757MOL0     H 2164   7.708  -0.144   2.424 -2.3458 -1.0230 -0.1403
  757MOL0     H 2165   7.735  -0.004   2.689 -4.6975 -0.4159 -0.0403
  757MOL0     H 2166   7.737   0.060   2.527 -0.0706 -2.1910 -0.1198
  757MOL0     H 2167   7.963  -0.031   2.489  1.9460  1.4522  1.2071
  757MOL0     H 2168   7.951  -0.117   2.640 -2.6799 -0.9155  1.6189
  757MOL0     H 2169   7.957   0.185   2.584  0.2007  2.3109  3.3239
  757MOL0     H 2170   7.941   0.110   2.740 -0.4095 -1.9666 -0.4453
  757MOL0     H 2171   8.175   0.057   2.554 -0.3806 -0.4527 -0.8196
  757MOL0     H 2172   8.169   0.024   2.729 -4.5509 -1.7736  0.7994
  757MOL0     H 2173   8.313   0.212   2.662 -0.2926 -2.6389 -2.4138
  757MOL0     H 2174   8.173   0.304   2.614 -1.9002 -0.3007  0.5425
  757MOL0     H 2175   7.266   0.130   2.574  0.9524 -1.9559  1.3641
  757MOL0     H 2176   7.037   0.214   2.512 -1.7328 -0.2447  0.1448
  757MOL0     H 2177   6.520  -0.031   2.505 -2.4725  0.4737  0.8025
  757MOL0     H 2178   6.302   0.030   2.411  0.8316 -0.5464  0.7225
  757MOL0     H 2179   4.435   0.154   2.655  1.2128  2.6301  0.2316
  757MOL0     H 2180   4.198   0.205   2.714  2.5729  2.7592  0.2150
  757MOL0     H 2181   3.826   0.234   2.395  0.1079  0.8961 -0.6423
  757MOL0     H 2182   3.574   0.228   2.354  3.8994 -1.7623 -0.6493
  757MOL0     H 2183   3.229   0.448   2.482  0.2557 -3.4339 -0.5777
  757MOL0     H 2184   3.362   0.525   2.568  1.2782  0.5337  1.3083
  757MOL0     H 2185   3.218   0.467   2.750 -0.4848  0.2820 -0.2650
  757MOL0     H 2186   3.345   0.336   2.740  1.9734  3.7395  0.4321
  757MOL0     H 2187   3.126   0.224   2.790  2.0588  1.8569  1.8055
  757MOL0     H 2188   3.194   0.190   2.627  1.7024  1.0704  1.0750
  757MOL0     H 2189   3.042   0.362   2.529 -0.4707 -0.0863  0.5607
  757MOL0     H 2190   2.946   0.230   2.608 -1.4315 -0.3294 -1.0726
  757MOL0     H 2191   2.889   0.535   2.895  0.6991 -0.5837 -0.2228
  757MOL0     H 2192   3.533   0.472   2.715  1.9485 -0.6109  2.4026
  757MOL0     H 2193   3.829   0.404   2.834 -1.2037  0.4505  1.6687
  757MOL0     H 2194   3.831   0.574   2.762  2.0752 -0.6437 -1.3090
  757MOL0     H 2195   3.688   0.507   2.853  0.3514  3.1123  0.1299
  758MOL0     O 2196   1.942   7.882   4.227  0.5301 -0.7095  0.1711
  758MOL0     C 2197   1.884   7.951   4.318  0.3283 -0.3304 -0.0910
  758MOL0     O 2198   1.936   8.048   4.401  0.6259  0.0178  0.2767
  758MOL0     C 2199   2.061   8.083   4.371 -0.0116  0.0411  0.9964
  758MOL0     C 2200   2.173   8.005   4.409 -0.4651  0.4697  0.5562
  758MOL0     C 2201   2.300   8.057   4.401 -0.2961 -0.3906 -0.1603
  758MOL0     C 2202   2.319   8.188   4.351 -0.2441  1.0036  1.4024
  758MOL0     O 2203   2.447   8.237   4.369  0.4155  0.0505 -0.4194
  758MOL0     C 2204   2.482   8.367   4.326 -0.5032 -1.1593 -0.2664
  758MOL0     C 2205   2.560   8.344   4.196  0.1656 -0.3451 -0.2290
  758MOL0     C 2206   2.681   8.427   4.165  0.1972  0.4133 -0.5121
  758MOL0     C 2207   2.785   8.331   4.102 -0.3890 -0.4130 -0.0081
  758MOL0     C 2208   2.921   8.404   4.093 -0.9398  0.5058  0.3306
  758MOL0     C 2209   3.038   8.311   4.044  0.4069  0.5321  0.0933
  758MOL0     C 2210   3.174   8.388   4.063 -0.1773 -0.4839  0.6249
  758MOL0     C 2211   3.296   8.322   3.993  0.0640 -0.8700 -0.0113
  758MOL0     N 2212   3.411   8.414   3.969  0.2652 -0.0141 -0.0307
  758MOL0     C 2213   3.415   8.514   3.878  0.4239  0.5887  0.2555
  758MOL0     C 2214   3.545   8.565   3.876  0.1772  0.3205 -0.4717
  758MOL0     C 2215   3.610   8.670   3.787 -0.7499  0.7716  0.2322
  758MOL0     C 2216   3.750   8.701   3.830 -0.4011 -0.1285 -0.6631
  758MOL0     C 2217   3.817   8.804   3.737  0.0332  0.3629  0.4073
  758MOL0     C 2218   3.890   8.734   3.620 -0.5403 -0.1123  0.0290
  758MOL0     O 2219   3.998   8.645   3.661  0.4352 -0.4700 -0.2791
  758MOL0     C 2220   4.128   8.683   3.621 -0.7181 -0.2103 -1.1134
  758MOL0     C 2221   4.170   8.817   3.600 -0.0551  0.6809 -0.6812
  758MOL0     C 2222   4.294   8.844   3.558  0.9629 -1.0730  1.0053
  758MOL0     C 2223   4.379   8.739   3.524  0.1559 -0.9777  0.5846
  758MOL0     C 2224   4.503   8.777   3.458 -0.3168  0.3468 -0.4026
  758MOL0     O 2225   4.594   8.673   3.443 -1.5356 -0.0488  0.2366
  758MOL0     C 2226   4.721   8.697   3.397 -0.3764 -0.5453  0.4622
  758MOL0     C 2227   4.796   8.587   3.358  0.6367 -0.3806  0.2568
  758MOL0     C 2228   4.925   8.597   3.307 -0.4308 -0.9205  0.7450
  758MOL0     C 2229   4.989   8.718   3.289 -0.2004 -0.3532 -0.2191
  758MOL0     O 2230   5.122   8.718   3.240  1.6042  0.0813  0.4638
  758MOL0     C 2231   5.180   8.854   3.220 -0.0371 -0.1470 -0.1354
  758MOL0     C 2232   5.329   8.849   3.178 -0.2532  0.3445 -1.0552
  758MOL0     C 2233   5.420   8.788   3.289 -0.7255 -0.3118 -0.0602
  758MOL0     C 2234   5.457   8.894   3.396 -0.0392 -0.6103 -0.5505
  758MOL0     C 2235   5.453   8.847   3.546 -0.4955  0.4893  0.0559
  758MOL0     C 2236   5.539   8.928   3.632 -0.7296  0.5362 -0.8047
  758MOL0     C 2237   5.509   8.885   3.774  0.6772 -0.5250  0.2916
  758MOL0     C 2238   5.600   8.953   3.880 -0.1072  0.9823 -0.6381
  758MOL0    Cl 2239   5.565   9.131   3.888  0.3436  0.0884  0.0086
  758MOL0     C 2240   4.914   8.836   3.318 -0.0957  0.6990 -1.1400
  758MOL0     C 2241   4.784   8.825   3.379 -0.0289 -0.0655 -0.0079
  758MOL0     O 2242   4.523   8.895   3.439 -0.2189  0.6330  0.0743
  758MOL0     C 2243   4.349   8.608   3.557  0.1921  0.6687 -0.3303
  758MOL0     C 2244   4.217   8.578   3.603  0.5795  0.0519  0.2505
  758MOL0     N 2245   3.617   8.470   3.948 -0.1451 -0.0617  0.4949
  758MOL0     N 2246   3.539   8.394   4.007  0.7860  0.5270 -0.1564
  758MOL0     C 2247   2.208   8.260   4.295 -0.4886  0.0658 -0.5867
  758MOL0     C 2248   2.083   8.204   4.306  0.5868 -0.3788  0.1070
  758MOL0     C 2249   1.744   7.904   4.340 -0.3845 -0.5404 -0.2859
  758MOL0     C 2250   1.649   7.896   4.237  0.1171 -0.9185  0.3316
  758MOL0     C 2251   1.513   7.860   4.266 -0.2904  0.2379 -0.2340
  758MOL0     C 2252   1.474   7.831   4.402 -1.0747 -0.9887  0.2888
  758MOL0     O 2253   1.345   7.824   4.442  0.3387  0.4735 -0.6357
  758MOL0     C 2254   1.277   7.944   4.412  0.0263 -0.3137 -0.1752
  758MOL0     C 2255   1.139   7.929   4.481 -0.9867 -0.4676  0.2528
  758MOL0     C 2256   1.059   7.810   4.430  0.3415  0.1064  0.7667
  758MOL0     C 2257   0.914   7.804   4.478  0.4943  0.5148 -0.4510
  758MOL0     C 2258   0.842   7.920   4.456 -0.1148  0.0018 -0.5577
  758MOL0     C 2259   0.775   8.018   4.451 -0.0565 -0.8334 -0.2791
  758MOL0     C 2260   1.571   7.824   4.500 -0.0400  0.0681 -1.2273
  758MOL0     C 2261   1.701   7.871   4.472 -0.3612 -0.5415 -0.3917
  758MOL0     C 2262   1.799   7.867   4.595  0.3651  0.0289  0.0616
  758MOL0     H 2263   2.164   7.901   4.438  0.3521 -0.1632 -1.3377
  758MOL0     H 2264   2.388   8.014   4.448  0.1599  1.8945  1.2602
  758MOL0     H 2265   2.397   8.434   4.313 -1.2724 -2.2141 -0.7595
  758MOL0     H 2266   2.544   8.422   4.398  0.2268  2.1974 -3.2205
  758MOL0     H 2267   2.487   8.369   4.118  0.6661  0.3775 -0.4833
  758MOL0     H 2268   2.581   8.237   4.204  0.5669 -0.2843 -0.4387
  758MOL0     H 2269   2.714   8.475   4.257 -1.8389  1.3873 -0.2184
  758MOL0     H 2270   2.662   8.512   4.098 -1.5471  0.3588 -0.1421
  758MOL0     H 2271   2.799   8.245   4.169 -3.0645 -1.4322 -0.6132
  758MOL0     H 2272   2.762   8.294   4.002  1.9791  0.9795 -1.1354
  758MOL0     H 2273   2.907   8.488   4.024 -2.2319  1.0939  1.2578
  758MOL0     H 2274   2.943   8.442   4.194 -0.5812 -0.9674  0.8355
  758MOL0     H 2275   3.038   8.207   4.079 -2.5881  0.6765  0.8156
  758MOL0     H 2276   3.021   8.299   3.937 -1.2074  1.7118  0.1947
  758MOL0     H 2277   3.199   8.397   4.169 -1.3228  0.1635  0.8563
  758MOL0     H 2278   3.160   8.492   4.030  2.1385  0.2483  1.7170
  758MOL0     H 2279   3.325   8.230   4.044 -3.6252 -1.5384  1.1401
  758MOL0     H 2280   3.255   8.304   3.894 -1.2143 -0.6205  0.4559
  758MOL0     H 2281   3.330   8.554   3.823 -1.1261 -0.4358  1.7990
  758MOL0     H 2282   3.608   8.610   3.695 -2.6236 -3.8824  2.9572
  758MOL0     H 2283   3.551   8.763   3.792 -1.4862  0.2492  2.2509
  758MOL0     H 2284   3.757   8.751   3.927  4.8533  0.6337 -1.1429
  758MOL0     H 2285   3.801   8.605   3.834 -0.7117 -0.4266 -2.7461
  758MOL0     H 2286   3.895   8.860   3.789  0.7127  1.9787 -2.1741
  758MOL0     H 2287   3.743   8.877   3.701 -0.3918  0.4799  1.4879
  758MOL0     H 2288   3.927   8.805   3.545 -1.0032 -1.0423 -1.1104
  758MOL0     H 2289   3.817   8.663   3.580 -1.4783 -0.2082  1.8246
  758MOL0     H 2290   4.092   8.890   3.619 -1.5302 -0.8333 -0.6474
  758MOL0     H 2291   4.329   8.946   3.550  0.7847 -0.9278  2.0191
  758MOL0     H 2292   4.746   8.491   3.371  1.9420 -1.4149 -1.8609
  758MOL0     H 2293   4.978   8.507   3.279 -1.7181 -1.3176 -0.5122
  758MOL0     H 2294   5.122   8.901   3.140  1.3212  2.2366  0.2054
  758MOL0     H 2295   5.191   8.911   3.313  2.0290  0.2948 -0.6097
  758MOL0     H 2296   5.346   8.790   3.087  4.3975  0.4191 -0.4643
  758MOL0     H 2297   5.363   8.952   3.162  0.7841  0.2927  0.6579
  758MOL0     H 2298   5.373   8.695   3.324 -0.1248 -1.2514 -1.6346
  758MOL0     H 2299   5.517   8.756   3.250 -0.1376  1.4671 -0.1636
  758MOL0     H 2300   5.375   8.967   3.394 -0.0993 -0.5002  2.2618
  758MOL0     H 2301   5.553   8.939   3.370  0.4187 -0.5632  1.1112
  758MOL0     H 2302   5.491   8.744   3.550 -0.4247  0.5435  0.8089
  758MOL0     H 2303   5.349   8.854   3.579 -1.0195  0.3390 -1.4625
  758MOL0     H 2304   5.642   8.907   3.601 -0.6609 -0.4437  0.0188
  758MOL0     H 2305   5.520   9.035   3.621  0.3333  0.8035 -0.2447
  758MOL0     H 2306   5.531   8.778   3.777 -2.2079 -1.2429 -1.0984
  758MOL0     H 2307   5.401   8.896   3.787  0.4496  2.0162 -2.6907
  758MOL0     H 2308   5.577   8.906   3.976  0.8268  0.3703 -0.7087
  758MOL0     H 2309   5.702   8.924   3.854 -0.6616  0.7307 -2.6416
  758MOL0     H 2310   4.959   8.929   3.285  0.2072  0.4398 -1.4539
  758MOL0     H 2311   4.739   8.921   3.403  1.6444  0.7411  0.0419
  758MOL0     H 2312   4.418   8.528   3.532 -1.0318 -0.6411  0.3675
  758MOL0     H 2313   4.184   8.476   3.621 -2.7084  1.2279  1.8759
  758MOL0     H 2314   2.207   8.362   4.258 -1.7439 -0.3231 -1.7040
  758MOL0     H 2315   1.995   8.263   4.283  0.5871  0.5376  2.1827
  758MOL0     H 2316   1.683   7.915   4.136 -1.6677  2.2108  0.2183
  758MOL0     H 2317   1.435   7.849   4.192  1.3675 -0.2481 -1.9795
  758MOL0     H 2318   1.264   7.967   4.306  0.3648 -1.2344 -0.4286
  758MOL0     H 2319   1.333   8.031   4.448 -1.6663  0.6175  0.3178
  758MOL0     H 2320   1.085   8.023   4.467 -0.5376 -0.0891  1.0333
  758MOL0     H 2321   1.155   7.918   4.588 -2.1999  0.3326  0.5457
  758MOL0     H 2322   1.112   7.716   4.448  0.5840  0.4267  1.8062
  758MOL0     H 2323   1.070   7.820   4.321  1.3101  2.8792  1.0349
  758MOL0     H 2324   0.868   7.718   4.430  0.3025  0.9851 -1.1191
  758MOL0     H 2325   0.927   7.791   4.586  0.0251  1.4244 -0.2671
  758MOL0     H 2326   0.717   8.108   4.445  3.0057  1.3076 -0.1821
  758MOL0     H 2327   1.541   7.797   4.601  1.1298  1.1153 -0.5730
  758MOL0     H 2328   1.899   7.825   4.583 -0.4382 -2.2544  0.7836
  758MOL0     H 2329   1.820   7.972   4.618 -0.4462  0.5311 -1.3598
  758MOL0     H 2330   1.746   7.814   4.675 -0.7708  0.0416 -0.6636
  759MOL0     O 2331   2.739   8.351   0.805  0.0159  0.4378  0.1473
  759MOL0     C 2332   2.720   8.355   0.682  0.2458  0.4416 -0.6745
  759MOL0     O 2333   2.825   8.341   0.592  0.1414  0.5453 -0.0951
  759MOL0     C 2334   2.954   8.324   0.646  0.4609 -0.7005 -0.0935
  759MOL0     C 2335   3.032   8.215   0.608 -0.0057  0.0859 -0.2091
  759MOL0     C 2336   3.168   8.216   0.628  0.0439  0.2383 -0.4623
  759MOL0     C 2337   3.227   8.322   0.701  0.0628 -0.2358 -0.3556
  759MOL0     O 2338   3.366   8.316   0.724  0.8326  0.1205 -0.4539
  759MOL0     C 2339   3.425   8.407   0.823  0.0498  0.6309  0.0068
  759MOL0     C 2340   3.566   8.387   0.843 -0.7468  0.3550 -0.2982
  759MOL0     C 2341   3.587   8.241   0.889 -0.2503 -0.2459  0.2654
  759MOL0     C 2342   3.725   8.225   0.955  0.1007  0.0138 -0.6450
  759MOL0     C 2343   3.766   8.082   0.974 -0.1022  0.3383  0.0444
  759MOL0     C 2344   3.901   8.061   1.055 -0.0810 -0.0989 -0.0018
  759MOL0     C 2345   3.972   7.928   1.034  0.4522  0.0052  0.0823
  759MOL0     C 2346   4.075   7.875   1.140 -0.2975 -0.3501  0.1588
  759MOL0     N 2347   4.206   7.950   1.138 -0.4301 -0.3174  0.1258
  759MOL0     C 2348   4.331   7.887   1.133  0.2934  1.8040 -0.6984
  759MOL0     C 2349   4.418   7.991   1.150 -0.5058  0.7544  0.1830
  759MOL0     C 2350   4.572   7.996   1.150  0.7229  0.3372 -0.3824
  759MOL0     C 2351   4.625   8.026   1.018 -0.5157  0.3192  0.4760
  759MOL0     C 2352   4.780   7.998   1.014  0.4908  0.7305 -0.5367
  759MOL0     C 2353   4.842   8.087   0.901 -0.6630 -0.3288 -0.1998
  759MOL0     O 2354   4.983   8.069   0.894  0.2888  0.2904 -0.6906
  759MOL0     C 2355   5.050   8.112   0.783  0.1363 -0.3524 -0.4157
  759MOL0     C 2356   4.996   8.185   0.672  0.3153 -0.6070 -0.4489
  759MOL0     C 2357   5.083   8.235   0.578 -0.5760 -0.1795 -0.3497
  759MOL0     C 2358   5.226   8.208   0.586  0.1860 -0.4032  0.2973
  759MOL0     C 2359   5.312   8.258   0.476 -0.2541  0.7850 -0.2983
  759MOL0     O 2360   5.439   8.259   0.500 -0.5857 -0.3332  0.0944
  759MOL0     C 2361   5.524   8.273   0.390 -0.5775 -1.1065  0.2718
  759MOL0     C 2362   5.628   8.184   0.375 -0.4574  0.3044 -0.4334
  759MOL0     C 2363   5.715   8.182   0.266  0.4886  0.2544  0.2152
  759MOL0     C 2364   5.705   8.289   0.175 -0.6029  0.2858  0.0441
  759MOL0     O 2365   5.789   8.299   0.068 -0.5570  0.5102  0.2743
  759MOL0     C 2366   5.738   8.241  -0.053 -0.8302 -0.1119 -0.4085
  759MOL0     C 2367   5.850   8.254  -0.161 -0.1963  0.0043  0.2386
  759MOL0     C 2368   5.949   8.137  -0.147  0.3955 -0.2827  0.5623
  759MOL0     C 2369   6.019   8.122  -0.009  0.4161  0.4858 -0.2661
  759MOL0     C 2370   6.144   8.031  -0.001  0.5646 -0.5864  0.0446
  759MOL0     C 2371   6.113   7.890  -0.047  0.1130  0.8482  0.0487
  759MOL0     C 2372   6.226   7.785  -0.038  0.2713  0.0079  0.0521
  759MOL0     C 2373   6.344   7.818  -0.124  0.1377 -0.8068  0.0436
  759MOL0    Cl 2374   6.450   7.666  -0.131 -0.1261 -0.5123 -0.3818
  759MOL0     C 2375   5.613   8.394   0.204  0.3026 -0.3627 -0.0667
  759MOL0     C 2376   5.521   8.387   0.308  0.2057 -0.4921 -0.9197
  759MOL0     O 2377   5.255   8.296   0.372  0.2376  0.3191 -0.3739
  759MOL0     C 2378   5.267   8.144   0.696 -0.5805  0.5466 -0.5453
  759MOL0     C 2379   5.185   8.091   0.789  0.6082 -0.5153 -0.3865
  759MOL0     N 2380   4.342   8.104   1.174 -0.5774  0.1029  0.1164
  759MOL0     N 2381   4.222   8.082   1.165 -0.1023  0.2053  0.5673
  759MOL0     C 2382   3.149   8.426   0.758  0.2186  0.5416 -0.6407
  759MOL0     C 2383   3.012   8.422   0.726 -0.0811 -0.4478 -0.9446
  759MOL0     C 2384   2.586   8.390   0.630  0.0396  0.7052 -0.3760
  759MOL0     C 2385   2.471   8.316   0.684  0.3174 -0.2839 -0.4271
  759MOL0     C 2386   2.336   8.346   0.652 -0.2635  0.1191  0.0229
  759MOL0     C 2387   2.310   8.435   0.547  0.1606 -0.2791 -1.6818
  759MOL0     O 2388   2.187   8.463   0.491 -0.1072 -0.1587  0.1595
  759MOL0     C 2389   2.067   8.416   0.553 -0.3335 -0.2450 -0.3274
  759MOL0     C 2390   1.954   8.403   0.450  0.0515 -0.2926  0.4372
  759MOL0     C 2391   1.986   8.299   0.339 -1.1149 -0.5992 -0.6510
  759MOL0     C 2392   1.900   8.313   0.213  0.3127 -0.3932  0.2987
  759MOL0     C 2393   1.753   8.325   0.244 -0.1589  0.7644  0.9315
  759MOL0     C 2394   1.634   8.329   0.265  0.1899 -0.1241 -0.1782
  759MOL0     C 2395   2.426   8.504   0.505 -0.3097 -0.1478  0.7812
  759MOL0     C 2396   2.557   8.485   0.539 -0.2112  0.4985  0.3757
  759MOL0     C 2397   2.661   8.572   0.487 -0.2366  0.7096 -0.1096
  759MOL0     H 2398   2.991   8.134   0.549 -0.2733 -2.0550  2.7065
  759MOL0     H 2399   3.207   8.133   0.571 -1.9585 -0.3072 -1.1275
  759MOL0     H 2400   3.406   8.509   0.786 -0.4176  0.2884 -0.7379
  759MOL0     H 2401   3.376   8.381   0.917 -2.5256  0.1686 -1.3557
  759MOL0     H 2402   3.610   8.441   0.928  0.1623 -3.9494  2.2666
  759MOL0     H 2403   3.624   8.404   0.752 -0.2383  1.7113  0.2516
  759MOL0     H 2404   3.583   8.177   0.800  2.5274 -2.1690  1.3949
  759MOL0     H 2405   3.499   8.220   0.951 -0.9976  2.6622  0.3134
  759MOL0     H 2406   3.790   8.284   0.890 -0.1656  0.8725 -0.1508
  759MOL0     H 2407   3.725   8.271   1.054 -1.6415 -0.4538 -0.3818
  759MOL0     H 2408   3.684   8.019   1.010 -0.0806  0.8971  1.1006
  759MOL0     H 2409   3.780   8.045   0.872  1.3215 -2.2538  1.0872
  759MOL0     H 2410   3.969   8.146   1.050  1.4519 -1.2954 -0.4327
  759MOL0     H 2411   3.872   8.063   1.161 -0.1750  2.6383 -0.0203
  759MOL0     H 2412   4.025   7.947   0.940  0.9006 -0.6610  0.1975
  759MOL0     H 2413   3.893   7.853   1.026  1.1329 -1.1554  2.9870
  759MOL0     H 2414   4.048   7.901   1.242  3.6269  0.5332  1.1394
  759MOL0     H 2415   4.092   7.771   1.113 -0.9750 -1.2211  2.8288
  759MOL0     H 2416   4.355   7.782   1.121  1.4311  2.1431 -1.7012
  759MOL0     H 2417   4.591   8.073   1.226  1.1440 -1.9009  1.9415
  759MOL0     H 2418   4.616   7.904   1.189 -3.1795 -1.8882 -0.6699
  759MOL0     H 2419   4.573   7.960   0.947  2.0396 -0.3576 -0.9149
  759MOL0     H 2420   4.600   8.131   1.001  2.6937  1.1408  0.2948
  759MOL0     H 2421   4.797   7.895   0.982 -0.3559  1.0740 -2.1779
  759MOL0     H 2422   4.822   8.019   1.113  2.3795 -1.9601 -0.6436
  759MOL0     H 2423   4.827   8.192   0.927 -0.4457 -0.9376  2.8074
  759MOL0     H 2424   4.793   8.063   0.807  2.1216 -1.7359 -1.4064
  759MOL0     H 2425   4.894   8.219   0.684  0.4204  0.5118 -2.3692
  759MOL0     H 2426   5.047   8.277   0.484  3.4011 -1.4326 -2.6878
  759MOL0     H 2427   5.652   8.104   0.444 -3.2503  0.2720  0.6187
  759MOL0     H 2428   5.802   8.121   0.243 -1.6508 -2.4199 -1.4725
  759MOL0     H 2429   5.716   8.135  -0.037  0.5067 -0.1642  1.2981
  759MOL0     H 2430   5.651   8.299  -0.086 -0.9744 -0.7882 -1.2747
  759MOL0     H 2431   5.804   8.260  -0.260 -2.1365 -0.9834  1.0110
  759MOL0     H 2432   5.906   8.346  -0.143  0.7217 -0.1529 -1.5833
  759MOL0     H 2433   5.890   8.047  -0.162 -0.9580  0.5229  0.8657
  759MOL0     H 2434   6.018   8.141  -0.232 -0.6942 -0.8846 -0.3879
  759MOL0     H 2435   5.947   8.098   0.070  0.3698  0.3101 -0.3616
  759MOL0     H 2436   6.063   8.221   0.010  2.5610 -0.0756 -1.9347
  759MOL0     H 2437   6.179   8.029   0.103 -1.4768  1.0610  0.8437
  759MOL0     H 2438   6.217   8.075  -0.069 -0.0728 -2.0653 -1.6662
  759MOL0     H 2439   6.029   7.857   0.016  0.9315 -0.2531  0.6006
  759MOL0     H 2440   6.080   7.894  -0.151  0.7537  3.0828 -0.1070
  759MOL0     H 2441   6.182   7.691  -0.072 -1.2451  0.3132  1.0883
  759MOL0     H 2442   6.257   7.771   0.066 -0.8153  0.6435  0.4749
  759MOL0     H 2443   6.312   7.848  -0.224  0.1032  1.5232  0.6837
  759MOL0     H 2444   6.405   7.905  -0.095 -1.8019  1.5128 -2.3378
  759MOL0     H 2445   5.618   8.472   0.128  1.4728  0.9701  1.3242
  759MOL0     H 2446   5.449   8.463   0.337 -1.9729 -3.6651  2.8963
  759MOL0     H 2447   5.373   8.122   0.705 -1.0166 -1.0471  1.3563
  759MOL0     H 2448   5.229   8.027   0.865 -1.0869 -0.6479  0.5499
  759MOL0     H 2449   3.188   8.501   0.827  0.0324  1.1188 -1.1526
  759MOL0     H 2450   2.949   8.510   0.740  0.8112  0.3816 -1.9681
  759MOL0     H 2451   2.482   8.239   0.759  1.1159 -0.2577 -0.5025
  759MOL0     H 2452   2.254   8.292   0.699  0.5383 -0.1508  1.1419
  759MOL0     H 2453   2.046   8.495   0.624  1.8715  2.8512 -2.8081
  759MOL0     H 2454   2.076   8.319   0.603  0.6522  0.1939  0.3671
  759MOL0     H 2455   1.937   8.499   0.401 -3.7067 -0.0816  1.8726
  759MOL0     H 2456   1.859   8.396   0.503 -0.0786  0.2729  0.2900
  759MOL0     H 2457   1.973   8.200   0.384 -3.5835 -0.5152 -1.0619
  759MOL0     H 2458   2.094   8.304   0.322 -0.2253  1.9241  4.0151
  759MOL0     H 2459   1.933   8.401   0.158  0.8642 -0.8529 -0.1227
  759MOL0     H 2460   1.923   8.232   0.143 -0.0997 -2.5895  2.5605
  759MOL0     H 2461   1.534   8.342   0.302  0.1513 -2.8709  0.9103
  759MOL0     H 2462   2.406   8.580   0.430 -0.1253  1.0622  1.9150
  759MOL0     H 2463   2.612   8.653   0.431 -4.8248 -1.6660 -0.0523
  759MOL0     H 2464   2.712   8.620   0.571 -1.0673  0.0078  0.8271
  759MOL0     H 2465   2.737   8.516   0.434  2.6714  1.5153  2.8676
  760MOL0     O 2466   1.826   9.944   1.122  0.1112  0.3532 -0.7261
  760MOL0     C 2467   1.859   9.829   1.086 -0.0171 -0.3583  0.8619
  760MOL0     O 2468   1.984   9.780   1.106  0.2775  0.8420  0.3897
  760MOL0     C 2469   2.086   9.832   1.188 -0.1907 -0.1424  0.3633
  760MOL0     C 2470   2.216   9.779   1.167  1.1736  0.1778  0.1452
  760MOL0     C 2471   2.333   9.825   1.228 -0.8333 -0.0972 -1.0691
  760MOL0     C 2472   2.322   9.936   1.314 -0.0271 -0.9194  0.5270
  760MOL0     O 2473   2.433   9.960   1.394 -0.2478 -0.3545 -0.4511
  760MOL0     C 2474   2.421  10.048   1.500 -0.0151 -1.0484  0.1683
  760MOL0     C 2475   2.559  10.078   1.553  0.1131  0.1906 -0.6840
  760MOL0     C 2476   2.613   9.959   1.639  0.1476  0.9732  0.9388
  760MOL0     C 2477   2.552   9.946   1.780 -0.0570  0.7603 -1.4295
  760MOL0     C 2478   2.647   9.859   1.859 -0.3622 -0.1206  0.2792
  760MOL0     C 2479   2.595   9.802   1.987 -0.7013 -0.0817 -0.0472
  760MOL0     C 2480   2.469   9.714   1.986  0.4939 -0.1833  0.3784
  760MOL0     C 2481   2.427   9.650   2.122 -0.4332 -0.6395  0.1032
  760MOL0     N 2482   2.532   9.566   2.178  0.2995 -0.0318  0.4043
  760MOL0     C 2483   2.565   9.446   2.121  0.8687 -0.2226 -0.8669
  760MOL0     C 2484   2.658   9.396   2.207  0.3091 -1.0842  0.2935
  760MOL0     C 2485   2.716   9.257   2.190 -0.1349 -0.5053  0.0088
  760MOL0     C 2486   2.869   9.243   2.220  0.5667  0.1051  0.2701
  760MOL0     C 2487   2.957   9.305   2.110  0.1235 -0.0006  0.9864
  760MOL0     C 2488   3.104   9.283   2.120 -0.5082 -0.1276 -0.1732
  760MOL0     O 2489   3.158   9.336   2.242  0.1887 -0.4381  0.0502
  760MOL0     C 2490   3.300   9.358   2.240  0.2134 -0.0782 -0.7332
  760MOL0     C 2491   3.353   9.438   2.342  0.2643 -0.3724  0.3580
  760MOL0     C 2492   3.492   9.452   2.355  0.8441 -0.1538  0.3921
  760MOL0     C 2493   3.577   9.397   2.263  0.7724  0.0830 -0.1345
  760MOL0     C 2494   3.724   9.413   2.274 -0.3652  0.5777  0.0542
  760MOL0     O 2495   3.763   9.506   2.368  0.2303  0.1774  0.3863
  760MOL0     C 2496   3.894   9.529   2.383 -0.1088  0.8693  0.2314
  760MOL0     C 2497   3.975   9.443   2.454 -0.4284 -0.5078 -0.6328
  760MOL0     C 2498   4.120   9.462   2.457  0.3256  1.0935  0.0851
  760MOL0     C 2499   4.171   9.571   2.389  0.0847  0.3681  0.1816
  760MOL0     O 2500   4.305   9.578   2.387 -0.0926 -0.0582 -0.5597
  760MOL0     C 2501   4.370   9.683   2.311 -0.3113  0.1756  0.0665
  760MOL0     C 2502   4.525   9.668   2.330  0.2156  0.0907 -0.6239
  760MOL0     C 2503   4.603   9.734   2.219  0.3614  0.5674 -0.0743
  760MOL0     C 2504   4.754   9.715   2.237 -0.1593 -0.0360 -1.0952
  760MOL0     C 2505   4.826   9.786   2.118 -0.7114  0.3767  0.2360
  760MOL0     C 2506   4.976   9.782   2.149  1.0120 -0.7235  0.3911
  760MOL0     C 2507   5.057   9.863   2.045 -0.1765  0.1718  0.3531
  760MOL0     C 2508   5.215   9.834   2.030  0.4594  0.3302  0.4638
  760MOL0    Cl 2509   5.280   9.952   1.920  0.8924  0.1513 -0.5202
  760MOL0     C 2510   4.082   9.659   2.332 -0.0083  0.2151  0.0248
  760MOL0     C 2511   3.946   9.642   2.325 -0.0256  0.4756  0.0056
  760MOL0     O 2512   3.796   9.330   2.216  0.6291 -0.0619 -0.1971
  760MOL0     C 2513   3.529   9.322   2.154  0.4599 -0.0761 -0.0120
  760MOL0     C 2514   3.389   9.306   2.143 -0.0711 -0.4065 -0.6203
  760MOL0     N 2515   2.679   9.481   2.311 -0.7202 -0.1392  0.4077
  760MOL0     N 2516   2.608   9.586   2.292  1.1162 -0.0914  0.1712
  760MOL0     C 2517   2.195   9.984   1.346  0.5494  0.1755 -0.0185
  760MOL0     C 2518   2.081   9.944   1.271 -0.2953  0.3386  0.2772
  760MOL0     C 2519   1.761   9.743   1.015  0.4843  1.1141 -0.2405
  760MOL0     C 2520   1.814   9.614   0.992 -0.0974 -0.1447  0.6814
  760MOL0     C 2521   1.738   9.519   0.924  0.6474 -0.1860 -0.3830
  760MOL0     C 2522   1.611   9.561   0.867  0.3615  0.4944  0.4482
  760MOL0     O 2523   1.540   9.467   0.795 -0.3983  0.0440  0.3204
  760MOL0     C 2524   1.465   9.374   0.879  0.5895  0.0414 -0.7487
  760MOL0     C 2525   1.448   9.234   0.813 -0.0964 -0.2704 -0.9532
  760MOL0     C 2526   1.483   9.133   0.932  0.0423  0.5570 -0.1751
  760MOL0     C 2527   1.518   8.991   0.895  0.5271  0.0411  0.0068
  760MOL0     C 2528   1.518   8.887   1.007 -0.2817 -0.4992 -0.4435
  760MOL0     C 2529   1.528   8.821   1.110 -0.8528  0.4485 -0.8083
  760MOL0     C 2530   1.557   9.683   0.905 -0.6223 -0.0293 -0.7315
  760MOL0     C 2531   1.628   9.770   0.983 -0.0028 -0.4255  0.2313
  760MOL0     C 2532   1.565   9.899   1.025  0.5469 -0.0131  0.0792
  760MOL0     H 2533   2.210   9.690   1.105 -2.6491 -0.6370  1.4212
  760MOL0     H 2534   2.433   9.791   1.204  0.7833  3.1018  0.4094
  760MOL0     H 2535   2.386  10.145   1.464  0.0569 -0.7853  0.7842
  760MOL0     H 2536   2.352  10.013   1.577 -1.5048  0.8639 -0.2075
  760MOL0     H 2537   2.575  10.170   1.611  0.1284 -0.1118 -0.1989
  760MOL0     H 2538   2.626  10.090   1.467  1.0785  0.6609  0.1135
  760MOL0     H 2539   2.722   9.970   1.643  1.1399 -2.4307 -5.0088
  760MOL0     H 2540   2.598   9.865   1.585 -0.8996  1.2182  0.7857
  760MOL0     H 2541   2.566  10.043   1.829  3.4072 -0.0134 -0.6320
  760MOL0     H 2542   2.451   9.906   1.776  0.8473 -1.7060 -1.5243
  760MOL0     H 2543   2.687   9.785   1.789 -0.8959  0.2303 -0.4106
  760MOL0     H 2544   2.733   9.917   1.893 -0.8046 -0.0203  1.2624
  760MOL0     H 2545   2.674   9.750   2.043 -1.6332  1.1895  2.6275
  760MOL0     H 2546   2.579   9.881   2.061  4.4628 -1.0678  2.6389
  760MOL0     H 2547   2.479   9.635   1.911 -1.9617 -0.8871  0.7178
  760MOL0     H 2548   2.377   9.763   1.953 -0.9729 -3.2743 -0.5546
  760MOL0     H 2549   2.402   9.731   2.191 -5.0114 -0.6904 -1.2009
  760MOL0     H 2550   2.331   9.598   2.117  1.0250 -3.4927 -0.8100
  760MOL0     H 2551   2.520   9.400   2.034  0.7809 -1.1860 -0.3317
  760MOL0     H 2552   2.674   9.186   2.261  2.6186  0.8477  3.2866
  760MOL0     H 2553   2.694   9.222   2.089  2.6295  0.2641 -0.9481
  760MOL0     H 2554   2.895   9.290   2.315 -0.7183 -0.7345  1.0725
  760MOL0     H 2555   2.894   9.137   2.225  1.3364  0.2235 -0.8047
  760MOL0     H 2556   2.946   9.412   2.129  0.2335 -0.3282  3.1188
  760MOL0     H 2557   2.925   9.282   2.008 -1.1572  1.6464  0.9765
  760MOL0     H 2558   3.152   9.337   2.038 -1.0835 -0.0642 -0.4728
  760MOL0     H 2559   3.126   9.178   2.098 -1.5713 -0.3448 -0.2825
  760MOL0     H 2560   3.278   9.490   2.401 -0.4959  0.6910 -1.4401
  760MOL0     H 2561   3.531   9.523   2.427 -0.3390 -0.0941  0.9939
  760MOL0     H 2562   3.922   9.357   2.493 -2.8855 -0.1220 -2.8723
  760MOL0     H 2563   4.194   9.393   2.495 -0.3304  1.3831  1.9910
  760MOL0     H 2564   4.337   9.669   2.207 -0.6114 -0.8223  0.2844
  760MOL0     H 2565   4.337   9.780   2.351 -0.7585 -0.1578  0.5133
  760MOL0     H 2566   4.565   9.713   2.421 -0.2291  0.2956 -0.5289
  760MOL0     H 2567   4.555   9.563   2.333  1.8974  0.3792 -3.5206
  760MOL0     H 2568   4.573   9.692   2.122  1.2747  3.1032 -1.5517
  760MOL0     H 2569   4.573   9.839   2.229 -1.4814 -0.0606  1.6923
  760MOL0     H 2570   4.780   9.608   2.238  0.5931  0.0872  2.3029
  760MOL0     H 2571   4.789   9.751   2.334 -1.5201  3.6141 -1.7958
  760MOL0     H 2572   4.802   9.892   2.104  1.1252  0.9625  1.0848
  760MOL0     H 2573   4.797   9.746   2.021 -0.0090 -3.1424  1.3424
  760MOL0     H 2574   4.987   9.835   2.244 -1.5206  0.5065  0.0983
  760MOL0     H 2575   5.007   9.677   2.151  0.0773 -1.0168 -0.0546
  760MOL0     H 2576   5.035   9.968   2.066 -3.2797 -0.2214 -0.4607
  760MOL0     H 2577   5.017   9.838   1.947  0.2396  0.5812  0.0741
  760MOL0     H 2578   5.260   9.841   2.130  1.7815 -0.1627 -0.0753
  760MOL0     H 2579   5.241   9.738   1.985 -0.6742  0.8569 -1.3989
  760MOL0     H 2580   4.107   9.756   2.291 -5.2125  1.7184 -0.3009
  760MOL0     H 2581   3.887   9.723   2.283  1.2480  1.0785 -0.6911
  760MOL0     H 2582   3.578   9.264   2.076  0.1240 -0.8967  0.3755
  760MOL0     H 2583   3.346   9.241   2.069 -1.6059 -0.1051 -0.0261
  760MOL0     H 2584   2.177  10.047   1.433  1.9666  0.1388  0.3219
  760MOL0     H 2585   1.989   9.982   1.312 -1.8739 -3.8042  1.0848
  760MOL0     H 2586   1.913   9.578   1.019 -0.4841 -0.3359  1.9052
  760MOL0     H 2587   1.784   9.421   0.915 -0.4587 -0.5814 -2.5057
  760MOL0     H 2588   1.367   9.417   0.901  1.6349  2.2315 -0.0418
  760MOL0     H 2589   1.516   9.365   0.975 -3.0915 -1.2764  1.2429
  760MOL0     H 2590   1.518   9.220   0.730  1.0840 -0.3548  0.0158
  760MOL0     H 2591   1.346   9.230   0.776 -0.9995  1.9917  0.9972
  760MOL0     H 2592   1.396   9.127   0.998 -0.6645  1.8223 -0.9409
  760MOL0     H 2593   1.564   9.174   0.994 -0.5853  1.2671  0.1925
  760MOL0     H 2594   1.433   8.965   0.832  0.3467 -1.8775  0.9521
  760MOL0     H 2595   1.608   8.997   0.833  1.6764 -0.8555  1.4917
  760MOL0     H 2596   1.553   8.768   1.199 -0.6548  3.2934  0.9496
  760MOL0     H 2597   1.455   9.706   0.876 -0.9218  3.0238  2.2001
  760MOL0     H 2598   1.606   9.985   0.973  0.5396 -0.2906 -0.3903
  760MOL0     H 2599   1.461   9.888   0.992  0.8138 -0.5946 -0.5982
  760MOL0     H 2600   1.565   9.912   1.134  3.1771 -1.5195  0.3457
  761MOL0     O 2601   3.773   8.902  10.790 -0.7335 -0.1583 -1.2390
  761MOL0     C 2602   3.758   8.783  10.825  0.1717 -0.2314  0.4813
  761MOL0     O 2603   3.844   8.681  10.824 -0.7414 -0.5038  0.0170
  761MOL0     C 2604   3.956   8.690  10.750  0.0545  0.0071 -0.7515
  761MOL0     C 2605   3.962   8.744  10.620  0.6632  0.8276  0.6892
  761MOL0     C 2606   4.085   8.748  10.550 -0.0074 -0.6748  0.2626
  761MOL0     C 2607   4.199   8.699  10.605 -0.4026 -0.1282  0.0498
  761MOL0     O 2608   4.323   8.714  10.535  0.4178 -0.7098 -0.8318
  761MOL0     C 2609   4.423   8.615  10.556 -0.4065  0.6271  1.1360
  761MOL0     C 2610   4.538   8.640  10.462  0.1542 -0.2508 -0.1156
  761MOL0     C 2611   4.497   8.648  10.313  0.0933 -0.4857  0.5151
  761MOL0     C 2612   4.600   8.726  10.229  0.0744  0.5044 -0.2330
  761MOL0     C 2613   4.608   8.672  10.089 -1.3379 -0.5302  0.4416
  761MOL0     C 2614   4.722   8.741  10.004 -0.1828  0.2784  0.6168
  761MOL0     C 2615   4.726   8.687   9.862 -0.4343  0.0105 -0.6201
  761MOL0     C 2616   4.845   8.743   9.769 -0.6370 -0.7403  0.0371
  761MOL0     N 2617   4.844   8.691   9.629 -0.9673 -0.1841 -0.0848
  761MOL0     C 2618   4.900   8.574   9.585 -0.2564  0.3655 -0.0348
  761MOL0     C 2619   4.897   8.573   9.453  0.8598  0.2221  0.5496
  761MOL0     C 2620   4.951   8.472   9.352  0.6578 -0.4120 -0.0608
  761MOL0     C 2621   5.076   8.536   9.291  1.3371  0.2330  1.3588
  761MOL0     C 2622   5.140   8.463   9.170  0.0182  0.9793 -0.1938
  761MOL0     C 2623   5.269   8.518   9.118  0.4894  0.0878 -0.1725
  761MOL0     O 2624   5.337   8.423   9.038 -0.7308 -0.0615 -0.0993
  761MOL0     C 2625   5.440   8.476   8.958  0.8454 -0.0550  0.1243
  761MOL0     C 2626   5.526   8.577   9.001 -0.5076  0.1058  0.1085
  761MOL0     C 2627   5.627   8.622   8.916  0.2204  0.1263 -0.3897
  761MOL0     C 2628   5.652   8.564   8.793  0.0948  1.0438 -0.0815
  761MOL0     C 2629   5.757   8.604   8.699 -1.1324 -0.0032 -0.2647
  761MOL0     O 2630   5.793   8.732   8.719  0.0753 -0.5286  0.3640
  761MOL0     C 2631   5.898   8.792   8.658  0.0611  1.4953  0.4830
  761MOL0     C 2632   5.989   8.850   8.743 -0.6635  1.1635 -0.3616
  761MOL0     C 2633   6.103   8.920   8.695 -0.5727 -0.9361 -0.8438
  761MOL0     C 2634   6.139   8.916   8.563 -0.4200 -0.2977 -0.0517
  761MOL0     O 2635   6.258   8.987   8.536  0.5004  1.0371 -0.0972
  761MOL0     C 2636   6.338   8.936   8.440 -1.5642  0.3382  0.5980
  761MOL0     C 2637   6.468   8.914   8.510 -0.3234  0.0843  0.3460
  761MOL0     C 2638   6.586   8.879   8.420 -0.4059  0.2408  1.1036
  761MOL0     C 2639   6.709   8.932   8.490 -0.6877 -0.5748 -0.0634
  761MOL0     C 2640   6.836   8.894   8.411  0.6128  0.6999  0.1424
  761MOL0     C 2641   6.847   8.984   8.279  0.5045 -0.4949 -0.9355
  761MOL0     C 2642   6.974   8.960   8.199 -0.5775 -0.8449 -0.2100
  761MOL0     C 2643   7.112   8.998   8.258 -0.4414 -0.3075  0.6223
  761MOL0    Cl 2644   7.237   8.906   8.176 -0.2063 -0.3343 -0.5141
  761MOL0     C 2645   6.054   8.856   8.474  0.6187  0.0807 -0.5529
  761MOL0     C 2646   5.929   8.791   8.516  0.1766  0.9933  1.2407
  761MOL0     O 2647   5.819   8.528   8.627 -0.2496 -0.2412 -0.3271
  761MOL0     C 2648   5.569   8.457   8.752  0.5722  0.2576  0.0802
  761MOL0     C 2649   5.459   8.421   8.827  0.6273 -0.5997 -0.4443
  761MOL0     N 2650   4.843   8.700   9.414 -0.0950 -0.2654 -0.2099
  761MOL0     N 2651   4.805   8.767   9.521 -0.1045 -0.3398  0.4295
  761MOL0     C 2652   4.193   8.637  10.731  0.3685 -0.6682  0.6038
  761MOL0     C 2653   4.070   8.635  10.800 -0.9312  0.2402  0.0238
  761MOL0     C 2654   3.627   8.736  10.863  0.0857 -0.7912 -0.4522
  761MOL0     C 2655   3.619   8.637  10.970 -0.0502  0.0382  0.1540
  761MOL0     C 2656   3.502   8.612  11.039  0.0568  0.8238  0.0454
  761MOL0     C 2657   3.386   8.670  10.993  0.1550 -0.8788  0.2867
  761MOL0     O 2658   3.264   8.646  11.048  0.1317 -0.0135 -0.3236
  761MOL0     C 2659   3.221   8.735  11.144  0.0793  0.0647 -0.6304
  761MOL0     C 2660   3.271   8.697  11.281 -0.0178 -0.2569  0.2185
  761MOL0     C 2661   3.229   8.560  11.348 -0.9175  0.3220  1.0015
  761MOL0     C 2662   3.282   8.433  11.279 -0.2456  0.8651 -0.1966
  761MOL0     C 2663   3.396   8.388  11.356  0.5880  0.3599  0.2859
  761MOL0     C 2664   3.498   8.351  11.407  0.8360 -0.5317 -0.5842
  761MOL0     C 2665   3.383   8.759  10.886 -1.1642  0.4498  0.0004
  761MOL0     C 2666   3.504   8.797  10.814 -0.4974  0.4089  0.6776
  761MOL0     C 2667   3.492   8.888  10.693 -0.0434  0.0464 -0.0556
  761MOL0     H 2668   3.869   8.774  10.573  1.0144 -1.9510 -2.1460
  761MOL0     H 2669   4.099   8.794  10.452 -0.7183 -1.2168 -0.0996
  761MOL0     H 2670   4.473   8.626  10.653  1.4855 -1.1533  0.4488
  761MOL0     H 2671   4.378   8.517  10.538 -0.2885  0.6302  0.8338
  761MOL0     H 2672   4.614   8.562  10.469  0.6340  0.2310 -0.0072
  761MOL0     H 2673   4.574   8.742  10.476 -0.3472 -0.0912  0.0557
  761MOL0     H 2674   4.400   8.699  10.312 -0.4660 -1.5048  1.3108
  761MOL0     H 2675   4.483   8.549  10.268 -0.0154  0.7827 -2.5453
  761MOL0     H 2676   4.563   8.829  10.222 -1.1765  0.1040  0.1659
  761MOL0     H 2677   4.696   8.728  10.282 -0.7806 -1.5648  1.5342
  761MOL0     H 2678   4.619   8.563  10.087  0.5083 -0.3723  0.1424
  761MOL0     H 2679   4.513   8.687  10.038 -1.2654 -0.8678  0.2052
  761MOL0     H 2680   4.709   8.850  10.008 -1.0960  0.1453  1.8019
  761MOL0     H 2681   4.820   8.725  10.050  0.0364 -0.1538  0.0117
  761MOL0     H 2682   4.633   8.723   9.818 -0.8701  1.7348  1.5428
  761MOL0     H 2683   4.739   8.579   9.868  0.5282 -0.0532 -2.7601
  761MOL0     H 2684   4.837   8.852   9.762 -1.0407 -0.8119 -0.7368
  761MOL0     H 2685   4.941   8.712   9.812 -0.6104 -0.1728  0.4013
  761MOL0     H 2686   4.929   8.493   9.650 -0.4744 -1.0370 -1.6201
  761MOL0     H 2687   4.971   8.372   9.391 -3.7007 -2.3510 -2.1057
  761MOL0     H 2688   4.883   8.451   9.270  1.4681 -0.8426 -0.6362
  761MOL0     H 2689   5.058   8.641   9.264 -0.2488 -0.3607 -0.1051
  761MOL0     H 2690   5.159   8.544   9.362  0.5851  0.1829  2.2592
  761MOL0     H 2691   5.068   8.456   9.088 -0.3777 -1.6921  0.2932
  761MOL0     H 2692   5.150   8.362   9.211  0.1874  3.0393  5.9250
  761MOL0     H 2693   5.341   8.535   9.199  0.1064 -0.4096  0.2794
  761MOL0     H 2694   5.259   8.614   9.067  1.6742 -0.7285 -2.0320
  761MOL0     H 2695   5.514   8.607   9.105  0.7623 -0.9366  0.5875
  761MOL0     H 2696   5.697   8.697   8.951  0.5721 -0.0896 -0.6276
  761MOL0     H 2697   5.970   8.850   8.850  3.2080  2.2251  0.4634
  761MOL0     H 2698   6.184   8.970   8.748  0.3088  2.1870 -4.6717
  761MOL0     H 2699   6.312   8.835   8.406  0.0767  0.1014 -0.0402
  761MOL0     H 2700   6.358   8.997   8.351  0.4650 -1.7744 -0.5184
  761MOL0     H 2701   6.493   9.000   8.573  0.0084 -0.1295  0.5129
  761MOL0     H 2702   6.460   8.833   8.583 -1.6085 -0.7518 -0.6741
  761MOL0     H 2703   6.582   8.770   8.417 -2.3056  0.3003 -0.1734
  761MOL0     H 2704   6.570   8.920   8.320  2.0725  0.7522  0.8552
  761MOL0     H 2705   6.708   8.896   8.593  0.8849  0.4073  0.3276
  761MOL0     H 2706   6.686   9.039   8.489 -2.1752 -0.8684 -2.0672
  761MOL0     H 2707   6.821   8.789   8.384 -1.3109  0.4703  1.8701
  761MOL0     H 2708   6.921   8.904   8.480  0.6613 -0.5800  0.2864
  761MOL0     H 2709   6.755   8.985   8.220 -0.3237 -0.3550  0.3408
  761MOL0     H 2710   6.866   9.080   8.327  0.2132 -1.0930  0.4271
  761MOL0     H 2711   6.964   9.013   8.103 -1.5924  2.3927  1.5466
  761MOL0     H 2712   6.962   8.853   8.181 -2.7358 -0.4488 -1.4174
  761MOL0     H 2713   7.136   9.103   8.239 -1.5405 -0.2879 -0.8444
  761MOL0     H 2714   7.111   8.962   8.361 -2.8321 -3.7958 -0.4447
  761MOL0     H 2715   6.072   8.868   8.367  0.1100  0.1553 -0.6348
  761MOL0     H 2716   5.849   8.764   8.448  0.6036 -0.5013  1.3053
  761MOL0     H 2717   5.580   8.396   8.662  0.1027  3.2211 -2.1509
  761MOL0     H 2718   5.395   8.343   8.786 -2.7260  1.0401  1.2368
  761MOL0     H 2719   4.279   8.588  10.774 -0.5011 -2.1576  0.7010
  761MOL0     H 2720   4.067   8.567  10.884 -1.1721 -0.2181 -0.3501
  761MOL0     H 2721   3.707   8.585  11.006  1.9330  2.9085 -0.1370
  761MOL0     H 2722   3.497   8.539  11.119  0.5941 -0.2978 -0.9042
  761MOL0     H 2723   3.111   8.730  11.147  0.1176 -1.2579 -0.8471
  761MOL0     H 2724   3.248   8.838  11.118  0.1842 -0.0709 -1.0581
  761MOL0     H 2725   3.231   8.773  11.349  0.6522  0.8893 -0.6384
  761MOL0     H 2726   3.380   8.698  11.269  0.3810  1.4619  2.9848
  761MOL0     H 2727   3.120   8.558  11.342 -0.9773  0.9387  1.6883
  761MOL0     H 2728   3.263   8.566  11.452 -1.9006 -0.4484  1.3710
  761MOL0     H 2729   3.210   8.350  11.285  1.9072 -1.0389  0.6893
  761MOL0     H 2730   3.304   8.443  11.173  2.2837  1.1696  0.2982
  761MOL0     H 2731   3.586   8.307  11.450  0.1171 -0.9585  0.5175
  761MOL0     H 2732   3.290   8.806  10.854 -1.7211 -1.3938 -1.3407
  761MOL0     H 2733   3.419   8.858  10.617  0.0595  1.7967 -0.8925
  761MOL0     H 2734   3.467   8.990  10.724  1.1937 -0.2246  2.0147
  761MOL0     H 2735   3.588   8.890  10.641  1.3258 -0.7986  2.2670
  762MOL0     O 2736   7.364   1.558   1.279  0.0980 -0.0703 -0.2909
  762MOL0     C 2737   7.319   1.674   1.270 -0.0262 -0.4851  0.0386
  762MOL0     O 2738   7.376   1.783   1.331  0.0647 -0.5948 -0.3164
  762MOL0     C 2739   7.511   1.780   1.378 -0.2076  0.6631  0.1772
  762MOL0     C 2740   7.609   1.688   1.339 -0.0520  0.2810 -0.8782
  762MOL0     C 2741   7.738   1.694   1.403  0.0573 -0.4393  0.3960
  762MOL0     C 2742   7.773   1.803   1.482  0.2037 -0.3783 -1.0508
  762MOL0     O 2743   7.897   1.828   1.541  0.4175  0.7024 -0.3365
  762MOL0     C 2744   7.994   1.718   1.543 -1.0544 -0.2620  0.7306
  762MOL0     C 2745   8.100   1.734   1.656 -0.3196  0.7641 -0.3320
  762MOL0     C 2746   8.231   1.669   1.629 -0.6029  0.2616  0.0591
  762MOL0     C 2747   8.327   1.676   1.752  0.1463  0.1428 -0.7426
  762MOL0     C 2748   8.467   1.611   1.719 -0.2114 -0.8164 -0.7402
  762MOL0     C 2749   8.575   1.689   1.791 -0.1122  0.4428  0.2393
  762MOL0     C 2750   8.720   1.643   1.757  0.6542 -0.3887 -0.4651
  762MOL0     C 2751   8.758   1.538   1.858  0.3631 -1.4520  0.5824
  762MOL0     N 2752   8.903   1.506   1.845  0.0958 -0.0062  0.0886
  762MOL0     C 2753   9.006   1.599   1.865  0.2267  0.2151 -0.3533
  762MOL0     C 2754   9.124   1.529   1.873 -0.2109  0.0181  0.5891
  762MOL0     C 2755   9.256   1.579   1.913  0.6479  0.4353  0.4890
  762MOL0     C 2756   9.368   1.476   1.895  0.2624  0.2622  0.1147
  762MOL0     C 2757   9.501   1.543   1.929 -0.2738  0.2177 -0.4651
  762MOL0     C 2758   9.621   1.458   1.892 -0.9894 -0.0244 -0.8953
  762MOL0     O 2759   9.630   1.440   1.753 -0.0722 -0.1764  0.1452
  762MOL0     C 2760   9.761   1.461   1.705  0.5679  0.4176 -0.8346
  762MOL0     C 2761   9.788   1.577   1.636  0.0682  0.7410  0.1794
  762MOL0     C 2762   9.906   1.582   1.566  0.2725 -0.0777  0.7724
  762MOL0     C 2763   9.999   1.475   1.554  0.2100 -0.7650 -0.3102
  762MOL0     C 2764  10.126   1.482   1.482 -0.7914  0.3837 -0.2966
  762MOL0     O 2765  10.164   1.610   1.438  0.2411  0.1732 -0.0547
  762MOL0     C 2766  10.289   1.635   1.398  0.0411 -0.2088  0.0936
  762MOL0     C 2767  10.336   1.568   1.286  0.1947 -0.6005 -0.5003
  762MOL0     C 2768  10.459   1.599   1.237  0.2326  0.6975 -0.3564
  762MOL0     C 2769  10.543   1.687   1.305  0.6708 -0.4751  0.9446
  762MOL0     O 2770  10.658   1.731   1.242 -0.0896 -0.6433 -1.0098
  762MOL0     C 2771  10.740   1.645   1.164  0.5884 -0.1986  0.3197
  762MOL0     C 2772  10.852   1.604   1.249 -0.0924 -0.7028  0.1253
  762MOL0     C 2773  10.940   1.716   1.270 -0.5389 -0.6889  0.5603
  762MOL0     C 2774  11.084   1.675   1.247  0.1015  0.3938  0.1269
  762MOL0     C 2775  11.179   1.785   1.262  0.1041  0.8763  0.4429
  762MOL0     C 2776  11.319   1.764   1.198 -0.2395 -0.4838  0.0709
  762MOL0     C 2777  11.389   1.634   1.245  0.4470  0.4304  0.2461
  762MOL0     C 2778  11.535   1.640   1.280  0.1562 -0.4253  0.0701
  762MOL0    Cl 2779  11.623   1.497   1.338  0.3525 -0.1762  0.3757
  762MOL0     C 2780  10.502   1.755   1.430 -0.6129  0.4909  0.5893
  762MOL0     C 2781  10.373   1.718   1.472 -0.3837 -0.0660 -0.0163
  762MOL0     O 2782  10.197   1.385   1.483 -0.8352 -0.7470  0.1434
  762MOL0     C 2783   9.959   1.352   1.614  0.1770 -0.4052  0.8677
  762MOL0     C 2784   9.845   1.348   1.699  0.7181 -0.7881  0.7446
  762MOL0     N 2785   9.085   1.398   1.855 -0.5576 -0.0507 -0.3730
  762MOL0     N 2786   8.957   1.381   1.845  0.2353  0.7745 -0.8266
  762MOL0     C 2787   7.670   1.901   1.502  0.0168  0.6972 -0.3948
  762MOL0     C 2788   7.547   1.886   1.455  0.1719 -0.6555  0.6625
  762MOL0     C 2789   7.175   1.699   1.217  0.7584 -0.2737  0.0531
  762MOL0     C 2790   7.111   1.820   1.237 -0.6964  0.3593 -0.0488
  762MOL0     C 2791   6.973   1.844   1.217 -0.1238 -0.5334 -1.1247
  762MOL0     C 2792   6.896   1.742   1.168 -0.0222 -0.0283 -0.3882
  762MOL0     O 2793   6.765   1.768   1.158  0.0349 -0.4528  0.4092
  762MOL0     C 2794   6.674   1.663   1.114 -0.5689  0.2389  0.6181
  762MOL0     C 2795   6.524   1.702   1.128 -0.0639  0.7531 -0.3826
  762MOL0     C 2796   6.433   1.594   1.059 -0.1720  0.2913  0.2394
  762MOL0     C 2797   6.357   1.504   1.156 -0.2269 -0.3249  0.5886
  762MOL0     C 2798   6.250   1.423   1.092  0.2382  0.0491  0.5555
  762MOL0     C 2799   6.168   1.351   1.035 -0.0046 -1.6752 -0.3745
  762MOL0     C 2800   6.957   1.620   1.138 -0.1775 -0.2683  0.4567
  762MOL0     C 2801   7.090   1.599   1.160 -0.5006 -0.4598 -0.7511
  762MOL0     C 2802   7.158   1.482   1.106 -0.6618 -0.4100 -0.5678
  762MOL0     H 2803   7.586   1.615   1.262 -1.3880 -0.2990  0.0426
  762MOL0     H 2804   7.815   1.624   1.372  1.4553  1.7256 -1.4567
  762MOL0     H 2805   7.942   1.624   1.530 -0.5088 -0.5514  0.5946
  762MOL0     H 2806   8.044   1.722   1.445  0.3871 -0.0079  1.4506
  762MOL0     H 2807   8.052   1.685   1.741 -0.6051  2.5055  0.5571
  762MOL0     H 2808   8.114   1.838   1.688  1.8512  0.2705  0.5176
  762MOL0     H 2809   8.290   1.702   1.543  0.6868 -1.0292  0.4232
  762MOL0     H 2810   8.210   1.564   1.605 -3.5251  1.0945 -1.6405
  762MOL0     H 2811   8.339   1.775   1.797  2.1423  0.2972 -1.4721
  762MOL0     H 2812   8.290   1.622   1.840 -0.8806 -0.9164 -1.7896
  762MOL0     H 2813   8.467   1.504   1.739  6.7565 -1.3237 -0.8513
  762MOL0     H 2814   8.486   1.624   1.612  0.9319  0.5251 -0.4110
  762MOL0     H 2815   8.551   1.795   1.774 -3.4589 -0.4097 -1.1907
  762MOL0     H 2816   8.563   1.685   1.900 -0.8923  1.3696  0.1993
  762MOL0     H 2817   8.788   1.728   1.749  0.0135  0.1085 -0.7274
  762MOL0     H 2818   8.721   1.609   1.653  4.5288  1.8599 -1.3687
  762MOL0     H 2819   8.749   1.558   1.965  2.6570 -1.2041  0.7768
  762MOL0     H 2820   8.698   1.448   1.839 -0.4331 -1.2178  1.8881
  762MOL0     H 2821   8.991   1.705   1.886  1.7583  0.0540  1.8483
  762MOL0     H 2822   9.277   1.667   1.852 -0.2101  0.4710  0.2253
  762MOL0     H 2823   9.250   1.614   2.016 -0.1428  0.6359  0.3828
  762MOL0     H 2824   9.350   1.381   1.946 -1.9584  1.7658  2.3780
  762MOL0     H 2825   9.365   1.441   1.791 -1.2736 -0.4387  0.3656
  762MOL0     H 2826   9.502   1.549   2.038  0.1932  0.2094 -0.4660
  762MOL0     H 2827   9.514   1.641   1.882 -3.5308  2.5765  3.0113
  762MOL0     H 2828   9.609   1.357   1.933 -2.5692  0.6126  0.2959
  762MOL0     H 2829   9.707   1.505   1.940 -2.1782  1.1365  0.1643
  762MOL0     H 2830   9.708   1.651   1.631 -0.5109  0.0276 -3.2097
  762MOL0     H 2831   9.934   1.681   1.530  6.6927 -0.9064  2.1782
  762MOL0     H 2832  10.270   1.499   1.234  0.6793 -2.0124  0.6845
  762MOL0     H 2833  10.499   1.547   1.151 -1.7948 -1.8305  0.1050
  762MOL0     H 2834  10.697   1.556   1.116  0.7476  0.1084 -0.4055
  762MOL0     H 2835  10.777   1.700   1.077 -0.0391  0.9493  0.7518
  762MOL0     H 2836  10.822   1.543   1.335  0.4067 -0.8189  0.2187
  762MOL0     H 2837  10.897   1.524   1.189 -1.4910 -1.8789  0.5753
  762MOL0     H 2838  10.924   1.802   1.204 -1.7797 -0.4620  1.1354
  762MOL0     H 2839  10.930   1.750   1.373  0.9838 -2.1384  1.2331
  762MOL0     H 2840  11.094   1.635   1.146  1.2586  0.6983  0.1131
  762MOL0     H 2841  11.105   1.600   1.324 -0.5500  1.8375  1.7914
  762MOL0     H 2842  11.189   1.793   1.371  0.7247 -0.1103  0.4714
  762MOL0     H 2843  11.135   1.878   1.226  0.5596  0.2896 -1.7227
  762MOL0     H 2844  11.310   1.764   1.089 -0.8195  1.0617  0.0863
  762MOL0     H 2845  11.387   1.846   1.223  1.9630 -1.9868 -0.7972
  762MOL0     H 2846  11.377   1.552   1.173 -0.2716 -1.7119  2.6631
  762MOL0     H 2847  11.330   1.601   1.331  0.3023  0.1988  0.0616
  762MOL0     H 2848  11.594   1.673   1.194 -0.9213  0.1652 -0.4567
  762MOL0     H 2849  11.559   1.717   1.354  0.7532 -2.3860  1.9933
  762MOL0     H 2850  10.556   1.834   1.480 -1.9119  1.2967  0.7577
  762MOL0     H 2851  10.334   1.766   1.562 -0.3209  2.2834 -1.1650
  762MOL0     H 2852  10.026   1.267   1.605  0.4465 -0.0034 -1.4850
  762MOL0     H 2853   9.819   1.250   1.738  2.4301 -1.7457 -0.3600
  762MOL0     H 2854   7.700   1.982   1.568  0.6482 -0.0790  0.2876
  762MOL0     H 2855   7.474   1.962   1.480  1.5486 -0.4194  4.6087
  762MOL0     H 2856   7.159   1.903   1.288 -2.2835  0.8684  0.6879
  762MOL0     H 2857   6.927   1.942   1.223  0.4917 -0.2119 -1.4859
  762MOL0     H 2858   6.691   1.576   1.177  1.2268  0.1608  0.1057
  762MOL0     H 2859   6.701   1.640   1.010  1.9249  0.7130  1.0819
  762MOL0     H 2860   6.513   1.799   1.077 -2.1859  1.5160  1.3757
  762MOL0     H 2861   6.491   1.718   1.230 -0.7405  5.1082 -1.0542
  762MOL0     H 2862   6.482   1.529   0.986 -1.1963  0.6184 -0.7671
  762MOL0     H 2863   6.355   1.647   1.005 -1.6220  1.2240  3.0481
  762MOL0     H 2864   6.429   1.433   1.196  0.2466 -0.1121  0.1278
  762MOL0     H 2865   6.304   1.560   1.233 -1.3659 -0.5314 -0.0211
  762MOL0     H 2866   6.098   1.284   0.989 -0.7286 -2.1230  1.3134
  762MOL0     H 2867   6.904   1.539   1.090  0.3875 -0.5748  0.3437
  762MOL0     H 2868   7.109   1.436   1.019 -0.6829 -0.7996 -0.3532
  762MOL0     H 2869   7.256   1.513   1.069  0.1695 -0.2690  1.6461
  762MOL0     H 2870   7.183   1.402   1.176 -1.4728 -1.6337 -1.6154
  763MOL0     O 2871   4.672   7.899   8.481 -0.0212  0.2721  0.0095
  763MOL0     C 2872   4.690   7.903   8.602  0.1090 -0.3801  0.2068
  763MOL0     O 2873   4.799   7.859   8.666  0.0739  0.2089 -0.1727
  763MOL0     C 2874   4.905   7.837   8.579 -0.0957  0.0796 -0.7423
  763MOL0     C 2875   4.902   7.737   8.487 -0.4535  0.2869  0.1366
  763MOL0     C 2876   5.020   7.706   8.409  1.2199 -0.5748 -1.0339
  763MOL0     C 2877   5.140   7.773   8.436 -0.3799  1.2092  0.0578
  763MOL0     O 2878   5.245   7.711   8.386 -0.0161  0.3006 -0.8450
  763MOL0     C 2879   5.368   7.771   8.383 -0.1405 -0.5846 -0.8433
  763MOL0     C 2880   5.475   7.701   8.312 -0.5393  0.3846  0.6082
  763MOL0     C 2881   5.614   7.760   8.367  0.0302 -0.2479  0.1302
  763MOL0     C 2882   5.738   7.708   8.285 -0.0810 -0.4675 -0.1584
  763MOL0     C 2883   5.868   7.789   8.282  0.4432  0.3316 -0.4723
  763MOL0     C 2884   5.981   7.742   8.182 -0.3597  0.3528 -0.5092
  763MOL0     C 2885   6.097   7.837   8.161 -0.8431 -0.3057 -0.4422
  763MOL0     C 2886   6.164   7.799   8.029  0.3580  0.4064 -0.0998
  763MOL0     N 2887   6.290   7.873   8.010  0.3309 -0.4054  0.4580
  763MOL0     C 2888   6.413   7.815   8.023  0.7148  0.4002  0.4386
  763MOL0     C 2889   6.498   7.927   8.027 -0.7291 -0.8014  0.7003
  763MOL0     C 2890   6.656   7.928   8.054  0.4569 -0.0948 -1.0554
  763MOL0     C 2891   6.706   8.068   8.067  0.1782 -0.4771 -0.2792
  763MOL0     C 2892   6.835   8.074   8.144  0.5871 -0.6001  0.6937
  763MOL0     C 2893   6.968   8.037   8.071  0.1416 -1.1395  0.2362
  763MOL0     O 2894   6.992   8.123   7.952  0.9033 -0.3161  0.0461
  763MOL0     C 2895   7.084   8.079   7.867 -0.1388 -0.0562  0.3924
  763MOL0     C 2896   7.163   7.966   7.871 -0.2720  1.0447  0.2943
  763MOL0     C 2897   7.252   7.939   7.773  0.4862 -0.2926  0.8011
  763MOL0     C 2898   7.263   8.021   7.662  0.7955  0.7141 -0.2022
  763MOL0     C 2899   7.372   7.984   7.555  0.2787 -0.3681  0.1750
  763MOL0     O 2900   7.448   8.083   7.491  0.4270 -0.3735  1.0615
  763MOL0     C 2901   7.547   8.066   7.400 -0.1482  1.3636  0.7613
  763MOL0     C 2902   7.520   8.037   7.270  0.7473 -0.2055 -0.4275
  763MOL0     C 2903   7.619   8.008   7.177 -0.1068  0.5754  0.0885
  763MOL0     C 2904   7.754   8.011   7.214 -0.4432 -0.1671 -0.4746
  763MOL0     O 2905   7.852   7.983   7.127  0.6472  0.4153  0.1566
  763MOL0     C 2906   7.827   7.994   6.987 -0.6636 -0.2524 -0.2012
  763MOL0     C 2907   7.939   7.936   6.901 -0.0340 -0.3053 -0.0846
  763MOL0     C 2908   7.986   7.791   6.953  0.2534 -0.0578 -0.8441
  763MOL0     C 2909   7.861   7.697   6.956  0.2560 -0.1792 -0.6616
  763MOL0     C 2910   7.895   7.549   6.963 -0.8075 -0.3042  0.3456
  763MOL0     C 2911   7.954   7.511   7.099  0.4947 -0.1197  0.0470
  763MOL0     C 2912   7.980   7.358   7.116 -0.0290 -0.6838 -0.0384
  763MOL0     C 2913   8.086   7.308   7.019  0.4542  0.7420 -0.1912
  763MOL0    Cl 2914   8.023   7.266   6.861 -0.1958  0.2354  0.3448
  763MOL0     C 2915   7.785   8.046   7.347 -0.7232 -0.4607  0.7320
  763MOL0     C 2916   7.682   8.065   7.438  0.0693 -0.1051 -0.2633
  763MOL0     O 2917   7.383   7.865   7.529 -0.0713  0.0973  0.6575
  763MOL0     C 2918   7.192   8.144   7.657  1.3407  0.1942  0.0120
  763MOL0     C 2919   7.096   8.165   7.758 -0.2945  0.4126  0.9824
  763MOL0     N 2920   6.414   8.039   8.017 -0.1302 -0.2725  0.1664
  763MOL0     N 2921   6.295   8.008   7.991  0.9947  0.0308 -0.2238
  763MOL0     C 2922   5.137   7.884   8.526  0.1622  0.6253  0.0623
  763MOL0     C 2923   5.020   7.918   8.598  0.1609 -0.1023  0.1417
  763MOL0     C 2924   4.574   7.943   8.689  0.0778 -0.5358  0.1099
  763MOL0     C 2925   4.603   8.028   8.794  0.0363  0.1567 -0.6547
  763MOL0     C 2926   4.504   8.043   8.888  0.0891  0.5249 -0.6747
  763MOL0     C 2927   4.373   7.994   8.871  0.2343  0.6496  0.2761
  763MOL0     O 2928   4.277   8.000   8.969 -0.0530  0.2676  0.7608
  763MOL0     C 2929   4.252   8.125   9.038 -0.4577  0.6338  0.0245
  763MOL0     C 2930   4.110   8.132   9.076  0.6209 -0.4595 -0.4136
  763MOL0     C 2931   4.050   8.006   9.151  0.5352 -0.5530 -0.3407
  763MOL0     C 2932   4.119   7.974   9.285  1.2361  1.2034  0.7751
  763MOL0     C 2933   4.111   7.828   9.315 -0.6642 -0.1073 -0.0482
  763MOL0     C 2934   4.115   7.707   9.332  0.4282  0.2936 -0.4668
  763MOL0     C 2935   4.345   7.927   8.754  0.0789 -0.3819  0.3658
  763MOL0     C 2936   4.440   7.892   8.662 -0.1423 -0.0582  0.7404
  763MOL0     C 2937   4.396   7.819   8.538 -0.1820 -0.5816  0.3599
  763MOL0     H 2938   4.814   7.674   8.476 -0.9169  0.8048  0.7652
  763MOL0     H 2939   5.026   7.624   8.339 -1.7223 -1.2950 -0.5820
  763MOL0     H 2940   5.346   7.870   8.340  1.1614  0.3432  0.5185
  763MOL0     H 2941   5.401   7.784   8.486 -0.5919 -0.0478 -0.7586
  763MOL0     H 2942   5.465   7.704   8.203 -0.3173  1.7686  0.6001
  763MOL0     H 2943   5.472   7.596   8.342  1.2545 -0.0504 -0.5412
  763MOL0     H 2944   5.611   7.741   8.475 -1.1104  0.7158  0.2909
  763MOL0     H 2945   5.601   7.867   8.351  0.2839 -0.0351  1.2136
  763MOL0     H 2946   5.758   7.608   8.326 -1.4464  0.3264  2.6799
  763MOL0     H 2947   5.708   7.687   8.182 -0.5915 -1.9406  0.2649
  763MOL0     H 2948   5.837   7.889   8.252 -3.4076 -0.9683 -1.3392
  763MOL0     H 2949   5.896   7.789   8.388 -0.4307 -0.5455 -0.2258
  763MOL0     H 2950   6.027   7.648   8.214 -0.2840  0.6767  0.3830
  763MOL0     H 2951   5.929   7.728   8.088 -3.0462 -0.0688  0.9479
  763MOL0     H 2952   6.174   7.837   8.238 -0.4334 -0.9657 -0.8418
  763MOL0     H 2953   6.053   7.937   8.165 -2.4089 -1.0199  1.6430
  763MOL0     H 2954   6.179   7.691   8.035  0.3450  0.3775 -0.5315
  763MOL0     H 2955   6.088   7.822   7.954  0.6855 -1.5991 -1.1114
  763MOL0     H 2956   6.449   7.716   8.047 -0.8161 -0.0940  0.8704
  763MOL0     H 2957   6.662   7.884   8.154 -1.9124  0.5509 -0.5658
  763MOL0     H 2958   6.714   7.874   7.979  0.2939  0.0557 -1.2937
  763MOL0     H 2959   6.708   8.113   7.967 -0.4717  1.4187  0.4977
  763MOL0     H 2960   6.645   8.129   8.133  3.4739  3.3819 -0.3812
  763MOL0     H 2961   6.827   8.012   8.233 -3.0097 -1.6375 -0.1695
  763MOL0     H 2962   6.844   8.176   8.183  0.5072 -0.2398 -0.2088
  763MOL0     H 2963   6.964   7.931   8.045  0.9828 -0.9004 -0.9992
  763MOL0     H 2964   7.059   8.043   8.130  1.7939 -1.4469 -2.1262
  763MOL0     H 2965   7.171   7.896   7.953  2.2055  2.0276  1.0151
  763MOL0     H 2966   7.319   7.853   7.773  0.2432 -0.4916  0.1824
  763MOL0     H 2967   7.415   8.030   7.242  0.6764 -0.1566 -0.1791
  763MOL0     H 2968   7.581   7.984   7.078 -0.6316 -0.5337  0.5395
  763MOL0     H 2969   7.743   7.935   6.952  0.4167 -0.5443 -2.4782
  763MOL0     H 2970   7.808   8.100   6.967 -3.4243 -0.9389 -1.6112
  763MOL0     H 2971   7.901   7.934   6.799 -0.1504  1.7680 -0.1197
  763MOL0     H 2972   8.027   8.001   6.901  0.6982 -1.2005  2.4541
  763MOL0     H 2973   8.058   7.758   6.878  1.2112  2.4624 -1.1617
  763MOL0     H 2974   8.027   7.787   7.054 -3.2799 -0.8860  0.7040
  763MOL0     H 2975   7.801   7.713   6.865  0.3363  1.3638 -0.4698
  763MOL0     H 2976   7.786   7.725   7.031  1.8327  1.0363  0.5400
  763MOL0     H 2977   7.964   7.519   6.884 -1.5038  1.0329 -0.8225
  763MOL0     H 2978   7.797   7.504   6.944 -1.1284 -0.3573  2.0055
  763MOL0     H 2979   8.053   7.558   7.100 -0.1030  1.1841  1.1790
  763MOL0     H 2980   7.889   7.544   7.181  1.1810 -0.0772  0.5854
  763MOL0     H 2981   7.889   7.301   7.096 -0.5975 -0.4615  1.6719
  763MOL0     H 2982   8.017   7.341   7.218  0.4790 -0.8223 -0.2483
  763MOL0     H 2983   8.171   7.376   7.010  2.2715 -1.2827  0.5838
  763MOL0     H 2984   8.128   7.216   7.061  1.9093 -0.8318 -4.5744
  763MOL0     H 2985   7.888   8.057   7.379 -0.7312  1.5682  0.1706
  763MOL0     H 2986   7.690   8.101   7.540 -0.1961  1.5953 -0.8052
  763MOL0     H 2987   7.191   8.200   7.565 -0.3525 -1.6742 -1.2043
  763MOL0     H 2988   7.031   8.251   7.746  0.6629  1.4765  2.9021
  763MOL0     H 2989   5.233   7.930   8.550  0.3394  0.7736 -0.9050
  763MOL0     H 2990   5.025   7.986   8.682 -1.0352  0.6065 -0.3439
  763MOL0     H 2991   4.700   8.075   8.808  0.3532 -0.7422  0.2542
  763MOL0     H 2992   4.530   8.087   8.984  0.1668 -2.5938  0.8635
  763MOL0     H 2993   4.287   8.214   8.985 -0.2952  0.4307 -0.2123
  763MOL0     H 2994   4.312   8.121   9.129 -1.2117 -1.8532  0.4880
  763MOL0     H 2995   4.055   8.144   8.982  0.4891 -0.5975 -0.3564
  763MOL0     H 2996   4.091   8.225   9.129 -0.5852 -0.9361  0.0452
  763MOL0     H 2997   4.075   7.922   9.086  0.8613  0.0525 -1.0105
  763MOL0     H 2998   3.942   8.022   9.160  0.7138 -0.6300  5.0501
  763MOL0     H 2999   4.222   8.009   9.283  2.2716 -1.6533 -0.0285
  763MOL0     H 3000   4.073   8.037   9.362 -1.6085  1.6524 -1.1128
  763MOL0     H 3001   4.124   7.605   9.362  1.4888  0.0454 -1.5565
  763MOL0     H 3002   4.242   7.891   8.746  0.5793 -1.5505 -1.4895
  763MOL0     H 3003   4.365   7.883   8.455  1.2797  0.0624  0.2756
  763MOL0     H 3004   4.476   7.756   8.497  1.6124  2.9909 -2.2581
  763MOL0     H 3005   4.309   7.759   8.564  0.8661 -1.3349  2.3911
  764MOL0     O 3006  10.411   6.164   9.334 -0.3658 -0.0973  0.1399
  764MOL0     C 3007  10.437   6.277   9.380  0.1712  0.4375 -0.5921
  764MOL0     O 3008  10.365   6.394   9.359  0.1556 -0.5388 -0.8671
  764MOL0     C 3009  10.270   6.391   9.261  0.1534 -0.0195 -0.3745
  764MOL0     C 3010  10.156   6.316   9.287 -0.1681  0.5031 -0.1376
  764MOL0     C 3011  10.056   6.296   9.197  0.1526  0.4341  0.7828
  764MOL0     C 3012  10.070   6.353   9.073  0.5044  0.3732  0.6488
  764MOL0     O 3013   9.967   6.334   8.992  0.2290  0.2895 -0.0255
  764MOL0     C 3014   9.990   6.338   8.850  0.0600  0.1383  0.3463
  764MOL0     C 3015   9.879   6.283   8.761 -0.9228 -0.1900  1.0935
  764MOL0     C 3016   9.754   6.375   8.754 -0.6623  0.0952  0.2969
  764MOL0     C 3017   9.649   6.314   8.655 -0.0948 -0.5376  0.7203
  764MOL0     C 3018   9.516   6.390   8.643 -0.4677 -0.2934  0.7852
  764MOL0     C 3019   9.425   6.330   8.531 -0.8487 -0.3214 -0.4661
  764MOL0     C 3020   9.289   6.401   8.511 -0.4201 -0.1961 -0.4150
  764MOL0     C 3021   9.181   6.351   8.607 -0.0732  0.3260 -0.1930
  764MOL0     N 3022   9.204   6.391   8.752 -0.3590  0.0648  0.5561
  764MOL0     C 3023   9.224   6.520   8.795 -0.6297  0.5267 -0.1368
  764MOL0     C 3024   9.285   6.511   8.910 -0.3299 -0.0497 -0.3646
  764MOL0     C 3025   9.318   6.636   8.992  0.0670 -0.1833 -0.2345
  764MOL0     C 3026   9.447   6.614   9.074 -0.9737  0.5240  0.2369
  764MOL0     C 3027   9.570   6.621   8.976  0.0170 -0.5934 -0.1623
  764MOL0     C 3028   9.705   6.619   9.042 -0.3683  0.8870  0.3198
  764MOL0     O 3029   9.711   6.729   9.137 -0.6041  0.5588 -0.7527
  764MOL0     C 3030   9.830   6.745   9.200 -1.2116 -0.6266  0.3689
  764MOL0     C 3031   9.940   6.665   9.205 -0.4122 -0.4808  0.2605
  764MOL0     C 3032  10.057   6.702   9.276  0.3458  0.7210  0.8157
  764MOL0     C 3033  10.052   6.814   9.360 -0.7736  0.0679 -0.0081
  764MOL0     C 3034  10.172   6.863   9.436 -0.7437  0.2809  0.8285
  764MOL0     O 3035  10.287   6.815   9.391 -0.2337  0.2546  0.1340
  764MOL0     C 3036  10.400   6.867   9.453  0.0509  0.4809 -0.0270
  764MOL0     C 3037  10.501   6.923   9.375  0.2702  0.9721  0.2646
  764MOL0     C 3038  10.616   6.977   9.429 -0.1723  0.0830  0.0582
  764MOL0     C 3039  10.625   6.971   9.567  0.6844  0.4139 -0.3973
  764MOL0     O 3040  10.735   7.040   9.618 -0.7569  0.0708 -0.0551
  764MOL0     C 3041  10.693   7.154   9.698  0.5794 -0.5804  0.9272
  764MOL0     C 3042  10.795   7.183   9.812  0.1318  0.0042 -0.9368
  764MOL0     C 3043  10.938   7.203   9.760 -0.1465  0.3907 -0.2136
  764MOL0     C 3044  11.018   7.297   9.851  0.5656 -0.1612 -0.5282
  764MOL0     C 3045  11.152   7.336   9.788 -0.6211  0.1233  0.6633
  764MOL0     C 3046  11.249   7.410   9.875  0.1431  0.2067 -0.0698
  764MOL0     C 3047  11.358   7.472   9.791 -0.3092 -0.0457 -0.2876
  764MOL0     C 3048  11.494   7.484   9.861 -0.2590 -0.5643  0.1771
  764MOL0    Cl 3049  11.605   7.563   9.740 -0.5678  0.0361 -0.1605
  764MOL0     C 3050  10.543   6.900   9.653 -0.4653 -1.3502  0.0287
  764MOL0     C 3051  10.428   6.848   9.595  0.1669 -0.3046 -0.0873
  764MOL0     O 3052  10.150   6.952   9.516  0.5427 -0.6246  0.4644
  764MOL0     C 3053   9.931   6.892   9.362  0.0078  0.1796 -0.3632
  764MOL0     C 3054   9.816   6.852   9.290 -0.3351  0.1643 -0.0604
  764MOL0     N 3055   9.297   6.379   8.946  0.0747  0.1170 -0.0255
  764MOL0     N 3056   9.252   6.309   8.846 -0.0045  0.3453 -0.2687
  764MOL0     C 3057  10.179   6.437   9.039 -0.9021 -0.4098  0.7246
  764MOL0     C 3058  10.280   6.452   9.136 -0.0047 -0.1956 -0.5468
  764MOL0     C 3059  10.559   6.282   9.470  0.5276 -0.3908  0.0715
  764MOL0     C 3060  10.629   6.166   9.478 -0.7841 -0.7270 -1.0088
  764MOL0     C 3061  10.747   6.166   9.545  0.1390  0.0105  0.7900
  764MOL0     C 3062  10.792   6.269   9.626 -0.1080 -0.0869  0.1276
  764MOL0     O 3063  10.910   6.260   9.684 -0.1646  0.3832 -0.1205
  764MOL0     C 3064  11.010   6.306   9.586  0.4475 -0.4971  0.4824
  764MOL0     C 3065  11.159   6.275   9.612 -0.4131 -0.3250 -1.0893
  764MOL0     C 3066  11.211   6.320   9.749 -0.0997  0.7382 -0.3449
  764MOL0     C 3067  11.202   6.473   9.766 -0.2779  0.1291 -0.0986
  764MOL0     C 3068  11.296   6.553   9.683  0.8167 -0.4469 -0.0176
  764MOL0     C 3069  11.381   6.621   9.628  0.2612  0.1737 -0.5694
  764MOL0     C 3070  10.721   6.387   9.613 -0.5207 -0.1312  0.2137
  764MOL0     C 3071  10.611   6.396   9.537 -0.3918  1.1765 -0.1065
  764MOL0     C 3072  10.551   6.540   9.517  0.2647  0.6737  0.0988
  764MOL0     H 3073  10.172   6.263   9.381  1.1843  5.1974  2.5918
  764MOL0     H 3074   9.973   6.228   9.214 -1.1346  1.2955 -1.5386
  764MOL0     H 3075  10.010   6.440   8.815  0.1162 -0.1855 -0.6171
  764MOL0     H 3076  10.081   6.284   8.823  1.1121  2.0096 -0.0770
  764MOL0     H 3077   9.857   6.182   8.797 -2.2484  0.4067  2.0623
  764MOL0     H 3078   9.914   6.274   8.658  0.1704 -1.7518  1.5703
  764MOL0     H 3079   9.777   6.478   8.725  0.9289 -0.6215 -1.1554
  764MOL0     H 3080   9.717   6.366   8.857  0.6085 -0.1316  0.7473
  764MOL0     H 3081   9.700   6.320   8.558 -0.5553 -1.8383  0.3753
  764MOL0     H 3082   9.630   6.206   8.663  4.4275 -2.2281 -4.5530
  764MOL0     H 3083   9.457   6.376   8.734 -1.4897  1.6572  0.4555
  764MOL0     H 3084   9.531   6.497   8.626 -4.1079 -0.1760 -2.9490
  764MOL0     H 3085   9.491   6.332   8.444 -1.7198 -0.1069 -1.1311
  764MOL0     H 3086   9.398   6.225   8.546 -2.3766 -0.1061 -1.4510
  764MOL0     H 3087   9.273   6.381   8.405  2.1789 -2.1529 -0.5241
  764MOL0     H 3088   9.305   6.507   8.534  1.8190 -0.3346 -1.0844
  764MOL0     H 3089   9.086   6.389   8.569 -0.9760 -1.2666  0.3826
  764MOL0     H 3090   9.172   6.242   8.605 -1.1338  0.4176 -1.7849
  764MOL0     H 3091   9.198   6.616   8.751  3.1136  2.6236  1.7362
  764MOL0     H 3092   9.329   6.730   8.938  1.2340  0.4804  1.1073
  764MOL0     H 3093   9.242   6.647   9.070  0.1460  2.6196 -0.4676
  764MOL0     H 3094   9.452   6.693   9.151  0.3797  1.6733 -0.9610
  764MOL0     H 3095   9.448   6.518   9.127 -3.0635  0.6619  0.6191
  764MOL0     H 3096   9.566   6.716   8.923 -1.1219  1.1740  2.8594
  764MOL0     H 3097   9.559   6.538   8.905 -1.6812 -0.9489  0.4748
  764MOL0     H 3098   9.778   6.599   8.962 -0.9567  1.5856 -0.4051
  764MOL0     H 3099   9.711   6.522   9.094 -0.0296 -0.1255 -1.5054
  764MOL0     H 3100   9.957   6.582   9.137  1.5131 -0.3220  0.4857
  764MOL0     H 3101  10.152   6.648   9.276  0.8246  1.5495  0.9012
  764MOL0     H 3102  10.504   6.921   9.266  0.9517  3.4473  0.1935
  764MOL0     H 3103  10.688   7.037   9.374 -1.1636  1.0428 -0.2403
  764MOL0     H 3104  10.685   7.239   9.630 -0.2744  1.8714  3.8805
  764MOL0     H 3105  10.598   7.143   9.751 -0.0126  1.6313  0.4280
  764MOL0     H 3106  10.766   7.264   9.879 -2.3288 -1.3516 -0.2141
  764MOL0     H 3107  10.797   7.092   9.872  3.7152 -2.1970 -3.9612
  764MOL0     H 3108  11.006   7.117   9.758 -0.1126  0.4163 -0.1790
  764MOL0     H 3109  10.939   7.252   9.662 -0.2350  0.1901 -0.3134
  764MOL0     H 3110  11.041   7.250   9.948 -0.6745  0.3094  0.0127
  764MOL0     H 3111  10.966   7.392   9.864  1.0890  0.0131  0.3652
  764MOL0     H 3112  11.127   7.398   9.702  0.2521 -1.1797 -0.5785
  764MOL0     H 3113  11.185   7.247   9.733 -1.9602  1.1487 -2.0002
  764MOL0     H 3114  11.193   7.484   9.932 -3.7978 -2.5639  0.0936
  764MOL0     H 3115  11.310   7.344   9.938 -0.2954  1.2104  1.4681
  764MOL0     H 3116  11.314   7.566   9.756 -0.3713 -0.9383 -2.8492
  764MOL0     H 3117  11.368   7.409   9.702 -0.6559  0.3367 -0.6002
  764MOL0     H 3118  11.488   7.544   9.953 -0.9206  0.3878 -0.4743
  764MOL0     H 3119  11.528   7.382   9.882  0.5972 -0.5419 -0.9890
  764MOL0     H 3120  10.557   6.894   9.760 -3.7476 -1.4899  0.5478
  764MOL0     H 3121  10.357   6.802   9.663  0.8273 -2.8416 -1.0002
  764MOL0     H 3122   9.935   6.973   9.434  0.3162 -0.4378  0.3160
  764MOL0     H 3123   9.719   6.900   9.299 -0.3217  0.1217  0.3461
  764MOL0     H 3124  10.179   6.488   8.943  2.0788 -0.0609  0.8288
  764MOL0     H 3125  10.367   6.513   9.113  0.8030 -1.2285 -0.3258
  764MOL0     H 3126  10.595   6.071   9.439 -1.7196 -1.2641  0.9631
  764MOL0     H 3127  10.804   6.074   9.542  0.4590  0.2258 -0.2714
  764MOL0     H 3128  10.989   6.413   9.575  0.3835 -0.4464  1.0632
  764MOL0     H 3129  10.990   6.263   9.487  0.9487 -0.6819  0.4566
  764MOL0     H 3130  11.226   6.322   9.540  2.2012 -3.3516 -0.8538
  764MOL0     H 3131  11.162   6.166   9.608  0.3474 -0.4014  0.6731
  764MOL0     H 3132  11.315   6.293   9.766 -0.0355  1.0784 -0.2088
  764MOL0     H 3133  11.146   6.268   9.820  1.2879  0.8569  1.0432
  764MOL0     H 3134  11.100   6.508   9.750 -0.5143 -0.1764  0.7059
  764MOL0     H 3135  11.224   6.486   9.872 -0.1933 -0.5541 -0.0273
  764MOL0     H 3136  11.457   6.691   9.599  1.2375 -1.3554 -1.8394
  764MOL0     H 3137  10.767   6.472   9.661  1.6693  0.2924 -2.3435
  764MOL0     H 3138  10.552   6.586   9.418  1.5906 -0.5250 -0.4818
  764MOL0     H 3139  10.449   6.517   9.552  0.1328 -0.3229 -0.8831
  764MOL0     H 3140  10.602   6.602   9.591  1.4968  1.7973 -1.6278
  765MOL0     O 3141   9.700   3.947   5.384 -0.0149  0.2890  0.6492
  765MOL0     C 3142   9.592   3.903   5.425 -0.3390 -0.3619 -0.6077
  765MOL0     O 3143   9.566   3.775   5.461 -0.5574  0.3756  0.0703
  765MOL0     C 3144   9.675   3.691   5.484  0.5849  0.6318  0.2731
  765MOL0     C 3145   9.720   3.606   5.382 -0.5213 -0.0855 -0.2905
  765MOL0     C 3146   9.826   3.523   5.397 -0.9434  0.5532 -0.7483
  765MOL0     C 3147   9.897   3.523   5.524 -0.6592 -0.4588  0.2636
  765MOL0     O 3148  10.007   3.440   5.528  0.1050 -0.3766  0.2052
  765MOL0     C 3149  10.098   3.449   5.635  0.7736 -0.1616  0.5278
  765MOL0     C 3150  10.226   3.365   5.614  0.4155  0.3589  0.3223
  765MOL0     C 3151  10.349   3.391   5.706 -0.1106 -0.2137 -0.4858
  765MOL0     C 3152  10.468   3.313   5.645  1.0636 -0.0136  0.0937
  765MOL0     C 3153  10.601   3.362   5.707  0.5009 -0.7368 -1.0078
  765MOL0     C 3154  10.721   3.284   5.674  0.3139  0.1266 -0.9261
  765MOL0     C 3155  10.757   3.267   5.531  0.3163 -0.2083 -0.3825
  765MOL0     C 3156  10.858   3.160   5.510  0.6532  0.5807  0.6175
  765MOL0     N 3157  10.994   3.202   5.538  0.0483  0.1946  0.6378
  765MOL0     C 3158  11.082   3.256   5.445 -0.8188 -0.7527 -0.4183
  765MOL0     C 3159  11.198   3.261   5.510  0.2781 -0.5017 -0.5952
  765MOL0     C 3160  11.325   3.305   5.448  0.7413  0.1543  0.0951
  765MOL0     C 3161  11.415   3.365   5.564 -0.3063  0.4154 -0.2042
  765MOL0     C 3162  11.549   3.422   5.504  1.1626 -0.2083 -0.6869
  765MOL0     C 3163  11.610   3.500   5.616 -1.2097 -0.5078 -0.0391
  765MOL0     O 3164  11.753   3.521   5.587 -0.2610  0.2724  0.3519
  765MOL0     C 3165  11.837   3.516   5.690  0.3988  0.2518  0.4921
  765MOL0     C 3166  11.802   3.571   5.814  0.0834  0.2197  0.3821
  765MOL0     C 3167  11.888   3.560   5.925  0.0828 -0.0742 -0.1162
  765MOL0     C 3168  12.001   3.479   5.912  0.6847  0.0644  0.0972
  765MOL0     C 3169  12.079   3.456   6.037  0.9351  0.0797 -0.8602
  765MOL0     O 3170  12.020   3.490   6.163 -0.3143  0.1167 -0.1015
  765MOL0     C 3171  12.081   3.461   6.292  0.6070  0.3684  0.7425
  765MOL0     C 3172  11.986   3.494   6.387 -0.1041 -0.0690  0.2527
  765MOL0     C 3173  12.022   3.472   6.522 -0.5283  0.8150  0.8172
  765MOL0     C 3174  12.149   3.428   6.557 -0.0707 -0.0332  0.7343
  765MOL0     O 3175  12.180   3.411   6.688 -0.4869 -0.1251  0.0400
  765MOL0     C 3176  12.311   3.430   6.738  0.2348  0.4284  0.3350
  765MOL0     C 3177  12.318   3.435   6.891  0.2871  0.4584  0.8795
  765MOL0     C 3178  12.271   3.576   6.944 -0.5394 -0.0226  0.1607
  765MOL0     C 3179  12.242   3.560   7.097  0.3262 -0.1995 -0.0952
  765MOL0     C 3180  12.253   3.694   7.170 -0.1018 -0.1059 -0.0650
  765MOL0     C 3181  12.193   3.677   7.312  0.1847  0.2128 -0.7186
  765MOL0     C 3182  12.170   3.815   7.373  0.2551  0.2812  0.8329
  765MOL0     C 3183  12.112   3.813   7.517  0.1552 -0.1947  0.8966
  765MOL0    Cl 3184  12.042   3.981   7.540 -0.1462  0.4320 -0.2649
  765MOL0     C 3185  12.248   3.409   6.454 -0.0374 -0.5909  0.1746
  765MOL0     C 3186  12.208   3.410   6.321  0.3254 -0.4623  0.3109
  765MOL0     O 3187  12.188   3.407   6.019 -0.3767  0.7801 -0.2444
  765MOL0     C 3188  12.037   3.418   5.791 -0.4217 -0.7466  0.1896
  765MOL0     C 3189  11.955   3.440   5.682 -0.2213 -0.7828  0.4781
  765MOL0     N 3190  11.180   3.190   5.634  0.3865 -0.3844  0.3115
  765MOL0     N 3191  11.057   3.164   5.648  0.1380 -0.9823 -0.6896
  765MOL0     C 3192   9.850   3.607   5.631 -0.5990 -0.6336 -0.2480
  765MOL0     C 3193   9.747   3.697   5.602  0.6928 -0.0274 -0.2016
  765MOL0     C 3194   9.487   4.002   5.457  0.2419  0.3147  0.2662
  765MOL0     C 3195   9.359   3.949   5.495  1.1814 -0.0525 -0.6653
  765MOL0     C 3196   9.248   4.036   5.527  0.2671 -0.3634  0.0238
  765MOL0     C 3197   9.272   4.174   5.533 -0.7390 -1.3017 -0.1273
  765MOL0     O 3198   9.176   4.268   5.569 -0.6815 -0.5695  0.6748
  765MOL0     C 3199   9.117   4.257   5.698  0.2541  0.1650 -0.1120
  765MOL0     C 3200   9.045   4.387   5.729  0.1260  0.0141  0.1609
  765MOL0     C 3201   9.109   4.521   5.703  0.9483  0.4283 -0.0203
  765MOL0     C 3202   9.018   4.637   5.742  0.3097 -0.2154 -0.3299
  765MOL0     C 3203   8.989   4.645   5.882  0.0192  0.0690  0.0607
  765MOL0     C 3204   8.977   4.629   5.999 -0.3023  0.6453 -0.7309
  765MOL0     C 3205   9.389   4.216   5.468  0.2312 -0.4755  0.5621
  765MOL0     C 3206   9.490   4.135   5.418  0.5480 -1.2497 -0.2985
  765MOL0     C 3207   9.602   4.211   5.354  0.6860  0.4474 -0.8479
  765MOL0     H 3208   9.669   3.600   5.286  2.0102 -3.1065 -1.6191
  765MOL0     H 3209   9.861   3.464   5.313  2.6414 -2.4629  2.5309
  765MOL0     H 3210  10.122   3.555   5.646 -2.7627  1.1877 -2.5445
  765MOL0     H 3211  10.048   3.418   5.728  0.7145 -2.0856 -0.1180
  765MOL0     H 3212  10.257   3.365   5.509  1.5420 -1.1799  0.6237
  765MOL0     H 3213  10.192   3.264   5.638 -3.4632  1.8267  1.7807
  765MOL0     H 3214  10.329   3.351   5.805  1.8948 -0.5398 -0.1811
  765MOL0     H 3215  10.360   3.497   5.730  0.7400 -0.5682  0.7513
  765MOL0     H 3216  10.454   3.205   5.661 -0.3972 -0.0300 -1.0088
  765MOL0     H 3217  10.473   3.323   5.536  0.1521  0.1448  0.0576
  765MOL0     H 3218  10.618   3.466   5.678  3.6036 -0.1472  2.2941
  765MOL0     H 3219  10.599   3.373   5.816  4.6136  2.7069 -1.0113
  765MOL0     H 3220  10.806   3.334   5.720 -0.0750 -1.8093  2.2376
  765MOL0     H 3221  10.711   3.184   5.718  0.0636 -0.0037 -1.2806
  765MOL0     H 3222  10.790   3.366   5.497 -0.6023 -0.4453 -2.0734
  765MOL0     H 3223  10.674   3.239   5.466 -0.2307 -0.2555  0.3318
  765MOL0     H 3224  10.840   3.073   5.575 -1.6431  2.1673  2.2274
  765MOL0     H 3225  10.873   3.128   5.406  1.9520  1.8084  0.3874
  765MOL0     H 3226  11.066   3.297   5.346 -3.3150 -3.7143 -1.4136
  765MOL0     H 3227  11.372   3.220   5.397 -0.6169 -0.6099  0.0920
  765MOL0     H 3228  11.293   3.372   5.368  0.3862 -2.5307 -2.1506
  765MOL0     H 3229  11.368   3.434   5.635 -2.1434 -0.3628 -0.6162
  765MOL0     H 3230  11.455   3.284   5.627 -1.0103 -1.3245 -1.8822
  765MOL0     H 3231  11.516   3.467   5.410 -0.5844 -4.1495 -2.1840
  765MOL0     H 3232  11.605   3.332   5.478 -0.3204 -0.8801 -1.6748
  765MOL0     H 3233  11.597   3.452   5.713 -3.3742  0.2131  0.0612
  765MOL0     H 3234  11.563   3.598   5.628  0.2369 -0.0328  2.3722
  765MOL0     H 3235  11.712   3.632   5.814  0.2496  0.4726 -0.7599
  765MOL0     H 3236  11.862   3.617   6.013  1.8621 -0.6476  0.8277
  765MOL0     H 3237  11.895   3.545   6.360  0.3915  1.5808  1.5727
  765MOL0     H 3238  11.948   3.506   6.593 -2.3837  1.5614 -1.3510
  765MOL0     H 3239  12.373   3.346   6.704  1.9396  1.1473  1.4951
  765MOL0     H 3240  12.363   3.517   6.696  1.4122 -1.4389 -2.3153
  765MOL0     H 3241  12.259   3.353   6.932  0.5245  0.2033  0.7132
  765MOL0     H 3242  12.425   3.415   6.905  1.9705  5.2648 -2.3752
  765MOL0     H 3243  12.358   3.639   6.926 -0.8161  0.2985 -0.0802
  765MOL0     H 3244  12.180   3.613   6.895  0.0914 -0.0782 -1.0887
  765MOL0     H 3245  12.312   3.488   7.140  1.1125  0.6340  0.0691
  765MOL0     H 3246  12.143   3.514   7.108  1.1574 -1.5673  2.4700
  765MOL0     H 3247  12.210   3.779   7.115 -0.1580 -1.2942 -1.9234
  765MOL0     H 3248  12.359   3.720   7.181  0.0569 -0.9347  0.3790
  765MOL0     H 3249  12.099   3.623   7.301  0.7335 -0.4726 -2.3443
  765MOL0     H 3250  12.260   3.618   7.374 -2.4977  0.0912  2.2683
  765MOL0     H 3251  12.100   3.879   7.319  1.0945  1.0967  0.6716
  765MOL0     H 3252  12.268   3.865   7.373  1.3151 -1.6684  0.0563
  765MOL0     H 3253  12.046   3.727   7.533  0.3575 -0.9078 -1.7220
  765MOL0     H 3254  12.206   3.798   7.573  0.0878 -1.1668  0.7810
  765MOL0     H 3255  12.344   3.369   6.486  0.3079  1.4124  1.8816
  765MOL0     H 3256  12.278   3.397   6.240  0.5736  0.8464  0.2963
  765MOL0     H 3257  12.127   3.358   5.791 -0.6572 -1.1087  0.6541
  765MOL0     H 3258  11.992   3.394   5.591 -0.8856 -2.1442  0.8726
  765MOL0     H 3259   9.891   3.621   5.731 -3.8041 -0.5929  1.1845
  765MOL0     H 3260   9.718   3.772   5.675  0.7845 -2.2314  2.2333
  765MOL0     H 3261   9.334   3.843   5.495 -4.2745  0.8936  0.3625
  765MOL0     H 3262   9.147   3.999   5.538  0.3074 -0.9368 -1.2701
  765MOL0     H 3263   9.204   4.249   5.764  0.6127  1.6473 -0.3624
  765MOL0     H 3264   9.043   4.177   5.708 -1.2105  1.2022 -1.8544
  765MOL0     H 3265   9.021   4.380   5.836  0.9361 -0.9500  0.2927
  765MOL0     H 3266   8.956   4.388   5.666  1.1043 -0.3589 -1.2840
  765MOL0     H 3267   9.125   4.524   5.595 -3.7711 -0.1559 -0.9328
  765MOL0     H 3268   9.207   4.529   5.753  2.8447  3.7805 -3.7198
  765MOL0     H 3269   9.073   4.730   5.722  0.9811 -0.6302 -0.4310
  765MOL0     H 3270   8.924   4.623   5.687  0.0713 -0.0107  0.0214
  765MOL0     H 3271   8.964   4.635   6.105  3.7887 -1.5373  0.1131
  765MOL0     H 3272   9.396   4.324   5.464 -2.1602 -0.0874  3.4261
  765MOL0     H 3273   9.585   4.319   5.351  1.6255  0.5963 -1.0724
  765MOL0     H 3274   9.686   4.183   5.418 -1.4652 -2.0643  1.0766
  765MOL0     H 3275   9.622   4.182   5.251 -0.5540  0.8128 -1.2036
  766MOL0     O 3276  10.775   4.135   9.896 -1.6930 -0.6893  0.3232
  766MOL0     C 3277  10.816   4.065   9.984 -0.3453 -0.5496  0.1764
  766MOL0     O 3278  10.745   3.987  10.063 -0.3710 -0.0153 -0.2229
  766MOL0     C 3279  10.618   3.953  10.031 -0.4821 -0.5714 -0.5068
  766MOL0     C 3280  10.576   3.883   9.920 -0.4285 -1.1765  1.2126
  766MOL0     C 3281  10.445   3.866   9.881 -0.2754 -0.7038 -0.8371
  766MOL0     C 3282  10.345   3.927   9.967  0.4129  1.2746  0.2889
  766MOL0     O 3283  10.210   3.926   9.949  0.4435  0.8412  0.0518
  766MOL0     C 3284  10.162   3.877   9.830 -0.1837  0.1638 -0.3109
  766MOL0     C 3285  10.023   3.926   9.807  0.1491  0.4340  0.0193
  766MOL0     C 3286  10.011   4.078   9.804 -0.0190  0.8262  0.4836
  766MOL0     C 3287  10.106   4.139   9.703 -0.0308 -0.6876 -0.4113
  766MOL0     C 3288  10.099   4.095   9.550  0.0557  0.1277 -0.3838
  766MOL0     C 3289  10.152   4.186   9.440 -0.2746 -0.7740 -0.1620
  766MOL0     C 3290  10.303   4.228   9.451  0.0846 -0.2507  0.3255
  766MOL0     C 3291  10.398   4.112   9.477  0.3174  0.5433  0.7490
  766MOL0     N 3292  10.530   4.170   9.481  0.1462 -0.7883  0.5665
  766MOL0     C 3293  10.577   4.236   9.594 -1.3345  0.4567  0.4857
  766MOL0     C 3294  10.686   4.301   9.541  0.5755 -0.5751 -0.4538
  766MOL0     C 3295  10.780   4.405   9.603  0.5461 -1.2208  0.0839
  766MOL0     C 3296  10.729   4.538   9.551  0.1092 -0.6781  0.0990
  766MOL0     C 3297  10.803   4.661   9.591 -0.1196 -0.4343 -0.0672
  766MOL0     C 3298  10.955   4.645   9.606 -0.0983 -0.0111 -0.6405
  766MOL0     O 3299  11.013   4.621   9.475  0.1759  0.8592  0.1280
  766MOL0     C 3300  11.148   4.612   9.465 -0.0728 -0.5217 -0.3079
  766MOL0     C 3301  11.214   4.490   9.488  0.1030 -0.9141  0.3517
  766MOL0     C 3302  11.355   4.487   9.458  0.1165  0.2370  0.4009
  766MOL0     C 3303  11.426   4.604   9.414 -0.6053  0.5783 -0.3845
  766MOL0     C 3304  11.581   4.607   9.398  0.6863  0.8701 -0.4674
  766MOL0     O 3305  11.627   4.694   9.312 -1.4785 -0.6359  1.0391
  766MOL0     C 3306  11.766   4.696   9.300 -0.3485  0.0321  0.1642
  766MOL0     C 3307  11.854   4.725   9.406  0.5588 -0.8834 -0.4276
  766MOL0     C 3308  12.000   4.748   9.376  0.8424 -0.4073  0.3458
  766MOL0     C 3309  12.046   4.761   9.245 -0.2533 -0.1912  0.2642
  766MOL0     O 3310  12.178   4.797   9.232  0.1525  0.0127  0.1649
  766MOL0     C 3311  12.241   4.809   9.101 -0.0044 -0.3458  0.8681
  766MOL0     C 3312  12.371   4.893   9.086 -0.1527  0.1975 -0.9281
  766MOL0     C 3313  12.487   4.827   9.172 -0.9369 -1.3019  0.2492
  766MOL0     C 3314  12.632   4.871   9.121  0.9538 -0.2716  0.3078
  766MOL0     C 3315  12.745   4.853   9.229  0.8191  0.0487 -0.4825
  766MOL0     C 3316  12.881   4.907   9.193 -0.7400  0.3832  1.3150
  766MOL0     C 3317  12.989   4.856   9.289 -0.3738  0.1773  0.3841
  766MOL0     C 3318  13.123   4.912   9.234 -0.1539 -0.0843  0.1141
  766MOL0    Cl 3319  13.170   5.083   9.285  0.3333  0.1946  0.1330
  766MOL0     C 3320  11.961   4.724   9.144 -0.3363 -0.5636 -0.4093
  766MOL0     C 3321  11.822   4.693   9.174  0.5129  0.7758 -0.6330
  766MOL0     O 3322  11.649   4.527   9.462  0.2876 -0.1460 -0.4078
  766MOL0     C 3323  11.351   4.720   9.391 -0.3992 -0.0108 -0.6962
  766MOL0     C 3324  11.214   4.722   9.414  0.1227  0.1675  0.3018
  766MOL0     N 3325  10.707   4.254   9.415  0.1802  0.3659 -0.9265
  766MOL0     N 3326  10.608   4.189   9.372 -0.5511  0.2447 -0.0177
  766MOL0     C 3327  10.382   4.006  10.077 -0.1649  0.2760  0.6316
  766MOL0     C 3328  10.518   4.017  10.102 -0.1666  0.3216  0.3356
  766MOL0     C 3329  10.962   4.068  10.024  0.3268  0.0093 -0.2415
  766MOL0     C 3330  10.988   4.040  10.161  0.7333 -0.2292 -0.0981
  766MOL0     C 3331  11.120   4.028  10.203 -0.0484 -0.0226  0.0933
  766MOL0     C 3332  11.228   4.040  10.123  0.4861 -0.3382  0.4357
  766MOL0     O 3333  11.356   4.020  10.154  0.1562 -1.0703  0.3448
  766MOL0     C 3334  11.387   3.997  10.290  0.0841 -0.5942  1.0131
  766MOL0     C 3335  11.534   4.043  10.298  0.2186 -0.4527  0.1281
  766MOL0     C 3336  11.592   4.064  10.444 -0.5101 -0.0001 -0.0690
  766MOL0     C 3337  11.730   4.001  10.478 -0.2209 -0.7974  0.0244
  766MOL0     C 3338  11.821   4.038  10.363 -1.0053  0.1912 -0.9220
  766MOL0     C 3339  11.892   4.065  10.267 -0.0307  0.1648  0.6762
  766MOL0     C 3340  11.196   4.061   9.989 -0.0066 -0.2809 -0.3378
  766MOL0     C 3341  11.070   4.072   9.937  0.2246 -0.0985 -0.1089
  766MOL0     C 3342  11.054   4.088   9.787  0.1666  0.5848 -0.5545
  766MOL0     H 3343  10.650   3.849   9.848  1.3809 -1.1670  2.9724
  766MOL0     H 3344  10.409   3.814   9.793 -0.5793  0.0146 -1.1488
  766MOL0     H 3345  10.229   3.900   9.746  3.8353 -2.2615  1.9174
  766MOL0     H 3346  10.157   3.768   9.843  0.3166  0.3052  1.2046
  766MOL0     H 3347   9.968   3.876   9.888  1.3307  1.2294  1.3791
  766MOL0     H 3348   9.991   3.885   9.711  1.0369  0.0041 -0.1085
  766MOL0     H 3349  10.042   4.127   9.896  1.7141  0.5669  0.0696
  766MOL0     H 3350   9.904   4.100   9.795 -0.4021 -1.5220 -2.2681
  766MOL0     H 3351  10.073   4.243   9.695 -0.2796 -0.7842 -0.6437
  766MOL0     H 3352  10.212   4.144   9.730  0.0145  1.4912 -0.8558
  766MOL0     H 3353  10.150   3.999   9.536  0.5206  0.2948  0.1364
  766MOL0     H 3354   9.995   4.080   9.521 -0.1641 -3.1491  1.5754
  766MOL0     H 3355  10.139   4.137   9.343 -0.0678 -1.5603  0.1972
  766MOL0     H 3356  10.086   4.272   9.427 -0.5393 -1.3674 -3.3442
  766MOL0     H 3357  10.320   4.301   9.531  1.1228 -2.1106  1.8878
  766MOL0     H 3358  10.316   4.275   9.353 -4.0611  0.2317 -0.2041
  766MOL0     H 3359  10.379   4.073   9.578 -1.5138  0.5119  0.4263
  766MOL0     H 3360  10.392   4.034   9.401 -1.0577  2.0704 -0.7896
  766MOL0     H 3361  10.554   4.253   9.699  0.8952  3.2696  0.6569
  766MOL0     H 3362  10.768   4.413   9.712 -4.0703 -0.6628 -0.2740
  766MOL0     H 3363  10.876   4.373   9.563  0.1599 -0.9407 -1.1032
  766MOL0     H 3364  10.736   4.531   9.442  1.2553  0.3153  0.0969
  766MOL0     H 3365  10.621   4.552   9.560  0.0980  0.7834 -1.7891
  766MOL0     H 3366  10.767   4.691   9.689 -0.9181 -0.2835 -0.4020
  766MOL0     H 3367  10.780   4.741   9.520  1.3483 -1.2957 -1.6108
  766MOL0     H 3368  10.989   4.577   9.684  1.9789  2.2836  0.6010
  766MOL0     H 3369  10.991   4.745   9.634 -1.7773  0.0214  1.6082
  766MOL0     H 3370  11.158   4.400   9.513 -0.8348 -1.9733 -4.5338
  766MOL0     H 3371  11.404   4.390   9.471 -0.4011 -0.2895 -1.3418
  766MOL0     H 3372  11.816   4.709   9.506  2.5404 -0.1194  0.5027
  766MOL0     H 3373  12.065   4.779   9.457 -0.2727 -0.8505  1.4441
  766MOL0     H 3374  12.259   4.706   9.070 -1.8638 -0.6662  0.7619
  766MOL0     H 3375  12.171   4.871   9.044  0.9063  1.8315  2.0006
  766MOL0     H 3376  12.406   4.896   8.983  1.4653  3.7534 -0.4073
  766MOL0     H 3377  12.359   4.998   9.116  0.3709  1.0198 -3.4119
  766MOL0     H 3378  12.482   4.862   9.276  0.1040 -1.0995  0.2402
  766MOL0     H 3379  12.488   4.717   9.170 -0.0494 -1.3625  2.0892
  766MOL0     H 3380  12.630   4.977   9.094  0.7508 -0.7109 -1.5776
  766MOL0     H 3381  12.663   4.819   9.030  0.8389 -1.5166  0.9555
  766MOL0     H 3382  12.753   4.749   9.263  2.6527 -0.0517 -1.1352
  766MOL0     H 3383  12.707   4.916   9.310  1.9194  0.7585 -0.5051
  766MOL0     H 3384  12.889   4.863   9.093  0.6336  4.8016 -0.7816
  766MOL0     H 3385  12.886   5.016   9.182 -2.0440  0.2150 -2.6739
  766MOL0     H 3386  12.976   4.748   9.280 -1.4421  0.2837  0.4535
  766MOL0     H 3387  12.985   4.892   9.392 -2.9549 -1.3835  0.9263
  766MOL0     H 3388  13.202   4.845   9.266  1.0800  0.8708 -0.8333
  766MOL0     H 3389  13.133   4.903   9.126  2.2864 -5.1883  0.4898
  766MOL0     H 3390  11.999   4.720   9.043 -1.2541  0.0000 -0.7965
  766MOL0     H 3391  11.760   4.669   9.087  1.4291  3.5720 -2.1900
  766MOL0     H 3392  11.398   4.804   9.343  1.4779 -3.3526 -5.4146
  766MOL0     H 3393  11.157   4.808   9.380  0.2909 -0.1996 -0.9560
  766MOL0     H 3394  10.300   4.050  10.134  0.7948  0.4571  1.9330
  766MOL0     H 3395  10.562   4.084  10.175  0.1468  2.6422 -1.8306
  766MOL0     H 3396  10.915   4.032  10.241  1.3897 -0.2006  0.5171
  766MOL0     H 3397  11.139   4.010  10.308 -1.6979 -0.7629  0.3061
  766MOL0     H 3398  11.382   3.896  10.330 -0.4236 -0.2092  1.9732
  766MOL0     H 3399  11.327   4.062  10.356 -0.1705 -1.0270  1.2161
  766MOL0     H 3400  11.546   4.141  10.251 -1.4352 -0.2595  0.0311
  766MOL0     H 3401  11.602   3.989  10.232  0.3145  0.6968 -0.7495
  766MOL0     H 3402  11.517   4.035  10.519  0.2606  0.2799  0.8291
  766MOL0     H 3403  11.611   4.168  10.472  0.2310 -0.6274  1.9638
  766MOL0     H 3404  11.768   4.047  10.570  0.1446 -0.6507 -0.1979
  766MOL0     H 3405  11.725   3.892  10.484  0.6467 -0.8067  0.7197
  766MOL0     H 3406  11.963   4.094  10.191 -0.3363 -0.7842  0.0168
  766MOL0     H 3407  11.268   4.045   9.908 -1.9955 -3.9504 -1.6259
  766MOL0     H 3408  11.026   4.192   9.767  0.1192  1.4004  3.1279
  766MOL0     H 3409  11.146   4.072   9.729  0.3764 -1.0469  0.1746
  766MOL0     H 3410  10.974   4.023   9.750 -0.8843  0.9311  1.0320
  767MOL0     O 3411   0.894   3.213   2.839 -0.5517 -0.0384 -0.7427
  767MOL0     C 3412   0.828   3.134   2.772  0.0975  0.2930  1.1450
  767MOL0     O 3413   0.877   3.044   2.688 -0.3764 -0.0149 -0.5524
  767MOL0     C 3414   1.003   3.008   2.681 -0.0362 -0.1494  0.3564
  767MOL0     C 3415   1.112   3.040   2.762  0.8946 -0.5672  0.6019
  767MOL0     C 3416   1.239   2.989   2.741  0.0089 -0.5981  0.2966
  767MOL0     C 3417   1.264   2.918   2.620  0.1712  0.1197  0.4020
  767MOL0     O 3418   1.389   2.863   2.602  0.2192  0.5434 -0.2005
  767MOL0     C 3419   1.424   2.798   2.480 -0.0074  0.6105 -0.5576
  767MOL0     C 3420   1.565   2.745   2.509  0.2036 -0.4677  0.0686
  767MOL0     C 3421   1.682   2.841   2.511 -0.2472  0.2708 -0.4386
  767MOL0     C 3422   1.809   2.769   2.554 -0.0910 -0.4042 -0.4087
  767MOL0     C 3423   1.933   2.856   2.563  0.0324 -0.2450 -0.0876
  767MOL0     C 3424   1.980   2.929   2.439 -0.0546  0.8211 -0.3009
  767MOL0     C 3425   1.998   2.840   2.313 -0.5862  0.8854  0.4565
  767MOL0     C 3426   2.117   2.738   2.331  0.3477 -0.8667  1.2868
  767MOL0     N 3427   2.149   2.688   2.195 -0.4354 -0.2003  0.0646
  767MOL0     C 3428   2.280   2.697   2.143  0.3031  0.1423  1.1140
  767MOL0     C 3429   2.287   2.615   2.027 -0.2235  0.0553 -0.4396
  767MOL0     C 3430   2.388   2.623   1.921 -0.0607 -0.6352 -0.6244
  767MOL0     C 3431   2.436   2.765   1.881 -0.5539  0.3575  0.0026
  767MOL0     C 3432   2.431   2.784   1.727 -1.6346  0.3733 -0.6357
  767MOL0     C 3433   2.431   2.927   1.694 -0.3588  0.1514 -1.2613
  767MOL0     O 3434   2.546   2.993   1.755  0.1263 -0.2467  0.4946
  767MOL0     C 3435   2.656   2.998   1.674 -0.4234  0.8355 -0.2619
  767MOL0     C 3436   2.763   2.909   1.687  0.1902 -0.2259  0.5116
  767MOL0     C 3437   2.890   2.926   1.613  0.4079 -0.3732  0.2714
  767MOL0     C 3438   2.899   3.038   1.530  0.2161  0.0387  0.2430
  767MOL0     C 3439   3.033   3.065   1.461 -0.2471 -0.0139  0.7947
  767MOL0     O 3440   3.136   2.981   1.491  0.1515  0.0202  0.3588
  767MOL0     C 3441   3.269   2.992   1.451  0.3808 -0.6624  0.0950
  767MOL0     C 3442   3.358   2.900   1.504  0.4621  0.6773 -0.0312
  767MOL0     C 3443   3.490   2.891   1.467  0.2836 -0.4571  0.2544
  767MOL0     C 3444   3.540   2.981   1.366 -0.4436  0.4035  0.1056
  767MOL0     O 3445   3.673   2.981   1.321  0.7327  0.3620 -0.3107
  767MOL0     C 3446   3.730   2.856   1.292 -0.4586  0.5159  0.0977
  767MOL0     C 3447   3.791   2.863   1.155  0.0967 -0.1805  0.1966
  767MOL0     C 3448   3.868   2.989   1.118  0.5607  0.1907  0.4509
  767MOL0     C 3449   3.987   3.013   1.212 -0.9993 -0.2306 -0.6293
  767MOL0     C 3450   4.105   2.933   1.185 -0.1283  0.1493  0.4134
  767MOL0     C 3451   4.228   2.979   1.259  0.3626  0.0959  0.1799
  767MOL0     C 3452   4.319   3.078   1.184 -0.1180  0.1373  0.0201
  767MOL0     C 3453   4.446   3.113   1.270 -0.7783 -0.3262  0.2390
  767MOL0    Cl 3454   4.542   2.973   1.307 -0.2461  0.4714 -0.2323
  767MOL0     C 3455   3.451   3.072   1.310  0.0614  0.5210 -0.0916
  767MOL0     C 3456   3.321   3.075   1.349 -0.0696  0.6642  1.1771
  767MOL0     O 3457   3.043   3.168   1.392  0.1687  0.5307  0.5133
  767MOL0     C 3458   2.788   3.132   1.517 -0.9267  0.2184  0.1560
  767MOL0     C 3459   2.665   3.099   1.583 -0.2714  0.3346  0.6330
  767MOL0     N 3460   2.166   2.540   2.029  0.2872  0.2418  0.9961
  767MOL0     N 3461   2.083   2.590   2.128 -0.3712 -0.6545  0.7092
  767MOL0     C 3462   1.163   2.893   2.529  0.5429  0.0478 -0.6805
  767MOL0     C 3463   1.038   2.936   2.567 -0.1051 -0.2192  0.0377
  767MOL0     C 3464   0.677   3.151   2.788 -0.4102 -0.2864 -1.0980
  767MOL0     C 3465   0.649   3.185   2.924 -0.4734  0.1147  0.5753
  767MOL0     C 3466   0.514   3.180   2.966  0.4072  0.0074  0.4015
  767MOL0     C 3467   0.410   3.167   2.878  0.5928  1.0707  0.2304
  767MOL0     O 3468   0.286   3.173   2.929  0.2796  0.0478 -0.8478
  767MOL0     C 3469   0.174   3.219   2.847 -0.8453 -0.2457  0.3074
  767MOL0     C 3470   0.084   3.290   2.943 -0.7013  0.1371  0.0626
  767MOL0     C 3471  -0.011   3.383   2.877 -0.0528 -0.2174 -0.3006
  767MOL0     C 3472  -0.131   3.301   2.838  0.3856 -0.3954  0.2450
  767MOL0     C 3473  -0.246   3.392   2.793  0.0083  0.3443 -0.0164
  767MOL0     C 3474  -0.328   3.469   2.753  0.5528 -0.8653  1.0784
  767MOL0     C 3475   0.441   3.143   2.742 -0.0575  1.0054  0.8001
  767MOL0     C 3476   0.574   3.140   2.697 -0.7535  0.2694  0.9678
  767MOL0     C 3477   0.592   3.101   2.555 -1.2798 -0.5423  0.0469
  767MOL0     H 3478   1.097   3.112   2.842  0.5692  0.7721 -0.6147
  767MOL0     H 3479   1.325   3.005   2.804  0.2941  0.7151 -0.3905
  767MOL0     H 3480   1.357   2.713   2.468  0.6607  0.2548 -1.9267
  767MOL0     H 3481   1.408   2.869   2.398  0.1068  2.9988  1.3554
  767MOL0     H 3482   1.589   2.668   2.435  0.8081  1.0863 -1.4076
  767MOL0     H 3483   1.564   2.704   2.610 -2.5438 -0.5697  0.0598
  767MOL0     H 3484   1.666   2.933   2.568  2.3933 -0.5577  1.8631
  767MOL0     H 3485   1.696   2.867   2.406  0.8655 -1.5053 -0.7713
  767MOL0     H 3486   1.801   2.706   2.643  1.2043  0.5521  0.4251
  767MOL0     H 3487   1.845   2.700   2.476 -0.7931 -2.0727  0.6813
  767MOL0     H 3488   1.948   2.930   2.642  0.8402 -1.2648  0.7489
  767MOL0     H 3489   2.009   2.780   2.584 -0.9492 -1.1668  0.1835
  767MOL0     H 3490   1.903   3.003   2.415  1.1695  1.9020 -1.0195
  767MOL0     H 3491   2.072   2.985   2.459 -2.2538  3.7583  2.5793
  767MOL0     H 3492   2.015   2.906   2.227 -2.6193 -1.4617 -1.8920
  767MOL0     H 3493   1.901   2.794   2.297  0.3743 -2.0811  2.3817
  767MOL0     H 3494   2.205   2.793   2.367 -0.2431  0.0260  1.4075
  767MOL0     H 3495   2.080   2.658   2.396 -2.3818 -0.6398  0.1160
  767MOL0     H 3496   2.358   2.769   2.165 -0.8012  1.1798  1.7598
  767MOL0     H 3497   2.472   2.571   1.967  0.5546  0.2067 -0.7818
  767MOL0     H 3498   2.355   2.556   1.841 -1.5125 -1.6586  0.7753
  767MOL0     H 3499   2.388   2.850   1.930  1.0372  2.2467 -1.5132
  767MOL0     H 3500   2.543   2.778   1.900 -0.9211  3.1542  0.5749
  767MOL0     H 3501   2.342   2.736   1.685 -3.1880  1.4184  1.3097
  767MOL0     H 3502   2.515   2.746   1.667 -2.0031 -0.0641 -0.8782
  767MOL0     H 3503   2.344   2.975   1.741  2.1519  1.0851  2.9400
  767MOL0     H 3504   2.425   2.938   1.585  0.4917 -1.8492 -1.5514
  767MOL0     H 3505   2.745   2.825   1.754 -0.8964 -0.9866 -0.6796
  767MOL0     H 3506   2.970   2.854   1.627  2.1483 -0.0647 -5.3422
  767MOL0     H 3507   3.313   2.845   1.586  1.8207  1.5344  1.3448
  767MOL0     H 3508   3.548   2.822   1.527  0.4119 -1.5874 -1.0997
  767MOL0     H 3509   3.806   2.832   1.367 -1.3483  1.0499  1.1974
  767MOL0     H 3510   3.659   2.773   1.293  2.6248 -2.3991  2.4789
  767MOL0     H 3511   3.848   2.770   1.140  3.3692  1.5742  0.9229
  767MOL0     H 3512   3.709   2.866   1.083  0.5941 -0.1399 -0.3795
  767MOL0     H 3513   3.907   2.975   1.017  0.4955 -0.0101  0.4542
  767MOL0     H 3514   3.792   3.067   1.116  0.6124  0.2269 -1.2300
  767MOL0     H 3515   3.965   3.001   1.319  2.3501  1.3245  0.3762
  767MOL0     H 3516   4.028   3.111   1.189  2.9375 -2.0829 -2.3551
  767MOL0     H 3517   4.124   2.935   1.077  0.5908  2.1820  0.5243
  767MOL0     H 3518   4.080   2.827   1.195 -0.6311  0.1097 -0.9427
  767MOL0     H 3519   4.211   3.006   1.363  2.1715  0.8455  0.3238
  767MOL0     H 3520   4.292   2.890   1.260 -0.0486 -0.2018  0.3470
  767MOL0     H 3521   4.272   3.176   1.172  0.7030  0.4214 -0.9804
  767MOL0     H 3522   4.344   3.039   1.086  4.1334 -0.5899  1.2157
  767MOL0     H 3523   4.519   3.179   1.222  1.1985 -3.5759 -1.4935
  767MOL0     H 3524   4.424   3.162   1.366  1.7678  0.6771  0.4019
  767MOL0     H 3525   3.490   3.134   1.230  1.5871 -1.0052 -0.5758
  767MOL0     H 3526   3.267   3.152   1.294  2.2015  1.3209 -0.2878
  767MOL0     H 3527   2.797   3.215   1.448  1.2771 -1.7863 -2.2111
  767MOL0     H 3528   2.581   3.167   1.596 -0.1452  0.3208  1.6422
  767MOL0     H 3529   1.184   2.833   2.442  3.6362  0.1584 -0.1202
  767MOL0     H 3530   0.953   2.908   2.506  0.7146 -2.6609 -0.0891
  767MOL0     H 3531   0.729   3.189   2.997 -1.1619 -0.2065  1.3633
  767MOL0     H 3532   0.504   3.177   3.074 -1.2970 -1.2196  0.2455
  767MOL0     H 3533   0.129   3.137   2.790  0.2085 -0.5961 -0.0569
  767MOL0     H 3534   0.220   3.289   2.776  3.2234 -2.4392  0.4614
  767MOL0     H 3535   0.147   3.362   2.995 -2.5290  1.0011  1.1906
  767MOL0     H 3536   0.037   3.213   3.005  0.1588 -2.4499 -2.3087
  767MOL0     H 3537   0.034   3.436   2.791  0.6301 -0.7775 -0.3002
  767MOL0     H 3538  -0.035   3.460   2.950  1.0957  1.2993 -1.4541
  767MOL0     H 3539  -0.106   3.230   2.758  2.4518 -1.3504  1.6531
  767MOL0     H 3540  -0.171   3.245   2.923 -0.6820 -0.6260 -0.3922
  767MOL0     H 3541  -0.403   3.532   2.709  1.2291 -0.8403 -0.0727
  767MOL0     H 3542   0.361   3.119   2.672  2.1872 -0.4597 -1.4084
  767MOL0     H 3543   0.623   2.998   2.534  0.8284  0.3794 -1.7216
  767MOL0     H 3544   0.503   3.128   2.498 -1.5607  1.3870  1.3195
  767MOL0     H 3545   0.672   3.162   2.513 -0.6482 -1.9182 -0.8349
  768MOL0     O 3546   3.613   7.483   5.692 -0.4986 -0.2736  1.5466
  768MOL0     C 3547   3.703   7.435   5.615 -0.7211  0.3836  0.4085
  768MOL0     O 3548   3.832   7.481   5.605  0.0910 -0.3472 -0.4825
  768MOL0     C 3549   3.869   7.586   5.677  0.6166 -0.3325  0.0602
  768MOL0     C 3550   3.982   7.579   5.762 -0.2613 -0.6085 -0.5071
  768MOL0     C 3551   4.025   7.697   5.831  0.2673 -0.1934 -0.3667
  768MOL0     C 3552   3.970   7.819   5.810 -0.1742  0.1230 -0.0817
  768MOL0     O 3553   4.017   7.921   5.886  0.2509  0.0595  0.4871
  768MOL0     C 3554   3.978   8.050   5.856 -0.2616 -0.7217 -0.2361
  768MOL0     C 3555   4.043   8.156   5.937  0.3596 -0.5593  0.0918
  768MOL0     C 3556   4.201   8.152   5.926  0.8396 -0.4322  0.0558
  768MOL0     C 3557   4.248   8.201   5.794 -0.0644  0.6292  0.3225
  768MOL0     C 3558   4.407   8.201   5.788 -0.8619  0.2929 -0.1497
  768MOL0     C 3559   4.462   8.228   5.644 -0.7590  0.1006  1.0212
  768MOL0     C 3560   4.458   8.368   5.592  0.1519 -0.0300 -0.2420
  768MOL0     C 3561   4.343   8.395   5.504  1.0799  0.3255 -0.0295
  768MOL0     N 3562   4.357   8.531   5.443  0.5627 -0.2244  0.2038
  768MOL0     C 3563   4.433   8.554   5.334 -1.4079 -0.2206 -0.0057
  768MOL0     C 3564   4.397   8.677   5.291 -0.3835 -0.4652  0.7102
  768MOL0     C 3565   4.450   8.752   5.163  0.2246 -0.0869  0.5759
  768MOL0     C 3566   4.550   8.868   5.183 -0.6195 -0.5953  0.3846
  768MOL0     C 3567   4.701   8.832   5.214  0.9996 -0.0801  0.3005
  768MOL0     C 3568   4.769   8.778   5.086  0.5889  0.1209 -0.7130
  768MOL0     O 3569   4.898   8.725   5.117  0.6097 -0.4212 -0.4922
  768MOL0     C 3570   5.000   8.814   5.155  0.2797  0.2070  0.2629
  768MOL0     C 3571   4.998   8.956   5.152  0.0276  0.1906  0.2613
  768MOL0     C 3572   5.108   9.031   5.189 -0.6142 -0.7364  0.2353
  768MOL0     C 3573   5.225   8.972   5.246  0.3720 -0.9676 -0.1864
  768MOL0     C 3574   5.330   9.060   5.312 -0.1763 -0.1917 -0.1883
  768MOL0     O 3575   5.432   8.997   5.379  0.1658  0.2511 -0.1386
  768MOL0     C 3576   5.526   9.080   5.417 -0.0706 -0.6163 -0.2133
  768MOL0     C 3577   5.635   9.104   5.331  0.3348  0.5286  0.4112
  768MOL0     C 3578   5.745   9.175   5.363 -0.3134  0.8056  0.8999
  768MOL0     C 3579   5.754   9.235   5.489  0.0511  0.1548  0.2389
  768MOL0     O 3580   5.865   9.293   5.540  0.2776  0.0586 -0.1010
  768MOL0     C 3581   5.945   9.375   5.452  0.3424  0.5374 -0.5999
  768MOL0     C 3582   6.035   9.463   5.530  0.3232 -0.7263  0.5626
  768MOL0     C 3583   6.184   9.428   5.543  0.0067 -0.6309 -0.3984
  768MOL0     C 3584   6.219   9.336   5.651  0.8348  0.0601  0.2515
  768MOL0     C 3585   6.366   9.287   5.660  0.0782  0.4221 -0.0822
  768MOL0     C 3586   6.468   9.392   5.689  0.0379 -0.4591  0.2423
  768MOL0     C 3587   6.459   9.449   5.831 -0.7779  0.3329  1.1946
  768MOL0     C 3588   6.533   9.585   5.837  0.4043 -0.9203 -0.4601
  768MOL0    Cl 3589   6.683   9.600   5.737  0.1030 -0.0176  0.0549
  768MOL0     C 3590   5.648   9.221   5.578  0.5571 -0.0366  0.6618
  768MOL0     C 3591   5.535   9.146   5.543 -0.9389 -0.7893  0.0926
  768MOL0     O 3592   5.315   9.185   5.294  0.6561 -0.5624 -0.7134
  768MOL0     C 3593   5.223   8.832   5.257 -0.1629  0.6720  0.7189
  768MOL0     C 3594   5.111   8.752   5.221  0.1452 -0.0710  0.7678
  768MOL0     N 3595   4.301   8.728   5.375 -0.0563 -0.1062  0.2296
  768MOL0     N 3596   4.275   8.634   5.467 -0.6487  0.0691  0.5934
  768MOL0     C 3597   3.855   7.822   5.728 -0.9913 -0.2793 -0.4064
  768MOL0     C 3598   3.810   7.709   5.662 -0.1404 -0.1183 -0.5816
  768MOL0     C 3599   3.687   7.325   5.524 -0.1292  0.1892 -0.6113
  768MOL0     C 3600   3.795   7.233   5.498 -0.7036 -0.1614  0.4460
  768MOL0     C 3601   3.782   7.119   5.413 -0.1943  0.9802  0.3930
  768MOL0     C 3602   3.671   7.111   5.336 -0.0718  0.4214 -0.1499
  768MOL0     O 3603   3.669   7.019   5.223 -0.0426 -0.2400  0.0443
  768MOL0     C 3604   3.603   7.070   5.106 -0.0847 -0.2862 -1.0422
  768MOL0     C 3605   3.581   6.944   5.019  0.7672 -0.8168 -0.1665
  768MOL0     C 3606   3.483   6.844   5.079  0.0047  0.2309  0.1921
  768MOL0     C 3607   3.420   6.759   4.977 -0.0350  0.5939 -0.2989
  768MOL0     C 3608   3.302   6.816   4.909  0.1678  0.5314 -0.0534
  768MOL0     C 3609   3.207   6.845   4.829 -1.0066 -0.1573  0.0365
  768MOL0     C 3610   3.566   7.193   5.361  1.0221 -0.4141 -0.1485
  768MOL0     C 3611   3.570   7.296   5.457  0.2675 -0.7715  0.8525
  768MOL0     C 3612   3.446   7.377   5.486  0.3492  0.2920  0.1400
  768MOL0     H 3613   4.036   7.487   5.785  0.5075 -0.0894 -0.1933
  768MOL0     H 3614   4.104   7.689   5.905 -0.7169 -4.3636  0.4744
  768MOL0     H 3615   3.998   8.079   5.752 -3.9124  3.8099 -0.0035
  768MOL0     H 3616   3.869   8.058   5.866 -0.1135  1.8820  0.2044
  768MOL0     H 3617   4.023   8.148   6.044 -0.8040 -2.7141 -0.2305
  768MOL0     H 3618   4.000   8.251   5.902 -0.7319 -0.9224  0.4096
  768MOL0     H 3619   4.240   8.053   5.951 -0.0194 -0.4612  1.3791
  768MOL0     H 3620   4.237   8.228   5.995 -3.4223  1.3837  0.5540
  768MOL0     H 3621   4.215   8.130   5.718  1.5417  1.9033 -1.6925
  768MOL0     H 3622   4.204   8.297   5.766 -1.7698 -0.0893  0.4742
  768MOL0     H 3623   4.460   8.276   5.848  0.7385 -0.1973 -0.9004
  768MOL0     H 3624   4.445   8.104   5.820  0.4788  1.4306  1.9863
  768MOL0     H 3625   4.571   8.216   5.649 -0.6259  0.0276 -1.0744
  768MOL0     H 3626   4.414   8.152   5.582 -1.0065 -1.2672  2.7994
  768MOL0     H 3627   4.545   8.384   5.528  0.4888 -1.4046 -0.1480
  768MOL0     H 3628   4.471   8.443   5.672  4.3990 -0.3558 -0.3739
  768MOL0     H 3629   4.324   8.316   5.431 -0.4818  0.0541  0.6174
  768MOL0     H 3630   4.256   8.388   5.570  0.4768 -1.5173 -0.9361
  768MOL0     H 3631   4.500   8.481   5.290 -2.4574 -1.3311  0.1898
  768MOL0     H 3632   4.501   8.679   5.100  2.3541  0.5362  1.4906
  768MOL0     H 3633   4.364   8.782   5.102 -0.2652 -3.1739 -0.4048
  768MOL0     H 3634   4.549   8.921   5.088 -2.4329 -1.2662 -0.0276
  768MOL0     H 3635   4.508   8.931   5.262 -0.0761  0.9126 -0.4805
  768MOL0     H 3636   4.692   8.757   5.294  1.6148  1.0960  1.5147
  768MOL0     H 3637   4.752   8.921   5.253 -0.9686  1.4516 -0.4490
  768MOL0     H 3638   4.770   8.858   5.011  2.9645 -1.2088 -2.2163
  768MOL0     H 3639   4.724   8.688   5.043  1.4869  0.6140 -2.7963
  768MOL0     H 3640   4.903   9.003   5.127  0.4307 -0.0436 -1.9743
  768MOL0     H 3641   5.103   9.140   5.187 -0.1283 -0.5189  3.8390
  768MOL0     H 3642   5.626   9.061   5.232  1.0985  1.6375 -0.1672
  768MOL0     H 3643   5.834   9.180   5.301  1.1865  0.1724  2.9015
  768MOL0     H 3644   6.010   9.314   5.389  0.3613 -0.6521  0.5414
  768MOL0     H 3645   5.882   9.432   5.383 -0.0673  0.9512  0.1071
  768MOL0     H 3646   6.024   9.554   5.470  0.9470 -1.3730 -0.5830
  768MOL0     H 3647   5.980   9.468   5.624 -1.2891  1.4392 -0.4162
  768MOL0     H 3648   6.225   9.401   5.445 -0.8961  0.3138 -1.0602
  768MOL0     H 3649   6.238   9.519   5.571  1.3204 -1.7985  1.0764
  768MOL0     H 3650   6.162   9.244   5.641  0.0509  0.6513 -1.0574
  768MOL0     H 3651   6.195   9.370   5.752  2.5355  1.9777  0.0817
  768MOL0     H 3652   6.393   9.235   5.567  0.0994 -0.7896  0.5828
  768MOL0     H 3653   6.383   9.214   5.740 -1.2851  0.4272  0.2326
  768MOL0     H 3654   6.563   9.338   5.693  0.6862  0.7122  1.4620
  768MOL0     H 3655   6.470   9.470   5.613 -0.0466  0.4748  1.1796
  768MOL0     H 3656   6.498   9.382   5.908 -0.8060 -0.2045  0.7408
  768MOL0     H 3657   6.355   9.461   5.862 -1.3984  0.8927 -0.9351
  768MOL0     H 3658   6.463   9.668   5.824  2.3312  0.5898 -1.6411
  768MOL0     H 3659   6.561   9.606   5.940 -2.2384  2.1690 -0.2123
  768MOL0     H 3660   5.654   9.273   5.673  1.4253  2.9146 -0.8867
  768MOL0     H 3661   5.442   9.140   5.599 -1.5703  0.9314 -0.6895
  768MOL0     H 3662   5.305   8.777   5.301 -1.9963 -2.7216  0.2436
  768MOL0     H 3663   5.098   8.645   5.233 -1.1537  0.3687  4.4210
  768MOL0     H 3664   3.794   7.911   5.712  0.3767  0.8571  0.3991
  768MOL0     H 3665   3.716   7.709   5.606  0.2876 -0.9644 -1.3310
  768MOL0     H 3666   3.893   7.245   5.544 -0.6165  0.9408  0.0150
  768MOL0     H 3667   3.858   7.042   5.406 -2.8141 -1.6429 -1.2582
  768MOL0     H 3668   3.672   7.141   5.061  0.6118 -1.0598 -1.2348
  768MOL0     H 3669   3.504   7.112   5.129  0.3169  1.4620 -2.2973
  768MOL0     H 3670   3.673   6.884   5.018 -0.1259 -2.5484  3.4339
  768MOL0     H 3671   3.548   6.975   4.920  1.6015 -1.1060 -0.5499
  768MOL0     H 3672   3.397   6.887   5.132 -0.0820  0.3515 -0.0446
  768MOL0     H 3673   3.546   6.785   5.146  5.2640  0.7811 -3.6280
  768MOL0     H 3674   3.495   6.707   4.917 -0.5556 -1.4742  0.7642
  768MOL0     H 3675   3.369   6.677   5.027 -2.1406  2.3875  0.6788
  768MOL0     H 3676   3.130   6.867   4.757  2.3310  1.0768 -3.5078
  768MOL0     H 3677   3.467   7.180   5.318  0.0683  0.4360  1.6552
  768MOL0     H 3678   3.355   7.351   5.430 -0.6092 -0.0588  1.7992
  768MOL0     H 3679   3.410   7.355   5.587  1.2321  1.4414  0.7247
  768MOL0     H 3680   3.457   7.484   5.470 -1.8415  0.5808  0.2051
  769MOL0     O 3681   6.128   5.195   3.211 -0.0080  0.6391  0.3817
  769MOL0     C 3682   6.128   5.127   3.315  0.3107 -0.3376  0.0637
  769MOL0     O 3683   6.240   5.088   3.372  0.3521  0.3483 -0.2505
  769MOL0     C 3684   6.361   5.145   3.335  0.4149 -0.1217  0.7365
  769MOL0     C 3685   6.427   5.236   3.425 -0.0525 -0.1856  0.2641
  769MOL0     C 3686   6.547   5.286   3.385 -0.3131 -0.7510 -0.1549
  769MOL0     C 3687   6.612   5.248   3.268 -0.5939  0.6017  0.9463
  769MOL0     O 3688   6.734   5.298   3.260 -0.2958 -0.8005  0.0968
  769MOL0     C 3689   6.840   5.275   3.349  0.0928  0.1083 -0.1742
  769MOL0     C 3690   6.952   5.376   3.343 -0.1469 -0.1364 -0.0927
  769MOL0     C 3691   7.083   5.320   3.399 -0.3299  0.4536 -0.3875
  769MOL0     C 3692   7.215   5.396   3.364 -0.2544  0.0055 -0.2510
  769MOL0     C 3693   7.342   5.332   3.429  0.0704  0.2827 -0.2582
  769MOL0     C 3694   7.468   5.428   3.405  0.2967  0.4191 -0.3531
  769MOL0     C 3695   7.595   5.378   3.469  0.7753 -0.6066 -0.2988
  769MOL0     C 3696   7.643   5.248   3.415  0.5721 -0.3218 -0.4483
  769MOL0     N 3697   7.624   5.242   3.272 -0.6208  0.0734 -0.3320
  769MOL0     C 3698   7.703   5.298   3.173 -0.5116 -0.2923  0.4203
  769MOL0     C 3699   7.648   5.273   3.054 -0.1747  0.3002  0.4440
  769MOL0     C 3700   7.688   5.328   2.914  0.4240  0.4906 -0.8311
  769MOL0     C 3701   7.808   5.240   2.860  0.5349  0.5680  0.5593
  769MOL0     C 3702   7.936   5.297   2.910 -0.9254  0.4717 -0.0123
  769MOL0     C 3703   8.055   5.217   2.869  0.8219  0.0279 -0.1068
  769MOL0     O 3704   8.048   5.196   2.729 -0.0165  0.9044 -0.1733
  769MOL0     C 3705   8.167   5.187   2.664 -0.0208 -0.1749 -0.3823
  769MOL0     C 3706   8.294   5.184   2.723  0.3125  0.2073  0.7621
  769MOL0     C 3707   8.402   5.166   2.636  0.3990  0.7422  0.1196
  769MOL0     C 3708   8.392   5.165   2.499 -0.4380 -0.0562  0.3917
  769MOL0     C 3709   8.506   5.124   2.414  0.4681 -0.0178 -0.4188
  769MOL0     O 3710   8.611   5.068   2.494 -0.2290 -0.6447  0.1266
  769MOL0     C 3711   8.736   5.055   2.447  0.3332  0.5450 -0.1401
  769MOL0     C 3712   8.803   5.134   2.351  0.0471 -0.0323  0.3310
  769MOL0     C 3713   8.929   5.101   2.297 -0.3081 -0.3047 -1.2605
  769MOL0     C 3714   9.004   4.997   2.355 -0.4163 -0.6078 -0.0362
  769MOL0     O 3715   9.141   4.970   2.332 -0.0413  0.1973  0.3163
  769MOL0     C 3716   9.203   5.046   2.226  0.4302 -0.4955 -0.6245
  769MOL0     C 3717   9.351   4.986   2.200 -0.6829 -0.3759 -0.5121
  769MOL0     C 3718   9.417   5.053   2.081 -0.4800 -0.3427  0.2013
  769MOL0     C 3719   9.561   5.017   2.052 -0.6902  0.4244 -0.0943
  769MOL0     C 3720   9.609   5.072   1.915  0.6636 -0.1141 -0.8609
  769MOL0     C 3721   9.750   5.014   1.872  0.2146 -0.1671 -0.3524
  769MOL0     C 3722   9.792   5.084   1.745  0.5177 -0.7629  0.2404
  769MOL0     C 3723   9.885   5.008   1.671 -0.4815  0.6510  0.0446
  769MOL0    Cl 3724   9.971   5.102   1.538 -0.0942  0.2963  0.2392
  769MOL0     C 3725   8.943   4.930   2.457  0.3277 -0.1607 -0.5190
  769MOL0     C 3726   8.812   4.950   2.501 -0.1202 -0.7381  0.2586
  769MOL0     O 3727   8.501   5.134   2.296 -0.0391  0.2781  0.0985
  769MOL0     C 3728   8.269   5.176   2.439  0.4162 -0.7360  0.0455
  769MOL0     C 3729   8.154   5.191   2.523  0.1695 -0.1677  0.2810
  769MOL0     N 3730   7.541   5.187   3.078 -0.0541 -0.1708  0.3353
  769MOL0     N 3731   7.527   5.173   3.212  0.3575 -1.0069  0.7955
  769MOL0     C 3732   6.551   5.160   3.181 -0.2427  0.2765  0.1074
  769MOL0     C 3733   6.422   5.109   3.208 -0.8305  0.0824  0.6819
  769MOL0     C 3734   5.995   5.071   3.355  0.5283 -0.0269 -0.5182
  769MOL0     C 3735   5.875   5.104   3.279  0.1604  0.8122 -0.1380
  769MOL0     C 3736   5.752   5.056   3.315 -0.8778  1.1499  1.3452
  769MOL0     C 3737   5.732   4.976   3.419  0.0265 -0.4910  0.6434
  769MOL0     O 3738   5.603   4.932   3.448 -0.0904 -0.2363  0.1312
  769MOL0     C 3739   5.493   5.016   3.410  0.6564 -0.6102 -0.1740
  769MOL0     C 3740   5.365   4.962   3.479 -0.1202 -0.3740  1.1398
  769MOL0     C 3741   5.250   5.059   3.440  0.2578  0.0760  0.4779
  769MOL0     C 3742   5.113   5.002   3.502  0.6886  0.0542 -0.0517
  769MOL0     C 3743   5.012   5.112   3.485 -0.4019 -0.1613  0.5829
  769MOL0     C 3744   4.931   5.207   3.474 -0.4226  0.5381  0.0986
  769MOL0     C 3745   5.835   4.948   3.502 -0.6434  1.0272  0.5260
  769MOL0     C 3746   5.967   4.996   3.472 -0.4750  0.6265  0.0197
  769MOL0     C 3747   6.078   4.948   3.565 -0.0140 -0.2926 -0.4702
  769MOL0     H 3748   6.375   5.258   3.517 -0.5569 -3.0669  0.7764
  769MOL0     H 3749   6.597   5.356   3.451  0.6151 -1.5362 -0.0045
  769MOL0     H 3750   6.804   5.282   3.453  1.5743  3.4884  0.2595
  769MOL0     H 3751   6.884   5.177   3.329  1.4856  0.7549 -0.3855
  769MOL0     H 3752   6.930   5.472   3.391  0.7468  1.0641 -1.9440
  769MOL0     H 3753   6.975   5.394   3.238  3.0683  2.8772  0.9416
  769MOL0     H 3754   7.097   5.216   3.369 -1.1928  0.0505  0.5651
  769MOL0     H 3755   7.062   5.312   3.506 -2.3296  0.0007 -0.7588
  769MOL0     H 3756   7.228   5.408   3.256  0.4158 -1.7587 -0.4020
  769MOL0     H 3757   7.203   5.502   3.390  1.1772  0.9017 -2.8741
  769MOL0     H 3758   7.338   5.313   3.536  0.7695 -3.1653 -0.7334
  769MOL0     H 3759   7.348   5.231   3.390 -2.3314 -0.0966  0.2162
  769MOL0     H 3760   7.484   5.448   3.299 -0.3499 -3.1096 -1.2196
  769MOL0     H 3761   7.461   5.528   3.449  1.1314  1.3299 -2.1795
  769MOL0     H 3762   7.571   5.366   3.575  2.3970  0.5668  0.2433
  769MOL0     H 3763   7.677   5.450   3.459  0.7407 -0.2104  1.8316
  769MOL0     H 3764   7.749   5.240   3.442 -0.0015  1.2353  2.6607
  769MOL0     H 3765   7.597   5.159   3.457  2.5277 -1.4951 -0.6644
  769MOL0     H 3766   7.794   5.356   3.180 -0.6160 -0.1940  1.0178
  769MOL0     H 3767   7.611   5.312   2.838  1.5513 -1.7524 -1.6236
  769MOL0     H 3768   7.723   5.432   2.912  2.9011 -0.2615 -1.2893
  769MOL0     H 3769   7.803   5.134   2.885 -2.3040  0.5444  0.2255
  769MOL0     H 3770   7.816   5.252   2.751  0.0151 -1.0952  0.3127
  769MOL0     H 3771   7.943   5.297   3.019  5.6107  0.0492 -0.0323
  769MOL0     H 3772   7.948   5.402   2.880 -1.9351  0.4158 -0.6498
  769MOL0     H 3773   8.055   5.120   2.920 -0.9571  0.0093 -0.0774
  769MOL0     H 3774   8.143   5.276   2.896  1.3030  0.3050 -2.1272
  769MOL0     H 3775   8.316   5.209   2.827 -3.4500 -0.3726  1.8802
  769MOL0     H 3776   8.497   5.157   2.688  0.0502 -2.3847  0.3862
  769MOL0     H 3777   8.744   5.222   2.324 -0.4753 -0.3760  0.3270
  769MOL0     H 3778   8.970   5.165   2.220  0.0032 -1.5615 -2.1706
  769MOL0     H 3779   9.143   5.019   2.138 -2.4967 -0.9431  1.3836
  769MOL0     H 3780   9.195   5.155   2.229  0.2562 -0.4643 -1.6578
  769MOL0     H 3781   9.427   5.010   2.276 -0.1932  1.4247 -1.5191
  769MOL0     H 3782   9.350   4.877   2.194  0.6217 -0.7342  3.1669
  769MOL0     H 3783   9.353   5.030   1.996 -1.2023 -3.5490  1.4793
  769MOL0     H 3784   9.413   5.161   2.099 -1.8143 -0.5150  1.0499
  769MOL0     H 3785   9.562   4.907   2.053 -2.7779  0.3365  2.0372
  769MOL0     H 3786   9.630   5.054   2.128 -0.2745  0.9078 -0.7003
  769MOL0     H 3787   9.616   5.181   1.921 -2.9314  0.4475 -3.5330
  769MOL0     H 3788   9.535   5.057   1.835 -0.0894  0.9002 -0.3732
  769MOL0     H 3789   9.822   5.035   1.952 -0.2740  2.1495 -0.4486
  769MOL0     H 3790   9.746   4.906   1.852  1.8477  0.0744 -2.2458
  769MOL0     H 3791   9.821   5.189   1.759  1.4530 -0.8387 -0.9444
  769MOL0     H 3792   9.703   5.096   1.682  0.2591  2.9400  1.0521
  769MOL0     H 3793   9.971   4.960   1.720  0.7128  0.8796 -1.7228
  769MOL0     H 3794   9.833   4.924   1.625  0.3828  0.4158 -0.5382
  769MOL0     H 3795   8.992   4.839   2.490  0.5687  0.1913  0.0985
  769MOL0     H 3796   8.782   4.892   2.587  5.0132  0.6913  3.4519
  769MOL0     H 3797   8.244   5.171   2.333  0.4437  0.3386 -0.0176
  769MOL0     H 3798   8.060   5.199   2.470 -1.5696  0.9071  3.2765
  769MOL0     H 3799   6.603   5.127   3.092  0.7657 -2.8207  1.6668
  769MOL0     H 3800   6.371   5.046   3.135  0.3861 -1.1133  0.8285
  769MOL0     H 3801   5.877   5.155   3.183  1.9374 -2.0111 -1.7251
  769MOL0     H 3802   5.678   5.084   3.241 -1.4253 -2.4065  0.3664
  769MOL0     H 3803   5.478   5.003   3.302 -1.1321 -0.9878  0.0964
  769MOL0     H 3804   5.509   5.122   3.431 -2.7333 -0.3064  1.5737
  769MOL0     H 3805   5.367   4.959   3.588  0.0847  0.1038  1.1512
  769MOL0     H 3806   5.344   4.862   3.440  0.5698  0.4726 -1.6350
  769MOL0     H 3807   5.222   5.072   3.335 -3.5619 -3.3292  0.8294
  769MOL0     H 3808   5.271   5.159   3.480 -0.2811  0.0383  0.8692
  769MOL0     H 3809   5.070   4.927   3.435 -0.0239  0.5902 -0.2120
  769MOL0     H 3810   5.128   4.974   3.606  0.4925 -1.3468 -0.3834
  769MOL0     H 3811   4.865   5.290   3.458 -2.0594 -0.9475 -1.2568
  769MOL0     H 3812   5.806   4.882   3.583  0.5289  0.7626  0.7431
  769MOL0     H 3813   6.035   4.898   3.651 -1.3821 -1.7154 -1.9105
  769MOL0     H 3814   6.157   4.891   3.514  2.2505  2.6227 -0.4708
  769MOL0     H 3815   6.129   5.038   3.599  0.1113  0.5701 -2.7641
  770MOL0     O 3816   5.988   2.990   5.006  0.7923 -0.1812  0.6450
  770MOL0     C 3817   5.978   3.030   5.120 -0.2558 -0.9373  0.5803
  770MOL0     O 3818   6.056   3.137   5.163 -0.1796  0.4198 -0.1389
  770MOL0     C 3819   6.128   3.217   5.074  0.1540  0.3049 -0.4022
  770MOL0     C 3820   6.069   3.322   5.005 -0.2018 -0.8334  0.4881
  770MOL0     C 3821   6.144   3.401   4.918 -0.8829  0.2859 -0.3587
  770MOL0     C 3822   6.281   3.379   4.912  0.1888 -0.3613  1.0078
  770MOL0     O 3823   6.349   3.458   4.817  0.7577 -0.3154 -0.2998
  770MOL0     C 3824   6.399   3.587   4.860 -0.2459  0.2067 -0.5731
  770MOL0     C 3825   6.523   3.582   4.949 -0.1059 -0.6527  0.0639
  770MOL0     C 3826   6.635   3.491   4.878 -0.6853  0.3209 -0.6665
  770MOL0     C 3827   6.744   3.451   4.979 -0.6802 -0.1312  0.3701
  770MOL0     C 3828   6.804   3.314   4.938 -0.0710 -0.5230  0.4255
  770MOL0     C 3829   6.884   3.304   4.818 -0.0585  0.0553 -0.0621
  770MOL0     C 3830   7.018   3.362   4.827 -0.1005 -0.1065 -0.4436
  770MOL0     C 3831   7.109   3.314   4.709 -1.0706  0.5531 -0.7743
  770MOL0     N 3832   7.243   3.373   4.700 -0.0849 -0.3492 -0.6245
  770MOL0     C 3833   7.316   3.442   4.804  0.6744 -0.4505 -0.7215
  770MOL0     C 3834   7.442   3.441   4.762  0.3817  0.4805  0.0810
  770MOL0     C 3835   7.559   3.488   4.838  0.0270  0.0572 -0.6938
  770MOL0     C 3836   7.579   3.638   4.804  0.2307  0.0013  0.3560
  770MOL0     C 3837   7.704   3.686   4.874 -0.2940  0.6982 -0.6263
  770MOL0     C 3838   7.824   3.687   4.779  0.7499  0.6591  0.5190
  770MOL0     O 3839   7.953   3.729   4.835  0.1652  0.5892  0.5457
  770MOL0     C 3840   8.063   3.730   4.754 -0.2290  0.4052 -0.1090
  770MOL0     C 3841   8.070   3.678   4.621  0.3466  0.2307 -0.1469
  770MOL0     C 3842   8.187   3.676   4.554  0.0961 -0.4892  0.6158
  770MOL0     C 3843   8.302   3.721   4.610 -0.8685 -0.7606 -0.8918
  770MOL0     C 3844   8.423   3.703   4.530 -0.2302  0.1920 -0.7383
  770MOL0     O 3845   8.413   3.689   4.398 -0.0354  0.1278  0.2570
  770MOL0     C 3846   8.518   3.657   4.320  0.7745 -0.6704 -0.5312
  770MOL0     C 3847   8.497   3.596   4.197 -0.6567  0.2200 -0.6663
  770MOL0     C 3848   8.598   3.580   4.098  0.1911  0.1241 -0.3442
  770MOL0     C 3849   8.728   3.611   4.144  0.4068  0.2201  0.1690
  770MOL0     O 3850   8.832   3.578   4.064 -0.0875 -0.0020 -0.3095
  770MOL0     C 3851   8.847   3.624   3.928  0.1450  0.0906 -0.8519
  770MOL0     C 3852   8.917   3.761   3.926  0.5884  0.0035 -0.9058
  770MOL0     C 3853   9.054   3.761   3.987  0.1673  0.1523 -0.3733
  770MOL0     C 3854   9.097   3.899   4.001 -0.0858  0.0985  0.2590
  770MOL0     C 3855   9.242   3.926   4.040  0.1813 -0.4057 -0.4281
  770MOL0     C 3856   9.335   3.882   3.933  0.0820 -0.7904  0.3022
  770MOL0     C 3857   9.481   3.908   3.977  0.1528  0.2784  0.1976
  770MOL0     C 3858   9.529   4.048   3.965  0.8250  0.5964 -0.3746
  770MOL0    Cl 3859   9.517   4.111   3.800 -0.2026  0.3879  0.1134
  770MOL0     C 3860   8.756   3.681   4.251  0.1958 -0.5162 -0.2940
  770MOL0     C 3861   8.652   3.704   4.340 -0.3648  0.2762 -0.1366
  770MOL0     O 3862   8.532   3.696   4.595  0.3193  0.0205  0.1877
  770MOL0     C 3863   8.305   3.769   4.745 -0.1496 -0.0911  0.4776
  770MOL0     C 3864   8.180   3.771   4.819  0.2344  0.8612  0.5278
  770MOL0     N 3865   7.445   3.368   4.640 -0.0850 -0.5726 -0.0723
  770MOL0     N 3866   7.325   3.346   4.598  0.5933  0.4655 -0.2389
  770MOL0     C 3867   6.342   3.270   4.973 -0.4998  0.6589  0.0753
  770MOL0     C 3868   6.259   3.190   5.055 -1.0320  0.0515 -0.2287
  770MOL0     C 3869   5.854   2.996   5.209  1.0525 -0.3909  0.4706
  770MOL0     C 3870   5.859   3.041   5.343  0.1148 -0.5564 -0.0471
  770MOL0     C 3871   5.749   3.012   5.433 -0.1581  1.2015  0.3661
  770MOL0     C 3872   5.648   2.928   5.397 -1.1396  0.3435 -0.2303
  770MOL0     O 3873   5.551   2.904   5.497 -0.3054  0.3498 -0.7000
  770MOL0     C 3874   5.457   2.799   5.472  0.5719 -0.2357  0.1633
  770MOL0     C 3875   5.417   2.747   5.610  0.1394  0.4643  0.2315
  770MOL0     C 3876   5.363   2.609   5.591  0.0153  0.4880  0.2827
  770MOL0     C 3877   5.287   2.549   5.718 -1.4475 -0.7784 -0.2289
  770MOL0     C 3878   5.221   2.424   5.699 -0.0607  0.8226 -0.4146
  770MOL0     C 3879   5.181   2.315   5.708  0.4470  0.5740  1.0141
  770MOL0     C 3880   5.641   2.883   5.264 -0.4088 -0.1310 -0.6068
  770MOL0     C 3881   5.734   2.926   5.165  0.6533 -0.5043 -0.1987
  770MOL0     C 3882   5.701   2.885   5.024 -0.2475  0.8429 -0.3596
  770MOL0     H 3883   5.964   3.344   5.024  0.1538  0.2340  1.3680
  770MOL0     H 3884   6.110   3.476   4.847 -2.6879 -0.5008 -0.3690
  770MOL0     H 3885   6.423   3.641   4.768  0.3225  1.0107  0.0332
  770MOL0     H 3886   6.317   3.637   4.912  0.1720 -0.1420  0.4406
  770MOL0     H 3887   6.490   3.537   5.043 -0.2856  1.9112  1.3340
  770MOL0     H 3888   6.549   3.686   4.970  0.3520 -1.0177  1.3930
  770MOL0     H 3889   6.690   3.549   4.804  2.4643 -0.8866  0.5561
  770MOL0     H 3890   6.599   3.397   4.835  4.5406 -1.7296 -1.2549
  770MOL0     H 3891   6.829   3.520   4.977  2.5084 -3.6396  2.8405
  770MOL0     H 3892   6.709   3.440   5.082 -0.8982 -1.0365  0.2088
  770MOL0     H 3893   6.866   3.274   5.020  0.0339 -0.5624  0.3278
  770MOL0     H 3894   6.716   3.249   4.942 -0.8723  0.5879  1.7607
  770MOL0     H 3895   6.892   3.197   4.795  0.9778 -0.1132  0.9760
  770MOL0     H 3896   6.823   3.352   4.741 -0.2879 -3.5401 -2.3778
  770MOL0     H 3897   7.054   3.335   4.927 -0.0587  2.6059  0.3372
  770MOL0     H 3898   7.026   3.471   4.829 -1.6408  0.0166  0.5992
  770MOL0     H 3899   7.118   3.205   4.710 -0.9592  0.4561 -3.4290
  770MOL0     H 3900   7.049   3.326   4.618 -1.4880 -0.6084 -0.6800
  770MOL0     H 3901   7.271   3.483   4.894 -0.2348 -0.4141 -1.1773
  770MOL0     H 3902   7.541   3.487   4.946  1.8750  2.3439 -0.2891
  770MOL0     H 3903   7.654   3.436   4.820  0.4501 -0.0086  1.4643
  770MOL0     H 3904   7.581   3.652   4.695  2.8753 -1.3334  0.1442
  770MOL0     H 3905   7.495   3.699   4.838  0.2797  0.8697 -0.9998
  770MOL0     H 3906   7.727   3.639   4.970 -1.4868  1.5758  0.1212
  770MOL0     H 3907   7.697   3.791   4.905 -1.3657  1.2029 -2.4037
  770MOL0     H 3908   7.802   3.750   4.692  1.2759 -1.9341 -1.6497
  770MOL0     H 3909   7.843   3.591   4.730 -2.3555  0.9972 -1.6777
  770MOL0     H 3910   7.980   3.645   4.570  0.7580 -1.0060 -0.1130
  770MOL0     H 3911   8.192   3.636   4.453  2.3152 -0.5603  0.6954
  770MOL0     H 3912   8.393   3.582   4.170 -1.1418  2.9089 -0.4620
  770MOL0     H 3913   8.576   3.524   4.007 -2.3529 -1.2618  1.0044
  770MOL0     H 3914   8.902   3.541   3.883 -2.0603 -2.0228  0.1560
  770MOL0     H 3915   8.746   3.623   3.886 -0.6400 -0.6589  0.9542
  770MOL0     H 3916   8.933   3.797   3.825  2.0237  0.5980 -0.4876
  770MOL0     H 3917   8.849   3.826   3.983  2.3311  2.5313 -1.5454
  770MOL0     H 3918   9.057   3.710   4.083 -0.5304 -1.2261 -1.0530
  770MOL0     H 3919   9.113   3.708   3.911  2.9488  1.7047  0.5680
  770MOL0     H 3920   9.034   3.942   4.080  1.1058  3.4019 -0.4491
  770MOL0     H 3921   9.078   3.953   3.908 -0.4542 -0.4649  0.0006
  770MOL0     H 3922   9.262   3.876   4.135 -0.1024  2.2064  1.1029
  770MOL0     H 3923   9.259   4.032   4.060 -0.9008  0.1634 -2.2373
  770MOL0     H 3924   9.315   3.774   3.924 -2.3028 -0.4586  0.7360
  770MOL0     H 3925   9.317   3.931   3.837  0.3595 -1.3207 -0.0255
  770MOL0     H 3926   9.542   3.847   3.909 -2.4059  0.6676 -2.6811
  770MOL0     H 3927   9.496   3.858   4.073 -1.4183  0.7101  0.7103
  770MOL0     H 3928   9.471   4.113   4.030  3.5807  2.2283  0.6570
  770MOL0     H 3929   9.633   4.057   4.001  0.9307 -3.4147  0.7451
  770MOL0     H 3930   8.858   3.713   4.272  0.6675 -3.7798  3.8135
  770MOL0     H 3931   8.680   3.746   4.437 -1.0764 -0.0936  0.2413
  770MOL0     H 3932   8.401   3.783   4.793  0.8588  2.5333 -2.0177
  770MOL0     H 3933   8.181   3.802   4.922  0.1430 -0.8450  1.0733
  770MOL0     H 3934   6.442   3.237   4.945  0.0603  0.3965  2.2543
  770MOL0     H 3935   6.290   3.093   5.093 -0.8070 -0.0274 -0.6142
  770MOL0     H 3936   5.950   3.084   5.384  0.0195 -1.0445  0.6991
  770MOL0     H 3937   5.754   3.045   5.536 -0.1533  0.8112  0.4912
  770MOL0     H 3938   5.488   2.707   5.421  1.7185  0.1027  0.2141
  770MOL0     H 3939   5.368   2.839   5.423 -0.5230  0.4589  2.5979
  770MOL0     H 3940   5.346   2.817   5.656  1.2493  1.5300  0.3657
  770MOL0     H 3941   5.504   2.748   5.676  0.1041 -2.4733  0.4585
  770MOL0     H 3942   5.445   2.542   5.563 -0.5657  0.6547 -2.0782
  770MOL0     H 3943   5.293   2.612   5.507 -0.5570  0.3346  0.7476
  770MOL0     H 3944   5.353   2.545   5.806 -2.7443 -0.0389  0.8217
  770MOL0     H 3945   5.215   2.625   5.748  2.0911  1.2064  4.8267
  770MOL0     H 3946   5.131   2.221   5.698  1.1650  0.3105 -0.4237
  770MOL0     H 3947   5.562   2.818   5.225  1.4332 -1.2685 -2.6343
  770MOL0     H 3948   5.729   2.974   4.967 -1.6664  1.1956 -0.5564
  770MOL0     H 3949   5.749   2.796   4.983 -2.2168 -0.6203  0.3342
  770MOL0     H 3950   5.595   2.860   5.011  0.2892 -1.2435 -1.1806
  771MOL0     O 3951   4.998   7.131   0.464  0.3912 -0.7843 -0.8673
  771MOL0     C 3952   5.005   7.196   0.570 -0.3211 -0.4553  1.1315
  771MOL0     O 3953   5.125   7.246   0.621 -0.0214  0.6429 -0.3456
  771MOL0     C 3954   5.235   7.222   0.546 -0.3041 -0.5026 -0.3833
  771MOL0     C 3955   5.300   7.330   0.488 -0.9078 -0.1168 -0.4592
  771MOL0     C 3956   5.414   7.305   0.407  0.7106 -0.3402  1.0769
  771MOL0     C 3957   5.467   7.172   0.387 -0.7351  0.4706  1.0952
  771MOL0     O 3958   5.564   7.154   0.290 -0.5341  0.2249 -0.2167
  771MOL0     C 3959   5.702   7.154   0.337 -1.0979 -0.6627 -0.5253
  771MOL0     C 3960   5.748   7.299   0.325 -0.3625 -0.2227 -0.0401
  771MOL0     C 3961   5.902   7.310   0.322 -0.2077  0.0436 -1.1095
  771MOL0     C 3962   5.959   7.305   0.183  0.1853  0.0851  0.5177
  771MOL0     C 3963   6.105   7.259   0.179  0.1210 -0.1732  0.3275
  771MOL0     C 3964   6.148   7.262   0.031 -0.9958  0.8060 -0.1942
  771MOL0     C 3965   6.298   7.217   0.012 -0.7419 -0.7489 -0.7857
  771MOL0     C 3966   6.398   7.295   0.098 -0.8533 -0.9360 -0.0545
  771MOL0     N 3967   6.544   7.275   0.074 -0.7589 -0.0098 -0.0150
  771MOL0     C 3968   6.619   7.360  -0.013 -0.4622  0.0836  1.3113
  771MOL0     C 3969   6.753   7.351   0.028  1.3491  0.3126  0.1810
  771MOL0     C 3970   6.853   7.433  -0.031 -0.0919 -0.0991  0.1200
  771MOL0     C 3971   6.830   7.582  -0.003 -0.0035  0.4607 -0.2537
  771MOL0     C 3972   6.855   7.626   0.135  0.3900  0.3808 -0.2877
  771MOL0     C 3973   6.833   7.777   0.162  0.5293 -0.5297  0.2372
  771MOL0     O 3974   6.699   7.805   0.213 -0.7029  0.6280  0.5995
  771MOL0     C 3975   6.628   7.923   0.192  0.7186  0.2467  0.6627
  771MOL0     C 3976   6.683   8.035   0.129 -0.2361 -0.0243 -0.1645
  771MOL0     C 3977   6.601   8.151   0.121 -0.5736  0.0880 -0.4205
  771MOL0     C 3978   6.471   8.154   0.178  0.3194 -0.0038 -0.1664
  771MOL0     C 3979   6.382   8.267   0.166  0.3865  0.6161 -0.2316
  771MOL0     O 3980   6.269   8.259   0.240  0.1539 -0.0907  0.8084
  771MOL0     C 3981   6.194   8.372   0.269  0.2127  0.5623  0.5827
  771MOL0     C 3982   6.057   8.349   0.302 -0.0836  0.1009  0.1929
  771MOL0     C 3983   5.975   8.454   0.332 -0.2512  0.3670  1.0237
  771MOL0     C 3984   6.021   8.585   0.314 -0.0472  0.0533  0.7961
  771MOL0     O 3985   5.935   8.694   0.301  0.0007 -0.7658  0.0820
  771MOL0     C 3986   5.834   8.703   0.191 -0.2439  0.1794 -0.3431
  771MOL0     C 3987   5.853   8.833   0.113 -0.2169 -0.0435 -1.2328
  771MOL0     C 3988   5.966   8.832   0.012  0.6127  0.2886 -0.1364
  771MOL0     C 3989   5.948   8.956  -0.078  0.7418 -0.0890 -0.5776
  771MOL0     C 3990   6.062   8.983  -0.174 -0.4464  0.0561 -0.1057
  771MOL0     C 3991   6.032   9.119  -0.244 -0.4101 -0.3104  0.1015
  771MOL0     C 3992   6.127   9.145  -0.368  0.4744  0.1637  0.3425
  771MOL0     C 3993   6.256   9.193  -0.320 -0.5547 -0.5478 -0.2568
  771MOL0    Cl 3994   6.226   9.368  -0.288  0.4513  0.0313 -0.1258
  771MOL0     C 3995   6.151   8.607   0.307 -0.6552 -0.9459  0.1671
  771MOL0     C 3996   6.240   8.502   0.287  0.4207  0.1731  0.1514
  771MOL0     O 3997   6.406   8.357   0.088 -0.4596  0.0597  0.2452
  771MOL0     C 3998   6.428   8.037   0.243  0.1975  0.0168  0.0125
  771MOL0     C 3999   6.495   7.919   0.239  0.4855 -0.0753  0.0372
  771MOL0     N 4000   6.765   7.272   0.142  0.1118  0.3991  0.9412
  771MOL0     N 4001   6.641   7.230   0.163 -0.4600  0.0227 -0.3276
  771MOL0     C 4002   5.407   7.069   0.450  0.3834 -0.0383 -0.9014
  771MOL0     C 4003   5.287   7.094   0.527 -1.3828  0.1047  1.3745
  771MOL0     C 4004   4.891   7.208   0.652  0.1624 -0.2340  0.0147
  771MOL0     C 4005   4.910   7.224   0.794  0.2157  0.0640  0.4282
  771MOL0     C 4006   4.803   7.235   0.879 -0.4502  0.2839 -0.4753
  771MOL0     C 4007   4.673   7.237   0.839  1.0628  0.4756 -0.8003
  771MOL0     O 4008   4.574   7.246   0.929  0.8334 -0.3390  0.0360
  771MOL0     C 4009   4.435   7.256   0.879  0.5189  0.3866  0.1784
  771MOL0     C 4010   4.398   7.388   0.811  0.6403  0.6023  0.2228
  771MOL0     C 4011   4.248   7.424   0.821  0.0249 -0.0378 -0.1964
  771MOL0     C 4012   4.211   7.558   0.888 -0.1076  0.5185 -0.1308
  771MOL0     C 4013   4.297   7.676   0.871 -0.9826 -0.0957  0.0726
  771MOL0     C 4014   4.352   7.775   0.840 -0.1962 -0.9200 -0.5680
  771MOL0     C 4015   4.648   7.209   0.705  0.1161 -0.8580 -0.3500
  771MOL0     C 4016   4.756   7.210   0.613 -0.7466  0.6328 -0.7254
  771MOL0     C 4017   4.717   7.210   0.468  0.5921 -0.7276 -0.1602
  771MOL0     H 4018   5.278   7.432   0.518 -0.8694 -1.1901  3.8348
  771MOL0     H 4019   5.473   7.387   0.366 -0.5820  1.0657  1.8958
  771MOL0     H 4020   5.716   7.129   0.443 -0.0281  1.4666 -0.0951
  771MOL0     H 4021   5.762   7.086   0.276 -0.3576  1.7445 -2.6528
  771MOL0     H 4022   5.705   7.342   0.416  1.3312  2.5184 -0.4230
  771MOL0     H 4023   5.693   7.341   0.241 -3.5860 -1.8243  1.1289
  771MOL0     H 4024   5.946   7.236   0.388  0.0977  1.8534  0.8235
  771MOL0     H 4025   5.921   7.409   0.365 -1.9134 -0.0583 -0.0292
  771MOL0     H 4026   5.901   7.227   0.133 -3.7764  1.5043  2.4590
  771MOL0     H 4027   5.946   7.402   0.134  3.0174  1.3025  1.9336
  771MOL0     H 4028   6.166   7.334   0.230 -1.1443 -0.1991  1.9513
  771MOL0     H 4029   6.125   7.158   0.215  0.8757 -0.0297  0.3319
  771MOL0     H 4030   6.077   7.201  -0.025 -2.1181  0.2280  1.7550
  771MOL0     H 4031   6.137   7.364  -0.008  0.4444  0.5584 -1.3314
  771MOL0     H 4032   6.319   7.238  -0.093  0.0312 -2.0177 -0.9015
  771MOL0     H 4033   6.312   7.110   0.030  1.1562 -0.4573 -0.3758
  771MOL0     H 4034   6.397   7.405   0.102  0.1800 -0.9101 -0.1384
  771MOL0     H 4035   6.374   7.272   0.202  0.6414  0.8932  0.7750
  771MOL0     H 4036   6.573   7.413  -0.096 -1.2632 -0.2027  1.5573
  771MOL0     H 4037   6.946   7.390   0.006 -1.7445 -3.7094  0.5270
  771MOL0     H 4038   6.846   7.421  -0.139 -3.9151  1.0914  0.0715
  771MOL0     H 4039   6.907   7.630  -0.063  1.8387 -2.5564 -0.5022
  771MOL0     H 4040   6.732   7.618  -0.035  1.6091  3.8539 -1.9443
  771MOL0     H 4041   6.950   7.590   0.176 -0.6919 -1.2957  0.8833
  771MOL0     H 4042   6.777   7.583   0.198 -0.8987  3.6124  0.4959
  771MOL0     H 4043   6.851   7.827   0.066  1.1758 -1.2818 -0.0398
  771MOL0     H 4044   6.892   7.804   0.251  2.4798 -2.6148 -0.3359
  771MOL0     H 4045   6.786   8.032   0.093 -1.3861  1.5269 -4.1079
  771MOL0     H 4046   6.649   8.238   0.078  1.5022 -0.8692 -0.1943
  771MOL0     H 4047   6.015   8.250   0.315 -2.4550  0.8714 -1.0043
  771MOL0     H 4048   5.873   8.435   0.362  0.1566  0.3048  2.4733
  771MOL0     H 4049   5.860   8.619   0.125  2.0348 -0.7404  1.5676
  771MOL0     H 4050   5.730   8.694   0.222 -0.1128 -2.4093 -0.4636
  771MOL0     H 4051   5.760   8.847   0.059  0.0604  1.4787 -1.3469
  771MOL0     H 4052   5.853   8.910   0.191 -1.4842 -0.8478 -0.4050
  771MOL0     H 4053   6.066   8.843   0.055  0.3377  1.8684  0.1822
  771MOL0     H 4054   5.951   8.745  -0.052 -0.9377 -0.5304  1.2619
  771MOL0     H 4055   5.927   9.041  -0.013 -3.7386 -0.1847 -1.6137
  771MOL0     H 4056   5.856   8.960  -0.138 -0.6444  3.8696  1.4711
  771MOL0     H 4057   6.075   8.895  -0.238 -1.0767 -0.2036  0.1227
  771MOL0     H 4058   6.155   8.996  -0.118 -0.4100  1.5820 -0.4746
  771MOL0     H 4059   5.931   9.123  -0.287 -0.0015 -0.8810 -0.9296
  771MOL0     H 4060   6.041   9.199  -0.169  1.9242 -0.5518  0.1371
  771MOL0     H 4061   6.080   9.219  -0.433  0.6236  0.9137  1.0692
  771MOL0     H 4062   6.141   9.049  -0.418 -2.5997  0.4837 -1.3710
  771MOL0     H 4063   6.302   9.140  -0.236  3.4800  1.4773 -0.9375
  771MOL0     H 4064   6.336   9.186  -0.394 -1.5274 -4.8793 -1.1673
  771MOL0     H 4065   6.186   8.710   0.297  0.5567 -1.3969 -0.5238
  771MOL0     H 4066   6.347   8.512   0.274  0.9903 -3.2089  1.2545
  771MOL0     H 4067   6.327   8.033   0.280 -1.0821  1.7266 -2.9244
  771MOL0     H 4068   6.439   7.836   0.281 -1.8708  1.8357  0.8776
  771MOL0     H 4069   5.439   6.967   0.429 -2.0364 -1.2143  0.6346
  771MOL0     H 4070   5.237   7.006   0.568  2.1644 -2.0526  1.5261
  771MOL0     H 4071   5.002   7.245   0.846 -0.7063  1.6856  1.4708
  771MOL0     H 4072   4.814   7.250   0.986 -0.3517 -0.6668 -0.3444
  771MOL0     H 4073   4.363   7.243   0.961 -1.0776  1.3100 -1.0095
  771MOL0     H 4074   4.412   7.179   0.805  2.8944 -0.6508  0.4532
  771MOL0     H 4075   4.417   7.374   0.705 -4.1588  0.5874 -0.8780
  771MOL0     H 4076   4.467   7.466   0.845  2.2726 -0.5308 -0.3809
  771MOL0     H 4077   4.198   7.345   0.877  1.8285  0.4448  2.2459
  771MOL0     H 4078   4.205   7.436   0.721 -2.5837  1.5442  1.0046
  771MOL0     H 4079   4.110   7.583   0.854  0.5374  2.1855 -0.8925
  771MOL0     H 4080   4.205   7.537   0.995  0.2683  1.4572  0.0806
  771MOL0     H 4081   4.376   7.878   0.823  0.7379 -1.1108 -0.4609
  771MOL0     H 4082   4.550   7.211   0.659  0.0665 -2.2638 -0.3471
  771MOL0     H 4083   4.613   7.231   0.438  0.5722 -1.6575 -0.7849
  771MOL0     H 4084   4.772   7.289   0.415  1.2774 -1.1120 -0.0291
  771MOL0     H 4085   4.735   7.110   0.430 -2.4067 -0.9764 -1.2317
  772MOL0     O 4086  11.090   3.070   7.975 -0.0842  0.6154 -0.5908
  772MOL0     C 4087  11.073   3.151   7.888  0.3014 -1.0001  0.8413
  772MOL0     O 4088  11.083   3.293   7.901  0.2682 -0.9674 -0.2980
  772MOL0     C 4089  11.144   3.357   8.008 -0.2153  0.3245  0.6270
  772MOL0     C 4090  11.149   3.494   8.007 -0.4413  0.0773 -1.3613
  772MOL0     C 4091  11.236   3.565   8.094  0.5217  0.2466  0.2751
  772MOL0     C 4092  11.309   3.500   8.190  0.4572  0.6845  0.4334
  772MOL0     O 4093  11.388   3.558   8.277  0.3506  0.0002 -0.0156
  772MOL0     C 4094  11.390   3.697   8.294 -0.0240  0.3896  0.5747
  772MOL0     C 4095  11.514   3.748   8.364 -0.0681  0.8591 -0.8602
  772MOL0     C 4096  11.528   3.683   8.504 -0.5919 -0.8542  0.0549
  772MOL0     C 4097  11.654   3.747   8.571 -0.8129  0.0545 -0.2868
  772MOL0     C 4098  11.636   3.887   8.631 -0.5198 -0.3910 -0.1302
  772MOL0     C 4099  11.737   3.938   8.731 -0.1877 -0.3952  0.6050
  772MOL0     C 4100  11.882   3.935   8.677  0.7852  0.4403  0.8453
  772MOL0     C 4101  11.966   4.018   8.770  0.0287 -0.0470  0.6356
  772MOL0     N 4102  12.105   4.028   8.723  0.0225  0.2421  0.1214
  772MOL0     C 4103  12.204   3.931   8.732  0.4853 -0.4326  0.3270
  772MOL0     C 4104  12.310   3.998   8.679  0.2146 -0.6500 -0.1604
  772MOL0     C 4105  12.452   3.946   8.652 -0.0555 -0.2754  1.0298
  772MOL0     C 4106  12.561   4.001   8.748  0.3738  0.1193  0.0462
  772MOL0     C 4107  12.577   4.157   8.744  0.0096 -0.4568  0.8481
  772MOL0     C 4108  12.721   4.202   8.783  0.3926  0.7058 -0.3222
  772MOL0     O 4109  12.756   4.155   8.913  0.1603 -0.1205 -0.2339
  772MOL0     C 4110  12.884   4.162   8.960 -0.7250  0.4247 -0.4616
  772MOL0     C 4111  12.908   4.135   9.092 -0.5389 -0.7097 -0.0693
  772MOL0     C 4112  13.030   4.159   9.153  0.5080  0.7080  0.6083
  772MOL0     C 4113  13.131   4.203   9.077  0.0315  0.3608 -0.4439
  772MOL0     C 4114  13.264   4.238   9.134  0.0824  0.7396  0.4625
  772MOL0     O 4115  13.273   4.244   9.271  0.1132 -0.6358  0.6908
  772MOL0     C 4116  13.398   4.236   9.319 -0.4523 -0.2870 -0.0529
  772MOL0     C 4117  13.481   4.127   9.305 -0.5420 -0.0102  0.2426
  772MOL0     C 4118  13.618   4.142   9.344 -0.0129 -0.2113  0.3211
  772MOL0     C 4119  13.668   4.250   9.406 -1.0761  1.1020 -0.7610
  772MOL0     O 4120  13.790   4.226   9.467  0.0551 -0.5075 -0.2908
  772MOL0     C 4121  13.870   4.335   9.497 -0.2411 -0.2767  0.5932
  772MOL0     C 4122  14.012   4.306   9.464  1.0001 -0.2863 -0.1446
  772MOL0     C 4123  14.102   4.418   9.513 -0.4008  0.5971 -0.1402
  772MOL0     C 4124  14.062   4.551   9.447  0.3857 -0.0372  0.0819
  772MOL0     C 4125  14.170   4.651   9.464 -0.1674  0.5696  0.1988
  772MOL0     C 4126  14.179   4.715   9.598 -0.4662 -0.4729 -0.4362
  772MOL0     C 4127  14.303   4.798   9.605 -0.3389 -0.0634 -0.2313
  772MOL0     C 4128  14.317   4.849   9.744  0.2199 -0.7523 -0.5669
  772MOL0    Cl 4129  14.464   4.947   9.763 -0.1364  0.1487 -0.1448
  772MOL0     C 4130  13.580   4.361   9.422 -0.2310 -0.4383  0.6834
  772MOL0     C 4131  13.447   4.348   9.387 -0.4153 -0.4178  0.4297
  772MOL0     O 4132  13.359   4.227   9.059 -0.1921  0.3241  0.3517
  772MOL0     C 4133  13.116   4.225   8.938  0.8618  1.0137 -0.5971
  772MOL0     C 4134  12.988   4.208   8.878  0.0895 -0.4161 -0.1788
  772MOL0     N 4135  12.272   4.123   8.642 -0.0746  0.3584  0.6698
  772MOL0     N 4136  12.153   4.140   8.666 -1.0523  0.1724 -0.0864
  772MOL0     C 4137  11.298   3.358   8.196 -0.0432  0.8220  0.3654
  772MOL0     C 4138  11.225   3.288   8.104  0.2341 -0.7909 -0.0988
  772MOL0     C 4139  11.060   3.092   7.748 -0.7005 -0.3936  0.2349
  772MOL0     C 4140  11.003   2.963   7.735  0.9390  0.5050  0.2069
  772MOL0     C 4141  10.977   2.905   7.611 -0.1694  0.6391  0.0956
  772MOL0     C 4142  11.033   2.957   7.495  1.0159  0.2264 -0.1625
  772MOL0     O 4143  11.010   2.892   7.377  0.5988 -0.2028  0.0859
  772MOL0     C 4144  11.059   2.928   7.244 -0.4491 -0.0344  0.5799
  772MOL0     C 4145  11.060   2.808   7.142 -0.3817 -0.0046  0.3571
  772MOL0     C 4146  10.933   2.785   7.055 -0.7250  0.6261  0.6662
  772MOL0     C 4147  10.954   2.813   6.899  0.4107 -0.0217  0.5738
  772MOL0     C 4148  10.973   2.960   6.879 -0.0975  0.5915 -0.3860
  772MOL0     C 4149  11.000   3.080   6.876  0.8323  1.0676  0.9527
  772MOL0     C 4150  11.079   3.091   7.507  0.3015 -0.3185 -0.6888
  772MOL0     C 4151  11.090   3.160   7.628  0.9626 -0.2482  0.3337
  772MOL0     C 4152  11.142   3.297   7.631  0.0564  0.2242  0.8227
  772MOL0     H 4153  11.095   3.549   7.930  1.2206  0.4541 -2.3080
  772MOL0     H 4154  11.240   3.672   8.078  0.5089  0.3748  1.0630
  772MOL0     H 4155  11.388   3.735   8.192 -0.9725  2.3337  1.2750
  772MOL0     H 4156  11.304   3.728   8.354 -0.8551 -3.6267  1.7604
  772MOL0     H 4157  11.506   3.856   8.375 -0.2903  0.7328  0.3171
  772MOL0     H 4158  11.604   3.728   8.305  0.0617  2.1151 -1.1115
  772MOL0     H 4159  11.544   3.575   8.498  0.3711 -1.0303  3.5487
  772MOL0     H 4160  11.436   3.707   8.558  0.5762  1.7512  1.0622
  772MOL0     H 4161  11.677   3.691   8.662  0.3933  0.1513 -0.5267
  772MOL0     H 4162  11.731   3.735   8.495 -1.2376  0.0139 -0.7183
  772MOL0     H 4163  11.641   3.965   8.555 -0.2440  2.9656  3.0509
  772MOL0     H 4164  11.536   3.897   8.674  0.2932  2.4746  1.3352
  772MOL0     H 4165  11.717   4.043   8.753 -1.3400 -0.5002  0.1212
  772MOL0     H 4166  11.724   3.885   8.826 -1.8364  1.6183  1.5961
  772MOL0     H 4167  11.893   3.974   8.576 -0.0956 -0.8065  0.2333
  772MOL0     H 4168  11.912   3.831   8.693 -0.9072  0.0810  1.9883
  772MOL0     H 4169  11.930   4.120   8.785  0.6870  0.1059  1.2565
  772MOL0     H 4170  11.973   3.959   8.862 -0.4601 -2.4373 -0.7685
  772MOL0     H 4171  12.204   3.826   8.761  1.5128 -0.5415 -0.0222
  772MOL0     H 4172  12.440   3.837   8.646  1.8079 -0.4782 -0.0911
  772MOL0     H 4173  12.483   3.965   8.549 -0.7071 -0.3318  0.8236
  772MOL0     H 4174  12.551   3.962   8.850 -0.4132 -2.6285 -0.9961
  772MOL0     H 4175  12.659   3.973   8.708  0.4632  2.1090 -1.2546
  772MOL0     H 4176  12.493   4.192   8.805 -1.0497 -2.0767  0.4158
  772MOL0     H 4177  12.566   4.200   8.644  0.5740 -2.6514 -0.2324
  772MOL0     H 4178  12.727   4.311   8.776  2.0406  0.5097 -4.0311
  772MOL0     H 4179  12.793   4.163   8.710  0.2009  0.1730 -0.2275
  772MOL0     H 4180  12.826   4.095   9.149 -0.5431 -1.1297 -0.3712
  772MOL0     H 4181  13.050   4.144   9.259  1.4090  1.6650  0.5880
  772MOL0     H 4182  13.448   4.036   9.255  0.3029 -0.6516  0.8166
  772MOL0     H 4183  13.677   4.051   9.344 -3.1807 -2.5601 -3.4394
  772MOL0     H 4184  13.837   4.417   9.432  3.1108 -0.4197 -1.5707
  772MOL0     H 4185  13.850   4.367   9.599 -3.9500 -3.3725  1.0508
  772MOL0     H 4186  14.048   4.220   9.522 -2.4886 -2.0711 -0.3536
  772MOL0     H 4187  14.029   4.287   9.358  0.3108 -1.0586 -0.1313
  772MOL0     H 4188  14.086   4.428   9.621  0.8679 -0.2172  0.1425
  772MOL0     H 4189  14.208   4.397   9.498 -0.7873 -0.2082 -2.1299
  772MOL0     H 4190  13.974   4.603   9.485  1.1339  0.3072  1.3969
  772MOL0     H 4191  14.063   4.523   9.341  0.7808 -0.6809  0.2487
  772MOL0     H 4192  14.143   4.727   9.390 -1.0562 -1.4987 -1.6871
  772MOL0     H 4193  14.263   4.605   9.432  0.0904  0.8354  0.5437
  772MOL0     H 4194  14.099   4.781   9.632 -0.2179 -1.8322  3.2650
  772MOL0     H 4195  14.190   4.638   9.675 -1.1908 -1.1158 -0.9636
  772MOL0     H 4196  14.293   4.878   9.531  0.3657  0.4040  0.1648
  772MOL0     H 4197  14.394   4.746   9.574  0.1289  0.3190  0.4727
  772MOL0     H 4198  14.236   4.918   9.771 -0.4201 -0.4060 -3.1231
  772MOL0     H 4199  14.333   4.763   9.809  1.3624 -0.1309  0.0136
  772MOL0     H 4200  13.624   4.438   9.484  2.0790  0.4911 -1.9112
  772MOL0     H 4201  13.381   4.430   9.413 -3.2864 -1.9682 -1.4594
  772MOL0     H 4202  13.201   4.257   8.879  0.5450 -1.3186 -2.4552
  772MOL0     H 4203  12.981   4.215   8.770 -2.9888  1.9923  0.0354
  772MOL0     H 4204  11.358   3.313   8.274  0.7753 -0.1877 -0.8202
  772MOL0     H 4205  11.226   3.180   8.113 -0.0116 -1.0238 -2.2302
  772MOL0     H 4206  10.967   2.912   7.824  1.8984 -0.5192  0.0336
  772MOL0     H 4207  10.918   2.814   7.607  0.8134  0.0069 -0.9915
  772MOL0     H 4208  11.158   2.975   7.245 -0.2642 -0.2991 -1.4354
  772MOL0     H 4209  10.994   2.999   7.192  0.5614  0.2968 -0.2746
  772MOL0     H 4210  11.057   2.719   7.206  0.0762 -1.7716 -1.9254
  772MOL0     H 4211  11.155   2.800   7.088 -1.0206 -3.2702 -0.5513
  772MOL0     H 4212  10.851   2.849   7.089 -1.8598  0.3503 -1.4127
  772MOL0     H 4213  10.896   2.684   7.075  1.0343 -0.5807 -1.7154
  772MOL0     H 4214  11.044   2.767   6.858  1.6280  1.5340  1.3608
  772MOL0     H 4215  10.869   2.776   6.841  0.8228 -1.5827  0.9308
  772MOL0     H 4216  10.998   3.187   6.864 -2.5746  1.1388  1.3181
  772MOL0     H 4217  11.120   3.133   7.415 -0.0910 -1.3357 -1.3430
  772MOL0     H 4218  11.067   3.369   7.664 -1.0097 -0.8394  0.7842
  772MOL0     H 4219  11.236   3.295   7.686  2.6875 -0.1737 -3.2479
  772MOL0     H 4220  11.181   3.323   7.533 -0.6048  0.3528  0.5858
  773MOL0     O 4221   4.034   6.242   9.736  0.4340 -0.1031 -0.1089
  773MOL0     C 4222   3.921   6.289   9.749 -0.6337  0.2896 -0.7153
  773MOL0     O 4223   3.883   6.408   9.700  0.4885  0.1577 -0.3975
  773MOL0     C 4224   3.988   6.474   9.645  0.7862  0.5138 -0.5660
  773MOL0     C 4225   4.010   6.473   9.508 -0.0563 -0.2924  0.3006
  773MOL0     C 4226   4.111   6.548   9.450  0.4412 -0.0672 -0.5210
  773MOL0     C 4227   4.192   6.629   9.528  0.0502  1.1245 -0.0701
  773MOL0     O 4228   4.289   6.710   9.476  0.3146  0.2071 -0.0640
  773MOL0     C 4229   4.348   6.660   9.356  0.2773 -0.3834 -0.4655
  773MOL0     C 4230   4.455   6.775   9.329 -0.0069 -0.3974  0.1323
  773MOL0     C 4231   4.545   6.724   9.205  0.2049  0.1552 -0.1770
  773MOL0     C 4232   4.463   6.753   9.077 -0.2487  0.1071  0.3466
  773MOL0     C 4233   4.563   6.712   8.964 -0.1553 -0.2295  0.4771
  773MOL0     C 4234   4.509   6.754   8.824 -0.4891 -0.2505 -0.0027
  773MOL0     C 4235   4.593   6.707   8.704  0.1296  0.4371 -0.1242
  773MOL0     C 4236   4.601   6.549   8.708 -0.3312 -0.3823 -0.1215
  773MOL0     N 4237   4.671   6.497   8.584  0.1971  0.1126  0.7524
  773MOL0     C 4238   4.731   6.581   8.493 -0.0858 -0.0424  0.4688
  773MOL0     C 4239   4.773   6.501   8.394  0.1768  1.2412 -0.7056
  773MOL0     C 4240   4.845   6.539   8.268 -0.0505  0.1948 -0.2195
  773MOL0     C 4241   4.916   6.667   8.278  0.7487  0.5191 -0.2478
  773MOL0     C 4242   5.028   6.671   8.384  0.5078 -0.0198 -0.1225
  773MOL0     C 4243   5.058   6.803   8.448 -0.5446 -0.2384  0.0231
  773MOL0     O 4244   5.205   6.799   8.480  0.1790  0.6930 -0.4435
  773MOL0     C 4245   5.298   6.860   8.400  0.2232  0.9012 -0.7508
  773MOL0     C 4246   5.294   6.902   8.267  0.6103  0.6370  0.7383
  773MOL0     C 4247   5.403   6.974   8.216  0.4322 -0.3954  0.0717
  773MOL0     C 4248   5.528   6.971   8.276  0.5253  0.6565 -0.4079
  773MOL0     C 4249   5.649   7.026   8.217 -0.2210 -0.7145 -0.3457
  773MOL0     O 4250   5.751   7.039   8.304 -0.4863  0.8711  0.4913
  773MOL0     C 4251   5.864   7.089   8.237  0.5259 -0.8900 -0.6687
  773MOL0     C 4252   5.863   7.209   8.166  0.5350 -0.1997  1.1019
  773MOL0     C 4253   5.978   7.263   8.124 -0.3105 -0.4251 -0.1218
  773MOL0     C 4254   6.105   7.209   8.161 -0.1534 -0.2942 -0.5012
  773MOL0     O 4255   6.231   7.263   8.134 -0.1700  0.2270  0.3356
  773MOL0     C 4256   6.220   7.392   8.075  0.4274 -0.4398  0.0044
  773MOL0     C 4257   6.358   7.459   8.033 -0.4109 -0.0924  0.3144
  773MOL0     C 4258   6.447   7.364   7.952  0.0286 -0.2240 -0.3035
  773MOL0     C 4259   6.539   7.459   7.880  0.8830  0.0383 -0.0341
  773MOL0     C 4260   6.678   7.389   7.846 -0.7544  0.0269  0.2646
  773MOL0     C 4261   6.776   7.418   7.966  0.1789  0.3302 -0.0208
  773MOL0     C 4262   6.824   7.563   7.966  0.5311  0.2759  0.1891
  773MOL0     C 4263   6.894   7.600   8.096 -0.4756 -0.6602  0.2856
  773MOL0    Cl 4264   7.045   7.512   8.131 -0.4999  0.2028  0.4884
  773MOL0     C 4265   6.103   7.092   8.237  0.3486  0.2067 -0.0089
  773MOL0     C 4266   5.984   7.026   8.272  1.0238 -0.5785  0.3692
  773MOL0     O 4267   5.646   7.038   8.093 -0.9904 -1.1867 -0.5763
  773MOL0     C 4268   5.535   6.931   8.406  0.7938  0.5585 -0.4645
  773MOL0     C 4269   5.425   6.871   8.467  0.7467 -0.3490  1.0097
  773MOL0     N 4270   4.724   6.375   8.415  0.8147 -0.5878  0.1087
  773MOL0     N 4271   4.665   6.375   8.531 -0.2678 -0.2428  0.9578
  773MOL0     C 4272   4.165   6.646   9.664 -1.1024  0.9542 -0.1331
  773MOL0     C 4273   4.065   6.571   9.723  0.3817 -0.8757  0.7835
  773MOL0     C 4274   3.815   6.211   9.803 -0.9864 -0.3261  0.1156
  773MOL0     C 4275   3.679   6.242   9.765  0.3367  0.4937 -0.3499
  773MOL0     C 4276   3.579   6.179   9.831 -0.4567  0.7454 -0.3612
  773MOL0     C 4277   3.594   6.084   9.927  0.9954 -0.4952  0.6037
  773MOL0     O 4278   3.491   6.029   9.998  0.4775 -0.6462  0.8946
  773MOL0     C 4279   3.453   5.896   9.964 -0.6117 -0.5910 -0.0825
  773MOL0     C 4280   3.313   5.893   9.893  0.6247 -0.1225  0.2431
  773MOL0     C 4281   3.313   5.942   9.747  0.0352  0.9553 -1.0191
  773MOL0     C 4282   3.200   5.886   9.665 -0.2243 -0.2810  0.4070
  773MOL0     C 4283   3.224   5.923   9.522  0.1866  0.3300 -0.3450
  773MOL0     C 4284   3.264   5.964   9.414 -0.0239  0.0382  0.3445
  773MOL0     C 4285   3.723   6.044   9.957  0.4687 -0.6147 -0.0441
  773MOL0     C 4286   3.833   6.102   9.895 -0.3179 -0.4132  0.0165
  773MOL0     C 4287   3.971   6.043   9.925 -0.1440  0.3911 -0.3204
  773MOL0     H 4288   3.928   6.419   9.461 -1.6806 -0.3382  2.9605
  773MOL0     H 4289   4.107   6.521   9.345 -1.5194 -0.9062 -0.2775
  773MOL0     H 4290   4.404   6.570   9.385 -0.8675 -0.5795  1.2161
  773MOL0     H 4291   4.273   6.646   9.278 -0.8382  2.2086  0.0392
  773MOL0     H 4292   4.521   6.786   9.415  4.2512 -0.5538 -2.7514
  773MOL0     H 4293   4.398   6.868   9.316  2.4745  1.6119  2.3924
  773MOL0     H 4294   4.561   6.617   9.220  0.2604  0.3932  1.7435
  773MOL0     H 4295   4.642   6.774   9.206 -0.2142  1.0585 -1.3806
  773MOL0     H 4296   4.371   6.695   9.088  0.3309 -0.4728  2.4675
  773MOL0     H 4297   4.439   6.860   9.070 -1.1776  0.2122  3.6490
  773MOL0     H 4298   4.662   6.755   8.976  1.8959 -3.2236 -3.4860
  773MOL0     H 4299   4.589   6.607   8.983 -0.2961 -0.1060  1.4129
  773MOL0     H 4300   4.414   6.705   8.803 -1.1198  1.0945 -0.4127
  773MOL0     H 4301   4.503   6.863   8.835 -0.5896 -0.2356 -0.2058
  773MOL0     H 4302   4.687   6.753   8.736  0.0193 -0.7571  2.1970
  773MOL0     H 4303   4.567   6.743   8.605  1.2419  0.2162 -0.5179
  773MOL0     H 4304   4.656   6.505   8.791 -1.9210 -0.2427  1.0403
  773MOL0     H 4305   4.495   6.519   8.711 -0.3562 -1.3491 -4.2139
  773MOL0     H 4306   4.743   6.689   8.502  0.8927 -0.1227  0.2695
  773MOL0     H 4307   4.904   6.452   8.238 -2.0345 -0.9303 -1.1304
  773MOL0     H 4308   4.767   6.552   8.192  0.9555  1.4672 -1.0831
  773MOL0     H 4309   4.959   6.686   8.179 -0.2427 -0.6689 -0.9471
  773MOL0     H 4310   4.837   6.741   8.296 -0.9051 -1.6026  1.8530
  773MOL0     H 4311   5.116   6.626   8.337  0.2583 -0.7387  0.0860
  773MOL0     H 4312   5.012   6.592   8.458 -0.9266 -2.2597 -2.6548
  773MOL0     H 4313   4.988   6.828   8.528  0.5884 -0.7137  1.2150
  773MOL0     H 4314   5.039   6.888   8.383 -2.5884 -0.5799  0.1236
  773MOL0     H 4315   5.203   6.875   8.215  1.2363  0.7216 -0.4347
  773MOL0     H 4316   5.398   7.010   8.113  5.4506  3.3141  0.7341
  773MOL0     H 4317   5.773   7.264   8.142  1.5004  2.0064  2.2428
  773MOL0     H 4318   5.966   7.358   8.073  0.6824  1.1838  2.4379
  773MOL0     H 4319   6.162   7.375   7.984  3.2744 -4.2974 -1.3509
  773MOL0     H 4320   6.172   7.461   8.146  1.3513 -3.4796  3.9152
  773MOL0     H 4321   6.343   7.552   7.977  0.9486  1.7944  2.8488
  773MOL0     H 4322   6.410   7.486   8.125  4.0274 -3.6632 -0.7814
  773MOL0     H 4323   6.496   7.291   8.017 -0.0831 -0.0953 -0.0730
  773MOL0     H 4324   6.383   7.316   7.877  0.4486 -1.0356 -0.1514
  773MOL0     H 4325   6.542   7.548   7.943 -2.5993 -1.1794  2.1012
  773MOL0     H 4326   6.495   7.499   7.788 -0.9904  2.9067  1.9380
  773MOL0     H 4327   6.719   7.433   7.754 -0.1459 -2.4938 -0.7389
  773MOL0     H 4328   6.666   7.282   7.828 -0.4883  0.1418 -0.6734
  773MOL0     H 4329   6.731   7.385   8.060  0.0045 -0.8523 -0.4937
  773MOL0     H 4330   6.864   7.357   7.942 -0.4718 -0.4396 -0.5317
  773MOL0     H 4331   6.740   7.630   7.942 -0.9444 -0.6920  2.3409
  773MOL0     H 4332   6.895   7.565   7.883  1.0667 -2.3401  0.5081
  773MOL0     H 4333   6.921   7.706   8.100  0.4876 -0.8946  0.1126
  773MOL0     H 4334   6.816   7.589   8.173 -0.2581  1.5564  0.8901
  773MOL0     H 4335   6.200   7.056   8.268  1.1326  1.0379 -1.3592
  773MOL0     H 4336   5.977   6.934   8.328  1.2626 -1.1524 -0.5192
  773MOL0     H 4337   5.625   6.940   8.466  1.5423  2.2546 -1.7690
  773MOL0     H 4338   5.437   6.826   8.565 -0.8053 -0.9848  0.9378
  773MOL0     H 4339   4.227   6.717   9.718 -1.8578  1.2060  0.4176
  773MOL0     H 4340   4.061   6.581   9.831  2.9853 -2.3561  1.1043
  773MOL0     H 4341   3.663   6.316   9.688  0.9673 -0.0223 -0.9991
  773MOL0     H 4342   3.474   6.198   9.815 -1.2763 -1.3967  1.9341
  773MOL0     H 4343   3.442   5.839  10.056 -0.5015  1.8571  1.5414
  773MOL0     H 4344   3.527   5.861   9.892  0.2714  0.7042  0.1524
  773MOL0     H 4345   3.241   5.950   9.951 -0.4579 -1.5784  0.3852
  773MOL0     H 4346   3.272   5.793   9.911 -1.1603  0.7021  0.9644
  773MOL0     H 4347   3.406   5.900   9.707  0.2019  1.6275 -1.3658
  773MOL0     H 4348   3.318   6.052   9.744  0.5852  0.9976  0.6491
  773MOL0     H 4349   3.196   5.777   9.670 -2.0828 -0.6641 -4.1789
  773MOL0     H 4350   3.107   5.931   9.699  0.6866  2.0298  0.0349
  773MOL0     H 4351   3.296   6.004   9.320 -1.8456 -0.4462 -0.5414
  773MOL0     H 4352   3.732   5.987  10.048  0.7438  0.8926  0.9088
  773MOL0     H 4353   4.036   6.112   9.980 -0.1404  1.5818 -1.7547
  773MOL0     H 4354   3.953   5.948   9.977 -1.4154  0.1981 -1.0798
  773MOL0     H 4355   4.027   6.009   9.838  0.9974 -0.0457  0.5543
  774MOL0     O 4356   6.162   6.053   4.123  1.0277 -0.5343 -0.1673
  774MOL0     C 4357   6.122   6.010   4.019 -0.0504  0.6809 -0.6077
  774MOL0     O 4358   6.163   6.056   3.897 -0.2888 -0.0615  0.1861
  774MOL0     C 4359   6.295   6.093   3.880 -0.0380  0.7016  0.5533
  774MOL0     C 4360   6.340   6.219   3.920  0.5361  0.1537 -0.3838
  774MOL0     C 4361   6.471   6.253   3.906  0.5491 -0.8343  0.0506
  774MOL0     C 4362   6.559   6.163   3.845  0.1343 -0.1317 -0.0102
  774MOL0     O 4363   6.678   6.212   3.816  0.5655 -0.1343  0.6431
  774MOL0     C 4364   6.780   6.133   3.759 -0.1320 -0.4646 -0.7588
  774MOL0     C 4365   6.899   6.227   3.745  0.5731  0.4828  0.7782
  774MOL0     C 4366   7.032   6.157   3.746  0.2479 -0.0010 -0.4677
  774MOL0     C 4367   7.151   6.252   3.731  0.2760  0.8347  0.8716
  774MOL0     C 4368   7.284   6.182   3.707 -0.1764 -0.0937  0.2804
  774MOL0     C 4369   7.398   6.262   3.758  0.2242 -0.2906 -0.1431
  774MOL0     C 4370   7.526   6.195   3.722 -0.1880  0.0719  0.0760
  774MOL0     C 4371   7.647   6.286   3.757  0.3672  0.5832  0.7293
  774MOL0     N 4372   7.783   6.233   3.722  0.1325 -0.9044  0.3963
  774MOL0     C 4373   7.897   6.314   3.706 -0.3625  0.4519 -0.4100
  774MOL0     C 4374   7.984   6.225   3.664  0.0430 -0.1727  0.6840
  774MOL0     C 4375   8.131   6.255   3.651 -0.1737 -0.6740 -0.7136
  774MOL0     C 4376   8.163   6.387   3.564 -0.3673  0.5979  0.0065
  774MOL0     C 4377   8.300   6.434   3.580 -0.9987  0.7257 -0.0502
  774MOL0     C 4378   8.330   6.551   3.478  0.8436 -0.1634  0.2641
  774MOL0     O 4379   8.455   6.618   3.493 -0.3256  0.3525  0.0802
  774MOL0     C 4380   8.574   6.559   3.461 -0.1325 -0.3372  0.1035
  774MOL0     C 4381   8.598   6.425   3.416 -0.0633  0.6881 -0.0104
  774MOL0     C 4382   8.728   6.375   3.387 -0.0233  0.7214  0.1240
  774MOL0     C 4383   8.833   6.460   3.403 -0.5564  0.6601  0.0083
  774MOL0     C 4384   8.977   6.420   3.387  0.1359  0.3000  0.1428
  774MOL0     O 4385   9.075   6.509   3.402 -1.1309 -0.2228  0.1481
  774MOL0     C 4386   9.202   6.471   3.403  0.5211  0.1457  0.3092
  774MOL0     C 4387   9.244   6.387   3.509  0.1159 -0.5539 -0.2540
  774MOL0     C 4388   9.375   6.337   3.527 -0.2895  0.2452  0.1347
  774MOL0     C 4389   9.461   6.355   3.428  0.4498  0.9536 -0.2759
  774MOL0     O 4390   9.585   6.299   3.432  0.2868 -0.1121 -0.2804
  774MOL0     C 4391   9.620   6.189   3.520  0.5780  0.0967 -0.3570
  774MOL0     C 4392   9.761   6.139   3.491 -0.0678 -0.1374  0.8386
  774MOL0     C 4393   9.878   6.244   3.504  1.0051  0.1409  0.0630
  774MOL0     C 4394  10.018   6.178   3.497  0.1694  0.2320  0.2511
  774MOL0     C 4395  10.109   6.232   3.604 -0.6375 -0.4642  0.4085
  774MOL0     C 4396  10.234   6.149   3.624 -0.6514 -0.6433 -0.0698
  774MOL0     C 4397  10.344   6.225   3.695  0.2679 -0.4246  0.3788
  774MOL0     C 4398  10.444   6.123   3.745  0.4559  0.2697 -0.6084
  774MOL0    Cl 4399  10.485   6.008   3.609 -0.4554  0.3997  0.3397
  774MOL0     C 4400   9.426   6.437   3.322 -0.0851 -0.5473  0.3625
  774MOL0     C 4401   9.301   6.502   3.308  0.0057 -0.7564 -0.6225
  774MOL0     O 4402   8.996   6.304   3.351 -0.2429  0.0319 -0.5017
  774MOL0     C 4403   8.811   6.591   3.451 -0.3480 -0.5118 -0.4065
  774MOL0     C 4404   8.685   6.642   3.474 -0.2181  0.1818 -0.2930
  774MOL0     N 4405   7.933   6.100   3.651 -0.1684 -0.7119 -0.6345
  774MOL0     N 4406   7.814   6.112   3.694 -0.6645  0.6773  0.3433
  774MOL0     C 4407   6.521   6.038   3.801  0.5238  0.0115  0.5082
  774MOL0     C 4408   6.388   5.997   3.828 -0.2148 -0.8016  0.2876
  774MOL0     C 4409   5.991   5.939   4.019  0.0863 -0.0998  0.1594
  774MOL0     C 4410   5.921   5.942   3.893  0.3575 -0.4629 -0.6534
  774MOL0     C 4411   5.803   5.875   3.874 -1.2855 -0.3397  0.1817
  774MOL0     C 4412   5.753   5.789   3.967 -0.7102 -0.2256  0.8239
  774MOL0     O 4413   5.651   5.725   3.917 -0.7942  0.1391  0.5550
  774MOL0     C 4414   5.573   5.650   4.013 -0.2661 -0.4208  0.7085
  774MOL0     C 4415   5.438   5.603   3.948 -0.4874  0.0256  0.6825
  774MOL0     C 4416   5.386   5.691   3.840  0.8396  0.0817  0.6513
  774MOL0     C 4417   5.246   5.671   3.792 -0.3564  0.6267 -0.0401
  774MOL0     C 4418   5.227   5.537   3.732 -0.3472  0.2965 -0.2428
  774MOL0     C 4419   5.202   5.432   3.677 -0.7619 -0.5973  0.0090
  774MOL0     C 4420   5.824   5.769   4.086 -0.0003  0.3441  0.0639
  774MOL0     C 4421   5.931   5.855   4.120  0.6872  0.4327 -0.4259
  774MOL0     C 4422   5.971   5.845   4.266  0.2172 -0.1264  0.2914
  774MOL0     H 4423   6.261   6.284   3.956 -1.2914  0.5313 -4.5135
  774MOL0     H 4424   6.504   6.354   3.931  2.0814 -2.0643  3.6486
  774MOL0     H 4425   6.793   6.051   3.830  0.2335 -2.5563 -3.1466
  774MOL0     H 4426   6.759   6.084   3.664  3.1754  0.7882 -2.2812
  774MOL0     H 4427   6.900   6.315   3.811  0.9828  2.9968 -2.3143
  774MOL0     H 4428   6.887   6.274   3.647 -0.7692  0.6162  0.9819
  774MOL0     H 4429   7.026   6.093   3.658  1.2500  1.3103 -1.5337
  774MOL0     H 4430   7.054   6.103   3.839  1.5927  0.5346 -0.4456
  774MOL0     H 4431   7.129   6.312   3.642  1.5395  1.1764  0.7663
  774MOL0     H 4432   7.164   6.320   3.815  1.9296 -0.3851  1.6664
  774MOL0     H 4433   7.289   6.082   3.750 -1.5775 -0.6999 -0.9001
  774MOL0     H 4434   7.294   6.158   3.601  0.8222 -2.0322  0.7625
  774MOL0     H 4435   7.390   6.361   3.712  3.0776  1.6413  2.9903
  774MOL0     H 4436   7.398   6.277   3.866  0.6345 -3.3764  0.3521
  774MOL0     H 4437   7.519   6.180   3.614  0.3372  1.0171 -0.0959
  774MOL0     H 4438   7.535   6.100   3.776 -2.1883 -0.6302 -0.7256
  774MOL0     H 4439   7.627   6.370   3.690 -1.2490 -0.6270 -0.3723
  774MOL0     H 4440   7.635   6.324   3.859  1.1891 -0.3342  1.1832
  774MOL0     H 4441   7.914   6.418   3.733  1.1584 -0.1702  1.3011
  774MOL0     H 4442   8.160   6.280   3.754 -2.3194 -2.2098  0.3350
  774MOL0     H 4443   8.189   6.166   3.624 -1.4969 -0.9119 -2.9847
  774MOL0     H 4444   8.141   6.355   3.462  0.4974 -1.1847  0.3501
  774MOL0     H 4445   8.086   6.459   3.593  0.4266  0.6476  2.2078
  774MOL0     H 4446   8.377   6.358   3.566 -1.4752  0.0646  0.8584
  774MOL0     H 4447   8.315   6.479   3.679 -0.7985  0.6209 -0.0326
  774MOL0     H 4448   8.254   6.625   3.504  0.2713 -0.1333 -1.4265
  774MOL0     H 4449   8.307   6.524   3.375  0.6461 -2.2346  0.7964
  774MOL0     H 4450   8.516   6.359   3.393  2.7085 -2.2806 -2.3825
  774MOL0     H 4451   8.758   6.272   3.371  4.1750  1.9724 -1.5404
  774MOL0     H 4452   9.183   6.396   3.599  1.5085  2.1548  0.5126
  774MOL0     H 4453   9.390   6.282   3.619 -1.3958  0.6106  0.5621
  774MOL0     H 4454   9.618   6.236   3.619  0.5529  0.0594 -0.3400
  774MOL0     H 4455   9.543   6.112   3.512  0.3048  0.2696  0.4832
  774MOL0     H 4456   9.778   6.048   3.549  1.4717 -0.8931 -0.7019
  774MOL0     H 4457   9.766   6.108   3.386  1.4457  1.5801  0.3614
  774MOL0     H 4458   9.869   6.315   3.421  2.5059  0.4072  0.1085
  774MOL0     H 4459   9.852   6.305   3.590 -3.1923  0.4965 -1.2326
  774MOL0     H 4460  10.058   6.187   3.396 -2.0071  0.2022 -0.6556
  774MOL0     H 4461  10.013   6.074   3.532  3.0846  0.5225  1.8829
  774MOL0     H 4462  10.055   6.245   3.699  0.1847  1.4156  0.6560
  774MOL0     H 4463  10.131   6.333   3.569 -0.9475 -0.3270  0.6086
  774MOL0     H 4464  10.212   6.062   3.687 -1.6426  2.2036  3.9502
  774MOL0     H 4465  10.271   6.121   3.525  0.0170  4.4735 -1.5509
  774MOL0     H 4466  10.305   6.280   3.780 -0.4297 -0.1753 -0.0924
  774MOL0     H 4467  10.394   6.283   3.616  1.6716 -1.2657  0.6217
  774MOL0     H 4468  10.535   6.167   3.788 -0.7472  2.3528 -0.0622
  774MOL0     H 4469  10.402   6.070   3.831  0.4774 -1.4384 -1.6112
  774MOL0     H 4470   9.506   6.460   3.252 -1.2167  1.6505 -0.3095
  774MOL0     H 4471   9.272   6.567   3.226 -1.6040 -1.2115 -0.4377
  774MOL0     H 4472   8.889   6.665   3.452 -0.1606 -0.7168  0.3652
  774MOL0     H 4473   8.675   6.744   3.507 -2.4413 -0.2448  0.5540
  774MOL0     H 4474   6.581   5.965   3.747  0.1053 -1.4648  1.9376
  774MOL0     H 4475   6.346   5.905   3.789 -0.1473 -0.6663 -0.1086
  774MOL0     H 4476   5.961   6.005   3.815 -0.0615  0.1574 -0.3712
  774MOL0     H 4477   5.738   5.896   3.789 -1.4326 -0.4153  0.2745
  774MOL0     H 4478   5.544   5.719   4.092  1.6165 -0.8809  1.8572
  774MOL0     H 4479   5.633   5.568   4.053 -2.0784 -0.2897  4.0707
  774MOL0     H 4480   5.349   5.589   4.011  0.3916 -1.2393  1.6952
  774MOL0     H 4481   5.455   5.506   3.899 -0.1623  0.1625  0.5212
  774MOL0     H 4482   5.464   5.694   3.764  1.2762  1.5785  1.1261
  774MOL0     H 4483   5.379   5.792   3.882  0.3512 -0.0046  0.7869
  774MOL0     H 4484   5.171   5.711   3.862 -0.5868 -1.9861  1.3513
  774MOL0     H 4485   5.238   5.735   3.703  1.9259  1.0430  0.0141
  774MOL0     H 4486   5.177   5.342   3.625 -0.8964 -1.0386  0.8346
  774MOL0     H 4487   5.790   5.691   4.154 -2.2541  0.4878 -0.8146
  774MOL0     H 4488   5.998   5.942   4.309 -1.7893  0.7680 -0.3268
  774MOL0     H 4489   5.876   5.816   4.313  0.5948  2.5148  3.0095
  774MOL0     H 4490   6.049   5.770   4.275 -0.1084 -0.3409  1.5991
  775MOL0     O 4491   4.667   0.122   6.458  0.5559 -0.0494 -0.4702
  775MOL0     C 4492   4.568   0.174   6.407  0.5425  0.2256  0.2444
  775MOL0     O 4493   4.549   0.304   6.375 -0.2430  0.3285 -0.4140
  775MOL0     C 4494   4.653   0.393   6.414  0.0406  0.2600 -0.9216
  775MOL0     C 4495   4.682   0.411   6.551 -0.0587  0.6903 -0.0984
  775MOL0     C 4496   4.783   0.502   6.588  0.7672 -0.7400 -0.3150
  775MOL0     C 4497   4.838   0.603   6.497 -0.2656 -0.9232  0.2469
  775MOL0     O 4498   4.913   0.718   6.522 -0.6054  0.0910  1.1110
  775MOL0     C 4499   5.005   0.712   6.625 -0.3145 -0.5364 -0.9536
  775MOL0     C 4500   5.085   0.842   6.635 -0.4429 -0.3209 -0.7388
  775MOL0     C 4501   5.178   0.851   6.523 -0.9298 -0.3955 -0.1114
  775MOL0     C 4502   5.285   0.744   6.529  0.5981 -0.4575 -0.1096
  775MOL0     C 4503   5.373   0.747   6.400 -0.2155  0.1481  0.7845
  775MOL0     C 4504   5.449   0.619   6.367 -0.7476 -0.2504 -0.0192
  775MOL0     C 4505   5.567   0.653   6.267 -0.2291 -0.7605  1.1953
  775MOL0     C 4506   5.521   0.692   6.121 -0.1528  0.1986 -0.5697
  775MOL0     N 4507   5.631   0.736   6.039 -0.7928 -0.5889 -0.5831
  775MOL0     C 4508   5.734   0.649   6.010 -0.3794  0.3441  0.4969
  775MOL0     C 4509   5.810   0.717   5.921  0.1057 -0.4340 -0.2838
  775MOL0     C 4510   5.928   0.652   5.858  1.1743  0.0956 -0.4941
  775MOL0     C 4511   6.050   0.737   5.859 -0.4797 -0.1664 -0.8196
  775MOL0     C 4512   6.127   0.766   5.998 -0.2458 -0.0119 -0.2239
  775MOL0     C 4513   6.162   0.643   6.072  0.1815  0.2735  0.0405
  775MOL0     O 4514   6.257   0.566   5.992 -0.0152 -0.0482 -0.1415
  775MOL0     C 4515   6.383   0.611   5.987  0.0364 -0.0083 -0.5042
  775MOL0     C 4516   6.453   0.699   6.082 -0.0121  0.1460  0.2269
  775MOL0     C 4517   6.589   0.733   6.057  1.2161 -0.0332  0.2531
  775MOL0     C 4518   6.654   0.685   5.941  0.3121  0.9134  0.2689
  775MOL0     C 4519   6.784   0.719   5.906  0.5031  1.6433 -0.4010
  775MOL0     O 4520   6.855   0.627   5.827  0.8391 -0.2136  0.0080
  775MOL0     C 4521   6.983   0.650   5.784  0.8606  0.3519  0.8528
  775MOL0     C 4522   7.042   0.538   5.723 -0.0838 -0.7314 -0.5494
  775MOL0     C 4523   7.160   0.558   5.642  0.4596  0.9488 -0.9953
  775MOL0     C 4524   7.223   0.682   5.637  1.0993  0.7284  0.0309
  775MOL0     O 4525   7.346   0.673   5.572 -0.5250  0.1747  0.2764
  775MOL0     C 4526   7.434   0.783   5.565  0.4721 -0.1389  0.0509
  775MOL0     C 4527   7.578   0.749   5.535 -0.8794  0.2219 -0.2479
  775MOL0     C 4528   7.653   0.669   5.640 -0.0493 -0.6321 -0.9647
  775MOL0     C 4529   7.802   0.630   5.603 -0.1253  0.1528 -0.0368
  775MOL0     C 4530   7.913   0.734   5.611 -0.3394  0.4333 -0.0668
  775MOL0     C 4531   8.048   0.671   5.580 -0.6492  0.5046 -0.6170
  775MOL0     C 4532   8.171   0.765   5.556  0.7117 -0.2229  0.5351
  775MOL0     C 4533   8.235   0.825   5.685 -0.5347  0.0243 -0.4170
  775MOL0    Cl 4534   8.134   0.950   5.754  0.1344  0.3896 -0.1600
  775MOL0     C 4535   7.159   0.795   5.698 -0.4272 -0.6979  0.4609
  775MOL0     C 4536   7.042   0.778   5.765 -0.7767  0.1819 -0.1540
  775MOL0     O 4537   6.837   0.812   5.969  0.3967 -0.0519  0.6633
  775MOL0     C 4538   6.578   0.604   5.851 -1.1547 -0.0427 -1.0342
  775MOL0     C 4539   6.453   0.562   5.878  0.0158  0.1274  0.1826
  775MOL0     N 4540   5.762   0.840   5.905 -0.4974 -0.1244  0.4828
  775MOL0     N 4541   5.648   0.848   5.961  0.0551 -0.9364 -0.7996
  775MOL0     C 4542   4.803   0.586   6.365  0.0138 -0.1033  0.3118
  775MOL0     C 4543   4.715   0.483   6.326 -0.3292 -0.4328  0.5135
  775MOL0     C 4544   4.454   0.081   6.377 -0.2815 -0.6201 -0.4499
  775MOL0     C 4545   4.325   0.133   6.384 -0.1261 -0.2390 -0.0756
  775MOL0     C 4546   4.217   0.050   6.377 -0.6567  0.5170  0.3077
  775MOL0     C 4547   4.228  -0.089   6.360  0.4863 -0.1534  0.5043
  775MOL0     O 4548   4.110  -0.155   6.353  0.1784  0.7085  0.0455
  775MOL0     C 4549   4.111  -0.301   6.317  0.5513 -0.3327 -0.7742
  775MOL0     C 4550   3.971  -0.371   6.327 -0.4883  0.2507  0.8871
  775MOL0     C 4551   3.919  -0.376   6.473 -0.2089 -1.1264  0.5496
  775MOL0     C 4552   3.771  -0.399   6.470  0.3323  0.1856 -0.5453
  775MOL0     C 4553   3.747  -0.531   6.408  0.4433 -0.4374 -0.1628
  775MOL0     C 4554   3.741  -0.643   6.357  0.3481 -1.3467 -0.1890
  775MOL0     C 4555   4.348  -0.135   6.337 -0.4539 -0.7849  0.7114
  775MOL0     C 4556   4.468  -0.054   6.342  0.9285  0.2229 -0.0774
  775MOL0     C 4557   4.601  -0.113   6.299 -0.1777 -0.2462  0.1546
  775MOL0     H 4558   4.632   0.357   6.631  0.5468  0.6071  0.2270
  775MOL0     H 4559   4.811   0.526   6.690 -1.4965  0.1109  0.1672
  775MOL0     H 4560   4.960   0.710   6.725  0.6696  1.0148 -0.4617
  775MOL0     H 4561   5.066   0.621   6.628 -0.3434 -0.5448 -0.4686
  775MOL0     H 4562   5.136   0.839   6.732  0.2578  2.0112 -0.9713
  775MOL0     H 4563   5.016   0.927   6.640 -2.4947 -1.5003 -4.6776
  775MOL0     H 4564   5.227   0.949   6.528 -0.3261 -0.5905 -1.7323
  775MOL0     H 4565   5.132   0.856   6.424  1.0493  0.2419 -1.0488
  775MOL0     H 4566   5.359   0.760   6.608 -0.7470 -2.4475  1.6589
  775MOL0     H 4567   5.251   0.641   6.544 -3.0812  0.7028  0.4320
  775MOL0     H 4568   5.308   0.756   6.312  0.2194 -0.7041  0.3678
  775MOL0     H 4569   5.433   0.838   6.410  1.0348 -0.2221 -2.3439
  775MOL0     H 4570   5.487   0.568   6.456  4.3034  0.8736 -1.1992
  775MOL0     H 4571   5.383   0.551   6.312 -0.5794 -0.5561  0.1492
  775MOL0     H 4572   5.628   0.563   6.259  1.2072  0.3410 -1.4991
  775MOL0     H 4573   5.628   0.731   6.313  2.0310 -1.9200  0.3134
  775MOL0     H 4574   5.490   0.594   6.083 -1.0062  0.4178 -0.4478
  775MOL0     H 4575   5.433   0.755   6.112 -1.7383 -1.8751 -0.4661
  775MOL0     H 4576   5.758   0.558   6.064 -1.5458 -0.0465  0.3830
  775MOL0     H 4577   5.944   0.560   5.916  2.4239 -0.0423 -1.0157
  775MOL0     H 4578   5.903   0.615   5.758 -0.2644  0.4411 -0.2715
  775MOL0     H 4579   6.121   0.685   5.795  0.7469  0.7556 -0.2430
  775MOL0     H 4580   6.017   0.836   5.823  0.1534  0.7899  1.1129
  775MOL0     H 4581   6.062   0.823   6.066 -2.5875 -1.4020 -1.1807
  775MOL0     H 4582   6.221   0.818   5.978  0.3053 -1.3580 -1.2300
  775MOL0     H 4583   6.074   0.579   6.091 -0.4735  0.6627 -1.5490
  775MOL0     H 4584   6.200   0.672   6.170 -1.0338  0.7316  0.3933
  775MOL0     H 4585   6.396   0.736   6.167 -1.7524 -0.7344 -0.4826
  775MOL0     H 4586   6.638   0.798   6.129 -2.3943  2.3331  0.8055
  775MOL0     H 4587   6.999   0.439   5.718  0.4981 -0.9204 -3.0452
  775MOL0     H 4588   7.207   0.481   5.582 -0.3148  0.2107 -0.6975
  775MOL0     H 4589   7.391   0.851   5.491 -1.2064 -1.3668 -0.1772
  775MOL0     H 4590   7.434   0.835   5.661 -1.9014  0.2480 -0.1017
  775MOL0     H 4591   7.579   0.695   5.440 -0.2559 -0.3050  0.0509
  775MOL0     H 4592   7.631   0.843   5.519 -1.0569  0.2551 -0.6396
  775MOL0     H 4593   7.661   0.732   5.729 -0.4229  0.9869 -2.0115
  775MOL0     H 4594   7.587   0.584   5.657 -0.5569  0.0172  0.4227
  775MOL0     H 4595   7.803   0.581   5.505 -1.2421 -0.2707  0.1485
  775MOL0     H 4596   7.824   0.542   5.664  0.8681  0.2153 -0.2804
  775MOL0     H 4597   7.905   0.776   5.712 -1.0775 -4.0573  1.9680
  775MOL0     H 4598   7.891   0.806   5.531  1.0146  0.5325 -0.3809
  775MOL0     H 4599   8.075   0.600   5.658  1.6989  2.0462  0.1124
  775MOL0     H 4600   8.026   0.622   5.484 -1.9378  1.5460 -0.8714
  775MOL0     H 4601   8.146   0.848   5.490  1.5627 -0.5366 -0.1932
  775MOL0     H 4602   8.245   0.701   5.508  2.0419  0.4677  1.5752
  775MOL0     H 4603   8.253   0.753   5.765  0.5236 -3.0196 -3.1858
  775MOL0     H 4604   8.331   0.874   5.667 -0.2977  0.0947  0.9607
  775MOL0     H 4605   7.194   0.898   5.695 -0.0566 -0.8213  0.4813
  775MOL0     H 4606   6.986   0.866   5.794 -2.4690 -0.5510 -1.0995
  775MOL0     H 4607   6.631   0.566   5.765  0.8721  0.9977 -0.3235
  775MOL0     H 4608   6.405   0.489   5.814  1.3180 -0.5967 -0.0018
  775MOL0     H 4609   4.842   0.658   6.293  2.0261 -0.2438  1.2109
  775MOL0     H 4610   4.695   0.469   6.220  0.6037  2.8642 -0.2038
  775MOL0     H 4611   4.316   0.239   6.405  1.0932  0.0202 -0.7557
  775MOL0     H 4612   4.116   0.085   6.397 -1.3932  0.2417 -2.5228
  775MOL0     H 4613   4.172  -0.354   6.390 -0.4504 -0.4790 -0.0237
  775MOL0     H 4614   4.152  -0.316   6.216 -1.7419 -0.0016 -1.8250
  775MOL0     H 4615   3.966  -0.470   6.280  1.2614  0.0975  0.9500
  775MOL0     H 4616   3.895  -0.317   6.270 -2.4435 -1.0443  2.1673
  775MOL0     H 4617   3.942  -0.280   6.521 -0.0097 -1.2524  0.7060
  775MOL0     H 4618   3.972  -0.454   6.528 -2.0382 -2.3938  0.6342
  775MOL0     H 4619   3.734  -0.402   6.573  1.4912  1.0715 -0.0909
  775MOL0     H 4620   3.729  -0.312   6.417  0.3055  1.1516  1.0087
  775MOL0     H 4621   3.728  -0.735   6.304 -1.9927 -1.2072  0.0316
  775MOL0     H 4622   4.362  -0.236   6.299  0.2954  0.3142 -2.2687
  775MOL0     H 4623   4.677  -0.037   6.279  3.9840 -3.9392  0.4875
  775MOL0     H 4624   4.633  -0.187   6.372  0.8016 -1.0517 -1.0449
  775MOL0     H 4625   4.581  -0.162   6.203 -1.5773 -0.8573  0.7305
  776MOL0     O 4626   7.127   6.298   8.845  0.1604 -0.2177 -0.1341
  776MOL0     C 4627   7.132   6.280   8.725  0.6790 -0.1863  1.1359
  776MOL0     O 4628   7.023   6.272   8.634  0.2416 -0.1936  0.7059
  776MOL0     C 4629   6.900   6.241   8.681  0.1258  1.3324 -0.8427
  776MOL0     C 4630   6.792   6.301   8.622  0.3486  0.8394 -0.6558
  776MOL0     C 4631   6.660   6.265   8.661 -0.2989  0.8567  0.0656
  776MOL0     C 4632   6.636   6.161   8.755  0.9113  0.1991  0.5221
  776MOL0     O 4633   6.511   6.116   8.789  0.4782  0.0779  0.4474
  776MOL0     C 4634   6.413   6.087   8.684  0.0666 -0.0654  0.5439
  776MOL0     C 4635   6.287   6.176   8.684 -0.0683  1.1578  0.2126
  776MOL0     C 4636   6.211   6.175   8.812 -0.5867  0.1935  0.1416
  776MOL0     C 4637   6.071   6.110   8.809  0.3102  0.4031 -0.0650
  776MOL0     C 4638   6.002   6.100   8.948 -0.3746  0.1223 -0.0263
  776MOL0     C 4639   5.888   5.999   8.943  0.5946 -0.5881 -0.1972
  776MOL0     C 4640   5.780   6.028   9.045 -0.6104  0.0772 -0.2557
  776MOL0     C 4641   5.671   5.927   9.025 -0.5175 -0.4483 -1.0918
  776MOL0     N 4642   5.578   5.965   8.924  0.2254  0.5712  0.2274
  776MOL0     C 4643   5.582   5.913   8.794 -0.3687  0.4011  0.3827
  776MOL0     C 4644   5.494   5.991   8.731  0.2171 -0.6320 -0.9812
  776MOL0     C 4645   5.448   5.984   8.589  0.6784  0.7803  0.8621
  776MOL0     C 4646   5.555   6.013   8.477 -0.0603  0.2167  0.1071
  776MOL0     C 4647   5.663   5.911   8.485 -0.7822 -0.6618  0.4979
  776MOL0     C 4648   5.757   5.938   8.374  0.0983 -0.2847  0.3464
  776MOL0     O 4649   5.824   6.068   8.385 -0.1213  1.2158 -0.4484
  776MOL0     C 4650   5.943   6.085   8.321  0.0836  0.5225 -0.5798
  776MOL0     C 4651   5.978   6.001   8.214  0.6786 -0.0331  0.4283
  776MOL0     C 4652   6.097   6.024   8.146  0.4011 -0.6299 -0.0739
  776MOL0     C 4653   6.181   6.140   8.184  0.4330  0.0994 -0.2023
  776MOL0     C 4654   6.304   6.171   8.108  0.2887  0.3629 -0.1478
  776MOL0     O 4655   6.342   6.080   8.012 -0.3899 -0.5385  0.0086
  776MOL0     C 4656   6.471   6.080   7.968 -0.4811  0.1830 -0.1664
  776MOL0     C 4657   6.488   6.057   7.833  0.2609  0.3429 -0.2116
  776MOL0     C 4658   6.608   6.051   7.771  0.7572 -1.3530  0.1779
  776MOL0     C 4659   6.725   6.078   7.838 -0.1590  0.5893 -0.8322
  776MOL0     O 4660   6.844   6.058   7.780  0.2416 -0.0230  0.2828
  776MOL0     C 4661   6.961   6.041   7.852  1.0395  0.1465  0.5667
  776MOL0     C 4662   7.071   5.998   7.751  0.8230  1.0838 -0.1345
  776MOL0     C 4663   7.209   5.989   7.813 -0.4581  0.1407  0.5699
  776MOL0     C 4664   7.313   5.996   7.701 -0.7569 -0.2863  0.7700
  776MOL0     C 4665   7.436   5.900   7.713 -1.2739  0.0993  0.2768
  776MOL0     C 4666   7.547   5.941   7.606 -0.2643  0.0109  0.2163
  776MOL0     C 4667   7.659   5.835   7.618  0.3440 -0.6590  0.8107
  776MOL0     C 4668   7.748   5.840   7.495 -0.0072  0.2689  0.3738
  776MOL0    Cl 4669   7.833   5.676   7.480  0.4551 -0.6625 -0.0132
  776MOL0     C 4670   6.712   6.104   7.977  0.7697 -0.4598  0.0028
  776MOL0     C 4671   6.585   6.107   8.035  0.8395  0.2211  0.3508
  776MOL0     O 4672   6.369   6.271   8.143 -0.6378 -0.4013  0.0701
  776MOL0     C 4673   6.141   6.218   8.287 -0.0121 -0.6599 -0.0645
  776MOL0     C 4674   6.021   6.188   8.361  0.7587  0.1876  0.0033
  776MOL0     N 4675   5.430   6.074   8.826 -0.3850 -0.1079 -0.4407
  776MOL0     N 4676   5.480   6.057   8.936  0.0871 -0.6015 -0.2809
  776MOL0     C 4677   6.750   6.094   8.814  0.4244 -0.1190 -0.4742
  776MOL0     C 4678   6.875   6.147   8.787 -0.8340  0.4030 -0.7157
  776MOL0     C 4679   7.267   6.247   8.677 -1.0677  0.1532 -0.1226
  776MOL0     C 4680   7.287   6.161   8.570 -0.6394  0.2227 -0.2728
  776MOL0     C 4681   7.408   6.138   8.523 -0.7381  0.2655  0.2400
  776MOL0     C 4682   7.532   6.178   8.575 -0.4364 -0.7670 -0.0288
  776MOL0     O 4683   7.657   6.157   8.517 -0.2998  0.2721 -0.5770
  776MOL0     C 4684   7.671   6.025   8.466  0.2500  0.1234 -1.2247
  776MOL0     C 4685   7.815   5.985   8.454  0.9601 -0.4933  0.0424
  776MOL0     C 4686   7.879   6.078   8.347 -0.2180 -0.5608  0.9566
  776MOL0     C 4687   8.013   6.020   8.302  0.1574  0.3333 -0.3441
  776MOL0     C 4688   8.122   6.018   8.399 -0.3211  0.6677  0.2567
  776MOL0     C 4689   8.196   6.021   8.494 -0.5106 -0.7037 -0.4701
  776MOL0     C 4690   7.516   6.269   8.684  0.3448  0.0034 -0.7278
  776MOL0     C 4691   7.390   6.298   8.743  0.4187 -0.6990 -0.1428
  776MOL0     C 4692   7.394   6.409   8.852 -0.2691  0.2725 -0.1833
  776MOL0     H 4693   6.814   6.375   8.546  0.7118  0.8594 -0.5366
  776MOL0     H 4694   6.581   6.318   8.609 -0.7435 -1.1024 -1.3412
  776MOL0     H 4695   6.455   6.087   8.583 -1.2536 -2.9633 -0.1232
  776MOL0     H 4696   6.381   5.982   8.693  0.0987 -0.3256 -1.8329
  776MOL0     H 4697   6.223   6.147   8.601  3.2532 -2.2005 -1.4404
  776MOL0     H 4698   6.312   6.279   8.657  1.2479 -0.1599 -4.5063
  776MOL0     H 4699   6.199   6.280   8.842 -0.1074  0.2365  0.1999
  776MOL0     H 4700   6.273   6.130   8.889 -2.2674 -0.2457  1.2794
  776MOL0     H 4701   6.007   6.177   8.751  1.5766  1.2949 -0.4882
  776MOL0     H 4702   6.080   6.013   8.759 -0.9715  0.1388  0.1951
  776MOL0     H 4703   6.081   6.070   9.017  1.5444 -1.0870 -2.5432
  776MOL0     H 4704   5.965   6.196   8.984  0.3070  0.0977  0.7562
  776MOL0     H 4705   5.837   6.000   8.847 -1.3453 -0.2827  0.7810
  776MOL0     H 4706   5.927   5.898   8.957  0.7133 -0.2113  2.9248
  776MOL0     H 4707   5.745   6.131   9.037 -0.4205  0.0427 -2.0704
  776MOL0     H 4708   5.827   6.011   9.142 -0.0019  0.7732 -0.4179
  776MOL0     H 4709   5.711   5.831   8.991  2.5648  1.2110 -2.6165
  776MOL0     H 4710   5.629   5.914   9.125 -0.2454  2.0787 -0.5778
  776MOL0     H 4711   5.638   5.825   8.762 -2.3253 -1.0083  0.6624
  776MOL0     H 4712   5.410   5.883   8.571  2.1957  0.4670 -0.9569
  776MOL0     H 4713   5.375   6.065   8.592  0.4680  0.5660  2.0264
  776MOL0     H 4714   5.511   6.003   8.378 -1.1972 -0.0379  0.6242
  776MOL0     H 4715   5.593   6.116   8.486  1.9707 -0.2605 -2.0931
  776MOL0     H 4716   5.620   5.810   8.494 -2.7956  0.0907 -0.0058
  776MOL0     H 4717   5.718   5.925   8.578  0.5433 -0.6891 -0.2612
  776MOL0     H 4718   5.704   5.940   8.278 -0.2893  3.3751  0.4813
  776MOL0     H 4719   5.830   5.857   8.376  1.0311  0.5505  1.3855
  776MOL0     H 4720   5.912   5.924   8.173 -0.1538  0.2200  1.2540
  776MOL0     H 4721   6.117   5.960   8.060 -2.7941 -1.6070 -0.2353
  776MOL0     H 4722   6.397   6.037   7.778  0.0309 -0.2818  0.3713
  776MOL0     H 4723   6.614   6.029   7.665 -0.2907  0.7074 -0.3739
  776MOL0     H 4724   6.977   6.138   7.901  0.3448 -0.7740  2.7410
  776MOL0     H 4725   6.947   5.972   7.935  0.0803 -0.6123 -0.1926
  776MOL0     H 4726   7.049   5.899   7.710  2.3454 -0.4903  2.5215
  776MOL0     H 4727   7.075   6.074   7.673  0.5917  2.3083  1.0047
  776MOL0     H 4728   7.217   6.082   7.870 -2.2045  1.1961 -0.8049
  776MOL0     H 4729   7.215   5.904   7.881  0.3103 -0.1911  0.1031
  776MOL0     H 4730   7.346   6.100   7.690  0.7406 -0.8930 -1.0950
  776MOL0     H 4731   7.265   5.978   7.605 -0.2262 -0.8398  0.6036
  776MOL0     H 4732   7.384   5.811   7.677 -2.1064 -0.1847  2.0517
  776MOL0     H 4733   7.479   5.893   7.813  0.9460 -0.7301 -0.6731
  776MOL0     H 4734   7.502   5.945   7.507  4.0549 -0.9060 -1.9958
  776MOL0     H 4735   7.604   6.031   7.629 -0.5634  0.1112  0.5915
  776MOL0     H 4736   7.622   5.732   7.624  0.2996 -0.7131 -0.1588
  776MOL0     H 4737   7.718   5.856   7.707  2.1163 -0.9312 -0.2543
  776MOL0     H 4738   7.691   5.855   7.404  0.0932 -1.2642  0.0279
  776MOL0     H 4739   7.825   5.918   7.501  0.4395 -0.1062 -0.3885
  776MOL0     H 4740   6.800   6.129   8.035 -0.1061  0.3902  0.9869
  776MOL0     H 4741   6.575   6.143   8.137 -0.9354 -1.6966  0.8961
  776MOL0     H 4742   6.202   6.298   8.328 -0.9669 -0.6862  1.4966
  776MOL0     H 4743   5.987   6.255   8.439 -0.6628  0.1255 -0.5353
  776MOL0     H 4744   6.734   6.012   8.883  0.4966 -1.5972 -2.1633
  776MOL0     H 4745   6.958   6.090   8.828 -0.2024 -1.3015 -4.0070
  776MOL0     H 4746   7.206   6.115   8.515 -1.7061 -1.8362  2.7512
  776MOL0     H 4747   7.409   6.080   8.431 -1.4212  0.2401  0.2450
  776MOL0     H 4748   7.624   6.010   8.368 -0.6372 -2.4132 -0.4998
  776MOL0     H 4749   7.631   5.950   8.535  0.6429  0.8704 -0.1563
  776MOL0     H 4750   7.834   5.882   8.422  1.9924  0.3300 -2.2179
  776MOL0     H 4751   7.877   5.985   8.545  2.8113 -0.9937 -1.1659
  776MOL0     H 4752   7.910   6.172   8.392 -2.5034  1.1958 -0.8979
  776MOL0     H 4753   7.821   6.094   8.256  2.3434 -1.2760 -0.9220
  776MOL0     H 4754   7.990   5.918   8.269  2.7168 -0.3438 -0.2752
  776MOL0     H 4755   8.048   6.077   8.216  0.4836 -1.5749 -1.5416
  776MOL0     H 4756   8.259   6.020   8.581 -2.0039 -0.4525  0.6638
  776MOL0     H 4757   7.611   6.304   8.724  2.1026 -1.0323 -3.7224
  776MOL0     H 4758   7.399   6.356   8.947  1.2466 -0.6860 -0.7573
  776MOL0     H 4759   7.483   6.473   8.851 -0.5829  0.7325 -1.5715
  776MOL0     H 4760   7.305   6.472   8.847 -2.2325 -2.3607 -0.6455
  777MOL0     O 4761   0.107   3.673   2.291 -0.1310  0.6504 -0.5162
  777MOL0     C 4762   0.016   3.748   2.327 -0.3076  0.3761  0.1554
  777MOL0     O 4763   0.015   3.825   2.439 -0.1140 -0.0382  0.2723
  777MOL0     C 4764   0.116   3.818   2.525  0.2929 -0.1713  0.2565
  777MOL0     C 4765   0.234   3.890   2.512 -0.5284  0.5755 -0.1755
  777MOL0     C 4766   0.335   3.883   2.608  0.4303  0.3397 -0.0225
  777MOL0     C 4767   0.316   3.793   2.714 -0.3360  1.3581 -0.2609
  777MOL0     O 4768   0.410   3.780   2.812 -0.1187  0.3245 -0.0180
  777MOL0     C 4769   0.546   3.758   2.778 -0.5139  0.3021  0.2464
  777MOL0     C 4770   0.595   3.655   2.886  0.0512  0.0059 -0.1265
  777MOL0     C 4771   0.738   3.651   2.881 -0.2942 -0.5139  1.0877
  777MOL0     C 4772   0.799   3.545   2.963 -0.6001  0.4222  0.3523
  777MOL0     C 4773   0.946   3.557   2.958 -0.5036 -0.0787 -0.0353
  777MOL0     C 4774   1.010   3.469   3.069  0.2341  1.4385 -0.8572
  777MOL0     C 4775   1.153   3.444   3.030  0.0276  0.6607  0.2159
  777MOL0     C 4776   1.223   3.352   3.132  0.0610 -0.6656  0.0911
  777MOL0     N 4777   1.354   3.310   3.080 -1.0405  0.8572 -0.7065
  777MOL0     C 4778   1.378   3.193   3.013 -0.3231 -0.6965  0.4334
  777MOL0     C 4779   1.509   3.199   2.981  0.0258  0.5810  0.1177
  777MOL0     C 4780   1.573   3.079   2.937  0.6225  0.1351 -0.6475
  777MOL0     C 4781   1.590   2.969   3.044  0.3599 -0.2348 -0.6688
  777MOL0     C 4782   1.654   2.840   2.995  0.1860  0.1078 -0.4028
  777MOL0     C 4783   1.802   2.840   2.967 -0.5457 -0.1397  0.6908
  777MOL0     O 4784   1.837   2.702   2.925  0.6767 -0.5451  0.3500
  777MOL0     C 4785   1.965   2.684   2.887 -0.0291 -0.0885  0.5224
  777MOL0     C 4786   1.991   2.595   2.779  0.0004 -0.3479 -0.7348
  777MOL0     C 4787   2.121   2.573   2.732 -0.8181 -0.2851 -0.0102
  777MOL0     C 4788   2.234   2.645   2.786 -0.4182  0.5926 -0.0388
  777MOL0     C 4789   2.365   2.642   2.717 -0.7118 -0.1292 -0.4237
  777MOL0     O 4790   2.482   2.678   2.790  0.0535  0.1441  0.9137
  777MOL0     C 4791   2.599   2.691   2.715 -0.1862 -0.8527  0.0002
  777MOL0     C 4792   2.699   2.605   2.744 -0.2173  0.0151 -0.0524
  777MOL0     C 4793   2.819   2.612   2.663  0.7491 -0.4400  0.2835
  777MOL0     C 4794   2.849   2.724   2.580  0.6169  0.1405  0.0019
  777MOL0     O 4795   2.970   2.735   2.503 -0.0022  0.0755 -0.3813
  777MOL0     C 4796   3.055   2.622   2.500 -1.0692  0.0849 -0.5511
  777MOL0     C 4797   3.185   2.641   2.420  0.1732  0.5056  0.0676
  777MOL0     C 4798   3.251   2.772   2.469 -0.8409  0.0819 -0.4201
  777MOL0     C 4799   3.372   2.810   2.376 -0.0427 -0.2679  0.9842
  777MOL0     C 4800   3.459   2.934   2.413  0.5001  0.3784 -0.3336
  777MOL0     C 4801   3.512   3.005   2.287 -0.0046  0.3062 -0.3894
  777MOL0     C 4802   3.561   3.156   2.312  0.4334  1.2696 -0.3555
  777MOL0     C 4803   3.597   3.237   2.191 -0.3834  0.9161  0.0133
  777MOL0    Cl 4804   3.584   3.403   2.235 -0.3609  0.2578 -0.0534
  777MOL0     C 4805   2.746   2.827   2.572  0.0055 -0.0958  0.0963
  777MOL0     C 4806   2.620   2.805   2.626  0.5092 -0.9179  0.6002
  777MOL0     O 4807   2.365   2.632   2.589 -0.1350 -0.5316  0.6853
  777MOL0     C 4808   2.203   2.722   2.897 -0.5059  0.4613 -0.1008
  777MOL0     C 4809   2.076   2.745   2.943  0.1669 -0.6448  0.4869
  777MOL0     N 4810   1.558   3.316   3.031  0.6357  0.2595 -0.3846
  777MOL0     N 4811   1.465   3.386   3.086  0.2035 -0.6829 -0.1754
  777MOL0     C 4812   0.193   3.718   2.728  0.0879  0.7018  0.4309
  777MOL0     C 4813   0.096   3.734   2.631 -1.0131  0.0380 -0.5722
  777MOL0     C 4814  -0.106   3.739   2.239  0.1275 -0.1971 -0.4539
  777MOL0     C 4815  -0.089   3.667   2.114  0.3499  0.9376 -0.0422
  777MOL0     C 4816  -0.203   3.649   2.030  0.2697 -0.0179  0.2047
  777MOL0     C 4817  -0.324   3.709   2.062 -1.2264 -0.6738 -0.7394
  777MOL0     O 4818  -0.441   3.694   1.988  0.7072  0.0631 -0.1943
  777MOL0     C 4819  -0.426   3.707   1.844  0.1029  0.0110  0.1954
  777MOL0     C 4820  -0.556   3.767   1.779 -0.7842 -0.0755 -0.4864
  777MOL0     C 4821  -0.549   3.922   1.803 -0.2314 -0.4194  0.0375
  777MOL0     C 4822  -0.681   3.985   1.780  0.3502 -0.0385  1.4789
  777MOL0     C 4823  -0.722   4.003   1.634  0.4419  0.5759 -0.3322
  777MOL0     C 4824  -0.746   4.002   1.512  0.3770 -0.5851 -1.0561
  777MOL0     C 4825  -0.334   3.781   2.180  0.6063  0.0196  0.2243
  777MOL0     C 4826  -0.227   3.801   2.267  0.1713 -0.0335  0.3738
  777MOL0     C 4827  -0.254   3.870   2.396 -0.3694 -0.7562  0.6511
  777MOL0     H 4828   0.255   3.953   2.426  2.3362  0.3946  0.3183
  777MOL0     H 4829   0.426   3.941   2.595  1.4443 -1.0546  0.5893
  777MOL0     H 4830   0.563   3.715   2.679  3.1593 -1.3506  1.4231
  777MOL0     H 4831   0.594   3.856   2.787  1.6950 -0.7211  0.3831
  777MOL0     H 4832   0.560   3.557   2.850  0.2312  0.1995 -0.8512
  777MOL0     H 4833   0.556   3.680   2.984  2.5936  0.2093  0.9055
  777MOL0     H 4834   0.780   3.745   2.917  1.7498 -1.0924  0.3513
  777MOL0     H 4835   0.767   3.646   2.775 -1.3572 -1.4276  0.8245
  777MOL0     H 4836   0.759   3.551   3.064 -0.6882  4.2883  0.2262
  777MOL0     H 4837   0.771   3.447   2.923  1.0432  0.4499 -1.0065
  777MOL0     H 4838   0.973   3.521   2.859  0.5191 -0.1654  0.2579
  777MOL0     H 4839   0.978   3.662   2.967 -0.1209 -0.0991 -1.0478
  777MOL0     H 4840   1.000   3.521   3.164  2.3256 -1.8384  1.3522
  777MOL0     H 4841   0.952   3.377   3.077  1.8914  0.5219  1.8466
  777MOL0     H 4842   1.207   3.539   3.028  0.6591  0.3799  1.9593
  777MOL0     H 4843   1.160   3.398   2.930  3.4743  2.6531 -0.6496
  777MOL0     H 4844   1.242   3.413   3.221  4.1602 -0.1941 -0.8679
  777MOL0     H 4845   1.171   3.259   3.156 -2.0382  0.4838  0.2304
  777MOL0     H 4846   1.315   3.105   3.002 -2.5738  0.7203  1.2309
  777MOL0     H 4847   1.515   3.044   2.851  0.2533  1.6223 -1.0374
  777MOL0     H 4848   1.670   3.112   2.897  0.8666  1.3924  0.8827
  777MOL0     H 4849   1.644   3.017   3.126  0.7643  0.5575 -1.3745
  777MOL0     H 4850   1.490   2.950   3.081 -0.2192  1.8598 -0.9997
  777MOL0     H 4851   1.592   2.802   2.913  2.7870  2.3664 -3.6881
  777MOL0     H 4852   1.645   2.783   3.088 -0.0747  0.9261  0.0814
  777MOL0     H 4853   1.857   2.867   3.057 -1.5407 -4.3777  2.8666
  777MOL0     H 4854   1.825   2.902   2.880  1.6227  0.8525  1.8944
  777MOL0     H 4855   1.908   2.536   2.742 -1.8216  2.4095 -1.3409
  777MOL0     H 4856   2.134   2.508   2.647  2.0562  0.9398 -0.6156
  777MOL0     H 4857   2.698   2.537   2.829 -0.7075 -1.2694 -1.0468
  777MOL0     H 4858   2.896   2.542   2.695  0.9150 -1.5893 -2.4306
  777MOL0     H 4859   3.087   2.609   2.603 -1.8888  1.8424 -0.0355
  777MOL0     H 4860   2.999   2.537   2.459  1.5736 -0.9762 -2.2403
  777MOL0     H 4861   3.241   2.548   2.434 -2.8510 -1.2764  1.5308
  777MOL0     H 4862   3.149   2.649   2.317 -0.7060  2.1172  0.4731
  777MOL0     H 4863   3.174   2.849   2.480 -1.6393 -0.9166  1.6459
  777MOL0     H 4864   3.288   2.751   2.570  0.8407 -1.0796 -1.2354
  777MOL0     H 4865   3.334   2.822   2.274  2.4453 -1.3148 -0.1566
  777MOL0     H 4866   3.431   2.718   2.376 -1.0757 -0.9572  0.5397
  777MOL0     H 4867   3.539   2.890   2.473  0.0170 -0.4397 -0.2781
  777MOL0     H 4868   3.403   3.007   2.472  0.3266 -1.3997  1.8337
  777MOL0     H 4869   3.597   2.952   2.243  0.8344 -0.3091  1.8077
  777MOL0     H 4870   3.431   3.006   2.213  0.1432 -2.3034 -0.7039
  777MOL0     H 4871   3.652   3.159   2.372  0.7983  1.1326 -0.8978
  777MOL0     H 4872   3.483   3.200   2.376 -0.4690  0.3384 -0.8067
  777MOL0     H 4873   3.700   3.221   2.157  0.8505  3.8977  1.9356
  777MOL0     H 4874   3.531   3.219   2.106 -1.3570  2.8263  0.3123
  777MOL0     H 4875   2.761   2.929   2.539 -2.0663 -0.1150 -1.1063
  777MOL0     H 4876   2.549   2.886   2.623 -0.9623 -2.1287  1.5219
  777MOL0     H 4877   2.283   2.777   2.947  0.0354  0.2952 -0.7628
  777MOL0     H 4878   2.065   2.799   3.037 -1.4096 -3.2683  1.9319
  777MOL0     H 4879   0.171   3.657   2.815  1.2105 -1.8510 -0.9724
  777MOL0     H 4880   0.003   3.678   2.634  1.2633 -4.3972 -2.1668
  777MOL0     H 4881   0.006   3.620   2.090 -0.1723 -0.6051  0.7373
  777MOL0     H 4882  -0.204   3.598   1.934 -0.9397 -0.8605  0.6389
  777MOL0     H 4883  -0.406   3.606   1.808  0.8541  0.9217 -2.1288
  777MOL0     H 4884  -0.334   3.762   1.824  0.1705  0.3830  1.4350
  777MOL0     H 4885  -0.651   3.724   1.810 -0.9661 -0.0477 -1.0012
  777MOL0     H 4886  -0.557   3.746   1.672 -0.2559 -0.1089 -0.4889
  777MOL0     H 4887  -0.471   3.955   1.734 -0.7668  2.3571  0.6167
  777MOL0     H 4888  -0.519   3.937   1.907  1.6711 -1.0424 -0.3995
  777MOL0     H 4889  -0.750   3.926   1.841  1.0806 -0.4234  1.9453
  777MOL0     H 4890  -0.674   4.085   1.824  0.1172  0.4742  0.3863
  777MOL0     H 4891  -0.775   4.013   1.410 -1.6552  0.2742 -0.4385
  777MOL0     H 4892  -0.432   3.818   2.209  0.5345 -0.1205  0.1628
  777MOL0     H 4893  -0.362   3.857   2.407 -0.6062 -0.5094 -1.0864
  777MOL0     H 4894  -0.212   3.804   2.472  1.1307 -0.7990 -0.1570
  777MOL0     H 4895  -0.216   3.973   2.395 -0.7754 -0.5763 -1.3615
  778MOL0     O 4896   6.095   4.572   4.951 -0.1775 -0.5411  0.4934
  778MOL0     C 4897   6.076   4.659   4.864 -0.3922  0.4671 -1.7014
  778MOL0     O 4898   6.122   4.788   4.873  0.4480 -0.1327 -0.2135
  778MOL0     C 4899   6.242   4.818   4.944  0.1281  0.4269  0.3807
  778MOL0     C 4900   6.281   4.942   4.947  0.0013 -0.7559 -0.0245
  778MOL0     C 4901   6.383   4.988   5.021 -1.9930 -0.6122  0.4643
  778MOL0     C 4902   6.470   4.896   5.089 -1.6462  0.7720  0.1216
  778MOL0     O 4903   6.586   4.945   5.147 -0.2401 -0.2991 -0.0211
  778MOL0     C 4904   6.633   5.086   5.130  0.3009  0.3676 -0.9410
  778MOL0     C 4905   6.761   5.116   5.202  0.4341  0.0224 -0.2634
  778MOL0     C 4906   6.875   5.028   5.155  0.4248 -0.4324  0.5426
  778MOL0     C 4907   7.010   5.072   5.214 -0.6001  0.2019  0.0198
  778MOL0     C 4908   7.121   4.973   5.164 -0.2602  0.5780 -0.2273
  778MOL0     C 4909   7.258   5.015   5.216  0.0485 -0.3891  0.1641
  778MOL0     C 4910   7.318   5.135   5.136 -0.4429  0.3168 -0.4543
  778MOL0     C 4911   7.434   5.107   5.038 -1.0932  0.0128 -0.3310
  778MOL0     N 4912   7.564   5.092   5.113  1.2269  1.2117  0.3842
  778MOL0     C 4913   7.668   5.170   5.140 -0.6677 -0.9024 -0.2423
  778MOL0     C 4914   7.747   5.103   5.221 -0.2321  0.1476 -0.7313
  778MOL0     C 4915   7.885   5.145   5.266  0.6620 -0.2983 -0.0815
  778MOL0     C 4916   7.989   5.057   5.188  0.8356 -0.0720 -0.1796
  778MOL0     C 4917   8.142   5.086   5.235  0.1259 -0.3910 -0.2924
  778MOL0     C 4918   8.221   5.075   5.114  0.1969 -0.0182  0.2490
  778MOL0     O 4919   8.360   5.062   5.138 -1.0707  0.3318 -0.2500
  778MOL0     C 4920   8.440   5.165   5.178  0.4670  0.3063  0.2412
  778MOL0     C 4921   8.565   5.124   5.221  0.2597  0.3190 -0.4706
  778MOL0     C 4922   8.650   5.218   5.284 -0.1814  0.2528 -0.0059
  778MOL0     C 4923   8.607   5.346   5.314  0.4658 -0.4449 -0.3670
  778MOL0     C 4924   8.702   5.443   5.380 -0.9620  0.7821  0.5571
  778MOL0     O 4925   8.824   5.395   5.411  0.4047 -0.7255  0.1309
  778MOL0     C 4926   8.909   5.489   5.465  0.0175  0.2031 -0.9699
  778MOL0     C 4927   8.879   5.584   5.566  0.8923  0.5465 -0.6490
  778MOL0     C 4928   8.985   5.660   5.607 -0.8544 -1.2682 -0.6803
  778MOL0     C 4929   9.107   5.669   5.547  0.5638  0.7799  0.6320
  778MOL0     O 4930   9.190   5.767   5.583  0.2883 -0.2208 -0.3206
  778MOL0     C 4931   9.307   5.715   5.645  0.6300  0.3555  1.3513
  778MOL0     C 4932   9.426   5.754   5.562 -0.0619  0.1156 -0.0239
  778MOL0     C 4933   9.544   5.681   5.614 -0.1507  0.1261 -0.5666
  778MOL0     C 4934   9.672   5.745   5.563 -0.2263  0.2583 -0.5227
  778MOL0     C 4935   9.793   5.687   5.640 -0.6173 -0.4536 -0.2153
  778MOL0     C 4936   9.900   5.796   5.655  0.5030  0.7993  0.2084
  778MOL0     C 4937   9.963   5.841   5.516  0.1554  0.6402  0.3459
  778MOL0     C 4938  10.084   5.934   5.527 -0.4396  0.0173  0.6044
  778MOL0    Cl 4939  10.221   5.854   5.629 -0.6437  0.3128 -0.0083
  778MOL0     C 4940   9.133   5.572   5.443 -0.4619  0.3597  0.4707
  778MOL0     C 4941   9.035   5.481   5.406 -0.2998  0.1245 -0.3894
  778MOL0     O 4942   8.670   5.559   5.384  1.0769 -0.4664 -0.2918
  778MOL0     C 4943   8.478   5.391   5.273 -0.7082  0.1670 -0.2181
  778MOL0     C 4944   8.398   5.298   5.201  0.3650 -0.3453 -0.7752
  778MOL0     N 4945   7.692   4.976   5.242  0.3447  0.6832 -0.1786
  778MOL0     N 4946   7.573   4.979   5.191  0.0986  0.7028  0.1468
  778MOL0     C 4947   6.439   4.761   5.080  0.2246 -0.1540 -1.0811
  778MOL0     C 4948   6.328   4.723   5.011  0.7117  1.0198 -0.0920
  778MOL0     C 4949   5.989   4.631   4.742 -0.1354  0.1197 -0.3066
  778MOL0     C 4950   5.913   4.736   4.684 -0.6010  0.0033 -0.1458
  778MOL0     C 4951   5.826   4.714   4.573  0.6082  0.1871 -0.0646
  778MOL0     C 4952   5.787   4.585   4.525  0.6463  0.0929 -0.1995
  778MOL0     O 4953   5.703   4.557   4.423  0.8324  0.0442  0.4531
  778MOL0     C 4954   5.583   4.637   4.401  0.6264 -0.1897 -0.8697
  778MOL0     C 4955   5.494   4.650   4.532  0.1675 -1.0474 -0.0962
  778MOL0     C 4956   5.462   4.519   4.601  0.2274  1.1225  0.5612
  778MOL0     C 4957   5.335   4.448   4.535 -0.2385  1.1179 -0.0543
  778MOL0     C 4958   5.209   4.498   4.590  0.1252  0.7860  0.7374
  778MOL0     C 4959   5.100   4.540   4.620  0.1814  1.2961  0.3914
  778MOL0     C 4960   5.864   4.486   4.587  0.1647 -0.2939 -0.2437
  778MOL0     C 4961   5.966   4.507   4.679 -0.5038 -0.4065 -0.2639
  778MOL0     C 4962   6.035   4.376   4.712 -0.5570 -0.1391  0.8830
  778MOL0     H 4963   6.220   5.011   4.890 -0.1585 -1.4040 -0.6609
  778MOL0     H 4964   6.416   5.091   5.012 -1.3123 -0.9667 -1.7480
  778MOL0     H 4965   6.634   5.115   5.024 -1.6282  2.5331 -0.4587
  778MOL0     H 4966   6.562   5.147   5.187 -0.5357 -1.3569 -0.0591
  778MOL0     H 4967   6.743   5.091   5.307  0.9974 -1.9581 -0.5922
  778MOL0     H 4968   6.782   5.222   5.184 -0.2235  0.5642  1.8551
  778MOL0     H 4969   6.874   5.027   5.045 -1.6880  0.2767  0.5187
  778MOL0     H 4970   6.862   4.924   5.186  0.1668 -0.2991  0.8886
  778MOL0     H 4971   7.034   5.172   5.175 -1.1377  0.4338  0.2774
  778MOL0     H 4972   7.003   5.073   5.323  2.0365  0.1208  0.2661
  778MOL0     H 4973   7.097   4.870   5.191  0.4337  0.1170 -1.2841
  778MOL0     H 4974   7.117   4.961   5.055  1.9745  0.2135 -0.3065
  778MOL0     H 4975   7.254   5.037   5.323 -0.6348  0.3687 -0.0067
  778MOL0     H 4976   7.322   4.928   5.196 -0.9205 -1.3096  0.9455
  778MOL0     H 4977   7.347   5.217   5.202 -1.4456  0.4678 -0.1775
  778MOL0     H 4978   7.237   5.177   5.076 -1.2108 -1.3653 -0.6480
  778MOL0     H 4979   7.412   5.019   4.977 -0.8924  0.1970 -0.6726
  778MOL0     H 4980   7.450   5.191   4.970 -1.7718  0.9956  0.6821
  778MOL0     H 4981   7.690   5.273   5.115  1.9846 -0.6877  2.3358
  778MOL0     H 4982   7.903   5.252   5.252 -1.4166  0.0041 -0.7417
  778MOL0     H 4983   7.894   5.128   5.374  0.9782  0.7989  0.0772
  778MOL0     H 4984   7.968   4.950   5.194 -4.0330  0.2736 -4.3627
  778MOL0     H 4985   7.971   5.080   5.082  1.6337  0.7348 -0.1566
  778MOL0     H 4986   8.167   5.023   5.321 -0.0838 -1.1286 -0.7624
  778MOL0     H 4987   8.136   5.189   5.270  1.4901 -0.3411 -0.1713
  778MOL0     H 4988   8.213   5.158   5.043  2.4813 -1.2702 -1.6171
  778MOL0     H 4989   8.187   4.985   5.062 -1.0981 -0.7390  2.2394
  778MOL0     H 4990   8.592   5.020   5.207  0.2408  0.5707 -2.7791
  778MOL0     H 4991   8.741   5.175   5.326 -1.9894 -1.9188  1.9640
  778MOL0     H 4992   8.778   5.586   5.605  0.2268  0.4826 -2.2938
  778MOL0     H 4993   8.980   5.734   5.687  2.6610 -0.2381 -1.2273
  778MOL0     H 4994   9.315   5.759   5.745  3.3214  0.1160  1.3077
  778MOL0     H 4995   9.306   5.608   5.666 -0.8317 -0.2331 -1.3106
  778MOL0     H 4996   9.421   5.728   5.456  0.3593  2.5365 -0.7107
  778MOL0     H 4997   9.446   5.861   5.572  0.2993 -0.1293  2.5014
  778MOL0     H 4998   9.541   5.685   5.723 -1.2294 -2.4495 -0.4286
  778MOL0     H 4999   9.560   5.578   5.580  1.7381  0.6115 -1.3010
  778MOL0     H 5000   9.654   5.851   5.583 -3.2035 -0.4905  1.2726
  778MOL0     H 5001   9.681   5.725   5.456  0.4043 -0.2354 -0.3785
  778MOL0     H 5002   9.826   5.598   5.586 -1.9490 -1.5854  0.7767
  778MOL0     H 5003   9.773   5.644   5.739  0.1873 -2.1685 -0.7569
  778MOL0     H 5004   9.846   5.882   5.696  0.2266  0.5296  0.4165
  778MOL0     H 5005   9.985   5.762   5.715 -0.2507  0.2136  0.9693
  778MOL0     H 5006   9.888   5.899   5.461  0.1899 -1.4028 -1.9777
  778MOL0     H 5007   9.996   5.751   5.465 -0.8912 -0.0017  0.7677
  778MOL0     H 5008  10.126   5.966   5.431 -0.1771  0.0890  0.7407
  778MOL0     H 5009  10.050   6.029   5.568 -1.5425  0.6535 -1.6232
  778MOL0     H 5010   9.223   5.569   5.383 -1.8297 -0.0199 -1.6772
  778MOL0     H 5011   9.050   5.409   5.327  3.5240  0.1096  0.1971
  778MOL0     H 5012   8.443   5.494   5.285 -0.3492  0.0572  2.1061
  778MOL0     H 5013   8.294   5.325   5.182 -0.6133 -1.3113  2.3949
  778MOL0     H 5014   6.496   4.686   5.134 -2.6113  0.1011  2.6351
  778MOL0     H 5015   6.312   4.616   5.022  1.2031  1.0396  0.9758
  778MOL0     H 5016   5.943   4.835   4.716  0.1795 -0.2240 -0.1465
  778MOL0     H 5017   5.779   4.804   4.534  2.1674  0.2977 -1.8189
  778MOL0     H 5018   5.527   4.590   4.320  0.3100 -1.6856  0.1840
  778MOL0     H 5019   5.608   4.736   4.361 -1.4836  1.4350  1.5553
  778MOL0     H 5020   5.407   4.712   4.508  1.8044  2.0614  1.3582
  778MOL0     H 5021   5.545   4.715   4.604  0.5634 -0.0625 -1.2200
  778MOL0     H 5022   5.434   4.549   4.703  1.5781  2.0249  0.7007
  778MOL0     H 5023   5.552   4.456   4.600  0.6968  1.7615  1.4072
  778MOL0     H 5024   5.337   4.449   4.425  2.1678 -0.7642 -0.1121
  778MOL0     H 5025   5.329   4.343   4.565 -2.1726  1.0009 -0.7056
  778MOL0     H 5026   5.002   4.561   4.657 -0.6465 -0.9961 -0.3705
  778MOL0     H 5027   5.848   4.390   4.539 -3.2513  1.0871 -2.2308
  778MOL0     H 5028   5.965   4.292   4.712 -1.6661  0.7611  0.3979
  778MOL0     H 5029   6.111   4.364   4.633 -2.1964 -1.4507 -0.5851
  778MOL0     H 5030   6.087   4.379   4.808 -0.7243  1.3960  0.9413
  779MOL0     O 5031   4.257   6.323   3.949 -0.4827  0.2362  0.1239
  779MOL0     C 5032   4.310   6.433   3.983 -0.0051 -0.9963  0.0136
  779MOL0     O 5033   4.255   6.525   4.064 -0.2953 -0.5826  0.5231
  779MOL0     C 5034   4.157   6.498   4.151  0.1611 -0.0145 -0.7242
  779MOL0     C 5035   4.059   6.607   4.174 -0.2279 -0.1052 -0.6914
  779MOL0     C 5036   3.948   6.593   4.249  0.4020  1.4652  0.2817
  779MOL0     C 5037   3.926   6.471   4.321 -0.2641  0.2297  0.2872
  779MOL0     O 5038   3.822   6.462   4.401 -0.0563  0.6001  0.3271
  779MOL0     C 5039   3.814   6.380   4.506  0.2107  0.0256 -0.5240
  779MOL0     C 5040   3.703   6.429   4.615 -0.1619  0.3322  0.7979
  779MOL0     C 5041   3.735   6.561   4.687 -0.3891  1.0090  0.4592
  779MOL0     C 5042   3.843   6.556   4.799  1.1598 -0.4263 -0.0478
  779MOL0     C 5043   3.843   6.686   4.892  0.8711  0.1956 -0.0799
  779MOL0     C 5044   3.928   6.654   5.018 -0.4268 -0.5305 -0.2100
  779MOL0     C 5045   3.935   6.779   5.103 -0.4148  0.2038 -0.2626
  779MOL0     C 5046   4.010   6.896   5.031 -0.4754  0.1845 -0.5385
  779MOL0     N 5047   4.052   6.999   5.127  0.2883  0.6127  0.5370
  779MOL0     C 5048   4.147   6.978   5.216  0.4060  0.0066 -0.3231
  779MOL0     C 5049   4.168   7.100   5.280  0.7816  0.2494 -0.2239
  779MOL0     C 5050   4.275   7.119   5.396  0.2115 -0.4840 -0.1011
  779MOL0     C 5051   4.398   7.200   5.346  0.6653 -0.0749 -0.0412
  779MOL0     C 5052   4.499   7.228   5.455  0.1811  0.4027  1.0304
  779MOL0     C 5053   4.622   7.312   5.403  0.4363  0.4070  0.1744
  779MOL0     O 5054   4.713   7.311   5.513 -0.0711 -0.2051 -0.3524
  779MOL0     C 5055   4.830   7.388   5.501 -0.1486  0.9084 -0.5707
  779MOL0     C 5056   4.924   7.379   5.605 -0.0637 -0.0309 -0.1078
  779MOL0     C 5057   5.043   7.448   5.603  0.1095 -0.2095  0.8781
  779MOL0     C 5058   5.079   7.517   5.489 -1.0469 -1.1988 -0.0354
  779MOL0     C 5059   5.209   7.579   5.487 -0.8551  0.0163 -0.7519
  779MOL0     O 5060   5.281   7.593   5.603  0.4552  0.3248 -0.2306
  779MOL0     C 5061   5.413   7.615   5.604  0.7634  1.1082  0.0018
  779MOL0     C 5062   5.504   7.585   5.500 -0.2730  0.8059 -0.8129
  779MOL0     C 5063   5.648   7.597   5.519 -0.2365 -0.6136 -0.3506
  779MOL0     C 5064   5.701   7.626   5.642 -0.5562 -0.1914  0.0341
  779MOL0     O 5065   5.837   7.642   5.670  1.1280  0.0281 -0.0213
  779MOL0     C 5066   5.893   7.601   5.801  0.3385  0.0124 -0.1186
  779MOL0     C 5067   6.039   7.573   5.799 -0.7411  0.0900  0.4586
  779MOL0     C 5068   6.111   7.691   5.738  0.2325 -0.1809  0.3837
  779MOL0     C 5069   6.261   7.688   5.777  0.2910  0.7147 -0.1856
  779MOL0     C 5070   6.322   7.815   5.731  0.5275 -0.7321 -0.2991
  779MOL0     C 5071   6.468   7.841   5.764 -0.4181 -0.3645 -0.5421
  779MOL0     C 5072   6.524   7.952   5.669 -0.1699  0.1285  0.1121
  779MOL0     C 5073   6.664   7.993   5.709  0.0549  0.1695 -0.2975
  779MOL0    Cl 5074   6.736   8.107   5.593  0.2348  0.2173  0.6594
  779MOL0     C 5075   5.607   7.651   5.743 -0.9321  0.1176  0.3384
  779MOL0     C 5076   5.470   7.646   5.722  0.3237  1.0386  0.1170
  779MOL0     O 5077   5.232   7.641   5.383  0.7871  0.5376 -0.1354
  779MOL0     C 5078   4.990   7.528   5.385 -0.1073 -0.4662 -0.2651
  779MOL0     C 5079   4.865   7.463   5.387  0.0473  0.5054 -0.0826
  779MOL0     N 5080   4.073   7.180   5.231  0.0256 -0.6898 -0.9230
  779MOL0     N 5081   4.005   7.126   5.132  0.2839 -0.6142  0.6627
  779MOL0     C 5082   4.017   6.363   4.305  0.2439 -0.2415  0.3610
  779MOL0     C 5083   4.130   6.379   4.224 -0.4979 -0.5036  0.2343
  779MOL0     C 5084   4.445   6.473   3.923 -0.0270  0.2662  0.0991
  779MOL0     C 5085   4.495   6.379   3.832 -0.9750 -0.6590 -0.1517
  779MOL0     C 5086   4.623   6.379   3.783 -0.0429  0.5850  0.2136
  779MOL0     C 5087   4.708   6.481   3.813  0.5378 -1.1053  0.7075
  779MOL0     O 5088   4.840   6.481   3.774 -0.0341  0.7876  0.0789
  779MOL0     C 5089   4.894   6.611   3.741 -0.0540 -0.3065 -0.3589
  779MOL0     C 5090   5.004   6.599   3.635 -0.3635 -0.4751  0.4016
  779MOL0     C 5091   5.139   6.547   3.687 -0.3683 -0.2196  0.2387
  779MOL0     C 5092   5.219   6.659   3.751  0.1062  0.2734  0.3442
  779MOL0     C 5093   5.337   6.603   3.818 -1.0204 -0.0312 -0.0637
  779MOL0     C 5094   5.424   6.556   3.887 -0.0167 -0.1538  0.8627
  779MOL0     C 5095   4.667   6.578   3.911 -0.0439  0.2158  0.2123
  779MOL0     C 5096   4.535   6.581   3.953  0.2792 -0.3178  0.2560
  779MOL0     C 5097   4.518   6.684   4.065  0.1060  0.1549 -1.1459
  779MOL0     H 5098   4.074   6.706   4.133 -1.0138  1.1909  1.9327
  779MOL0     H 5099   3.879   6.677   4.253 -0.9907  0.3521  0.7859
  779MOL0     H 5100   3.799   6.276   4.476 -1.5440 -0.0795  0.5200
  779MOL0     H 5101   3.908   6.380   4.561  0.5902  0.7965 -1.1459
  779MOL0     H 5102   3.694   6.352   4.691 -0.3690  1.7461  2.2638
  779MOL0     H 5103   3.603   6.434   4.569  0.2397 -0.3607 -0.1712
  779MOL0     H 5104   3.639   6.596   4.726  0.0571  1.9089  0.7799
  779MOL0     H 5105   3.757   6.631   4.606 -2.7148 -0.0281 -1.1830
  779MOL0     H 5106   3.815   6.476   4.868 -1.3975  0.7436  0.4062
  779MOL0     H 5107   3.938   6.535   4.749  1.6837  0.4759  0.5358
  779MOL0     H 5108   3.883   6.771   4.837  1.6713 -0.8465 -1.1239
  779MOL0     H 5109   3.737   6.706   4.912  0.3011  0.0671 -2.6816
  779MOL0     H 5110   3.888   6.568   5.072 -0.5280 -2.6384 -3.3840
  779MOL0     H 5111   4.030   6.624   4.995 -0.9170 -4.2767  1.7330
  779MOL0     H 5112   3.989   6.741   5.189  1.7448  0.7699 -1.2942
  779MOL0     H 5113   3.837   6.807   5.143 -0.9543 -3.6047  1.4242
  779MOL0     H 5114   4.099   6.848   4.989 -0.0358 -0.7650  1.3456
  779MOL0     H 5115   3.951   6.948   4.956 -1.6707 -0.9165 -0.4092
  779MOL0     H 5116   4.226   6.904   5.215  0.4222 -0.0539 -3.4102
  779MOL0     H 5117   4.238   7.173   5.485  0.6453 -1.9185  0.9873
  779MOL0     H 5118   4.308   7.021   5.431  4.0305 -0.1181 -2.1165
  779MOL0     H 5119   4.446   7.161   5.256 -0.0592  1.5975 -1.2011
  779MOL0     H 5120   4.359   7.293   5.304  0.4849 -0.3948 -0.5961
  779MOL0     H 5121   4.530   7.133   5.498  2.5595  0.4789 -0.3362
  779MOL0     H 5122   4.434   7.276   5.529 -4.1999 -0.2560 -2.0102
  779MOL0     H 5123   4.581   7.412   5.385 -0.9930  0.2276  2.0044
  779MOL0     H 5124   4.663   7.268   5.312 -1.4916  1.6477 -1.3877
  779MOL0     H 5125   4.918   7.325   5.699  0.1555  1.8957  1.0698
  779MOL0     H 5126   5.111   7.433   5.687  3.5747  3.7189 -0.8646
  779MOL0     H 5127   5.462   7.568   5.401 -3.5964 -3.5738  1.0379
  779MOL0     H 5128   5.708   7.592   5.429  0.2498 -0.6912 -0.0241
  779MOL0     H 5129   5.862   7.681   5.869 -0.9696  1.4399 -2.2960
  779MOL0     H 5130   5.844   7.505   5.825 -0.5475  0.5139  0.1341
  779MOL0     H 5131   6.073   7.545   5.899 -1.4603  1.7993  1.2164
  779MOL0     H 5132   6.068   7.489   5.734  0.8072  0.9421 -0.0146
  779MOL0     H 5133   6.107   7.707   5.630 -1.6697  1.7540  0.6576
  779MOL0     H 5134   6.073   7.780   5.789 -0.7005 -0.3783  0.0514
  779MOL0     H 5135   6.313   7.607   5.725  0.0695  0.7005 -0.3840
  779MOL0     H 5136   6.272   7.689   5.886 -1.0513  0.9453 -0.0356
  779MOL0     H 5137   6.264   7.891   5.785  0.6455 -2.2711  2.1606
  779MOL0     H 5138   6.304   7.820   5.623 -0.3743  0.1171 -0.1270
  779MOL0     H 5139   6.474   7.869   5.869  0.8089 -2.1795 -0.0763
  779MOL0     H 5140   6.524   7.748   5.750 -1.0911 -0.4913 -2.9736
  779MOL0     H 5141   6.451   8.034   5.679 -1.2152  0.0696 -4.8085
  779MOL0     H 5142   6.519   7.915   5.567 -0.5291 -0.1160  0.2141
  779MOL0     H 5143   6.662   8.031   5.811 -1.8556  3.5419 -1.4324
  779MOL0     H 5144   6.724   7.901   5.712 -1.5362 -0.9284 -0.8512
  779MOL0     H 5145   5.638   7.668   5.846 -1.5736  1.4959  0.3384
  779MOL0     H 5146   5.404   7.664   5.806  0.3271  0.6950  0.1985
  779MOL0     H 5147   5.023   7.597   5.309 -1.3421  0.4261 -0.0071
  779MOL0     H 5148   4.793   7.474   5.306  0.0861  0.4757 -0.1204
  779MOL0     H 5149   4.012   6.268   4.358 -1.1502  0.4974  1.6523
  779MOL0     H 5150   4.205   6.303   4.201 -0.1790 -0.3455  0.7473
  779MOL0     H 5151   4.440   6.290   3.802 -2.3795  0.5399 -1.2626
  779MOL0     H 5152   4.644   6.305   3.707  0.8225  0.8040  0.2239
  779MOL0     H 5153   4.930   6.664   3.830 -1.1317  3.2002 -1.8206
  779MOL0     H 5154   4.816   6.671   3.692 -2.1485 -3.1231 -0.7177
  779MOL0     H 5155   5.033   6.692   3.584  1.4549 -1.3851 -0.3365
  779MOL0     H 5156   4.971   6.531   3.555  0.0495  1.2025 -1.2655
  779MOL0     H 5157   5.199   6.514   3.602 -0.5530 -0.3561  0.1615
  779MOL0     H 5158   5.129   6.459   3.751  1.3875 -1.8818 -1.6254
  779MOL0     H 5159   5.241   6.739   3.679 -2.8573  1.5458  0.7124
  779MOL0     H 5160   5.160   6.699   3.834  0.1864  0.3206  0.3778
  779MOL0     H 5161   5.505   6.505   3.933  0.7917 -1.4969 -1.8413
  779MOL0     H 5162   4.738   6.647   3.955  0.2288 -0.3023  0.6031
  779MOL0     H 5163   4.597   6.758   4.077 -0.8373  0.8957  0.9239
  779MOL0     H 5164   4.425   6.740   4.054 -0.8519 -1.6160 -2.7737
  779MOL0     H 5165   4.511   6.624   4.156 -0.5087 -3.1251 -3.1887
  780MOL0     O 5166   1.732   3.512   8.808  0.5286  0.2535 -0.5689
  780MOL0     C 5167   1.681   3.611   8.866 -0.4911  0.9790  0.4975
  780MOL0     O 5168   1.745   3.718   8.917  0.1081  0.0690  0.6020
  780MOL0     C 5169   1.880   3.738   8.919 -0.4954  0.2065  0.7991
  780MOL0     C 5170   1.926   3.868   8.903  1.2291 -0.3178 -1.0814
  780MOL0     C 5171   2.058   3.899   8.928 -1.0100  0.1812  0.9937
  780MOL0     C 5172   2.154   3.795   8.936  0.1056 -0.0843  1.0191
  780MOL0     O 5173   2.286   3.806   8.956  1.0050  0.2436  0.2015
  780MOL0     C 5174   2.311   3.920   9.040  0.1735 -0.0350 -0.9170
  780MOL0     C 5175   2.460   3.919   9.090  0.9593  0.6926  0.1778
  780MOL0     C 5176   2.487   3.795   9.185 -0.5440  0.0286  0.9737
  780MOL0     C 5177   2.634   3.776   9.214 -0.8298  0.6550  0.6779
  780MOL0     C 5178   2.696   3.888   9.302  1.1947  0.1853 -0.6201
  780MOL0     C 5179   2.841   3.876   9.309 -0.3303 -0.1117  0.6052
  780MOL0     C 5180   2.906   3.993   9.379  0.0880 -0.2652  0.1107
  780MOL0     C 5181   3.045   3.957   9.418 -0.0537 -0.1836  0.2264
  780MOL0     N 5182   3.125   4.072   9.476 -0.0500  0.7894 -0.7657
  780MOL0     C 5183   3.102   4.125   9.595 -0.3536  0.1516 -0.5269
  780MOL0     C 5184   3.174   4.236   9.597  0.1496  0.4573  0.0830
  780MOL0     C 5185   3.193   4.343   9.706 -0.2698 -0.1709 -0.9455
  780MOL0     C 5186   3.192   4.484   9.645 -0.3389 -0.0071  0.1028
  780MOL0     C 5187   3.257   4.594   9.729  0.6700 -0.2395 -0.5126
  780MOL0     C 5188   3.414   4.580   9.751  0.4677  0.2367  0.9187
  780MOL0     O 5189   3.432   4.515   9.883  0.3514 -0.3610 -0.0784
  780MOL0     C 5190   3.555   4.523   9.938 -0.6363 -0.8797 -0.8610
  780MOL0     C 5191   3.672   4.546   9.860  0.0025 -0.7777 -0.5755
  780MOL0     C 5192   3.790   4.577   9.916 -0.8162 -0.3795  0.4164
  780MOL0     C 5193   3.806   4.577  10.053 -0.1728 -0.8677  0.0482
  780MOL0     C 5194   3.945   4.587  10.112 -0.1389  0.4208  0.1533
  780MOL0     O 5195   4.051   4.604  10.030 -0.0362  0.4233 -0.2450
  780MOL0     C 5196   4.177   4.577  10.079 -0.1226  0.3090  0.5099
  780MOL0     C 5197   4.253   4.678  10.145 -0.4937  0.2883 -0.3653
  780MOL0     C 5198   4.376   4.638  10.198  0.2790 -0.5468  0.8876
  780MOL0     C 5199   4.434   4.510  10.178  0.2748 -0.5818  0.0151
  780MOL0     O 5200   4.557   4.461  10.203 -1.0467  0.8231 -0.7035
  780MOL0     C 5201   4.659   4.555  10.242 -0.1796 -0.2657  0.4276
  780MOL0     C 5202   4.804   4.484  10.232  0.5078  0.2548  0.2868
  780MOL0     C 5203   4.915   4.596  10.200  0.3980  1.0300 -0.5637
  780MOL0     C 5204   5.056   4.541  10.202  0.0096  1.1354  0.1662
  780MOL0     C 5205   5.158   4.643  10.149  0.1836  1.4078  0.2709
  780MOL0     C 5206   5.299   4.594  10.142  0.6303 -0.8064  0.5041
  780MOL0     C 5207   5.376   4.582  10.272 -0.0342  0.5857  0.7818
  780MOL0     C 5208   5.464   4.704  10.294 -0.3484 -0.3527 -0.2282
  780MOL0    Cl 5209   5.378   4.862  10.298  0.0659  0.1163 -0.0121
  780MOL0     C 5210   4.345   4.411  10.124  0.7939 -0.3840 -0.0289
  780MOL0     C 5211   4.219   4.441  10.077 -0.3872 -0.7428  0.2400
  780MOL0     O 5212   3.948   4.596  10.237  0.5743  0.0773  0.6087
  780MOL0     C 5213   3.691   4.563  10.132  0.1348  0.7246 -0.8036
  780MOL0     C 5214   3.565   4.538  10.073 -0.3075 -0.4420  0.0721
  780MOL0     N 5215   3.253   4.238   9.483 -0.2639  0.0972  0.2333
  780MOL0     N 5216   3.223   4.135   9.414  0.5191 -0.3723  0.2920
  780MOL0     C 5217   2.108   3.664   8.934  0.1933 -0.4118  0.3530
  780MOL0     C 5218   1.970   3.632   8.940 -0.3186 -0.0459 -0.5819
  780MOL0     C 5219   1.534   3.599   8.887 -0.4651 -0.3696 -0.1079
  780MOL0     C 5220   1.466   3.484   8.825 -0.4235 -0.2126 -0.1932
  780MOL0     C 5221   1.329   3.463   8.817 -0.0092 -0.6916 -0.8312
  780MOL0     C 5222   1.256   3.567   8.864 -0.5866 -0.6478  0.0464
  780MOL0     O 5223   1.123   3.569   8.852 -0.4694  0.2727  0.8537
  780MOL0     C 5224   1.066   3.479   8.763  0.2373 -0.1833  0.1788
  780MOL0     C 5225   0.925   3.523   8.747 -0.8130  0.5233  0.1082
  780MOL0     C 5226   0.837   3.414   8.678  0.5352  0.1945 -0.1690
  780MOL0     C 5227   0.770   3.303   8.765  0.2405  0.7964 -0.5641
  780MOL0     C 5228   0.865   3.236   8.857 -0.3560 -0.0204  0.5844
  780MOL0     C 5229   0.925   3.154   8.927 -0.3574  0.6398  0.7854
  780MOL0     C 5230   1.308   3.677   8.923  0.2735 -0.8172 -0.0721
  780MOL0     C 5231   1.447   3.692   8.950  0.1478 -0.5130  1.0763
  780MOL0     C 5232   1.499   3.807   9.034  0.0115  0.4062  0.1143
  780MOL0     H 5233   1.849   3.944   8.890 -0.7088 -2.0359 -0.1539
  780MOL0     H 5234   2.099   4.000   8.927 -0.4401 -0.0487  0.6878
  780MOL0     H 5235   2.297   4.012   8.981 -0.5523  1.5654  1.5780
  780MOL0     H 5236   2.239   3.922   9.122  0.9359  2.4101 -0.2076
  780MOL0     H 5237   2.481   4.009   9.149 -0.9756 -0.0427  2.1216
  780MOL0     H 5238   2.528   3.928   9.005  1.7801 -4.4904 -0.0401
  780MOL0     H 5239   2.443   3.707   9.138 -0.3711  0.1489  0.5748
  780MOL0     H 5240   2.430   3.802   9.278 -1.8071 -0.1218  0.2329
  780MOL0     H 5241   2.641   3.674   9.251 -3.4279  0.2429  0.2680
  780MOL0     H 5242   2.687   3.788   9.119  1.6110  3.6791  2.2559
  780MOL0     H 5243   2.662   3.988   9.273 -0.1073  0.6440  2.1952
  780MOL0     H 5244   2.657   3.875   9.403  2.9362 -2.0158 -0.1410
  780MOL0     H 5245   2.862   3.781   9.359  2.6304 -0.4328 -1.0216
  780MOL0     H 5246   2.899   3.871   9.217  1.1489  0.3828  1.4815
  780MOL0     H 5247   2.856   4.020   9.472  0.9894 -0.9353  0.7996
  780MOL0     H 5248   2.907   4.078   9.309 -0.6719  0.4842  0.9894
  780MOL0     H 5249   3.055   3.882   9.497  0.7026  1.0064  1.3058
  780MOL0     H 5250   3.093   3.919   9.327 -3.9997 -0.1018 -2.0820
  780MOL0     H 5251   3.027   4.100   9.669  0.4859  1.6763  0.9209
  780MOL0     H 5252   3.114   4.327   9.781  0.8826  1.2718  0.6341
  780MOL0     H 5253   3.288   4.321   9.756 -0.9957 -4.1840 -0.9686
  780MOL0     H 5254   3.243   4.487   9.548  1.1690  0.7476  0.8858
  780MOL0     H 5255   3.089   4.515   9.629 -0.4421 -0.4627 -0.1465
  780MOL0     H 5256   3.205   4.601   9.824  0.7091 -0.2277 -0.4924
  780MOL0     H 5257   3.244   4.691   9.680 -0.8545  1.0942  2.2988
  780MOL0     H 5258   3.463   4.677   9.762  0.0009  0.3010  2.7883
  780MOL0     H 5259   3.451   4.525   9.664 -1.9062 -0.6675  0.4105
  780MOL0     H 5260   3.649   4.567   9.756 -0.3880  1.4289 -0.1064
  780MOL0     H 5261   3.876   4.591   9.853 -0.5314  1.3261  1.1214
  780MOL0     H 5262   4.203   4.772  10.169  1.4279  1.2663  0.0439
  780MOL0     H 5263   4.435   4.710  10.255  0.8378 -0.7119  0.5300
  780MOL0     H 5264   4.668   4.643  10.178  2.6212  1.1149  2.4987
  780MOL0     H 5265   4.643   4.598  10.341 -1.6789  2.2435 -0.8211
  780MOL0     H 5266   4.827   4.436  10.327  1.0398  2.7238  1.5095
  780MOL0     H 5267   4.803   4.419  10.144 -1.2196  1.1494 -0.4032
  780MOL0     H 5268   4.890   4.650  10.108 -0.7834  2.8999  0.7815
  780MOL0     H 5269   4.908   4.670  10.280  0.5124 -0.0385  0.4486
  780MOL0     H 5270   5.058   4.442  10.156 -0.1657  1.7068 -1.1157
  780MOL0     H 5271   5.099   4.512  10.299 -0.1575 -0.4641 -0.2222
  780MOL0     H 5272   5.155   4.734  10.210 -2.8727  0.1546  2.2267
  780MOL0     H 5273   5.117   4.663  10.050  0.3188  1.9219  0.3152
  780MOL0     H 5274   5.282   4.500  10.088  0.3295  0.4485 -1.6817
  780MOL0     H 5275   5.357   4.662  10.079 -0.7512  3.2391  3.1971
  780MOL0     H 5276   5.449   4.503  10.252 -1.3068  0.0086 -2.1980
  780MOL0     H 5277   5.320   4.540  10.356  1.6957 -3.4119  0.1626
  780MOL0     H 5278   5.516   4.687  10.389  2.2903 -1.4799 -1.7512
  780MOL0     H 5279   5.541   4.720  10.217  1.5430  0.6417  1.7608
  780MOL0     H 5280   4.371   4.306  10.113 -2.1972 -1.4678  2.0176
  780MOL0     H 5281   4.153   4.360  10.051  1.1242 -1.6859 -0.8390
  780MOL0     H 5282   3.680   4.575  10.239  1.7588  1.9818 -0.7291
  780MOL0     H 5283   3.474   4.536  10.131 -1.0906 -0.5762 -1.1372
  780MOL0     H 5284   2.183   3.585   8.937 -0.0078 -0.5765  1.7228
  780MOL0     H 5285   1.917   3.539   8.957 -2.7689  1.2596 -0.5271
  780MOL0     H 5286   1.523   3.392   8.814 -0.9364 -0.6113  0.4086
  780MOL0     H 5287   1.303   3.362   8.786  2.6324 -1.7079 -0.0617
  780MOL0     H 5288   1.093   3.381   8.803  1.2420 -0.3557 -0.8427
  780MOL0     H 5289   1.114   3.486   8.664  1.2788 -1.2267  0.5773
  780MOL0     H 5290   0.922   3.621   8.699  1.8350  2.0871  2.8421
  780MOL0     H 5291   0.882   3.537   8.846  2.8866 -1.1274  2.1482
  780MOL0     H 5292   0.886   3.368   8.591 -2.3397 -1.0348 -1.2398
  780MOL0     H 5293   0.754   3.472   8.637 -1.0364 -1.8254 -0.0076
  780MOL0     H 5294   0.690   3.351   8.822 -0.6115 -1.1322 -0.0510
  780MOL0     H 5295   0.741   3.219   8.701  1.2532 -2.5792  3.0536
  780MOL0     H 5296   0.958   3.063   8.972  0.7597  0.4041 -0.4454
  780MOL0     H 5297   1.235   3.742   8.969  2.4893  0.9250  1.2186
  780MOL0     H 5298   1.547   3.883   8.971  1.2360 -0.9669 -0.6763
  780MOL0     H 5299   1.414   3.856   9.081 -0.5632 -0.6186  0.1698
  780MOL0     H 5300   1.568   3.772   9.112  1.3136  1.5184 -0.5006
  781MOL0     O 5301  10.401   4.521   0.449  0.2400 -0.4590 -0.0193
  781MOL0     C 5302  10.314   4.444   0.478 -0.6171 -0.0526 -0.2689
  781MOL0     O 5303  10.341   4.329   0.554  0.0386 -0.0676 -0.4585
  781MOL0     C 5304  10.476   4.311   0.579  0.2372  0.7187 -0.1405
  781MOL0     C 5305  10.515   4.319   0.716  0.1876 -0.3492  0.1867
  781MOL0     C 5306  10.642   4.289   0.757  0.1354  0.1257 -0.4313
  781MOL0     C 5307  10.736   4.253   0.656  0.6448 -0.1603  0.3023
  781MOL0     O 5308  10.865   4.219   0.676  0.2085 -0.0042 -0.2750
  781MOL0     C 5309  10.917   4.259   0.807 -0.2902  0.8028  0.4925
  781MOL0     C 5310  11.065   4.210   0.802  0.7408  0.7873 -0.0883
  781MOL0     C 5311  11.135   4.220   0.944  0.1735 -0.5058 -0.1208
  781MOL0     C 5312  11.254   4.120   0.943 -0.6141  0.2518 -0.7626
  781MOL0     C 5313  11.315   4.118   1.083  1.0184  0.1907  0.6918
  781MOL0     C 5314  11.453   4.044   1.090 -0.7174 -0.1879 -0.4453
  781MOL0     C 5315  11.540   4.112   1.201 -0.5869  1.1138 -0.5525
  781MOL0     C 5316  11.672   4.034   1.214  0.1283 -0.7346  0.0036
  781MOL0     N 5317  11.760   4.034   1.096 -1.0228  0.9255 -0.2368
  781MOL0     C 5318  11.861   4.128   1.069  0.3826  0.4174 -0.0269
  781MOL0     C 5319  11.945   4.082   0.974  0.1131  0.0003 -0.6220
  781MOL0     C 5320  12.044   4.163   0.884  0.6157  0.1135  1.0622
  781MOL0     C 5321  12.190   4.157   0.939  0.6125 -0.8763  0.2042
  781MOL0     C 5322  12.259   4.026   0.927 -0.3929  0.1806 -0.1853
  781MOL0     C 5323  12.387   4.025   1.016  0.6544 -0.1210  0.2636
  781MOL0     O 5324  12.464   3.916   0.974  0.2889 -0.5188 -0.5708
  781MOL0     C 5325  12.584   3.892   1.032  1.3770 -0.4638 -0.1789
  781MOL0     C 5326  12.641   3.969   1.141  0.7348  0.9048  0.0334
  781MOL0     C 5327  12.766   3.930   1.177  0.2365 -0.3458 -0.8398
  781MOL0     C 5328  12.829   3.813   1.141 -0.0037  0.1436 -0.5988
  781MOL0     C 5329  12.958   3.779   1.206  0.2302 -0.5770  0.6758
  781MOL0     O 5330  13.023   3.883   1.271 -0.0928  0.2599 -0.8411
  781MOL0     C 5331  13.144   3.851   1.340  0.5739  0.3221  0.0303
  781MOL0     C 5332  13.250   3.940   1.322  0.1541 -0.2372  0.3107
  781MOL0     C 5333  13.362   3.928   1.401 -1.2609  0.6804  0.1797
  781MOL0     C 5334  13.387   3.817   1.486  0.4101  0.3794 -0.9137
  781MOL0     O 5335  13.498   3.788   1.557 -0.3682 -0.1993  0.1026
  781MOL0     C 5336  13.623   3.810   1.506 -0.2600 -0.2832 -0.3837
  781MOL0     C 5337  13.726   3.796   1.622 -0.5047  0.3034 -0.2131
  781MOL0     C 5338  13.868   3.834   1.583  0.2624  0.0111  0.2460
  781MOL0     C 5339  13.958   3.831   1.706 -0.8096  0.3264 -0.5437
  781MOL0     C 5340  14.098   3.874   1.667  0.0059  0.0113 -0.0205
  781MOL0     C 5341  14.113   4.018   1.619 -0.1385  0.1793 -0.0586
  781MOL0     C 5342  14.053   4.111   1.723 -0.6475  0.6730 -0.0092
  781MOL0     C 5343  14.115   4.252   1.714 -0.0530 -0.1263 -0.0504
  781MOL0    Cl 5344  14.050   4.370   1.821  0.4846 -0.6775 -0.0199
  781MOL0     C 5345  13.277   3.728   1.499 -0.4549 -0.2983 -0.0750
  781MOL0     C 5346  13.157   3.747   1.431 -0.0431 -0.9572  0.1655
  781MOL0     O 5347  12.986   3.658   1.203 -0.7536 -0.0979 -0.1938
  781MOL0     C 5348  12.774   3.738   1.044 -0.1050 -0.3375  0.3990
  781MOL0     C 5349  12.650   3.779   0.994 -0.3167 -0.1513  0.1640
  781MOL0     N 5350  11.920   3.948   0.965  0.0957 -0.4412  0.6139
  781MOL0     N 5351  11.815   3.919   1.040 -0.0561 -0.1470  0.7179
  781MOL0     C 5352  10.697   4.251   0.513 -0.2329  0.5078  0.1342
  781MOL0     C 5353  10.570   4.282   0.480  0.5332  0.8158  0.8099
  781MOL0     C 5354  10.180   4.471   0.415  0.1549 -0.1099  0.3740
  781MOL0     C 5355  10.076   4.377   0.449 -0.9960  0.4208  0.2784
  781MOL0     C 5356   9.948   4.397   0.406 -0.3880 -0.2704  0.0703
  781MOL0     C 5357   9.910   4.500   0.325 -0.5541  0.5580 -0.3684
  781MOL0     O 5358   9.784   4.516   0.272 -0.1459  0.1109 -0.3068
  781MOL0     C 5359   9.669   4.445   0.329 -0.4179  0.4496  0.8422
  781MOL0     C 5360   9.536   4.499   0.276  0.0880  0.0958  0.2594
  781MOL0     C 5361   9.437   4.381   0.244 -0.2695 -0.0281 -0.4256
  781MOL0     C 5362   9.476   4.296   0.120 -0.2505  0.0766 -0.0268
  781MOL0     C 5363   9.381   4.191   0.089 -0.3225 -0.0555 -0.2614
  781MOL0     C 5364   9.300   4.107   0.068 -0.1679 -1.1095  0.4953
  781MOL0     C 5365  10.012   4.583   0.294  0.4229 -0.2662  0.8510
  781MOL0     C 5366  10.142   4.581   0.337  0.3565  0.1267 -0.1177
  781MOL0     C 5367  10.230   4.701   0.306  0.4171 -0.1375  0.2969
  781MOL0     H 5368  10.436   4.328   0.790  1.9573  0.5196  2.0781
  781MOL0     H 5369  10.651   4.300   0.865  0.8903  0.1725 -0.4927
  781MOL0     H 5370  10.914   4.368   0.806 -1.1382  0.7904 -1.0570
  781MOL0     H 5371  10.859   4.227   0.895 -0.3369  3.7212  1.6306
  781MOL0     H 5372  11.110   4.264   0.718 -2.4005  0.6748 -1.9805
  781MOL0     H 5373  11.057   4.105   0.774 -1.5391  0.5133  1.3989
  781MOL0     H 5374  11.061   4.205   1.022  0.0075  0.2931 -0.1153
  781MOL0     H 5375  11.165   4.326   0.947  0.5594 -0.5184 -1.9643
  781MOL0     H 5376  11.212   4.021   0.922  2.5838 -1.4560  0.3039
  781MOL0     H 5377  11.322   4.158   0.866  0.4496  0.5341  0.3033
  781MOL0     H 5378  11.324   4.221   1.118  0.3547  0.6607 -0.4822
  781MOL0     H 5379  11.238   4.064   1.139  0.6586  1.1526  1.1387
  781MOL0     H 5380  11.455   3.935   1.098  3.5603 -0.2281  0.6300
  781MOL0     H 5381  11.501   4.069   0.994 -1.2094  0.1258 -0.6104
  781MOL0     H 5382  11.487   4.110   1.296  0.6471  3.0089  0.2466
  781MOL0     H 5383  11.563   4.215   1.171  0.1222  1.3300  0.7052
  781MOL0     H 5384  11.728   4.085   1.293  0.3777 -3.4099  1.6955
  781MOL0     H 5385  11.663   3.928   1.241  0.2240 -0.4214  1.3256
  781MOL0     H 5386  11.848   4.230   1.104  1.4447  2.0701 -3.8382
  781MOL0     H 5387  12.056   4.126   0.782  5.4962 -0.7851  1.7085
  781MOL0     H 5388  12.016   4.268   0.875 -3.0080 -0.5568  2.6171
  781MOL0     H 5389  12.242   4.237   0.885 -2.5670  0.5396 -1.0735
  781MOL0     H 5390  12.194   4.182   1.045 -1.3035 -0.1229  0.1419
  781MOL0     H 5391  12.286   4.015   0.821 -2.5725 -0.1639 -0.7521
  781MOL0     H 5392  12.205   3.932   0.946 -1.9446 -0.2211 -5.1493
  781MOL0     H 5393  12.362   4.013   1.122  3.2630 -0.8979  0.8717
  781MOL0     H 5394  12.440   4.117   0.990 -1.2603  0.7373 -0.7801
  781MOL0     H 5395  12.595   4.057   1.184 -1.9342 -0.3791  0.0162
  781MOL0     H 5396  12.821   3.992   1.246 -1.5328  0.2020  0.1533
  781MOL0     H 5397  13.259   4.016   1.245  1.4909 -2.5158 -1.9051
  781MOL0     H 5398  13.435   4.008   1.402  0.8634 -1.1852 -0.2829
  781MOL0     H 5399  13.654   3.736   1.432 -1.2388 -0.1490 -0.9398
  781MOL0     H 5400  13.628   3.906   1.454  2.3033 -0.9201 -1.4448
  781MOL0     H 5401  13.681   3.868   1.691  0.5106  0.3829  0.3896
  781MOL0     H 5402  13.723   3.702   1.679 -1.5657  1.6767  2.1889
  781MOL0     H 5403  13.916   3.773   1.506 -0.6538  0.3521 -0.6255
  781MOL0     H 5404  13.871   3.930   1.531  1.0490 -0.1399 -0.0046
  781MOL0     H 5405  13.979   3.731   1.745 -0.5361  0.3151 -0.7196
  781MOL0     H 5406  13.921   3.893   1.788  0.2924 -1.2039  1.1721
  781MOL0     H 5407  14.142   3.812   1.588 -1.1196  0.9393 -1.4170
  781MOL0     H 5408  14.167   3.863   1.751 -0.6270 -0.7013  0.4220
  781MOL0     H 5409  14.221   4.027   1.600 -0.4441  1.3057 -1.4183
  781MOL0     H 5410  14.067   4.014   1.519 -2.3859 -4.3696  0.8910
  781MOL0     H 5411  14.064   4.077   1.827  0.9487  1.1507  0.0013
  781MOL0     H 5412  13.945   4.120   1.707 -1.3385 -0.9071  2.9521
  781MOL0     H 5413  14.222   4.245   1.733  0.2867  1.7763 -1.0492
  781MOL0     H 5414  14.094   4.288   1.613 -0.4463  2.3946  0.8578
  781MOL0     H 5415  13.295   3.647   1.569  2.0051  0.6486  0.5322
  781MOL0     H 5416  13.077   3.684   1.467  1.5661 -2.9596  0.3607
  781MOL0     H 5417  12.823   3.654   0.995 -0.6333  1.6187 -3.9867
  781MOL0     H 5418  12.602   3.713   0.923 -1.4509 -0.4406  1.1625
  781MOL0     H 5419  10.773   4.240   0.436 -0.3368  0.7782 -0.0061
  781MOL0     H 5420  10.542   4.281   0.375 -0.2494 -1.0419  1.0027
  781MOL0     H 5421  10.095   4.287   0.508 -1.6931 -0.5939 -0.9792
  781MOL0     H 5422   9.874   4.322   0.434  0.0483 -0.0025  2.0697
  781MOL0     H 5423   9.676   4.427   0.437 -0.9962 -2.8793  0.4388
  781MOL0     H 5424   9.683   4.346   0.286  2.2654  0.9975  0.2351
  781MOL0     H 5425   9.564   4.554   0.185  1.3903 -0.3076  0.3904
  781MOL0     H 5426   9.501   4.569   0.353  0.0352  0.2464  0.0992
  781MOL0     H 5427   9.331   4.404   0.233 -0.7461 -0.7648  2.0203
  781MOL0     H 5428   9.443   4.323   0.336  1.6535  1.0288  0.1591
  781MOL0     H 5429   9.491   4.361   0.033 -1.2839  1.6684  0.9363
  781MOL0     H 5430   9.572   4.245   0.131  0.2474  0.8168 -0.8379
  781MOL0     H 5431   9.224   4.032   0.057  0.9378 -2.0187 -1.5157
  781MOL0     H 5432   9.994   4.657   0.216  3.4174 -0.5871 -0.2656
  781MOL0     H 5433  10.278   4.751   0.392  0.5462 -1.4202  0.9948
  781MOL0     H 5434  10.304   4.662   0.236 -0.8926 -1.0977 -0.5807
  781MOL0     H 5435  10.168   4.774   0.253 -0.2913 -1.4317 -0.6855
  782MOL0     O 5436   7.795   2.572   5.115  0.2588  0.0746 -0.2866
  782MOL0     C 5437   7.756   2.527   5.228 -0.1781 -0.3301  0.4009
  782MOL0     O 5438   7.831   2.509   5.343 -0.4314 -0.1634  0.0589
  782MOL0     C 5439   7.960   2.547   5.334 -0.4123  0.3201  1.6209
  782MOL0     C 5440   8.007   2.624   5.437  0.2244  0.6635 -0.2948
  782MOL0     C 5441   8.136   2.667   5.443 -0.6075 -0.2124 -0.4368
  782MOL0     C 5442   8.224   2.636   5.331 -0.0773  1.0334 -0.1940
  782MOL0     O 5443   8.353   2.674   5.320 -0.8398  0.1003  0.4315
  782MOL0     C 5444   8.414   2.763   5.415 -0.2093  0.2295  0.3373
  782MOL0     C 5445   8.559   2.786   5.362  0.0418 -0.5507  0.3327
  782MOL0     C 5446   8.635   2.894   5.447  0.5112  0.5592  0.7796
  782MOL0     C 5447   8.761   2.941   5.372  0.5402  0.1829 -0.7130
  782MOL0     C 5448   8.863   2.991   5.466  0.4152  0.2528 -0.7628
  782MOL0     C 5449   8.989   3.040   5.403 -0.6404  0.0955 -0.7140
  782MOL0     C 5450   9.088   3.107   5.503 -0.4841 -0.8851  0.3112
  782MOL0     C 5451   9.158   3.013   5.582 -0.3233 -0.0869 -1.1731
  782MOL0     N 5452   9.267   3.084   5.654 -0.1576  0.5782 -0.3061
  782MOL0     C 5453   9.381   3.131   5.594  0.0825  0.1956 -0.0898
  782MOL0     C 5454   9.451   3.213   5.677  0.8506 -0.5792  0.5852
  782MOL0     C 5455   9.579   3.293   5.661  0.5372 -0.2743 -0.1383
  782MOL0     C 5456   9.674   3.290   5.780 -0.8640  0.2536  0.5370
  782MOL0     C 5457   9.734   3.155   5.815 -0.3473 -0.3811  0.1165
  782MOL0     C 5458   9.795   3.083   5.691 -0.1663  0.4463 -0.1272
  782MOL0     O 5459   9.847   2.959   5.736 -0.1516 -0.4683 -0.1545
  782MOL0     C 5460   9.974   2.955   5.787 -0.5924  0.1377 -0.2596
  782MOL0     C 5461  10.024   2.833   5.824  0.1723 -0.4855  0.0774
  782MOL0     C 5462  10.156   2.815   5.870  0.2557 -0.4817  0.3712
  782MOL0     C 5463  10.243   2.920   5.864 -0.4578 -0.1653  1.0299
  782MOL0     C 5464  10.388   2.895   5.893 -0.2355  0.6432  0.0092
  782MOL0     O 5465  10.468   3.007   5.887  0.0960  0.5912  0.0236
  782MOL0     C 5466  10.602   3.002   5.929  0.0774 -0.1317 -0.9507
  782MOL0     C 5467  10.645   3.101   6.002  0.1755 -0.5701 -0.4488
  782MOL0     C 5468  10.775   3.107   6.048 -0.0579  0.4021  0.0670
  782MOL0     C 5469  10.869   3.006   6.003  0.8285 -1.2993  0.0118
  782MOL0     O 5470  10.996   3.028   6.042 -0.7526  0.2306 -0.4064
  782MOL0     C 5471  11.099   2.963   5.964 -1.0191 -0.3743 -0.1543
  782MOL0     C 5472  11.244   3.004   6.013  0.1420  0.3734 -0.2088
  782MOL0     C 5473  11.339   3.001   5.894 -0.7447 -0.0764  0.1116
  782MOL0     C 5474  11.481   2.943   5.928 -0.0626 -0.6267  0.1631
  782MOL0     C 5475  11.582   2.963   5.810  0.1258 -0.1889 -0.0693
  782MOL0     C 5476  11.629   3.105   5.805 -0.2797 -0.3125  0.1832
  782MOL0     C 5477  11.767   3.124   5.737 -0.2026  0.1568 -0.1752
  782MOL0     C 5478  11.782   3.065   5.598  0.8550  0.5952  0.4102
  782MOL0    Cl 5479  11.911   3.144   5.516 -0.0840  0.1170 -0.0799
  782MOL0     C 5480  10.827   2.893   5.923 -0.2034 -0.2023 -0.5561
  782MOL0     C 5481  10.687   2.894   5.889  0.3075  0.1360 -0.6362
  782MOL0     O 5482  10.424   2.776   5.922  0.0166  0.3863 -0.5534
  782MOL0     C 5483  10.195   3.045   5.842 -0.0250  1.1447 -0.1868
  782MOL0     C 5484  10.065   3.061   5.800  0.8842  0.2774  0.5800
  782MOL0     N 5485   9.379   3.203   5.798  0.0107  0.0867  0.6197
  782MOL0     N 5486   9.270   3.130   5.784  1.5342  0.4367  0.3501
  782MOL0     C 5487   8.172   2.558   5.222  0.5739  0.0059 -0.5160
  782MOL0     C 5488   8.045   2.506   5.224 -0.2189  0.3535  0.2807
  782MOL0     C 5489   7.598   2.517   5.246 -0.4346 -0.2660 -0.2841
  782MOL0     C 5490   7.544   2.547   5.371  0.3149  0.1654  0.4910
  782MOL0     C 5491   7.411   2.523   5.401  0.4651 -0.2736  0.8109
  782MOL0     C 5492   7.324   2.487   5.303  0.0434  0.7153 -0.3728
  782MOL0     O 5493   7.207   2.447   5.354 -0.0596  0.2008 -0.0371
  782MOL0     C 5494   7.151   2.329   5.293 -0.0709 -1.1061 -0.5900
  782MOL0     C 5495   7.065   2.256   5.393  0.1295 -0.3318 -0.4532
  782MOL0     C 5496   7.132   2.225   5.533 -0.1427 -0.7545 -0.3362
  782MOL0     C 5497   7.034   2.167   5.646  0.7932  1.4738  0.9548
  782MOL0     C 5498   6.984   2.037   5.595  0.0560  0.7159  0.3369
  782MOL0     C 5499   6.945   1.928   5.552  0.6048 -0.1035  0.5287
  782MOL0     C 5500   7.373   2.462   5.180 -0.3548 -0.1939  1.2688
  782MOL0     C 5501   7.505   2.480   5.146 -0.2641 -0.2266 -0.4022
  782MOL0     C 5502   7.556   2.442   5.007  0.3813  0.6048 -0.0138
  782MOL0     H 5503   7.933   2.647   5.513  0.0227  0.0877 -0.3121
  782MOL0     H 5504   8.170   2.719   5.532 -1.5423  0.8360 -0.6788
  782MOL0     H 5505   8.366   2.861   5.422  0.4349  0.4629  5.0947
  782MOL0     H 5506   8.413   2.718   5.515 -2.9089 -1.4982 -0.3599
  782MOL0     H 5507   8.539   2.838   5.268 -1.8235 -1.7195  0.0297
  782MOL0     H 5508   8.608   2.689   5.363  0.5851 -0.2977 -0.4671
  782MOL0     H 5509   8.668   2.845   5.539 -0.4053 -0.1255  0.7646
  782MOL0     H 5510   8.572   2.981   5.468  3.5951  2.7056  1.7918
  782MOL0     H 5511   8.814   2.862   5.319 -0.4409  0.7231 -2.5854
  782MOL0     H 5512   8.732   3.026   5.309  1.0828  2.1319  1.5063
  782MOL0     H 5513   8.831   3.081   5.518  2.1670  2.2381 -2.9043
  782MOL0     H 5514   8.882   2.910   5.537  1.1008  1.0601 -0.0173
  782MOL0     H 5515   9.025   2.956   5.342  0.0435  1.3539 -2.1053
  782MOL0     H 5516   8.956   3.127   5.346 -1.6096  0.2898  0.1015
  782MOL0     H 5517   9.037   3.186   5.559  2.7568  1.0267  0.8270
  782MOL0     H 5518   9.165   3.154   5.442 -1.7347 -1.2159 -1.6252
  782MOL0     H 5519   9.090   2.977   5.660 -0.5009  2.6498  0.0456
  782MOL0     H 5520   9.198   2.930   5.523 -0.5146 -1.0026 -0.0495
  782MOL0     H 5521   9.414   3.127   5.491  1.6051  2.7952  0.2038
  782MOL0     H 5522   9.629   3.253   5.572  0.7916 -2.0648  0.7635
  782MOL0     H 5523   9.557   3.399   5.644 -1.7694 -0.6491  0.2726
  782MOL0     H 5524   9.763   3.350   5.761  0.0476 -0.8709  1.0684
  782MOL0     H 5525   9.623   3.315   5.873  0.6263 -0.3618  1.5562
  782MOL0     H 5526   9.651   3.096   5.854 -2.0753  0.7580 -1.6801
  782MOL0     H 5527   9.810   3.190   5.886 -0.3473 -1.9657  0.9416
  782MOL0     H 5528   9.864   3.151   5.640 -1.2909  0.7344 -1.3147
  782MOL0     H 5529   9.722   3.063   5.612  1.0934 -1.4772 -0.8907
  782MOL0     H 5530   9.957   2.748   5.820 -0.4768  0.0642 -1.1749
  782MOL0     H 5531  10.180   2.715   5.905  1.6181 -0.2716  0.0937
  782MOL0     H 5532  10.579   3.179   6.039  2.3739  0.4034  1.7489
  782MOL0     H 5533  10.810   3.194   6.103  0.9945 -0.1859  0.3483
  782MOL0     H 5534  11.083   2.856   5.975 -1.4430 -0.1509  1.8879
  782MOL0     H 5535  11.080   2.987   5.859  1.6765 -1.7043 -1.0409
  782MOL0     H 5536  11.245   3.105   6.056  1.8077  0.7102 -0.9460
  782MOL0     H 5537  11.266   2.939   6.098 -1.0296  0.7997  0.4577
  782MOL0     H 5538  11.302   2.932   5.818  1.0832 -0.6409 -0.3089
  782MOL0     H 5539  11.352   3.101   5.852 -0.8114  0.0139  0.3044
  782MOL0     H 5540  11.469   2.837   5.949  0.5713 -1.1902 -2.0136
  782MOL0     H 5541  11.521   2.984   6.021  1.3045 -0.5224 -0.4410
  782MOL0     H 5542  11.534   2.935   5.716  1.6428 -3.9309  0.0840
  782MOL0     H 5543  11.667   2.897   5.832  1.4040  1.0334 -1.1104
  782MOL0     H 5544  11.556   3.175   5.764 -1.5306 -0.6981  1.6611
  782MOL0     H 5545  11.627   3.142   5.908 -3.2767  2.5974 -0.7680
  782MOL0     H 5546  11.838   3.082   5.810 -0.2191  2.4328  1.2345
  782MOL0     H 5547  11.777   3.232   5.733 -0.0337  0.1326 -0.4127
  782MOL0     H 5548  11.787   2.956   5.602  2.1533  0.5669 -0.9456
  782MOL0     H 5549  11.692   3.096   5.543 -0.6442 -2.2655  1.0530
  782MOL0     H 5550  10.889   2.812   5.885 -0.6413 -0.9481  0.2537
  782MOL0     H 5551  10.654   2.814   5.823  0.4514  0.6748 -1.3696
  782MOL0     H 5552  10.267   3.126   5.856  2.4271 -0.4824 -2.3279
  782MOL0     H 5553  10.035   3.165   5.785 -0.3418 -0.4704 -3.7453
  782MOL0     H 5554   8.240   2.526   5.143 -0.1060 -2.7855 -0.0934
  782MOL0     H 5555   8.007   2.434   5.152 -2.1061  0.8501  0.7231
  782MOL0     H 5556   7.622   2.570   5.443  1.7857 -3.7007  0.3471
  782MOL0     H 5557   7.366   2.522   5.500 -1.9598 -3.0297 -0.1509
  782MOL0     H 5558   7.232   2.258   5.272  0.6560 -0.4010 -0.2008
  782MOL0     H 5559   7.113   2.355   5.194  0.4717  0.7107 -0.3533
  782MOL0     H 5560   7.047   2.160   5.344 -0.0572  0.2835 -1.6145
  782MOL0     H 5561   6.978   2.320   5.408  1.3235  1.5881 -1.4121
  782MOL0     H 5562   7.172   2.312   5.585 -1.8604 -2.2282  3.8319
  782MOL0     H 5563   7.216   2.159   5.513 -1.0194 -1.2938 -2.6049
  782MOL0     H 5564   7.098   2.154   5.734  1.0048 -0.5006  0.5660
  782MOL0     H 5565   6.952   2.238   5.655 -0.2625  0.5846 -0.9630
  782MOL0     H 5566   6.909   1.830   5.529 -1.6222  0.9743 -0.8841
  782MOL0     H 5567   7.320   2.431   5.090  1.5422 -2.1969  0.7714
  782MOL0     H 5568   7.490   2.381   4.945  1.4556  1.6360 -2.2790
  782MOL0     H 5569   7.583   2.530   4.948 -0.9187  0.0118 -1.5658
  782MOL0     H 5570   7.645   2.379   5.012  1.0381  1.4267 -0.8536
  783MOL0     O 5571   2.434   3.003   3.731  0.5559  0.1114 -0.1483
  783MOL0     C 5572   2.415   2.902   3.669  0.6941 -0.3668  0.6546
  783MOL0     O 5573   2.507   2.862   3.575 -0.5569  0.3000  0.1374
  783MOL0     C 5574   2.611   2.945   3.557 -0.3608 -0.3838 -0.9039
  783MOL0     C 5575   2.614   3.050   3.471  0.6112 -0.1046  0.0978
  783MOL0     C 5576   2.731   3.128   3.460 -0.1350 -0.1706 -0.6086
  783MOL0     C 5577   2.853   3.097   3.524 -0.8230  0.5815  0.0371
  783MOL0     O 5578   2.972   3.157   3.498 -0.7297 -0.1876 -0.5124
  783MOL0     C 5579   2.954   3.303   3.506 -0.6882 -0.2915  0.6335
  783MOL0     C 5580   3.077   3.397   3.505 -1.1901 -0.5043  0.8226
  783MOL0     C 5581   3.204   3.325   3.505 -0.6545  0.4384 -0.4042
  783MOL0     C 5582   3.302   3.430   3.565  0.5006  0.2376  0.6863
  783MOL0     C 5583   3.441   3.384   3.562 -0.3079  0.1754  0.2886
  783MOL0     C 5584   3.532   3.499   3.622  0.5501  0.4917 -0.0802
  783MOL0     C 5585   3.679   3.459   3.631 -0.4787  0.1185  0.7494
  783MOL0     C 5586   3.735   3.429   3.493 -0.3910 -0.1371 -0.0095
  783MOL0     N 5587   3.879   3.431   3.499 -0.0084  0.7228  0.2423
  783MOL0     C 5588   3.968   3.409   3.600 -0.0188  0.7534  0.1722
  783MOL0     C 5589   4.085   3.422   3.545  0.1286  0.7584  0.3884
  783MOL0     C 5590   4.213   3.418   3.629  0.2125  0.7962 -0.5868
  783MOL0     C 5591   4.280   3.556   3.639 -0.3381  0.2842  0.0639
  783MOL0     C 5592   4.398   3.572   3.733  0.5443  0.8304  0.6039
  783MOL0     C 5593   4.534   3.506   3.676 -0.2198 -0.0531 -0.0637
  783MOL0     O 5594   4.637   3.523   3.784 -0.0025  0.0811  0.0379
  783MOL0     C 5595   4.774   3.514   3.759 -0.1102  0.4337 -0.0733
  783MOL0     C 5596   4.858   3.568   3.855  0.3822 -0.8015  0.0561
  783MOL0     C 5597   5.001   3.568   3.849 -0.4642  0.3377  0.6649
  783MOL0     C 5598   5.058   3.507   3.730  0.1305 -0.0327 -0.4673
  783MOL0     C 5599   5.201   3.492   3.725 -0.8354  0.2111 -0.4428
  783MOL0     O 5600   5.273   3.510   3.834  0.6576 -0.0307  0.2184
  783MOL0     C 5601   5.407   3.527   3.833  0.6725 -0.2182  0.0189
  783MOL0     C 5602   5.482   3.481   3.938  0.1064 -0.2700 -0.1024
  783MOL0     C 5603   5.617   3.514   3.956  0.5540  0.5176 -0.3429
  783MOL0     C 5604   5.678   3.600   3.856  0.4955  0.2310 -1.0246
  783MOL0     O 5605   5.814   3.619   3.855  0.5269 -0.0272 -0.5403
  783MOL0     C 5606   5.877   3.629   3.728 -0.3688 -0.1044 -0.0475
  783MOL0     C 5607   6.025   3.636   3.750  0.0420  0.0481 -0.4825
  783MOL0     C 5608   6.107   3.633   3.620  0.5157 -0.4953  1.3966
  783MOL0     C 5609   6.249   3.589   3.650 -1.0347 -0.3117  0.7418
  783MOL0     C 5610   6.346   3.646   3.543  0.0141  0.3029 -0.3081
  783MOL0     C 5611   6.496   3.625   3.580 -0.1819 -0.0071  0.4493
  783MOL0     C 5612   6.585   3.670   3.456  1.1408 -0.7680  0.6245
  783MOL0     C 5613   6.728   3.673   3.506  0.1466  0.3382 -0.5169
  783MOL0    Cl 5614   6.832   3.728   3.362 -0.1669  0.0154 -0.1907
  783MOL0     C 5615   5.595   3.660   3.764  0.0448  1.0592  0.1136
  783MOL0     C 5616   5.463   3.622   3.747  0.9122 -0.7359  0.8032
  783MOL0     O 5617   5.248   3.460   3.616  0.4607  0.4792 -0.0606
  783MOL0     C 5618   4.975   3.457   3.627  0.1241 -0.1205  0.6338
  783MOL0     C 5619   4.834   3.456   3.647 -0.0040  0.3197  0.1854
  783MOL0     N 5620   4.069   3.433   3.407 -0.0567 -0.4462 -0.3049
  783MOL0     N 5621   3.949   3.437   3.379  0.7178 -0.1637  0.4490
  783MOL0     C 5622   2.844   2.986   3.604 -1.0794  0.2749 -1.2072
  783MOL0     C 5623   2.727   2.909   3.625 -0.4602  0.3610  0.7497
  783MOL0     C 5624   2.304   2.816   3.719 -0.4496 -0.4248 -0.0203
  783MOL0     C 5625   2.187   2.875   3.774  0.3345 -0.5476 -1.2122
  783MOL0     C 5626   2.085   2.795   3.839  0.9498  0.6210 -0.2093
  783MOL0     C 5627   2.095   2.654   3.838 -0.6712  0.2716  0.5359
  783MOL0     O 5628   2.006   2.573   3.894  0.2496  0.1324 -0.7643
  783MOL0     C 5629   1.974   2.594   4.028 -0.5395 -0.0519 -0.0870
  783MOL0     C 5630   1.908   2.470   4.089  0.9755  0.0733 -0.4949
  783MOL0     C 5631   1.777   2.433   4.011  0.0777 -0.8532  0.5414
  783MOL0     C 5632   1.695   2.334   4.091  0.5385  0.4062 -0.3149
  783MOL0     C 5633   1.769   2.210   4.115 -0.2726 -0.6147  0.1598
  783MOL0     C 5634   1.832   2.107   4.126 -0.1234 -0.1036 -0.3857
  783MOL0     C 5635   2.207   2.597   3.773  0.8176  0.2573  0.2373
  783MOL0     C 5636   2.310   2.676   3.715  0.3414 -0.0405 -0.5216
  783MOL0     C 5637   2.426   2.604   3.644 -0.4098  0.6055  0.4207
  783MOL0     H 5638   2.525   3.088   3.421 -0.7644 -0.4794  2.1434
  783MOL0     H 5639   2.734   3.215   3.395  0.3741 -1.0384 -1.7933
  783MOL0     H 5640   2.907   3.327   3.410 -1.0932 -1.7725  0.4405
  783MOL0     H 5641   2.887   3.337   3.585 -1.3897  0.9526 -0.4496
  783MOL0     H 5642   3.076   3.460   3.594  0.7493 -1.4915  1.6227
  783MOL0     H 5643   3.092   3.459   3.416  3.4983  1.6128  2.7248
  783MOL0     H 5644   3.250   3.305   3.408  0.3269  1.6183 -0.2118
  783MOL0     H 5645   3.196   3.237   3.570  1.5262  0.0542 -0.5658
  783MOL0     H 5646   3.301   3.527   3.513 -1.5263  0.9258  1.8986
  783MOL0     H 5647   3.275   3.451   3.669 -1.1794 -2.6173  0.9292
  783MOL0     H 5648   3.451   3.287   3.612  0.4111  0.0771 -0.0356
  783MOL0     H 5649   3.478   3.372   3.460  0.6861  1.1497  0.5071
  783MOL0     H 5650   3.529   3.589   3.559  2.4806 -0.3896 -1.5296
  783MOL0     H 5651   3.488   3.524   3.719  0.5165  2.5952 -0.5965
  783MOL0     H 5652   3.690   3.365   3.686  0.0653 -0.3608 -0.1435
  783MOL0     H 5653   3.733   3.544   3.674 -1.8819 -0.3398  3.6423
  783MOL0     H 5654   3.700   3.330   3.460 -0.2236 -0.0453 -0.4607
  783MOL0     H 5655   3.701   3.500   3.418 -1.5405  0.5817  1.1479
  783MOL0     H 5656   3.951   3.415   3.708  3.5315 -0.0409  0.9013
  783MOL0     H 5657   4.174   3.381   3.725 -4.3859 -2.3223 -3.2367
  783MOL0     H 5658   4.277   3.339   3.588  0.0282  0.9683 -1.2233
  783MOL0     H 5659   4.310   3.595   3.541  2.7145  1.9825  1.5472
  783MOL0     H 5660   4.194   3.620   3.662 -1.5457 -0.2595 -2.5125
  783MOL0     H 5661   4.367   3.523   3.826 -2.6696 -0.1586 -0.8525
  783MOL0     H 5662   4.408   3.678   3.758 -2.6017  1.1584  0.8952
  783MOL0     H 5663   4.563   3.576   3.597 -2.4009  3.4551  1.9969
  783MOL0     H 5664   4.524   3.399   3.654 -1.4082 -0.3979  1.9429
  783MOL0     H 5665   4.815   3.621   3.940  2.5059 -1.0165  1.3442
  783MOL0     H 5666   5.060   3.612   3.929 -1.3032  1.6575  0.5897
  783MOL0     H 5667   5.428   3.408   3.997  0.2924 -0.9302 -0.7244
  783MOL0     H 5668   5.680   3.466   4.030  0.0460  0.9873  0.4165
  783MOL0     H 5669   5.857   3.537   3.674 -0.5287  0.2789 -0.6565
  783MOL0     H 5670   5.846   3.705   3.654  0.9873 -2.5750 -3.4055
  783MOL0     H 5671   6.058   3.716   3.817 -0.7527 -0.0334  0.0133
  783MOL0     H 5672   6.054   3.544   3.801  1.1846  0.5891 -0.1005
  783MOL0     H 5673   6.057   3.562   3.553  0.4605  0.1627  0.7302
  783MOL0     H 5674   6.117   3.731   3.573  1.0530 -1.5956 -0.9442
  783MOL0     H 5675   6.261   3.480   3.649 -1.2318 -0.3407 -0.5806
  783MOL0     H 5676   6.289   3.645   3.734  0.0276  0.5417 -0.2995
  783MOL0     H 5677   6.329   3.753   3.531 -2.9281 -0.1188 -0.4760
  783MOL0     H 5678   6.318   3.598   3.449  1.4494 -0.3300 -0.4495
  783MOL0     H 5679   6.509   3.682   3.673 -2.2458 -0.7447  1.2419
  783MOL0     H 5680   6.513   3.520   3.605  0.8407  0.7086  3.1583
  783MOL0     H 5681   6.574   3.771   3.416 -0.1445 -1.2985 -0.4241
  783MOL0     H 5682   6.563   3.607   3.370 -4.2157  0.5465  0.7141
  783MOL0     H 5683   6.740   3.750   3.583 -4.2831  0.9768 -0.2212
  783MOL0     H 5684   6.770   3.584   3.554  0.4408  2.1351  2.8328
  783MOL0     H 5685   5.631   3.731   3.690 -0.4500 -0.3523 -1.5517
  783MOL0     H 5686   5.405   3.672   3.670  0.4729  0.3585  1.8022
  783MOL0     H 5687   5.003   3.408   3.534  3.8213 -0.7899  1.9389
  783MOL0     H 5688   4.764   3.419   3.572  1.3822  3.8525 -3.1381
  783MOL0     H 5689   2.927   2.942   3.658 -2.4388 -0.8697  0.0390
  783MOL0     H 5690   2.725   2.828   3.697 -1.3417 -1.3321 -1.1167
  783MOL0     H 5691   2.174   2.982   3.766 -0.7952 -0.6773 -1.3494
  783MOL0     H 5692   1.998   2.837   3.889  1.3011 -2.3242  3.3033
  783MOL0     H 5693   1.914   2.684   4.044 -0.5818 -0.0567 -0.2159
  783MOL0     H 5694   2.065   2.611   4.087 -0.1001  0.5009 -0.8970
  783MOL0     H 5695   1.881   2.494   4.192  0.6873  1.5838 -0.8961
  783MOL0     H 5696   1.972   2.381   4.084 -0.4108 -0.9088 -2.2596
  783MOL0     H 5697   1.784   2.397   3.908 -2.6572  0.7368 -0.3166
  783MOL0     H 5698   1.729   2.530   3.993  1.6455 -0.1863 -0.3057
  783MOL0     H 5699   1.664   2.375   4.187 -0.4950  0.2191 -0.5608
  783MOL0     H 5700   1.601   2.313   4.038  0.5170  0.0231 -0.1276
  783MOL0     H 5701   1.894   2.021   4.140  0.9283  0.5520 -0.8914
  783MOL0     H 5702   2.218   2.489   3.772 -1.3607 -0.0115 -0.9565
  783MOL0     H 5703   2.432   2.626   3.537  3.0492  1.1525  0.6063
  783MOL0     H 5704   2.520   2.639   3.688  0.2542 -1.6632  0.9830
  783MOL0     H 5705   2.422   2.494   3.645  2.6942  0.3231 -1.9181
  784MOL0     O 5706  11.223   0.314   0.779 -0.5724  0.5972  0.0240
  784MOL0     C 5707  11.131   0.356   0.714 -0.1799  0.4462  1.0427
  784MOL0     O 5708  11.143   0.389   0.574  0.0072  0.4089 -0.8570
  784MOL0     C 5709  11.272   0.434   0.521 -0.1931 -0.9951 -0.0507
  784MOL0     C 5710  11.288   0.423   0.380 -0.5448 -0.9269 -0.4434
  784MOL0     C 5711  11.418   0.453   0.323  0.5042  0.0508  0.6282
  784MOL0     C 5712  11.528   0.481   0.402 -0.4969 -0.6127  0.8003
  784MOL0     O 5713  11.654   0.487   0.354  0.6021 -0.2359  0.1759
  784MOL0     C 5714  11.687   0.482   0.218  0.4806  0.4433 -0.1692
  784MOL0     C 5715  11.841   0.490   0.192  0.2430  0.2541 -0.2193
  784MOL0     C 5716  11.915   0.353   0.176  0.3044 -0.0479  0.9693
  784MOL0     C 5717  11.889   0.261   0.296  0.2856 -0.5978 -0.3619
  784MOL0     C 5718  11.988   0.141   0.296 -0.0298 -0.5022  0.8627
  784MOL0     C 5719  11.951   0.036   0.396  0.1345  0.5100  0.3749
  784MOL0     C 5720  11.952   0.097   0.539 -0.4141  0.2045 -0.1676
  784MOL0     C 5721  11.980  -0.007   0.648  0.1480 -0.5524  0.0058
  784MOL0     N 5722  11.980   0.064   0.776 -0.9186 -0.3669  0.0947
  784MOL0     C 5723  12.072   0.157   0.823 -0.9965  1.1453 -0.4990
  784MOL0     C 5724  12.021   0.198   0.938  1.3293 -0.5694 -0.1516
  784MOL0     C 5725  12.076   0.299   1.031 -0.0937 -0.0460 -0.0820
  784MOL0     C 5726  12.007   0.432   1.009  0.6626  0.4223  0.6411
  784MOL0     C 5727  12.069   0.545   1.097  1.1655  0.6225 -0.2538
  784MOL0     C 5728  12.199   0.599   1.044 -0.5446 -0.4625 -0.3495
  784MOL0     O 5729  12.241   0.715   1.128 -0.0408 -0.1048 -0.2873
  784MOL0     C 5730  12.374   0.750   1.127 -0.0138  0.1726  0.4464
  784MOL0     C 5731  12.418   0.832   1.231 -0.0109  0.5629  0.3937
  784MOL0     C 5732  12.548   0.868   1.248  0.0500 -0.2911 -0.3386
  784MOL0     C 5733  12.647   0.817   1.164  1.0077 -0.8508 -0.7990
  784MOL0     C 5734  12.789   0.871   1.182  0.5192 -0.6048 -0.3508
  784MOL0     O 5735  12.800   0.964   1.289 -0.1646  0.3851  0.1146
  784MOL0     C 5736  12.920   0.984   1.352  0.0583 -0.2615  0.6451
  784MOL0     C 5737  12.956   1.124   1.374 -0.4104  0.2131  0.2958
  784MOL0     C 5738  13.076   1.157   1.438  0.7242 -0.0604 -0.2565
  784MOL0     C 5739  13.171   1.064   1.466 -0.6998 -0.1490 -0.1465
  784MOL0     O 5740  13.278   1.118   1.521 -0.2770 -0.1087  0.3183
  784MOL0     C 5741  13.380   1.035   1.582  0.3860 -0.4605 -0.0288
  784MOL0     C 5742  13.486   1.131   1.636  0.4202 -1.0122 -0.4074
  784MOL0     C 5743  13.572   1.056   1.743  0.4390 -0.8590 -0.4237
  784MOL0     C 5744  13.649   0.940   1.679  0.8324 -0.5639  0.1543
  784MOL0     C 5745  13.720   0.866   1.784 -0.0455  0.0512 -1.0045
  784MOL0     C 5746  13.803   0.756   1.727  0.3525 -0.4059  0.0368
  784MOL0     C 5747  13.933   0.791   1.666  0.0505 -0.5032 -0.5176
  784MOL0     C 5748  14.028   0.677   1.648  0.5662  0.3306 -0.2417
  784MOL0    Cl 5749  14.171   0.704   1.545 -0.2213 -0.3192 -0.1677
  784MOL0     C 5750  13.141   0.931   1.445  0.3516  0.4937  0.3901
  784MOL0     C 5751  13.010   0.894   1.395  0.7785 -0.0901 -0.1138
  784MOL0     O 5752  12.874   0.825   1.113  0.3728 -0.3303  0.4759
  784MOL0     C 5753  12.609   0.731   1.060 -0.3955 -0.2307  0.3312
  784MOL0     C 5754  12.472   0.699   1.042 -0.9101 -0.1735  0.7771
  784MOL0     N 5755  11.909   0.121   0.970 -0.4433  0.6369  0.5151
  784MOL0     N 5756  11.890   0.036   0.874  0.1787 -0.2017 -0.0766
  784MOL0     C 5757  11.507   0.497   0.539 -0.5271 -0.3155  0.7949
  784MOL0     C 5758  11.381   0.482   0.599  0.4046 -0.6241 -0.0590
  784MOL0     C 5759  10.995   0.339   0.775 -0.4125 -0.1240 -0.0273
  784MOL0     C 5760  10.884   0.334   0.686 -0.3633  0.2626  0.9747
  784MOL0     C 5761  10.757   0.327   0.737 -0.0168 -0.1148 -0.4180
  784MOL0     C 5762  10.724   0.319   0.879  1.2738  0.3716  0.4514
  784MOL0     O 5763  10.594   0.336   0.923 -0.2664  0.6217 -0.0676
  784MOL0     C 5764  10.498   0.396   0.835 -0.5290  0.9129  0.0744
  784MOL0     C 5765  10.362   0.400   0.906  0.2945 -0.3810 -0.1370
  784MOL0     C 5766  10.290   0.267   0.918 -0.3495 -0.0979  0.6683
  784MOL0     C 5767  10.165   0.280   1.010  0.0899  0.4237 -0.1342
  784MOL0     C 5768  10.049   0.313   0.934 -0.1549  0.3008  0.3559
  784MOL0     C 5769   9.952   0.319   0.866 -0.1831 -0.4526  0.0311
  784MOL0     C 5770  10.831   0.324   0.960  0.2232 -0.1376 -0.6141
  784MOL0     C 5771  10.964   0.331   0.917 -1.2393  0.5606 -0.1517
  784MOL0     C 5772  11.078   0.317   1.016 -0.6049  1.3028 -0.6299
  784MOL0     H 5773  11.206   0.383   0.320 -0.7589 -0.1366 -0.6877
  784MOL0     H 5774  11.427   0.442   0.215  0.0504  2.1711  0.3188
  784MOL0     H 5775  11.651   0.387   0.177  0.8461  0.4984 -0.6325
  784MOL0     H 5776  11.631   0.561   0.166 -1.2116 -1.3244 -1.1771
  784MOL0     H 5777  11.888   0.554   0.267 -0.5178 -2.3952  2.7422
  784MOL0     H 5778  11.839   0.538   0.094  0.7672 -1.1120 -0.9285
  784MOL0     H 5779  12.022   0.374   0.162  0.2963 -0.3672  0.4083
  784MOL0     H 5780  11.878   0.299   0.089 -0.1072  0.2127  0.9803
  784MOL0     H 5781  11.906   0.319   0.387  1.2560 -0.6605 -0.4889
  784MOL0     H 5782  11.788   0.220   0.306 -0.4132  0.9216 -0.9132
  784MOL0     H 5783  11.980   0.102   0.194 -1.8357  1.3880  0.1943
  784MOL0     H 5784  12.093   0.162   0.319  0.0511 -2.4867  2.5394
  784MOL0     H 5785  11.853  -0.006   0.372  1.3787 -2.7899  0.6380
  784MOL0     H 5786  12.019  -0.049   0.389 -0.9441 -0.2199 -3.9854
  784MOL0     H 5787  11.859   0.147   0.567 -1.7040 -1.3037 -1.5612
  784MOL0     H 5788  12.034   0.168   0.547 -0.1754 -0.1516  0.6741
  784MOL0     H 5789  11.898  -0.078   0.636 -0.8684 -0.1754  3.6337
  784MOL0     H 5790  12.071  -0.065   0.633  1.0238  0.7675  0.0686
  784MOL0     H 5791  12.164   0.178   0.770 -0.5875 -2.1429 -1.3136
  784MOL0     H 5792  12.044   0.271   1.132  0.9013 -0.2060  0.2079
  784MOL0     H 5793  12.185   0.292   1.019 -0.1907  0.9294 -1.7785
  784MOL0     H 5794  12.021   0.467   0.906  0.3654  2.6473  1.3023
  784MOL0     H 5795  11.900   0.417   1.021  0.3791  2.8071  1.6724
  784MOL0     H 5796  12.080   0.512   1.201  0.2890  2.4769  0.4631
  784MOL0     H 5797  12.003   0.631   1.105 -0.4877 -0.6611  0.3181
  784MOL0     H 5798  12.193   0.646   0.946  1.4716  3.5065  1.2079
  784MOL0     H 5799  12.275   0.524   1.068  1.1386  1.4404  0.4893
  784MOL0     H 5800  12.343   0.845   1.309  0.0471 -1.0057  0.7378
  784MOL0     H 5801  12.570   0.938   1.328 -2.2540 -0.9761  0.9709
  784MOL0     H 5802  12.877   1.194   1.349  0.9817  1.1965 -1.6048
  784MOL0     H 5803  13.089   1.259   1.472 -1.4990 -0.0222  0.6598
  784MOL0     H 5804  13.339   0.972   1.662  1.8701 -2.3254 -0.6650
  784MOL0     H 5805  13.431   0.981   1.503 -0.7112 -0.4874 -0.7360
  784MOL0     H 5806  13.547   1.171   1.554 -4.5959  1.0529 -3.6168
  784MOL0     H 5807  13.433   1.218   1.675  0.1046  0.1916 -3.2713
  784MOL0     H 5808  13.647   1.125   1.785  0.7643 -0.6686 -1.3097
  784MOL0     H 5809  13.500   1.018   1.816  0.0152 -1.2087 -1.0148
  784MOL0     H 5810  13.719   0.986   1.609 -1.6168  3.0816 -0.2046
  784MOL0     H 5811  13.592   0.873   1.613 -0.5592  1.9616 -1.3952
  784MOL0     H 5812  13.645   0.821   1.849  1.1559  0.2251  0.5574
  784MOL0     H 5813  13.768   0.947   1.840 -3.5868  2.8920 -1.6889
  784MOL0     H 5814  13.815   0.690   1.813 -0.8537  0.4964  0.9506
  784MOL0     H 5815  13.744   0.707   1.650  0.5348  0.9503 -1.0138
  784MOL0     H 5816  13.979   0.860   1.737 -0.5285  0.1283 -0.7475
  784MOL0     H 5817  13.929   0.846   1.572 -1.5503  3.0096  1.4079
  784MOL0     H 5818  14.069   0.653   1.747 -2.4520  1.9280  1.5432
  784MOL0     H 5819  13.979   0.590   1.605  0.5898  1.1084 -1.9383
  784MOL0     H 5820  13.205   0.849   1.475  0.6482  0.1179 -1.1764
  784MOL0     H 5821  12.987   0.788   1.387  1.3332 -0.5025  2.7272
  784MOL0     H 5822  12.681   0.692   0.988 -3.0955 -4.7595 -0.2623
  784MOL0     H 5823  12.442   0.637   0.959 -0.2771  1.7461 -0.9742
  784MOL0     H 5824  11.600   0.522   0.590  0.4064 -1.1217 -0.4502
  784MOL0     H 5825  11.373   0.498   0.706 -1.3128  2.6648 -0.5480
  784MOL0     H 5826  10.882   0.325   0.578 -1.9805  0.0723  1.0004
  784MOL0     H 5827  10.681   0.326   0.660  0.1919 -3.2089 -0.6958
  784MOL0     H 5828  10.480   0.329   0.750  2.5719 -1.0101  0.7603
  784MOL0     H 5829  10.540   0.488   0.794  2.7282 -0.6311 -0.3611
  784MOL0     H 5830  10.307   0.475   0.848 -0.1210 -1.6744 -1.5034
  784MOL0     H 5831  10.372   0.452   1.001 -1.4374  0.5430 -0.4185
  784MOL0     H 5832  10.361   0.201   0.968 -1.2713 -1.6842 -0.0183
  784MOL0     H 5833  10.265   0.223   0.821  0.9457  0.8533 -0.1316
  784MOL0     H 5834  10.142   0.181   1.050  0.4160 -0.0340 -1.0426
  784MOL0     H 5835  10.180   0.353   1.090  2.1368  4.0402 -3.4044
  784MOL0     H 5836   9.854   0.302   0.827 -0.2476 -1.2331  0.5126
  784MOL0     H 5837  10.813   0.315   1.066  0.2037  1.0784 -0.4964
  784MOL0     H 5838  11.038   0.321   1.118  2.0002  0.4767  0.4826
  784MOL0     H 5839  11.112   0.215   1.002  1.0236  1.7067  0.2220
  784MOL0     H 5840  11.155   0.394   1.004  1.2614 -0.5930 -1.3804
  785MOL0     O 5841   8.914   0.984  10.534  0.6770 -0.1171  1.0304
  785MOL0     C 5842   8.806   1.041  10.504  0.5809  0.5189 -0.8208
  785MOL0     O 5843   8.781   1.170  10.516 -0.2152 -0.9324 -0.3996
  785MOL0     C 5844   8.884   1.250  10.577  0.2784  0.8138  0.6216
  785MOL0     C 5845   9.017   1.260  10.526  0.6848 -0.0524 -0.2100
  785MOL0     C 5846   9.102   1.349  10.598 -0.2674  0.4057 -0.3001
  785MOL0     C 5847   9.073   1.428  10.708 -0.5561  0.3339 -0.2378
  785MOL0     O 5848   9.171   1.499  10.770  0.4734 -0.6138  0.3788
  785MOL0     C 5849   9.160   1.528  10.914  0.0831 -0.9483  0.4062
  785MOL0     C 5850   9.290   1.529  10.986 -0.1525  0.0202 -0.1699
  785MOL0     C 5851   9.384   1.654  10.971 -0.5220  0.4904  0.5531
  785MOL0     C 5852   9.340   1.780  11.045 -0.2153 -0.9313  1.0210
  785MOL0     C 5853   9.418   1.913  11.016 -0.1004  0.1964  0.8467
  785MOL0     C 5854   9.566   1.890  11.032 -0.2867  0.3698  0.2649
  785MOL0     C 5855   9.607   1.862  11.175 -0.0192 -0.2300  0.4423
  785MOL0     C 5856   9.754   1.805  11.183 -0.0927  0.6892 -1.3091
  785MOL0     N 5857   9.786   1.749  11.313  0.2241  0.3126  0.4449
  785MOL0     C 5858   9.796   1.820  11.433 -0.0601  0.1856 -0.6108
  785MOL0     C 5859   9.849   1.731  11.522  0.6481  0.2539 -0.6517
  785MOL0     C 5860   9.874   1.769  11.664  0.2435  0.2552  0.6198
  785MOL0     C 5861  10.003   1.695  11.720 -0.3283 -0.9713 -0.1187
  785MOL0     C 5862  10.129   1.751  11.648  0.2521  0.3331  0.0923
  785MOL0     C 5863  10.148   1.891  11.696 -0.8195 -0.2437  0.5199
  785MOL0     O 5864  10.279   1.942  11.653 -0.0733  0.2509 -0.0625
  785MOL0     C 5865  10.399   1.910  11.719  0.7448  0.1956 -0.2907
  785MOL0     C 5866  10.513   1.884  11.653 -0.2935 -0.1429 -0.0183
  785MOL0     C 5867  10.630   1.852  11.723 -0.3964  0.1453  0.3769
  785MOL0     C 5868  10.636   1.824  11.862  0.1439 -0.8262 -0.2777
  785MOL0     C 5869  10.749   1.761  11.928  0.4063 -0.9354 -0.3513
  785MOL0     O 5870  10.857   1.728  11.850  0.0938 -0.2725  0.0057
  785MOL0     C 5871  10.962   1.659  11.907 -0.3283  0.7190 -0.0116
  785MOL0     C 5872  11.080   1.729  11.933 -0.2600 -0.0445 -0.0550
  785MOL0     C 5873  11.183   1.671  11.995 -0.3420 -0.6858  0.7540
  785MOL0     C 5874  11.182   1.532  12.016 -0.3630  0.0336 -0.2740
  785MOL0     O 5875  11.282   1.456  12.073 -0.4666 -0.8495  0.6551
  785MOL0     C 5876  11.392   1.533  12.140  0.3823  0.3912  0.5978
  785MOL0     C 5877  11.476   1.450  12.218  0.2647  1.4380 -0.5638
  785MOL0     C 5878  11.614   1.520  12.239  0.2514 -0.5666 -0.1689
  785MOL0     C 5879  11.719   1.434  12.305  0.5078  0.2886 -0.2069
  785MOL0     C 5880  11.825   1.510  12.364 -1.0461 -0.3247  0.2210
  785MOL0     C 5881  11.893   1.602  12.265  0.3866 -0.0453  0.0897
  785MOL0     C 5882  12.024   1.663  12.310  0.2565 -0.3408 -0.0312
  785MOL0     C 5883  12.054   1.801  12.252  1.1177  0.1222  0.0674
  785MOL0    Cl 5884  12.216   1.864  12.317  0.4908 -0.2659 -0.3663
  785MOL0     C 5885  11.062   1.461  11.992  0.8099 -0.7704 -0.0125
  785MOL0     C 5886  10.954   1.524  11.934  0.0689  0.2298  0.5387
  785MOL0     O 5887  10.740   1.762  12.052 -0.4482  0.3607 -0.6824
  785MOL0     C 5888  10.517   1.862  11.933  0.5497 -0.6904  0.5993
  785MOL0     C 5889  10.397   1.897  11.858 -0.4009 -0.2736 -0.9523
  785MOL0     N 5890   9.862   1.608  11.467  0.0122 -0.1099  0.7872
  785MOL0     N 5891   9.815   1.613  11.338 -0.1691 -0.4443 -0.5923
  785MOL0     C 5892   8.941   1.424  10.739  0.2183  0.7958  0.1419
  785MOL0     C 5893   8.851   1.342  10.673  0.2440 -0.2573 -0.1372
  785MOL0     C 5894   8.681   0.966  10.465 -0.1929 -0.6742 -0.9178
  785MOL0     C 5895   8.552   1.038  10.451  0.1022  0.2649  0.1414
  785MOL0     C 5896   8.434   0.971  10.435  0.6930 -0.2711  0.1840
  785MOL0     C 5897   8.430   0.836  10.411 -0.2462 -0.7065  0.0171
  785MOL0     O 5898   8.324   0.768  10.366 -0.2212  0.8005  0.6632
  785MOL0     C 5899   8.213   0.791  10.454 -0.2211  0.3192 -0.1716
  785MOL0     C 5900   8.099   0.695  10.441  0.0389  1.3726  0.9783
  785MOL0     C 5901   8.046   0.651  10.579 -0.8772  0.2092  0.6949
  785MOL0     C 5902   7.929   0.547  10.576  0.3703  0.0004  0.1855
  785MOL0     C 5903   7.873   0.532  10.712  0.0228  0.0744  0.3950
  785MOL0     C 5904   7.830   0.505  10.818 -0.1382 -0.1318 -0.6781
  785MOL0     C 5905   8.546   0.759  10.421 -0.0928  0.4329  0.3528
  785MOL0     C 5906   8.668   0.822  10.447  0.4479 -0.9659 -0.2847
  785MOL0     C 5907   8.790   0.732  10.446  0.6332  0.0377 -0.4482
  785MOL0     H 5908   9.063   1.200  10.447  0.4226 -0.7279  0.1439
  785MOL0     H 5909   9.207   1.343  10.569 -1.0483  0.6613 -3.5143
  785MOL0     H 5910   9.115   1.628  10.922  0.6388 -0.5494 -1.0701
  785MOL0     H 5911   9.090   1.459  10.961  0.5887 -0.4756  1.9100
  785MOL0     H 5912   9.345   1.446  10.939  0.6153  1.1525 -1.3178
  785MOL0     H 5913   9.270   1.502  11.090  0.2299 -0.8287 -0.3036
  785MOL0     H 5914   9.398   1.670  10.864 -2.4744  0.2198  0.2114
  785MOL0     H 5915   9.484   1.625  11.003  0.6085  1.1240 -2.1522
  785MOL0     H 5916   9.234   1.805  11.033 -0.2102 -0.5906  1.6248
  785MOL0     H 5917   9.334   1.759  11.153  1.5129 -0.1019  1.3088
  785MOL0     H 5918   9.403   1.946  10.913 -1.4127  1.4146  1.3989
  785MOL0     H 5919   9.391   1.992  11.086  0.0329 -0.2675  1.4230
  785MOL0     H 5920   9.612   1.802  10.986  0.2302 -2.4605  5.3640
  785MOL0     H 5921   9.618   1.976  10.989  0.2280 -1.2662 -2.6292
  785MOL0     H 5922   9.538   1.796  11.228 -1.4484  1.6760  1.0933
  785MOL0     H 5923   9.618   1.960  11.223 -2.0476 -0.1533  0.8410
  785MOL0     H 5924   9.754   1.722  11.112 -1.2490 -0.4119 -0.0808
  785MOL0     H 5925   9.829   1.877  11.149  1.9492 -0.7718 -0.0449
  785MOL0     H 5926   9.765   1.922  11.451 -0.0495  0.6836 -3.0289
  785MOL0     H 5927   9.875   1.877  11.680 -1.7136  0.0277  2.6881
  785MOL0     H 5928   9.784   1.735  11.715  0.1940  1.3026  1.2564
  785MOL0     H 5929  10.008   1.706  11.829  1.9305 -0.7627 -0.1939
  785MOL0     H 5930   9.993   1.587  11.710 -2.6814 -0.7360 -0.9230
  785MOL0     H 5931  10.129   1.746  11.539  1.8404 -0.3429  0.0953
  785MOL0     H 5932  10.215   1.694  11.683  0.2052 -1.1864 -2.0825
  785MOL0     H 5933  10.132   1.880  11.804 -3.9454 -1.4323  0.0379
  785MOL0     H 5934  10.075   1.957  11.649 -0.6170 -1.7118 -2.0551
  785MOL0     H 5935  10.501   1.910  11.548 -1.5749  1.4668  0.4821
  785MOL0     H 5936  10.719   1.826  11.668 -1.1281 -0.6768 -0.4624
  785MOL0     H 5937  11.093   1.831  11.899  1.2057 -0.5855 -1.1870
  785MOL0     H 5938  11.282   1.717  11.990 -1.3923  1.6186 -0.5306
  785MOL0     H 5939  11.450   1.595  12.071  0.4087 -1.1093 -0.7701
  785MOL0     H 5940  11.339   1.603  12.206 -0.2727  0.9349 -0.4653
  785MOL0     H 5941  11.430   1.426  12.314  2.7807 -0.7495  0.2201
  785MOL0     H 5942  11.488   1.355  12.165 -0.9367  1.5211 -1.0213
  785MOL0     H 5943  11.643   1.564  12.143  1.9788  0.1760  0.6339
  785MOL0     H 5944  11.595   1.606  12.303  0.3091  1.9474 -3.2980
  785MOL0     H 5945  11.751   1.365  12.227  0.7620  1.2567 -0.9677
  785MOL0     H 5946  11.669   1.368  12.377 -5.0070 -0.1521 -3.8491
  785MOL0     H 5947  11.903   1.442  12.401 -1.6212 -0.2215  1.6688
  785MOL0     H 5948  11.790   1.575  12.444  2.3325  1.9790  0.0370
  785MOL0     H 5949  11.906   1.544  12.173 -0.5981  0.9605 -0.7189
  785MOL0     H 5950  11.825   1.683  12.237 -1.7047 -1.3258  1.1622
  785MOL0     H 5951  12.101   1.586  12.307 -0.8764 -1.5276  0.2321
  785MOL0     H 5952  12.010   1.695  12.414 -1.0517  0.8721 -0.5472
  785MOL0     H 5953  12.065   1.797  12.143 -1.4682 -1.3268 -0.2329
  785MOL0     H 5954  11.969   1.867  12.274  1.0021  0.7763 -2.0681
  785MOL0     H 5955  11.058   1.356  12.019  1.0415 -0.8172 -0.1583
  785MOL0     H 5956  10.878   1.463  11.885  1.1320 -1.3740  0.8141
  785MOL0     H 5957  10.508   1.855  12.041  0.0352  0.5355  0.6536
  785MOL0     H 5958  10.310   1.921  11.918 -0.2255 -2.0353  0.0704
  785MOL0     H 5959   8.898   1.479  10.822  0.0433  0.1416  0.4974
  785MOL0     H 5960   8.745   1.358  10.692  0.1915 -0.4289 -0.2801
  785MOL0     H 5961   8.542   1.145  10.465 -1.0287  0.0719  0.9149
  785MOL0     H 5962   8.348   1.037  10.439  0.2749 -0.0461 -5.1418
  785MOL0     H 5963   8.172   0.891  10.437  0.9925  0.5001 -2.4264
  785MOL0     H 5964   8.240   0.794  10.559 -1.9316  0.4786  0.3043
  785MOL0     H 5965   8.131   0.610  10.380 -0.4867  2.2252 -0.5336
  785MOL0     H 5966   8.015   0.737  10.385 -0.3303 -1.7200 -1.0213
  785MOL0     H 5967   7.999   0.737  10.627 -0.4300 -0.0847  1.6760
  785MOL0     H 5968   8.121   0.607  10.645 -2.0586  1.3456  2.9200
  785MOL0     H 5969   7.851   0.584  10.509  0.2007 -0.0434  0.3556
  785MOL0     H 5970   7.967   0.451  10.539  2.3400 -0.0331  2.0792
  785MOL0     H 5971   7.802   0.477  10.918 -1.1972  3.0935  0.0416
  785MOL0     H 5972   8.548   0.651  10.407 -0.6037  0.2602  1.5204
  785MOL0     H 5973   8.788   0.669  10.357 -2.7870  1.4146 -1.5141
  785MOL0     H 5974   8.888   0.777  10.466  0.3404 -0.3357  2.2004
  785MOL0     H 5975   8.776   0.665  10.531  3.0260 -1.0397 -0.8191
  786MOL0     O 5976  10.057   6.219   5.748 -0.5138 -0.0502  0.0737
  786MOL0     C 5977   9.990   6.275   5.836  1.1726 -0.0246  0.4545
  786MOL0     O 5978  10.031   6.380   5.915 -0.0184 -0.4706  0.0167
  786MOL0     C 5979  10.158   6.431   5.900 -0.5519  0.3678  0.0857
  786MOL0     C 5980  10.278   6.360   5.922  0.3570 -1.2376  0.6803
  786MOL0     C 5981  10.404   6.412   5.913  0.1661 -0.5563 -0.7351
  786MOL0     C 5982  10.420   6.547   5.902 -0.4346 -0.4207 -0.0607
  786MOL0     O 5983  10.544   6.597   5.910  0.2104 -0.1981  0.1375
  786MOL0     C 5984  10.567   6.699   5.803  0.5515  1.0932  0.2576
  786MOL0     C 5985  10.700   6.766   5.827 -0.0168 -0.8350  0.6213
  786MOL0     C 5986  10.815   6.673   5.804 -0.1664  1.1564 -0.3222
  786MOL0     C 5987  10.951   6.709   5.870  0.4524 -0.6405 -0.2018
  786MOL0     C 5988  11.065   6.605   5.839 -0.0872 -0.3404 -0.6602
  786MOL0     C 5989  11.208   6.667   5.836 -0.4882 -0.2499 -0.9642
  786MOL0     C 5990  11.306   6.571   5.776  1.0344 -0.0899  0.0469
  786MOL0     C 5991  11.437   6.641   5.764  0.9164 -0.2240  0.0304
  786MOL0     N 5992  11.507   6.657   5.897 -0.6346 -0.2608  0.0730
  786MOL0     C 5993  11.593   6.566   5.951  0.3472  0.4574  0.2497
  786MOL0     C 5994  11.628   6.613   6.075 -0.0992 -0.4477  0.3561
  786MOL0     C 5995  11.722   6.561   6.177  0.0504  0.4833 -0.5277
  786MOL0     C 5996  11.858   6.626   6.186  0.1196 -0.4791  0.1023
  786MOL0     C 5997  11.912   6.648   6.334 -0.0425  0.0416 -0.2177
  786MOL0     C 5998  12.006   6.542   6.390  0.2048  0.5457  0.2373
  786MOL0     O 5999  12.103   6.604   6.476  0.1677 -0.4581 -0.0514
  786MOL0     C 6000  12.221   6.541   6.496 -0.2093 -0.0595 -0.3959
  786MOL0     C 6001  12.235   6.405   6.489 -0.2151 -0.1016  0.2936
  786MOL0     C 6002  12.358   6.341   6.513 -0.1539 -0.9509  0.1510
  786MOL0     C 6003  12.467   6.422   6.548  0.7896 -0.2820 -0.2511
  786MOL0     C 6004  12.606   6.362   6.556 -0.3005 -0.3069  0.0633
  786MOL0     O 6005  12.713   6.455   6.553  0.9387  0.0119  0.8506
  786MOL0     C 6006  12.843   6.412   6.552 -1.9266  0.1927  0.7126
  786MOL0     C 6007  12.925   6.443   6.659  0.4032 -0.3345  0.5051
  786MOL0     C 6008  13.067   6.427   6.656 -0.4959  0.1244  0.2990
  786MOL0     C 6009  13.116   6.370   6.540 -0.1283  0.3888 -0.1333
  786MOL0     O 6010  13.253   6.350   6.514  0.4253 -0.1610  0.1556
  786MOL0     C 6011  13.348   6.412   6.600 -0.2104  0.0543 -0.8021
  786MOL0     C 6012  13.483   6.354   6.565  0.9529  0.5698  0.0160
  786MOL0     C 6013  13.508   6.223   6.637 -0.0389  0.8687  0.4410
  786MOL0     C 6014  13.660   6.187   6.646  0.3116  0.1839 -0.2636
  786MOL0     C 6015  13.677   6.041   6.692 -0.7136 -0.1505 -0.1273
  786MOL0     C 6016  13.816   6.021   6.750  0.4056 -0.6192  0.1363
  786MOL0     C 6017  13.847   5.874   6.782 -1.0966  0.0980  0.0317
  786MOL0     C 6018  13.890   5.797   6.647 -0.7640 -0.4598  0.4781
  786MOL0    Cl 6019  14.036   5.876   6.581  0.5144  0.2294  0.1151
  786MOL0     C 6020  13.034   6.338   6.428 -0.5153  0.0072 -0.4137
  786MOL0     C 6021  12.897   6.354   6.431 -0.3387 -1.1022 -0.0289
  786MOL0     O 6022  12.621   6.242   6.568  0.3864 -0.2168 -0.1909
  786MOL0     C 6023  12.452   6.564   6.552 -0.3230  0.0554 -0.4711
  786MOL0     C 6024  12.325   6.623   6.529 -0.6390  0.6549 -0.0193
  786MOL0     N 6025  11.576   6.737   6.083 -0.2976  0.2069 -0.3138
  786MOL0     N 6026  11.493   6.758   5.982 -0.2821 -0.2575 -0.2344
  786MOL0     C 6027  10.303   6.631   5.908 -0.2287 -0.2023  0.4129
  786MOL0     C 6028  10.171   6.575   5.902  0.0341  0.2448  0.4474
  786MOL0     C 6029   9.871   6.187   5.867 -0.0436 -0.1379 -0.5917
  786MOL0     C 6030   9.792   6.141   5.763 -0.4321 -0.4427  0.2399
  786MOL0     C 6031   9.670   6.081   5.785  0.4940 -0.9169 -0.2511
  786MOL0     C 6032   9.631   6.044   5.912  0.2743 -0.5407 -1.4256
  786MOL0     O 6033   9.514   5.976   5.939  0.7503  0.2611 -0.4685
  786MOL0     C 6034   9.488   5.918   6.072 -0.2637  0.1613  0.2400
  786MOL0     C 6035   9.356   5.845   6.074 -0.1068 -0.0839  0.6796
  786MOL0     C 6036   9.239   5.938   6.044  0.1810  0.5088 -0.0323
  786MOL0     C 6037   9.123   5.849   5.984 -0.3239 -0.3229 -0.2879
  786MOL0     C 6038   9.064   5.759   6.083 -0.3596 -0.3211  0.0085
  786MOL0     C 6039   9.012   5.700   6.173  0.1223  0.3734 -0.9820
  786MOL0     C 6040   9.709   6.090   6.018 -0.1317 -0.3667  0.0248
  786MOL0     C 6041   9.827   6.164   6.001 -0.0292  0.0980 -0.0917
  786MOL0     C 6042   9.877   6.236   6.121  0.7725  0.0005  0.4006
  786MOL0     H 6043  10.268   6.254   5.946 -0.7527 -1.3470 -0.1700
  786MOL0     H 6044  10.486   6.341   5.912  0.3014 -0.4084 -0.3720
  786MOL0     H 6045  10.552   6.654   5.705  1.0820  2.1286 -0.3102
  786MOL0     H 6046  10.492   6.779   5.807 -1.3960 -0.5714 -0.8407
  786MOL0     H 6047  10.700   6.801   5.931 -0.5057 -2.2064  1.0932
  786MOL0     H 6048  10.713   6.859   5.771  0.5283 -0.4575  1.3552
  786MOL0     H 6049  10.823   6.665   5.696  2.1470  2.2145 -0.2913
  786MOL0     H 6050  10.783   6.573   5.834  0.7848  0.9015 -0.1047
  786MOL0     H 6051  10.992   6.805   5.840  0.9370 -0.5352  0.7698
  786MOL0     H 6052  10.925   6.733   5.973  3.4946  0.9421  0.2887
  786MOL0     H 6053  11.053   6.521   5.909  3.3372 -0.4431 -0.0608
  786MOL0     H 6054  11.047   6.568   5.737  1.9102 -0.6076 -0.9573
  786MOL0     H 6055  11.206   6.757   5.773 -1.6316  1.0052  0.7539
  786MOL0     H 6056  11.246   6.686   5.937  0.6930 -2.0804 -1.0295
  786MOL0     H 6057  11.271   6.544   5.676 -1.3822  4.5214 -0.6080
  786MOL0     H 6058  11.310   6.477   5.833 -2.4170  0.3012  1.2121
  786MOL0     H 6059  11.502   6.570   5.713 -0.5437 -0.4705 -1.5832
  786MOL0     H 6060  11.425   6.737   5.714  0.1251  0.8687  2.1578
  786MOL0     H 6061  11.622   6.477   5.896 -2.9131  0.0216 -1.0198
  786MOL0     H 6062  11.676   6.557   6.276 -0.8800 -3.3649 -0.9686
  786MOL0     H 6063  11.733   6.455   6.153  0.8495 -0.4452  3.2734
  786MOL0     H 6064  11.916   6.567   6.115 -2.1254  1.3882 -3.6273
  786MOL0     H 6065  11.837   6.727   6.149 -3.3834 -1.5709 -1.3364
  786MOL0     H 6066  11.830   6.663   6.405  1.9213  0.4606  2.0878
  786MOL0     H 6067  11.964   6.744   6.324 -1.5045  0.9390  0.4905
  786MOL0     H 6068  12.056   6.493   6.306  1.1470  0.9633  0.5381
  786MOL0     H 6069  11.942   6.467   6.438  0.7376  1.2411  2.1165
  786MOL0     H 6070  12.150   6.337   6.482 -0.2741 -0.1407  1.2491
  786MOL0     H 6071  12.347   6.233   6.522 -4.6450 -0.5582  1.7012
  786MOL0     H 6072  12.878   6.487   6.746 -3.2327  2.4567 -2.4660
  786MOL0     H 6073  13.122   6.449   6.747  1.4518 -2.5185 -0.1061
  786MOL0     H 6074  13.349   6.519   6.578  2.1488 -0.0228 -1.3527
  786MOL0     H 6075  13.324   6.384   6.703  0.3557 -1.0496 -0.9538
  786MOL0     H 6076  13.492   6.321   6.461  1.6318 -1.0892  0.5743
  786MOL0     H 6077  13.563   6.428   6.579  1.1538  0.3965 -0.2018
  786MOL0     H 6078  13.459   6.220   6.735 -1.5559 -1.9295 -0.2816
  786MOL0     H 6079  13.466   6.141   6.577  1.9188 -0.5086  0.8314
  786MOL0     H 6080  13.699   6.249   6.728  1.4717 -0.2394 -0.4892
  786MOL0     H 6081  13.720   6.199   6.556 -0.8232  1.3342 -0.9070
  786MOL0     H 6082  13.663   5.984   6.599 -0.8470  1.8683 -1.3982
  786MOL0     H 6083  13.600   6.007   6.763 -1.6175  1.2123 -0.4239
  786MOL0     H 6084  13.889   6.076   6.690 -1.1811  3.0164  1.2690
  786MOL0     H 6085  13.812   6.069   6.848 -0.4365 -2.7115  1.1830
  786MOL0     H 6086  13.760   5.821   6.822 -0.5969 -1.1885 -0.5232
  786MOL0     H 6087  13.928   5.868   6.855  0.2381 -1.2382 -1.4795
  786MOL0     H 6088  13.910   5.691   6.668 -2.6215 -0.7428  0.9260
  786MOL0     H 6089  13.807   5.814   6.579 -0.5791 -0.9861  0.1152
  786MOL0     H 6090  13.084   6.297   6.341  1.6731  3.1220 -0.8142
  786MOL0     H 6091  12.831   6.335   6.347  1.9450 -2.4920 -1.6003
  786MOL0     H 6092  12.539   6.627   6.556  0.1043 -0.4835 -1.0297
  786MOL0     H 6093  12.316   6.731   6.535  0.6399  0.7703  0.0909
  786MOL0     H 6094  10.315   6.738   5.917 -4.7981  0.4319  1.1281
  786MOL0     H 6095  10.080   6.634   5.895 -0.6725 -0.9385 -0.8269
  786MOL0     H 6096   9.827   6.162   5.662 -3.0017 -1.8185 -1.0216
  786MOL0     H 6097   9.609   6.062   5.697  1.0463  0.8898 -1.0847
  786MOL0     H 6098   9.490   5.998   6.147  1.5833  0.0475  0.3524
  786MOL0     H 6099   9.564   5.844   6.098 -0.4371 -0.1537 -0.1402
  786MOL0     H 6100   9.359   5.796   6.171  2.5281 -0.1143  0.6594
  786MOL0     H 6101   9.342   5.768   5.997  0.2624  0.1317  0.3956
  786MOL0     H 6102   9.273   6.017   5.977  3.4058 -1.2799 -0.7306
  786MOL0     H 6103   9.192   5.987   6.130 -2.0302 -1.8675  0.2651
  786MOL0     H 6104   9.040   5.915   5.956  0.5864  0.6312 -0.7951
  786MOL0     H 6105   9.159   5.802   5.892 -4.0834 -0.1845 -2.0320
  786MOL0     H 6106   8.953   5.640   6.240 -0.7599  1.8312 -0.3876
  786MOL0     H 6107   9.682   6.071   6.122 -0.4282  4.1390  0.9664
  786MOL0     H 6108   9.842   6.188   6.213  1.3997 -0.4110  0.4347
  786MOL0     H 6109   9.986   6.223   6.124  0.7371 -1.4941 -2.1678
  786MOL0     H 6110   9.839   6.339   6.124 -3.0663 -1.2803  2.1802
  787MOL0     O 6111   4.146   3.067   3.588 -0.1610  0.1382 -0.2280
  787MOL0     C 6112   4.161   2.946   3.605  0.8061  1.1532  0.7795
  787MOL0     O 6113   4.278   2.881   3.588  0.5074  0.4688 -0.2906
  787MOL0     C 6114   4.393   2.942   3.549 -0.0286 -0.7271  0.0723
  787MOL0     C 6115   4.463   3.015   3.650  0.3013 -0.1524  0.3930
  787MOL0     C 6116   4.575   3.087   3.625  1.0074 -0.4588 -0.4310
  787MOL0     C 6117   4.631   3.078   3.493  0.6768  0.1938 -0.2325
  787MOL0     O 6118   4.744   3.149   3.478 -0.5124  0.2786  0.3897
  787MOL0     C 6119   4.800   3.166   3.345 -0.2987 -0.0689 -0.2245
  787MOL0     C 6120   4.906   3.065   3.318 -0.3935 -0.1214 -0.9433
  787MOL0     C 6121   5.027   3.083   3.420 -0.3137  0.4141  0.4385
  787MOL0     C 6122   5.163   3.042   3.366  0.0552  0.0459 -0.2827
  787MOL0     C 6123   5.274   3.045   3.467  0.1951 -0.4801 -0.6536
  787MOL0     C 6124   5.409   3.046   3.393  0.3288 -0.1930  0.8319
  787MOL0     C 6125   5.526   3.061   3.492 -0.6146 -1.2092  0.2543
  787MOL0     C 6126   5.666   3.045   3.420  0.8371 -0.2855  0.1445
  787MOL0     N 6127   5.772   3.103   3.497  0.2968  1.0596  0.3465
  787MOL0     C 6128   5.841   3.057   3.606 -0.7713 -0.3860 -0.1035
  787MOL0     C 6129   5.936   3.151   3.625 -0.4002  0.2333 -0.7094
  787MOL0     C 6130   6.032   3.141   3.747  0.0389  0.0804 -0.9121
  787MOL0     C 6131   6.170   3.089   3.702 -0.4368  1.2398 -0.1111
  787MOL0     C 6132   6.151   2.944   3.651  0.8022  0.5543 -0.1115
  787MOL0     C 6133   6.278   2.867   3.632  0.5047  0.6682 -0.8662
  787MOL0     O 6134   6.335   2.908   3.512 -0.5704 -0.0550  0.1733
  787MOL0     C 6135   6.467   2.864   3.494 -0.1144 -0.2765 -0.3657
  787MOL0     C 6136   6.549   2.794   3.587 -0.3573  0.1611  0.1497
  787MOL0     C 6137   6.671   2.743   3.559  0.1946  0.0052  1.0321
  787MOL0     C 6138   6.730   2.757   3.431  0.2901  0.4536  0.4230
  787MOL0     C 6139   6.863   2.715   3.395  0.9943 -0.0198 -0.2830
  787MOL0     O 6140   6.907   2.718   3.259 -0.4151  0.0248  0.2567
  787MOL0     C 6141   7.019   2.650   3.221  0.2392  0.8078 -0.4791
  787MOL0     C 6142   7.141   2.708   3.243 -0.4764  0.0508  0.1569
  787MOL0     C 6143   7.259   2.633   3.223  0.1513 -0.0190  0.0401
  787MOL0     C 6144   7.239   2.503   3.170 -0.8744 -0.6437  0.2501
  787MOL0     O 6145   7.348   2.428   3.125 -0.0633  0.0372 -1.0545
  787MOL0     C 6146   7.484   2.460   3.174 -0.2205  0.6635  0.0767
  787MOL0     C 6147   7.567   2.340   3.129 -0.9483 -0.7728  0.3611
  787MOL0     C 6148   7.559   2.212   3.205 -0.0393  0.3814 -0.0918
  787MOL0     C 6149   7.429   2.140   3.157  0.7973  0.0044 -0.1948
  787MOL0     C 6150   7.421   1.985   3.184  0.2023 -0.6981 -0.9463
  787MOL0     C 6151   7.547   1.905   3.137 -0.0125  0.3843 -0.1224
  787MOL0     C 6152   7.520   1.755   3.114 -0.1969  0.0735  0.5769
  787MOL0     C 6153   7.633   1.669   3.148 -0.8302 -0.2148 -0.4532
  787MOL0    Cl 6154   7.785   1.719   3.054  0.0394 -0.6663  0.0541
  787MOL0     C 6155   7.120   2.447   3.139  0.6948 -0.6187 -0.5085
  787MOL0     C 6156   7.005   2.521   3.173 -0.5360  0.3617  0.3764
  787MOL0     O 6157   6.925   2.674   3.493 -0.1487  0.3522  0.0839
  787MOL0     C 6158   6.656   2.840   3.345 -0.4404 -0.2467  0.2395
  787MOL0     C 6159   6.531   2.896   3.372  0.8350  0.0028  0.3490
  787MOL0     N 6160   5.926   3.246   3.527  0.1417 -0.1499  0.0562
  787MOL0     N 6161   5.824   3.220   3.452 -0.3080  1.5710  1.0095
  787MOL0     C 6162   4.560   2.999   3.389  0.1773 -0.4500  0.5113
  787MOL0     C 6163   4.443   2.931   3.421 -0.0820 -0.5876 -0.4139
  787MOL0     C 6164   4.048   2.870   3.659 -0.2279  0.5020 -0.2191
  787MOL0     C 6165   4.057   2.727   3.678 -0.1331 -0.5766 -0.5708
  787MOL0     C 6166   3.951   2.648   3.716 -0.7479  0.2773  0.0991
  787MOL0     C 6167   3.818   2.691   3.735 -0.5021  0.5932 -0.5948
  787MOL0     O 6168   3.726   2.593   3.766 -0.0144 -0.1015  0.2025
  787MOL0     C 6169   3.601   2.644   3.805  0.3981  0.9413 -0.5452
  787MOL0     C 6170   3.506   2.527   3.842  0.5272 -0.3120  0.1387
  787MOL0     C 6171   3.349   2.552   3.853  0.1142  1.0375  0.6273
  787MOL0     C 6172   3.280   2.411   3.842  0.0535  0.0309 -0.9364
  787MOL0     C 6173   3.149   2.410   3.899 -0.0557  0.2052  0.4659
  787MOL0     C 6174   3.035   2.393   3.945 -0.5710 -0.0291 -0.1625
  787MOL0     C 6175   3.807   2.832   3.720  0.6778  0.7129  0.5815
  787MOL0     C 6176   3.914   2.914   3.686  0.0748 -0.5902  1.1549
  787MOL0     C 6177   3.881   3.058   3.689  0.3624 -0.8171  0.2732
  787MOL0     H 6178   4.428   3.021   3.753 -0.4074  0.2366  0.1342
  787MOL0     H 6179   4.621   3.156   3.695 -0.8925 -1.2643  1.7371
  787MOL0     H 6180   4.721   3.159   3.269 -0.5662 -0.5179  0.0910
  787MOL0     H 6181   4.858   3.257   3.332 -1.0396  0.8517  2.3060
  787MOL0     H 6182   4.940   3.091   3.218  1.5469 -1.6712 -0.7437
  787MOL0     H 6183   4.866   2.963   3.319  1.5650 -0.9257  0.3503
  787MOL0     H 6184   5.019   3.036   3.519  2.0628 -0.5403  0.2590
  787MOL0     H 6185   5.027   3.191   3.437 -3.0772  0.6570 -0.5778
  787MOL0     H 6186   5.160   2.937   3.333  0.5898 -0.7838  2.1519
  787MOL0     H 6187   5.194   3.099   3.278 -0.4609  1.8301  0.6393
  787MOL0     H 6188   5.266   3.132   3.533 -0.0374 -0.6623 -0.4448
  787MOL0     H 6189   5.269   2.952   3.525  0.7604 -0.6681 -0.8966
  787MOL0     H 6190   5.415   2.949   3.342 -2.4882  0.9062 -1.9614
  787MOL0     H 6191   5.416   3.127   3.320 -1.6761 -2.4552 -2.1544
  787MOL0     H 6192   5.524   2.984   3.570  1.4356 -1.5456  0.0187
  787MOL0     H 6193   5.523   3.153   3.550  1.9123 -1.2360  0.5096
  787MOL0     H 6194   5.684   2.938   3.407 -0.3189 -0.5606  0.6350
  787MOL0     H 6195   5.665   3.087   3.318 -2.7299 -0.5448 -0.0519
  787MOL0     H 6196   5.818   2.969   3.665 -2.3028 -0.2774 -0.4936
  787MOL0     H 6197   6.047   3.238   3.797 -1.0616 -1.6899  3.3276
  787MOL0     H 6198   5.986   3.076   3.822 -2.7145  0.9792 -1.7026
  787MOL0     H 6199   6.201   3.161   3.626 -0.0872  1.1475 -0.0588
  787MOL0     H 6200   6.246   3.078   3.780  0.1609 -1.6825 -0.9889
  787MOL0     H 6201   6.088   2.938   3.561  0.1408 -0.5537  0.4062
  787MOL0     H 6202   6.095   2.889   3.727  0.3504  1.3928  0.1782
  787MOL0     H 6203   6.263   2.758   3.627  2.0963  0.3696  0.3416
  787MOL0     H 6204   6.348   2.888   3.712  4.0197  3.4230 -4.2969
  787MOL0     H 6205   6.513   2.760   3.684  1.6870 -0.0399  0.8856
  787MOL0     H 6206   6.712   2.682   3.638  0.2633 -0.9229  0.2979
  787MOL0     H 6207   7.137   2.809   3.283  0.4016  0.2591 -0.2569
  787MOL0     H 6208   7.361   2.662   3.243  0.1843 -1.0089  1.4656
  787MOL0     H 6209   7.524   2.544   3.116  0.0194  1.0584  0.8007
  787MOL0     H 6210   7.487   2.473   3.283 -0.0974 -1.2492  0.3441
  787MOL0     H 6211   7.562   2.327   3.020  1.1411  2.1261 -0.2106
  787MOL0     H 6212   7.673   2.368   3.129 -0.7274 -1.1381 -3.3418
  787MOL0     H 6213   7.645   2.150   3.178  1.9227  2.9504 -0.0727
  787MOL0     H 6214   7.556   2.220   3.314  2.0739 -1.8543  0.2143
  787MOL0     H 6215   7.401   2.148   3.052 -2.5834 -0.0096  0.6119
  787MOL0     H 6216   7.349   2.192   3.209  0.9524 -1.6717  1.8393
  787MOL0     H 6217   7.329   1.943   3.144 -0.8399  0.2786  0.3606
  787MOL0     H 6218   7.411   1.967   3.291 -2.7572 -2.1782 -1.3855
  787MOL0     H 6219   7.580   1.946   3.041 -1.8322  1.5182 -0.3081
  787MOL0     H 6220   7.630   1.911   3.208  1.2357 -1.8575 -1.3010
  787MOL0     H 6221   7.492   1.752   3.009  1.4712  0.2189  0.1007
  787MOL0     H 6222   7.438   1.728   3.182 -0.2771  1.2864  0.9828
  787MOL0     H 6223   7.660   1.683   3.253  1.7905  2.5755 -1.3365
  787MOL0     H 6224   7.594   1.569   3.130  1.4474 -0.7989 -2.8618
  787MOL0     H 6225   7.110   2.349   3.093 -0.7016  0.3327 -2.4049
  787MOL0     H 6226   6.907   2.493   3.136  0.1737  1.1623 -2.3135
  787MOL0     H 6227   6.696   2.877   3.251 -2.3138  1.1923 -0.0516
  787MOL0     H 6228   6.471   2.947   3.298 -0.5809 -0.6715  1.0059
  787MOL0     H 6229   4.600   2.979   3.290 -0.0406  2.1770 -0.1657
  787MOL0     H 6230   4.396   2.864   3.350 -0.3340 -0.9546  0.0922
  787MOL0     H 6231   4.149   2.671   3.663  1.3948  1.3913  0.8572
  787MOL0     H 6232   3.972   2.542   3.709 -1.5468 -0.0487  1.9476
  787MOL0     H 6233   3.565   2.702   3.720  1.8813  1.3702 -0.9020
  787MOL0     H 6234   3.622   2.712   3.888 -1.2173  3.8538 -2.3648
  787MOL0     H 6235   3.542   2.477   3.933  0.5614  1.5204  1.1897
  787MOL0     H 6236   3.517   2.459   3.758 -1.3711 -2.1416  1.2710
  787MOL0     H 6237   3.304   2.613   3.774 -0.1994  0.4177  0.3208
  787MOL0     H 6238   3.329   2.588   3.955  1.9387 -3.0598  2.6703
  787MOL0     H 6239   3.284   2.386   3.735 -0.2642 -0.2593 -0.8822
  787MOL0     H 6240   3.340   2.335   3.893 -0.3092 -0.6943 -1.5630
  787MOL0     H 6241   2.940   2.399   3.994  0.0961  2.3638  1.0104
  787MOL0     H 6242   3.709   2.876   3.736 -0.2134 -1.2868  1.0524
  787MOL0     H 6243   3.773   3.073   3.699  0.3524 -0.1453 -0.7361
  787MOL0     H 6244   3.936   3.112   3.767 -0.9630  0.8044  0.1415
  787MOL0     H 6245   3.910   3.092   3.589 -0.5310 -2.8783 -0.7512
  788MOL0     O 6246   7.177   7.919   2.720 -0.2242 -0.0126  0.0220
  788MOL0     C 6247   7.127   8.014   2.761  0.0661 -0.7597 -0.8051
  788MOL0     O 6248   7.195   8.105   2.833 -0.8126 -0.1496 -0.7562
  788MOL0     C 6249   7.323   8.090   2.885 -0.4668 -0.2795 -0.6430
  788MOL0     C 6250   7.356   8.167   2.998 -0.3541  0.5155  0.2867
  788MOL0     C 6251   7.483   8.148   3.058  0.4925  0.1141 -0.2167
  788MOL0     C 6252   7.586   8.081   3.000 -0.3618  0.1009 -0.5361
  788MOL0     O 6253   7.716   8.087   3.048 -0.5601  0.1269 -0.1154
  788MOL0     C 6254   7.766   7.963   3.101  0.0801  0.2706 -0.0809
  788MOL0     C 6255   7.898   7.927   3.031  0.0596 -0.5274  0.0067
  788MOL0     C 6256   7.956   7.800   3.078 -0.4657 -0.1032 -0.5523
  788MOL0     C 6257   7.886   7.676   3.012  0.2789  0.1358  0.3318
  788MOL0     C 6258   7.959   7.532   3.038  0.0087 -0.3803 -0.3860
  788MOL0     C 6259   7.950   7.500   3.189  0.3590 -0.1434 -0.1978
  788MOL0     C 6260   8.032   7.377   3.207 -0.2779 -1.1557 -0.6294
  788MOL0     C 6261   8.045   7.354   3.360  0.5397 -0.3887  0.8704
  788MOL0     N 6262   8.089   7.214   3.380 -0.4375  0.0417  0.4286
  788MOL0     C 6263   8.214   7.161   3.383 -0.0838  0.3922  0.8890
  788MOL0     C 6264   8.200   7.038   3.444 -0.2460  0.0777 -0.1427
  788MOL0     C 6265   8.307   6.936   3.464 -1.1012 -0.0569 -0.2082
  788MOL0     C 6266   8.456   6.998   3.454  1.3782  0.0066 -0.3390
  788MOL0     C 6267   8.500   7.019   3.312  0.0331 -1.0655 -0.0264
  788MOL0     C 6268   8.638   6.962   3.298  0.5661  0.2979  0.2970
  788MOL0     O 6269   8.725   7.035   3.385 -0.1483 -0.5247 -0.1900
  788MOL0     C 6270   8.855   6.990   3.400 -0.1426  0.3925  0.7551
  788MOL0     C 6271   8.922   7.007   3.520  0.0462 -0.1626  0.0709
  788MOL0     C 6272   9.044   6.954   3.548 -0.5901 -0.3476  0.2137
  788MOL0     C 6273   9.120   6.895   3.444  0.4467  1.4602  0.4646
  788MOL0     C 6274   9.253   6.849   3.476  0.4513 -0.2835  0.3323
  788MOL0     O 6275   9.283   6.841   3.606  0.0265 -0.0789  0.1181
  788MOL0     C 6276   9.400   6.795   3.647  0.1994 -0.9192  0.0234
  788MOL0     C 6277   9.459   6.679   3.601  0.0562  0.6995 -0.8003
  788MOL0     C 6278   9.577   6.633   3.654  0.6156 -0.4882 -0.1134
  788MOL0     C 6279   9.646   6.706   3.757  1.3826  0.9976  0.0677
  788MOL0     O 6280   9.767   6.678   3.804 -0.3520 -0.7289 -0.4126
  788MOL0     C 6281   9.854   6.626   3.704 -0.2043 -0.3133 -0.5102
  788MOL0     C 6282   9.983   6.707   3.711  0.4588  0.0191  0.6838
  788MOL0     C 6283  10.054   6.709   3.843  0.2715  0.4240  0.3770
  788MOL0     C 6284  10.103   6.559   3.876  0.0856  0.5978 -1.3494
  788MOL0     C 6285  10.210   6.548   3.978  0.9249  1.1637 -0.0335
  788MOL0     C 6286  10.354   6.551   3.928 -0.1114  1.1236  0.4236
  788MOL0     C 6287  10.455   6.591   4.033 -0.3203 -0.3910  0.2195
  788MOL0     C 6288  10.496   6.464   4.119  0.1800  0.0652  0.3496
  788MOL0    Cl 6289  10.569   6.341   4.007 -0.1758  0.2208  0.0291
  788MOL0     C 6290   9.583   6.821   3.804  0.4502  0.3218  0.4728
  788MOL0     C 6291   9.459   6.864   3.750 -0.3262  0.2507 -0.0744
  788MOL0     O 6292   9.329   6.837   3.379 -0.4984 -0.6110  0.6482
  788MOL0     C 6293   9.059   6.884   3.314  0.6446  0.8054 -0.8018
  788MOL0     C 6294   8.926   6.925   3.291 -0.0450  0.1524  0.1094
  788MOL0     N 6295   8.064   7.013   3.468 -0.0595  0.7333  0.2559
  788MOL0     N 6296   7.999   7.117   3.417 -0.4608  0.2644 -0.2268
  788MOL0     C 6297   7.558   8.010   2.876 -0.0422 -0.0676  0.3233
  788MOL0     C 6298   7.430   8.026   2.819 -0.0131  0.0284 -0.3940
  788MOL0     C 6299   6.987   8.045   2.719  0.6167 -0.5944  0.5471
  788MOL0     C 6300   6.941   8.173   2.758  0.6264  0.5357  0.0139
  788MOL0     C 6301   6.809   8.217   2.739 -0.7873 -0.0062  0.9585
  788MOL0     C 6302   6.715   8.130   2.674  0.1189 -0.3161  0.7172
  788MOL0     O 6303   6.583   8.157   2.650 -0.5502 -0.3466 -0.0034
  788MOL0     C 6304   6.527   8.263   2.727  0.2001  0.1864  0.6446
  788MOL0     C 6305   6.379   8.244   2.736  0.6264 -0.1957  0.4873
  788MOL0     C 6306   6.320   8.273   2.602 -0.2930 -0.8746 -0.3568
  788MOL0     C 6307   6.164   8.297   2.626  0.0791 -0.3046  1.4576
  788MOL0     C 6308   6.109   8.339   2.489  0.5267  0.3423  0.0123
  788MOL0     C 6309   6.057   8.376   2.381  0.5122  0.1535  0.2930
  788MOL0     C 6310   6.756   8.000   2.657  0.2044  0.2720 -0.5495
  788MOL0     C 6311   6.890   7.953   2.671  0.2177 -0.1723 -0.5897
  788MOL0     C 6312   6.910   7.803   2.648 -0.2069 -0.1746  0.1377
  788MOL0     H 6313   7.282   8.240   3.031  0.3468  2.2267 -1.7560
  788MOL0     H 6314   7.500   8.211   3.145 -0.0271 -0.0280 -0.0097
  788MOL0     H 6315   7.780   7.980   3.208  1.7278 -3.4498  0.4339
  788MOL0     H 6316   7.694   7.881   3.096 -0.8293  1.1038 -1.3343
  788MOL0     H 6317   7.978   7.995   3.059  0.7163 -1.7705  1.2601
  788MOL0     H 6318   7.870   7.924   2.925 -3.2097 -1.5353  0.7626
  788MOL0     H 6319   7.947   7.792   3.186 -0.1826  0.0199 -0.5192
  788MOL0     H 6320   8.062   7.799   3.053  0.1692 -1.8251  1.9141
  788MOL0     H 6321   7.783   7.680   3.046  0.2206  0.6152  0.1107
  788MOL0     H 6322   7.886   7.695   2.904  1.4024  0.7456  0.4139
  788MOL0     H 6323   7.910   7.453   2.981 -0.2470 -0.9828  0.6430
  788MOL0     H 6324   8.058   7.527   2.993 -0.1086 -0.8664 -0.5927
  788MOL0     H 6325   8.002   7.582   3.240  0.3866 -0.3880  0.1729
  788MOL0     H 6326   7.847   7.495   3.224  0.3026  0.5040 -0.2647
  788MOL0     H 6327   8.133   7.388   3.166  0.5317  3.4825  1.8850
  788MOL0     H 6328   7.990   7.290   3.157 -0.3965 -1.5996  0.2217
  788MOL0     H 6329   8.114   7.411   3.423 -1.5032  0.0684  2.8331
  788MOL0     H 6330   7.946   7.380   3.399 -0.0792  2.0566 -1.9473
  788MOL0     H 6331   8.312   7.204   3.363 -0.4261 -0.2398 -2.9860
  788MOL0     H 6332   8.295   6.890   3.563 -5.0064  2.3491  0.6694
  788MOL0     H 6333   8.300   6.848   3.400  0.4661 -0.3247 -0.0312
  788MOL0     H 6334   8.479   7.087   3.513  1.9799 -0.7164  0.5358
  788MOL0     H 6335   8.522   6.925   3.500  2.4033  0.5049 -0.9904
  788MOL0     H 6336   8.501   7.122   3.275  2.6928 -2.1235 -3.4135
  788MOL0     H 6337   8.439   6.960   3.242  0.9593 -1.5663 -0.4257
  788MOL0     H 6338   8.671   6.988   3.197 -0.5969  3.7684  0.6604
  788MOL0     H 6339   8.640   6.854   3.313 -0.2756  0.4988  2.0492
  788MOL0     H 6340   8.866   7.050   3.602 -0.3061 -0.5969  0.0622
  788MOL0     H 6341   9.093   6.970   3.644  0.6680 -0.5999 -0.3657
  788MOL0     H 6342   9.426   6.618   3.518  1.3132 -1.6435  0.3247
  788MOL0     H 6343   9.613   6.536   3.620 -0.8374 -1.5672  1.2524
  788MOL0     H 6344   9.885   6.521   3.712  0.2451 -0.2584 -1.3922
  788MOL0     H 6345   9.830   6.637   3.597  1.8320 -2.2612 -1.2465
  788MOL0     H 6346  10.042   6.653   3.636 -0.0940  1.3843 -0.7837
  788MOL0     H 6347   9.967   6.810   3.678  0.1774 -0.4831 -0.8391
  788MOL0     H 6348  10.132   6.785   3.842 -0.4499  1.1836  0.6702
  788MOL0     H 6349   9.988   6.742   3.924  1.2012  3.6518 -0.0446
  788MOL0     H 6350  10.135   6.503   3.788  0.5560 -0.0817 -0.7613
  788MOL0     H 6351  10.018   6.501   3.913  0.2314  1.1914 -0.0157
  788MOL0     H 6352  10.196   6.450   4.024  0.4934  1.4809  0.5346
  788MOL0     H 6353  10.202   6.627   4.054 -1.0395 -0.8207  1.9850
  788MOL0     H 6354  10.384   6.453   3.890  1.1972  1.8793 -0.5625
  788MOL0     H 6355  10.371   6.615   3.841  1.3873  0.3907  0.1386
  788MOL0     H 6356  10.414   6.667   4.100 -0.0524  2.1544 -2.2981
  788MOL0     H 6357  10.541   6.645   3.992 -0.4324 -0.7538 -0.5066
  788MOL0     H 6358  10.573   6.488   4.193  2.2589  1.0063 -1.9645
  788MOL0     H 6359  10.403   6.435   4.168 -2.5250  1.2776 -3.5809
  788MOL0     H 6360   9.623   6.865   3.895  0.2270  4.0240 -1.0196
  788MOL0     H 6361   9.400   6.948   3.786 -0.5949 -0.3660  0.9767
  788MOL0     H 6362   9.103   6.844   3.224  0.3968 -1.4898  0.0264
  788MOL0     H 6363   8.899   6.923   3.186  1.7969 -1.1015 -0.4026
  788MOL0     H 6364   7.629   7.947   2.824 -0.1679 -0.1873  0.2972
  788MOL0     H 6365   7.424   7.969   2.726  2.1809  0.8050 -1.0784
  788MOL0     H 6366   7.015   8.242   2.796  1.8007 -0.7357  0.1085
  788MOL0     H 6367   6.779   8.318   2.764 -2.9269 -0.2927 -0.2371
  788MOL0     H 6368   6.549   8.361   2.684  0.1352  0.0284  0.2543
  788MOL0     H 6369   6.556   8.248   2.831  0.2237 -2.1115  0.3479
  788MOL0     H 6370   6.336   8.306   2.815 -0.7395 -2.3717  1.5488
  788MOL0     H 6371   6.346   8.147   2.774 -1.1193  0.6609  1.2778
  788MOL0     H 6372   6.337   8.187   2.537  0.9946 -1.6987  1.0096
  788MOL0     H 6373   6.361   8.361   2.551 -0.8550 -0.3693  0.0555
  788MOL0     H 6374   6.123   8.202   2.661  1.1498 -2.1560 -1.8985
  788MOL0     H 6375   6.140   8.373   2.700 -0.7194  1.1114 -0.2003
  788MOL0     H 6376   6.016   8.401   2.285  0.8319  3.3336  0.9053
  788MOL0     H 6377   6.684   7.924   2.628  0.9975 -0.2516 -1.1867
  788MOL0     H 6378   6.820   7.742   2.662 -0.2174 -0.2648 -0.3154
  788MOL0     H 6379   6.947   7.776   2.549 -1.0411  0.9789 -0.5200
  788MOL0     H 6380   6.981   7.767   2.723  0.2975  0.2725 -0.1203
  789MOL0     O 6381   2.388   0.583  11.040 -0.5258 -0.1911 -0.3033
  789MOL0     C 6382   2.425   0.613  11.152 -0.0694  0.2385  0.3938
  789MOL0     O 6383   2.553   0.625  11.197  0.4241 -0.1763  0.3502
  789MOL0     C 6384   2.644   0.550  11.135 -0.0985 -0.0464 -0.9067
  789MOL0     C 6385   2.734   0.614  11.056 -0.3721 -0.2907 -0.1510
  789MOL0     C 6386   2.821   0.531  10.972  0.6175 -0.9261  0.4880
  789MOL0     C 6387   2.808   0.394  10.965 -0.7311  0.4238 -0.5209
  789MOL0     O 6388   2.888   0.312  10.887  0.8438  0.0016 -1.3903
  789MOL0     C 6389   3.001   0.370  10.828 -0.3395 -0.0967  0.0266
  789MOL0     C 6390   3.082   0.256  10.752  0.3880 -0.4339  0.0132
  789MOL0     C 6391   3.230   0.286  10.739 -0.2661 -0.0733 -0.3510
  789MOL0     C 6392   3.309   0.175  10.671  0.2971  0.2550 -0.0622
  789MOL0     C 6393   3.446   0.227  10.621  0.1684 -0.5730 -0.4413
  789MOL0     C 6394   3.529   0.121  10.546 -0.8920 -0.7572 -0.7844
  789MOL0     C 6395   3.471   0.062  10.419  0.3601  0.7175  0.5008
  789MOL0     C 6396   3.544  -0.064  10.372  0.3965  0.2312  0.6622
  789MOL0     N 6397   3.694  -0.060  10.347  0.4339  0.1706 -0.3328
  789MOL0     C 6398   3.785  -0.144  10.414 -0.2867  0.5682 -0.2368
  789MOL0     C 6399   3.911  -0.118  10.365  0.5092  0.3141  0.6435
  789MOL0     C 6400   4.040  -0.190  10.396  0.3501 -0.0459  0.4720
  789MOL0     C 6401   4.153  -0.088  10.399  0.1593 -0.2397  0.1438
  789MOL0     C 6402   4.282  -0.159  10.437 -1.3650  0.5500  0.0477
  789MOL0     C 6403   4.410  -0.089  10.414  0.9813  0.1294 -0.6925
  789MOL0     O 6404   4.524  -0.193  10.422 -0.0530  0.2585 -0.4294
  789MOL0     C 6405   4.648  -0.159  10.359 -0.3877  0.1942 -0.1716
  789MOL0     C 6406   4.687  -0.030  10.332 -0.3299 -0.5452  0.5451
  789MOL0     C 6407   4.809  -0.004  10.264  0.4421 -0.0980 -0.1470
  789MOL0     C 6408   4.900  -0.105  10.228 -0.7912 -0.6501 -1.2193
  789MOL0     C 6409   5.028  -0.071  10.158  0.2289  0.3179 -0.1411
  789MOL0     O 6410   5.118  -0.177  10.138  0.1852 -0.1471  0.1539
  789MOL0     C 6411   5.251  -0.156  10.094  0.2544  0.5905 -0.1273
  789MOL0     C 6412   5.356  -0.155  10.183  0.2840 -0.7162  0.6125
  789MOL0     C 6413   5.487  -0.126  10.139  0.5923  0.0827 -1.0117
  789MOL0     C 6414   5.510  -0.092  10.008  0.4535 -1.0548 -0.3943
  789MOL0     O 6415   5.640  -0.050   9.980  0.1658  1.0598  0.4661
  789MOL0     C 6416   5.654   0.019   9.860  0.4938  0.6500 -0.2096
  789MOL0     C 6417   5.797   0.069   9.867 -0.0844  0.0088  0.0729
  789MOL0     C 6418   5.834   0.160   9.745  0.9003  0.4431 -0.7799
  789MOL0     C 6419   5.904   0.063   9.654 -0.1104 -0.1714 -0.2646
  789MOL0     C 6420   5.984   0.126   9.536 -0.3457  0.0862 -0.2078
  789MOL0     C 6421   6.028   0.019   9.432  0.6991 -0.0282  0.1007
  789MOL0     C 6422   6.140  -0.073   9.465 -0.5631 -0.7339  0.1585
  789MOL0     C 6423   6.262  -0.009   9.540 -0.5946  0.3071 -0.8634
  789MOL0    Cl 6424   6.323   0.142   9.468  0.1570  0.1018 -0.4677
  789MOL0     C 6425   5.400  -0.087   9.918 -0.8700  0.1803  0.0581
  789MOL0     C 6426   5.272  -0.122   9.957  0.0670  1.2416  0.8534
  789MOL0     O 6427   5.048   0.052  10.133  0.2662  0.5334  0.3801
  789MOL0     C 6428   4.873  -0.232  10.278  0.3806  0.4240  0.4391
  789MOL0     C 6429   4.739  -0.261  10.336 -0.1298 -0.0556 -0.0005
  789MOL0     N 6430   3.887  -0.014  10.273 -0.1839  0.0544 -0.3020
  789MOL0     N 6431   3.767   0.016  10.260 -0.3436  0.1127 -0.1825
  789MOL0     C 6432   2.728   0.330  11.055  0.4555  0.4317 -0.2739
  789MOL0     C 6433   2.644   0.408  11.138 -0.3908 -0.3004  0.3175
  789MOL0     C 6434   2.304   0.650  11.238  0.2242 -0.0122  0.2783
  789MOL0     C 6435   2.172   0.594  11.215 -0.1957 -0.1998 -0.3215
  789MOL0     C 6436   2.064   0.634  11.289  0.2915  0.1855 -0.0692
  789MOL0     C 6437   2.081   0.730  11.389  0.7599 -0.3771  0.5713
  789MOL0     O 6438   1.974   0.757  11.469  0.2051 -0.1119 -0.1903
  789MOL0     C 6439   1.948   0.900  11.461  0.0650  0.3882 -0.0351
  789MOL0     C 6440   1.801   0.907  11.489 -0.9037  0.0908  0.8883
  789MOL0     C 6441   1.700   0.844  11.392  0.3107 -0.3676  0.9820
  789MOL0     C 6442   1.561   0.850  11.445  0.2503 -0.2914 -0.2884
  789MOL0     C 6443   1.467   0.787  11.351 -0.4007  0.3216  0.3576
  789MOL0     C 6444   1.377   0.713  11.300  0.1637  0.6142  0.2966
  789MOL0     C 6445   2.201   0.799  11.415  0.0516  0.0252  1.0494
  789MOL0     C 6446   2.313   0.761  11.334 -0.5044  0.0399  0.0893
  789MOL0     C 6447   2.432   0.842  11.359  0.6504 -0.5439  0.0602
  789MOL0     H 6448   2.723   0.722  11.062 -1.0279 -0.2136 -2.0690
  789MOL0     H 6449   2.897   0.566  10.903  1.0019 -1.8907  0.4081
  789MOL0     H 6450   2.971   0.452  10.762 -1.3257  1.0904  1.8596
  789MOL0     H 6451   3.066   0.421  10.900 -2.6044  0.4498  1.8156
  789MOL0     H 6452   3.036   0.261  10.654  2.3449  0.4142 -0.9288
  789MOL0     H 6453   3.064   0.163  10.806 -2.6355  0.3961  0.6012
  789MOL0     H 6454   3.269   0.317  10.836  0.0862  4.8776 -1.7927
  789MOL0     H 6455   3.247   0.377  10.679  0.2262 -1.1865 -1.9752
  789MOL0     H 6456   3.317   0.099  10.749  0.4701  0.9495  0.6148
  789MOL0     H 6457   3.250   0.143  10.585  2.2948  1.5816 -2.0448
  789MOL0     H 6458   3.434   0.314  10.556  1.6750 -0.4476 -0.5793
  789MOL0     H 6459   3.507   0.255  10.707  0.1623 -2.4916  0.2541
  789MOL0     H 6460   3.628   0.162  10.522 -1.3225  0.4346 -0.5588
  789MOL0     H 6461   3.548   0.043  10.621  0.1078  1.1891  1.1214
  789MOL0     H 6462   3.461   0.138  10.341  1.4852 -0.9975 -1.4176
  789MOL0     H 6463   3.368   0.029  10.436  1.0160 -1.7202  0.0629
  789MOL0     H 6464   3.524  -0.144  10.444  0.1920 -0.7085 -0.3958
  789MOL0     H 6465   3.502  -0.090  10.274  0.3981  2.1918  0.1009
  789MOL0     H 6466   3.765  -0.231  10.475  2.4616 -0.6634 -0.9278
  789MOL0     H 6467   4.039  -0.243  10.492  2.1288 -2.0278 -0.5296
  789MOL0     H 6468   4.048  -0.269  10.321 -5.1943 -0.4044 -0.1825
  789MOL0     H 6469   4.159  -0.037  10.303 -2.1455  0.6099  0.3761
  789MOL0     H 6470   4.135  -0.012  10.477  1.2251  0.3292 -0.1540
  789MOL0     H 6471   4.288  -0.257  10.389 -1.0219 -1.5553  3.9864
  789MOL0     H 6472   4.277  -0.177  10.544  0.6031  4.3060  0.9411
  789MOL0     H 6473   4.419  -0.015  10.494  2.5123  0.1223 -0.8258
  789MOL0     H 6474   4.408  -0.029  10.322 -0.6637 -0.2476 -0.9377
  789MOL0     H 6475   4.624   0.057  10.346  0.2339  0.0928 -0.7404
  789MOL0     H 6476   4.839   0.098  10.245  0.7704 -0.4686 -1.7819
  789MOL0     H 6477   5.322  -0.174  10.284  1.6131 -2.5650  0.7551
  789MOL0     H 6478   5.565  -0.145  10.212 -0.1012  2.4037  0.4226
  789MOL0     H 6479   5.652  -0.049   9.775  0.6375  2.0474 -1.3575
  789MOL0     H 6480   5.577   0.096   9.849  1.0007  1.1944  0.0182
  789MOL0     H 6481   5.799   0.133   9.956 -3.1279 -0.8621  0.8810
  789MOL0     H 6482   5.871  -0.010   9.882  0.8289  0.9097  0.4863
  789MOL0     H 6483   5.744   0.191   9.691 -0.4822 -0.8910  0.6687
  789MOL0     H 6484   5.900   0.242   9.772  0.6223  0.0771  1.1190
  789MOL0     H 6485   5.839  -0.004   9.596 -0.5771 -0.5765  0.7007
  789MOL0     H 6486   5.982   0.008   9.707  0.4165  2.1084  1.4729
  789MOL0     H 6487   6.070   0.172   9.585  1.4371 -1.2583 -1.8873
  789MOL0     H 6488   5.932   0.216   9.504 -1.4855  0.2694  1.9377
  789MOL0     H 6489   5.944  -0.044   9.401  1.0712 -0.1313 -0.7261
  789MOL0     H 6490   6.057   0.072   9.340 -0.9205  1.4894  0.3876
  789MOL0     H 6491   6.173  -0.120   9.372  2.3267  0.4501  0.4708
  789MOL0     H 6492   6.104  -0.161   9.519 -2.4063 -0.3596 -0.4003
  789MOL0     H 6493   6.222   0.009   9.640 -2.9393  2.2153 -2.0209
  789MOL0     H 6494   6.336  -0.087   9.557  0.9022  1.6424 -1.0563
  789MOL0     H 6495   5.417  -0.058   9.815 -0.2489  0.3655  0.2100
  789MOL0     H 6496   5.187  -0.109   9.891 -0.8313 -1.1645  1.4411
  789MOL0     H 6497   4.945  -0.313  10.271  1.3663  1.2125  1.1932
  789MOL0     H 6498   4.696  -0.358  10.358  1.0105 -0.8815 -1.2836
  789MOL0     H 6499   2.728   0.223  11.071 -0.3226  0.8092  2.9410
  789MOL0     H 6500   2.586   0.349  11.208  2.2039 -1.3222  1.7232
  789MOL0     H 6501   2.160   0.498  11.166 -3.4946 -1.5010  2.5532
  789MOL0     H 6502   1.965   0.589  11.281 -0.4754  1.7803  0.1518
  789MOL0     H 6503   1.969   0.951  11.367  0.3273  0.6070  0.1415
  789MOL0     H 6504   1.997   0.953  11.543 -0.6293 -1.8126  1.9155
  789MOL0     H 6505   1.765   1.010  11.496 -3.5851 -0.5985 -1.0434
  789MOL0     H 6506   1.791   0.853  11.584  2.9799 -0.8596  0.9146
  789MOL0     H 6507   1.736   0.743  11.372 -0.6076 -0.8124  1.4943
  789MOL0     H 6508   1.700   0.894  11.295  2.6195 -0.7773  0.7208
  789MOL0     H 6509   1.555   0.803  11.544  0.5856  0.4716  0.1020
  789MOL0     H 6510   1.522   0.951  11.458  1.3460  0.7443 -3.9709
  789MOL0     H 6511   1.300   0.657  11.249 -0.1936  0.4744  0.9768
  789MOL0     H 6512   2.212   0.866  11.500 -0.8854 -1.3650  2.2967
  789MOL0     H 6513   2.503   0.804  11.433  1.5128  0.9931  0.0550
  789MOL0     H 6514   2.496   0.850  11.270 -1.3132  1.9092 -1.2469
  789MOL0     H 6515   2.394   0.940  11.387 -0.5928 -1.8427  3.3775
  790MOL0     O 6516   1.604  10.435   1.138  1.1319  0.0529 -0.4757
  790MOL0     C 6517   1.586  10.357   1.233  0.4840  1.0207  0.0155
  790MOL0     O 6518   1.675  10.324   1.328 -0.3362  0.3252  0.7270
  790MOL0     C 6519   1.805  10.381   1.332  1.0653  0.1725  0.1089
  790MOL0     C 6520   1.828  10.514   1.339  0.0076 -0.1332  1.5220
  790MOL0     C 6521   1.953  10.564   1.347  0.4305  0.6007  0.4265
  790MOL0     C 6522   2.064  10.477   1.340 -0.3668 -0.0281 -0.0007
  790MOL0     O 6523   2.186  10.537   1.336 -0.0963  1.0819  0.6546
  790MOL0     C 6524   2.306  10.461   1.382 -0.1594  0.3333 -0.1868
  790MOL0     C 6525   2.419  10.562   1.405  0.4456 -0.2092 -0.5209
  790MOL0     C 6526   2.540  10.508   1.473 -0.4439  0.5552  0.3644
  790MOL0     C 6527   2.651  10.610   1.450 -0.6257 -0.1410  0.7769
  790MOL0     C 6528   2.781  10.537   1.496  0.6483 -0.8412 -1.1266
  790MOL0     C 6529   2.905  10.621   1.469 -0.1856  0.2699  0.5445
  790MOL0     C 6530   3.029  10.563   1.547  0.4168  0.4378 -0.5431
  790MOL0     C 6531   3.165  10.635   1.519  0.6153  0.1271 -0.1173
  790MOL0     N 6532   3.265  10.588   1.614 -0.2066 -0.9057 -0.1640
  790MOL0     C 6533   3.321  10.465   1.601 -0.1987 -0.7146 -0.2432
  790MOL0     C 6534   3.388  10.453   1.715 -1.0222 -0.1485  0.2249
  790MOL0     C 6535   3.449  10.322   1.753  0.0198 -0.2814  0.4180
  790MOL0     C 6536   3.604  10.309   1.731 -0.2881 -1.5591  0.1893
  790MOL0     C 6537   3.691  10.411   1.811  0.3488 -0.0443 -0.3513
  790MOL0     C 6538   3.838  10.368   1.835  0.2494 -0.4219 -0.4426
  790MOL0     O 6539   3.906  10.369   1.709 -1.0324 -0.6392 -0.5973
  790MOL0     C 6540   4.041  10.389   1.690  0.0567  0.2281 -0.0264
  790MOL0     C 6541   4.124  10.304   1.617 -1.5161  0.7703  0.6335
  790MOL0     C 6542   4.263  10.347   1.597  1.1052 -0.8499  0.6635
  790MOL0     C 6543   4.314  10.457   1.654 -0.8409 -0.2131  0.3003
  790MOL0     C 6544   4.455  10.502   1.625  0.6740  0.3583 -0.3788
  790MOL0     O 6545   4.506  10.608   1.701  0.0645 -0.4386  0.1518
  790MOL0     C 6546   4.631  10.657   1.659  0.3511 -0.7407 -0.3884
  790MOL0     C 6547   4.646  10.786   1.612 -0.0028 -0.4058 -0.1540
  790MOL0     C 6548   4.777  10.829   1.580 -0.8532  0.2513 -0.5200
  790MOL0     C 6549   4.884  10.744   1.585  0.6634 -0.0408  0.1490
  790MOL0     O 6550   5.008  10.772   1.526  0.0094 -0.0439 -0.0765
  790MOL0     C 6551   5.071  10.896   1.547 -0.0293 -0.9834 -0.1632
  790MOL0     C 6552   5.087  10.930   1.695  0.6356  0.0827 -0.6352
  790MOL0     C 6553   5.195  10.842   1.757  0.3562  0.2285 -0.4292
  790MOL0     C 6554   5.191  10.849   1.911 -0.1732 -1.2507 -0.6273
  790MOL0     C 6555   5.083  10.759   1.965 -0.2915  0.3116  0.3313
  790MOL0     C 6556   5.087  10.760   2.122 -1.4281  0.3439  0.3476
  790MOL0     C 6557   4.944  10.755   2.186 -0.0307 -0.4723  0.1262
  790MOL0     C 6558   4.872  10.615   2.158  0.4099  1.2637 -0.9189
  790MOL0    Cl 6559   4.967  10.482   2.249  0.1022  0.1078  0.1284
  790MOL0     C 6560   4.868  10.616   1.615 -0.4886  0.2546  0.2919
  790MOL0     C 6561   4.742  10.575   1.667 -1.2537  0.4530 -0.6784
  790MOL0     O 6562   4.511  10.449   1.533 -0.0348  0.1372  0.2362
  790MOL0     C 6563   4.234  10.534   1.738 -0.4157  0.0208 -0.1706
  790MOL0     C 6564   4.100  10.500   1.755 -0.2336 -0.5180 -0.8677
  790MOL0     N 6565   3.380  10.563   1.800  0.5023  0.3592 -0.0764
  790MOL0     N 6566   3.297  10.639   1.735 -0.2760  0.0061 -0.4773
  790MOL0     C 6567   2.044  10.339   1.344  0.1829 -0.3037 -0.6378
  790MOL0     C 6568   1.912  10.295   1.349  0.4589  0.2146  0.2184
  790MOL0     C 6569   1.453  10.285   1.239 -0.0359 -0.4370 -0.2180
  790MOL0     C 6570   1.421  10.198   1.349  0.0260 -0.3297 -0.4734
  790MOL0     C 6571   1.298  10.136   1.364 -0.1190  0.2401 -0.2945
  790MOL0     C 6572   1.203  10.157   1.264  0.3491  0.4802 -0.3816
  790MOL0     O 6573   1.086  10.080   1.273  0.3916  0.6147 -0.4410
  790MOL0     C 6574   0.988  10.106   1.166  0.2826  0.5275  0.3136
  790MOL0     C 6575   0.872  10.011   1.180 -0.9209 -0.4747 -0.6773
  790MOL0     C 6576   0.771  10.034   1.069 -0.6027  0.8910  0.2961
  790MOL0     C 6577   0.701  10.169   1.049  0.4410 -0.4028  0.0045
  790MOL0     C 6578   0.627  10.199   1.165  0.3587  0.6981  0.6926
  790MOL0     C 6579   0.573  10.211   1.271  0.2928  0.8431 -0.2528
  790MOL0     C 6580   1.235  10.242   1.160 -0.2097 -0.2212 -0.3170
  790MOL0     C 6581   1.360  10.297   1.136  0.6952  0.4407 -0.5064
  790MOL0     C 6582   1.369  10.357   0.998  0.1755 -0.6783 -0.8031
  790MOL0     H 6583   1.742  10.581   1.341 -1.3351 -1.4561 -2.1354
  790MOL0     H 6584   1.989  10.666   1.351  0.8171  0.4595  0.6756
  790MOL0     H 6585   2.282  10.401   1.470  1.8619  0.0261  0.1958
  790MOL0     H 6586   2.338  10.390   1.306  0.4532  0.6380 -0.2170
  790MOL0     H 6587   2.378  10.643   1.466  0.4896 -0.3159 -0.3510
  790MOL0     H 6588   2.439  10.612   1.309  0.3035 -0.8218 -0.8750
  790MOL0     H 6589   2.569  10.409   1.438  1.0309  0.9838  0.3300
  790MOL0     H 6590   2.529  10.495   1.581  0.9845  0.9759  0.5789
  790MOL0     H 6591   2.653  10.634   1.343 -0.8239  3.0434  1.3815
  790MOL0     H 6592   2.642  10.710   1.493  1.1256  0.5922 -0.3972
  790MOL0     H 6593   2.771  10.523   1.604  1.1340 -3.5931 -1.3643
  790MOL0     H 6594   2.800  10.441   1.447  0.4997 -0.7737 -1.3133
  790MOL0     H 6595   2.941  10.644   1.369  0.9149  2.7508  1.4191
  790MOL0     H 6596   2.879  10.716   1.517 -3.6449 -0.4526  0.4005
  790MOL0     H 6597   3.035  10.455   1.538  2.0502  0.2414  1.8670
  790MOL0     H 6598   3.004  10.566   1.654  0.6941  0.7878 -0.4860
  790MOL0     H 6599   3.205  10.622   1.418  0.0749 -1.4658 -0.1481
  790MOL0     H 6600   3.134  10.740   1.529 -1.9391 -0.5420 -0.1611
  790MOL0     H 6601   3.310  10.400   1.515  1.2957  1.0140 -1.8162
  790MOL0     H 6602   3.436  10.304   1.860 -1.9280 -1.6491  0.0068
  790MOL0     H 6603   3.397  10.243   1.698  0.4124 -0.2113 -0.0569
  790MOL0     H 6604   3.634  10.206   1.749  1.9913 -0.5105  3.4479
  790MOL0     H 6605   3.620  10.338   1.627  0.8780 -1.3418  0.4120
  790MOL0     H 6606   3.661  10.426   1.915  4.0135 -0.3512  0.8847
  790MOL0     H 6607   3.692  10.506   1.758 -0.7156  0.2078  0.0515
  790MOL0     H 6608   3.850  10.272   1.886  1.8988 -0.4371 -0.8106
  790MOL0     H 6609   3.881  10.436   1.908 -1.2675 -2.3849  2.5012
  790MOL0     H 6610   4.088  10.210   1.575  2.5744 -1.5236  1.6767
  790MOL0     H 6611   4.322  10.287   1.529 -0.0262  0.0064 -1.1357
  790MOL0     H 6612   4.558  10.849   1.614  0.8910  0.8555  0.2487
  790MOL0     H 6613   4.791  10.931   1.546 -1.2291 -0.0816 -1.7371
  790MOL0     H 6614   5.172  10.899   1.504  0.5920  2.1162  1.1769
  790MOL0     H 6615   5.013  10.975   1.498 -0.3262 -0.9104  0.2960
  790MOL0     H 6616   5.123  11.033   1.694  0.9211 -0.0192 -1.2578
  790MOL0     H 6617   4.989  10.922   1.743  1.0899 -0.0895  0.3114
  790MOL0     H 6618   5.185  10.737   1.728  0.5940 -0.2571  1.1637
  790MOL0     H 6619   5.295  10.859   1.715 -0.1428  2.3111 -0.8772
  790MOL0     H 6620   5.173  10.952   1.943  2.6645  0.6651 -4.4146
  790MOL0     H 6621   5.287  10.813   1.949 -0.9475 -0.0196  2.9413
  790MOL0     H 6622   5.113  10.660   1.929  1.9337  0.8877  0.4687
  790MOL0     H 6623   4.980  10.776   1.934 -0.4493  0.5224  0.9605
  790MOL0     H 6624   5.150  10.683   2.167 -0.4010  0.8320 -0.2309
  790MOL0     H 6625   5.138  10.847   2.163 -0.4874  0.0901 -0.2435
  790MOL0     H 6626   4.893  10.837   2.135  2.4362  0.3313 -1.1864
  790MOL0     H 6627   4.958  10.764   2.294  3.0242 -4.7277  0.3382
  790MOL0     H 6628   4.769  10.628   2.193  1.0562  2.1857  0.7382
  790MOL0     H 6629   4.861  10.583   2.054 -2.0061 -4.0058  0.6190
  790MOL0     H 6630   4.951  10.547   1.609  0.6554  1.7060 -1.4811
  790MOL0     H 6631   4.722  10.480   1.714  0.0550  0.6572  0.3693
  790MOL0     H 6632   4.253  10.623   1.797 -0.2527  0.5359 -0.9944
  790MOL0     H 6633   4.035  10.556   1.821 -1.2898 -2.5651 -0.0874
  790MOL0     H 6634   2.120  10.261   1.344  0.7522  0.2469 -0.6952
  790MOL0     H 6635   1.888  10.190   1.340 -1.8772  0.7524 -0.7419
  790MOL0     H 6636   1.493  10.171   1.426 -1.4983 -1.1404  0.7225
  790MOL0     H 6637   1.276  10.072   1.449  1.4465  0.2107  0.1234
  790MOL0     H 6638   1.030  10.091   1.066  1.1149  1.8440  0.4467
  790MOL0     H 6639   0.956  10.210   1.162 -0.2963  0.3815  0.8973
  790MOL0     H 6640   0.830  10.030   1.279 -0.6410 -0.0450 -0.6349
  790MOL0     H 6641   0.911   9.909   1.188  1.5339  0.5093  4.4177
  790MOL0     H 6642   0.687   9.967   1.088  0.9162 -0.9213  0.9903
  790MOL0     H 6643   0.828  10.003   0.981 -2.3389  1.2370 -0.9889
  790MOL0     H 6644   0.771  10.250   1.024 -2.8235  1.6448 -3.6219
  790MOL0     H 6645   0.639  10.161   0.959 -1.9433 -0.0576  1.5378
  790MOL0     H 6646   0.531  10.225   1.369  0.6702 -0.5510  0.1284
  790MOL0     H 6647   1.162  10.270   1.084 -1.1265  1.0046  0.9761
  790MOL0     H 6648   1.277  10.342   0.941 -1.7334 -1.1573  2.2056
  790MOL0     H 6649   1.383  10.465   0.995  0.4055 -0.6608  0.4331
  790MOL0     H 6650   1.459  10.320   0.949  1.8055  3.5355 -1.4390
  791MOL0     O 6651   6.293   2.949   7.512  0.1886 -0.6173 -0.6001
  791MOL0     C 6652   6.249   3.062   7.550  0.5379 -0.4236  0.6195
  791MOL0     O 6653   6.316   3.183   7.554  0.5242  0.2620  0.1131
  791MOL0     C 6654   6.436   3.194   7.494 -0.1570 -0.5392 -0.5124
  791MOL0     C 6655   6.547   3.145   7.576 -0.1386 -0.6616 -0.1600
  791MOL0     C 6656   6.675   3.179   7.539 -0.4154  0.6150 -0.6586
  791MOL0     C 6657   6.699   3.214   7.410  0.3128  0.1966 -0.2323
  791MOL0     O 6658   6.825   3.234   7.363  0.5521  0.9391 -0.8422
  791MOL0     C 6659   6.939   3.215   7.448  0.3176  0.8580 -0.2811
  791MOL0     C 6660   7.075   3.244   7.376  0.5018  0.0509  0.7132
  791MOL0     C 6661   7.078   3.389   7.315 -0.5612  0.3542 -0.1396
  791MOL0     C 6662   7.071   3.389   7.160 -0.5971  0.0960  0.3784
  791MOL0     C 6663   7.066   3.540   7.126  0.0927 -0.0833 -0.7011
  791MOL0     C 6664   7.043   3.572   6.974 -0.1962  1.0089 -0.1534
  791MOL0     C 6665   6.908   3.510   6.933 -0.7920 -0.9559  1.0359
  791MOL0     C 6666   6.779   3.539   7.022 -0.4182 -0.3117  0.1909
  791MOL0     N 6667   6.666   3.478   6.965  0.2377  0.4521  0.2864
  791MOL0     C 6668   6.644   3.344   6.969  1.0810 -0.0119 -0.4290
  791MOL0     C 6669   6.513   3.340   6.933 -0.7577  0.9971  0.3370
  791MOL0     C 6670   6.431   3.213   6.914  0.0466  0.2290  0.1803
  791MOL0     C 6671   6.291   3.197   6.971 -0.0830  0.1259 -0.3364
  791MOL0     C 6672   6.192   3.297   6.909  0.3788 -1.0595 -0.3288
  791MOL0     C 6673   6.055   3.270   6.972  0.1708 -0.2923  0.4147
  791MOL0     O 6674   6.042   3.298   7.116 -0.4496  0.2593  0.8630
  791MOL0     C 6675   5.920   3.290   7.180 -0.2006 -0.2158  0.0205
  791MOL0     C 6676   5.921   3.305   7.320 -0.4065 -0.0312  0.5188
  791MOL0     C 6677   5.801   3.286   7.392 -0.9067  0.3605 -0.5832
  791MOL0     C 6678   5.677   3.267   7.335  0.2754  0.3542 -0.0001
  791MOL0     C 6679   5.552   3.267   7.413 -0.6364  1.2681 -0.6329
  791MOL0     O 6680   5.432   3.244   7.359  0.7834  0.3243  0.4685
  791MOL0     C 6681   5.320   3.241   7.435 -0.2560  0.9170  0.4595
  791MOL0     C 6682   5.305   3.179   7.559  0.8581 -0.2399 -0.0440
  791MOL0     C 6683   5.189   3.199   7.631 -0.0433 -0.5454 -0.4906
  791MOL0     C 6684   5.081   3.276   7.577 -0.6104  0.0811  0.5540
  791MOL0     O 6685   4.973   3.294   7.670  0.3146 -0.1436 -0.1256
  791MOL0     C 6686   4.862   3.380   7.635  1.0598 -0.0048 -0.6356
  791MOL0     C 6687   4.747   3.357   7.739 -0.5471  0.1017  0.1649
  791MOL0     C 6688   4.609   3.412   7.712 -0.3568  0.2275 -0.0533
  791MOL0     C 6689   4.540   3.434   7.850  0.4817 -0.4386  0.4221
  791MOL0     C 6690   4.402   3.501   7.827  0.5147 -0.6552 -0.8829
  791MOL0     C 6691   4.324   3.530   7.954 -0.0723 -0.3506 -0.3281
  791MOL0     C 6692   4.227   3.650   7.938 -0.1786 -0.3327 -0.6143
  791MOL0     C 6693   4.137   3.628   8.060  0.4917  0.0514  0.6576
  791MOL0    Cl 6694   4.018   3.759   8.049  0.4943 -0.0295  0.3304
  791MOL0     C 6695   5.087   3.326   7.451 -1.4640 -0.4212  0.9216
  791MOL0     C 6696   5.207   3.311   7.382 -0.4067 -0.1719 -0.2947
  791MOL0     O 6697   5.578   3.274   7.529  0.0907  0.0279 -0.3155
  791MOL0     C 6698   5.676   3.257   7.195  0.2168 -0.5091 -0.0631
  791MOL0     C 6699   5.792   3.273   7.117 -0.0762 -0.3452 -0.4547
  791MOL0     N 6700   6.474   3.468   6.891  0.1948 -0.2571 -0.6020
  791MOL0     N 6701   6.568   3.550   6.912  0.5771 -0.5820 -0.9341
  791MOL0     C 6702   6.595   3.236   7.318 -0.1308 -0.2946 -0.0469
  791MOL0     C 6703   6.459   3.235   7.359 -0.5245 -0.8306  0.5357
  791MOL0     C 6704   6.111   3.077   7.616  0.1632  0.1021  0.0753
  791MOL0     C 6705   6.064   3.203   7.665 -0.0215 -0.0445 -0.3918
  791MOL0     C 6706   5.941   3.226   7.716  0.1557 -0.2981 -0.2891
  791MOL0     C 6707   5.855   3.116   7.738 -0.8740 -0.5398  0.0594
  791MOL0     O 6708   5.731   3.131   7.792  0.0324  0.4498 -0.1182
  791MOL0     C 6709   5.693   3.254   7.846  0.0819 -0.1504  0.3147
  791MOL0     C 6710   5.554   3.236   7.913 -0.8777 -0.2433  0.0744
  791MOL0     C 6711   5.518   3.371   7.984 -0.5082 -0.0031 -0.0632
  791MOL0     C 6712   5.385   3.372   8.072  0.0143  0.2239  0.3623
  791MOL0     C 6713   5.260   3.321   8.012  0.3322 -0.7727  1.0614
  791MOL0     C 6714   5.150   3.301   7.966  0.3535 -0.6826  0.2103
  791MOL0     C 6715   5.896   2.989   7.706 -0.4051  0.3043  0.0078
  791MOL0     C 6716   6.021   2.971   7.645 -1.5248 -0.7650 -0.1782
  791MOL0     C 6717   6.051   2.832   7.600  0.0003 -0.4348  0.3482
  791MOL0     H 6718   6.543   3.094   7.672 -1.0112  0.6368  0.5349
  791MOL0     H 6719   6.754   3.164   7.612 -0.1698  1.1080 -0.8147
  791MOL0     H 6720   6.930   3.285   7.532 -0.0261  0.4519  0.0284
  791MOL0     H 6721   6.939   3.112   7.486  2.4191  0.5597 -0.9696
  791MOL0     H 6722   7.081   3.162   7.304 -2.2929  0.0936  0.3574
  791MOL0     H 6723   7.155   3.228   7.449  0.7630 -3.8396 -0.2126
  791MOL0     H 6724   7.171   3.434   7.351  0.8207 -0.1400 -2.8115
  791MOL0     H 6725   6.989   3.443   7.349 -0.5230 -0.1485  0.7774
  791MOL0     H 6726   7.161   3.348   7.114 -0.6036  0.4956  0.0009
  791MOL0     H 6727   6.986   3.329   7.128  1.8624 -1.6529 -3.7252
  791MOL0     H 6728   6.976   3.577   7.176  0.8684 -0.4364  1.0076
  791MOL0     H 6729   7.159   3.582   7.166  1.0334 -1.3192 -1.5018
  791MOL0     H 6730   7.033   3.678   6.950  1.8065  0.6006 -3.2589
  791MOL0     H 6731   7.121   3.534   6.907  0.6328  1.1816  0.6866
  791MOL0     H 6732   6.924   3.403   6.915 -1.4444 -1.2440  2.0872
  791MOL0     H 6733   6.880   3.556   6.838 -1.8711 -1.1255  1.2499
  791MOL0     H 6734   6.784   3.490   7.119 -0.5314 -1.0812 -0.1846
  791MOL0     H 6735   6.780   3.646   7.043 -1.9876 -0.4646  1.1724
  791MOL0     H 6736   6.701   3.262   7.013 -2.7119 -1.3685  2.5380
  791MOL0     H 6737   6.428   3.184   6.809  1.7071  0.4337  0.0527
  791MOL0     H 6738   6.492   3.134   6.961  0.1034  0.0764 -0.1504
  791MOL0     H 6739   6.261   3.093   6.957  1.6852 -0.4845  0.1623
  791MOL0     H 6740   6.312   3.201   7.078  1.9391 -0.9308 -0.6588
  791MOL0     H 6741   6.180   3.283   6.801 -1.8660  1.0955 -0.4594
  791MOL0     H 6742   6.223   3.397   6.943 -5.4270  0.2620  2.4675
  791MOL0     H 6743   6.031   3.165   6.953  1.5600 -0.2308 -2.1634
  791MOL0     H 6744   5.980   3.334   6.924  0.4507 -0.5214 -0.3329
  791MOL0     H 6745   6.017   3.321   7.367  1.0042  1.8052 -2.6439
  791MOL0     H 6746   5.803   3.276   7.500 -2.2050 -1.1473 -0.6628
  791MOL0     H 6747   5.389   3.126   7.602 -0.6584 -2.5633  0.2145
  791MOL0     H 6748   5.182   3.172   7.736 -0.3750  0.0091 -0.3641
  791MOL0     H 6749   4.880   3.488   7.634 -0.3489  0.3384  1.8501
  791MOL0     H 6750   4.825   3.354   7.535 -2.0442 -0.5637  0.5484
  791MOL0     H 6751   4.728   3.249   7.743  0.0503 -0.0999 -1.7101
  791MOL0     H 6752   4.785   3.393   7.835  1.1765  0.3216 -0.5720
  791MOL0     H 6753   4.618   3.516   7.678 -2.5140  1.1699  1.9190
  791MOL0     H 6754   4.551   3.349   7.645  0.1219 -1.5551  1.1427
  791MOL0     H 6755   4.603   3.482   7.926  1.4799 -2.4091  0.9035
  791MOL0     H 6756   4.513   3.336   7.891 -3.0786  0.7476  1.2842
  791MOL0     H 6757   4.337   3.447   7.758 -0.2920 -1.3928  0.4313
  791MOL0     H 6758   4.432   3.599   7.788  2.2510 -1.1467 -0.8671
  791MOL0     H 6759   4.266   3.440   7.978 -2.3640  1.9812  4.0611
  791MOL0     H 6760   4.389   3.536   8.041  0.8731 -1.1209 -0.9655
  791MOL0     H 6761   4.169   3.651   7.846 -1.6787 -3.8580  0.1135
  791MOL0     H 6762   4.282   3.744   7.950 -0.7089 -0.3506  3.3970
  791MOL0     H 6763   4.081   3.534   8.050 -0.9287  0.9251 -0.0346
  791MOL0     H 6764   4.180   3.621   8.160  0.7050 -1.8308  0.4799
  791MOL0     H 6765   5.008   3.387   7.407  0.5115  0.9609 -0.9633
  791MOL0     H 6766   5.218   3.353   7.282  0.5220 -0.9549 -0.5269
  791MOL0     H 6767   5.581   3.239   7.145  0.8356 -0.0172 -1.4909
  791MOL0     H 6768   5.771   3.269   7.011 -1.6059  0.2727 -0.2031
  791MOL0     H 6769   6.621   3.273   7.220  0.4698  1.0348  0.5857
  791MOL0     H 6770   6.368   3.254   7.303  0.5517 -1.8879 -1.7020
  791MOL0     H 6771   6.133   3.286   7.655  1.2197 -0.9562  0.3387
  791MOL0     H 6772   5.909   3.327   7.740  0.4250  0.2794 -2.2140
  791MOL0     H 6773   5.688   3.333   7.770  0.9539  1.3405  1.7659
  791MOL0     H 6774   5.769   3.276   7.921  0.1146  2.0839 -0.2980
  791MOL0     H 6775   5.546   3.158   7.989 -0.1781  0.1218  0.5265
  791MOL0     H 6776   5.482   3.223   7.832  0.2685 -0.9204 -0.8777
  791MOL0     H 6777   5.518   3.445   7.903  1.6623 -0.7411 -0.8114
  791MOL0     H 6778   5.598   3.408   8.049  0.4133  1.3795 -1.8931
  791MOL0     H 6779   5.401   3.308   8.160 -2.9910  1.1498  1.7195
  791MOL0     H 6780   5.364   3.471   8.114 -4.0953 -0.1134 -0.5011
  791MOL0     H 6781   5.053   3.280   7.924 -0.3889 -0.0845  1.5729
  791MOL0     H 6782   5.828   2.907   7.730 -0.9433 -0.0018 -2.3232
  791MOL0     H 6783   6.131   2.805   7.670  1.8165  0.4710 -1.2887
  791MOL0     H 6784   5.960   2.774   7.617 -0.4871  0.5487  1.2526
  791MOL0     H 6785   6.080   2.829   7.494 -1.4394  2.6037 -0.2332
  792MOL0     O 6786   7.613   5.917   3.963 -0.0238 -0.8152 -0.2400
  792MOL0     C 6787   7.606   5.841   4.060 -0.3662  0.0584 -0.1166
  792MOL0     O 6788   7.710   5.795   4.136 -0.7683 -0.2467  0.1409
  792MOL0     C 6789   7.841   5.816   4.101  0.0099  1.6780 -0.4032
  792MOL0     C 6790   7.913   5.837   4.213 -0.9188  0.5471 -0.5022
  792MOL0     C 6791   8.047   5.868   4.197 -0.1924  0.5600  0.2948
  792MOL0     C 6792   8.107   5.883   4.067  0.2839  1.3169  0.2087
  792MOL0     O 6793   8.245   5.925   4.083 -0.3343 -0.4039  0.0692
  792MOL0     C 6794   8.317   5.957   3.968  0.5317  0.6663  0.4471
  792MOL0     C 6795   8.466   5.981   3.994  1.2113  0.2679 -0.0496
  792MOL0     C 6796   8.526   6.028   3.859 -0.6839  0.4842 -0.3227
  792MOL0     C 6797   8.573   6.180   3.855  0.2889 -0.3829  0.1906
  792MOL0     C 6798   8.618   6.233   3.711 -0.6289  0.4145 -0.3565
  792MOL0     C 6799   8.756   6.185   3.671  0.2524  0.0278  0.6289
  792MOL0     C 6800   8.863   6.287   3.708 -0.0463 -0.1052  1.5178
  792MOL0     C 6801   8.935   6.262   3.841  1.0024 -0.1166 -0.0021
  792MOL0     N 6802   9.021   6.136   3.839  0.5535 -0.2612  0.9114
  792MOL0     C 6803   8.985   6.004   3.879  0.1932  0.1086  0.3309
  792MOL0     C 6804   9.098   5.931   3.857  0.6383 -0.3733  0.4266
  792MOL0     C 6805   9.128   5.784   3.891 -0.2797  0.0740  0.3206
  792MOL0     C 6806   9.273   5.739   3.860 -0.7842  0.1935 -0.9136
  792MOL0     C 6807   9.296   5.593   3.898 -0.2230 -0.4947  0.0397
  792MOL0     C 6808   9.445   5.553   3.909  0.0574  0.6348  1.3105
  792MOL0     O 6809   9.536   5.653   3.962 -0.0097  0.5892  0.2522
  792MOL0     C 6810   9.660   5.623   4.005 -0.0892  0.3262  0.4279
  792MOL0     C 6811   9.716   5.495   3.997 -0.5376  0.2253 -0.6227
  792MOL0     C 6812   9.849   5.480   4.024 -0.1396  0.1698 -0.7256
  792MOL0     C 6813   9.929   5.587   4.075 -0.0849  0.1423  0.1594
  792MOL0     C 6814  10.068   5.558   4.129 -0.9129 -0.2411 -0.3459
  792MOL0     O 6815  10.090   5.431   4.165 -0.3388  0.5800  0.6440
  792MOL0     C 6816  10.197   5.406   4.244  0.5245  0.0179 -0.2923
  792MOL0     C 6817  10.165   5.356   4.373  0.0134  0.5451  0.1684
  792MOL0     C 6818  10.255   5.339   4.474  0.2450 -0.3474  0.2539
  792MOL0     C 6819  10.391   5.381   4.448  0.6909  0.4695  0.1297
  792MOL0     O 6820  10.491   5.371   4.539  0.5909  0.9886 -0.3342
  792MOL0     C 6821  10.576   5.482   4.563 -0.6511  0.0113 -0.6220
  792MOL0     C 6822  10.641   5.463   4.696 -0.3975  0.2307 -0.1421
  792MOL0     C 6823  10.761   5.562   4.714  0.2119 -0.4420 -0.3862
  792MOL0     C 6824  10.822   5.563   4.861 -0.0020  0.0829 -0.2490
  792MOL0     C 6825  10.951   5.640   4.887 -0.1881 -0.6629 -1.0306
  792MOL0     C 6826  11.006   5.644   5.035 -0.1208 -0.1277 -0.0400
  792MOL0     C 6827  10.932   5.733   5.144 -0.8634  0.3597 -0.1251
  792MOL0     C 6828  10.991   5.742   5.285 -0.2160 -0.2128  0.6699
  792MOL0    Cl 6829  11.052   5.588   5.342  0.1000 -0.3297 -0.1063
  792MOL0     C 6830  10.422   5.427   4.319  0.2504  0.6863  0.2468
  792MOL0     C 6831  10.329   5.442   4.224  0.1369  0.7720  0.1784
  792MOL0     O 6832  10.151   5.642   4.134 -0.4331  0.3168  0.0882
  792MOL0     C 6833   9.874   5.714   4.080 -0.1334  0.2227 -0.6646
  792MOL0     C 6834   9.749   5.730   4.032 -0.3212  0.4358 -0.8736
  792MOL0     N 6835   9.185   6.012   3.791  0.5969 -0.7839  0.6160
  792MOL0     N 6836   9.139   6.132   3.782  0.1404  0.1204 -0.4981
  792MOL0     C 6837   8.028   5.854   3.956  0.7403  0.2878 -0.7362
  792MOL0     C 6838   7.887   5.823   3.970  0.3195  0.5345 -0.2041
  792MOL0     C 6839   7.471   5.807   4.118 -0.0461 -0.1454  0.1664
  792MOL0     C 6840   7.460   5.687   4.191  0.4467 -0.9745 -0.0631
  792MOL0     C 6841   7.347   5.649   4.248 -0.1087  0.5361 -0.5402
  792MOL0     C 6842   7.236   5.731   4.253 -0.1496  0.3546 -0.4434
  792MOL0     O 6843   7.128   5.687   4.319 -0.2666 -1.1378  0.7639
  792MOL0     C 6844   7.018   5.775   4.344 -0.5240  0.3291  0.0470
  792MOL0     C 6845   6.917   5.775   4.225 -0.0848 -0.7502 -0.7758
  792MOL0     C 6846   6.793   5.858   4.247  0.8108  0.0703 -1.7547
  792MOL0     C 6847   6.738   5.925   4.130 -0.1973  0.0366  0.3920
  792MOL0     C 6848   6.698   5.833   4.020  0.4516 -0.6018  0.0896
  792MOL0     C 6849   6.625   5.778   3.937  0.0171  0.5008  0.4039
  792MOL0     C 6850   7.240   5.853   4.180 -0.4427  0.3007  0.2422
  792MOL0     C 6851   7.355   5.893   4.116  0.2530  0.3138  0.0780
  792MOL0     C 6852   7.355   6.029   4.041 -0.4882  0.1172  0.1728
  792MOL0     H 6853   7.861   5.828   4.308  0.0760  0.8786  0.0860
  792MOL0     H 6854   8.114   5.891   4.279 -0.3938  2.5401 -0.0336
  792MOL0     H 6855   8.316   5.884   3.886  0.8548  0.1081  0.9262
  792MOL0     H 6856   8.282   6.055   3.935 -2.0619 -0.3063  0.1149
  792MOL0     H 6857   8.529   5.895   4.018  3.8919  1.5108 -2.0648
  792MOL0     H 6858   8.479   6.049   4.079  2.6311 -1.9875  1.6421
  792MOL0     H 6859   8.457   6.001   3.779 -2.7503 -1.9173  2.0686
  792MOL0     H 6860   8.620   5.974   3.845 -1.0744 -0.5584  0.8788
  792MOL0     H 6861   8.481   6.236   3.871  0.3103  0.2631 -1.6630
  792MOL0     H 6862   8.644   6.200   3.936  1.9605  1.4346 -1.5895
  792MOL0     H 6863   8.547   6.195   3.637  1.7532 -1.8195 -1.6642
  792MOL0     H 6864   8.619   6.342   3.709 -0.4992  0.4938  1.8153
  792MOL0     H 6865   8.787   6.089   3.715 -0.5752 -0.0001  1.1881
  792MOL0     H 6866   8.748   6.172   3.563 -3.9872  3.9105  0.1802
  792MOL0     H 6867   8.829   6.390   3.721  3.2551  1.0250  2.0693
  792MOL0     H 6868   8.936   6.290   3.627 -0.4215 -2.9477  0.9427
  792MOL0     H 6869   8.996   6.349   3.866 -0.6756  0.9372  0.5924
  792MOL0     H 6870   8.857   6.251   3.916  1.1409 -1.6353 -0.0403
  792MOL0     H 6871   8.892   5.963   3.918  0.2562  0.3852  0.7804
  792MOL0     H 6872   9.108   5.771   3.998 -1.4868 -2.6412 -0.1357
  792MOL0     H 6873   9.066   5.712   3.835 -0.5584 -0.1118  0.8579
  792MOL0     H 6874   9.289   5.746   3.752 -0.1587  0.0048 -0.8366
  792MOL0     H 6875   9.352   5.797   3.908 -0.0486 -2.0973  0.8180
  792MOL0     H 6876   9.232   5.536   3.831  0.7313 -0.6494 -0.7616
  792MOL0     H 6877   9.265   5.588   4.003  0.2085  1.2255  0.2769
  792MOL0     H 6878   9.474   5.506   3.814  0.3499  1.2506  1.0904
  792MOL0     H 6879   9.449   5.467   3.977  1.0700  1.0040  1.7418
  792MOL0     H 6880   9.659   5.409   3.962 -0.7928 -0.1845  0.7472
  792MOL0     H 6881   9.887   5.381   4.004 -0.1826  0.4274 -2.2024
  792MOL0     H 6882  10.060   5.329   4.386 -0.2069  0.9656 -0.6625
  792MOL0     H 6883  10.236   5.302   4.574 -0.3642  0.9228  0.6437
  792MOL0     H 6884  10.655   5.487   4.487  0.5442 -1.6277  0.4338
  792MOL0     H 6885  10.521   5.576   4.550  0.3148  0.7283  0.2872
  792MOL0     H 6886  10.570   5.480   4.778  0.1769 -1.7368  0.8351
  792MOL0     H 6887  10.687   5.364   4.709 -0.7841  0.0310 -0.2936
  792MOL0     H 6888  10.842   5.526   4.650  0.3424 -0.0265 -0.4586
  792MOL0     H 6889  10.736   5.660   4.671 -0.1459  0.3072  1.4282
  792MOL0     H 6890  10.840   5.457   4.885  2.0629  0.3341 -0.5322
  792MOL0     H 6891  10.747   5.591   4.935 -1.0952 -1.7884 -0.5700
  792MOL0     H 6892  10.936   5.744   4.858  2.1748  0.0952  0.2236
  792MOL0     H 6893  11.021   5.586   4.822 -1.4628 -1.1423 -2.0694
  792MOL0     H 6894  10.991   5.538   5.058 -3.3178  0.0870 -0.6727
  792MOL0     H 6895  11.113   5.666   5.038  0.7970 -3.6505 -1.8546
  792MOL0     H 6896  10.830   5.693   5.147 -0.0410 -1.9555 -1.0131
  792MOL0     H 6897  10.923   5.835   5.107  2.4910  0.4930 -0.8451
  792MOL0     H 6898  11.073   5.813   5.279  0.9108 -1.5647 -0.9898
  792MOL0     H 6899  10.923   5.785   5.359  0.6128 -2.5284  2.9351
  792MOL0     H 6900  10.523   5.455   4.293 -0.6402  3.7017 -0.4121
  792MOL0     H 6901  10.374   5.492   4.138  0.6749  1.3780  0.7991
  792MOL0     H 6902   9.939   5.789   4.124 -0.5940  0.4583 -0.3777
  792MOL0     H 6903   9.707   5.830   4.034  2.1928  1.5656 -0.4861
  792MOL0     H 6904   8.077   5.859   3.859  4.2883 -0.8808  0.8039
  792MOL0     H 6905   7.819   5.838   3.887  0.4020  5.7214  0.3744
  792MOL0     H 6906   7.550   5.629   4.207 -0.0925 -2.3404 -1.7251
  792MOL0     H 6907   7.349   5.554   4.300  0.4128  0.2266 -1.1070
  792MOL0     H 6908   7.053   5.876   4.364  1.2051 -0.4801  1.3793
  792MOL0     H 6909   6.962   5.732   4.427 -3.4508  2.1525 -0.8272
  792MOL0     H 6910   6.892   5.671   4.205  0.6667 -0.8530 -1.1990
  792MOL0     H 6911   6.970   5.816   4.138  1.0821 -0.4860  0.0487
  792MOL0     H 6912   6.814   5.931   4.326  1.5235 -1.4793 -0.4675
  792MOL0     H 6913   6.715   5.788   4.276  0.1306  1.5197  0.1073
  792MOL0     H 6914   6.650   5.986   4.151 -0.0870  0.3580 -0.0760
  792MOL0     H 6915   6.818   5.991   4.095 -0.1040  0.3701  1.2070
  792MOL0     H 6916   6.567   5.740   3.856  0.7192  1.9973 -0.8577
  792MOL0     H 6917   7.151   5.914   4.168 -2.1195 -1.7087  1.6547
  792MOL0     H 6918   7.272   6.097   4.062  0.8476  1.4886  1.2546
  792MOL0     H 6919   7.447   6.087   4.052  0.6978 -1.3699 -1.2832
  792MOL0     H 6920   7.354   6.004   3.934  3.2054 -0.5401  0.1714
  793MOL0     O 6921   7.618   1.693   0.936 -0.6987  0.5713 -0.3667
  793MOL0     C 6922   7.560   1.807   0.952 -0.4155  0.1158  0.3357
  793MOL0     O 6923   7.616   1.923   0.995  0.3955 -0.9114  0.0842
  793MOL0     C 6924   7.751   1.940   1.009  0.9125  0.2854 -0.9679
  793MOL0     C 6925   7.841   1.923   0.907  0.1588  0.4919  0.1212
  793MOL0     C 6926   7.978   1.955   0.929  0.1364 -0.1860 -0.2738
  793MOL0     C 6927   8.025   1.995   1.059  0.9567  0.1995  0.9522
  793MOL0     O 6928   8.163   2.015   1.088  0.6288  0.2817 -1.0399
  793MOL0     C 6929   8.262   1.953   0.999 -0.2326  0.4230  0.0473
  793MOL0     C 6930   8.399   1.929   1.050  0.2383 -0.2171 -0.0973
  793MOL0     C 6931   8.489   2.052   1.039 -0.6041 -0.4242  0.5930
  793MOL0     C 6932   8.629   2.028   1.100 -0.0928 -0.0239 -0.1560
  793MOL0     C 6933   8.713   2.151   1.072 -0.8955 -0.0568  0.0334
  793MOL0     C 6934   8.828   2.163   1.169  0.6014  0.0600 -0.3341
  793MOL0     C 6935   8.925   2.049   1.152  0.0436 -0.8157  0.0185
  793MOL0     C 6936   9.074   2.093   1.187  1.1556  0.7427  0.2830
  793MOL0     N 6937   9.085   2.212   1.264  0.4378 -1.0476  0.5162
  793MOL0     C 6938   9.059   2.221   1.398 -0.1656  0.1152 -0.9046
  793MOL0     C 6939   9.101   2.340   1.436 -0.2738  0.1951  0.1543
  793MOL0     C 6940   9.095   2.393   1.574  0.4386 -0.2206 -0.4779
  793MOL0     C 6941   9.224   2.355   1.653 -0.0336 -0.5789  1.0340
  793MOL0     C 6942   9.321   2.473   1.626 -0.3996 -0.2629  0.1211
  793MOL0     C 6943   9.464   2.446   1.657  0.1646  0.5505  0.5957
  793MOL0     O 6944   9.482   2.372   1.785  0.8892  0.3235  0.3936
  793MOL0     C 6945   9.610   2.369   1.846  0.3873 -0.0319 -0.6642
  793MOL0     C 6946   9.733   2.432   1.800  0.2351 -0.1157  0.5196
  793MOL0     C 6947   9.854   2.410   1.865 -0.3245 -0.2199  0.2706
  793MOL0     C 6948   9.859   2.338   1.985 -0.3199  0.7021  0.9164
  793MOL0     C 6949   9.985   2.315   2.048 -1.0489 -0.2049 -0.5599
  793MOL0     O 6950   9.980   2.284   2.180 -0.4475 -0.2989  0.1581
  793MOL0     C 6951  10.087   2.233   2.250  1.0585 -0.1025 -0.9768
  793MOL0     C 6952  10.200   2.177   2.196 -1.2647 -0.3552 -0.2591
  793MOL0     C 6953  10.297   2.131   2.285  0.0311  0.3396 -0.3351
  793MOL0     C 6954  10.288   2.158   2.420 -0.3752 -0.8355 -1.2496
  793MOL0     O 6955  10.381   2.119   2.516 -0.3399 -0.6637  0.0220
  793MOL0     C 6956  10.483   2.022   2.481 -0.2122 -0.1547  0.2346
  793MOL0     C 6957  10.574   1.984   2.603  0.2190  0.1782  0.4766
  793MOL0     C 6958  10.675   2.093   2.627 -0.2437  0.1538 -0.5770
  793MOL0     C 6959  10.801   2.078   2.539  0.5512  0.9772 -0.5668
  793MOL0     C 6960  10.929   2.131   2.609 -0.3013  0.0229  0.1292
  793MOL0     C 6961  11.066   2.096   2.558  0.0927  0.1726  0.4158
  793MOL0     C 6962  11.096   1.942   2.568  0.6656 -0.3346 -0.4093
  793MOL0     C 6963  11.245   1.910   2.553  0.6116 -0.3654 -0.5751
  793MOL0    Cl 6964  11.323   1.946   2.393  0.2866 -0.0888  0.3220
  793MOL0     C 6965  10.180   2.226   2.473  0.3490 -0.4365 -0.0305
  793MOL0     C 6966  10.074   2.248   2.386  0.1464  1.2419 -0.2098
  793MOL0     O 6967  10.087   2.345   1.991  0.0220  0.3427 -0.0826
  793MOL0     C 6968   9.744   2.280   2.032 -0.0597  0.9209 -0.8684
  793MOL0     C 6969   9.622   2.292   1.964 -0.9564 -0.2749  0.1798
  793MOL0     N 6970   9.156   2.399   1.321  0.2550  0.0357 -0.0263
  793MOL0     N 6971   9.138   2.326   1.217 -0.5000 -0.1434  0.3307
  793MOL0     C 6972   7.931   2.006   1.153 -0.7514 -1.1731 -0.3897
  793MOL0     C 6973   7.799   1.992   1.131  0.4811  0.1592  0.6219
  793MOL0     C 6974   7.411   1.816   0.932 -0.3567  0.5554  0.5534
  793MOL0     C 6975   7.347   1.704   0.873 -0.5882 -0.7736  0.1784
  793MOL0     C 6976   7.204   1.698   0.846  0.5213  0.1110  0.7387
  793MOL0     C 6977   7.131   1.815   0.879 -0.1185  0.0649  0.1151
  793MOL0     O 6978   7.000   1.819   0.847 -0.1986  0.3568  0.0330
  793MOL0     C 6979   6.917   1.933   0.865  0.0717  0.6555 -0.1852
  793MOL0     C 6980   6.767   1.907   0.828 -0.4126  0.2562  0.0616
  793MOL0     C 6981   6.694   2.037   0.790  0.1174  0.5210  0.8003
  793MOL0     C 6982   6.556   2.014   0.716 -0.1560 -0.2614 -0.8742
  793MOL0     C 6983   6.463   1.956   0.814  0.5248  0.2158 -0.0157
  793MOL0     C 6984   6.373   1.917   0.882  0.4599  0.1125 -0.5611
  793MOL0     C 6985   7.198   1.919   0.937 -0.2980 -0.3389  0.8039
  793MOL0     C 6986   7.333   1.921   0.973  0.1168 -0.4696 -0.4013
  793MOL0     C 6987   7.375   2.056   1.032 -0.3937  0.0235 -0.0065
  793MOL0     H 6988   7.805   1.900   0.807 -3.0165 -0.2129  1.3141
  793MOL0     H 6989   8.038   1.943   0.839 -0.7628 -2.3359 -0.6679
  793MOL0     H 6990   8.223   1.855   0.968 -0.3926  0.1621  1.0514
  793MOL0     H 6991   8.268   2.007   0.904 -2.1668 -0.9999 -0.9508
  793MOL0     H 6992   8.445   1.846   0.995 -0.9045  0.5169 -2.2325
  793MOL0     H 6993   8.397   1.905   1.157  1.1493 -0.2983 -0.0841
  793MOL0     H 6994   8.449   2.145   1.079  2.2515  1.2489 -0.1467
  793MOL0     H 6995   8.489   2.052   0.929 -0.7317 -2.8956  0.5215
  793MOL0     H 6996   8.621   2.012   1.207 -0.0408  0.3183 -0.0984
  793MOL0     H 6997   8.664   1.938   1.049 -1.2620  0.2141 -1.4642
  793MOL0     H 6998   8.750   2.145   0.969 -0.1014  2.2459  0.1045
  793MOL0     H 6999   8.656   2.245   1.074 -1.0999 -0.1375 -1.4761
  793MOL0     H 7000   8.879   2.255   1.141 -0.6366  0.1712 -2.4699
  793MOL0     H 7001   8.803   2.167   1.275 -2.5252 -1.5512 -0.8648
  793MOL0     H 7002   8.914   2.005   1.052 -5.5199 -2.0729  0.8452
  793MOL0     H 7003   8.891   1.977   1.227 -0.1126 -0.0071  0.7412
  793MOL0     H 7004   9.120   2.007   1.237  0.1561 -1.5004 -2.4008
  793MOL0     H 7005   9.122   2.105   1.090 -0.4364  1.6643 -0.4241
  793MOL0     H 7006   9.029   2.138   1.461  4.1597 -0.8268  0.2733
  793MOL0     H 7007   9.083   2.501   1.564  2.2786  0.0431 -0.2773
  793MOL0     H 7008   9.016   2.334   1.622  0.4933  0.2832  0.2444
  793MOL0     H 7009   9.197   2.354   1.759 -0.2574  2.4830  1.0748
  793MOL0     H 7010   9.266   2.260   1.618  0.3155 -0.2330  0.4933
  793MOL0     H 7011   9.280   2.552   1.690 -3.0809 -0.0870 -1.6543
  793MOL0     H 7012   9.309   2.502   1.522  1.2965 -0.0305 -0.0362
  793MOL0     H 7013   9.529   2.532   1.637  3.9785 -1.7976  1.9190
  793MOL0     H 7014   9.496   2.374   1.582 -1.7527 -1.3444  1.4889
  793MOL0     H 7015   9.742   2.489   1.709 -0.2306 -2.2677 -0.9527
  793MOL0     H 7016   9.937   2.458   1.814 -0.8138  1.3054  0.8549
  793MOL0     H 7017  10.217   2.155   2.092  0.5150  2.1843 -0.5897
  793MOL0     H 7018  10.376   2.067   2.248 -1.0092 -0.7807 -0.6668
  793MOL0     H 7019  10.438   1.929   2.443  1.8302 -0.6799 -1.0777
  793MOL0     H 7020  10.553   2.048   2.401 -2.6930  0.7397 -1.7701
  793MOL0     H 7021  10.520   1.980   2.697  0.9242 -1.3789  0.8575
  793MOL0     H 7022  10.623   1.888   2.581  0.2598  0.6952 -1.9771
  793MOL0     H 7023  10.629   2.189   2.604 -0.2783  1.0144  2.5914
  793MOL0     H 7024  10.698   2.095   2.734 -1.5396  2.3746 -0.2840
  793MOL0     H 7025  10.771   2.118   2.442  3.9466 -0.8301 -2.5374
  793MOL0     H 7026  10.813   1.973   2.511 -1.0066  0.7388 -0.4373
  793MOL0     H 7027  10.927   2.102   2.715 -0.2306  0.1804  0.1737
  793MOL0     H 7028  10.910   2.239   2.609 -0.7638 -0.0330  1.4630
  793MOL0     H 7029  11.073   2.135   2.456 -1.9649  1.1978  0.6050
  793MOL0     H 7030  11.134   2.146   2.627 -2.1288  0.0545  2.8680
  793MOL0     H 7031  11.038   1.885   2.495 -0.1640  0.4012 -0.3423
  793MOL0     H 7032  11.066   1.906   2.668  0.6791 -1.3703 -0.7674
  793MOL0     H 7033  11.303   1.960   2.631  0.8686  1.3113 -1.7726
  793MOL0     H 7034  11.244   1.801   2.560 -1.3105 -0.2927  1.1932
  793MOL0     H 7035  10.169   2.253   2.578  1.6287  0.1814 -0.0430
  793MOL0     H 7036   9.973   2.270   2.418 -1.8975 -5.0638 -1.0941
  793MOL0     H 7037   9.748   2.227   2.126  2.6596 -0.1004 -1.4783
  793MOL0     H 7038   9.532   2.253   2.011 -1.6614  1.7451  0.5898
  793MOL0     H 7039   7.958   2.036   1.253 -0.0773 -0.1374 -0.8693
  793MOL0     H 7040   7.725   2.011   1.208  2.3179 -0.8923  2.7670
  793MOL0     H 7041   7.412   1.621   0.849 -1.9225 -1.6471 -0.5526
  793MOL0     H 7042   7.154   1.617   0.794 -1.8183  3.0779 -2.0884
  793MOL0     H 7043   6.951   2.009   0.793  2.0718  0.4639  0.5069
  793MOL0     H 7044   6.927   1.983   0.961 -2.5246 -1.2544  1.1948
  793MOL0     H 7045   6.711   1.866   0.912 -1.1993  2.0790  0.4896
  793MOL0     H 7046   6.770   1.839   0.742  0.2602 -0.2264  0.4591
  793MOL0     H 7047   6.763   2.089   0.724 -0.5164 -1.3839 -1.5028
  793MOL0     H 7048   6.681   2.098   0.880 -3.5715  0.8513  0.2066
  793MOL0     H 7049   6.524   2.115   0.689  0.5712  0.3360  0.4013
  793MOL0     H 7050   6.564   1.953   0.626  1.2925 -1.1628 -0.1612
  793MOL0     H 7051   6.282   1.896   0.935  0.1739 -1.2530 -1.5420
  793MOL0     H 7052   7.133   1.999   0.971  0.8057 -0.0608  2.3210
  793MOL0     H 7053   7.449   2.110   0.971  1.6875 -0.9769  1.4988
  793MOL0     H 7054   7.287   2.118   1.050 -0.1392  0.2349  0.5042
  793MOL0     H 7055   7.415   2.030   1.130  3.5427  0.9598 -1.1894
  794MOL0     O 7056   5.498   6.459  10.676  0.4518 -0.0063 -0.4000
  794MOL0     C 7057   5.473   6.382  10.584  0.0950 -0.5144 -0.0072
  794MOL0     O 7058   5.562   6.298  10.523 -0.4680 -0.3006 -0.4997
  794MOL0     C 7059   5.698   6.297  10.540 -0.3438  0.6029  0.0401
  794MOL0     C 7060   5.769   6.416  10.554  0.7351 -0.1711 -0.3737
  794MOL0     C 7061   5.910   6.407  10.576  0.6844  0.2583  0.1209
  794MOL0     C 7062   5.980   6.288  10.585  0.1196  0.4159 -0.2911
  794MOL0     O 7063   6.115   6.294  10.618  0.6419  0.0732 -0.1493
  794MOL0     C 7064   6.134   6.330  10.755 -0.4504 -0.5270  0.2331
  794MOL0     C 7065   6.279   6.277  10.788  0.0875  1.0525  0.1985
  794MOL0     C 7066   6.310   6.316  10.935 -0.5836 -0.1635 -0.2624
  794MOL0     C 7067   6.366   6.449  10.960  0.0398 -0.6627 -0.1574
  794MOL0     C 7068   6.500   6.481  10.898  0.2322 -0.0341 -0.2052
  794MOL0     C 7069   6.609   6.384  10.948  1.2657  0.1102 -0.8532
  794MOL0     C 7070   6.749   6.426  10.894  0.1226  1.0301 -0.0530
  794MOL0     C 7071   6.833   6.517  10.989 -1.0655  0.1336  0.3482
  794MOL0     N 7072   6.957   6.577  10.938 -0.4226 -0.6486  0.1616
  794MOL0     C 7073   7.030   6.556  10.822  0.1674 -0.2745 -0.1845
  794MOL0     C 7074   7.147   6.634  10.827 -0.1945  0.1106 -0.5086
  794MOL0     C 7075   7.267   6.639  10.726  1.5991  0.0374  0.1481
  794MOL0     C 7076   7.396   6.580  10.786 -0.4420  0.3091 -0.0755
  794MOL0     C 7077   7.381   6.432  10.820 -0.1651  0.4767  0.4572
  794MOL0     C 7078   7.500   6.373  10.894 -0.9338  0.2967  0.6728
  794MOL0     O 7079   7.517   6.416  11.024  0.6305  0.4865 -0.5372
  794MOL0     C 7080   7.617   6.358  11.098  0.1597  0.8317 -0.1251
  794MOL0     C 7081   7.613   6.387  11.235  0.0382 -0.2989  0.6272
  794MOL0     C 7082   7.700   6.324  11.326 -0.0975 -0.8604  0.8017
  794MOL0     C 7083   7.799   6.233  11.284 -0.0631  0.1326  0.0946
  794MOL0     C 7084   7.900   6.182  11.377 -0.1969  0.4701 -0.2378
  794MOL0     O 7085   8.019   6.131  11.329  0.0728  0.1387 -0.0767
  794MOL0     C 7086   8.127   6.099  11.410 -0.4053 -0.3256 -0.5789
  794MOL0     C 7087   8.117   6.051  11.542 -0.6984  0.0100  0.7291
  794MOL0     C 7088   8.224   5.988  11.601  0.1813  0.7126 -0.6510
  794MOL0     C 7089   8.346   5.973  11.539  0.3164  0.0555  0.1725
  794MOL0     O 7090   8.454   5.905  11.603  0.4775  0.1384  0.0644
  794MOL0     C 7091   8.567   5.873  11.522 -0.4620  0.4384 -0.0504
  794MOL0     C 7092   8.681   5.809  11.614  0.5099  0.0024  0.1837
  794MOL0     C 7093   8.790   5.734  11.539 -0.4671  0.5631  0.5053
  794MOL0     C 7094   8.855   5.639  11.643  0.9169  0.2571  0.2649
  794MOL0     C 7095   8.945   5.534  11.576  0.5399 -0.5460  0.1481
  794MOL0     C 7096   9.005   5.438  11.670 -0.0092 -0.5188  0.7454
  794MOL0     C 7097   9.073   5.323  11.588 -0.4221  0.9554  0.1253
  794MOL0     C 7098   9.140   5.220  11.673 -0.1455 -0.6885 -0.3784
  794MOL0    Cl 7099   9.287   5.277  11.765 -0.5972  0.1041 -0.5006
  794MOL0     C 7100   8.352   6.030  11.412 -1.3693  0.0424 -0.1339
  794MOL0     C 7101   8.247   6.090  11.341 -0.1901 -0.0256 -0.7899
  794MOL0     O 7102   7.865   6.191  11.493  0.1957 -0.2621 -0.2204
  794MOL0     C 7103   7.803   6.208  11.143  0.0399 -0.1157  0.3188
  794MOL0     C 7104   7.716   6.271  11.052  0.3717 -0.2259  0.1806
  794MOL0     N 7105   7.133   6.717  10.941 -0.1209  0.1081 -0.1870
  794MOL0     N 7106   7.028   6.674  11.002 -0.4714 -0.1797  0.1120
  794MOL0     C 7107   5.910   6.170  10.567 -0.2761  0.7186 -0.6048
  794MOL0     C 7108   5.770   6.175  10.553  0.7817 -0.3894  0.5976
  794MOL0     C 7109   5.343   6.377  10.517 -0.4677 -0.7419  0.1888
  794MOL0     C 7110   5.337   6.319  10.387 -0.6952 -0.5077 -0.0190
  794MOL0     C 7111   5.220   6.319  10.311 -0.1979 -0.6816  0.4361
  794MOL0     C 7112   5.100   6.382  10.365 -0.2994  0.2744  0.8511
  794MOL0     O 7113   4.992   6.380  10.280  0.2964  0.7542 -0.2661
  794MOL0     C 7114   4.880   6.464  10.308  0.4426 -0.2443  0.2797
  794MOL0     C 7115   4.789   6.496  10.197  0.7233 -0.2133  0.0769
  794MOL0     C 7116   4.656   6.566  10.248 -0.8240  0.0057 -0.4993
  794MOL0     C 7117   4.670   6.707  10.288 -0.2723  0.0942 -0.3057
  794MOL0     C 7118   4.745   6.785  10.196  0.4153 -0.1867 -0.8573
  794MOL0     C 7119   4.808   6.843  10.109  0.6687  0.1783  0.5842
  794MOL0     C 7120   5.102   6.433  10.492  0.1604  0.6182 -0.4445
  794MOL0     C 7121   5.222   6.424  10.571  0.3893 -0.0502  0.0466
  794MOL0     C 7122   5.208   6.472  10.714  0.5334 -0.2224 -0.6493
  794MOL0     H 7123   5.715   6.510  10.556 -0.8050 -1.0059 -1.4769
  794MOL0     H 7124   5.970   6.496  10.595  1.5349 -0.6491  1.9328
  794MOL0     H 7125   6.123   6.436  10.781  1.2712 -1.1031  4.0057
  794MOL0     H 7126   6.059   6.277  10.815  0.7237 -0.9098  1.4274
  794MOL0     H 7127   6.354   6.304  10.713  0.6079  1.6948  0.9402
  794MOL0     H 7128   6.271   6.168  10.783  1.0614  0.8841  1.7676
  794MOL0     H 7129   6.387   6.241  10.956 -2.1360 -2.6870 -2.9327
  794MOL0     H 7130   6.223   6.295  10.998 -2.1720 -1.0778 -2.6048
  794MOL0     H 7131   6.299   6.525  10.919  1.6679  1.0224  0.1599
  794MOL0     H 7132   6.357   6.463  11.068 -2.3988 -0.1275 -0.3641
  794MOL0     H 7133   6.480   6.483  10.791 -0.0285  0.2417 -0.1525
  794MOL0     H 7134   6.530   6.581  10.929 -1.6618  0.4084  0.3425
  794MOL0     H 7135   6.607   6.376  11.057 -3.2227 -1.9123 -0.8969
  794MOL0     H 7136   6.588   6.286  10.905  1.8838  0.3216 -1.6642
  794MOL0     H 7137   6.734   6.480  10.800  1.4904 -0.5945 -1.2689
  794MOL0     H 7138   6.812   6.337  10.886  0.9549  1.4460  1.6070
  794MOL0     H 7139   6.771   6.603  11.016 -1.3931 -0.4335  1.4611
  794MOL0     H 7140   6.862   6.469  11.083  2.8685 -0.0036 -0.7496
  794MOL0     H 7141   7.004   6.488  10.741  2.5354  0.0256 -1.2589
  794MOL0     H 7142   7.247   6.578  10.637 -1.0320 -0.1276  0.7559
  794MOL0     H 7143   7.273   6.743  10.692 -2.0484  0.6381  0.9537
  794MOL0     H 7144   7.475   6.592  10.712  1.5217 -2.6363  1.3478
  794MOL0     H 7145   7.411   6.628  10.882 -0.3496 -0.2699  0.2060
  794MOL0     H 7146   7.372   6.374  10.728 -2.1419  3.7037 -1.5642
  794MOL0     H 7147   7.292   6.406  10.878 -0.4691 -0.7489 -0.5243
  794MOL0     H 7148   7.593   6.402  10.845  0.4141  1.6243  3.7580
  794MOL0     H 7149   7.488   6.264  10.886 -3.7064  0.6200 -0.8341
  794MOL0     H 7150   7.530   6.449  11.268 -1.6341 -0.7557 -2.4306
  794MOL0     H 7151   7.687   6.359  11.428 -1.7454 -1.3782  0.7890
  794MOL0     H 7152   8.021   6.058  11.593 -0.4715  0.9407  1.0319
  794MOL0     H 7153   8.187   5.927  11.683 -0.0067 -1.4918 -2.2824
  794MOL0     H 7154   8.528   5.801  11.449 -2.1824  0.4928  0.7650
  794MOL0     H 7155   8.607   5.964  11.477 -0.1961  0.6334  0.5641
  794MOL0     H 7156   8.718   5.893  11.673 -2.5534  0.1250  2.1345
  794MOL0     H 7157   8.641   5.745  11.693  1.0929 -0.1517  0.3569
  794MOL0     H 7158   8.756   5.684  11.448  1.2025  0.0561  0.1307
  794MOL0     H 7159   8.868   5.795  11.494  0.8179 -1.4544 -0.1496
  794MOL0     H 7160   8.773   5.580  11.685  0.2226  1.7003  1.0360
  794MOL0     H 7161   8.898   5.705  11.720 -0.1630  3.1728 -1.4438
  794MOL0     H 7162   9.032   5.583  11.532  0.8868  0.0203  1.4073
  794MOL0     H 7163   8.884   5.485  11.500  0.6503  0.3015 -0.5096
  794MOL0     H 7164   9.075   5.494  11.733 -2.5112  3.1285  0.6203
  794MOL0     H 7165   8.932   5.401  11.742  0.4101  0.6337  1.7937
  794MOL0     H 7166   9.150   5.362  11.521  0.8148 -0.0012  0.9231
  794MOL0     H 7167   8.992   5.282  11.528 -0.0612  3.4563 -2.2773
  794MOL0     H 7168   9.074   5.172  11.746  1.5052 -0.1684  1.5482
  794MOL0     H 7169   9.176   5.149  11.598 -1.0361 -2.0581  0.4430
  794MOL0     H 7170   8.448   6.027  11.362 -2.3096 -0.1558 -1.9914
  794MOL0     H 7171   8.268   6.126  11.241 -1.5645  2.1821 -0.3680
  794MOL0     H 7172   7.882   6.142  11.111  3.5542  2.6995  2.3999
  794MOL0     H 7173   7.721   6.244  10.947  1.6414 -2.3482  0.7315
  794MOL0     H 7174   5.953   6.071  10.573  1.2956  1.2182 -2.5200
  794MOL0     H 7175   5.712   6.084  10.545  1.4095 -0.8539  1.1724
  794MOL0     H 7176   5.428   6.277  10.345 -0.1933  0.4988  0.0567
  794MOL0     H 7177   5.207   6.277  10.212 -3.4744 -3.6003  1.8937
  794MOL0     H 7178   4.913   6.557  10.355  1.7417 -0.8230  0.5306
  794MOL0     H 7179   4.822   6.407  10.382 -2.0397  0.8935 -0.6612
  794MOL0     H 7180   4.756   6.403  10.149  0.8793  0.4400 -1.3573
  794MOL0     H 7181   4.853   6.554  10.130  0.6124 -1.0187 -0.7464
  794MOL0     H 7182   4.612   6.502  10.325  0.2943 -0.0428  0.1229
  794MOL0     H 7183   4.580   6.547  10.172  0.0115 -0.2795 -1.2748
  794MOL0     H 7184   4.572   6.754  10.292 -0.2792  0.0488  0.0563
  794MOL0     H 7185   4.705   6.709  10.391 -1.4327 -0.2343  0.1092
  794MOL0     H 7186   4.863   6.900  10.037 -1.2396  1.8568  0.3532
  794MOL0     H 7187   5.013   6.484  10.528  1.1252  1.2408  1.1332
  794MOL0     H 7188   5.261   6.568  10.727 -3.0841  2.0780 -1.5214
  794MOL0     H 7189   5.100   6.480  10.727 -0.1758 -3.7531 -3.0624
  794MOL0     H 7190   5.240   6.404  10.793  1.9169  1.7903  0.6500
  795MOL0     O 7191   2.194   7.488  10.960 -0.2155 -1.0856 -0.2748
  795MOL0     C 7192   2.148   7.456  10.854  0.0986  0.3951 -0.3041
  795MOL0     O 7193   2.213   7.375  10.770 -0.1161  0.0566  0.1442
  795MOL0     C 7194   2.335   7.323  10.785  0.0311  0.2941 -0.2588
  795MOL0     C 7195   2.439   7.392  10.848  0.1792  0.8131  0.1814
  795MOL0     C 7196   2.566   7.332  10.870 -0.0912  0.4741  0.5407
  795MOL0     C 7197   2.598   7.210  10.822 -0.2140  0.4895 -0.2772
  795MOL0     O 7198   2.726   7.163  10.845  0.0862  0.5383  0.6533
  795MOL0     C 7199   2.765   7.022  10.822  0.6249 -0.5023 -0.6335
  795MOL0     C 7200   2.763   6.966  10.682  0.3082  0.2181  0.6522
  795MOL0     C 7201   2.855   7.045  10.581  0.3377  0.0989 -0.3336
  795MOL0     C 7202   3.004   7.032  10.625  0.3484 -0.9215  0.3252
  795MOL0     C 7203   3.047   7.169  10.685 -0.5280  0.8856  1.0406
  795MOL0     C 7204   3.107   7.248  10.564  0.1657  0.6115 -0.0286
  795MOL0     C 7205   3.136   7.395  10.611  0.0129  0.0195 -0.8470
  795MOL0     C 7206   3.163   7.487  10.496 -0.2676 -0.4634  0.0596
  795MOL0     N 7207   3.313   7.477  10.466  0.1451 -0.0356  0.3826
  795MOL0     C 7208   3.373   7.447  10.344 -0.0470 -0.0246  0.0356
  795MOL0     C 7209   3.504   7.441  10.361 -0.7123  0.1019  0.3270
  795MOL0     C 7210   3.610   7.413  10.268 -1.2762  0.6539  0.6397
  795MOL0     C 7211   3.753   7.390  10.326  0.2793 -0.7057  0.8673
  795MOL0     C 7212   3.860   7.351  10.214  0.3373 -1.0231  0.3167
  795MOL0     C 7213   4.000   7.390  10.263  0.8984  0.7821  0.5296
  795MOL0     O 7214   4.090   7.326  10.174 -0.6162  0.9435  0.3305
  795MOL0     C 7215   4.225   7.335  10.192 -0.4374  0.1430  0.4197
  795MOL0     C 7216   4.310   7.254  10.123  0.8233 -0.2539 -0.2972
  795MOL0     C 7217   4.444   7.254  10.150  0.8097 -0.0885  1.1367
  795MOL0     C 7218   4.500   7.332  10.248  0.1397  0.0190  0.4888
  795MOL0     C 7219   4.648   7.347  10.260  0.0715  0.5358  0.5208
  795MOL0     O 7220   4.732   7.238  10.206  0.2364 -0.0865 -0.4044
  795MOL0     C 7221   4.870   7.248  10.219  0.1266 -0.3342  0.1423
  795MOL0     C 7222   4.943   7.190  10.123 -0.0949 -0.4158  0.1351
  795MOL0     C 7223   5.085   7.182  10.129 -0.5482  0.0062  0.4187
  795MOL0     C 7224   5.151   7.220  10.246  0.6468  0.4355  0.1726
  795MOL0     O 7225   5.287   7.202  10.244 -0.3224  0.0675 -0.5496
  795MOL0     C 7226   5.368   7.240  10.362 -0.5703  0.9317  0.2536
  795MOL0     C 7227   5.512   7.214  10.324 -0.3536 -0.3409  0.8531
  795MOL0     C 7228   5.624   7.266  10.422 -0.1748 -0.1748 -0.3144
  795MOL0     C 7229   5.759   7.261  10.356  0.2324 -0.2932  0.5331
  795MOL0     C 7230   5.868   7.241  10.459  0.5247  0.0498  0.1018
  795MOL0     C 7231   6.011   7.234  10.418 -0.2952  0.1838 -1.0334
  795MOL0     C 7232   6.065   7.336  10.315 -0.0483  0.3642 -0.5822
  795MOL0     C 7233   6.214   7.303  10.276 -0.2489  0.3226  0.1456
  795MOL0    Cl 7234   6.322   7.321  10.409 -0.1016 -0.3023  0.2719
  795MOL0     C 7235   5.078   7.290  10.344  0.5997 -0.1640 -0.4542
  795MOL0     C 7236   4.939   7.305  10.332 -0.7070 -0.0391 -0.1785
  795MOL0     O 7237   4.687   7.459  10.280 -0.0825  0.1360 -0.1869
  795MOL0     C 7238   4.418   7.413  10.321 -0.4110 -0.9073  0.1539
  795MOL0     C 7239   4.284   7.418  10.291  0.4622  0.6974  0.1946
  795MOL0     N 7240   3.531   7.461  10.495 -0.1624  0.3322  0.3950
  795MOL0     N 7241   3.418   7.483  10.553  0.6295 -0.0557 -1.3674
  795MOL0     C 7242   2.492   7.141  10.764 -0.2039 -0.2805 -0.6926
  795MOL0     C 7243   2.367   7.201  10.737  0.3232  0.2980 -0.3152
  795MOL0     C 7244   2.019   7.503  10.813  0.0344 -0.0313 -0.3426
  795MOL0     C 7245   1.948   7.412  10.728 -0.0152 -0.2478 -0.6179
  795MOL0     C 7246   1.812   7.430  10.698 -0.6415 -0.1331 -0.4360
  795MOL0     C 7247   1.746   7.555  10.718  1.0885  0.1076 -0.0653
  795MOL0     O 7248   1.614   7.584  10.675 -0.8995 -0.5497  0.3928
  795MOL0     C 7249   1.522   7.476  10.646 -0.6055 -0.0538  0.4723
  795MOL0     C 7250   1.379   7.535  10.626  0.2584  0.1621  0.0461
  795MOL0     C 7251   1.299   7.506  10.757  0.1276  0.1367 -0.3258
  795MOL0     C 7252   1.152   7.561  10.751  0.6002  0.8690  0.5052
  795MOL0     C 7253   1.067   7.516  10.861  0.5803 -0.2337  0.3299
  795MOL0     C 7254   0.990   7.472  10.953 -0.5595  0.2732  0.2226
  795MOL0     C 7255   1.811   7.643  10.798 -0.4384  0.0207  0.0234
  795MOL0     C 7256   1.949   7.620  10.847 -0.6469 -0.2771  0.3004
  795MOL0     C 7257   2.002   7.734  10.921  0.2394  0.2941  0.2572
  795MOL0     H 7258   2.429   7.492  10.891  1.1688  0.5151  1.1250
  795MOL0     H 7259   2.648   7.389  10.913  0.5082 -0.0078  0.0556
  795MOL0     H 7260   2.865   7.021  10.865  0.8586  1.0762 -1.0864
  795MOL0     H 7261   2.692   6.962  10.877  1.4829  0.3673  1.5325
  795MOL0     H 7262   2.658   6.986  10.656  1.2900  6.5429 -0.0647
  795MOL0     H 7263   2.791   6.861  10.677  6.3053  1.5167 -0.8201
  795MOL0     H 7264   2.819   7.148  10.582 -1.4933 -0.4715  2.5569
  795MOL0     H 7265   2.847   6.992  10.485 -2.6552 -2.1372  1.0052
  795MOL0     H 7266   3.017   6.949  10.695  1.4103  0.6303  2.0858
  795MOL0     H 7267   3.071   7.012  10.542  0.9422  0.5590  0.4241
  795MOL0     H 7268   2.968   7.216  10.744  0.6010 -0.4632  3.8030
  795MOL0     H 7269   3.126   7.162  10.761  0.3020  1.5284  0.2763
  795MOL0     H 7270   3.205   7.206  10.541  0.2112  1.6106 -1.8120
  795MOL0     H 7271   3.042   7.245  10.476 -1.5050 -0.1665  1.1741
  795MOL0     H 7272   3.221   7.404  10.680  0.7939 -0.8456 -1.6570
  795MOL0     H 7273   3.040   7.429  10.651  0.7793  1.0543  0.1654
  795MOL0     H 7274   3.090   7.477  10.415  0.0015  2.4479 -0.6485
  795MOL0     H 7275   3.148   7.589  10.533 -0.4921 -0.5380  0.1759
  795MOL0     H 7276   3.332   7.426  10.246  0.3327  1.6945 -0.5375
  795MOL0     H 7277   3.587   7.321  10.213  1.7852  0.0705  0.1550
  795MOL0     H 7278   3.613   7.492  10.192  0.6499 -0.8574 -0.9788
  795MOL0     H 7279   3.785   7.487  10.366 -1.0302  1.2187 -2.3492
  795MOL0     H 7280   3.753   7.313  10.404 -1.0752  0.3750  1.9942
  795MOL0     H 7281   3.840   7.382  10.111 -1.5274  0.0128  0.9379
  795MOL0     H 7282   3.858   7.242  10.210  1.2520 -1.0193 -0.4753
  795MOL0     H 7283   4.016   7.361  10.368  0.7873  1.1461  0.6500
  795MOL0     H 7284   4.017   7.498  10.256 -2.5234  1.3718 -0.0242
  795MOL0     H 7285   4.263   7.186  10.053  1.3701 -0.8293 -0.1124
  795MOL0     H 7286   4.492   7.175  10.093 -2.3219 -1.5167  0.2326
  795MOL0     H 7287   4.892   7.155  10.034 -2.5414 -1.1432  1.7151
  795MOL0     H 7288   5.145   7.137  10.051  0.0939  2.8717 -0.8223
  795MOL0     H 7289   5.361   7.346  10.388  1.3252  1.3671 -0.8315
  795MOL0     H 7290   5.350   7.176  10.448 -0.1083  0.4369 -0.0136
  795MOL0     H 7291   5.515   7.105  10.313 -1.8239 -0.3993  0.8172
  795MOL0     H 7292   5.528   7.255  10.224 -1.2499  0.5219  1.0453
  795MOL0     H 7293   5.604   7.367  10.460  1.1176  0.6862 -1.8051
  795MOL0     H 7294   5.624   7.196  10.506  4.0056  1.0496  0.9402
  795MOL0     H 7295   5.774   7.348  10.291  4.0964 -3.1243 -2.8705
  795MOL0     H 7296   5.770   7.184  10.279  1.8841  0.3769  0.0596
  795MOL0     H 7297   5.840   7.157  10.523 -2.7369  0.4761 -0.5715
  795MOL0     H 7298   5.863   7.330  10.522  2.6747 -0.7656  1.5256
  795MOL0     H 7299   6.077   7.251  10.504  0.6656  1.1363 -1.9338
  795MOL0     H 7300   6.030   7.133  10.380  1.9058 -0.1708  0.7895
  795MOL0     H 7301   6.053   7.433  10.365 -0.9693 -0.4050  0.7572
  795MOL0     H 7302   6.004   7.336  10.224 -1.6325  1.6775  0.4187
  795MOL0     H 7303   6.205   7.199  10.240 -1.5053  0.2052  0.7283
  795MOL0     H 7304   6.252   7.360  10.190  1.3458 -1.1685 -0.1963
  795MOL0     H 7305   5.126   7.334  10.431 -1.3763  0.7351  0.2313
  795MOL0     H 7306   4.888   7.343  10.420 -0.4534 -1.6552  0.7259
  795MOL0     H 7307   4.463   7.472  10.400 -0.2611 -0.0324 -0.5701
  795MOL0     H 7308   4.224   7.488  10.348  0.8819  0.3034  1.1494
  795MOL0     H 7309   2.490   7.033  10.761 -2.6790 -0.3763  1.4947
  795MOL0     H 7310   2.291   7.130  10.705  0.6957 -0.7282  0.9761
  795MOL0     H 7311   1.998   7.320  10.699 -0.1510 -0.3193 -0.6256
  795MOL0     H 7312   1.764   7.357  10.634 -2.4509 -2.3204  3.1578
  795MOL0     H 7313   1.519   7.403  10.728 -4.3404  0.6624  1.1716
  795MOL0     H 7314   1.547   7.425  10.553 -0.1106 -2.9657  2.0910
  795MOL0     H 7315   1.324   7.486  10.544  0.2238  0.0483  0.1369
  795MOL0     H 7316   1.385   7.641  10.602  2.2476  0.8169  2.8843
  795MOL0     H 7317   1.346   7.565  10.836 -0.1498 -0.0823  0.0101
  795MOL0     H 7318   1.298   7.400  10.784 -1.8059  0.7429  2.4663
  795MOL0     H 7319   1.147   7.671  10.747 -4.2995  0.8612 -2.0836
  795MOL0     H 7320   1.113   7.530  10.653  1.1072  0.8531  0.3085
  795MOL0     H 7321   0.933   7.419  11.027 -2.3338 -0.3470 -1.4984
  795MOL0     H 7322   1.744   7.727  10.814  0.5970  1.0359 -0.8301
  795MOL0     H 7323   1.962   7.753  11.022  1.0647  1.9442  0.3052
  795MOL0     H 7324   2.110   7.724  10.925  0.2357 -0.2215 -0.8150
  795MOL0     H 7325   1.978   7.820  10.857 -0.4951  0.8240  1.2090
  796MOL0     O 7326   0.901  10.735   0.179  0.2861  0.1783 -0.2718
  796MOL0     C 7327   0.928  10.622   0.206  0.8479 -0.1571  0.2393
  796MOL0     O 7328   1.055  10.567   0.217  0.2511 -0.4830 -0.2971
  796MOL0     C 7329   1.179  10.634   0.221 -0.2754 -0.2305  0.0688
  796MOL0     C 7330   1.293  10.551   0.225  0.2528 -0.2884  0.3544
  796MOL0     C 7331   1.422  10.614   0.225  0.4674 -0.1531 -0.3403
  796MOL0     C 7332   1.440  10.757   0.219 -0.1449 -0.0445  0.4752
  796MOL0     O 7333   1.568  10.808   0.226  0.3817  0.1841  0.0545
  796MOL0     C 7334   1.597  10.949   0.231 -0.9646 -0.0841  0.3972
  796MOL0     C 7335   1.740  10.977   0.280  0.1358  0.2938 -0.0313
  796MOL0     C 7336   1.756  11.127   0.267 -0.6925  1.3062 -0.2915
  796MOL0     C 7337   1.861  11.180   0.363  0.3459 -0.3951 -0.0191
  796MOL0     C 7338   2.002  11.120   0.351 -0.4184  0.1479  0.6239
  796MOL0     C 7339   2.107  11.175   0.453  0.1770  0.6690  0.3606
  796MOL0     C 7340   2.240  11.113   0.416  1.0233 -0.5475  0.5542
  796MOL0     C 7341   2.343  11.136   0.518 -0.1971 -0.6490 -0.2816
  796MOL0     N 7342   2.470  11.071   0.491  0.0488 -0.3414 -0.5656
  796MOL0     C 7343   2.496  10.933   0.500 -0.3331  0.7166 -0.2283
  796MOL0     C 7344   2.627  10.920   0.472 -0.6018 -0.4149  0.2267
  796MOL0     C 7345   2.717  10.799   0.453  0.3139  0.1524  0.4024
  796MOL0     C 7346   2.866  10.840   0.445  0.5086  0.3577  0.3572
  796MOL0     C 7347   2.953  10.711   0.428 -0.2099  1.0824 -0.3390
  796MOL0     C 7348   3.097  10.740   0.424 -0.3599 -0.6958 -0.2935
  796MOL0     O 7349   3.174  10.618   0.394 -0.0675 -0.5682 -0.1276
  796MOL0     C 7350   3.310  10.617   0.418  0.4766  0.1448  0.8599
  796MOL0     C 7351   3.386  10.530   0.335 -0.7292  0.3844 -0.2059
  796MOL0     C 7352   3.523  10.516   0.358  0.1755 -0.2416  0.4876
  796MOL0     C 7353   3.591  10.599   0.450 -0.0400  0.6781 -1.0509
  796MOL0     C 7354   3.732  10.593   0.476  0.0299 -0.3034  0.0242
  796MOL0     O 7355   3.803  10.489   0.424 -0.1127  0.2052 -1.0592
  796MOL0     C 7356   3.939  10.499   0.415  0.4753  0.7257  0.1531
  796MOL0     C 7357   3.994  10.593   0.326  1.0366  0.6816  0.0083
  796MOL0     C 7358   4.125  10.599   0.314  0.6547 -0.3917 -0.6124
  796MOL0     C 7359   4.210  10.514   0.385 -0.2570 -0.0279 -0.1412
  796MOL0     O 7360   4.342  10.543   0.375  0.2567  0.0939  0.2430
  796MOL0     C 7361   4.428  10.429   0.411 -0.7553 -0.2994  0.3899
  796MOL0     C 7362   4.568  10.448   0.346 -0.1271 -1.1969 -0.3515
  796MOL0     C 7363   4.651  10.562   0.409 -0.2196 -0.2467 -0.2676
  796MOL0     C 7364   4.733  10.506   0.525  0.1881 -0.2899 -0.0401
  796MOL0     C 7365   4.827  10.618   0.571 -0.0650 -0.5869  0.0770
  796MOL0     C 7366   4.928  10.565   0.674  0.3747  0.0086 -0.5571
  796MOL0     C 7367   5.041  10.656   0.705 -0.5384  0.2034  0.7311
  796MOL0     C 7368   5.149  10.664   0.600  0.5655  0.0428 -0.5734
  796MOL0    Cl 7369   5.277  10.771   0.669  0.1461 -0.1645 -0.3217
  796MOL0     C 7370   4.153  10.411   0.460  0.6658 -1.4925  0.6093
  796MOL0     C 7371   4.017  10.410   0.485 -0.3579  0.5213  0.6047
  796MOL0     O 7372   3.784  10.693   0.532 -0.1350 -0.8338 -0.1435
  796MOL0     C 7373   3.514  10.687   0.528  0.1386  1.2409  0.8077
  796MOL0     C 7374   3.376  10.693   0.514  0.3676 -0.9221 -0.1885
  796MOL0     N 7375   2.680  11.053   0.457  0.6611 -0.2844 -0.6516
  796MOL0     N 7376   2.584  11.146   0.466  0.1610  0.4815  0.3235
  796MOL0     C 7377   1.326  10.837   0.211 -0.5269 -0.4840  0.2062
  796MOL0     C 7378   1.203  10.775   0.215 -0.2122 -0.3792  0.5501
  796MOL0     C 7379   0.813  10.538   0.213  0.8858 -0.1352  0.0145
  796MOL0     C 7380   0.775  10.497   0.342 -0.8545  0.1806  0.3110
  796MOL0     C 7381   0.654  10.430   0.357 -0.4054  0.2300  0.1386
  796MOL0     C 7382   0.582  10.381   0.246 -0.7495 -0.1938  0.3859
  796MOL0     O 7383   0.475  10.308   0.288  0.5409 -0.0930  0.5210
  796MOL0     C 7384   0.361  10.316   0.201 -0.8483  0.0589 -0.8992
  796MOL0     C 7385   0.243  10.361   0.290 -0.7016 -0.2282 -0.0434
  796MOL0     C 7386   0.133  10.409   0.192 -0.4016 -0.7934 -0.5976
  796MOL0     C 7387  -0.006  10.438   0.253 -0.3494 -0.2143  0.1954
  796MOL0     C 7388  -0.090  10.323   0.258  0.7632  0.8724 -0.1423
  796MOL0     C 7389  -0.170  10.230   0.256  0.4644 -0.1601  0.1269
  796MOL0     C 7390   0.625  10.415   0.116 -0.3554  0.1698  0.7536
  796MOL0     C 7391   0.741  10.497   0.101  0.3005  0.7352  0.4512
  796MOL0     C 7392   0.793  10.523  -0.039 -0.0366  0.1663 -0.1569
  796MOL0     H 7393   1.272  10.445   0.241  1.7647 -0.4623  1.4914
  796MOL0     H 7394   1.516  10.560   0.229  1.0631  0.8390 -0.5323
  796MOL0     H 7395   1.602  11.003   0.136  1.3402  1.8886  1.5356
  796MOL0     H 7396   1.521  10.991   0.298 -1.3160  2.0173 -1.2056
  796MOL0     H 7397   1.814  10.928   0.217  1.2211  1.9758 -0.1161
  796MOL0     H 7398   1.748  10.945   0.384 -1.8631 -0.5335 -0.0684
  796MOL0     H 7399   1.657  11.173   0.274 -1.8793 -1.1810  0.5681
  796MOL0     H 7400   1.783  11.141   0.162  3.8008  2.4225  0.7939
  796MOL0     H 7401   1.857  11.289   0.352 -2.6957 -0.5040 -0.8899
  796MOL0     H 7402   1.822  11.156   0.462 -0.1310 -1.7841 -0.5240
  796MOL0     H 7403   2.000  11.012   0.368 -0.2100  0.0856  0.2565
  796MOL0     H 7404   2.037  11.145   0.251 -2.1679  0.3602  0.0336
  796MOL0     H 7405   2.118  11.284   0.447 -1.0270  0.7627 -0.5715
  796MOL0     H 7406   2.092  11.153   0.559  0.5541  1.9018  0.6850
  796MOL0     H 7407   2.274  11.157   0.321  0.0646  0.4805  0.6675
  796MOL0     H 7408   2.239  11.005   0.405  1.0183 -0.6964  1.8386
  796MOL0     H 7409   2.364  11.243   0.530  2.2229 -1.1604  0.8519
  796MOL0     H 7410   2.310  11.090   0.612  2.7721 -1.3221  0.5416
  796MOL0     H 7411   2.431  10.846   0.505  0.4066  0.1842  0.3880
  796MOL0     H 7412   2.702  10.741   0.544 -0.3864 -1.1099 -0.4900
  796MOL0     H 7413   2.691  10.746   0.361 -0.5538  1.3233 -0.0406
  796MOL0     H 7414   2.885  10.912   0.365 -1.7776  0.1457 -0.4443
  796MOL0     H 7415   2.896  10.876   0.544 -1.8956  1.5653  0.7105
  796MOL0     H 7416   2.923  10.649   0.343 -1.0198 -1.3041  1.5950
  796MOL0     H 7417   2.946  10.669   0.528  1.2074  1.6464  0.0123
  796MOL0     H 7418   3.125  10.786   0.519 -1.8629 -1.4767  0.5582
  796MOL0     H 7419   3.103  10.807   0.337 -3.4231  0.7075  0.4445
  796MOL0     H 7420   3.329  10.475   0.261  0.8662 -2.8405  0.7592
  796MOL0     H 7421   3.579  10.441   0.302 -1.4452  0.9147 -2.9892
  796MOL0     H 7422   3.938  10.661   0.262 -1.9701  0.5709  2.2768
  796MOL0     H 7423   4.177  10.680   0.263  0.0833 -0.2213 -0.9375
  796MOL0     H 7424   4.436  10.419   0.519 -1.9080 -0.5865  0.4626
  796MOL0     H 7425   4.385  10.336   0.373 -1.2386  0.5172 -1.1535
  796MOL0     H 7426   4.617  10.351   0.357  0.6037 -0.8980 -0.9526
  796MOL0     H 7427   4.562  10.462   0.238 -1.0770 -4.1591 -0.7653
  796MOL0     H 7428   4.716  10.612   0.336 -0.1942 -0.0708 -0.1259
  796MOL0     H 7429   4.576  10.635   0.443  2.8810  2.2906  1.7400
  796MOL0     H 7430   4.786  10.413   0.501 -0.4901 -0.8015  0.3937
  796MOL0     H 7431   4.655  10.481   0.597 -0.1808 -1.6377 -0.8582
  796MOL0     H 7432   4.784  10.713   0.603  2.4825  1.3588 -1.8687
  796MOL0     H 7433   4.883  10.647   0.482 -1.4603  1.0460 -0.3378
  796MOL0     H 7434   4.880  10.550   0.771  0.8033 -1.8981 -0.5920
  796MOL0     H 7435   4.960  10.467   0.636 -0.7448 -0.5725 -0.0576
  796MOL0     H 7436   5.084  10.638   0.804 -1.9813  0.9359  1.5261
  796MOL0     H 7437   5.005  10.759   0.716  2.7667  1.6554 -0.9477
  796MOL0     H 7438   5.200  10.570   0.576  2.7594  0.3951  2.1402
  796MOL0     H 7439   5.104  10.715   0.515 -0.4461 -0.6584 -0.4768
  796MOL0     H 7440   4.224  10.352   0.516  2.9028  0.1684 -0.3126
  796MOL0     H 7441   3.968  10.327   0.535 -2.6437 -1.1450 -3.7705
  796MOL0     H 7442   3.569  10.744   0.602  2.6314  1.1338 -0.8041
  796MOL0     H 7443   3.324  10.761   0.582  2.1126  0.0096  0.2606
  796MOL0     H 7444   1.337  10.945   0.209  0.0647 -0.5535 -1.1231
  796MOL0     H 7445   1.115  10.838   0.217  0.4347  0.7207 -1.5221
  796MOL0     H 7446   0.833  10.521   0.431  0.1856  0.0966 -0.3284
  796MOL0     H 7447   0.606  10.404   0.451 -0.3084  2.7182  0.9414
  796MOL0     H 7448   0.329  10.217   0.166 -1.6891 -0.3582  0.8882
  796MOL0     H 7449   0.380  10.392   0.125  2.1695 -0.8660 -1.1893
  796MOL0     H 7450   0.268  10.440   0.362 -0.1770 -0.6965  0.2994
  796MOL0     H 7451   0.210  10.272   0.345  0.9347 -2.4904 -2.4621
  796MOL0     H 7452   0.124  10.337   0.109 -0.8399 -0.9984 -0.3755
  796MOL0     H 7453   0.172  10.497   0.140  0.2740 -0.9854 -0.4293
  796MOL0     H 7454   0.007  10.479   0.354  0.5726  1.1068 -0.4212
  796MOL0     H 7455  -0.057  10.516   0.195 -1.0506  1.0577  2.4052
  796MOL0     H 7456  -0.256  10.166   0.259  0.5473 -0.2471  2.8203
  796MOL0     H 7457   0.575  10.381   0.026  0.4418 -1.6558  0.9480
  796MOL0     H 7458   0.789  10.632  -0.043 -0.2525  0.1213 -2.1558
  796MOL0     H 7459   0.895  10.485  -0.047  0.3076  0.0769  3.1426
  796MOL0     H 7460   0.733  10.486  -0.123  1.4870  1.1802 -1.7572
  797MOL0     O 7461   1.137   2.482   0.414  0.1903  0.5130 -0.0832
  797MOL0     C 7462   1.031   2.535   0.443  0.5732  0.2377  0.6655
  797MOL0     O 7463   1.013   2.656   0.502  0.6676 -0.7546 -0.4775
  797MOL0     C 7464   1.122   2.715   0.552 -0.2813 -0.6964 -0.6758
  797MOL0     C 7465   1.193   2.792   0.456  0.1073 -0.2716  0.4263
  797MOL0     C 7466   1.310   2.848   0.506 -0.0828  0.1449  0.3534
  797MOL0     C 7467   1.354   2.827   0.634  0.4049 -0.6241  0.2159
  797MOL0     O 7468   1.475   2.878   0.668  0.5999  0.1124 -0.1343
  797MOL0     C 7469   1.582   2.782   0.668  0.1755 -0.7818  0.6840
  797MOL0     C 7470   1.674   2.792   0.795 -0.4039  0.2157  0.8910
  797MOL0     C 7471   1.812   2.730   0.780  0.2536 -0.3782  0.4318
  797MOL0     C 7472   1.815   2.570   0.764  0.2653  0.1114 -0.6150
  797MOL0     C 7473   1.957   2.511   0.774  0.7395  0.1860 -0.3846
  797MOL0     C 7474   1.956   2.353   0.765 -0.5993 -0.9404 -0.2511
  797MOL0     C 7475   2.091   2.308   0.829 -0.1568  0.1035  0.4891
  797MOL0     C 7476   2.083   2.157   0.863 -0.4463 -0.2690  0.0904
  797MOL0     N 7477   2.208   2.106   0.926  0.0998  0.5969  0.4119
  797MOL0     C 7478   2.206   2.073   1.062  0.2385 -0.2953  0.5265
  797MOL0     C 7479   2.334   2.050   1.093  0.7608  0.5321 -0.1564
  797MOL0     C 7480   2.379   2.014   1.232  0.5066  0.4924  0.5949
  797MOL0     C 7481   2.486   1.906   1.234  0.7100 -0.0585  0.1257
  797MOL0     C 7482   2.624   1.973   1.194  0.4778  0.7371  0.5118
  797MOL0     C 7483   2.731   1.864   1.211 -1.0425  0.5066  0.5134
  797MOL0     O 7484   2.764   1.817   1.344 -0.1697 -0.2466  0.1113
  797MOL0     C 7485   2.900   1.787   1.365  0.5937  0.0578  0.7157
  797MOL0     C 7486   2.983   1.763   1.254 -0.9834 -0.3684 -0.0643
  797MOL0     C 7487   3.122   1.752   1.276 -0.6184  0.1981 -0.0876
  797MOL0     C 7488   3.167   1.746   1.407 -0.9328  0.6875 -0.0836
  797MOL0     C 7489   3.322   1.732   1.419  0.7922  0.1843 -0.8254
  797MOL0     O 7490   3.394   1.674   1.323 -0.6496 -0.7528 -0.1803
  797MOL0     C 7491   3.527   1.629   1.356 -0.0886  0.2566  0.2701
  797MOL0     C 7492   3.570   1.569   1.481 -0.2984  0.3871 -0.2051
  797MOL0     C 7493   3.689   1.503   1.491 -0.4852  0.0379 -0.3400
  797MOL0     C 7494   3.777   1.512   1.385  0.3052 -0.3962 -0.4079
  797MOL0     O 7495   3.895   1.436   1.394  0.5547 -0.3431 -0.4083
  797MOL0     C 7496   3.999   1.456   1.294  0.1009  0.3915  0.0151
  797MOL0     C 7497   4.131   1.387   1.345 -0.1645 -0.0361 -0.2730
  797MOL0     C 7498   4.270   1.434   1.303  0.4309 -0.6482  0.0781
  797MOL0     C 7499   4.267   1.475   1.156  0.0378 -0.6594 -0.7425
  797MOL0     C 7500   4.404   1.512   1.113  0.4260 -0.4706  1.5964
  797MOL0     C 7501   4.419   1.575   0.972 -0.3943  0.1309  1.2056
  797MOL0     C 7502   4.378   1.481   0.860 -0.0848  0.0502  0.3882
  797MOL0     C 7503   4.368   1.545   0.727  0.1680  0.4276 -0.1618
  797MOL0    Cl 7504   4.227   1.654   0.709 -0.3811 -0.0649 -0.0421
  797MOL0     C 7505   3.739   1.580   1.269  0.2923  0.5895 -0.5071
  797MOL0     C 7506   3.616   1.638   1.254  0.4675  0.8414  0.1472
  797MOL0     O 7507   3.358   1.774   1.531  0.2172  0.4212 -0.1052
  797MOL0     C 7508   3.079   1.760   1.517  0.2670  0.5521  0.8080
  797MOL0     C 7509   2.950   1.767   1.491  0.4383  0.2158  0.1659
  797MOL0     N 7510   2.405   2.063   0.974  0.6128  0.4146  0.2762
  797MOL0     N 7511   2.331   2.095   0.871  1.0013  0.1835  0.3437
  797MOL0     C 7512   1.278   2.767   0.722  0.0915  0.3105 -0.0323
  797MOL0     C 7513   1.157   2.709   0.686 -0.2124  0.8708  0.3223
  797MOL0     C 7514   0.906   2.470   0.403 -0.0777  0.7011  0.0034
  797MOL0     C 7515   0.825   2.424   0.504  0.1297 -0.3685 -0.4294
  797MOL0     C 7516   0.702   2.360   0.471 -0.8102 -0.9597  0.4231
  797MOL0     C 7517   0.654   2.345   0.341  0.6346 -0.5995  0.7785
  797MOL0     O 7518   0.532   2.295   0.312  0.4704  0.4648 -0.5994
  797MOL0     C 7519   0.526   2.206   0.193 -0.5262 -0.0840 -0.9537
  797MOL0     C 7520   0.559   2.063   0.227 -0.1267  0.2364 -0.4616
  797MOL0     C 7521   0.698   2.017   0.185 -0.0137 -0.1262 -0.1564
  797MOL0     C 7522   0.711   1.865   0.173 -0.0652 -0.3138 -0.1367
  797MOL0     C 7523   0.851   1.839   0.135 -0.8468  0.0091  0.1387
  797MOL0     C 7524   0.958   1.793   0.114 -0.3497  0.1632  0.0777
  797MOL0     C 7525   0.743   2.398   0.241 -0.0809 -0.2788  0.1773
  797MOL0     C 7526   0.863   2.459   0.271 -0.7833  0.5716 -0.2082
  797MOL0     C 7527   0.954   2.517   0.165 -0.6475  0.9342  0.1192
  797MOL0     H 7528   1.168   2.787   0.350  0.5889  2.7443  0.0799
  797MOL0     H 7529   1.361   2.903   0.429 -0.1231  1.3135  1.1359
  797MOL0     H 7530   1.532   2.685   0.660  0.9752 -1.1621  0.2065
  797MOL0     H 7531   1.636   2.804   0.575 -0.6860  1.7642  0.7242
  797MOL0     H 7532   1.618   2.733   0.869 -2.1315 -0.4696 -0.8901
  797MOL0     H 7533   1.678   2.898   0.821  0.5972 -0.3542  3.3169
  797MOL0     H 7534   1.867   2.757   0.871  1.9091 -1.7793 -0.1040
  797MOL0     H 7535   1.853   2.780   0.692 -0.5420  1.8003  1.2187
  797MOL0     H 7536   1.748   2.539   0.845 -1.8351  3.9479 -0.6396
  797MOL0     H 7537   1.774   2.539   0.667  0.6022 -0.6608 -0.5172
  797MOL0     H 7538   2.019   2.557   0.697 -2.4716  0.4800 -3.0048
  797MOL0     H 7539   2.005   2.540   0.868 -0.6334  0.4536  0.2567
  797MOL0     H 7540   1.870   2.319   0.824 -1.5462  1.2103 -0.3316
  797MOL0     H 7541   1.951   2.317   0.662  0.0450 -0.7065 -0.3664
  797MOL0     H 7542   2.122   2.363   0.919  1.5595 -0.4006  0.2512
  797MOL0     H 7543   2.174   2.325   0.760 -0.6387  0.8032  0.0690
  797MOL0     H 7544   1.999   2.140   0.931 -0.8118  1.4736  0.1060
  797MOL0     H 7545   2.068   2.105   0.768  0.9339 -0.0269 -0.2954
  797MOL0     H 7546   2.115   2.074   1.122 -0.0603 -1.6250  0.1284
  797MOL0     H 7547   2.402   2.095   1.302 -0.5356  0.3763  1.0866
  797MOL0     H 7548   2.291   1.965   1.274 -0.4716 -2.5218 -4.2111
  797MOL0     H 7549   2.499   1.864   1.334  0.6642 -1.5221 -0.4618
  797MOL0     H 7550   2.456   1.826   1.166 -1.1204  2.0295 -1.6945
  797MOL0     H 7551   2.646   2.069   1.241  0.9144  0.8791  0.0279
  797MOL0     H 7552   2.620   2.001   1.088 -0.3549  0.6847  0.5202
  797MOL0     H 7553   2.821   1.909   1.168 -0.4709 -1.0170  0.0445
  797MOL0     H 7554   2.708   1.773   1.155  1.0793 -0.3202  0.9045
  797MOL0     H 7555   2.945   1.759   1.153 -0.0890  1.1926 -0.4932
  797MOL0     H 7556   3.193   1.738   1.195 -1.3658 -1.1387 -0.5421
  797MOL0     H 7557   3.492   1.563   1.556 -0.4390 -1.0276 -0.4434
  797MOL0     H 7558   3.719   1.434   1.569  0.5653 -1.1748 -1.7668
  797MOL0     H 7559   3.977   1.412   1.196  0.1131 -0.4128  0.3710
  797MOL0     H 7560   4.017   1.564   1.286  1.2539  0.1896 -0.2553
  797MOL0     H 7561   4.135   1.398   1.454  2.3757  0.8030 -0.3999
  797MOL0     H 7562   4.137   1.280   1.323  0.4935  0.2141 -1.3853
  797MOL0     H 7563   4.308   1.510   1.372 -1.7025  0.5668 -0.0009
  797MOL0     H 7564   4.337   1.349   1.318 -1.1469 -1.7951  1.0757
  797MOL0     H 7565   4.202   1.562   1.144 -2.2642 -2.2602 -0.5520
  797MOL0     H 7566   4.213   1.410   1.087 -6.0569 -0.1968  2.8369
  797MOL0     H 7567   4.461   1.421   1.093 -1.5081 -1.2587 -0.8553
  797MOL0     H 7568   4.445   1.573   1.195  0.8860  0.9763  0.3349
  797MOL0     H 7569   4.362   1.667   0.963 -0.3986  0.1093  1.0049
  797MOL0     H 7570   4.523   1.601   0.954  0.3706 -3.4677 -0.5436
  797MOL0     H 7571   4.277   1.445   0.883 -0.2091 -0.9531 -1.5184
  797MOL0     H 7572   4.437   1.389   0.856 -2.9216 -1.9062  0.0113
  797MOL0     H 7573   4.464   1.593   0.708  1.8144 -2.0288  1.4959
  797MOL0     H 7574   4.368   1.469   0.649 -0.3323  0.3893 -0.1309
  797MOL0     H 7575   3.800   1.572   1.180  0.6793 -1.7309 -0.0937
  797MOL0     H 7576   3.586   1.686   1.162  0.6506  0.5463 -0.0705
  797MOL0     H 7577   3.122   1.766   1.617  0.5028 -0.7479  0.8016
  797MOL0     H 7578   2.889   1.774   1.581  0.1252 -0.0385 -0.0227
  797MOL0     H 7579   1.292   2.773   0.830 -1.0662  0.5501  0.1211
  797MOL0     H 7580   1.101   2.653   0.760  1.1020 -0.7318  0.1734
  797MOL0     H 7581   0.847   2.424   0.610 -0.6623 -0.3715 -0.2624
  797MOL0     H 7582   0.631   2.326   0.546 -2.3749  0.1459 -0.4810
  797MOL0     H 7583   0.577   2.243   0.104  0.4544 -0.3759 -0.5217
  797MOL0     H 7584   0.420   2.208   0.167 -1.5053 -2.3471  2.2439
  797MOL0     H 7585   0.494   1.994   0.172 -0.6447  1.4905 -1.4922
  797MOL0     H 7586   0.546   2.042   0.333 -0.3098  2.2118 -0.0464
  797MOL0     H 7587   0.766   2.046   0.265  0.3895  1.1225 -0.9355
  797MOL0     H 7588   0.729   2.067   0.093 -0.9744 -1.6485 -1.3622
  797MOL0     H 7589   0.690   1.818   0.270 -1.0344  1.4915  0.5683
  797MOL0     H 7590   0.641   1.826   0.099 -0.2627  1.7706 -1.1181
  797MOL0     H 7591   1.058   1.755   0.113 -0.4246 -0.0245 -0.2626
  797MOL0     H 7592   0.710   2.391   0.138 -1.8541 -3.8681  0.8403
  797MOL0     H 7593   0.886   2.548   0.084 -1.5190  0.7638  0.7702
  797MOL0     H 7594   1.012   2.599   0.207 -0.1796  0.5417  0.2405
  797MOL0     H 7595   1.027   2.443   0.132 -3.8252 -2.8333  0.7161
  798MOL0     O 7596   7.516   2.714   4.357 -0.4442  0.4092 -0.1406
  798MOL0     C 7597   7.476   2.720   4.474 -0.4492  0.0644 -0.5567
  798MOL0     O 7598   7.552   2.693   4.585  1.0915 -0.5959  0.2043
  798MOL0     C 7599   7.680   2.635   4.561  0.2220  0.6063  1.0289
  798MOL0     C 7600   7.692   2.494   4.543  0.8360  0.0885  0.0618
  798MOL0     C 7601   7.814   2.442   4.495  0.3638 -0.2667 -0.5359
  798MOL0     C 7602   7.926   2.527   4.471  0.2871 -0.0993 -0.4638
  798MOL0     O 7603   8.038   2.469   4.420 -0.6835  0.0803 -0.4059
  798MOL0     C 7604   8.161   2.546   4.420  0.0406  0.2552 -0.3977
  798MOL0     C 7605   8.287   2.467   4.381 -0.1163  1.2769  0.4631
  798MOL0     C 7606   8.420   2.536   4.418 -0.4299  0.2826  0.5657
  798MOL0     C 7607   8.516   2.417   4.460 -0.3070  0.0988  0.2247
  798MOL0     C 7608   8.657   2.485   4.493 -0.1218  0.1859 -0.9053
  798MOL0     C 7609   8.767   2.392   4.547 -0.3389 -0.5856  0.3647
  798MOL0     C 7610   8.903   2.475   4.536  0.7623  0.0127 -0.3448
  798MOL0     C 7611   9.018   2.412   4.630 -0.0022 -0.2952  0.1369
  798MOL0     N 7612   9.139   2.491   4.605 -0.4673  0.8438 -0.8433
  798MOL0     C 7613   9.204   2.486   4.480  0.1151 -0.0701 -0.9526
  798MOL0     C 7614   9.300   2.586   4.498  0.6799  0.8006 -0.2551
  798MOL0     C 7615   9.397   2.620   4.391  0.8789 -0.3177 -0.5959
  798MOL0     C 7616   9.511   2.529   4.381 -1.0787  0.4035  0.3944
  798MOL0     C 7617   9.615   2.563   4.488 -0.2102  0.3143 -0.2468
  798MOL0     C 7618   9.727   2.460   4.503 -0.4911 -0.8710 -0.5109
  798MOL0     O 7619   9.793   2.483   4.629 -0.2940 -0.5682  0.1842
  798MOL0     C 7620   9.918   2.435   4.643 -0.5802 -0.6014 -0.5956
  798MOL0     C 7621  10.024   2.522   4.666 -0.6818 -0.2539  0.4596
  798MOL0     C 7622  10.149   2.470   4.703  0.1957  0.1120  1.0361
  798MOL0     C 7623  10.184   2.332   4.679  0.2135 -0.1158  1.6742
  798MOL0     C 7624  10.321   2.276   4.684  1.4007 -1.0526 -1.2117
  798MOL0     O 7625  10.394   2.337   4.783 -0.4723  0.2399  0.9912
  798MOL0     C 7626  10.525   2.302   4.789 -0.2721  0.4695  0.5516
  798MOL0     C 7627  10.569   2.167   4.810  0.4773 -0.2945 -0.1047
  798MOL0     C 7628  10.703   2.156   4.829 -0.0836  0.1395 -0.6956
  798MOL0     C 7629  10.797   2.260   4.814  0.0527  0.0606  0.1304
  798MOL0     O 7630  10.926   2.231   4.805  0.1321  0.3253  0.0952
  798MOL0     C 7631  11.011   2.319   4.868 -0.7693 -0.0389 -0.2984
  798MOL0     C 7632  11.162   2.264   4.882 -0.5574  0.2903 -0.0739
  798MOL0     C 7633  11.165   2.123   4.947  0.1438 -0.6454 -0.6820
  798MOL0     C 7634  11.305   2.080   4.964  0.1147  0.3563  0.5610
  798MOL0     C 7635  11.320   1.944   5.028 -0.6375  0.6364  0.1679
  798MOL0     C 7636  11.450   1.879   4.988  0.1225 -0.4358 -0.3460
  798MOL0     C 7637  11.575   1.957   5.037 -0.0982 -1.1051 -0.0235
  798MOL0     C 7638  11.689   1.853   5.068 -0.1753  0.0953  0.0832
  798MOL0    Cl 7639  11.850   1.930   5.102 -0.2264  0.1104 -0.1970
  798MOL0     C 7640  10.748   2.388   4.783  0.2526 -0.3650 -0.2005
  798MOL0     C 7641  10.615   2.406   4.769  0.9944  0.1722 -0.6098
  798MOL0     O 7642  10.360   2.198   4.602  0.5838 -0.4008 -0.4312
  798MOL0     C 7643  10.079   2.250   4.642 -0.4335 -0.6150 -0.5229
  798MOL0     C 7644   9.945   2.294   4.633 -0.2120 -0.3889  0.2674
  798MOL0     N 7645   9.291   2.643   4.621 -0.9160  0.1494  0.1468
  798MOL0     N 7646   9.192   2.591   4.683  0.0051 -0.7924 -0.0171
  798MOL0     C 7647   7.911   2.669   4.487  0.0920 -0.5414  0.3964
  798MOL0     C 7648   7.788   2.718   4.525 -0.5865 -0.3939  0.6810
  798MOL0     C 7649   7.339   2.778   4.496  0.3213  0.0307  0.3871
  798MOL0     C 7650   7.316   2.849   4.616  0.1117  0.0212 -0.3658
  798MOL0     C 7651   7.189   2.883   4.652  0.3150 -0.5935 -0.9674
  798MOL0     C 7652   7.084   2.853   4.575 -0.0158 -0.8716 -0.3609
  798MOL0     O 7653   6.963   2.891   4.624  0.4252 -0.5531 -0.3084
  798MOL0     C 7654   6.851   2.852   4.553  0.3830 -0.2416  0.0019
  798MOL0     C 7655   6.723   2.899   4.613  0.9160 -0.5346 -0.8364
  798MOL0     C 7656   6.709   2.884   4.766 -0.6389 -0.0753 -0.1762
  798MOL0     C 7657   6.623   2.992   4.815 -0.4283 -0.5975 -0.0382
  798MOL0     C 7658   6.627   2.997   4.962 -0.3804 -0.1295  0.0972
  798MOL0     C 7659   6.631   2.990   5.083  0.1747 -1.1529  0.1093
  798MOL0     C 7660   7.102   2.800   4.445  0.0956  0.8977 -0.3045
  798MOL0     C 7661   7.230   2.758   4.399 -0.3613 -0.3625  0.3223
  798MOL0     C 7662   7.241   2.703   4.255 -0.8514 -0.1927  0.3631
  798MOL0     H 7663   7.599   2.439   4.553  0.3666  0.6027 -1.2331
  798MOL0     H 7664   7.828   2.336   4.476 -1.8178 -0.5702 -0.7675
  798MOL0     H 7665   8.151   2.622   4.342  1.5728  0.4939 -0.4010
  798MOL0     H 7666   8.187   2.589   4.517  4.1545  1.4260 -1.8189
  798MOL0     H 7667   8.298   2.456   4.273  3.3648  0.2233  0.8036
  798MOL0     H 7668   8.280   2.362   4.409  0.1591  1.0352 -0.3488
  798MOL0     H 7669   8.404   2.596   4.509 -2.2063  1.6730 -0.5943
  798MOL0     H 7670   8.459   2.602   4.340 -1.1350  0.2859  0.2045
  798MOL0     H 7671   8.472   2.360   4.543  0.2643  1.0290  1.1973
  798MOL0     H 7672   8.534   2.348   4.377  0.3022  0.4801  0.0351
  798MOL0     H 7673   8.689   2.526   4.397 -1.2980  0.1081 -1.3521
  798MOL0     H 7674   8.639   2.561   4.569  2.6479 -0.4319  0.4910
  798MOL0     H 7675   8.754   2.359   4.651  0.1289 -2.8056 -0.2256
  798MOL0     H 7676   8.781   2.303   4.486  0.2140 -0.4176  0.2365
  798MOL0     H 7677   8.883   2.577   4.570  0.1944 -0.1530 -0.1754
  798MOL0     H 7678   8.937   2.471   4.432  1.8539  0.9627 -0.0393
  798MOL0     H 7679   8.978   2.417   4.731 -1.1561  0.2342 -0.3227
  798MOL0     H 7680   9.020   2.310   4.589 -1.4736  0.1484 -1.1626
  798MOL0     H 7681   9.180   2.425   4.394  1.8931  0.7512 -2.0861
  798MOL0     H 7682   9.343   2.629   4.296  0.5751  1.4892 -0.2950
  798MOL0     H 7683   9.439   2.719   4.412  0.5259 -0.7177  2.3123
  798MOL0     H 7684   9.468   2.431   4.405 -0.5080  0.5591  2.0993
  798MOL0     H 7685   9.552   2.528   4.279 -3.8559 -3.1794 -0.9226
  798MOL0     H 7686   9.564   2.587   4.582  2.3454  1.8268  0.8667
  798MOL0     H 7687   9.658   2.658   4.456 -3.4029  1.5920 -1.1680
  798MOL0     H 7688   9.790   2.476   4.416 -2.0606  0.9225 -1.3933
  798MOL0     H 7689   9.686   2.358   4.505 -0.3950 -1.0083 -3.0527
  798MOL0     H 7690  10.009   2.630   4.674  0.5861  0.0775 -1.1853
  798MOL0     H 7691  10.225   2.544   4.726  0.7863  0.5208 -1.8590
  798MOL0     H 7692  10.507   2.077   4.813  2.5245 -1.8486 -1.4293
  798MOL0     H 7693  10.749   2.068   4.873  0.9144  0.3765 -1.2202
  798MOL0     H 7694  11.008   2.414   4.813 -1.9542  0.9138  1.3413
  798MOL0     H 7695  10.976   2.349   4.967 -1.1241 -0.9804 -0.1293
  798MOL0     H 7696  11.206   2.265   4.782 -0.7370  3.8661 -0.2364
  798MOL0     H 7697  11.223   2.332   4.942 -2.1133  1.1672  0.5776
  798MOL0     H 7698  11.104   2.126   5.038 -1.0456 -2.2096 -1.3785
  798MOL0     H 7699  11.115   2.056   4.876 -1.0355 -2.0543  1.3710
  798MOL0     H 7700  11.367   2.160   5.007  0.1994  0.2093  0.7130
  798MOL0     H 7701  11.343   2.072   4.862  2.0337  0.7546  1.2037
  798MOL0     H 7702  11.234   1.884   4.999 -0.9340  0.6264  1.0439
  798MOL0     H 7703  11.317   1.951   5.137  2.0630  0.6743  0.3162
  798MOL0     H 7704  11.441   1.783   5.040 -2.3736 -0.6949 -1.1333
  798MOL0     H 7705  11.451   1.847   4.883  0.9658 -2.0774  0.1229
  798MOL0     H 7706  11.537   2.003   5.128 -1.2147  0.8510 -1.4036
  798MOL0     H 7707  11.611   2.033   4.967  2.4620 -1.6593  0.5903
  798MOL0     H 7708  11.667   1.788   5.153  0.6801 -0.7087 -0.2862
  798MOL0     H 7709  11.701   1.802   4.972  0.1535  1.0090 -0.3777
  798MOL0     H 7710  10.819   2.465   4.753 -0.8086  1.5979  2.0117
  798MOL0     H 7711  10.570   2.498   4.732 -0.3336 -1.0911 -2.2542
  798MOL0     H 7712  10.113   2.148   4.629  1.0688 -0.6054  2.4577
  798MOL0     H 7713   9.870   2.223   4.601  0.3947 -0.4822 -1.0057
  798MOL0     H 7714   7.985   2.741   4.456 -1.0239 -0.2411 -1.7532
  798MOL0     H 7715   7.774   2.825   4.518 -1.2746 -0.5658 -1.4800
  798MOL0     H 7716   7.400   2.874   4.681 -0.4245 -3.6428  2.0458
  798MOL0     H 7717   7.171   2.940   4.743  0.7808 -2.1780  0.1697
  798MOL0     H 7718   6.838   2.743   4.555  2.5733 -0.5207  1.0486
  798MOL0     H 7719   6.855   2.881   4.447  0.6780  0.2230  0.1399
  798MOL0     H 7720   6.640   2.836   4.579  2.1228 -2.1535 -0.8628
  798MOL0     H 7721   6.710   3.004   4.584  0.5381 -0.3202  0.0855
  798MOL0     H 7722   6.808   2.877   4.812  0.2617  0.2910 -1.9438
  798MOL0     H 7723   6.670   2.786   4.794  0.6962 -0.8380 -0.8829
  798MOL0     H 7724   6.660   3.084   4.767  1.4547 -1.1754  0.2462
  798MOL0     H 7725   6.525   2.973   4.769 -0.0356  2.2373 -2.3412
  798MOL0     H 7726   6.662   2.981   5.185  2.9719  1.0136 -0.4114
  798MOL0     H 7727   7.015   2.799   4.380 -0.9874 -0.5714  1.0787
  798MOL0     H 7728   7.284   2.779   4.189  3.3437 -1.2938  1.5694
  798MOL0     H 7729   7.307   2.616   4.256  1.4979  1.4900  1.2037
  798MOL0     H 7730   7.142   2.674   4.219 -1.1400  0.5677  0.5084
  799MOL0     O 7731   5.956   1.950   9.647 -0.0076  0.3783 -0.3326
  799MOL0     C 7732   5.897   2.052   9.684 -0.3399 -0.0254  0.0094
  799MOL0     O 7733   5.961   2.169   9.719 -0.3472  0.0622  0.6393
  799MOL0     C 7734   6.092   2.149   9.761  0.1099 -0.5463 -0.2058
  799MOL0     C 7735   6.194   2.200   9.682  0.3208 -0.3060  0.5867
  799MOL0     C 7736   6.329   2.171   9.721 -0.0902  0.5591  0.3247
  799MOL0     C 7737   6.360   2.091   9.829  0.3450  0.0397  0.2989
  799MOL0     O 7738   6.488   2.063   9.872  0.1435  0.4512  0.1477
  799MOL0     C 7739   6.613   2.105   9.814  0.4356  0.5792  0.4471
  799MOL0     C 7740   6.713   2.151   9.923  1.0947  0.4167 -0.2319
  799MOL0     C 7741   6.848   2.168   9.858  0.0794  0.0445 -0.7086
  799MOL0     C 7742   6.867   2.304   9.794 -0.9848  0.1863  0.9765
  799MOL0     C 7743   7.014   2.341   9.778 -0.2466  0.3394  0.2632
  799MOL0     C 7744   7.066   2.257   9.656  0.6950 -0.1512 -0.4816
  799MOL0     C 7745   7.211   2.271   9.628 -0.1462  0.2852 -0.1658
  799MOL0     C 7746   7.240   2.184   9.506  0.0738  0.0550 -0.2630
  799MOL0     N 7747   7.384   2.194   9.477 -0.1006  0.5711 -0.1949
  799MOL0     C 7748   7.421   2.294   9.398 -0.6163  0.4626 -0.1827
  799MOL0     C 7749   7.537   2.248   9.345  0.2633 -0.1234  0.2604
  799MOL0     C 7750   7.620   2.331   9.249  0.0325  0.1267  0.1531
  799MOL0     C 7751   7.666   2.462   9.313  0.3458 -0.3502 -0.7459
  799MOL0     C 7752   7.735   2.557   9.204 -1.0043  1.3712 -0.2026
  799MOL0     C 7753   7.765   2.699   9.273 -0.3763 -0.2932 -0.3089
  799MOL0     O 7754   7.841   2.674   9.400  0.3138 -0.0265  0.1885
  799MOL0     C 7755   7.973   2.655   9.394 -0.4233  0.3962  0.8955
  799MOL0     C 7756   8.033   2.634   9.520 -1.1378  0.4931  0.6747
  799MOL0     C 7757   8.168   2.618   9.534 -0.3618  0.6902  0.5092
  799MOL0     C 7758   8.257   2.639   9.424  0.1774  1.5876  0.0350
  799MOL0     C 7759   8.401   2.631   9.448 -0.0980 -0.0637  0.4450
  799MOL0     O 7760   8.479   2.630   9.340  0.4235  0.3990  0.4911
  799MOL0     C 7761   8.607   2.662   9.364  0.2375 -0.0640 -0.0355
  799MOL0     C 7762   8.704   2.562   9.349  0.1975 -1.0465 -0.4063
  799MOL0     C 7763   8.839   2.607   9.347  0.7147 -0.1589  0.4633
  799MOL0     C 7764   8.877   2.741   9.382 -0.1544  0.1398  0.6780
  799MOL0     O 7765   9.006   2.774   9.373 -0.3781 -0.7297 -0.3513
  799MOL0     C 7766   9.065   2.790   9.507  0.4902  0.6862  0.0169
  799MOL0     C 7767   9.205   2.857   9.495  1.0246 -0.2741 -0.3699
  799MOL0     C 7768   9.307   2.824   9.614 -0.0617  0.0819 -0.2222
  799MOL0     C 7769   9.437   2.879   9.575  0.3015  0.0875  0.2860
  799MOL0     C 7770   9.535   2.868   9.695  0.4213 -0.7351 -0.2480
  799MOL0     C 7771   9.674   2.925   9.664  0.7953 -0.4766  0.0089
  799MOL0     C 7772   9.765   2.880   9.771 -0.0146  0.3836  0.2673
  799MOL0     C 7773   9.896   2.948   9.756 -0.3535 -0.7055 -0.1542
  799MOL0    Cl 7774  10.004   2.904   9.893 -0.0226  0.1005  0.0174
  799MOL0     C 7775   8.780   2.836   9.418 -0.2008  0.6678 -0.3840
  799MOL0     C 7776   8.645   2.797   9.392 -0.0530  0.5982  0.1937
  799MOL0     O 7777   8.438   2.650   9.563  0.7644 -0.4246  0.1978
  799MOL0     C 7778   8.200   2.675   9.303 -0.8063 -0.2480  0.4878
  799MOL0     C 7779   8.056   2.678   9.283 -0.9793  0.1601  0.4633
  799MOL0     N 7780   7.569   2.130   9.403 -0.4718  0.0055 -0.3282
  799MOL0     N 7781   7.477   2.095   9.486  0.5622 -0.3320  0.1522
  799MOL0     C 7782   6.255   2.055   9.911 -0.3749 -0.3313  0.1915
  799MOL0     C 7783   6.127   2.092   9.887  0.3360  0.5582  0.6996
  799MOL0     C 7784   5.748   2.046   9.704 -0.5257  1.5090 -1.8523
  799MOL0     C 7785   5.703   2.103   9.823 -0.1388  0.3353  0.0871
  799MOL0     C 7786   5.562   2.102   9.838 -0.1555 -0.0408 -0.5125
  799MOL0     C 7787   5.474   2.060   9.742 -0.0280 -0.5948  1.4135
  799MOL0     O 7788   5.344   2.078   9.773 -0.0751 -0.1386  0.6484
  799MOL0     C 7789   5.278   1.954   9.808 -0.3519  0.3109  0.7810
  799MOL0     C 7790   5.129   1.983   9.836 -0.5058  0.1416 -0.0456
  799MOL0     C 7791   5.062   1.860   9.892  0.5266  0.2336 -0.5276
  799MOL0     C 7792   4.905   1.883   9.911  0.7200 -0.1445  0.3221
  799MOL0     C 7793   4.843   1.752   9.955 -0.5770  0.4717  0.5535
  799MOL0     C 7794   4.786   1.658   9.986  0.9474  0.8198 -0.5776
  799MOL0     C 7795   5.526   2.004   9.625  0.1138  0.3835 -1.1162
  799MOL0     C 7796   5.667   1.995   9.606 -0.4101  0.2579  0.1362
  799MOL0     C 7797   5.713   1.910   9.491  0.2196 -0.1636 -0.3412
  799MOL0     H 7798   6.179   2.260   9.593  0.1597 -1.5977 -0.2709
  799MOL0     H 7799   6.396   2.223   9.654 -0.2038 -0.6245 -0.7599
  799MOL0     H 7800   6.656   2.013   9.774 -1.3775 -0.3928  0.6162
  799MOL0     H 7801   6.603   2.185   9.739 -2.0766  2.2511  2.3897
  799MOL0     H 7802   6.722   2.081  10.007  0.0729  3.0930  2.2622
  799MOL0     H 7803   6.680   2.245   9.966 -2.0671 -1.3085  1.4067
  799MOL0     H 7804   6.861   2.081   9.792 -0.9629  1.8340 -3.4554
  799MOL0     H 7805   6.923   2.171   9.937 -0.9559  0.6089  0.2716
  799MOL0     H 7806   6.809   2.310   9.702  0.2854  1.0291  0.2049
  799MOL0     H 7807   6.822   2.383   9.855  1.2426  4.0314 -1.8976
  799MOL0     H 7808   7.038   2.446   9.761 -4.3553  1.1538 -1.5096
  799MOL0     H 7809   7.068   2.316   9.871  2.7473  2.7030 -0.6640
  799MOL0     H 7810   7.043   2.150   9.665 -0.2588 -0.1409 -2.1661
  799MOL0     H 7811   6.998   2.292   9.578 -0.6628  3.2682  2.0007
  799MOL0     H 7812   7.269   2.229   9.710 -3.2560 -2.1891  0.9991
  799MOL0     H 7813   7.236   2.376   9.607  0.1388  0.7540  2.2603
  799MOL0     H 7814   7.227   2.076   9.520  3.5863 -0.3862  0.5835
  799MOL0     H 7815   7.183   2.228   9.424  0.3913  1.4908  0.2665
  799MOL0     H 7816   7.379   2.394   9.387  3.1260  2.2137 -0.4699
  799MOL0     H 7817   7.710   2.282   9.210 -0.2358  2.3841 -3.9101
  799MOL0     H 7818   7.555   2.336   9.161 -2.2315 -1.3950  1.6418
  799MOL0     H 7819   7.586   2.514   9.366  1.0695 -0.4582  0.4896
  799MOL0     H 7820   7.733   2.436   9.396  2.1698  1.5475 -1.5285
  799MOL0     H 7821   7.667   2.578   9.121 -0.5053  0.7167 -0.7874
  799MOL0     H 7822   7.829   2.514   9.169 -0.6243  2.6999 -0.8965
  799MOL0     H 7823   7.676   2.759   9.295  1.5822  2.0480  1.7497
  799MOL0     H 7824   7.821   2.760   9.201  2.5126 -0.1884  1.8561
  799MOL0     H 7825   7.961   2.602   9.594 -0.1901  0.0514  1.4317
  799MOL0     H 7826   8.196   2.583   9.633 -0.8095  0.4642  0.5578
  799MOL0     H 7827   8.676   2.458   9.338 -0.4619 -1.2959  2.5962
  799MOL0     H 7828   8.910   2.533   9.310  0.0411  0.2387 -1.7738
  799MOL0     H 7829   8.993   2.848   9.565  0.3887  0.4094  0.1657
  799MOL0     H 7830   9.067   2.695   9.561 -0.7998  2.3629  3.2949
  799MOL0     H 7831   9.248   2.846   9.395  0.7266 -0.3434 -0.4931
  799MOL0     H 7832   9.183   2.964   9.489 -2.1900 -0.8603 -0.9858
  799MOL0     H 7833   9.282   2.859   9.715  1.3139 -0.4427  0.3196
  799MOL0     H 7834   9.307   2.715   9.624 -0.4521  0.0517 -0.5359
  799MOL0     H 7835   9.428   2.984   9.546  2.1629  0.1683 -0.1473
  799MOL0     H 7836   9.474   2.821   9.490 -2.4799 -2.3955  0.6168
  799MOL0     H 7837   9.551   2.762   9.717 -3.8294 -1.8837 -1.7500
  799MOL0     H 7838   9.496   2.924   9.780 -2.5478  0.1770 -2.0464
  799MOL0     H 7839   9.703   2.888   9.566 -1.9454  0.1928 -1.1460
  799MOL0     H 7840   9.667   3.033   9.657  1.3398 -0.5234 -1.5063
  799MOL0     H 7841   9.774   2.771   9.772 -3.1857  0.0322  0.1021
  799MOL0     H 7842   9.736   2.901   9.875  0.8850 -1.8331  1.0258
  799MOL0     H 7843   9.952   2.914   9.669  2.6062 -1.1980  1.7647
  799MOL0     H 7844   9.887   3.057   9.760  0.9552 -0.5886  0.4364
  799MOL0     H 7845   8.816   2.933   9.452  3.0376 -0.1276 -1.1570
  799MOL0     H 7846   8.570   2.875   9.403 -0.1739  0.4019  0.8227
  799MOL0     H 7847   8.261   2.698   9.215 -0.5753 -1.2876  0.3630
  799MOL0     H 7848   8.017   2.715   9.188 -3.6877  0.2501  1.5347
  799MOL0     H 7849   6.269   2.018  10.012  0.0734  4.1300  2.0071
  799MOL0     H 7850   6.050   2.052   9.952  0.5280 -1.5596 -0.2922
  799MOL0     H 7851   5.769   2.154   9.892  2.3898 -0.6216 -1.5077
  799MOL0     H 7852   5.508   2.136   9.926 -1.0659 -1.2697 -0.5672
  799MOL0     H 7853   5.327   1.910   9.895 -1.3291  0.6852  1.5421
  799MOL0     H 7854   5.295   1.883   9.727 -0.1752  0.1089  0.9932
  799MOL0     H 7855   5.083   2.020   9.744 -0.1895  3.2784  0.9228
  799MOL0     H 7856   5.127   2.060   9.914 -2.3042  0.5664 -0.4492
  799MOL0     H 7857   5.101   1.837   9.992 -0.1845  0.1556 -0.2562
  799MOL0     H 7858   5.094   1.774   9.833  3.8695 -1.3193  3.0848
  799MOL0     H 7859   4.894   1.964   9.984  0.7235 -1.1095  1.4301
  799MOL0     H 7860   4.843   1.898   9.822  0.2035 -0.2353  0.6660
  799MOL0     H 7861   4.714   1.580  10.003 -0.4831  1.8880 -1.4722
  799MOL0     H 7862   5.455   1.962   9.554 -0.5592 -2.2429  0.9470
  799MOL0     H 7863   5.773   1.828   9.532 -0.7366  0.2674  2.1053
  799MOL0     H 7864   5.630   1.859   9.443 -1.4325  0.3778  1.7771
  799MOL0     H 7865   5.776   1.968   9.423  0.0485 -0.0532 -0.4067
  800MOL0     O 7866   6.517   2.473   7.369 -0.0937 -0.6067  0.5110
  800MOL0     C 7867   6.489   2.492   7.486 -0.2603  0.1945  0.4091
  800MOL0     O 7868   6.577   2.544   7.573  0.1684  0.5698  0.3463
  800MOL0     C 7869   6.684   2.616   7.526 -0.3319 -0.3586  0.3613
  800MOL0     C 7870   6.684   2.755   7.495  0.3211  0.1294 -0.1170
  800MOL0     C 7871   6.794   2.818   7.456 -0.1065 -0.4772 -0.2363
  800MOL0     C 7872   6.915   2.745   7.430  0.6111  0.3744  0.1733
  800MOL0     O 7873   7.020   2.826   7.388 -0.1980  0.2016  0.5790
  800MOL0     C 7874   7.153   2.770   7.362  0.0747 -0.2232 -0.5057
  800MOL0     C 7875   7.236   2.875   7.303 -0.5366 -0.1011 -0.1381
  800MOL0     C 7876   7.182   2.917   7.173  0.2644  0.0152 -0.6859
  800MOL0     C 7877   7.271   3.033   7.112  0.0278  0.7758  0.1788
  800MOL0     C 7878   7.271   3.035   6.965  0.0093  0.8705  0.1754
  800MOL0     C 7879   7.343   3.158   6.907  0.1968  0.0981 -0.2639
  800MOL0     C 7880   7.264   3.214   6.787  0.3125  0.3600  0.3847
  800MOL0     C 7881   7.333   3.326   6.719 -0.2873  0.5173 -0.8050
  800MOL0     N 7882   7.269   3.360   6.596 -0.1818  0.1393 -0.0191
  800MOL0     C 7883   7.336   3.367   6.482  0.0783  0.5372 -0.2052
  800MOL0     C 7884   7.228   3.412   6.396 -0.4445 -0.3753  0.3982
  800MOL0     C 7885   7.264   3.483   6.258  0.1370  0.9526  0.2331
  800MOL0     C 7886   7.191   3.618   6.230  0.0524 -0.1069  0.3394
  800MOL0     C 7887   7.196   3.664   6.090  0.2067 -0.5659 -0.1477
  800MOL0     C 7888   7.343   3.667   6.047 -0.1437 -0.1405  0.2366
  800MOL0     O 7889   7.363   3.746   5.923 -0.0135  0.1090 -0.3626
  800MOL0     C 7890   7.491   3.765   5.878  0.1399  0.2099 -0.3988
  800MOL0     C 7891   7.494   3.852   5.764  0.1780  0.4563  0.0499
  800MOL0     C 7892   7.605   3.874   5.686  0.2008 -0.1533  0.0699
  800MOL0     C 7893   7.716   3.791   5.721 -0.0978  0.6655  0.2703
  800MOL0     C 7894   7.841   3.803   5.640  0.2873  0.6816 -0.1336
  800MOL0     O 7895   7.839   3.890   5.530  0.4870  0.4288 -0.2800
  800MOL0     C 7896   7.947   3.882   5.449 -0.2017 -0.1670  0.5819
  800MOL0     C 7897   7.942   3.799   5.337  0.2636 -1.0751 -0.5686
  800MOL0     C 7898   8.049   3.801   5.241 -0.3492 -0.5925 -0.9213
  800MOL0     C 7899   8.154   3.896   5.249 -0.9362  0.0692 -0.2169
  800MOL0     O 7900   8.253   3.892   5.158  0.2842 -0.3686 -0.1320
  800MOL0     C 7901   8.361   3.977   5.191 -0.2153 -0.0311  0.7872
  800MOL0     C 7902   8.457   3.959   5.070  0.2816  0.4295 -0.1838
  800MOL0     C 7903   8.543   3.834   5.087  0.5718 -0.4071  0.5925
  800MOL0     C 7904   8.647   3.838   4.978 -0.4414  0.5957 -0.0722
  800MOL0     C 7905   8.745   3.723   4.994 -0.8467  0.3011  0.2122
  800MOL0     C 7906   8.864   3.705   4.887  0.1766  0.7252 -0.4464
  800MOL0     C 7907   8.802   3.697   4.749 -0.1812 -0.4246 -0.1215
  800MOL0     C 7908   8.898   3.666   4.633  0.5193  0.0989 -0.5545
  800MOL0    Cl 7909   9.003   3.529   4.663  0.0260  0.1432  0.1504
  800MOL0     C 7910   8.145   3.989   5.357  0.8068 -0.4332 -0.0084
  800MOL0     C 7911   8.039   3.983   5.457  0.0365  0.3343  0.6608
  800MOL0     O 7912   7.938   3.738   5.674 -0.4776 -0.1968  0.3022
  800MOL0     C 7913   7.716   3.717   5.842 -0.5932  0.4168 -0.4101
  800MOL0     C 7914   7.601   3.699   5.918 -0.1200 -0.5754  0.0035
  800MOL0     N 7915   7.112   3.431   6.464  0.2170  0.5899 -0.6436
  800MOL0     N 7916   7.142   3.392   6.584  0.3101 -0.4318 -0.1142
  800MOL0     C 7917   6.920   2.609   7.467 -0.5182  0.1586  0.8518
  800MOL0     C 7918   6.806   2.547   7.515 -0.1830 -0.5878 -0.7621
  800MOL0     C 7919   6.368   2.435   7.548  0.0031  0.8047  0.3515
  800MOL0     C 7920   6.333   2.447   7.687  0.2385  0.8250 -0.3085
  800MOL0     C 7921   6.223   2.391   7.731  0.2030 -0.0319 -0.2692
  800MOL0     C 7922   6.119   2.333   7.653 -0.0483 -0.0452  0.2031
  800MOL0     O 7923   5.999   2.277   7.694 -0.2932 -0.1685 -0.3649
  800MOL0     C 7924   5.955   2.330   7.827  0.2253  0.7175 -0.1818
  800MOL0     C 7925   5.900   2.465   7.808  0.6827 -0.0388 -0.4057
  800MOL0     C 7926   5.771   2.457   7.715  0.3135  0.6008 -0.2623
  800MOL0     C 7927   5.741   2.589   7.639 -0.7540 -0.2613 -0.7678
  800MOL0     C 7928   5.605   2.611   7.619  0.3247 -0.3750  0.2221
  800MOL0     C 7929   5.485   2.618   7.596 -0.5970  0.4501 -0.4472
  800MOL0     C 7930   6.149   2.323   7.524  0.3545 -0.5043  0.8943
  800MOL0     C 7931   6.274   2.370   7.466  0.1294  0.6202 -1.0116
  800MOL0     C 7932   6.291   2.350   7.316 -0.1056 -0.1360  0.1270
  800MOL0     H 7933   6.592   2.811   7.505  0.5159  0.6411 -1.0629
  800MOL0     H 7934   6.800   2.927   7.450 -1.3430 -0.2056  2.2601
  800MOL0     H 7935   7.195   2.736   7.457 -0.5605  2.0860  0.6772
  800MOL0     H 7936   7.144   2.691   7.286 -1.3568  1.4366 -2.1479
  800MOL0     H 7937   7.338   2.837   7.297  0.1869  1.4317  1.5348
  800MOL0     H 7938   7.234   2.958   7.374  0.3263  1.5917 -1.9847
  800MOL0     H 7939   7.081   2.957   7.164  1.7671  4.0068 -1.7074
  800MOL0     H 7940   7.191   2.828   7.110 -1.5613 -0.8317  0.1538
  800MOL0     H 7941   7.220   3.125   7.144 -1.4514  1.2038 -2.9689
  800MOL0     H 7942   7.377   3.024   7.136  0.0177  0.7707  0.2218
  800MOL0     H 7943   7.320   2.945   6.927  2.3292  2.3958 -0.6684
  800MOL0     H 7944   7.168   3.044   6.929  0.9199  0.0301 -2.9956
  800MOL0     H 7945   7.361   3.239   6.979  3.5999 -1.8058  1.2878
  800MOL0     H 7946   7.447   3.134   6.883  1.2293  0.5480  3.1949
  800MOL0     H 7947   7.172   3.254   6.829 -1.2775 -2.2079 -0.4181
  800MOL0     H 7948   7.220   3.138   6.722 -1.7906  0.3510  1.7352
  800MOL0     H 7949   7.351   3.414   6.782 -0.0417  1.3724 -2.0369
  800MOL0     H 7950   7.431   3.298   6.681 -0.0117 -1.0975  0.9421
  800MOL0     H 7951   7.440   3.352   6.453  1.0057  0.5667  2.7831
  800MOL0     H 7952   7.368   3.515   6.253  0.5435 -0.2472  0.5481
  800MOL0     H 7953   7.255   3.417   6.171 -0.4376  2.7066 -1.0832
  800MOL0     H 7954   7.085   3.608   6.255  0.4526 -1.3534  1.6799
  800MOL0     H 7955   7.218   3.693   6.304 -1.3137 -0.2819  1.0375
  800MOL0     H 7956   7.151   3.764   6.088  1.2014 -0.1022 -1.3470
  800MOL0     H 7957   7.137   3.606   6.019  2.5407 -1.2435 -1.6729
  800MOL0     H 7958   7.377   3.564   6.039 -0.8190 -0.6041  2.6348
  800MOL0     H 7959   7.402   3.715   6.126  0.0030 -2.2966  1.4881
  800MOL0     H 7960   7.402   3.909   5.761 -0.8095 -0.7352  3.1926
  800MOL0     H 7961   7.584   3.941   5.604  0.8891  0.4230  0.3499
  800MOL0     H 7962   7.860   3.731   5.316 -0.2818 -0.6024 -0.0028
  800MOL0     H 7963   8.059   3.729   5.161 -0.7607 -2.8921  1.0030
  800MOL0     H 7964   8.321   4.078   5.200  2.9286  1.3637  0.4088
  800MOL0     H 7965   8.406   3.939   5.283  0.4489  0.1408  0.5409
  800MOL0     H 7966   8.407   3.962   4.972  1.3334 -0.8711 -0.8004
  800MOL0     H 7967   8.526   4.043   5.073 -0.5576  1.1107  0.4211
  800MOL0     H 7968   8.607   3.839   5.176 -1.1882  0.4961  1.8769
  800MOL0     H 7969   8.481   3.744   5.082  0.0781  0.0077 -2.2357
  800MOL0     H 7970   8.701   3.933   4.983  3.3358 -1.4394  2.9730
  800MOL0     H 7971   8.600   3.841   4.879  0.3361  1.7398 -0.4276
  800MOL0     H 7972   8.691   3.627   4.991 -0.9523  0.3793 -1.7312
  800MOL0     H 7973   8.799   3.719   5.089  3.1410  0.5404 -1.8524
  800MOL0     H 7974   8.930   3.792   4.884 -1.0032  1.6921  0.4380
  800MOL0     H 7975   8.923   3.620   4.922 -2.2718 -0.6700  0.5936
  800MOL0     H 7976   8.750   3.792   4.737  1.4500  0.3249 -1.6640
  800MOL0     H 7977   8.727   3.620   4.766 -0.2720 -0.4843 -0.7861
  800MOL0     H 7978   8.838   3.643   4.545 -0.7100 -3.1777  0.9950
  800MOL0     H 7979   8.956   3.758   4.619  2.4691 -0.9299  0.2968
  800MOL0     H 7980   8.221   4.064   5.377 -0.4899  0.9315 -0.0157
  800MOL0     H 7981   8.027   4.057   5.535 -0.7785 -0.0057  0.8661
  800MOL0     H 7982   7.804   3.656   5.858 -1.1520 -0.7088 -1.4659
  800MOL0     H 7983   7.591   3.615   5.985 -0.5667 -0.7221 -0.2436
  800MOL0     H 7984   7.015   2.556   7.466 -0.1779  0.7619  0.4558
  800MOL0     H 7985   6.806   2.440   7.530 -1.9929 -0.6323 -0.9220
  800MOL0     H 7986   6.398   2.511   7.746  1.5231 -1.1940  0.5530
  800MOL0     H 7987   6.208   2.384   7.839  2.2679  2.0349  0.2223
  800MOL0     H 7988   6.023   2.318   7.912  0.3557 -1.5184 -0.5312
  800MOL0     H 7989   5.872   2.267   7.860  0.8596 -0.5831 -1.0107
  800MOL0     H 7990   5.971   2.533   7.761 -1.1160  0.9133 -1.8944
  800MOL0     H 7991   5.864   2.490   7.908  2.1005 -1.9968  0.6847
  800MOL0     H 7992   5.691   2.434   7.787 -0.7185  1.3566 -1.1405
  800MOL0     H 7993   5.775   2.368   7.652  0.7626  0.0369  0.5450
  800MOL0     H 7994   5.787   2.674   7.690  0.9967 -0.9622 -1.1090
  800MOL0     H 7995   5.788   2.581   7.541 -0.1208  2.6138 -0.7815
  800MOL0     H 7996   5.379   2.632   7.595 -1.0439 -2.3560 -1.0374
  800MOL0     H 7997   6.073   2.278   7.460  0.2468 -0.7193  1.1738
  800MOL0     H 7998   6.319   2.441   7.261  1.6598  0.5334  1.9794
  800MOL0     H 7999   6.352   2.261   7.299  0.8968  0.4023  0.7525
  800MOL0     H 8000   6.196   2.341   7.264 -0.0512 -0.7540  0.1313
  801MOL0     O 8001   1.553   9.188   2.421 -0.4857  0.3915  0.0731
  801MOL0     C 8002   1.548   9.168   2.544 -0.2269 -0.7463  0.4813
  801MOL0     O 8003   1.640   9.202   2.640  0.1031 -0.1230 -0.5767
  801MOL0     C 8004   1.756   9.255   2.620 -0.2269  0.1473 -0.2778
  801MOL0     C 8005   1.797   9.342   2.713 -0.2650 -0.1304  0.5632
  801MOL0     C 8006   1.913   9.415   2.691 -0.4905 -0.0089 -0.4207
  801MOL0     C 8007   1.998   9.386   2.584 -0.3379  0.0180 -0.4414
  801MOL0     O 8008   2.120   9.450   2.577 -0.3213  0.3474  0.0344
  801MOL0     C 8009   2.238   9.390   2.520  0.4923  0.0492  0.5594
  801MOL0     C 8010   2.317   9.296   2.613 -0.5591 -0.1084 -0.3903
  801MOL0     C 8011   2.439   9.235   2.537  0.3885  0.6246 -0.0566
  801MOL0     C 8012   2.515   9.133   2.618 -0.2175 -0.1569  0.0560
  801MOL0     C 8013   2.654   9.097   2.571  0.4031  0.0442  0.5598
  801MOL0     C 8014   2.737   9.006   2.649 -0.3815  0.0083  0.0454
  801MOL0     C 8015   2.851   8.946   2.563 -1.1696  0.3306  0.1981
  801MOL0     C 8016   2.952   9.049   2.524 -0.5277  0.2178  0.3761
  801MOL0     N 8017   3.056   8.981   2.434 -0.2590 -0.3547  0.2365
  801MOL0     C 8018   3.198   8.951   2.460  0.4491  0.3924  0.2795
  801MOL0     C 8019   3.245   8.900   2.344  0.2234  0.5969  0.0639
  801MOL0     C 8020   3.387   8.854   2.322 -0.6016  0.4829 -0.6306
  801MOL0     C 8021   3.420   8.752   2.433 -0.2343  0.4883  0.2914
  801MOL0     C 8022   3.540   8.787   2.532  0.5649  0.3330  0.3876
  801MOL0     C 8023   3.675   8.792   2.461 -0.1541  0.0214  0.6009
  801MOL0     O 8024   3.711   8.664   2.401 -0.4006 -0.4615 -1.0783
  801MOL0     C 8025   3.837   8.639   2.345 -0.1650 -0.0385  0.1614
  801MOL0     C 8026   3.869   8.513   2.309 -0.4963 -0.2558  0.2245
  801MOL0     C 8027   4.000   8.486   2.274  0.3058 -0.5005 -0.0065
  801MOL0     C 8028   4.097   8.589   2.263  0.4572  0.0703 -0.2168
  801MOL0     C 8029   4.235   8.556   2.215 -0.2402  0.6198  0.4059
  801MOL0     O 8030   4.315   8.670   2.205 -0.3693  0.4752 -0.0085
  801MOL0     C 8031   4.428   8.678   2.134 -0.3122 -0.6146  0.8185
  801MOL0     C 8032   4.463   8.590   2.031 -0.1264  0.8836 -0.5154
  801MOL0     C 8033   4.562   8.610   1.937 -0.5904 -0.7041 -0.2125
  801MOL0     C 8034   4.645   8.726   1.954 -0.0938  0.0387 -0.4294
  801MOL0     O 8035   4.740   8.761   1.865 -0.0190 -0.2140  0.3646
  801MOL0     C 8036   4.791   8.655   1.782 -0.5497 -0.0161 -0.8789
  801MOL0     C 8037   4.933   8.699   1.737  0.8289  0.1583 -0.3785
  801MOL0     C 8038   4.918   8.800   1.635 -0.5752  0.4558 -0.0261
  801MOL0     C 8039   5.041   8.816   1.553 -0.7039 -0.8816  0.2249
  801MOL0     C 8040   5.181   8.827   1.615 -0.0665  0.8590  0.3646
  801MOL0     C 8041   5.187   8.960   1.695  0.6408 -0.6989 -0.2150
  801MOL0     C 8042   5.143   9.077   1.612 -1.0439  0.0365 -0.0073
  801MOL0     C 8043   5.203   9.207   1.666  0.1282 -0.1079 -0.5774
  801MOL0    Cl 8044   5.378   9.241   1.630  0.1919 -0.1393 -0.2667
  801MOL0     C 8045   4.608   8.816   2.057  0.0561 -0.3837  0.0171
  801MOL0     C 8046   4.504   8.794   2.142 -0.2630 -1.3572 -0.6502
  801MOL0     O 8047   4.271   8.441   2.189 -0.6026 -0.1876 -0.1835
  801MOL0     C 8048   4.058   8.715   2.305 -0.4528  0.4765  0.4810
  801MOL0     C 8049   3.931   8.738   2.346 -0.7999 -0.3542 -0.1319
  801MOL0     N 8050   3.142   8.907   2.248 -0.8514 -0.5016  0.8676
  801MOL0     N 8051   3.033   8.948   2.302 -0.3063  0.8406  0.0086
  801MOL0     C 8052   1.957   9.294   2.491  0.7348 -0.2324  0.4491
  801MOL0     C 8053   1.828   9.227   2.515 -0.1714 -0.2469  0.7400
  801MOL0     C 8054   1.421   9.105   2.597 -0.5102  0.8559 -0.6725
  801MOL0     C 8055   1.322   9.049   2.506  0.3999  0.5824  0.2505
  801MOL0     C 8056   1.207   8.972   2.547  0.7056 -0.3547  0.8370
  801MOL0     C 8057   1.186   8.944   2.674  0.6741  0.5898 -0.2281
  801MOL0     O 8058   1.075   8.886   2.727 -0.5370  0.3042  0.0563
  801MOL0     C 8059   0.985   8.825   2.639 -0.5617  1.2055 -0.3103
  801MOL0     C 8060   0.854   8.763   2.697  0.7201 -0.8209 -0.1050
  801MOL0     C 8061   0.802   8.659   2.594  0.2470 -0.1710 -0.7529
  801MOL0     C 8062   0.653   8.624   2.600 -0.2757 -0.0236 -0.3148
  801MOL0     C 8063   0.564   8.735   2.573 -0.2973  0.0653 -0.0932
  801MOL0     C 8064   0.494   8.835   2.550 -0.4064 -0.4642  0.2862
  801MOL0     C 8065   1.279   8.992   2.768  0.7771 -0.4806  0.7348
  801MOL0     C 8066   1.396   9.075   2.740 -0.1791  0.4070 -0.6253
  801MOL0     C 8067   1.491   9.103   2.861  0.5371 -0.1808 -0.5901
  801MOL0     H 8068   1.740   9.371   2.801  3.8612  2.0218  2.7946
  801MOL0     H 8069   1.938   9.497   2.758 -1.7162 -0.9764  1.2896
  801MOL0     H 8070   2.213   9.351   2.420 -0.0454  2.6648 -0.3988
  801MOL0     H 8071   2.308   9.473   2.503 -0.2654  1.0793  2.2533
  801MOL0     H 8072   2.249   9.220   2.653  0.3885 -1.1627 -0.7337
  801MOL0     H 8073   2.361   9.347   2.699  0.0378 -2.3451  0.7119
  801MOL0     H 8074   2.510   9.311   2.504  0.1597  0.4329 -1.0276
  801MOL0     H 8075   2.405   9.210   2.435  0.3696  0.4345 -0.0046
  801MOL0     H 8076   2.533   9.192   2.709 -0.3187 -0.9700  0.6166
  801MOL0     H 8077   2.458   9.043   2.644  0.9079 -1.0250 -0.3979
  801MOL0     H 8078   2.645   9.068   2.466 -0.9605  1.9319  0.1006
  801MOL0     H 8079   2.702   9.195   2.558  3.5893 -1.4088  0.4957
  801MOL0     H 8080   2.772   9.060   2.738 -3.8488 -0.8222  2.0831
  801MOL0     H 8081   2.676   8.924   2.687  0.7803 -2.6613 -3.2984
  801MOL0     H 8082   2.805   8.892   2.481 -2.3284 -0.9486  1.6244
  801MOL0     H 8083   2.906   8.872   2.623  0.5662  1.6837  0.3698
  801MOL0     H 8084   2.899   9.108   2.449  0.1060 -0.6210 -0.7572
  801MOL0     H 8085   2.994   9.107   2.607  0.6859 -1.0296  0.6893
  801MOL0     H 8086   3.261   8.969   2.547  0.4144  1.7606  0.0412
  801MOL0     H 8087   3.391   8.805   2.224 -2.5564 -0.0993 -0.4504
  801MOL0     H 8088   3.455   8.939   2.332  0.5378 -0.5996  1.5975
  801MOL0     H 8089   3.337   8.743   2.504  0.5091 -0.4766  1.0655
  801MOL0     H 8090   3.428   8.655   2.384 -0.8010  1.0422 -0.9524
  801MOL0     H 8091   3.558   8.712   2.609 -1.9848  0.6538  1.3866
  801MOL0     H 8092   3.502   8.873   2.588 -1.0382 -0.9052  1.2823
  801MOL0     H 8093   3.755   8.816   2.532  1.1031 -1.4238 -0.2493
  801MOL0     H 8094   3.665   8.848   2.367 -0.9950 -2.6362 -1.0133
  801MOL0     H 8095   3.798   8.431   2.321 -2.8875  1.5312 -0.8987
  801MOL0     H 8096   4.028   8.382   2.259  0.7430 -0.4186  0.2361
  801MOL0     H 8097   4.407   8.497   2.020  0.6988  0.0663  1.5614
  801MOL0     H 8098   4.585   8.537   1.860 -0.2065 -2.3523  1.3940
  801MOL0     H 8099   4.815   8.564   1.838  0.8232  1.0705  0.3770
  801MOL0     H 8100   4.732   8.630   1.694  1.3265 -0.2365 -2.1360
  801MOL0     H 8101   4.987   8.740   1.823 -1.9701  0.0536  1.5651
  801MOL0     H 8102   4.973   8.608   1.692 -2.4814 -3.0001  2.3846
  801MOL0     H 8103   4.845   8.761   1.564 -1.0828  0.3859  0.5313
  801MOL0     H 8104   4.876   8.896   1.669  0.8326  1.4170 -0.8680
  801MOL0     H 8105   5.021   8.893   1.478 -0.9553 -0.4299  0.7457
  801MOL0     H 8106   5.040   8.724   1.495  0.4791  0.0246 -1.3281
  801MOL0     H 8107   5.262   8.825   1.541  1.1913 -2.0183  1.6636
  801MOL0     H 8108   5.196   8.744   1.684 -0.1990  0.4837 -0.0552
  801MOL0     H 8109   5.119   8.945   1.779  0.6017 -2.2044 -0.4958
  801MOL0     H 8110   5.285   8.980   1.741 -0.5405  2.8572  1.0565
  801MOL0     H 8111   5.035   9.087   1.607 -0.9415  0.5699 -1.7482
  801MOL0     H 8112   5.185   9.063   1.512  0.6932  0.2775  0.6492
  801MOL0     H 8113   5.151   9.294   1.626 -1.9870 -0.0194  2.1062
  801MOL0     H 8114   5.186   9.214   1.774 -0.4009  2.1105 -0.7531
  801MOL0     H 8115   4.658   8.912   2.069 -0.8713  0.1125 -0.0166
  801MOL0     H 8116   4.487   8.860   2.227 -1.0108 -1.8596 -0.4014
  801MOL0     H 8117   4.130   8.796   2.295 -1.2005  0.9739 -1.1752
  801MOL0     H 8118   3.903   8.839   2.372 -4.8803 -1.3413  0.1333
  801MOL0     H 8119   2.016   9.262   2.405 -1.1180 -3.9128  0.3554
  801MOL0     H 8120   1.783   9.163   2.439  3.4382  0.9005 -2.7151
  801MOL0     H 8121   1.324   9.080   2.402  2.4255  0.9918  0.3566
  801MOL0     H 8122   1.128   8.939   2.480 -0.6612 -1.5025  2.8731
  801MOL0     H 8123   1.031   8.744   2.582 -0.3119  0.6141  0.7188
  801MOL0     H 8124   0.952   8.897   2.564 -0.4824  1.6619  0.0865
  801MOL0     H 8125   0.775   8.835   2.718 -0.7544 -2.3927 -0.0277
  801MOL0     H 8126   0.876   8.710   2.790  0.3588  0.8958  0.9901
  801MOL0     H 8127   0.861   8.567   2.596  0.7471  0.1401 -0.8748
  801MOL0     H 8128   0.821   8.694   2.492 -1.9135 -4.6693 -2.9712
  801MOL0     H 8129   0.633   8.541   2.532 -0.2553 -1.3158  1.1934
  801MOL0     H 8130   0.640   8.578   2.699  1.7257  0.9487  0.4640
  801MOL0     H 8131   0.427   8.914   2.526  3.2107  1.8260 -3.6404
  801MOL0     H 8132   1.257   8.962   2.869  3.2019 -0.3693  1.3648
  801MOL0     H 8133   1.495   9.213   2.866  3.1661 -0.0900 -2.6773
  801MOL0     H 8134   1.445   9.057   2.949 -0.6985  3.2123  0.7282
  801MOL0     H 8135   1.589   9.059   2.845 -0.4325 -3.0812  0.7407
  802MOL0     O 8136   5.754   8.222  10.547  0.1835  0.5432 -0.4298
  802MOL0     C 8137   5.659   8.239  10.469 -0.8681  0.0881 -0.3676
  802MOL0     O 8138   5.667   8.315  10.351  0.3803  0.2247 -0.4378
  802MOL0     C 8139   5.791   8.368  10.325 -0.0110  0.5124  0.3031
  802MOL0     C 8140   5.877   8.306  10.230  0.3011  0.1379  0.0281
  802MOL0     C 8141   6.002   8.361  10.201  0.2287  0.4848 -0.2656
  802MOL0     C 8142   6.042   8.480  10.264  0.7398  0.0859  0.1462
  802MOL0     O 8143   6.155   8.555  10.250 -0.0675 -0.7434  0.4544
  802MOL0     C 8144   6.272   8.483  10.198  0.0788  0.2565  0.2064
  802MOL0     C 8145   6.390   8.539  10.285 -0.4871 -0.2877 -0.7418
  802MOL0     C 8146   6.527   8.477  10.266  0.4043 -0.5384  0.4412
  802MOL0     C 8147   6.586   8.513  10.137 -0.3384  0.2901  0.0732
  802MOL0     C 8148   6.719   8.433  10.116  0.3264 -0.1010  0.6349
  802MOL0     C 8149   6.793   8.463   9.982  0.8088 -0.5398  0.3903
  802MOL0     C 8150   6.907   8.367   9.963  0.2933  0.0136 -0.0416
  802MOL0     C 8151   7.022   8.404  10.052  0.9161 -0.5656 -0.0882
  802MOL0     N 8152   7.135   8.319  10.013  0.2355  0.2277 -0.5291
  802MOL0     C 8153   7.213   8.337   9.901  0.3918  0.4182 -0.6846
  802MOL0     C 8154   7.276   8.225   9.879  0.4732  1.1293 -1.0576
  802MOL0     C 8155   7.376   8.183   9.771 -0.2098  0.0283  0.6117
  802MOL0     C 8156   7.481   8.091   9.828 -0.2439  0.2979  0.0542
  802MOL0     C 8157   7.571   8.034   9.724 -1.1787 -0.0330  0.1197
  802MOL0     C 8158   7.678   7.954   9.801  1.3207 -0.1372  0.7951
  802MOL0     O 8159   7.757   7.874   9.722 -0.3088 -0.0512  1.0433
  802MOL0     C 8160   7.859   7.925   9.643 -0.2836  0.4035  0.5386
  802MOL0     C 8161   7.916   7.841   9.545 -0.0293 -0.3022 -0.4082
  802MOL0     C 8162   8.032   7.882   9.474 -0.3572  0.3011  0.0376
  802MOL0     C 8163   8.102   8.000   9.509  0.1075  0.4381  0.3685
  802MOL0     C 8164   8.210   8.037   9.418 -1.4331 -0.5164 -0.4472
  802MOL0     O 8165   8.294   8.140   9.459  0.0401 -0.1845 -0.4901
  802MOL0     C 8166   8.390   8.186   9.370 -0.5225  0.1976 -0.4555
  802MOL0     C 8167   8.368   8.310   9.313  0.1628  0.2523 -0.3888
  802MOL0     C 8168   8.462   8.363   9.224  0.2163 -1.2681 -0.2774
  802MOL0     C 8169   8.582   8.302   9.209 -0.1834 -0.5562 -0.2996
  802MOL0     O 8170   8.680   8.362   9.130 -0.1236  0.3882 -0.3610
  802MOL0     C 8171   8.644   8.432   9.012  0.4195 -0.4533  0.4887
  802MOL0     C 8172   8.755   8.440   8.922 -0.4858  0.1746  0.2642
  802MOL0     C 8173   8.803   8.316   8.861 -0.1618 -0.1415  0.5571
  802MOL0     C 8174   8.886   8.226   8.954 -0.4404  0.7213 -0.1381
  802MOL0     C 8175   8.958   8.113   8.879 -0.7179 -0.3181 -0.1564
  802MOL0     C 8176   9.014   8.004   8.976 -0.2807 -0.0007 -0.8139
  802MOL0     C 8177   9.079   7.880   8.910 -0.3361 -0.2581  0.9332
  802MOL0     C 8178   9.200   7.838   8.978 -0.5527 -0.3179 -0.2631
  802MOL0    Cl 8179   9.286   7.698   8.893 -0.0570  0.0727 -0.6258
  802MOL0     C 8180   8.606   8.175   9.260  0.2024  0.2237 -0.4803
  802MOL0     C 8181   8.508   8.111   9.338  0.4870 -0.1978 -0.2738
  802MOL0     O 8182   8.228   7.983   9.310 -0.0954  1.0624 -0.3224
  802MOL0     C 8183   8.050   8.073   9.618  0.0521 -0.1239  0.0847
  802MOL0     C 8184   7.930   8.045   9.682  0.1171  0.9184 -0.1265
  802MOL0     N 8185   7.221   8.131   9.968 -0.4786  0.7078 -0.2621
  802MOL0     N 8186   7.141   8.189  10.049  0.6385 -0.4932  1.1142
  802MOL0     C 8187   5.966   8.540  10.364  0.5019  0.5669  0.4714
  802MOL0     C 8188   5.838   8.477  10.395  0.4310  0.4257  0.1836
  802MOL0     C 8189   5.526   8.193  10.522  0.6380  0.3693  0.7972
  802MOL0     C 8190   5.445   8.292  10.577  0.0170 -1.1848 -0.2254
  802MOL0     C 8191   5.316   8.268  10.628  0.3080  0.3308  0.9273
  802MOL0     C 8192   5.261   8.140  10.632  0.5566  0.9026 -0.3100
  802MOL0     O 8193   5.129   8.102  10.664 -0.1214 -0.1410  0.8624
  802MOL0     C 8194   5.033   8.202  10.688 -0.1792 -0.3001 -0.7356
  802MOL0     C 8195   4.892   8.165  10.687 -0.6151 -0.0775 -0.3902
  802MOL0     C 8196   4.849   8.061  10.790 -0.6455  0.6843  1.3150
  802MOL0     C 8197   4.842   8.138  10.920 -0.1562  0.0112 -0.0217
  802MOL0     C 8198   4.780   8.060  11.023  0.2410 -0.4704  0.1445
  802MOL0     C 8199   4.707   8.000  11.103  0.9140  0.2966 -0.2684
  802MOL0     C 8200   5.347   8.040  10.576 -0.2653  0.6844  0.4469
  802MOL0     C 8201   5.478   8.063  10.525  0.0818 -0.3644 -0.7451
  802MOL0     C 8202   5.560   7.956  10.475  0.1354 -0.2453 -0.2198
  802MOL0     H 8203   5.856   8.214  10.176 -0.1938  0.2366  0.0429
  802MOL0     H 8204   6.072   8.311  10.134 -0.3208 -1.0046  0.2328
  802MOL0     H 8205   6.260   8.375  10.206 -1.8663  0.5323  2.2430
  802MOL0     H 8206   6.297   8.502  10.093 -0.0711 -2.4215 -0.3717
  802MOL0     H 8207   6.375   8.533  10.393  1.3205  0.7645 -0.3761
  802MOL0     H 8208   6.387   8.646  10.262  0.2110  0.0152  0.4884
  802MOL0     H 8209   6.533   8.368  10.270 -0.8346 -0.6159  0.6436
  802MOL0     H 8210   6.587   8.509  10.352  0.3984  0.1925  0.1790
  802MOL0     H 8211   6.515   8.487  10.058 -1.2278  0.9955  0.6178
  802MOL0     H 8212   6.608   8.620  10.126  2.9857 -0.0619  1.9762
  802MOL0     H 8213   6.786   8.450  10.201  0.8906  3.4166 -0.3474
  802MOL0     H 8214   6.702   8.326  10.130  1.3599 -0.5672 -1.3304
  802MOL0     H 8215   6.717   8.461   9.904  1.8049 -0.1769 -0.6244
  802MOL0     H 8216   6.834   8.565   9.987 -1.9099  0.6395  0.5322
  802MOL0     H 8217   6.942   8.367   9.859  1.6007 -0.9243  0.3767
  802MOL0     H 8218   6.871   8.265   9.980 -2.1774  0.8300 -0.0206
  802MOL0     H 8219   7.059   8.507  10.042  1.5839 -0.4935  2.4168
  802MOL0     H 8220   6.990   8.397  10.157  0.5448  0.1902 -0.1442
  802MOL0     H 8221   7.223   8.426   9.839 -0.4999  0.7620 -0.3560
  802MOL0     H 8222   7.320   8.127   9.695 -0.2059  3.8742 -2.5319
  802MOL0     H 8223   7.421   8.273   9.729 -0.1454 -0.0564  0.4968
  802MOL0     H 8224   7.538   8.147   9.903 -1.5347  0.6895  0.7684
  802MOL0     H 8225   7.437   8.005   9.880 -0.6838  0.3497 -0.2305
  802MOL0     H 8226   7.613   8.120   9.670  0.5372  0.2016  1.7484
  802MOL0     H 8227   7.515   7.960   9.666  1.0625 -0.5014 -1.5589
  802MOL0     H 8228   7.630   7.884   9.869 -0.3161  1.2160  1.1121
  802MOL0     H 8229   7.734   8.019   9.869  0.1689  0.5463  1.1220
  802MOL0     H 8230   7.862   7.752   9.515 -2.5319  0.7364  0.8068
  802MOL0     H 8231   8.074   7.820   9.395  0.6936  1.3522 -0.2576
  802MOL0     H 8232   8.274   8.355   9.342  0.1835  0.1029 -0.0915
  802MOL0     H 8233   8.439   8.458   9.176 -1.0181 -2.4066 -2.0473
  802MOL0     H 8234   8.559   8.381   8.967  0.0864  1.2386 -0.9096
  802MOL0     H 8235   8.620   8.536   9.035 -0.2568 -0.9425  2.1491
  802MOL0     H 8236   8.742   8.517   8.845  0.0335 -0.0370 -0.0418
  802MOL0     H 8237   8.844   8.477   8.975 -0.0689 -1.2940  0.6442
  802MOL0     H 8238   8.718   8.259   8.823  0.3818 -0.7440  0.2334
  802MOL0     H 8239   8.863   8.344   8.775  0.7903  0.9491  1.5416
  802MOL0     H 8240   8.810   8.191   9.023  0.4039 -1.7106 -0.3528
  802MOL0     H 8241   8.959   8.277   9.017 -0.6821 -1.0359  1.6477
  802MOL0     H 8242   9.049   8.152   8.832 -0.9656 -0.0972 -0.4507
  802MOL0     H 8243   8.894   8.073   8.800  0.7175  0.1728 -1.6107
  802MOL0     H 8244   9.087   8.056   9.038  0.6536 -0.5191 -1.4557
  802MOL0     H 8245   8.936   7.972   9.046 -2.1592  0.4495 -2.6069
  802MOL0     H 8246   9.100   7.910   8.807 -2.2178  1.5201  1.0003
  802MOL0     H 8247   8.999   7.806   8.914 -0.9115  0.3798  1.6118
  802MOL0     H 8248   9.262   7.928   8.986 -0.8794 -0.1423  0.3618
  802MOL0     H 8249   9.184   7.802   9.080 -1.0360 -0.5948 -0.4329
  802MOL0     H 8250   8.701   8.129   9.235 -0.1863 -0.2829 -1.0691
  802MOL0     H 8251   8.521   8.009   9.372  0.8390 -0.1739 -0.3391
  802MOL0     H 8252   8.085   8.172   9.647 -5.5446  2.8162 -1.7115
  802MOL0     H 8253   7.908   8.114   9.763 -0.4437  2.3742 -1.4871
  802MOL0     H 8254   5.991   8.634  10.412  2.8238  1.6906 -2.6005
  802MOL0     H 8255   5.777   8.530  10.467  0.8490  1.4150 -0.1804
  802MOL0     H 8256   5.463   8.399  10.574  0.6363 -1.2759  0.2668
  802MOL0     H 8257   5.250   8.354  10.641  2.0097  1.4807  2.3735
  802MOL0     H 8258   5.035   8.281  10.611  0.0785  0.9381  0.4997
  802MOL0     H 8259   5.057   8.243  10.786  0.7841 -1.0145 -0.6681
  802MOL0     H 8260   4.881   8.131  10.583 -0.2209  0.7427 -0.7113
  802MOL0     H 8261   4.831   8.255  10.698 -0.2078  0.0948  0.4891
  802MOL0     H 8262   4.932   7.991  10.789 -1.5193 -0.3776  0.1496
  802MOL0     H 8263   4.750   8.023  10.761 -0.1075  0.9595 -1.0118
  802MOL0     H 8264   4.942   8.157  10.960 -0.7630  1.2727  0.9529
  802MOL0     H 8265   4.794   8.236  10.910  1.3746  1.1504  2.7692
  802MOL0     H 8266   4.667   7.938  11.181  2.2596 -1.4438 -0.9059
  802MOL0     H 8267   5.307   7.939  10.570  3.9573 -1.1662 -1.0464
  802MOL0     H 8268   5.648   7.958  10.540  1.2106  0.3865 -1.6412
  802MOL0     H 8269   5.515   7.857  10.481  0.1113 -0.2301 -0.1323
  802MOL0     H 8270   5.581   7.978  10.370 -0.7295 -0.6433 -0.4812
  803MOL0     O 8271   8.331   5.150   3.149  0.1741 -0.1536  0.1416
  803MOL0     C 8272   8.365   5.065   3.233  0.8907 -0.2922 -1.2367
  803MOL0     O 8273   8.483   5.012   3.246 -0.2130  0.2230  0.6749
  803MOL0     C 8274   8.574   5.000   3.145 -0.0318  0.6586 -0.0461
  803MOL0     C 8275   8.693   4.944   3.183  0.1159  0.3962  0.1680
  803MOL0     C 8276   8.790   4.917   3.087  0.0380  0.6793 -0.2917
  803MOL0     C 8277   8.766   4.936   2.956  0.1628 -0.0703  0.7320
  803MOL0     O 8278   8.850   4.900   2.850  1.2339 -0.6646 -0.2921
  803MOL0     C 8279   8.970   4.835   2.890 -0.3817  0.2742  0.7714
  803MOL0     C 8280   9.062   4.821   2.774 -0.1984 -0.2182 -0.3414
  803MOL0     C 8281   9.190   4.751   2.809  0.2675  0.9016 -0.1769
  803MOL0     C 8282   9.272   4.736   2.680  0.1083 -0.5445 -0.4938
  803MOL0     C 8283   9.383   4.630   2.682 -0.2450 -0.0462  0.0602
  803MOL0     C 8284   9.337   4.492   2.627  0.3673  0.3442 -0.7339
  803MOL0     C 8285   9.438   4.376   2.650  0.6554 -0.0620 -0.7192
  803MOL0     C 8286   9.380   4.232   2.593  0.4281  0.1190 -0.0864
  803MOL0     N 8287   9.412   4.119   2.673  0.1796  0.2400 -0.1379
  803MOL0     C 8288   9.539   4.091   2.701 -0.3708  0.4634 -0.1986
  803MOL0     C 8289   9.529   3.986   2.781  0.5440 -0.5112 -0.4696
  803MOL0     C 8290   9.651   3.912   2.829 -0.7551  0.5026 -0.6714
  803MOL0     C 8291   9.779   4.002   2.841 -0.1916  0.2753 -0.3471
  803MOL0     C 8292   9.757   4.123   2.938 -0.5608 -0.6560  0.0312
  803MOL0     C 8293   9.880   4.213   2.955  0.7364 -0.5216 -0.1172
  803MOL0     O 8294   9.985   4.132   3.019  0.7124  0.1123  0.5757
  803MOL0     C 8295  10.110   4.179   2.997 -0.5653  0.4464  0.2509
  803MOL0     C 8296  10.171   4.275   3.076 -0.1806 -0.1428  1.0836
  803MOL0     C 8297  10.310   4.298   3.074 -0.7524  0.2851 -0.7113
  803MOL0     C 8298  10.402   4.225   2.998 -0.3356  0.8820 -0.6013
  803MOL0     C 8299  10.549   4.249   3.011  0.1217  0.7148 -1.1301
  803MOL0     O 8300  10.599   4.347   3.099  0.1132 -0.6672  0.3550
  803MOL0     C 8301  10.733   4.368   3.096  0.0719 -0.0512 -0.1380
  803MOL0     C 8302  10.819   4.306   3.184 -1.0393 -0.2421  0.4057
  803MOL0     C 8303  10.957   4.344   3.180  0.0009  0.1070 -0.9822
  803MOL0     C 8304  11.001   4.437   3.092 -0.6137 -0.5062 -0.9937
  803MOL0     O 8305  11.130   4.480   3.086 -0.0118 -0.5919 -0.0967
  803MOL0     C 8306  11.236   4.420   3.164 -0.4980  0.4484  0.9984
  803MOL0     C 8307  11.376   4.439   3.104 -0.1369 -0.3953 -0.2960
  803MOL0     C 8308  11.487   4.388   3.199 -1.4410 -0.3403 -0.0901
  803MOL0     C 8309  11.626   4.422   3.154  0.4412  0.9993 -0.5289
  803MOL0     C 8310  11.730   4.357   3.248 -0.0816  0.4043  1.0564
  803MOL0     C 8311  11.872   4.408   3.193  0.3203 -0.1823 -0.3282
  803MOL0     C 8312  11.969   4.404   3.311 -0.5776  0.3889  0.1392
  803MOL0     C 8313  12.112   4.381   3.254  0.1163 -0.5264 -0.4822
  803MOL0    Cl 8314  12.153   4.530   3.157  0.2962  0.3414  0.0253
  803MOL0     C 8315  10.912   4.509   3.018 -0.7924  0.4259  0.3635
  803MOL0     C 8316  10.781   4.467   3.010 -0.0426 -0.0103 -0.5306
  803MOL0     O 8317  10.621   4.166   2.961  0.3400  0.1302  0.5089
  803MOL0     C 8318  10.345   4.114   2.924 -0.0042 -0.1732  0.1806
  803MOL0     C 8319  10.204   4.099   2.924 -0.2444 -0.3838 -0.3191
  803MOL0     N 8320   9.396   3.954   2.803 -0.6093  0.4002 -0.8063
  803MOL0     N 8321   9.329   4.034   2.733  0.3524 -0.7241  0.1040
  803MOL0     C 8322   8.646   4.998   2.913 -1.0667 -0.9558 -0.1062
  803MOL0     C 8323   8.551   5.026   3.008  0.0624 -0.2802  0.3068
  803MOL0     C 8324   8.265   5.009   3.331  0.3546  0.1161  0.1588
  803MOL0     C 8325   8.292   4.893   3.409 -0.1878  0.0474 -0.2198
  803MOL0     C 8326   8.208   4.840   3.505  0.7017  0.2510 -0.6750
  803MOL0     C 8327   8.080   4.897   3.514 -0.1031 -0.4050 -0.8369
  803MOL0     O 8328   8.003   4.832   3.612  0.0284 -0.2774 -0.2698
  803MOL0     C 8329   7.874   4.893   3.629  1.1006 -0.4513 -0.0091
  803MOL0     C 8330   7.798   4.817   3.742  0.4499 -0.0450 -1.0863
  803MOL0     C 8331   7.779   4.667   3.697 -0.0178 -0.2354  0.0820
  803MOL0     C 8332   7.715   4.585   3.805  0.3784  1.1390  0.3982
  803MOL0     C 8333   7.569   4.615   3.824 -0.4765  0.1314 -0.6115
  803MOL0     C 8334   7.457   4.636   3.851  0.1600 -0.8072  0.5377
  803MOL0     C 8335   8.045   5.011   3.436 -0.3936 -0.3084 -0.8149
  803MOL0     C 8336   8.136   5.074   3.347  0.0980 -0.6004  0.3591
  803MOL0     C 8337   8.090   5.200   3.281 -0.3636 -0.8487  0.0272
  803MOL0     H 8338   8.694   4.913   3.287 -3.5593  2.7639  1.1365
  803MOL0     H 8339   8.886   4.895   3.133 -0.4113 -0.3671  0.1674
  803MOL0     H 8340   9.021   4.890   2.970 -1.2411  1.8086  0.3036
  803MOL0     H 8341   8.946   4.737   2.933 -1.7991  0.7085  1.0153
  803MOL0     H 8342   9.087   4.923   2.744  0.6022  0.5967  2.7168
  803MOL0     H 8343   9.007   4.779   2.689 -1.0518  0.1509  0.0192
  803MOL0     H 8344   9.164   4.656   2.857 -3.1080  1.0961 -1.3368
  803MOL0     H 8345   9.246   4.797   2.890  0.0187 -1.7135  1.6232
  803MOL0     H 8346   9.207   4.715   2.595 -0.4072  1.1532 -0.5569
  803MOL0     H 8347   9.316   4.834   2.656 -0.7693 -0.2257 -0.8307
  803MOL0     H 8348   9.461   4.663   2.612  0.0187 -0.1109  0.3232
  803MOL0     H 8349   9.429   4.627   2.781 -0.2096  0.1545  0.0507
  803MOL0     H 8350   9.245   4.478   2.685  0.0205  2.8028 -0.5722
  803MOL0     H 8351   9.313   4.500   2.521  2.3993  3.3124 -1.0795
  803MOL0     H 8352   9.458   4.375   2.757  1.2994  2.1685 -0.7597
  803MOL0     H 8353   9.535   4.395   2.604  2.7984 -2.5631  2.4054
  803MOL0     H 8354   9.270   4.235   2.586  0.2781 -2.2925  0.4917
  803MOL0     H 8355   9.419   4.223   2.491  1.3703  1.8689  0.0695
  803MOL0     H 8356   9.624   4.145   2.661 -0.0857 -0.1581 -0.4516
  803MOL0     H 8357   9.641   3.867   2.928  2.8071 -1.6227 -1.1284
  803MOL0     H 8358   9.681   3.839   2.754  0.2216  1.5225 -1.3151
  803MOL0     H 8359   9.859   3.942   2.885 -1.3158  1.0088  2.9844
  803MOL0     H 8360   9.800   4.029   2.737 -1.6965 -1.2945 -1.1104
  803MOL0     H 8361   9.723   4.108   3.040  0.9687  0.9387  0.8274
  803MOL0     H 8362   9.678   4.187   2.899  0.5502 -1.4389 -4.0761
  803MOL0     H 8363   9.861   4.303   3.014 -0.8587 -0.8917 -0.0348
  803MOL0     H 8364   9.906   4.240   2.852  1.8845  1.7530  0.6828
  803MOL0     H 8365  10.103   4.332   3.139 -0.5414 -1.1183  1.5903
  803MOL0     H 8366  10.341   4.373   3.145  1.7479 -0.7730 -0.5953
  803MOL0     H 8367  10.777   4.242   3.260  0.7784 -2.3064 -0.2256
  803MOL0     H 8368  11.019   4.303   3.260 -1.5129 -1.7453 -0.6949
  803MOL0     H 8369  11.243   4.465   3.263  1.5750  1.0063  0.6515
  803MOL0     H 8370  11.209   4.314   3.174 -1.7394  0.6827  0.2738
  803MOL0     H 8371  11.382   4.388   3.007 -0.2287 -0.6226 -0.1806
  803MOL0     H 8372  11.397   4.543   3.077  0.8381 -0.5109 -0.0335
  803MOL0     H 8373  11.478   4.410   3.306 -0.6098  1.5698 -0.3746
  803MOL0     H 8374  11.489   4.278   3.194 -0.6262 -0.3794  0.7711
  803MOL0     H 8375  11.639   4.531   3.147  1.1564  0.8214 -2.5189
  803MOL0     H 8376  11.644   4.386   3.052 -2.5723 -1.8037 -0.2402
  803MOL0     H 8377  11.727   4.248   3.247 -1.1233  0.3880  2.4776
  803MOL0     H 8378  11.716   4.375   3.355  0.9347 -3.3583  1.9865
  803MOL0     H 8379  11.899   4.341   3.111 -3.0633  1.9858 -3.5602
  803MOL0     H 8380  11.857   4.510   3.157 -2.7112  0.0785  1.3408
  803MOL0     H 8381  11.956   4.313   3.370  2.2820 -0.1239  0.1574
  803MOL0     H 8382  11.979   4.489   3.378 -1.2613  1.0902 -0.6333
  803MOL0     H 8383  12.183   4.375   3.337 -0.2972 -4.6694 -0.2511
  803MOL0     H 8384  12.121   4.292   3.191 -0.2175  0.9010 -2.6507
  803MOL0     H 8385  10.956   4.575   2.944  1.1111  0.3317  1.3601
  803MOL0     H 8386  10.712   4.516   2.943  2.3541 -0.3089 -3.4533
  803MOL0     H 8387  10.414   4.048   2.873 -1.8385 -0.2916 -2.3958
  803MOL0     H 8388  10.169   4.011   2.871 -0.1580 -0.3229 -0.4780
  803MOL0     H 8389   8.626   4.985   2.807 -1.8419 -1.8396  0.1233
  803MOL0     H 8390   8.455   5.063   2.973  0.9979  2.8300  0.7014
  803MOL0     H 8391   8.388   4.845   3.387 -0.3833 -0.2837 -0.3632
  803MOL0     H 8392   8.243   4.760   3.570 -1.8673  0.0894  0.6169
  803MOL0     H 8393   7.817   4.884   3.536 -2.4637 -0.3874  2.0021
  803MOL0     H 8394   7.889   4.999   3.651 -1.2127 -0.0928  0.1028
  803MOL0     H 8395   7.699   4.861   3.756  0.1825 -1.2502  1.4464
  803MOL0     H 8396   7.855   4.824   3.836 -1.5548 -0.7192  0.2556
  803MOL0     H 8397   7.875   4.628   3.663 -0.7602 -0.9676 -1.2931
  803MOL0     H 8398   7.716   4.666   3.607  1.2410 -1.6059 -0.8167
  803MOL0     H 8399   7.726   4.479   3.783 -3.8859 -0.0601  2.9109
  803MOL0     H 8400   7.751   4.604   3.906  0.9474  0.0227  0.4170
  803MOL0     H 8401   7.352   4.647   3.871  0.3277  0.7413  0.6994
  803MOL0     H 8402   7.951   5.060   3.462  0.3840 -1.3530  5.8865
  803MOL0     H 8403   8.071   5.189   3.174 -1.4760  0.4648  0.0563
  803MOL0     H 8404   7.995   5.239   3.319 -1.6518 -3.8562  0.1116
  803MOL0     H 8405   8.166   5.278   3.292  0.0753 -0.3390 -4.7058
  804MOL0     O 8406   2.592   3.696   7.595 -0.4272  0.3976  0.1143
  804MOL0     C 8407   2.544   3.785   7.664 -0.6254 -0.2583  0.4715
  804MOL0     O 8408   2.599   3.834   7.771  0.0235  0.6083  0.1530
  804MOL0     C 8409   2.710   3.765   7.809  0.2967  0.1835  0.0106
  804MOL0     C 8410   2.847   3.795   7.789 -0.2475  0.6796 -0.6312
  804MOL0     C 8411   2.949   3.712   7.842 -0.1803  0.3802  0.5165
  804MOL0     C 8412   2.914   3.597   7.917  0.6621  0.0078 -0.3842
  804MOL0     O 8413   3.012   3.534   7.990 -0.0004 -0.0497  0.3136
  804MOL0     C 8414   3.026   3.389   7.984  0.4143  0.2757 -1.0730
  804MOL0     C 8415   3.142   3.336   8.067  0.8177 -0.7029 -0.5364
  804MOL0     C 8416   3.126   3.186   8.080 -0.0596  0.1271  0.0729
  804MOL0     C 8417   3.223   3.123   8.179  0.3065  0.1969 -0.3529
  804MOL0     C 8418   3.367   3.121   8.138 -0.5607  0.5642  0.4201
  804MOL0     C 8419   3.406   3.020   8.033 -0.3088  0.2319  0.7072
  804MOL0     C 8420   3.425   2.879   8.093 -0.1163  0.1401 -0.7024
  804MOL0     C 8421   3.497   2.779   8.005 -0.5082  0.3119  0.2599
  804MOL0     N 8422   3.561   2.659   8.059 -0.1882  0.1216 -0.3679
  804MOL0     C 8423   3.531   2.603   8.180  0.4868  0.6911  0.4332
  804MOL0     C 8424   3.623   2.502   8.199  0.3659  0.7485 -0.2206
  804MOL0     C 8425   3.637   2.404   8.314  0.6211  0.5947  0.0210
  804MOL0     C 8426   3.499   2.327   8.340  0.6643 -0.0279  0.5123
  804MOL0     C 8427   3.527   2.203   8.415  0.4958  0.1302  0.0982
  804MOL0     C 8428   3.395   2.129   8.455  0.5512  0.1743  0.7901
  804MOL0     O 8429   3.416   2.013   8.530  0.1490 -0.2582 -0.4551
  804MOL0     C 8430   3.309   1.960   8.595  0.4582 -0.1758 -0.7294
  804MOL0     C 8431   3.332   1.871   8.699  0.3747  0.0598  0.6196
  804MOL0     C 8432   3.223   1.812   8.762  0.2014  0.1199 -0.6450
  804MOL0     C 8433   3.086   1.840   8.728  0.1815  0.1588  0.7322
  804MOL0     C 8434   2.983   1.769   8.809 -0.2053  0.7243 -0.0722
  804MOL0     O 8435   3.029   1.663   8.885 -0.0797  0.2790 -0.0523
  804MOL0     C 8436   2.935   1.587   8.951 -0.0074 -0.2873  0.1257
  804MOL0     C 8437   2.963   1.553   9.088  0.3762  0.0574  0.6999
  804MOL0     C 8438   2.881   1.456   9.154 -0.3011 -0.6921 -0.9578
  804MOL0     C 8439   2.775   1.401   9.092  0.2810 -0.1124 -0.5949
  804MOL0     O 8440   2.706   1.299   9.158  0.0077 -0.5577  0.0074
  804MOL0     C 8441   2.631   1.204   9.088  0.2394 -1.0698  0.4305
  804MOL0     C 8442   2.590   1.095   9.178  0.7544 -0.6448  0.0745
  804MOL0     C 8443   2.534   0.969   9.107  0.4802 -0.5187 -0.4047
  804MOL0     C 8444   2.401   0.990   9.024  0.2189  0.0778 -0.0203
  804MOL0     C 8445   2.385   0.896   8.896 -0.0656  1.1104 -0.7423
  804MOL0     C 8446   2.488   0.913   8.791 -0.4943  0.1102 -0.6416
  804MOL0     C 8447   2.537   1.050   8.759  1.3665 -0.4375 -0.4558
  804MOL0     C 8448   2.664   1.027   8.681 -0.3997 -0.6474  0.4391
  804MOL0    Cl 8449   2.642   0.958   8.520  0.3051  0.1017  0.4468
  804MOL0     C 8450   2.748   1.430   8.959 -0.2053  0.4370 -0.5690
  804MOL0     C 8451   2.835   1.516   8.889  0.0049 -0.5147 -0.3808
  804MOL0     O 8452   2.868   1.806   8.804 -0.5176  0.0809  0.1739
  804MOL0     C 8453   3.063   1.927   8.629  0.4209  0.3382 -0.2708
  804MOL0     C 8454   3.174   1.994   8.569  0.0188 -0.0281 -0.3226
  804MOL0     N 8455   3.699   2.497   8.084 -0.3054  0.1256  0.1191
  804MOL0     N 8456   3.661   2.592   8.005 -0.6076  0.0986 -0.3596
  804MOL0     C 8457   2.781   3.561   7.928 -0.6277 -0.2863 -0.0414
  804MOL0     C 8458   2.680   3.641   7.873 -0.8756 -0.2117 -0.8405
  804MOL0     C 8459   2.416   3.848   7.621 -0.7640  0.1786 -0.1015
  804MOL0     C 8460   2.379   3.975   7.679  0.1422  0.8174 -0.2500
  804MOL0     C 8461   2.260   4.039   7.642  1.1681  0.2169 -0.1479
  804MOL0     C 8462   2.171   3.972   7.549 -0.5539 -0.4140 -0.1433
  804MOL0     O 8463   2.053   4.031   7.519  0.7059  0.3542 -0.7903
  804MOL0     C 8464   1.997   4.001   7.392  0.4037  0.6165  0.0402
  804MOL0     C 8465   1.905   4.117   7.355 -1.0969 -0.4232 -0.0792
  804MOL0     C 8466   1.858   4.113   7.210  0.5665 -0.4834  0.1441
  804MOL0     C 8467   1.717   4.150   7.202  1.0564  0.4565  0.0864
  804MOL0     C 8468   1.689   4.295   7.222 -0.4301  1.0247 -0.6573
  804MOL0     C 8469   1.648   4.401   7.239 -0.6388 -0.0734  0.0923
  804MOL0     C 8470   2.205   3.845   7.514 -0.1199  0.0336  0.0637
  804MOL0     C 8471   2.328   3.778   7.539 -0.1819 -0.5859  0.1709
  804MOL0     C 8472   2.349   3.641   7.467  0.0957  0.5244  0.1328
  804MOL0     H 8473   2.874   3.881   7.729  1.7742  1.2772  1.0116
  804MOL0     H 8474   3.056   3.734   7.843 -0.1886  0.4142  0.6644
  804MOL0     H 8475   2.932   3.347   8.023  0.1023  0.1869 -1.9038
  804MOL0     H 8476   3.032   3.355   7.881 -1.7886 -1.3886 -0.7283
  804MOL0     H 8477   3.138   3.378   8.168  2.1178  0.1630 -0.8122
  804MOL0     H 8478   3.232   3.377   8.020 -0.5150 -0.7438 -3.2762
  804MOL0     H 8479   3.135   3.144   7.980 -2.1955  0.5770 -0.3636
  804MOL0     H 8480   3.021   3.171   8.109 -0.2135 -0.1713 -0.6187
  804MOL0     H 8481   3.211   3.185   8.269  0.7623  0.1611 -0.2637
  804MOL0     H 8482   3.197   3.021   8.208 -3.0372  1.7081  2.6234
  804MOL0     H 8483   3.385   3.217   8.090 -0.9943  0.7012  0.5304
  804MOL0     H 8484   3.436   3.112   8.222 -1.7946 -2.3089  1.2931
  804MOL0     H 8485   3.332   3.016   7.953  1.2505  3.3814 -1.1122
  804MOL0     H 8486   3.501   3.050   7.987 -0.5557  0.2171  0.1785
  804MOL0     H 8487   3.327   2.832   8.097  0.8785 -2.1341 -1.3655
  804MOL0     H 8488   3.481   2.878   8.187 -1.7567  0.9512  0.3332
  804MOL0     H 8489   3.419   2.748   7.935  1.5832 -0.8222 -1.7178
  804MOL0     H 8490   3.577   2.831   7.950  0.1058 -0.6451  0.2308
  804MOL0     H 8491   3.458   2.627   8.257 -1.0731 -2.6737  0.2142
  804MOL0     H 8492   3.725   2.341   8.298  0.0134  0.0158 -1.1589
  804MOL0     H 8493   3.645   2.468   8.403  1.5038 -0.9673  1.1235
  804MOL0     H 8494   3.431   2.391   8.397  2.3599  1.5798  0.8256
  804MOL0     H 8495   3.459   2.312   8.239  0.6470  4.6449 -0.3980
  804MOL0     H 8496   3.593   2.217   8.501  0.8170 -0.8068  0.0113
  804MOL0     H 8497   3.576   2.146   8.335  0.3392 -1.1836  0.9085
  804MOL0     H 8498   3.351   2.096   8.361 -1.1899  1.9690  0.9200
  804MOL0     H 8499   3.323   2.196   8.503 -0.1738 -0.0568  0.0507
  804MOL0     H 8500   3.429   1.843   8.738  0.6435 -0.0028 -0.0741
  804MOL0     H 8501   3.248   1.733   8.832 -1.2824 -3.5891 -3.9145
  804MOL0     H 8502   3.054   1.590   9.132  0.5793 -0.4809  0.7401
  804MOL0     H 8503   2.900   1.433   9.259  0.2299 -0.8501 -1.0877
  804MOL0     H 8504   2.545   1.249   9.036  1.0975 -0.1830 -0.2605
  804MOL0     H 8505   2.692   1.162   9.007 -1.9880 -1.0914 -1.3561
  804MOL0     H 8506   2.680   1.056   9.225  2.0079 -1.6512 -2.8918
  804MOL0     H 8507   2.525   1.143   9.252  1.1479 -0.5566  0.3628
  804MOL0     H 8508   2.616   0.922   9.052  0.1513 -2.3211  0.5584
  804MOL0     H 8509   2.507   0.893   9.181 -1.2316 -2.0550 -2.4988
  804MOL0     H 8510   2.380   1.095   9.001 -1.4681 -0.4055 -0.8485
  804MOL0     H 8511   2.319   0.972   9.095 -0.7095 -0.6734 -1.2475
  804MOL0     H 8512   2.287   0.916   8.852 -0.7461  3.8672  1.6886
  804MOL0     H 8513   2.389   0.793   8.932  4.3740  1.7635  1.2446
  804MOL0     H 8514   2.578   0.851   8.805 -0.1308  0.1273 -2.6445
  804MOL0     H 8515   2.442   0.866   8.704  0.7663 -3.7698  0.5786
  804MOL0     H 8516   2.570   1.118   8.838  4.2523 -0.1270 -1.7584
  804MOL0     H 8517   2.458   1.100   8.703  1.5020  2.8814  2.0646
  804MOL0     H 8518   2.719   1.119   8.661 -1.6631 -0.5157 -3.1289
  804MOL0     H 8519   2.734   0.971   8.743  0.1951 -3.5071 -2.5833
  804MOL0     H 8520   2.660   1.389   8.911 -0.4868  1.5036 -0.9789
  804MOL0     H 8521   2.816   1.526   8.782 -1.8260  2.3724  0.0982
  804MOL0     H 8522   2.964   1.967   8.610  1.6653  3.2461 -1.2586
  804MOL0     H 8523   3.144   2.058   8.487 -0.5906 -0.3070 -0.3229
  804MOL0     H 8524   2.764   3.477   7.995 -2.8650  0.8348  0.9275
  804MOL0     H 8525   2.578   3.611   7.895 -0.7953 -0.1372 -0.3597
  804MOL0     H 8526   2.442   4.019   7.755 -2.1964  1.4692  1.4194
  804MOL0     H 8527   2.240   4.138   7.681 -0.7572 -0.5295  0.9120
  804MOL0     H 8528   1.943   3.907   7.406  0.3484  0.0459 -3.1839
  804MOL0     H 8529   2.076   3.985   7.318  0.9060  1.7608  0.3006
  804MOL0     H 8530   1.965   4.206   7.379  0.0040 -1.4750  1.2734
  804MOL0     H 8531   1.821   4.125   7.425 -1.6358 -2.6416 -0.4134
  804MOL0     H 8532   1.877   4.014   7.167 -2.3454 -1.5067  0.9699
  804MOL0     H 8533   1.916   4.178   7.143 -0.0309  1.9723  1.8656
  804MOL0     H 8534   1.678   4.125   7.102 -0.1234  0.5292  0.5109
  804MOL0     H 8535   1.658   4.082   7.264 -1.1939  2.8637  0.7590
  804MOL0     H 8536   1.607   4.500   7.236 -1.4701 -0.4256 -0.7644
  804MOL0     H 8537   2.134   3.798   7.447  0.5279  0.0441 -0.6484
  804MOL0     H 8538   2.425   3.642   7.388 -1.5665  2.4895 -1.5396
  804MOL0     H 8539   2.374   3.557   7.533  3.0738  0.7451 -0.5639
  804MOL0     H 8540   2.256   3.610   7.418  0.0037  0.8463  0.1045
  805MOL0     O 8541   5.571  11.289   5.991  0.4705 -0.6512  0.1590
  805MOL0     C 8542   5.556  11.189   5.928  0.4890 -0.1882 -0.2940
  805MOL0     O 8543   5.569  11.176   5.794  0.2772 -0.6681  0.5820
  805MOL0     C 8544   5.634  11.281   5.728  0.5170  0.3609 -0.5776
  805MOL0     C 8545   5.550  11.380   5.672 -0.3993  0.3581 -0.2839
  805MOL0     C 8546   5.608  11.493   5.606  0.0804  0.1003 -0.1893
  805MOL0     C 8547   5.753  11.496   5.602  0.6867 -0.1180  0.1640
  805MOL0     O 8548   5.811  11.608   5.553 -0.0359 -0.2704 -0.0927
  805MOL0     C 8549   5.768  11.643   5.414 -0.2931 -0.2665  0.3006
  805MOL0     C 8550   5.863  11.605   5.298 -0.3096  0.1516  0.2367
  805MOL0     C 8551   5.930  11.735   5.242  0.3381  0.1788  0.1736
  805MOL0     C 8552   6.001  11.699   5.112  0.4951  0.4599 -0.0206
  805MOL0     C 8553   6.059  11.831   5.073 -0.2565  0.2802  0.3163
  805MOL0     C 8554   6.142  11.816   4.946 -0.1372  0.9501  0.5244
  805MOL0     C 8555   6.245  11.925   4.921  0.2034  0.0493  0.6023
  805MOL0     C 8556   6.177  12.063   4.927  0.1892  0.0043 -0.4265
  805MOL0     N 8557   6.270  12.156   4.858  0.2293 -0.6480 -0.2563
  805MOL0     C 8558   6.410  12.161   4.893 -0.3066 -0.1079 -0.1052
  805MOL0     C 8559   6.466  12.240   4.795  0.2040 -0.8604 -0.8143
  805MOL0     C 8560   6.609  12.259   4.784 -0.2242  0.7908 -0.1814
  805MOL0     C 8561   6.649  12.400   4.743  0.0058 -0.0197  0.2366
  805MOL0     C 8562   6.799  12.434   4.724  0.1048 -0.6894  0.4041
  805MOL0     C 8563   6.823  12.506   4.588  0.4437  0.1675  0.0542
  805MOL0     O 8564   6.961  12.535   4.577 -0.4008 -0.4300 -0.2166
  805MOL0     C 8565   6.995  12.572   4.451 -0.4992  0.4271 -0.7567
  805MOL0     C 8566   7.125  12.604   4.447  0.7920 -0.4604 -0.2722
  805MOL0     C 8567   7.184  12.643   4.324  0.0174  0.5247 -0.2498
  805MOL0     C 8568   7.105  12.655   4.210 -0.4241  0.0471  0.0422
  805MOL0     C 8569   7.164  12.692   4.086  0.0119 -0.0483  0.0977
  805MOL0     O 8570   7.298  12.668   4.073 -0.3955  0.0268  0.4998
  805MOL0     C 8571   7.366  12.739   3.963  0.5052  0.6317 -0.3289
  805MOL0     C 8572   7.324  12.754   3.829 -0.4381  0.3767  0.1074
  805MOL0     C 8573   7.413  12.796   3.732 -0.5753 -0.2520 -1.0363
  805MOL0     C 8574   7.544  12.834   3.767  0.2190 -0.0058 -0.3138
  805MOL0     O 8575   7.633  12.866   3.670 -0.1895 -0.4382  0.4680
  805MOL0     C 8576   7.651  12.774   3.562  0.6621 -0.0188 -0.0215
  805MOL0     C 8577   7.764  12.824   3.481  0.8544  0.1628  0.7669
  805MOL0     C 8578   7.783  12.718   3.375  0.3548 -0.4042 -0.4368
  805MOL0     C 8579   7.917  12.729   3.299  0.0048  0.4582 -0.1986
  805MOL0     C 8580   7.952  12.601   3.222  0.2986 -0.6177  0.7613
  805MOL0     C 8581   8.092  12.622   3.168  0.0343  1.0982 -0.5888
  805MOL0     C 8582   8.126  12.515   3.062 -0.0902 -0.1766  0.0661
  805MOL0     C 8583   8.077  12.570   2.929 -0.6872 -0.2447 -0.1165
  805MOL0    Cl 8584   8.027  12.437   2.830  0.1040  0.1967  0.7308
  805MOL0     C 8585   7.595  12.825   3.897 -0.3729 -0.1045 -0.0794
  805MOL0     C 8586   7.502  12.778   3.993 -0.0884  0.5633 -0.7395
  805MOL0     O 8587   7.100  12.769   4.015 -0.0447  0.2608 -0.4889
  805MOL0     C 8588   6.963  12.636   4.216 -0.1191  0.5251  0.3113
  805MOL0     C 8589   6.912  12.589   4.341  0.0616  0.5453 -0.5159
  805MOL0     N 8590   6.361  12.280   4.711  0.6181 -0.1101 -0.6673
  805MOL0     N 8591   6.248  12.226   4.745  0.5407  0.6328  0.4343
  805MOL0     C 8592   5.828  11.412   5.676  0.3356 -0.5732 -0.1066
  805MOL0     C 8593   5.771  11.302   5.742 -0.4178  0.2342  0.0199
  805MOL0     C 8594   5.502  11.065   5.994 -0.2985 -0.1150  0.4406
  805MOL0     C 8595   5.448  10.961   5.906  0.1591  0.4558  0.0591
  805MOL0     C 8596   5.386  10.852   5.966  0.6873  0.2674  0.0080
  805MOL0     C 8597   5.387  10.837   6.102 -0.2505  0.3930 -0.6878
  805MOL0     O 8598   5.337  10.720   6.159  0.4991 -0.4838  0.3551
  805MOL0     C 8599   5.196  10.729   6.184 -0.0020 -0.0632  0.2926
  805MOL0     C 8600   5.171  10.786   6.314  0.2436  0.0318 -0.0553
  805MOL0     C 8601   5.026  10.799   6.348  0.2525  0.1590 -0.4352
  805MOL0     C 8602   4.934  10.879   6.255  0.0621 -0.6136  0.6612
  805MOL0     C 8603   4.980  11.027   6.253  0.2200 -0.0217 -0.7205
  805MOL0     C 8604   5.008  11.146   6.264 -0.7535  0.1068 -0.2991
  805MOL0     C 8605   5.449  10.935   6.184  0.4710  0.5491 -0.0078
  805MOL0     C 8606   5.518  11.043   6.132  0.4706 -0.3986 -0.1741
  805MOL0     C 8607   5.593  11.139   6.223 -1.3119  0.9648 -0.6788
  805MOL0     H 8608   5.444  11.355   5.670 -0.3105 -0.0866  0.4952
  805MOL0     H 8609   5.539  11.557   5.553  1.0404  0.9321 -0.4596
  805MOL0     H 8610   5.675  11.587   5.400 -0.1322 -0.1084 -1.7040
  805MOL0     H 8611   5.739  11.748   5.411 -1.3105 -0.5624 -0.6931
  805MOL0     H 8612   5.809  11.557   5.215 -0.7144 -1.1953  1.2401
  805MOL0     H 8613   5.934  11.531   5.335 -2.2149 -3.3883 -2.5466
  805MOL0     H 8614   5.991  11.786   5.317 -0.5545  0.8041  0.4963
  805MOL0     H 8615   5.849  11.802   5.210  1.3664  0.7708 -1.2947
  805MOL0     H 8616   6.073  11.617   5.122 -1.5942 -1.5819 -0.7963
  805MOL0     H 8617   5.930  11.656   5.041 -2.3342  2.7271  1.2813
  805MOL0     H 8618   5.979  11.904   5.057 -1.2077 -1.2718 -2.9390
  805MOL0     H 8619   6.130  11.855   5.152  0.1622  0.5511 -0.1373
  805MOL0     H 8620   6.196  11.721   4.943 -1.4538  0.1994 -1.6177
  805MOL0     H 8621   6.073  11.808   4.862  1.1517  1.8692 -0.6668
  805MOL0     H 8622   6.282  11.914   4.818 -0.8712 -2.8124  0.4281
  805MOL0     H 8623   6.330  11.912   4.988  0.6396  3.0150  0.7157
  805MOL0     H 8624   6.080  12.069   4.876  0.3801  1.5451 -0.6489
  805MOL0     H 8625   6.164  12.087   5.033 -0.4888  1.3118 -0.7846
  805MOL0     H 8626   6.454  12.096   4.968 -1.2365  0.4569  0.9500
  805MOL0     H 8627   6.667  12.240   4.875 -0.2088  0.0136 -0.3428
  805MOL0     H 8628   6.645  12.178   4.719  0.3670 -2.4896  3.7987
  805MOL0     H 8629   6.609  12.411   4.641 -0.8746 -0.6607  0.4985
  805MOL0     H 8630   6.596  12.474   4.803  4.8398  2.9275  1.3393
  805MOL0     H 8631   6.855  12.341   4.731 -1.0646 -1.4618 -0.1490
  805MOL0     H 8632   6.829  12.508   4.798 -1.8655  1.3651 -0.7008
  805MOL0     H 8633   6.765  12.599   4.583 -2.5455 -1.5844 -0.1155
  805MOL0     H 8634   6.774  12.449   4.508  1.4751  1.0501 -1.2556
  805MOL0     H 8635   7.179  12.587   4.540 -1.0898  0.5581  1.0582
  805MOL0     H 8636   7.290  12.664   4.318 -0.2591  1.6992 -1.3959
  805MOL0     H 8637   7.226  12.720   3.798  0.1688 -2.9056  1.3724
  805MOL0     H 8638   7.384  12.807   3.628 -1.3505  0.4561 -0.7599
  805MOL0     H 8639   7.667  12.672   3.599  2.1304 -0.0260 -0.5759
  805MOL0     H 8640   7.558  12.757   3.508  0.9818 -0.3286 -0.4812
  805MOL0     H 8641   7.745  12.922   3.436  2.7574 -0.4794 -1.6993
  805MOL0     H 8642   7.857  12.832   3.538  1.8832  0.6874 -0.8778
  805MOL0     H 8643   7.783  12.619   3.420  1.1546 -0.2097  0.0111
  805MOL0     H 8644   7.701  12.720   3.303 -0.5924  3.3107  0.5245
  805MOL0     H 8645   7.996  12.759   3.369 -0.2620 -0.1725  0.3867
  805MOL0     H 8646   7.909  12.808   3.224 -0.6782  2.0944  1.5118
  805MOL0     H 8647   7.872  12.588   3.149  0.6073  2.2009 -0.1774
  805MOL0     H 8648   7.958  12.519   3.295 -0.0883 -1.0452  0.3210
  805MOL0     H 8649   8.110  12.725   3.135  0.2472  2.2602  2.7896
  805MOL0     H 8650   8.161  12.599   3.249  0.0492 -0.0130 -0.9003
  805MOL0     H 8651   8.078  12.418   3.075  0.4141 -0.5528 -0.7834
  805MOL0     H 8652   8.235  12.504   3.061 -0.1310 -0.6177 -1.1127
  805MOL0     H 8653   7.988  12.633   2.928 -0.7247 -0.2906  0.3346
  805MOL0     H 8654   8.155  12.628   2.878 -2.5478  2.3361 -0.1965
  805MOL0     H 8655   7.695  12.847   3.932 -1.3533  4.4281  0.5218
  805MOL0     H 8656   7.541  12.770   4.094 -1.9667 -2.2310 -0.1032
  805MOL0     H 8657   6.910  12.656   4.123 -0.9267  0.0381  0.6481
  805MOL0     H 8658   6.805  12.571   4.343  0.2548 -1.3365 -2.8586
  805MOL0     H 8659   5.935  11.428   5.687  0.4909 -1.6900  0.0792
  805MOL0     H 8660   5.824  11.227   5.801 -1.0700  1.4790  2.3345
  805MOL0     H 8661   5.441  10.975   5.799  0.0392  1.1147  0.1490
  805MOL0     H 8662   5.336  10.780   5.902 -1.6764  1.1498  0.7753
  805MOL0     H 8663   5.155  10.627   6.186 -1.6283  0.5746  1.2889
  805MOL0     H 8664   5.144  10.793   6.113  0.3816  1.2102  1.1342
  805MOL0     H 8665   5.214  10.885   6.332  0.2722  0.2367 -1.1903
  805MOL0     H 8666   5.216  10.716   6.385 -1.7179 -1.7319 -0.4511
  805MOL0     H 8667   5.021  10.849   6.445 -0.6749 -4.0032  1.8939
  805MOL0     H 8668   4.985  10.700   6.368  2.0810 -0.5767 -0.1518
  805MOL0     H 8669   4.940  10.852   6.149  1.5785  6.8577 -1.7984
  805MOL0     H 8670   4.830  10.874   6.287 -0.6094  0.8579 -1.0669
  805MOL0     H 8671   5.023  11.247   6.297  0.1205 -1.5897  5.5708
  805MOL0     H 8672   5.438  10.915   6.291  0.4027 -1.2255 -0.3145
  805MOL0     H 8673   5.548  11.237   6.238 -1.6991  0.5735  0.8562
  805MOL0     H 8674   5.616  11.085   6.315 -0.3934  0.4535 -1.1953
  805MOL0     H 8675   5.694  11.149   6.181 -0.4493 -3.5698 -0.2790
  806MOL0     O 8676   3.735   9.725   9.273 -0.2746  0.8093  0.2594
  806MOL0     C 8677   3.623   9.752   9.238 -0.5343  0.4224  0.5538
  806MOL0     O 8678   3.596   9.839   9.139 -0.4646 -0.9631 -0.0471
  806MOL0     C 8679   3.691   9.862   9.045 -0.0856 -0.4754 -0.3365
  806MOL0     C 8680   3.669   9.806   8.926  0.2072  1.0133 -0.5465
  806MOL0     C 8681   3.756   9.812   8.820 -0.1333 -0.4224  0.1227
  806MOL0     C 8682   3.868   9.899   8.840  0.2146  0.3720  0.8539
  806MOL0     O 8683   3.951   9.927   8.731  0.9613 -0.7671  0.3025
  806MOL0     C 8684   4.097   9.919   8.750 -0.6395 -0.7794 -0.1339
  806MOL0     C 8685   4.142  10.080   8.763  0.7904  0.8974  0.8197
  806MOL0     C 8686   4.283  10.097   8.711 -0.0543 -0.3702 -0.1637
  806MOL0     C 8687   4.319  10.249   8.709  0.5014  1.0530  0.0634
  806MOL0     C 8688   4.457  10.272   8.666  0.4901 -0.4097  0.6437
  806MOL0     C 8689   4.482  10.419   8.694 -0.5065 -0.0339  0.4364
  806MOL0     C 8690   4.582  10.482   8.595  0.1587 -0.4815  1.3139
  806MOL0     C 8691   4.726  10.427   8.604 -0.1843  0.2510  0.1907
  806MOL0     N 8692   4.800  10.483   8.498 -0.0195  0.5177 -0.6924
  806MOL0     C 8693   4.770  10.462   8.363  0.1680 -0.1269 -0.2344
  806MOL0     C 8694   4.860  10.537   8.292  0.4520  0.1435 -0.1026
  806MOL0     C 8695   4.857  10.536   8.133  0.1742  0.4437 -0.3200
  806MOL0     C 8696   4.966  10.432   8.089  0.8137  0.1375 -0.0358
  806MOL0     C 8697   4.971  10.432   7.941 -0.1381 -0.1384  1.2322
  806MOL0     C 8698   5.059  10.323   7.887 -0.3121  0.0846 -0.5355
  806MOL0     O 8699   5.198  10.334   7.923 -0.4024 -0.4788  0.3214
  806MOL0     C 8700   5.289  10.378   7.826 -0.2577  0.9364 -0.6545
  806MOL0     C 8701   5.415  10.417   7.873  0.5512  0.3774  1.1012
  806MOL0     C 8702   5.527  10.431   7.800  0.3961 -0.1351  0.1687
  806MOL0     C 8703   5.515  10.431   7.664 -0.9333 -0.4116  0.1502
  806MOL0     C 8704   5.630  10.454   7.572  1.2174 -0.9728 -0.4795
  806MOL0     O 8705   5.740  10.480   7.627  0.5581 -0.7828  0.1115
  806MOL0     C 8706   5.847  10.526   7.558  0.8949 -0.1864 -0.3649
  806MOL0     C 8707   5.843  10.604   7.440  0.3589  0.5166 -0.2634
  806MOL0     C 8708   5.956  10.653   7.378  0.2764  0.3819  0.2441
  806MOL0     C 8709   6.083  10.638   7.434 -0.4397 -0.1784 -0.3752
  806MOL0     O 8710   6.195  10.696   7.374  0.2773  0.6617 -0.0294
  806MOL0     C 8711   6.251  10.620   7.272  0.0325  0.2184  0.2734
  806MOL0     C 8712   6.381  10.662   7.204 -0.0428  0.3505 -0.1296
  806MOL0     C 8713   6.507  10.668   7.290  0.2063  0.7442 -0.1655
  806MOL0     C 8714   6.630  10.720   7.207  0.6247  0.2413  0.0748
  806MOL0     C 8715   6.762  10.680   7.268 -0.0154 -0.7311 -0.2713
  806MOL0     C 8716   6.795  10.766   7.393  0.2424 -0.4957  0.0519
  806MOL0     C 8717   6.941  10.758   7.431  0.9207  0.1385 -0.0408
  806MOL0     C 8718   6.979  10.895   7.488 -0.5316 -0.3083 -0.1374
  806MOL0    Cl 8719   7.132  10.906   7.583 -0.4390  0.0736 -0.1432
  806MOL0     C 8720   6.086  10.565   7.550 -0.6750  0.3853  0.2268
  806MOL0     C 8721   5.969  10.507   7.608 -0.0286 -0.7110 -1.1119
  806MOL0     O 8722   5.601  10.458   7.455  0.3005  0.7046 -0.8602
  806MOL0     C 8723   5.386  10.404   7.607 -1.1857  1.3029 -0.6341
  806MOL0     C 8724   5.280  10.364   7.688 -0.3713 -0.1584  0.3522
  806MOL0     N 8725   4.936  10.615   8.386 -0.3799  0.2808 -0.2901
  806MOL0     N 8726   4.897  10.586   8.505 -0.3774  0.2932  0.6251
  806MOL0     C 8727   3.885   9.961   8.962 -0.5097 -0.1265 -0.8153
  806MOL0     C 8728   3.798   9.937   9.071 -0.2461  0.3557 -0.6133
  806MOL0     C 8729   3.496   9.698   9.304 -0.3264  0.9859 -0.3667
  806MOL0     C 8730   3.374   9.748   9.272  0.7284 -1.0806  0.0208
  806MOL0     C 8731   3.255   9.711   9.332  0.2508  0.1562  0.4229
  806MOL0     C 8732   3.253   9.609   9.426 -0.0021 -0.1012 -0.6237
  806MOL0     O 8733   3.121   9.583   9.470 -0.3586 -0.4040  0.2778
  806MOL0     C 8734   3.099   9.489   9.575 -0.7764  1.0388  0.2936
  806MOL0     C 8735   2.961   9.487   9.624  0.1932 -0.0695  0.0155
  806MOL0     C 8736   2.869   9.428   9.508  0.2445  0.2773 -0.5995
  806MOL0     C 8737   2.808   9.286   9.537 -0.2338 -1.0496  0.3014
  806MOL0     C 8738   2.738   9.273   9.670  0.0493 -0.5310  1.0209
  806MOL0     C 8739   2.688   9.263   9.778 -0.1312 -0.1236 -0.2678
  806MOL0     C 8740   3.374   9.559   9.465  0.1026  0.0560 -0.3203
  806MOL0     C 8741   3.494   9.598   9.409 -0.2488  0.6542 -0.2462
  806MOL0     C 8742   3.621   9.545   9.476 -0.6017  0.0297  0.2419
  806MOL0     H 8743   3.584   9.740   8.916  0.6864  0.1012  0.9371
  806MOL0     H 8744   3.733   9.770   8.723 -1.9474 -0.2040  0.4300
  806MOL0     H 8745   4.126   9.858   8.836 -2.2709  1.6494  2.3308
  806MOL0     H 8746   4.150   9.880   8.663  0.6790  0.2183  0.2021
  806MOL0     H 8747   4.142  10.101   8.871 -1.4084  3.0641  0.4897
  806MOL0     H 8748   4.065  10.143   8.718  1.7816  2.1441  0.8176
  806MOL0     H 8749   4.278  10.061   8.608  1.5992 -0.5457 -0.2130
  806MOL0     H 8750   4.358  10.039   8.766 -1.3471  0.5476  2.7851
  806MOL0     H 8751   4.242  10.298   8.649  0.2558  0.7347  0.1129
  806MOL0     H 8752   4.306  10.280   8.813 -0.3290 -0.3696  0.4134
  806MOL0     H 8753   4.528  10.206   8.716  0.9776 -2.4870 -2.4533
  806MOL0     H 8754   4.458  10.247   8.559 -1.3269 -0.4837  0.6248
  806MOL0     H 8755   4.390  10.477   8.683 -1.7936 -2.4248 -3.5213
  806MOL0     H 8756   4.517  10.418   8.798 -0.7720  0.7417  0.5344
  806MOL0     H 8757   4.561  10.586   8.619 -2.9845 -0.4939 -0.6782
  806MOL0     H 8758   4.555  10.463   8.490  1.8292 -2.3154  1.1656
  806MOL0     H 8759   4.759  10.460   8.702  0.3284  0.2709  0.0129
  806MOL0     H 8760   4.727  10.318   8.595 -1.8345 -0.2501  4.0417
  806MOL0     H 8761   4.693  10.397   8.325  0.1516 -0.0221 -0.3829
  806MOL0     H 8762   4.758  10.502   8.100  0.0476 -2.2944  2.3472
  806MOL0     H 8763   4.873  10.638   8.099 -1.6773  0.3371 -1.6717
  806MOL0     H 8764   5.053  10.481   8.135 -0.9039  2.0385  1.3405
  806MOL0     H 8765   4.946  10.330   8.121 -0.2110  0.7526  1.4189
  806MOL0     H 8766   5.009  10.528   7.904 -0.8072  0.2707  1.5662
  806MOL0     H 8767   4.872  10.412   7.901  0.5218 -1.1877  0.0625
  806MOL0     H 8768   5.041  10.316   7.779  0.4635 -1.5543 -0.5836
  806MOL0     H 8769   5.015  10.228   7.920  3.0347 -2.2001 -2.1595
  806MOL0     H 8770   5.430  10.431   7.980 -1.3830 -0.5175  1.5341
  806MOL0     H 8771   5.618  10.456   7.854  0.2595  3.4346 -0.9798
  806MOL0     H 8772   5.748  10.619   7.390  0.0836 -0.1009  0.0716
  806MOL0     H 8773   5.943  10.719   7.293 -2.8856  0.3568  0.5971
  806MOL0     H 8774   6.273  10.524   7.319  2.4306  0.8003  0.4664
  806MOL0     H 8775   6.171  10.613   7.197  1.3115  1.0137 -1.2404
  806MOL0     H 8776   6.401  10.598   7.117  0.1129 -1.5084  1.2181
  806MOL0     H 8777   6.360  10.758   7.155 -1.3931  1.4016  2.3079
  806MOL0     H 8778   6.508  10.725   7.384  2.8901  2.7326 -1.2512
  806MOL0     H 8779   6.537  10.564   7.305  1.7128  0.9575 -1.4224
  806MOL0     H 8780   6.632  10.830   7.203  0.1110  0.2167 -1.7029
  806MOL0     H 8781   6.629  10.667   7.111 -0.2312  0.1590  0.1230
  806MOL0     H 8782   6.838  10.699   7.191  1.8200  0.6236  1.7392
  806MOL0     H 8783   6.758  10.576   7.299  2.7719 -0.6880  0.5859
  806MOL0     H 8784   6.763  10.868   7.370  0.9825 -1.0769 -4.5550
  806MOL0     H 8785   6.733  10.726   7.473 -0.8989  1.3050  0.1024
  806MOL0     H 8786   6.988  10.746   7.332 -2.0680  2.6399 -1.9194
  806MOL0     H 8787   6.961  10.672   7.496  2.6016  0.0083 -0.6650
  806MOL0     H 8788   6.989  10.967   7.407 -0.8887 -1.3828 -1.1677
  806MOL0     H 8789   6.896  10.930   7.551  1.2359  0.6410  1.7765
  806MOL0     H 8790   6.179  10.559   7.606 -1.8880  0.8187  2.4313
  806MOL0     H 8791   5.983  10.466   7.707 -0.2214  1.1997 -0.2440
  806MOL0     H 8792   5.375  10.396   7.499  3.2498  0.6246 -1.2102
  806MOL0     H 8793   5.187  10.325   7.649 -0.3560 -0.6947  0.8439
  806MOL0     H 8794   3.960  10.033   8.994 -0.6984 -1.3607  2.9026
  806MOL0     H 8795   3.819   9.993   9.162  2.1431  0.8295 -1.3766
  806MOL0     H 8796   3.363   9.832   9.204 -2.1593 -0.5114  1.0666
  806MOL0     H 8797   3.164   9.758   9.294  0.1961  0.0262  0.3945
  806MOL0     H 8798   3.166   9.512   9.658  1.2486  0.6872 -1.1732
  806MOL0     H 8799   3.131   9.393   9.532  0.3435  1.5893 -0.1403
  806MOL0     H 8800   2.940   9.588   9.661  0.2001  0.0646 -0.3406
  806MOL0     H 8801   2.958   9.421   9.712  1.7538 -2.6739 -1.7523
  806MOL0     H 8802   2.930   9.430   9.418  2.9610 -0.3572  1.1087
  806MOL0     H 8803   2.785   9.497   9.497  0.3857  0.4955 -0.3216
  806MOL0     H 8804   2.737   9.262   9.457 -0.2954  0.6863 -0.1824
  806MOL0     H 8805   2.896   9.221   9.531  0.8422  0.4595 -0.8962
  806MOL0     H 8806   2.646   9.260   9.877  1.7337 -0.8618  0.5598
  806MOL0     H 8807   3.370   9.494   9.552  1.1580  0.0579 -0.2650
  806MOL0     H 8808   3.696   9.519   9.400 -0.9816 -1.1235  0.2468
  806MOL0     H 8809   3.653   9.619   9.549  3.7271 -1.0940 -0.2412
  806MOL0     H 8810   3.601   9.457   9.537 -0.0351  1.9078  3.3051
  807MOL0     O 8811   2.206  10.100   6.940  0.0905  0.2184  0.4153
  807MOL0     C 8812   2.227  10.022   7.034  0.6282  0.1685  0.7120
  807MOL0     O 8813   2.348  10.009   7.096  1.0363 -0.3818 -0.3073
  807MOL0     C 8814   2.459  10.081   7.057  0.6707  0.5844 -0.4775
  807MOL0     C 8815   2.551  10.130   7.149  0.0241  0.3622 -0.0760
  807MOL0     C 8816   2.674  10.187   7.109  0.2328  0.4576  0.8279
  807MOL0     C 8817   2.712  10.195   6.971 -0.1902 -0.5202 -0.4382
  807MOL0     O 8818   2.824  10.253   6.913  0.1462 -0.4249  0.0918
  807MOL0     C 8819   2.942  10.275   6.997 -0.3757 -0.1564  0.1387
  807MOL0     C 8820   3.057  10.363   6.939 -0.5906 -0.7072 -0.2738
  807MOL0     C 8821   3.170  10.396   7.040  0.1183 -0.4531  0.9051
  807MOL0     C 8822   3.211  10.543   7.044 -0.8522 -0.2390  0.7114
  807MOL0     C 8823   3.314  10.585   6.942  0.1621  1.4874  0.2298
  807MOL0     C 8824   3.398  10.699   7.002 -0.9448  0.5126  0.3626
  807MOL0     C 8825   3.496  10.776   6.900  0.6954  0.2243 -0.0094
  807MOL0     C 8826   3.539  10.903   6.970 -1.0894 -0.5526  0.1989
  807MOL0     N 8827   3.665  10.884   7.050  0.3197 -1.2474 -0.0629
  807MOL0     C 8828   3.792  10.890   7.003 -0.9674 -0.0752  0.4861
  807MOL0     C 8829   3.871  10.899   7.117  0.2835 -0.1226 -0.2983
  807MOL0     C 8830   4.017  10.903   7.134 -0.2802  0.4431 -0.5624
  807MOL0     C 8831   4.069  11.047   7.090  0.8037  0.1070  0.9001
  807MOL0     C 8832   4.201  11.032   7.024 -0.3123  0.1875 -0.2329
  807MOL0     C 8833   4.313  10.971   7.115  0.7570  0.4136 -0.1786
  807MOL0     O 8834   4.433  10.980   7.027  0.7333 -0.3411 -0.1249
  807MOL0     C 8835   4.555  10.982   7.088  0.1187 -0.0552 -0.8584
  807MOL0     C 8836   4.666  11.032   7.014 -0.0451  0.6102 -0.4802
  807MOL0     C 8837   4.790  11.052   7.071  0.0693  0.9760 -0.3937
  807MOL0     C 8838   4.804  11.041   7.211  0.1099 -0.3400 -0.2762
  807MOL0     C 8839   4.934  11.075   7.287 -0.5161  0.0686 -0.5271
  807MOL0     O 8840   5.035  11.090   7.206  0.4694 -0.8019 -0.4038
  807MOL0     C 8841   5.158  11.126   7.255  0.2071 -0.3128  0.3615
  807MOL0     C 8842   5.196  11.242   7.318  0.2556 -0.0958 -0.8386
  807MOL0     C 8843   5.323  11.266   7.354  0.2015  0.2303 -0.0289
  807MOL0     C 8844   5.423  11.174   7.338  0.0032 -0.1088  0.0614
  807MOL0     O 8845   5.548  11.215   7.380  0.1451  0.5181 -0.1388
  807MOL0     C 8846   5.657  11.127   7.399  0.0609  0.0586  0.3920
  807MOL0     C 8847   5.766  11.208   7.324  0.7801  0.3335  0.2815
  807MOL0     C 8848   5.896  11.135   7.296  0.5393  0.4381 -0.5302
  807MOL0     C 8849   5.979  11.117   7.423 -0.5411  0.8441  0.2356
  807MOL0     C 8850   6.111  11.047   7.405  0.5249  1.6301  0.5294
  807MOL0     C 8851   6.206  11.098   7.296  0.4078 -0.3454  0.2153
  807MOL0     C 8852   6.354  11.065   7.310 -0.5368 -0.2776 -0.2337
  807MOL0     C 8853   6.427  11.104   7.179  0.6517  0.2154  0.2313
  807MOL0    Cl 8854   6.475  11.274   7.194  0.5307 -0.2445  0.6396
  807MOL0     C 8855   5.393  11.049   7.280  0.4686  0.4419 -0.1527
  807MOL0     C 8856   5.258  11.022   7.240 -0.3468  1.0473  0.2325
  807MOL0     O 8857   4.939  11.086   7.414  0.0882 -0.7477  0.0454
  807MOL0     C 8858   4.690  10.992   7.277  0.4557  0.0503 -1.0427
  807MOL0     C 8859   4.573  10.960   7.219 -0.2254 -0.3570 -0.8495
  807MOL0     N 8860   3.781  10.927   7.222 -0.4699  0.0208 -1.5329
  807MOL0     N 8861   3.662  10.910   7.182 -1.1809  0.0075 -0.8459
  807MOL0     C 8862   2.621  10.137   6.883  0.6038  0.0950  0.1103
  807MOL0     C 8863   2.504  10.079   6.922  0.1533  0.0463  1.0086
  807MOL0     C 8864   2.118   9.927   7.073  0.3093 -0.3390 -1.0803
  807MOL0     C 8865   2.148   9.839   7.176  0.3265  0.5882 -0.0066
  807MOL0     C 8866   2.054   9.754   7.220  0.3872  0.2529  0.1831
  807MOL0     C 8867   1.934   9.730   7.154 -0.0634 -0.0460 -1.0030
  807MOL0     O 8868   1.851   9.630   7.202  0.0837  0.8553  0.2515
  807MOL0     C 8869   1.711   9.628   7.192  0.7095 -0.6914  0.2080
  807MOL0     C 8870   1.675   9.555   7.068 -0.1484  0.6161  0.3155
  807MOL0     C 8871   1.696   9.406   7.074 -0.0060 -0.4127  0.5777
  807MOL0     C 8872   1.650   9.334   6.947 -0.8919 -0.6166 -0.1086
  807MOL0     C 8873   1.505   9.343   6.941 -1.0754 -0.9703 -0.5653
  807MOL0     C 8874   1.384   9.354   6.946  0.9034 -0.3560  0.2116
  807MOL0     C 8875   1.899   9.830   7.060  0.6301 -0.0588 -0.0653
  807MOL0     C 8876   1.988   9.925   7.020  1.1068  0.0656  0.2714
  807MOL0     C 8877   1.942  10.033   6.925 -0.3130  0.2958 -0.1493
  807MOL0     H 8878   2.535  10.096   7.251 -1.0773 -1.3138 -0.7746
  807MOL0     H 8879   2.746  10.215   7.185  0.1149 -0.3774  1.2563
  807MOL0     H 8880   2.907  10.328   7.087 -2.1122 -1.5649  0.3403
  807MOL0     H 8881   2.987  10.177   7.012  0.3986  0.2171  0.3295
  807MOL0     H 8882   3.002  10.454   6.910  0.3098 -0.4493 -1.2189
  807MOL0     H 8883   3.105  10.315   6.854  1.0357  0.9979 -0.3840
  807MOL0     H 8884   3.253  10.329   7.018 -0.2000  0.0026 -2.0943
  807MOL0     H 8885   3.131  10.378   7.140 -2.3704  2.5055  0.6138
  807MOL0     H 8886   3.125  10.610   7.040 -0.6667 -0.0604 -0.9936
  807MOL0     H 8887   3.256  10.552   7.144 -0.3542 -2.0270  0.6896
  807MOL0     H 8888   3.378  10.504   6.906  0.9757  3.2333 -2.5353
  807MOL0     H 8889   3.271  10.618   6.848 -0.9975  2.6998  1.1433
  807MOL0     H 8890   3.336  10.774   7.051  1.7743  3.7612 -0.7822
  807MOL0     H 8891   3.459  10.651   7.080 -1.2765 -1.7301 -0.6732
  807MOL0     H 8892   3.426  10.803   6.821 -1.3830  2.0400  2.2807
  807MOL0     H 8893   3.577  10.714   6.861 -0.0905 -2.3293  2.1215
  807MOL0     H 8894   3.567  10.987   6.906  3.4969 -1.0627  1.1723
  807MOL0     H 8895   3.460  10.936   7.036 -0.9860 -0.7614  0.4294
  807MOL0     H 8896   3.817  10.885   6.898 -2.5192 -0.6807  0.1227
  807MOL0     H 8897   4.032  10.879   7.239  1.7990 -0.0844 -0.9293
  807MOL0     H 8898   4.064  10.824   7.075  1.3465  0.3536  0.7945
  807MOL0     H 8899   4.006  11.091   7.012 -0.9848 -2.6967  0.6138
  807MOL0     H 8900   4.076  11.109   7.179  2.6834  1.2612  0.0221
  807MOL0     H 8901   4.231  11.134   6.995 -0.0890 -0.6847 -3.5772
  807MOL0     H 8902   4.192  10.971   6.933 -0.7531 -0.6997  0.3972
  807MOL0     H 8903   4.296  10.865   7.135 -0.2916  0.7361  0.7479
  807MOL0     H 8904   4.324  11.034   7.203  0.0028  1.0959 -0.5562
  807MOL0     H 8905   4.657  11.038   6.906  2.5671  1.1365 -0.7283
  807MOL0     H 8906   4.875  11.081   7.010 -0.3599 -0.4436 -1.7148
  807MOL0     H 8907   5.122  11.319   7.338  1.9130  1.0472  1.3832
  807MOL0     H 8908   5.352  11.362   7.396  2.3503 -0.0970 -0.6115
  807MOL0     H 8909   5.677  11.103   7.504  0.3343 -0.3971  0.2346
  807MOL0     H 8910   5.659  11.030   7.350  2.1600  0.7686 -1.0349
  807MOL0     H 8911   5.717  11.233   7.230  0.3670  1.4058  0.7738
  807MOL0     H 8912   5.777  11.300   7.382 -1.3108  0.2386  0.9043
  807MOL0     H 8913   5.862  11.042   7.248  0.6533  1.0194 -1.7800
  807MOL0     H 8914   5.956  11.203   7.235  3.8317  0.5041  2.4605
  807MOL0     H 8915   5.921  11.072   7.504  1.0427 -0.7189  0.5561
  807MOL0     H 8916   6.001  11.218   7.459  0.8090  1.2861 -1.6551
  807MOL0     H 8917   6.083  10.945   7.376  1.1784  0.6744  3.0093
  807MOL0     H 8918   6.154  11.032   7.504 -1.5761  0.3151  1.3140
  807MOL0     H 8919   6.164  11.070   7.199 -0.6720 -1.4310  0.9527
  807MOL0     H 8920   6.196  11.206   7.286  1.3585 -0.2194  0.5351
  807MOL0     H 8921   6.378  10.961   7.331  1.3905  0.0209 -0.6719
  807MOL0     H 8922   6.389  11.117   7.399  0.1099 -1.2879  0.1165
  807MOL0     H 8923   6.512  11.037   7.165  1.6150  1.0655  1.7118
  807MOL0     H 8924   6.361  11.094   7.092  1.0233  1.0900 -0.1608
  807MOL0     H 8925   5.468  10.971   7.274 -1.5082 -1.5884  0.2514
  807MOL0     H 8926   5.228  10.927   7.198 -0.9148  2.1409 -2.0079
  807MOL0     H 8927   4.710  10.959   7.378  0.9460 -0.2827 -1.2505
  807MOL0     H 8928   4.494  10.911   7.274 -0.2533 -1.1142 -1.5394
  807MOL0     H 8929   2.646  10.142   6.777 -0.1019 -0.3232 -0.0863
  807MOL0     H 8930   2.430  10.056   6.846  2.0107  1.5182 -1.3816
  807MOL0     H 8931   2.235   9.827   7.239  0.8775 -0.8122 -1.0086
  807MOL0     H 8932   2.077   9.686   7.301  1.7087  1.6838  1.0480
  807MOL0     H 8933   1.692   9.736   7.187  4.9174  0.2228 -0.3477
  807MOL0     H 8934   1.671   9.584   7.283 -0.5764 -0.7180 -0.3566
  807MOL0     H 8935   1.735   9.588   6.983  1.9114 -1.0854  1.0130
  807MOL0     H 8936   1.567   9.567   7.059 -0.3427 -0.7840  0.5710
  807MOL0     H 8937   1.646   9.369   7.165  1.6854 -1.2546  1.2182
  807MOL0     H 8938   1.798   9.379   7.102 -0.3932 -1.1591  1.3704
  807MOL0     H 8939   1.681   9.388   6.857 -1.5206 -1.7338 -1.0121
  807MOL0     H 8940   1.675   9.228   6.949  1.6592 -0.0849  1.5246
  807MOL0     H 8941   1.278   9.355   6.929  0.4190 -0.5656  2.8491
  807MOL0     H 8942   1.794   9.829   7.034  0.8159 -0.2019 -0.8272
  807MOL0     H 8943   1.961  10.130   6.972  1.1666  0.6354 -1.3784
  807MOL0     H 8944   2.001  10.038   6.833 -1.4252  1.9153 -0.8356
  807MOL0     H 8945   1.838  10.016   6.895 -0.9544 -1.7282  2.8026
  808MOL0     O 8946   3.312   9.753   6.546 -0.7792  0.7006  0.6092
  808MOL0     C 8947   3.266   9.644   6.585 -1.2126  1.1160  0.1143
  808MOL0     O 8948   3.330   9.561   6.670 -0.2359  0.3829  0.3425
  808MOL0     C 8949   3.462   9.571   6.707 -0.2612 -0.5603 -0.3786
  808MOL0     C 8950   3.503   9.507   6.825 -0.0194  0.2635  0.5781
  808MOL0     C 8951   3.634   9.506   6.867 -0.3310 -0.3895 -0.5109
  808MOL0     C 8952   3.734   9.575   6.792  0.3854  0.1615 -0.7812
  808MOL0     O 8953   3.861   9.566   6.844  0.5888 -0.2870  0.3633
  808MOL0     C 8954   3.964   9.642   6.778  0.7493  0.1860 -0.2454
  808MOL0     C 8955   3.965   9.783   6.826 -0.3096 -0.2417  0.0688
  808MOL0     C 8956   4.085   9.865   6.778  0.5929 -0.4282  0.1033
  808MOL0     C 8957   4.197   9.834   6.882 -0.4160 -0.1311  0.0296
  808MOL0     C 8958   4.314   9.926   6.870 -0.7227 -0.2397 -0.6723
  808MOL0     C 8959   4.368   9.945   6.727  0.4188  0.7316 -0.3076
  808MOL0     C 8960   4.495  10.033   6.711 -0.5030  0.1490  0.2451
  808MOL0     C 8961   4.528  10.065   6.567 -0.4297  0.8035 -0.1321
  808MOL0     N 8962   4.648  10.146   6.560 -0.1463  0.9781 -0.9147
  808MOL0     C 8963   4.651  10.279   6.555 -0.0016 -0.1961 -0.3544
  808MOL0     C 8964   4.783  10.309   6.549  0.1327  0.3942  0.4163
  808MOL0     C 8965   4.841  10.448   6.552  0.6198 -0.0071 -0.1249
  808MOL0     C 8966   4.925  10.469   6.680  0.7061 -0.7451  0.4762
  808MOL0     C 8967   4.989  10.615   6.676  0.6748  0.6224 -0.8543
  808MOL0     C 8968   5.106  10.639   6.770 -0.5330  0.2697 -1.1643
  808MOL0     O 8969   5.135  10.779   6.759 -0.1424  0.0831  0.6848
  808MOL0     C 8970   5.261  10.822   6.741 -0.3044  0.8086  0.4803
  808MOL0     C 8971   5.362  10.737   6.681 -0.4083  0.0884 -0.0301
  808MOL0     C 8972   5.491  10.788   6.670 -0.5134  0.9097  0.2682
  808MOL0     C 8973   5.524  10.921   6.707 -0.1625  0.2374 -0.3300
  808MOL0     C 8974   5.663  10.977   6.708  0.6784  0.5590 -1.2396
  808MOL0     O 8975   5.672  11.093   6.771  0.1514  0.2216 -0.1214
  808MOL0     C 8976   5.790  11.159   6.763 -0.0365 -0.3430  0.1872
  808MOL0     C 8977   5.883  11.141   6.867  0.7004 -0.4738 -0.0074
  808MOL0     C 8978   5.995  11.227   6.871  0.3514 -0.2070 -1.0371
  808MOL0     C 8979   6.022  11.328   6.778 -0.4028  1.0233 -0.2939
  808MOL0     O 8980   6.149  11.393   6.787  0.6302  0.7286 -0.7831
  808MOL0     C 8981   6.158  11.521   6.720  0.2573  1.0042 -0.3363
  808MOL0     C 8982   6.273  11.616   6.744  0.4690 -0.7969 -0.2398
  808MOL0     C 8983   6.408  11.566   6.726  0.3793 -1.1708 -0.1560
  808MOL0     C 8984   6.532  11.654   6.746  0.8867 -0.4747 -0.1315
  808MOL0     C 8985   6.535  11.720   6.888  1.2602 -0.2107  0.0706
  808MOL0     C 8986   6.521  11.630   7.009 -0.5133  0.2748  0.3090
  808MOL0     C 8987   6.549  11.717   7.133 -0.6655  1.1450 -0.2158
  808MOL0     C 8988   6.555  11.640   7.270  0.4157 -0.2219  0.4106
  808MOL0    Cl 8989   6.536  11.752   7.404  0.0475 -0.2137  0.2856
  808MOL0     C 8990   5.934  11.346   6.666  0.1591 -0.4655 -0.1622
  808MOL0     C 8991   5.817  11.264   6.668 -0.6040 -0.4105  0.7171
  808MOL0     O 8992   5.752  10.926   6.644 -0.3109  0.3536  0.7353
  808MOL0     C 8993   5.422  11.002   6.756  0.8598  0.9642  0.2670
  808MOL0     C 8994   5.294  10.951   6.767 -0.4841  0.6654 -0.3330
  808MOL0     N 8995   4.854  10.191   6.527  0.0878  0.6559 -0.0300
  808MOL0     N 8996   4.772  10.087   6.560  0.0071  0.6099  0.1898
  808MOL0     C 8997   3.700   9.626   6.666  0.4379 -0.6145 -0.7649
  808MOL0     C 8998   3.567   9.619   6.628  0.9896 -1.2007  0.6975
  808MOL0     C 8999   3.140   9.603   6.551  0.8532 -0.1097 -0.0165
  808MOL0     C 9000   3.116   9.558   6.425 -0.1673 -0.3946 -0.2118
  808MOL0     C 9001   2.991   9.513   6.381 -0.7327  0.5673 -0.5439
  808MOL0     C 9002   2.883   9.516   6.467 -0.2179 -0.0757 -0.0962
  808MOL0     O 9003   2.764   9.495   6.406 -0.0297 -0.2587 -0.2614
  808MOL0     C 9004   2.646   9.533   6.475 -0.5255  0.1172 -0.3484
  808MOL0     C 9005   2.525   9.441   6.432 -0.5093  0.1058  0.1765
  808MOL0     C 9006   2.467   9.480   6.301  0.6522  0.5654 -0.0454
  808MOL0     C 9007   2.327   9.417   6.264 -0.2906  0.8291 -0.2064
  808MOL0     C 9008   2.223   9.475   6.344  0.1009  0.1025 -0.5596
  808MOL0     C 9009   2.142   9.517   6.426 -0.0915  0.1465 -0.3290
  808MOL0     C 9010   2.905   9.551   6.600 -0.2067 -0.1312  0.4431
  808MOL0     C 9011   3.029   9.605   6.639 -0.2646  0.6031  0.0941
  808MOL0     C 9012   3.051   9.678   6.771 -0.6064 -0.5561 -0.6186
  808MOL0     H 9013   3.431   9.455   6.888 -0.3929 -2.0190 -1.5636
  808MOL0     H 9014   3.661   9.463   6.963 -1.8884  1.0766  0.6459
  808MOL0     H 9015   4.058   9.598   6.813  0.6333  1.1635  1.4045
  808MOL0     H 9016   3.965   9.633   6.669  1.2063  1.3373 -0.3412
  808MOL0     H 9017   3.940   9.786   6.933  0.8195 -1.0810  0.3766
  808MOL0     H 9018   3.886   9.835   6.771  0.3561  0.8238  0.0932
  808MOL0     H 9019   4.065   9.972   6.771 -0.0520 -0.3806  2.0866
  808MOL0     H 9020   4.106   9.839   6.674 -3.6462 -0.0528 -1.0270
  808MOL0     H 9021   4.166   9.844   6.987  1.6908 -0.8733  0.7724
  808MOL0     H 9022   4.231   9.731   6.865 -2.1249 -0.5727 -0.9447
  808MOL0     H 9023   4.286  10.025   6.906 -3.0336 -0.6058 -1.2771
  808MOL0     H 9024   4.403   9.899   6.928  1.1919  1.2947 -2.7100
  808MOL0     H 9025   4.388   9.843   6.691 -3.0404  0.1289 -0.9725
  808MOL0     H 9026   4.288   9.998   6.674 -0.8196  0.5055  1.2617
  808MOL0     H 9027   4.579   9.978   6.754 -1.6424 -1.7393  0.1569
  808MOL0     H 9028   4.475  10.126   6.766 -0.2520 -0.1263  0.8144
  808MOL0     H 9029   4.542   9.969   6.516  1.8613  0.3918  1.1562
  808MOL0     H 9030   4.445  10.120   6.522 -0.3811  2.2787  1.4606
  808MOL0     H 9031   4.569  10.349   6.550  0.6140  0.6871  1.1155
  808MOL0     H 9032   4.903  10.468   6.464  0.2644  3.2657  0.2450
  808MOL0     H 9033   4.756  10.516   6.546  1.4389  0.9471 -2.0427
  808MOL0     H 9034   4.857  10.456   6.765 -1.5539 -1.1687 -1.3192
  808MOL0     H 9035   4.998  10.387   6.691  0.6518 -0.7659  0.6859
  808MOL0     H 9036   4.910  10.689   6.691  0.5859  0.2652  0.6369
  808MOL0     H 9037   5.035  10.646   6.582  3.1767 -0.1805  0.0296
  808MOL0     H 9038   5.191  10.571   6.757 -0.0979 -0.2709  2.9092
  808MOL0     H 9039   5.077  10.625   6.875 -1.1030  4.1567 -0.6519
  808MOL0     H 9040   5.351  10.634   6.648 -1.7455  0.4371 -0.7417
  808MOL0     H 9041   5.568  10.716   6.645 -1.4554 -0.1533  0.3484
  808MOL0     H 9042   5.863  11.069   6.946 -1.4258  1.2915  1.1737
  808MOL0     H 9043   6.049  11.208   6.963 -1.9976 -0.6825  0.3166
  808MOL0     H 9044   6.165  11.493   6.614 -2.1433 -1.8165  0.1170
  808MOL0     H 9045   6.074  11.586   6.746 -0.2344 -0.2680  1.4990
  808MOL0     H 9046   6.257  11.704   6.683  2.7699  0.1067  0.3673
  808MOL0     H 9047   6.277  11.641   6.851 -0.8116 -4.0937  0.7393
  808MOL0     H 9048   6.414  11.475   6.787 -2.2169 -1.0719  0.3877
  808MOL0     H 9049   6.406  11.536   6.620 -1.0289  0.1261 -0.5225
  808MOL0     H 9050   6.553  11.733   6.673  2.8192 -1.7969 -1.0991
  808MOL0     H 9051   6.614  11.582   6.733  1.9115  0.6568 -0.0545
  808MOL0     H 9052   6.460  11.799   6.892  2.6711  1.1646  0.3127
  808MOL0     H 9053   6.630  11.774   6.897  0.5735  0.6992  2.3905
  808MOL0     H 9054   6.422  11.584   7.007 -1.1244  1.4974  1.3684
  808MOL0     H 9055   6.589  11.544   7.002 -1.6491 -0.5967 -0.4105
  808MOL0     H 9056   6.473  11.795   7.136 -1.8313  0.0427  1.9495
  808MOL0     H 9057   6.648  11.765   7.127 -0.7485  1.2200 -1.1295
  808MOL0     H 9058   6.473  11.568   7.270  0.2485 -0.0646 -1.0239
  808MOL0     H 9059   6.649  11.589   7.291  0.5985  0.1851  0.5758
  808MOL0     H 9060   5.951  11.424   6.593 -0.2938 -0.4190 -0.2210
  808MOL0     H 9061   5.732  11.286   6.605 -1.4990 -1.8382  1.3664
  808MOL0     H 9062   5.432  11.106   6.786  1.1048  0.4739  2.0070
  808MOL0     H 9063   5.221  11.025   6.799 -1.8386 -0.3365 -1.0558
  808MOL0     H 9064   3.767   9.663   6.589  0.3637  0.6220 -0.2626
  808MOL0     H 9065   3.548   9.674   6.536 -1.8246 -2.3904  0.4606
  808MOL0     H 9066   3.201   9.553   6.357 -1.3190  1.6716 -1.9470
  808MOL0     H 9067   2.967   9.480   6.280  1.7315 -0.7944 -0.7710
  808MOL0     H 9068   2.625   9.636   6.445 -0.4430  0.5880  1.1474
  808MOL0     H 9069   2.643   9.530   6.584  0.8234 -2.2551 -0.3057
  808MOL0     H 9070   2.449   9.447   6.510 -0.1479 -0.9890  0.6448
  808MOL0     H 9071   2.557   9.336   6.432  2.5390  0.9265 -0.5460
  808MOL0     H 9072   2.544   9.452   6.228 -0.0525 -1.1478 -0.1794
  808MOL0     H 9073   2.456   9.588   6.297 -3.8158  0.3217  0.5586
  808MOL0     H 9074   2.302   9.445   6.161 -0.4632 -1.8253 -0.9766
  808MOL0     H 9075   2.313   9.309   6.280  2.1269  0.6513  1.3011
  808MOL0     H 9076   2.078   9.522   6.511 -0.9346 -0.9171 -0.8715
  808MOL0     H 9077   2.825   9.549   6.673 -1.8174 -1.2731 -1.2574
  808MOL0     H 9078   3.145   9.655   6.821  0.2073  0.9217 -1.4013
  808MOL0     H 9079   3.032   9.785   6.754 -0.1450 -0.8677 -3.6524
  808MOL0     H 9080   2.979   9.644   6.846  0.0173  0.2249  0.3468
  809MOL0     O 9081   4.239   1.462   8.232  0.2376  0.2928 -0.4189
  809MOL0     C 9082   4.238   1.345   8.291 -0.5806 -0.7466  1.4413
  809MOL0     O 9083   4.343   1.260   8.289 -0.2859  0.3425  0.4933
  809MOL0     C 9084   4.458   1.282   8.219  0.2576 -0.2156 -0.4085
  809MOL0     C 9085   4.521   1.184   8.137  0.2304  0.3740 -0.3547
  809MOL0     C 9086   4.637   1.212   8.071  0.6146  0.4500  0.0326
  809MOL0     C 9087   4.698   1.340   8.073 -0.5877 -0.0993 -0.4837
  809MOL0     O 9088   4.809   1.398   8.014 -0.5204  0.1631 -0.3305
  809MOL0     C 9089   4.923   1.312   7.992 -0.2780  0.2665  0.3620
  809MOL0     C 9090   5.053   1.385   7.956 -0.2250 -0.1751 -1.2080
  809MOL0     C 9091   5.167   1.302   7.921 -0.8122 -0.0237  0.6562
  809MOL0     C 9092   5.289   1.385   7.870  0.3122  0.5481  0.2644
  809MOL0     C 9093   5.386   1.298   7.792  0.1854  0.3218 -0.9745
  809MOL0     C 9094   5.480   1.380   7.698  0.5182 -0.3268 -0.4834
  809MOL0     C 9095   5.592   1.287   7.657  0.2789  0.5604 -0.0446
  809MOL0     C 9096   5.701   1.377   7.589 -0.3001  0.3401 -0.1260
  809MOL0     N 9097   5.763   1.474   7.686  0.1870  0.1009 -0.1934
  809MOL0     C 9098   5.738   1.606   7.673 -0.3887  1.0543 -0.1495
  809MOL0     C 9099   5.836   1.663   7.745 -0.1054  0.3113 -1.5065
  809MOL0     C 9100   5.849   1.808   7.791 -0.7076 -0.1269  0.5719
  809MOL0     C 9101   5.951   1.884   7.698 -0.6427  0.6122 -0.0264
  809MOL0     C 9102   6.096   1.851   7.744  0.2534 -0.0023  0.0882
  809MOL0     C 9103   6.196   1.951   7.678  0.2124  0.1207 -0.5985
  809MOL0     O 9104   6.309   1.937   7.756  0.1988  0.1194 -1.0048
  809MOL0     C 9105   6.429   1.993   7.719  0.8712 -0.6210  0.2144
  809MOL0     C 9106   6.553   1.966   7.785 -0.7033  0.0094  0.2867
  809MOL0     C 9107   6.670   2.015   7.727 -0.2425 -0.9037  0.6396
  809MOL0     C 9108   6.670   2.098   7.614 -0.0623 -0.1269 -0.9723
  809MOL0     C 9109   6.794   2.143   7.561 -0.0247 -0.1085 -1.1332
  809MOL0     O 9110   6.822   2.121   7.432 -0.5276 -0.2858  0.5530
  809MOL0     C 9111   6.930   2.183   7.379 -0.2460 -0.1980  0.8684
  809MOL0     C 9112   7.062   2.144   7.417 -0.2550 -0.5130  0.1516
  809MOL0     C 9113   7.174   2.217   7.370 -0.0361 -0.7992 -0.2861
  809MOL0     C 9114   7.151   2.339   7.292  0.0367  0.0828 -0.5175
  809MOL0     O 9115   7.256   2.417   7.259 -0.2243  0.2840 -0.1839
  809MOL0     C 9116   7.283   2.415   7.116  0.5700 -0.1970 -0.3567
  809MOL0     C 9117   7.364   2.545   7.102 -0.7966 -0.4971 -0.2875
  809MOL0     C 9118   7.412   2.547   6.954  1.4165  0.3732  0.2364
  809MOL0     C 9119   7.467   2.677   6.906  0.5010  0.0234 -0.0444
  809MOL0     C 9120   7.607   2.675   6.840 -0.8137  0.1993 -0.3307
  809MOL0     C 9121   7.721   2.657   6.949 -0.1691  0.0701  0.2447
  809MOL0     C 9122   7.854   2.603   6.888 -0.0558 -0.5857  0.5265
  809MOL0     C 9123   7.962   2.569   6.995  0.4622  0.0694  0.1315
  809MOL0    Cl 9124   7.988   2.726   7.095  0.0232 -0.1382  0.0532
  809MOL0     C 9125   7.013   2.374   7.254  0.3819  0.4538  0.0225
  809MOL0     C 9126   6.912   2.293   7.300  0.2010 -0.2879  0.6581
  809MOL0     O 9127   6.859   2.203   7.646  0.4936 -0.2494  1.0769
  809MOL0     C 9128   6.546   2.136   7.559  0.0180 -0.8680  0.3859
  809MOL0     C 9129   6.429   2.087   7.613 -0.3471  0.3653  0.0949
  809MOL0     N 9130   5.906   1.560   7.819 -0.2965 -0.2387 -0.2442
  809MOL0     N 9131   5.851   1.449   7.778 -0.6544 -0.4928  0.0382
  809MOL0     C 9132   4.638   1.434   8.167  0.6400 -0.6930  0.0765
  809MOL0     C 9133   4.521   1.407   8.242 -0.4835  0.2128  0.9050
  809MOL0     C 9134   4.113   1.306   8.353  0.3381 -0.2423 -0.4284
  809MOL0     C 9135   4.041   1.400   8.429 -0.0779 -0.3056 -0.0577
  809MOL0     C 9136   3.930   1.361   8.506  0.3204  0.6429 -0.5564
  809MOL0     C 9137   3.873   1.233   8.495 -0.6053  0.0368  0.2240
  809MOL0     O 9138   3.769   1.205   8.578 -0.7506 -0.0103  0.4030
  809MOL0     C 9139   3.710   1.080   8.578  0.7177  0.4483 -0.2431
  809MOL0     C 9140   3.585   1.094   8.665  0.9869 -0.9026  0.5495
  809MOL0     C 9141   3.521   0.952   8.688  0.8862 -0.0003  0.9653
  809MOL0     C 9142   3.411   0.947   8.789  0.2768  0.3645 -0.7790
  809MOL0     C 9143   3.349   0.812   8.804 -0.0870 -0.0988  0.3523
  809MOL0     C 9144   3.294   0.707   8.824  0.4648  0.1132 -0.0288
  809MOL0     C 9145   3.930   1.144   8.404  0.6410  0.4417 -0.0334
  809MOL0     C 9146   4.054   1.178   8.341 -0.5082  0.4408 -0.5902
  809MOL0     C 9147   4.122   1.065   8.263  0.1506 -0.4589  0.3140
  809MOL0     H 9148   4.470   1.088   8.130 -0.4225  0.7840 -1.3601
  809MOL0     H 9149   4.681   1.136   8.006  0.9696  0.0973  0.6732
  809MOL0     H 9150   4.946   1.256   8.082 -0.7979  2.6031  2.0459
  809MOL0     H 9151   4.911   1.241   7.910 -2.0670 -1.0696  1.7096
  809MOL0     H 9152   5.076   1.444   8.045 -1.0062 -3.2147  1.1676
  809MOL0     H 9153   5.018   1.453   7.877 -3.2271 -1.6960 -1.3512
  809MOL0     H 9154   5.144   1.232   7.840  1.1342 -0.3795  0.3427
  809MOL0     H 9155   5.200   1.243   8.008  0.8154  3.1178  2.3682
  809MOL0     H 9156   5.246   1.463   7.806  0.3142 -1.7486 -2.7693
  809MOL0     H 9157   5.334   1.436   7.955 -0.7511  2.2938 -0.1795
  809MOL0     H 9158   5.427   1.233   7.869 -2.1422  0.4985  0.5062
  809MOL0     H 9159   5.327   1.239   7.721 -1.6948  0.4577  0.4078
  809MOL0     H 9160   5.426   1.421   7.613  1.6007  0.5202 -0.7806
  809MOL0     H 9161   5.521   1.457   7.764 -1.8173  0.4258  0.1784
  809MOL0     H 9162   5.555   1.214   7.585  0.2789 -0.5004  1.0106
  809MOL0     H 9163   5.631   1.231   7.742 -1.4968  3.2675  2.7703
  809MOL0     H 9164   5.783   1.311   7.557 -0.2193 -0.0919  0.9175
  809MOL0     H 9165   5.660   1.429   7.503  3.1614  2.5625 -0.6226
  809MOL0     H 9166   5.652   1.657   7.630 -1.4404  0.4076  1.0978
  809MOL0     H 9167   5.750   1.854   7.778 -1.0713 -0.8565  0.7586
  809MOL0     H 9168   5.876   1.825   7.896 -0.0935  3.0340  0.0253
  809MOL0     H 9169   5.946   1.846   7.596  0.9744  0.3158 -0.0158
  809MOL0     H 9170   5.937   1.993   7.698 -0.1573  0.7321  2.6114
  809MOL0     H 9171   6.137   1.752   7.721 -0.3011 -0.2092 -0.0254
  809MOL0     H 9172   6.098   1.847   7.854  1.7536  1.5789  0.1590
  809MOL0     H 9173   6.151   2.049   7.691 -3.0981 -1.3791  0.3645
  809MOL0     H 9174   6.211   1.928   7.572  0.6970 -1.9937 -0.1254
  809MOL0     H 9175   6.569   1.888   7.858  0.9570 -0.7838 -0.8523
  809MOL0     H 9176   6.760   1.979   7.775 -1.4209 -1.9801  2.1494
  809MOL0     H 9177   7.073   2.053   7.476  0.4435 -0.5775 -0.0650
  809MOL0     H 9178   7.274   2.179   7.391 -0.9220 -2.9859  0.1828
  809MOL0     H 9179   7.335   2.328   7.077  2.5017  1.4270 -1.5523
  809MOL0     H 9180   7.189   2.432   7.062  1.4197  1.9309 -1.3037
  809MOL0     H 9181   7.295   2.628   7.121 -2.2896 -0.5070 -4.6006
  809MOL0     H 9182   7.453   2.555   7.164 -0.2906  2.0319 -1.3052
  809MOL0     H 9183   7.481   2.464   6.936 -1.5413 -2.8014  2.4146
  809MOL0     H 9184   7.326   2.522   6.892  1.5339 -0.1411  0.2784
  809MOL0     H 9185   7.462   2.758   6.980 -0.9549 -0.2862  0.2294
  809MOL0     H 9186   7.406   2.702   6.818  1.3316  1.2742 -0.2968
  809MOL0     H 9187   7.628   2.769   6.787 -0.6924 -0.1252 -0.8695
  809MOL0     H 9188   7.608   2.595   6.766 -1.8204  0.5725 -0.7804
  809MOL0     H 9189   7.748   2.751   6.997  0.2997 -2.0012  4.4299
  809MOL0     H 9190   7.687   2.584   7.023  1.4427 -0.8618  0.1078
  809MOL0     H 9191   7.901   2.675   6.821  2.0360 -3.6599 -1.5876
  809MOL0     H 9192   7.842   2.517   6.822 -0.7067  0.5484 -0.8807
  809MOL0     H 9193   7.936   2.490   7.066  1.4358 -0.5391 -0.1592
  809MOL0     H 9194   8.052   2.531   6.944 -0.5838 -0.2317 -1.5512
  809MOL0     H 9195   6.984   2.447   7.180 -0.5451  1.5070  1.3666
  809MOL0     H 9196   6.809   2.315   7.274  0.1735 -0.4603  0.6219
  809MOL0     H 9197   6.546   2.206   7.476  2.5570  0.0511  1.0662
  809MOL0     H 9198   6.348   2.130   7.555 -0.0744 -0.3852 -0.8696
  809MOL0     H 9199   4.691   1.528   8.163  2.0334 -1.3271  2.2426
  809MOL0     H 9200   4.475   1.467   8.320 -0.3228  1.2359  0.2306
  809MOL0     H 9201   4.079   1.502   8.423 -1.7073  0.2766 -1.0435
  809MOL0     H 9202   3.874   1.427   8.571  0.6663  0.4309 -0.0334
  809MOL0     H 9203   3.787   1.008   8.609  1.4294  2.5890  3.4953
  809MOL0     H 9204   3.670   1.061   8.477  0.9606  0.1209 -0.2801
  809MOL0     H 9205   3.510   1.154   8.612  2.7741 -0.3907 -1.5561
  809MOL0     H 9206   3.605   1.148   8.758  0.9087  0.1695 -0.0399
  809MOL0     H 9207   3.602   0.881   8.710  1.8888  1.0837  0.8377
  809MOL0     H 9208   3.476   0.932   8.590  0.1930 -0.1981  1.3165
  809MOL0     H 9209   3.447   0.992   8.881  1.4223  1.5464 -1.7738
  809MOL0     H 9210   3.336   1.013   8.744 -0.5945 -0.6100 -0.8027
  809MOL0     H 9211   3.261   0.605   8.837  1.2415 -0.9579 -4.4681
  809MOL0     H 9212   3.887   1.046   8.386 -2.8575  1.3983  2.1609
  809MOL0     H 9213   4.168   1.107   8.173 -1.2652 -0.4625 -0.4386
  809MOL0     H 9214   4.208   1.014   8.308  0.9823  0.8477  0.2646
  809MOL0     H 9215   4.042   0.997   8.232 -0.3527  0.3940 -0.2923
  810MOL0     O 9216   2.795  11.127   8.661 -0.3990 -0.1937 -0.1010
  810MOL0     C 9217   2.750  11.164   8.769 -0.7783 -1.6206 -0.1176
  810MOL0     O 9218   2.817  11.244   8.856 -0.5973 -0.2819  0.0557
  810MOL0     C 9219   2.946  11.285   8.822  1.0396 -0.2631  0.9840
  810MOL0     C 9220   3.058  11.219   8.868  0.5125  0.7123  1.3682
  810MOL0     C 9221   3.188  11.243   8.824  0.5194 -0.7594 -0.1422
  810MOL0     C 9222   3.203  11.345   8.729 -0.1286  1.3988 -0.0666
  810MOL0     O 9223   3.325  11.383   8.679  1.2327  0.2481 -0.1299
  810MOL0     C 9224   3.428  11.278   8.664  0.2535 -0.1937 -0.5206
  810MOL0     C 9225   3.557  11.335   8.603 -0.6881 -0.6432  0.8822
  810MOL0     C 9226   3.677  11.239   8.628 -0.0563 -0.4316 -0.1700
  810MOL0     C 9227   3.813  11.299   8.593  1.0872 -0.3841  0.6860
  810MOL0     C 9228   3.925  11.190   8.604 -1.2715  0.2447  0.5527
  810MOL0     C 9229   4.064  11.250   8.560 -0.2074 -0.0575 -0.4725
  810MOL0     C 9230   4.169  11.142   8.563 -0.0204 -0.0533  0.3993
  810MOL0     C 9231   4.308  11.194   8.529 -0.2063  0.8912  0.3961
  810MOL0     N 9232   4.414  11.096   8.565 -0.0715  0.5124  0.2453
  810MOL0     C 9233   4.511  11.037   8.485  0.6336 -0.1152 -0.9564
  810MOL0     C 9234   4.585  10.958   8.563  0.1568 -0.0340 -0.7424
  810MOL0     C 9235   4.697  10.872   8.522 -0.6246  0.0918 -0.2344
  810MOL0     C 9236   4.837  10.932   8.480  0.1053 -0.0394  0.2800
  810MOL0     C 9237   4.939  10.941   8.603 -0.1508 -0.2294 -0.3878
  810MOL0     C 9238   5.075  10.989   8.540 -0.2716  0.1321  0.3080
  810MOL0     O 9239   5.186  10.932   8.616  0.7808  0.4284  0.3351
  810MOL0     C 9240   5.311  10.964   8.574  0.5316  0.2853  0.0123
  810MOL0     C 9241   5.342  11.018   8.447  0.1707 -0.0756  0.2876
  810MOL0     C 9242   5.477  11.029   8.394  0.4100 -0.2679 -0.3007
  810MOL0     C 9243   5.580  11.002   8.490 -0.2107 -0.2122  0.3663
  810MOL0     C 9244   5.727  11.008   8.454  0.8638  0.2025 -0.5803
  810MOL0     O 9245   5.818  10.958   8.545  0.0626  0.4042 -0.2667
  810MOL0     C 9246   5.949  11.006   8.524 -0.4112 -0.3162 -0.2862
  810MOL0     C 9247   6.018  10.981   8.404 -0.8681  0.3376 -0.9970
  810MOL0     C 9248   6.154  11.011   8.389  0.4837  0.4222 -0.5102
  810MOL0     C 9249   6.219  11.073   8.502  0.4266 -0.6874  0.3004
  810MOL0     O 9250   6.354  11.115   8.494 -0.1180 -0.4491 -0.0696
  810MOL0     C 9251   6.380  11.190   8.377  0.2007  0.1337 -0.5934
  810MOL0     C 9252   6.489  11.296   8.398  0.1969  0.3775  0.2364
  810MOL0     C 9253   6.462  11.370   8.524 -0.4747 -0.1194 -0.2054
  810MOL0     C 9254   6.553  11.495   8.533 -0.0115 -0.2630  1.0731
  810MOL0     C 9255   6.489  11.588   8.641 -0.8154  0.1003  0.4419
  810MOL0     C 9256   6.600  11.676   8.713  0.6482  0.3105  1.3023
  810MOL0     C 9257   6.687  11.760   8.614  0.2350 -0.4910  0.5196
  810MOL0     C 9258   6.736  11.891   8.672  0.3575 -0.5262  0.3651
  810MOL0    Cl 9259   6.612  11.980   8.771 -0.0461  0.5040 -0.5971
  810MOL0     C 9260   6.155  11.106   8.615 -0.6958  0.7842 -0.0178
  810MOL0     C 9261   6.022  11.067   8.628 -0.0790 -0.3135 -0.2820
  810MOL0     O 9262   5.755  11.056   8.346 -0.4727 -0.4711  0.1631
  810MOL0     C 9263   5.539  10.965   8.619 -0.2900 -0.1596 -0.0879
  810MOL0     C 9264   5.410  10.938   8.659 -0.2863 -0.3982  0.2167
  810MOL0     N 9265   4.535  10.959   8.688  1.0248 -0.1234 -0.6131
  810MOL0     N 9266   4.428  11.036   8.684  0.4195  0.9181  0.0486
  810MOL0     C 9267   3.093  11.409   8.674 -0.1606  0.1159 -0.3008
  810MOL0     C 9268   2.962  11.377   8.723 -0.1934 -0.4735 -0.1146
  810MOL0     C 9269   2.605  11.136   8.799 -0.1027  0.0977  0.0491
  810MOL0     C 9270   2.523  11.066   8.702 -0.1823 -0.2258 -0.2900
  810MOL0     C 9271   2.386  11.032   8.725  0.3151 -0.2072 -0.1676
  810MOL0     C 9272   2.332  11.058   8.848 -0.1499 -0.6666 -0.3634
  810MOL0     O 9273   2.208  11.022   8.889  0.0406  0.2154  1.0004
  810MOL0     C 9274   2.100  11.079   8.806  0.7676 -0.1622 -0.3360
  810MOL0     C 9275   2.100  11.237   8.827  0.5716 -0.8816  0.3856
  810MOL0     C 9276   2.010  11.307   8.725  0.8184 -0.2287  0.5593
  810MOL0     C 9277   2.025  11.449   8.712 -0.3898 -0.5778 -0.2059
  810MOL0     C 9278   1.925  11.512   8.628 -0.6653  1.1985  0.2222
  810MOL0     C 9279   1.828  11.552   8.559  0.2033 -0.3666  0.3816
  810MOL0     C 9280   2.418  11.114   8.946 -0.0671 -1.0982  0.1648
  810MOL0     C 9281   2.546  11.152   8.927 -0.0653 -0.2402  0.6168
  810MOL0     C 9282   2.609  11.203   9.050  0.3864  0.0365  0.5261
  810MOL0     H 9283   3.049  11.142   8.944  0.2828 -1.3821 -0.6386
  810MOL0     H 9284   3.265  11.180   8.866  0.7414  0.1565  0.8866
  810MOL0     H 9285   3.442  11.235   8.763  2.0828 -2.1337 -1.5519
  810MOL0     H 9286   3.381  11.204   8.598 -5.1836  0.7874  1.7146
  810MOL0     H 9287   3.589  11.429   8.649  0.6436  0.5695 -2.2011
  810MOL0     H 9288   3.549  11.355   8.495 -2.6224  0.3363  1.1609
  810MOL0     H 9289   3.658  11.151   8.566 -0.3920 -0.4639 -0.0220
  810MOL0     H 9290   3.670  11.206   8.732 -0.9561 -1.5847 -0.5793
  810MOL0     H 9291   3.807  11.336   8.491  1.0371 -0.6717  0.5847
  810MOL0     H 9292   3.841  11.376   8.666 -0.8944 -0.0991  1.1995
  810MOL0     H 9293   3.934  11.175   8.712  0.1745  0.7794  0.5363
  810MOL0     H 9294   3.907  11.093   8.558  0.9397 -0.9670  2.0818
  810MOL0     H 9295   4.047  11.277   8.456  1.7347 -0.9607 -1.0841
  810MOL0     H 9296   4.083  11.336   8.625  0.6589  0.8200 -1.8280
  810MOL0     H 9297   4.148  11.062   8.491  0.7194  0.2258 -0.1483
  810MOL0     H 9298   4.166  11.099   8.663 -5.0110 -0.8096  0.1440
  810MOL0     H 9299   4.322  11.227   8.426  0.2426  0.9137  0.4612
  810MOL0     H 9300   4.326  11.277   8.598  0.8883  1.3006 -0.3616
  810MOL0     H 9301   4.524  11.051   8.378  1.7115 -2.2046 -1.1373
  810MOL0     H 9302   4.708  10.803   8.606 -2.5253  4.0552  3.6518
  810MOL0     H 9303   4.655  10.814   8.439 -0.9059  0.7510 -0.5624
  810MOL0     H 9304   4.870  10.884   8.388 -1.5630 -0.1616 -0.2852
  810MOL0     H 9305   4.827  11.033   8.439  2.1903 -0.4157 -1.2929
  810MOL0     H 9306   4.957  10.839   8.636  1.3318 -0.1704 -0.9460
  810MOL0     H 9307   4.905  11.008   8.682  0.6443 -3.8791  3.3563
  810MOL0     H 9308   5.073  11.098   8.543  1.0049  0.1985 -0.5087
  810MOL0     H 9309   5.074  10.944   8.440  3.4314 -0.3733  0.3837
  810MOL0     H 9310   5.262  11.051   8.381  0.2617 -2.0313 -0.8693
  810MOL0     H 9311   5.501  11.061   8.294  2.4629 -1.6937 -0.3454
  810MOL0     H 9312   5.976  10.940   8.313  0.3531  2.3821 -2.5798
  810MOL0     H 9313   6.206  10.987   8.296 -1.1631 -1.6462 -0.9892
  810MOL0     H 9314   6.431  11.120   8.310  2.3494  0.8014  0.2475
  810MOL0     H 9315   6.292  11.231   8.327 -0.0817  1.7255  1.0936
  810MOL0     H 9316   6.583  11.243   8.415  1.4756  2.2904 -0.5801
  810MOL0     H 9317   6.516  11.361   8.314  0.6093  2.2752  1.7590
  810MOL0     H 9318   6.356  11.399   8.523  0.4337  3.9746  0.7124
  810MOL0     H 9319   6.475  11.310   8.615  1.2454  0.1297 -0.2560
  810MOL0     H 9320   6.549  11.544   8.436  1.2535 -0.4128  0.9381
  810MOL0     H 9321   6.651  11.457   8.563 -1.0825 -1.9684  2.6885
  810MOL0     H 9322   6.443  11.527   8.719 -5.4665 -0.1230 -2.1003
  810MOL0     H 9323   6.411  11.655   8.604 -2.5642 -2.1323 -0.1160
  810MOL0     H 9324   6.548  11.741   8.784  0.4458  1.9730 -0.2890
  810MOL0     H 9325   6.665  11.611   8.771 -0.0179  0.1383  1.8721
  810MOL0     H 9326   6.628  11.784   8.525 -0.2766 -1.0109  0.7090
  810MOL0     H 9327   6.778  11.710   8.580  0.0352 -0.7870  0.4213
  810MOL0     H 9328   6.824  11.860   8.729  0.6570 -1.1585 -0.4216
  810MOL0     H 9329   6.767  11.952   8.587 -1.2320 -2.6698 -1.8940
  810MOL0     H 9330   6.207  11.157   8.696 -0.8943  1.9248 -0.5862
  810MOL0     H 9331   5.963  11.087   8.718  0.3462 -3.2142  0.7564
  810MOL0     H 9332   5.628  10.948   8.678 -0.0139  0.9006 -0.1645
  810MOL0     H 9333   5.401  10.902   8.761  0.4392 -1.5217 -0.1022
  810MOL0     H 9334   3.112  11.490   8.604 -0.0067  1.4665  1.2558
  810MOL0     H 9335   2.871  11.419   8.683  0.0079 -0.4208 -0.5284
  810MOL0     H 9336   2.566  11.038   8.606 -1.0435 -2.0664 -0.1594
  810MOL0     H 9337   2.317  10.977   8.662 -1.2190  1.8237 -0.3677
  810MOL0     H 9338   2.007  11.039   8.849  0.5278  0.9116  0.1593
  810MOL0     H 9339   2.110  11.048   8.701  0.4533 -0.0020 -0.4140
  810MOL0     H 9340   2.201  11.278   8.814 -0.7319  1.9982 -2.0462
  810MOL0     H 9341   2.071  11.264   8.929  0.5571 -1.3236  0.4995
  810MOL0     H 9342   1.906  11.277   8.743 -0.7497  1.1285 -4.5421
  810MOL0     H 9343   2.035  11.261   8.629  2.1214 -2.0763  1.7354
  810MOL0     H 9344   2.036  11.495   8.811  1.3725 -0.4838 -0.4141
  810MOL0     H 9345   2.122  11.480   8.670 -1.2516  2.8754  0.0181
  810MOL0     H 9346   1.744  11.584   8.502 -0.2028 -0.5151  0.8857
  810MOL0     H 9347   2.371  11.137   9.041  0.0317  0.3129 -0.1079
  810MOL0     H 9348   2.587  11.309   9.062  0.5665  0.2526 -0.8846
  810MOL0     H 9349   2.573  11.147   9.137  1.8014  0.4551  1.4234
  810MOL0     H 9350   2.717  11.189   9.059  0.3577 -0.0459  0.7819
  811MOL0     O 9351   1.332   7.387  10.338  0.1573 -0.2403 -0.0054
  811MOL0     C 9352   1.365   7.278  10.292 -0.1650  0.2689  0.8290
  811MOL0     O 9353   1.496   7.235  10.274  0.1871 -0.0499  0.6575
  811MOL0     C 9354   1.598   7.313  10.300 -0.9032 -0.2029  1.0585
  811MOL0     C 9355   1.717   7.238  10.313  0.1129 -0.4861 -0.1798
  811MOL0     C 9356   1.841   7.304  10.309 -0.0577 -0.2811  0.6272
  811MOL0     C 9357   1.849   7.453  10.302  0.6297  1.0733 -1.1777
  811MOL0     O 9358   1.958   7.533  10.296  0.1254  0.2928 -0.2371
  811MOL0     C 9359   2.072   7.461  10.347 -0.4981 -0.0441 -1.2071
  811MOL0     C 9360   2.195   7.551  10.378 -0.0849 -0.1200 -0.2592
  811MOL0     C 9361   2.194   7.602  10.523  0.5052  0.3642  0.3995
  811MOL0     C 9362   2.292   7.710  10.545 -0.8318 -0.5729 -0.0601
  811MOL0     C 9363   2.291   7.786  10.677  0.9001  0.4886  0.0873
  811MOL0     C 9364   2.428   7.835  10.715 -0.0541  0.0425  0.1084
  811MOL0     C 9365   2.412   7.932  10.830  0.0604 -0.3676  0.1395
  811MOL0     C 9366   2.554   7.974  10.875  0.8334  0.5836  0.9699
  811MOL0     N 9367   2.608   7.886  10.980 -0.1845  0.3016  0.2794
  811MOL0     C 9368   2.651   7.758  10.970  0.5657 -0.0753  0.7322
  811MOL0     C 9369   2.692   7.723  11.098  0.2483 -0.0067  1.2664
  811MOL0     C 9370   2.750   7.592  11.140  0.4541 -0.0799 -0.1319
  811MOL0     C 9371   2.904   7.606  11.152  0.9211  0.0826 -0.1329
  811MOL0     C 9372   2.967   7.468  11.157  0.0588 -0.1969  0.9258
  811MOL0     C 9373   2.964   7.379  11.030 -0.6022 -0.1725 -0.6578
  811MOL0     O 9374   3.067   7.273  11.037  0.6304 -0.2233 -0.4836
  811MOL0     C 9375   3.192   7.295  11.008  0.3948  0.5437 -0.1369
  811MOL0     C 9376   3.259   7.411  10.957  1.5373 -0.1095 -1.1665
  811MOL0     C 9377   3.389   7.407  10.919 -0.3790  0.0981 -0.1827
  811MOL0     C 9378   3.460   7.285  10.909  0.0333  0.2222 -0.2745
  811MOL0     C 9379   3.601   7.272  10.865  0.7251 -0.4358  1.0861
  811MOL0     O 9380   3.679   7.385  10.858 -0.3480  0.1821 -0.4213
  811MOL0     C 9381   3.812   7.373  10.812  0.6139  0.1593 -0.4210
  811MOL0     C 9382   3.838   7.428  10.690 -0.1164  0.6217 -0.7515
  811MOL0     C 9383   3.968   7.430  10.639 -0.4154 -0.2014  0.5328
  811MOL0     C 9384   4.077   7.361  10.703 -0.5303 -0.2716  0.3500
  811MOL0     O 9385   4.202   7.368  10.644 -0.0406  0.5570 -0.2227
  811MOL0     C 9386   4.315   7.352  10.736  1.5716  0.3049  0.8294
  811MOL0     C 9387   4.446   7.364  10.662 -0.0362  0.2147 -0.1254
  811MOL0     C 9388   4.569   7.344  10.755  0.9647 -0.4770 -0.9975
  811MOL0     C 9389   4.700   7.328  10.682  0.6877  0.0389 -0.1090
  811MOL0     C 9390   4.815   7.272  10.771 -0.3644  0.1534  0.3865
  811MOL0     C 9391   4.953   7.260  10.696  0.4496 -0.7061  0.3567
  811MOL0     C 9392   5.051   7.192  10.795 -0.6262  0.1476  0.4234
  811MOL0     C 9393   5.184   7.165  10.723 -0.4646  0.2482  0.1900
  811MOL0    Cl 9394   5.261   7.327  10.693  0.0392 -0.1220 -0.0067
  811MOL0     C 9395   4.045   7.298  10.818 -0.0460  0.9343  0.1989
  811MOL0     C 9396   3.919   7.302  10.868  1.3019  0.0723  0.2821
  811MOL0     O 9397   3.641   7.163  10.831  0.1453  0.1693 -0.7958
  811MOL0     C 9398   3.396   7.164  10.950 -0.6248 -0.7717 -0.1859
  811MOL0     C 9399   3.262   7.171  11.003 -0.1352  0.0811 -0.5101
  811MOL0     N 9400   2.657   7.830  11.183 -0.4228  0.3064 -0.6870
  811MOL0     N 9401   2.608   7.919  11.112 -0.6519 -0.4431 -0.3576
  811MOL0     C 9402   1.730   7.524  10.303 -0.8062  0.0702  0.7526
  811MOL0     C 9403   1.608   7.453  10.291  0.5469 -0.0841  0.2573
  811MOL0     C 9404   1.255   7.185  10.265 -0.4784  0.3839 -1.1931
  811MOL0     C 9405   1.294   7.070  10.198 -0.4443  0.2292 -0.1121
  811MOL0     C 9406   1.196   6.981  10.160 -0.0332 -0.1051 -0.0015
  811MOL0     C 9407   1.066   6.981  10.206  0.7064  0.7368 -0.8918
  811MOL0     O 9408   0.977   6.876  10.178 -0.9626 -0.2999 -0.2741
  811MOL0     C 9409   0.866   6.854  10.260  0.4965 -0.0314 -0.9270
  811MOL0     C 9410   0.814   6.720  10.232 -0.1680  0.5166  0.0917
  811MOL0     C 9411   0.913   6.599  10.281 -0.2722 -0.9805 -0.3393
  811MOL0     C 9412   1.013   6.574  10.173 -0.1213  0.6064  0.2455
  811MOL0     C 9413   1.102   6.453  10.187 -0.2197 -0.2217  0.5453
  811MOL0     C 9414   1.162   6.348  10.197  0.0188  0.4757  0.7116
  811MOL0     C 9415   1.030   7.095  10.278  0.7390  0.1706 -0.2934
  811MOL0     C 9416   1.122   7.195  10.302 -0.4320 -0.5231  0.3124
  811MOL0     C 9417   1.067   7.321  10.373  0.3640 -0.8286 -0.7819
  811MOL0     H 9418   1.718   7.129  10.308 -3.6746 -0.6686  0.5561
  811MOL0     H 9419   1.928   7.239  10.305  0.9000  0.9032  1.5177
  811MOL0     H 9420   2.061   7.395  10.434  0.4171  1.4181  0.0738
  811MOL0     H 9421   2.111   7.389  10.274  0.7547 -0.5979 -0.0436
  811MOL0     H 9422   2.189   7.635  10.308 -1.2955  0.6585  0.7423
  811MOL0     H 9423   2.288   7.495  10.361  0.7665  1.6136 -1.7217
  811MOL0     H 9424   2.207   7.514  10.586 -0.1195  1.0816  1.5516
  811MOL0     H 9425   2.097   7.645  10.549 -1.7573 -3.3048 -1.1549
  811MOL0     H 9426   2.391   7.666  10.527  2.3824  4.6182  2.2579
  811MOL0     H 9427   2.280   7.792  10.473 -0.1199  1.4903  2.0244
  811MOL0     H 9428   2.216   7.865  10.675 -0.3339 -0.6302  0.7114
  811MOL0     H 9429   2.265   7.709  10.750  1.2834  1.1497  0.9419
  811MOL0     H 9430   2.492   7.749  10.737 -0.1576 -0.3770 -1.1293
  811MOL0     H 9431   2.470   7.889  10.629  1.2746  0.2565  0.8659
  811MOL0     H 9432   2.371   7.880  10.917  0.2719 -0.7214  0.0304
  811MOL0     H 9433   2.354   8.023  10.810  1.6916  0.9088  1.0161
  811MOL0     H 9434   2.614   7.962  10.785  1.2395 -0.7201  1.3790
  811MOL0     H 9435   2.549   8.077  10.909  1.2072  2.4623 -3.9048
  811MOL0     H 9436   2.653   7.688  10.887 -1.2364 -0.3430  0.8725
  811MOL0     H 9437   2.709   7.568  11.238 -2.2876  0.3047 -1.0845
  811MOL0     H 9438   2.724   7.507  11.076  1.1827 -0.4789  0.0935
  811MOL0     H 9439   2.949   7.671  11.076  0.1136  1.6250  0.6569
  811MOL0     H 9440   2.909   7.658  11.248 -2.0971  0.2095  0.0530
  811MOL0     H 9441   2.917   7.415  11.239  1.9545 -0.6156  1.8916
  811MOL0     H 9442   3.071   7.483  11.189 -0.3535 -3.1028  4.2144
  811MOL0     H 9443   2.985   7.449  10.949 -1.0944  2.9583  1.7203
  811MOL0     H 9444   2.873   7.322  11.010 -1.2658 -1.3524  4.3423
  811MOL0     H 9445   3.204   7.502  10.977 -0.0305 -1.8495  4.1491
  811MOL0     H 9446   3.435   7.490  10.867  0.1354 -0.0444  0.0325
  811MOL0     H 9447   3.757   7.474  10.635 -0.2366  1.9287  0.4464
  811MOL0     H 9448   3.997   7.488  10.553  1.2978 -2.1135 -0.2634
  811MOL0     H 9449   4.315   7.431  10.812  0.3573  0.7899  0.3380
  811MOL0     H 9450   4.313   7.255  10.787 -0.4627  0.6119  1.4090
  811MOL0     H 9451   4.435   7.297  10.577 -4.4374  1.8958 -1.1630
  811MOL0     H 9452   4.460   7.467  10.627 -1.4480  1.5785  2.9537
  811MOL0     H 9453   4.586   7.433  10.817  2.2874  0.2048 -2.2597
  811MOL0     H 9454   4.560   7.251  10.811  0.8144  0.5601  0.7627
  811MOL0     H 9455   4.729   7.430  10.655 -2.6686  1.1345  0.0570
  811MOL0     H 9456   4.680   7.262  10.597  2.5600  0.3754 -0.8682
  811MOL0     H 9457   4.779   7.175  10.808 -0.0572 -0.7852 -1.6399
  811MOL0     H 9458   4.841   7.339  10.854  4.2642 -1.3682  0.4743
  811MOL0     H 9459   4.950   7.212  10.598 -2.0158 -2.2935  1.1295
  811MOL0     H 9460   4.983   7.365  10.687  0.0248 -0.4920  1.3038
  811MOL0     H 9461   4.996   7.103  10.828 -0.2039 -0.2216  0.1417
  811MOL0     H 9462   5.070   7.261  10.878  1.8900 -0.2744  0.2937
  811MOL0     H 9463   5.249   7.101  10.783 -1.9238 -0.0422  1.5304
  811MOL0     H 9464   5.156   7.119  10.628 -3.2178 -1.0169  1.4925
  811MOL0     H 9465   4.115   7.240  10.878 -0.5649 -1.7928 -1.6605
  811MOL0     H 9466   3.892   7.251  10.960 -0.2524  0.7774  0.2490
  811MOL0     H 9467   3.451   7.071  10.941  0.9283 -0.7644  5.3954
  811MOL0     H 9468   3.215   7.081  11.040  1.2991 -0.0858  1.0250
  811MOL0     H 9469   1.733   7.632  10.292  2.2947  0.0082  0.0880
  811MOL0     H 9470   1.518   7.511  10.273  1.9668  1.8760 -1.0278
  811MOL0     H 9471   1.397   7.060  10.166  0.5386  0.9005  2.5997
  811MOL0     H 9472   1.231   6.893  10.107  3.3280  0.0670  1.7257
  811MOL0     H 9473   0.787   6.925  10.236  2.9499  3.4140  0.2752
  811MOL0     H 9474   0.888   6.862  10.367  2.5560 -1.8956 -1.1269
  811MOL0     H 9475   0.796   6.720  10.124 -1.3350  0.4075  0.2698
  811MOL0     H 9476   0.718   6.699  10.281 -1.4217 -0.1290 -2.4792
  811MOL0     H 9477   0.854   6.509  10.298  1.0521 -1.6840  0.7364
  811MOL0     H 9478   0.957   6.636  10.374 -1.7897 -0.0471  0.0339
  811MOL0     H 9479   0.954   6.575  10.080 -1.5422  1.6771  1.0998
  811MOL0     H 9480   1.085   6.655  10.156  0.9751 -0.3600  0.2255
  811MOL0     H 9481   1.212   6.253  10.200  1.2504  1.0791  0.0508
  811MOL0     H 9482   0.926   7.099  10.309  0.4112  2.2097 -1.4875
  811MOL0     H 9483   1.083   7.418  10.324  0.3641  0.3358  1.4296
  811MOL0     H 9484   0.958   7.318  10.381  0.3894 -0.5987 -0.2874
  811MOL0     H 9485   1.096   7.317  10.478 -0.6881 -0.9144 -0.4896
  812MOL0     O 9486   1.613   6.590   5.193 -0.3091 -0.6718  0.1105
  812MOL0     C 9487   1.615   6.712   5.206 -0.1100  1.1753  0.3536
  812MOL0     O 9488   1.721   6.785   5.221  0.2919  0.7245 -0.4168
  812MOL0     C 9489   1.842   6.727   5.233  0.5213  0.2151 -1.1352
  812MOL0     C 9490   1.895   6.715   5.361  0.1503 -0.2766  0.1709
  812MOL0     C 9491   2.021   6.656   5.378  0.8116 -0.5279 -0.7497
  812MOL0     C 9492   2.086   6.600   5.271 -0.5979  0.0562 -0.0241
  812MOL0     O 9493   2.209   6.541   5.277 -0.4084  0.3519 -0.6755
  812MOL0     C 9494   2.243   6.460   5.396 -0.1029  0.0336  0.2632
  812MOL0     C 9495   2.346   6.539   5.486 -0.5490 -0.7332 -0.6246
  812MOL0     C 9496   2.387   6.456   5.612 -0.6070  0.3532  0.8704
  812MOL0     C 9497   2.467   6.531   5.720  0.3574  0.3208  0.6343
  812MOL0     C 9498   2.524   6.440   5.820 -0.2840  0.4155 -0.8710
  812MOL0     C 9499   2.645   6.366   5.775 -0.2436  0.2925 -0.0623
  812MOL0     C 9500   2.690   6.263   5.885  0.1800  0.1315  0.2082
  812MOL0     C 9501   2.730   6.335   6.021  0.1404 -0.7884  0.1380
  812MOL0     N 9502   2.818   6.246   6.102 -0.3385 -0.4819  0.2825
  812MOL0     C 9503   2.813   6.112   6.123  0.1886 -0.8758  0.7314
  812MOL0     C 9504   2.900   6.082   6.219  0.1218  0.5592 -0.0162
  812MOL0     C 9505   2.918   5.945   6.279 -0.3154  0.6688 -0.1773
  812MOL0     C 9506   3.039   5.873   6.211 -0.4239  0.8158 -0.5336
  812MOL0     C 9507   3.091   5.758   6.300  0.3255 -0.2117  0.7476
  812MOL0     C 9508   3.124   5.628   6.224  1.4104  1.3613 -1.0657
  812MOL0     O 9509   3.243   5.640   6.155  0.0994 -0.2022 -0.0450
  812MOL0     C 9510   3.363   5.623   6.216 -0.3009 -0.4249 -0.6761
  812MOL0     C 9511   3.386   5.619   6.364  0.0382  0.3873 -0.1466
  812MOL0     C 9512   3.512   5.606   6.416  0.5978  0.2070 -0.4050
  812MOL0     C 9513   3.629   5.613   6.342  0.0090 -0.0330  0.9578
  812MOL0     C 9514   3.764   5.604   6.400  0.4187 -0.4486  0.2436
  812MOL0     O 9515   3.859   5.561   6.316  0.4605 -0.3867  0.1597
  812MOL0     C 9516   3.975   5.527   6.370  0.2918  0.5759  0.8199
  812MOL0     C 9517   4.090   5.601   6.342 -0.8333 -0.8420  0.0482
  812MOL0     C 9518   4.214   5.559   6.386 -0.0331 -0.2028  0.3375
  812MOL0     C 9519   4.228   5.447   6.469 -0.2027 -0.2513 -0.0957
  812MOL0     O 9520   4.349   5.422   6.533 -0.2755 -1.1319 -0.0789
  812MOL0     C 9521   4.415   5.300   6.487 -0.7458 -0.0901 -0.8880
  812MOL0     C 9522   4.452   5.211   6.601 -0.0701  0.1880  0.1812
  812MOL0     C 9523   4.574   5.264   6.682 -0.4698 -0.0207 -0.0136
  812MOL0     C 9524   4.607   5.150   6.784  0.2365  0.6497 -0.1034
  812MOL0     C 9525   4.720   5.201   6.879 -0.8272  0.2034 -0.2767
  812MOL0     C 9526   4.780   5.086   6.952 -0.9415  0.6464 -0.7923
  812MOL0     C 9527   4.694   5.048   7.067 -0.4649  0.8014  0.6243
  812MOL0     C 9528   4.757   4.921   7.138  0.7302  0.1629 -0.0358
  812MOL0    Cl 9529   4.762   4.776   7.026 -0.0023  0.0486 -0.1062
  812MOL0     C 9530   4.113   5.376   6.505  0.2612 -0.3687 -0.1908
  812MOL0     C 9531   3.994   5.418   6.451 -0.3242  0.1501 -0.9178
  812MOL0     O 9532   3.774   5.636   6.513  0.4685 -0.5923 -0.5719
  812MOL0     C 9533   3.610   5.620   6.201 -0.3080  1.0249 -0.0899
  812MOL0     C 9534   3.485   5.616   6.139  0.6264  0.9037  0.6241
  812MOL0     N 9535   2.953   6.202   6.262  0.0157  0.1416  0.1042
  812MOL0     N 9536   2.907   6.297   6.188  0.4024 -0.1156  0.3613
  812MOL0     C 9537   2.024   6.595   5.144 -0.5633 -0.5996  0.2437
  812MOL0     C 9538   1.903   6.666   5.125  0.4593 -0.0294 -0.0779
  812MOL0     C 9539   1.480   6.764   5.210 -0.3870 -1.5751  0.1487
  812MOL0     C 9540   1.426   6.813   5.332  1.0898 -0.1124 -0.3674
  812MOL0     C 9541   1.307   6.870   5.339 -0.1326  0.2687  0.5630
  812MOL0     C 9542   1.230   6.892   5.220 -0.2291 -0.1006  0.8379
  812MOL0     O 9543   1.112   6.948   5.249  0.3212  0.1278  0.3476
  812MOL0     C 9544   1.017   6.993   5.148  0.4349 -0.0733 -0.8446
  812MOL0     C 9545   0.955   7.120   5.200 -0.6332 -0.4810  0.3476
  812MOL0     C 9546   0.855   7.082   5.304  0.7456 -0.8650 -0.4620
  812MOL0     C 9547   0.798   7.209   5.372  0.2556 -0.9653  0.1259
  812MOL0     C 9548   0.717   7.186   5.492 -0.6698 -0.2057  0.7183
  812MOL0     C 9549   0.646   7.153   5.583 -1.0209 -0.4639  0.3476
  812MOL0     C 9550   1.280   6.843   5.097  0.3913 -0.5847 -0.0452
  812MOL0     C 9551   1.404   6.780   5.091  0.1852  0.2578 -0.0791
  812MOL0     C 9552   1.441   6.729   4.951  0.0932 -0.3232 -0.0383
  812MOL0     H 9553   1.837   6.758   5.443  1.8117 -1.8988  2.3362
  812MOL0     H 9554   2.069   6.656   5.475  3.9976  1.7801 -2.1384
  812MOL0     H 9555   2.153   6.427   5.449 -1.6855  0.3052 -2.1098
  812MOL0     H 9556   2.297   6.375   5.354  0.5438  1.2627 -1.5049
  812MOL0     H 9557   2.297   6.630   5.523  2.3315  0.7980 -0.3036
  812MOL0     H 9558   2.433   6.562   5.424 -2.0936 -0.1129 -2.6629
  812MOL0     H 9559   2.445   6.371   5.575  0.5627  1.9242 -1.0584
  812MOL0     H 9560   2.296   6.418   5.660 -2.0272  2.4391 -0.0208
  812MOL0     H 9561   2.540   6.589   5.663  0.1904 -0.5807 -0.5411
  812MOL0     H 9562   2.392   6.594   5.768 -2.9495 -2.4302 -0.4818
  812MOL0     H 9563   2.546   6.502   5.907 -2.8377 -0.9092  0.8621
  812MOL0     H 9564   2.447   6.368   5.849 -0.1298 -0.3016 -2.1661
  812MOL0     H 9565   2.636   6.321   5.676  0.9541  1.3410 -0.6754
  812MOL0     H 9566   2.721   6.441   5.751  0.0347 -0.4647 -1.7018
  812MOL0     H 9567   2.771   6.200   5.848 -1.3215 -1.6916 -0.1279
  812MOL0     H 9568   2.607   6.199   5.915  0.5022  0.2070  1.3220
  812MOL0     H 9569   2.777   6.431   6.001 -0.7579 -0.8179 -2.5495
  812MOL0     H 9570   2.645   6.362   6.083  0.5003  0.3832  0.1396
  812MOL0     H 9571   2.748   6.040   6.073  0.7143 -1.4524  0.8505
  812MOL0     H 9572   2.935   5.955   6.386 -0.7877  0.9378 -0.1283
  812MOL0     H 9573   2.837   5.875   6.256 -1.6927  2.4400 -0.9205
  812MOL0     H 9574   2.999   5.838   6.115 -1.1468  2.3874 -0.8398
  812MOL0     H 9575   3.122   5.939   6.183 -0.5671  0.3141 -2.2884
  812MOL0     H 9576   3.016   5.726   6.373  1.0221  2.5400  2.8837
  812MOL0     H 9577   3.172   5.794   6.366  1.6870 -3.4036  0.9829
  812MOL0     H 9578   3.050   5.595   6.151  0.3462  1.7360 -0.1831
  812MOL0     H 9579   3.128   5.544   6.293  0.9115 -0.8885 -3.5945
  812MOL0     H 9580   3.300   5.628   6.429  0.1878  1.5901 -0.0903
  812MOL0     H 9581   3.515   5.593   6.524 -0.9354 -1.5151 -0.5280
  812MOL0     H 9582   4.088   5.687   6.276 -1.2386 -0.4178  0.6090
  812MOL0     H 9583   4.294   5.627   6.362 -0.5475 -0.2777 -1.8301
  812MOL0     H 9584   4.352   5.242   6.420 -0.8554  1.6418 -2.3592
  812MOL0     H 9585   4.505   5.327   6.431  0.8310  1.1521  2.0311
  812MOL0     H 9586   4.367   5.194   6.668  1.5067 -0.3230  2.1499
  812MOL0     H 9587   4.483   5.116   6.557 -1.3658 -1.2921  2.2811
  812MOL0     H 9588   4.662   5.285   6.619 -1.2992  1.0805 -0.8413
  812MOL0     H 9589   4.555   5.361   6.727 -1.3013 -0.2511  0.1327
  812MOL0     H 9590   4.643   5.065   6.726  1.4687  0.3229  1.1133
  812MOL0     H 9591   4.520   5.114   6.839  0.1469 -1.1323 -1.3291
  812MOL0     H 9592   4.675   5.271   6.950 -1.5323 -0.6074  0.0858
  812MOL0     H 9593   4.794   5.236   6.807 -0.3781 -1.7894 -0.8627
  812MOL0     H 9594   4.782   5.002   6.882  1.6556  1.1147 -1.3966
  812MOL0     H 9595   4.879   5.108   6.993 -0.3039 -2.3626 -0.4904
  812MOL0     H 9596   4.593   5.032   7.028  0.3150 -3.8927 -0.1340
  812MOL0     H 9597   4.685   5.136   7.131 -0.9606  1.9210 -0.9292
  812MOL0     H 9598   4.849   4.964   7.180  2.5418 -2.9508 -0.5528
  812MOL0     H 9599   4.694   4.911   7.228  0.7333 -0.5444 -0.1071
  812MOL0     H 9600   4.124   5.298   6.579 -0.4755 -1.0888 -0.8081
  812MOL0     H 9601   3.906   5.362   6.481 -2.1221  2.9929 -0.4629
  812MOL0     H 9602   3.691   5.634   6.131 -1.6999  0.0697 -1.9951
  812MOL0     H 9603   3.475   5.631   6.032 -0.5984 -0.2308  0.5538
  812MOL0     H 9604   2.066   6.538   5.061 -1.8906 -2.5757  0.8579
  812MOL0     H 9605   1.848   6.677   5.032 -0.4256 -1.0105  0.3104
  812MOL0     H 9606   1.475   6.791   5.427  0.8932  1.4631  0.1208
  812MOL0     H 9607   1.265   6.902   5.434 -0.4179  1.6445  0.0001
  812MOL0     H 9608   0.943   6.913   5.131  1.2758 -0.5821 -2.3174
  812MOL0     H 9609   1.063   7.015   5.051  1.2867  3.3039  0.2117
  812MOL0     H 9610   0.899   7.179   5.127 -0.5496  1.0795  1.4893
  812MOL0     H 9611   1.028   7.181   5.254 -2.1188 -1.6394  4.0364
  812MOL0     H 9612   0.902   7.015   5.376 -2.8983 -1.0234  2.0404
  812MOL0     H 9613   0.768   7.025   5.269 -1.8387  3.8415 -2.7293
  812MOL0     H 9614   0.883   7.275   5.392 -0.0964  0.1352 -1.8381
  812MOL0     H 9615   0.735   7.263   5.301 -1.0190  0.2423  2.0785
  812MOL0     H 9616   0.576   7.116   5.655  0.1036 -1.6573  0.8504
  812MOL0     H 9617   1.213   6.854   5.012  2.5737  1.1085 -1.6668
  812MOL0     H 9618   1.549   6.734   4.933  0.0582 -1.9927 -0.8211
  812MOL0     H 9619   1.394   6.631   4.942 -4.4885  1.7230 -1.9531
  812MOL0     H 9620   1.395   6.789   4.871  0.0482  0.2793  0.4309
  813MOL0     O 9621   6.337   7.270   6.863  0.2142  0.1113  0.4676
  813MOL0     C 9622   6.368   7.245   6.751 -0.3596  0.2569  0.0703
  813MOL0     O 9623   6.492   7.261   6.702  0.0467  0.2802  0.7256
  813MOL0     C 9624   6.600   7.251   6.785 -1.0498 -0.4566  0.6131
  813MOL0     C 9625   6.714   7.329   6.760  0.5466  0.1051 -0.1392
  813MOL0     C 9626   6.821   7.321   6.854 -0.1998 -0.2229  0.5525
  813MOL0     C 9627   6.814   7.257   6.975  0.4144 -0.2402  0.2819
  813MOL0     O 9628   6.899   7.290   7.071 -0.3659 -0.6729  0.1067
  813MOL0     C 9629   7.037   7.262   7.032 -0.3715 -0.3776 -0.0623
  813MOL0     C 9630   7.118   7.268   7.153  0.1125 -0.6321  0.7456
  813MOL0     C 9631   7.266   7.247   7.124 -0.1122 -0.7598  0.0268
  813MOL0     C 9632   7.347   7.271   7.258 -0.5011 -0.5212  0.4360
  813MOL0     C 9633   7.506   7.268   7.243 -0.2044 -0.3464 -0.6348
  813MOL0     C 9634   7.561   7.124   7.253 -0.0444  0.8027 -0.2251
  813MOL0     C 9635   7.719   7.122   7.275 -0.6017 -0.2460  0.3275
  813MOL0     C 9636   7.764   7.025   7.391  0.4502 -0.3126 -0.6582
  813MOL0     N 9637   7.902   7.041   7.423  0.4150 -0.6944 -0.3532
  813MOL0     C 9638   8.005   7.027   7.333 -0.6184 -0.5681  0.8442
  813MOL0     C 9639   8.117   7.066   7.399  0.1202 -1.0745  0.1218
  813MOL0     C 9640   8.266   7.075   7.346  0.9740 -0.1585 -0.6070
  813MOL0     C 9641   8.321   6.947   7.290  0.3784  0.3311  0.0944
  813MOL0     C 9642   8.473   6.956   7.240 -0.8902  0.3256 -0.0625
  813MOL0     C 9643   8.487   7.074   7.132 -0.4532 -0.0865  0.3895
  813MOL0     O 9644   8.585   7.040   7.032  0.2328 -0.5497  0.2375
  813MOL0     C 9645   8.716   7.031   7.072 -0.2036  0.0806  0.7619
  813MOL0     C 9646   8.788   7.114   7.161 -0.2595 -0.1233  1.3119
  813MOL0     C 9647   8.930   7.092   7.173 -0.0847 -0.2601  0.5848
  813MOL0     C 9648   9.003   6.992   7.111 -0.1644  0.1927  0.2257
  813MOL0     C 9649   9.147   6.970   7.128 -0.2321 -0.4414 -0.8590
  813MOL0     O 9650   9.211   7.049   7.219  0.2552 -0.0103  0.0287
  813MOL0     C 9651   9.342   7.080   7.204 -0.0109  0.5211  0.4259
  813MOL0     C 9652   9.411   7.121   7.320  0.5754 -0.4893 -0.7223
  813MOL0     C 9653   9.541   7.162   7.316 -0.1368  0.8083  0.6333
  813MOL0     C 9654   9.615   7.155   7.197  0.4933  0.7838 -0.4952
  813MOL0     O 9655   9.746   7.178   7.192 -0.2182  0.0505  0.4963
  813MOL0     C 9656   9.823   7.092   7.278 -0.7088 -0.5978  0.7883
  813MOL0     C 9657   9.969   7.141   7.278  0.8169  0.2390  0.2151
  813MOL0     C 9658  10.068   7.028   7.321  0.0118  0.0182 -0.6362
  813MOL0     C 9659  10.082   7.004   7.472 -0.6522  0.4205 -0.0464
  813MOL0     C 9660  10.161   7.127   7.540 -0.0074  0.0256 -0.4936
  813MOL0     C 9661  10.213   7.097   7.684 -0.8374  0.3332  0.3118
  813MOL0     C 9662  10.101   7.119   7.790  1.3916 -0.2784 -0.4116
  813MOL0     C 9663  10.169   7.095   7.928  0.1682 -0.3520  0.2670
  813MOL0    Cl 9664  10.028   7.117   8.030 -0.0215 -0.4930  0.3384
  813MOL0     C 9665   9.553   7.113   7.080  0.0677 -0.3936  0.0772
  813MOL0     C 9666   9.417   7.076   7.084 -1.0417 -0.0164 -0.3585
  813MOL0     O 9667   9.198   6.875   7.069  0.5544  0.5061 -0.5586
  813MOL0     C 9668   8.927   6.915   7.016  0.2192  0.3482 -0.3488
  813MOL0     C 9669   8.787   6.931   6.996 -0.5533  0.3956  0.6258
  813MOL0     N 9670   8.083   7.081   7.536 -0.3998 -0.5376  0.0689
  813MOL0     N 9671   7.953   7.068   7.554  0.2137  0.0259 -0.3005
  813MOL0     C 9672   6.708   7.178   6.999 -0.8626 -0.0874  0.8893
  813MOL0     C 9673   6.600   7.170   6.904 -1.1150 -0.4557 -1.1438
  813MOL0     C 9674   6.256   7.195   6.662  0.2894  0.1109 -0.0967
  813MOL0     C 9675   6.127   7.161   6.723 -0.0050  0.2886 -0.0507
  813MOL0     C 9676   6.016   7.117   6.653  0.1247 -0.6999 -0.5932
  813MOL0     C 9677   6.029   7.113   6.512  0.2807 -0.5584 -0.8841
  813MOL0     O 9678   5.916   7.076   6.437  0.1059 -0.1706 -0.2608
  813MOL0     C 9679   5.903   6.930   6.436 -0.5121  0.0606 -0.8326
  813MOL0     C 9680   5.973   6.876   6.314 -0.7241 -0.0002 -0.2002
  813MOL0     C 9681   5.883   6.888   6.191  0.1498  0.0717  1.0518
  813MOL0     C 9682   5.934   6.810   6.076  0.0457  0.0097 -0.1986
  813MOL0     C 9683   6.030   6.891   6.002 -1.5119  0.2329  0.2304
  813MOL0     C 9684   6.122   6.939   5.935  0.2936 -0.6638  0.5803
  813MOL0     C 9685   6.151   7.143   6.446  0.3667  0.4466 -0.6222
  813MOL0     C 9686   6.260   7.185   6.518  0.7535 -0.2810 -0.6031
  813MOL0     C 9687   6.379   7.212   6.429 -0.4847  0.4257  0.0356
  813MOL0     H 9688   6.714   7.386   6.668 -0.3807  0.7579  0.2521
  813MOL0     H 9689   6.907   7.376   6.817 -2.7287  1.2791 -3.8646
  813MOL0     H 9690   7.057   7.167   6.981  1.7028 -0.1209  0.1969
  813MOL0     H 9691   7.076   7.342   6.970 -1.9545  0.4425 -0.0484
  813MOL0     H 9692   7.078   7.189   7.218  2.2281 -2.6568 -0.2771
  813MOL0     H 9693   7.114   7.365   7.202  1.4146 -1.9189  3.6702
  813MOL0     H 9694   7.298   7.325   7.054  0.0207 -1.2208 -0.4368
  813MOL0     H 9695   7.276   7.147   7.081 -0.9181  0.0685 -2.2074
  813MOL0     H 9696   7.315   7.371   7.289 -2.7303 -1.4972  1.5151
  813MOL0     H 9697   7.313   7.192   7.325  1.5561 -1.1155  0.8385
  813MOL0     H 9698   7.528   7.320   7.149  0.4232 -2.1808 -1.5696
  813MOL0     H 9699   7.547   7.324   7.327 -0.3444 -0.0341 -0.7752
  813MOL0     H 9700   7.510   7.077   7.338 -1.8042  0.4256 -1.4417
  813MOL0     H 9701   7.538   7.059   7.168  0.1024 -2.5927  2.1245
  813MOL0     H 9702   7.741   7.226   7.300 -5.2665  0.2218  3.9806
  813MOL0     H 9703   7.762   7.089   7.180 -1.7637  3.3721 -1.6672
  813MOL0     H 9704   7.704   7.049   7.480 -1.3701  1.2431 -2.2113
  813MOL0     H 9705   7.741   6.923   7.361 -0.4727 -0.2008 -0.3658
  813MOL0     H 9706   8.005   7.017   7.225 -0.7955  0.6796  0.7195
  813MOL0     H 9707   8.279   7.160   7.278 -1.0643 -1.7316 -3.1292
  813MOL0     H 9708   8.318   7.105   7.438 -2.7392  1.3617  1.2298
  813MOL0     H 9709   8.323   6.869   7.367 -2.3543 -1.8438 -1.8664
  813MOL0     H 9710   8.266   6.905   7.206 -0.2114  1.1289  0.0632
  813MOL0     H 9711   8.513   6.866   7.193  1.7866  0.5562  1.5818
  813MOL0     H 9712   8.540   6.982   7.322 -3.1065  5.6423  0.4914
  813MOL0     H 9713   8.493   7.169   7.186  0.7583 -0.2438  0.5766
  813MOL0     H 9714   8.396   7.072   7.071 -0.8251  1.7433  0.8303
  813MOL0     H 9715   8.732   7.196   7.206  0.3121  0.1345  1.5673
  813MOL0     H 9716   8.987   7.145   7.249 -0.8116  1.2307  0.1390
  813MOL0     H 9717   9.359   7.128   7.415  1.2466 -0.0969 -0.3786
  813MOL0     H 9718   9.588   7.205   7.404  1.4790  1.5526 -0.5334
  813MOL0     H 9719   9.779   7.090   7.378 -3.9253 -1.0831 -0.5419
  813MOL0     H 9720   9.826   6.989   7.242  4.6013 -0.3651 -0.2504
  813MOL0     H 9721   9.987   7.171   7.174 -0.0082 -0.2703 -0.0818
  813MOL0     H 9722   9.978   7.236   7.333 -0.2591  0.9911 -0.8583
  813MOL0     H 9723  10.033   6.935   7.276 -0.0854  0.1417 -0.8176
  813MOL0     H 9724  10.170   7.054   7.294 -0.9681  1.3565 -3.4917
  813MOL0     H 9725  10.134   6.908   7.483  0.4568  0.8160 -1.5151
  813MOL0     H 9726   9.981   6.993   7.514 -0.4380  0.4180  0.4771
  813MOL0     H 9727  10.092   7.212   7.537  1.5602  1.4763  1.8700
  813MOL0     H 9728  10.252   7.149   7.484  1.6406 -2.0992  1.1647
  813MOL0     H 9729  10.248   6.994   7.693 -1.4516 -0.0918 -1.7238
  813MOL0     H 9730  10.299   7.160   7.705 -0.4883 -1.0722  3.8965
  813MOL0     H 9731  10.013   7.057   7.768  0.0496  1.1352  0.7673
  813MOL0     H 9732  10.058   7.219   7.782  0.4566 -0.7055 -0.9537
  813MOL0     H 9733  10.215   6.996   7.931  0.4733 -0.3538 -2.4092
  813MOL0     H 9734  10.246   7.167   7.957  1.0546 -1.0558 -0.2849
  813MOL0     H 9735   9.615   7.109   6.992  0.2753  2.0174  0.0357
  813MOL0     H 9736   9.385   7.036   6.988  0.1193 -1.5464 -0.1342
  813MOL0     H 9737   8.972   6.832   6.961  1.5158  0.1907  0.8689
  813MOL0     H 9738   8.735   6.866   6.925  1.8074  1.0409 -1.8422
  813MOL0     H 9739   6.711   7.111   7.084 -1.0986  1.4254  2.1337
  813MOL0     H 9740   6.526   7.093   6.924 -0.4813 -1.4120 -2.3137
  813MOL0     H 9741   6.136   7.166   6.832 -0.5118  2.9075 -0.0521
  813MOL0     H 9742   5.928   7.087   6.709 -0.2498 -1.2219 -1.4280
  813MOL0     H 9743   5.797   6.903   6.426 -0.3180 -0.9769 -0.2212
  813MOL0     H 9744   5.942   6.881   6.526 -1.0563 -1.2674 -1.2963
  813MOL0     H 9745   5.978   6.771   6.346  2.4960  0.2431  0.3760
  813MOL0     H 9746   6.072   6.919   6.299 -0.3856 -0.5705  0.3554
  813MOL0     H 9747   5.846   6.989   6.174  2.5095  0.8975  0.4393
  813MOL0     H 9748   5.793   6.836   6.225 -0.4954  0.7513  0.4250
  813MOL0     H 9749   5.973   6.715   6.114  1.1020  0.5973  0.2219
  813MOL0     H 9750   5.854   6.790   6.004 -0.8358  0.7527  0.5481
  813MOL0     H 9751   6.201   6.976   5.874 -0.7186  1.0169  0.1998
  813MOL0     H 9752   6.146   7.132   6.338  0.3787 -0.8360 -0.5102
  813MOL0     H 9753   6.475   7.168   6.458 -0.3192  0.9758  0.3405
  813MOL0     H 9754   6.369   7.184   6.324  3.5036 -2.5001  0.2105
  813MOL0     H 9755   6.396   7.320   6.437  1.0753  0.1203  1.3368
  814MOL0     O 9756   7.663   7.663   5.037  0.4916 -0.1669 -0.0431
  814MOL0     C 9757   7.613   7.763   4.982 -0.9970 -0.8771  0.3959
  814MOL0     O 9758   7.670   7.888   4.992 -0.0729  0.8316  0.4556
  814MOL0     C 9759   7.723   7.932   5.108  0.3276 -0.8114  0.6308
  814MOL0     C 9760   7.828   8.021   5.099  0.1634 -0.6384 -0.0898
  814MOL0     C 9761   7.875   8.088   5.209 -0.1572 -0.7052  0.2266
  814MOL0     C 9762   7.813   8.073   5.337 -0.1096 -0.5941  0.0781
  814MOL0     O 9763   7.850   8.143   5.444  0.0796  0.8863 -0.3629
  814MOL0     C 9764   7.824   8.284   5.441  0.4157 -0.3115  0.0470
  814MOL0     C 9765   7.829   8.340   5.580 -0.3562 -0.8066 -0.1369
  814MOL0     C 9766   7.746   8.248   5.678 -1.1974  0.2633  0.0585
  814MOL0     C 9767   7.686   8.322   5.797  0.3458 -0.2761 -0.5402
  814MOL0     C 9768   7.599   8.231   5.882 -0.5012 -0.7067  0.3082
  814MOL0     C 9769   7.467   8.198   5.818 -0.5622 -0.1578  0.9131
  814MOL0     C 9770   7.377   8.117   5.910  0.2354  0.9216  0.5079
  814MOL0     C 9771   7.233   8.106   5.854  1.2535 -0.7167 -0.2061
  814MOL0     N 9772   7.143   8.024   5.944  0.3123  0.0851 -0.3609
  814MOL0     C 9773   7.031   7.954   5.903 -0.0271 -1.2390 -0.3091
  814MOL0     C 9774   6.969   7.909   6.016 -0.4804  0.3452  0.1887
  814MOL0     C 9775   6.855   7.814   6.014 -1.1715  0.3491  0.1018
  814MOL0     C 9776   6.877   7.671   5.966 -0.2300 -0.9733 -0.0052
  814MOL0     C 9777   6.756   7.607   5.900 -0.1610 -0.5103 -0.5314
  814MOL0     C 9778   6.769   7.463   5.883 -0.1332 -0.3423  0.4183
  814MOL0     O 9779   6.656   7.408   5.820 -0.1798  0.3873  0.3829
  814MOL0     C 9780   6.544   7.385   5.898  0.3521  0.3313  0.0315
  814MOL0     C 9781   6.436   7.333   5.833 -0.4903  0.6351 -0.3249
  814MOL0     C 9782   6.310   7.297   5.892  0.3460  1.2035  0.0742
  814MOL0     C 9783   6.292   7.327   6.032  0.0319  0.4145  0.0417
  814MOL0     C 9784   6.153   7.304   6.086  0.0005 -1.4524 -0.4550
  814MOL0     O 9785   6.060   7.260   6.003 -0.6825  0.0946  0.7409
  814MOL0     C 9786   5.925   7.263   6.029  0.5373 -0.8285  0.6857
  814MOL0     C 9787   5.849   7.275   6.153 -0.3341 -0.8332  0.6679
  814MOL0     C 9788   5.711   7.289   6.159  0.4746 -1.2624 -0.3116
  814MOL0     C 9789   5.642   7.285   6.034  0.1907  0.0439 -0.1616
  814MOL0     O 9790   5.512   7.325   6.043 -0.1908 -0.4494 -0.0498
  814MOL0     C 9791   5.436   7.342   5.927 -0.3736 -0.1443  0.0232
  814MOL0     C 9792   5.306   7.419   5.975 -1.0532  0.3447  0.2488
  814MOL0     C 9793   5.206   7.316   6.002  1.1751 -0.2437 -0.1457
  814MOL0     C 9794   5.070   7.372   6.041  0.4543  0.3673  0.6742
  814MOL0     C 9795   4.970   7.252   6.029 -0.5258 -0.2138 -0.5342
  814MOL0     C 9796   4.819   7.306   6.037  0.1188  0.5299 -0.3033
  814MOL0     C 9797   4.723   7.185   6.063 -0.4447 -0.0317 -0.3856
  814MOL0     C 9798   4.711   7.100   5.937 -0.2356  0.6322 -1.2026
  814MOL0    Cl 9799   4.643   7.193   5.807  0.1272 -0.1984  0.2248
  814MOL0     C 9800   5.707   7.263   5.912 -0.1351  0.4093 -0.1951
  814MOL0     C 9801   5.845   7.251   5.918 -0.2709  0.5586  0.2764
  814MOL0     O 9802   6.128   7.333   6.201 -0.3483  0.3051  1.0227
  814MOL0     C 9803   6.402   7.381   6.101  0.5338  0.3894 -1.0653
  814MOL0     C 9804   6.522   7.401   6.034  0.0080 -0.1426  0.1427
  814MOL0     N 9805   7.048   7.941   6.125  0.3865  0.5763 -0.1324
  814MOL0     N 9806   7.142   8.018   6.083 -0.4627  0.5269  0.0928
  814MOL0     C 9807   7.704   7.985   5.349 -0.2704 -0.6006 -0.7012
  814MOL0     C 9808   7.662   7.912   5.235  0.0123 -0.4051 -0.2836
  814MOL0     C 9809   7.513   7.748   4.866 -0.4240 -0.7535 -1.3133
  814MOL0     C 9810   7.488   7.866   4.798  1.1052 -0.3449  0.1051
  814MOL0     C 9811   7.398   7.863   4.693 -0.1084 -0.1581 -0.6521
  814MOL0     C 9812   7.319   7.749   4.672  0.1380  0.2760  0.0651
  814MOL0     O 9813   7.230   7.768   4.568  0.7278  0.5117  0.0585
  814MOL0     C 9814   7.143   7.661   4.522  0.0274  0.5496 -0.0744
  814MOL0     C 9815   7.021   7.663   4.608  0.2118  0.1076  0.5877
  814MOL0     C 9816   6.955   7.523   4.606  0.3748 -0.3154  0.3849
  814MOL0     C 9817   6.808   7.541   4.651  0.6876  0.1788  0.5848
  814MOL0     C 9818   6.714   7.431   4.627 -0.6041  0.1977  0.4745
  814MOL0     C 9819   6.643   7.336   4.593 -0.6559  0.3149  0.4360
  814MOL0     C 9820   7.341   7.636   4.741 -0.2656  0.0674 -1.3196
  814MOL0     C 9821   7.437   7.637   4.837 -0.4867  0.9290 -0.7149
  814MOL0     C 9822   7.445   7.506   4.930  0.4014 -0.1144  0.9342
  814MOL0     H 9823   7.861   8.049   4.999 -2.1740 -0.1242 -0.7839
  814MOL0     H 9824   7.953   8.164   5.209 -1.7291  1.0245  2.0954
  814MOL0     H 9825   7.903   8.332   5.383 -0.6890  1.0045 -0.4258
  814MOL0     H 9826   7.727   8.312   5.399 -0.0753 -0.3335  1.1350
  814MOL0     H 9827   7.802   8.446   5.578  0.6394 -0.5438 -0.0580
  814MOL0     H 9828   7.934   8.343   5.612 -0.9506  0.3770  1.8814
  814MOL0     H 9829   7.810   8.166   5.710  2.1774  2.2502 -1.0829
  814MOL0     H 9830   7.660   8.205   5.628 -0.5775 -3.3516  1.7896
  814MOL0     H 9831   7.766   8.360   5.861  1.1732 -0.6114 -1.3532
  814MOL0     H 9832   7.625   8.410   5.773  0.3093  1.3986  4.4260
  814MOL0     H 9833   7.655   8.141   5.907 -0.9381 -0.3979  2.6453
  814MOL0     H 9834   7.575   8.282   5.975 -2.9184  1.3333 -1.2987
  814MOL0     H 9835   7.413   8.287   5.785  0.4551 -0.2104 -1.0192
  814MOL0     H 9836   7.483   8.130   5.734 -2.7861  0.9508 -0.5169
  814MOL0     H 9837   7.372   8.169   6.006  2.1879 -2.6320  2.7545
  814MOL0     H 9838   7.418   8.019   5.933  0.4283  1.2576  1.6725
  814MOL0     H 9839   7.198   8.209   5.849 -2.4618 -1.5057  3.5550
  814MOL0     H 9840   7.220   8.066   5.753 -1.6945 -1.2937  0.3048
  814MOL0     H 9841   7.006   7.953   5.798  0.0002  1.8239 -0.4329
  814MOL0     H 9842   6.809   7.812   6.113 -0.2470  0.5666  0.5478
  814MOL0     H 9843   6.788   7.870   5.948  0.1576  1.5626 -0.2883
  814MOL0     H 9844   6.961   7.680   5.896 -0.3383 -2.3213 -0.3418
  814MOL0     H 9845   6.918   7.598   6.036 -0.9659 -2.7208 -1.3042
  814MOL0     H 9846   6.743   7.647   5.799  3.4367 -0.4919 -1.1369
  814MOL0     H 9847   6.669   7.612   5.966 -0.8709 -1.5091 -1.3683
  814MOL0     H 9848   6.789   7.413   5.979 -1.3012 -1.1427  0.2608
  814MOL0     H 9849   6.860   7.443   5.825 -1.0899 -1.3259 -0.7908
  814MOL0     H 9850   6.447   7.315   5.726  1.8726 -1.4409  0.1611
  814MOL0     H 9851   6.232   7.242   5.840  1.6916  1.0565 -1.8836
  814MOL0     H 9852   5.900   7.276   6.249 -1.2134  0.5514  1.1355
  814MOL0     H 9853   5.654   7.296   6.251  1.6558  2.5282  0.3086
  814MOL0     H 9854   5.501   7.406   5.866 -1.5348  0.3601 -0.7158
  814MOL0     H 9855   5.415   7.246   5.879  0.2754  0.4447 -1.5003
  814MOL0     H 9856   5.338   7.481   6.060 -0.1052 -1.8270  1.5766
  814MOL0     H 9857   5.271   7.485   5.896 -2.0814  0.5627  0.8744
  814MOL0     H 9858   5.186   7.254   5.915  1.1907  1.0892 -1.1324
  814MOL0     H 9859   5.244   7.247   6.079  0.7754 -0.9464 -0.5705
  814MOL0     H 9860   5.041   7.442   5.962  0.7149 -1.8684 -1.4945
  814MOL0     H 9861   5.079   7.418   6.140  1.8707  1.4112  0.0978
  814MOL0     H 9862   5.006   7.172   6.095 -0.1444 -1.4124 -2.1300
  814MOL0     H 9863   4.984   7.207   5.930 -1.2724  0.8055 -1.1205
  814MOL0     H 9864   4.815   7.362   6.131  2.8237 -1.4110  1.1501
  814MOL0     H 9865   4.795   7.378   5.959 -0.3964  3.3462  2.2816
  814MOL0     H 9866   4.624   7.212   6.100 -0.1431 -1.4716  1.5936
  814MOL0     H 9867   4.760   7.111   6.133 -1.5836 -0.6878 -0.4590
  814MOL0     H 9868   4.806   7.052   5.913  0.3143  2.3450 -2.6345
  814MOL0     H 9869   4.652   7.010   5.956  1.9751 -0.4763  1.1129
  814MOL0     H 9870   5.662   7.258   5.814 -1.1007  1.2031  0.1826
  814MOL0     H 9871   5.885   7.232   5.818 -0.3235 -0.7353  0.4843
  814MOL0     H 9872   6.390   7.404   6.207  1.4369  0.6600 -1.0192
  814MOL0     H 9873   6.610   7.430   6.090  1.1166 -1.4854 -0.8224
  814MOL0     H 9874   7.658   7.958   5.443 -0.2562 -0.4260 -0.6432
  814MOL0     H 9875   7.583   7.838   5.246 -0.7813  0.2002 -1.6661
  814MOL0     H 9876   7.541   7.960   4.810 -1.0715  1.0570 -0.6308
  814MOL0     H 9877   7.386   7.945   4.623  0.3971 -0.9454 -1.6763
  814MOL0     H 9878   7.201   7.572   4.548 -1.6210 -0.0074  2.0533
  814MOL0     H 9879   7.113   7.676   4.418 -1.0032  1.5428  0.3392
  814MOL0     H 9880   6.942   7.735   4.584 -2.2027 -1.5427  3.0589
  814MOL0     H 9881   7.048   7.676   4.714 -0.9014  0.8091  0.8019
  814MOL0     H 9882   7.005   7.456   4.677 -0.7825  0.6487  2.1838
  814MOL0     H 9883   6.962   7.477   4.507 -1.8950  0.3836 -0.1621
  814MOL0     H 9884   6.809   7.571   4.756  0.7357  0.8010  0.4092
  814MOL0     H 9885   6.757   7.620   4.595 -2.8796 -2.1768  0.2168
  814MOL0     H 9886   6.570   7.264   4.563  0.3479 -2.2514  3.5022
  814MOL0     H 9887   7.277   7.549   4.730  0.8748 -0.9984  0.0675
  814MOL0     H 9888   7.374   7.431   4.894  2.9924 -1.7652 -1.0413
  814MOL0     H 9889   7.546   7.465   4.941  0.0195 -1.5100 -0.4491
  814MOL0     H 9890   7.420   7.548   5.028  3.9172  3.3610  0.5944
  815MOL0     O 9891   6.204   8.753   7.433 -0.1113 -0.4427 -0.1458
  815MOL0     C 9892   6.146   8.857   7.401 -0.2135 -0.5302 -0.4044
  815MOL0     O 9893   6.202   8.974   7.355  0.7487  0.0608  0.2690
  815MOL0     C 9894   6.334   8.972   7.352 -0.3697  0.2104  0.1297
  815MOL0     C 9895   6.398   8.991   7.482 -0.4746 -0.0708  0.7625
  815MOL0     C 9896   6.538   8.990   7.479 -0.3366 -0.0274 -0.1107
  815MOL0     C 9897   6.606   8.980   7.361 -0.8322 -0.3910 -0.4777
  815MOL0     O 9898   6.740   9.003   7.381  0.0567  0.0870  0.5396
  815MOL0     C 9899   6.834   8.911   7.314  0.4099  0.7413 -0.4980
  815MOL0     C 9900   6.974   8.976   7.362 -0.1713  0.2449 -0.0121
  815MOL0     C 9901   7.078   8.860   7.380  0.0192 -0.1372 -0.5144
  815MOL0     C 9902   7.212   8.929   7.351 -0.7324  0.2223 -0.6237
  815MOL0     C 9903   7.322   8.830   7.368 -0.8644 -0.5709 -0.6666
  815MOL0     C 9904   7.458   8.902   7.370 -0.9774  0.0756 -0.6845
  815MOL0     C 9905   7.576   8.801   7.358  0.2992  0.1746  0.3997
  815MOL0     C 9906   7.699   8.881   7.376 -0.1451 -0.5557 -0.2278
  815MOL0     N 9907   7.824   8.812   7.334  0.0061 -0.5245  0.0850
  815MOL0     C 9908   7.913   8.848   7.233 -1.3921  0.2651 -0.4483
  815MOL0     C 9909   8.015   8.760   7.241  0.3007  0.1106  0.2472
  815MOL0     C 9910   8.140   8.759   7.164  0.5614  0.3385  0.2403
  815MOL0     C 9911   8.162   8.860   7.053  0.1817  0.4237 -0.2924
  815MOL0     C 9912   8.312   8.844   6.999  0.2185  0.3936  0.5573
  815MOL0     C 9913   8.322   8.898   6.861  0.2866  0.5724  0.2770
  815MOL0     O 9914   8.447   8.871   6.799  0.3344 -0.8573 -0.7522
  815MOL0     C 9915   8.555   8.935   6.861 -1.1342  0.3603 -0.2774
  815MOL0     C 9916   8.570   9.068   6.902 -0.3132 -0.2704  0.7853
  815MOL0     C 9917   8.686   9.117   6.971  0.7346  1.2672  0.0183
  815MOL0     C 9918   8.789   9.023   6.994  0.2510 -0.3861 -0.1268
  815MOL0     C 9919   8.916   9.068   7.048 -0.2547  0.2838 -0.0456
  815MOL0     O 9920   8.915   9.201   7.086  0.7176  0.2553 -0.0239
  815MOL0     C 9921   9.027   9.266   7.131 -0.5146 -0.0871 -0.9133
  815MOL0     C 9922   9.113   9.203   7.228  0.7285  0.2224 -0.0985
  815MOL0     C 9923   9.216   9.266   7.292  0.9055  0.2137  0.9963
  815MOL0     C 9924   9.252   9.390   7.249  1.2031  0.4513 -0.2290
  815MOL0     O 9925   9.358   9.454   7.306  1.0347 -0.8793  0.1551
  815MOL0     C 9926   9.464   9.493   7.218  0.2641 -0.1542 -0.6050
  815MOL0     C 9927   9.589   9.544   7.294  0.1282  0.0392 -0.6948
  815MOL0     C 9928   9.720   9.538   7.208 -0.0564  0.0022 -0.3788
  815MOL0     C 9929   9.728   9.648   7.095  0.3981 -0.9210  0.3958
  815MOL0     C 9930   9.810   9.613   6.969 -0.5057  0.2520  0.9226
  815MOL0     C 9931   9.956   9.573   7.006 -0.7767 -0.5138 -0.4172
  815MOL0     C 9932  10.053   9.569   6.895 -0.3133 -0.1319  0.0398
  815MOL0     C 9933  10.185   9.512   6.952  0.6063  0.4959 -0.0506
  815MOL0    Cl 9934  10.292   9.533   6.821 -0.5242 -0.1491 -0.7484
  815MOL0     C 9935   9.167   9.456   7.156 -0.5520 -0.1376  0.1433
  815MOL0     C 9936   9.061   9.391   7.095  0.7756  0.1217 -0.0705
  815MOL0     O 9937   9.009   8.991   7.051 -0.0148 -0.7043  0.5358
  815MOL0     C 9938   8.774   8.892   6.956  0.0922 -0.3750 -0.3699
  815MOL0     C 9939   8.662   8.852   6.891  0.0128  0.7512  0.5279
  815MOL0     N 9940   7.985   8.672   7.345 -0.8703 -0.3471  0.5369
  815MOL0     N 9941   7.872   8.704   7.403 -0.5639  0.6451  1.0865
  815MOL0     C 9942   6.546   8.962   7.240 -0.6136 -0.5111 -0.4582
  815MOL0     C 9943   6.407   8.956   7.239  0.4574 -0.0081  0.3687
  815MOL0     C 9944   5.997   8.851   7.395 -0.3300  0.5201 -0.2935
  815MOL0     C 9945   5.933   8.939   7.311 -1.5104  0.1187 -0.0952
  815MOL0     C 9946   5.798   8.949   7.303  0.0045  0.1150  0.6502
  815MOL0     C 9947   5.715   8.873   7.379  0.3649 -0.3088 -0.3652
  815MOL0     O 9948   5.575   8.887   7.365 -0.3157 -0.1719  0.3209
  815MOL0     C 9949   5.490   8.831   7.463 -0.0067 -0.2206  0.8441
  815MOL0     C 9950   5.349   8.880   7.441  0.2344  0.5335 -0.4240
  815MOL0     C 9951   5.254   8.806   7.535  0.6825  0.9305 -0.5480
  815MOL0     C 9952   5.108   8.839   7.498 -0.1133 -1.2342 -1.2185
  815MOL0     C 9953   5.086   8.980   7.544 -0.7364  0.4294 -0.4309
  815MOL0     C 9954   5.081   9.096   7.580  0.4908  0.3191  0.3370
  815MOL0     C 9955   5.779   8.781   7.475  0.4556  0.5776  0.6695
  815MOL0     C 9956   5.918   8.778   7.488  0.3239  0.2942 -0.0702
  815MOL0     C 9957   5.976   8.677   7.589  0.1270 -0.2009  0.6813
  815MOL0     H 9958   6.336   8.997   7.570  0.2176  0.7634  1.2073
  815MOL0     H 9959   6.586   9.003   7.576  1.1530  3.1952 -1.1392
  815MOL0     H 9960   6.825   8.807   7.344 -1.3276  0.9787 -0.0942
  815MOL0     H 9961   6.816   8.917   7.206 -3.3742  2.0310  0.0416
  815MOL0     H 9962   6.976   9.026   7.459  2.0951 -0.1864  0.2235
  815MOL0     H 9963   6.983   9.052   7.283 -0.6686  0.9634  0.6011
  815MOL0     H 9964   7.064   8.772   7.317  2.7772 -2.4258  1.7808
  815MOL0     H 9965   7.080   8.830   7.485  2.8703  2.3132  0.2712
  815MOL0     H 9966   7.214   8.962   7.247 -1.6142 -2.0503 -1.4387
  815MOL0     H 9967   7.240   8.999   7.430  2.0384 -1.7436  0.2863
  815MOL0     H 9968   7.298   8.769   7.456  0.4335 -0.5116 -0.2471
  815MOL0     H 9969   7.311   8.759   7.286 -1.9862  0.0324 -1.0639
  815MOL0     H 9970   7.461   8.978   7.292  0.9604  1.5308  0.6945
  815MOL0     H 9971   7.463   8.948   7.470 -0.2553 -1.9214  0.2521
  815MOL0     H 9972   7.571   8.746   7.263 -0.4915 -2.5323  1.9201
  815MOL0     H 9973   7.584   8.714   7.423  3.5319 -0.4156 -0.5691
  815MOL0     H 9974   7.698   8.975   7.319 -1.8893  0.0456  0.7275
  815MOL0     H 9975   7.704   8.905   7.483 -0.0615 -2.1695  0.1538
  815MOL0     H 9976   7.912   8.930   7.162  2.3109 -1.4165 -2.7457
  815MOL0     H 9977   8.215   8.768   7.243 -0.4557  0.4117  1.2293
  815MOL0     H 9978   8.150   8.657   7.124  2.0006  0.6187 -0.1597
  815MOL0     H 9979   8.086   8.854   6.974  0.2066  1.2738 -0.3845
  815MOL0     H 9980   8.158   8.960   7.096 -0.4709 -0.1365  0.9712
  815MOL0     H 9981   8.350   8.742   6.990  2.4611  1.3883 -3.9530
  815MOL0     H 9982   8.366   8.902   7.073  0.7365 -0.9172  1.2414
  815MOL0     H 9983   8.299   9.005   6.868 -0.4912  0.5903 -1.8655
  815MOL0     H 9984   8.239   8.859   6.800 -0.2966  1.7179  0.3031
  815MOL0     H 9985   8.486   9.133   6.878 -0.5825 -0.8066  0.2596
  815MOL0     H 9986   8.694   9.222   6.996 -4.7679  1.6712  1.3426
  815MOL0     H 9987   9.101   9.105   7.273  2.7590 -0.3314 -0.6246
  815MOL0     H 9988   9.259   9.214   7.377 -0.8667 -0.3604  1.5806
  815MOL0     H 9989   9.488   9.416   7.143 -1.7065 -0.2140 -1.2372
  815MOL0     H 9990   9.430   9.587   7.173  1.1139 -0.8152 -2.7958
  815MOL0     H 9991   9.574   9.641   7.344  0.2476 -0.5037  0.4165
  815MOL0     H 9992   9.602   9.485   7.385  0.8716 -1.4631 -1.7360
  815MOL0     H 9993   9.807   9.546   7.273 -1.5702  2.1668  1.5049
  815MOL0     H 9994   9.728   9.441   7.156  0.7241 -1.2443  1.9156
  815MOL0     H 9995   9.756   9.747   7.133 -0.4780 -0.9643  1.1797
  815MOL0     H 9996   9.628   9.668   7.058  0.2565 -0.2121  1.1321
  815MOL0     H 9997   9.822   9.698   6.901  0.7721  1.2443  2.3277
  815MOL0     H 9998   9.758   9.532   6.917  0.4566  0.3448 -0.2239
  815MOL0     H 9999   9.991   9.651   7.075  0.1841 -0.0486 -1.3995
  815MOL0     H10000   9.962   9.478   7.060 -1.0612 -1.4554 -1.9842
  815MOL0     H10001  10.081   9.669   6.860 -4.4598  1.3388  0.4508
  815MOL0     H10002  10.021   9.511   6.808 -0.5921  1.1663 -0.7453
  815MOL0     H10003  10.215   9.561   7.045  0.1578  2.3609 -0.8400
  815MOL0     H10004  10.180   9.409   6.989  3.2522  0.9544  1.9324
  815MOL0     H10005   9.186   9.558   7.124 -1.0226 -0.8675 -2.7045
  815MOL0     H10006   8.997   9.443   7.024  1.5478 -0.5915 -1.3259
  815MOL0     H10007   8.857   8.822   6.962  0.0132 -0.4500 -0.1633
  815MOL0     H10008   8.648   8.746   6.872  1.3259  1.1076 -3.1663
  815MOL0     H10009   6.607   8.963   7.150 -2.8750  0.8825 -2.0742
  815MOL0     H10010   6.355   8.940   7.145  0.3294  1.3110  0.1943
  815MOL0     H10011   5.993   9.001   7.246  1.3206 -0.7714  1.4774
  815MOL0     H10012   5.750   9.020   7.237  1.2804  0.8000  0.4321
  815MOL0     H10013   5.520   8.845   7.567  1.0284 -0.0044  0.5292
  815MOL0     H10014   5.489   8.722   7.458 -2.5369 -0.1967 -1.4551
  815MOL0     H10015   5.316   8.853   7.340 -1.4237 -0.5691  0.3537
  815MOL0     H10016   5.337   8.987   7.461  0.5295  0.2841  1.2276
  815MOL0     H10017   5.278   8.831   7.639  1.3007  0.5825 -0.5997
  815MOL0     H10018   5.260   8.697   7.531 -0.8208  0.7118  1.6063
  815MOL0     H10019   5.082   8.834   7.392 -0.2861 -1.4468 -1.1669
  815MOL0     H10020   5.035   8.784   7.559  0.2612  2.9115  3.5571
  815MOL0     H10021   5.065   9.201   7.593 -0.1862  0.0403  2.0611
  815MOL0     H10022   5.722   8.725   7.548  1.2518 -0.2812  0.6468
  815MOL0     H10023   6.036   8.601   7.539  2.0938  1.5156  0.2800
  815MOL0     H10024   6.032   8.743   7.656 -0.5899  1.8539 -0.6608
  815MOL0     H10025   5.900   8.638   7.657 -0.7201 -0.6599 -0.4917
  816MOL0     O10026   2.882   3.044   0.643 -0.0183 -0.9074 -0.1374
  816MOL0     C10027   2.837   2.951   0.586  0.2953 -0.5552 -0.3665
  816MOL0     O10028   2.897   2.839   0.561  0.3375 -0.2981 -0.2576
  816MOL0     C10029   3.037   2.827   0.568  0.1710 -0.5212 -0.1538
  816MOL0     C10030   3.140   2.918   0.533  0.6369 -0.3812  0.1387
  816MOL0     C10031   3.273   2.879   0.508  0.0236 -0.1920 -0.9722
  816MOL0     C10032   3.311   2.753   0.527  0.0235  0.0743  0.7278
  816MOL0     O10033   3.444   2.720   0.516  0.4545  0.2003 -0.2657
  816MOL0     C10034   3.493   2.591   0.560  0.9477  0.4011  0.1531
  816MOL0     C10035   3.640   2.602   0.549 -0.1849 -0.4173  0.3168
  816MOL0     C10036   3.689   2.622   0.403  0.9553  0.5313 -0.4714
  816MOL0     C10037   3.839   2.576   0.392 -0.4083  0.2336 -0.3773
  816MOL0     C10038   3.894   2.634   0.257 -0.4941  0.2943 -0.4431
  816MOL0     C10039   4.047   2.587   0.236  0.1495 -0.7994 -0.8111
  816MOL0     C10040   4.077   2.588   0.093  0.1508  0.2299  0.1687
  816MOL0     C10041   4.209   2.515   0.062  0.1731 -0.0510  0.5538
  816MOL0     N10042   4.331   2.583   0.114 -0.0654  0.1405  0.2933
  816MOL0     C10043   4.388   2.695   0.052 -0.7981  0.1342  0.6461
  816MOL0     C10044   4.492   2.727   0.134 -0.0296  0.2055  0.2953
  816MOL0     C10045   4.594   2.848   0.116  0.2895  0.0757 -0.4809
  816MOL0     C10046   4.716   2.809   0.040 -0.0974 -0.0455  0.1578
  816MOL0     C10047   4.810   2.727   0.124 -0.2466 -0.1561 -0.2520
  816MOL0     C10048   4.948   2.723   0.065 -0.2243 -0.7909 -0.3198
  816MOL0     O10049   5.022   2.849   0.070  0.1298  0.3753 -0.1451
  816MOL0     C10050   5.164   2.851   0.069  0.0429  0.3010 -0.1502
  816MOL0     C10051   5.240   2.737   0.104 -0.2319  0.1258  0.1113
  816MOL0     C10052   5.375   2.735   0.123  0.9581  0.1531 -0.1992
  816MOL0     C10053   5.441   2.859   0.107 -0.4336  0.2916 -0.1662
  816MOL0     C10054   5.590   2.869   0.129 -0.1470  0.2648 -0.2948
  816MOL0     O10055   5.657   2.965   0.067  0.0827  0.2242  0.4943
  816MOL0     C10056   5.802   2.970   0.054  0.3698  0.0069 -0.2171
  816MOL0     C10057   5.868   3.088   0.042 -0.4218 -0.0439  0.1280
  816MOL0     C10058   6.009   3.093   0.026 -0.0220 -0.2394  0.2849
  816MOL0     C10059   6.081   2.973   0.011  0.8613 -0.1212 -0.9132
  816MOL0     O10060   6.211   2.982  -0.017 -0.6745  0.4262  0.5022
  816MOL0     C10061   6.308   2.891   0.038  0.3771  0.2286  0.1728
  816MOL0     C10062   6.446   2.933  -0.003 -0.8083 -0.3541 -0.2209
  816MOL0     C10063   6.489   2.885  -0.143  0.3536 -0.5445  0.6742
  816MOL0     C10064   6.644   2.923  -0.179 -0.0620  0.2655 -0.1440
  816MOL0     C10065   6.702   2.844  -0.294 -0.4825  0.2639 -0.0079
  816MOL0     C10066   6.862   2.839  -0.287  0.1993 -0.4590 -0.1094
  816MOL0     C10067   6.936   2.762  -0.395  0.6439  0.0192 -0.2092
  816MOL0     C10068   6.957   2.830  -0.527  0.3076 -0.4517  0.2433
  816MOL0    Cl10069   7.087   2.768  -0.621  0.0288 -0.0421  0.0771
  816MOL0     C10070   6.016   2.851   0.017 -0.6970 -0.0570  0.1082
  816MOL0     C10071   5.879   2.847   0.040  0.8240 -0.0660 -0.4222
  816MOL0     O10072   5.638   2.778   0.195  0.2363  0.3530 -0.7076
  816MOL0     C10073   5.371   2.969   0.058  0.5828  0.2927  0.1877
  816MOL0     C10074   5.234   2.968   0.033 -0.3399 -0.3712 -0.2052
  816MOL0     N10075   4.483   2.643   0.242 -0.5723 -0.8101 -0.6547
  816MOL0     N10076   4.397   2.555   0.234  0.1405  0.2652 -0.7233
  816MOL0     C10077   3.217   2.661   0.564 -0.0744  0.2862 -0.0472
  816MOL0     C10078   3.076   2.700   0.591  0.4516 -0.1714 -0.0141
  816MOL0     C10079   2.694   2.963   0.545 -0.5087  0.4560  0.3015
  816MOL0     C10080   2.651   2.872   0.442 -0.3460 -0.8662 -0.2540
  816MOL0     C10081   2.531   2.874   0.377 -0.1609 -0.0323 -0.8196
  816MOL0     C10082   2.434   2.970   0.424 -0.5945  0.4523 -0.1274
  816MOL0     O10083   2.306   2.972   0.371 -0.3719 -0.4873  0.1410
  816MOL0     C10084   2.260   2.874   0.281 -0.6220 -1.0416 -0.6880
  816MOL0     C10085   2.104   2.874   0.294  0.5654 -0.7579 -0.1950
  816MOL0     C10086   2.039   3.009   0.241 -0.1821  0.5419 -0.5300
  816MOL0     C10087   1.902   3.042   0.311 -0.0171 -0.3285 -0.6342
  816MOL0     C10088   1.803   2.943   0.301  0.0788  0.4529  0.0850
  816MOL0     C10089   1.726   2.848   0.291 -0.7970  0.1190  0.5349
  816MOL0     C10090   2.468   3.053   0.533  0.9883  0.0536 -0.8271
  816MOL0     C10091   2.593   3.055   0.595 -0.2076 -0.2802  0.1577
  816MOL0     C10092   2.618   3.155   0.706  0.4436  0.3770  0.0324
  816MOL0     H10093   3.111   3.021   0.515  0.2985 -0.8593 -2.4180
  816MOL0     H10094   3.358   2.946   0.494  1.4638 -1.2959  1.7970
  816MOL0     H10095   3.473   2.585   0.667  2.8871  1.2860  0.5967
  816MOL0     H10096   3.447   2.505   0.509  2.1930 -0.8809  1.1077
  816MOL0     H10097   3.688   2.515   0.595 -0.4457  0.5535  2.5711
  816MOL0     H10098   3.675   2.690   0.605  1.2779 -0.4069 -0.5598
  816MOL0     H10099   3.679   2.726   0.372  0.0510  0.4162 -0.5768
  816MOL0     H10100   3.639   2.557   0.331  2.1049 -0.2359 -0.6119
  816MOL0     H10101   3.895   2.628   0.471 -0.9042  1.7392 -0.9738
  816MOL0     H10102   3.853   2.468   0.398 -0.4893  0.2028 -0.7445
  816MOL0     H10103   3.829   2.599   0.177 -3.1939 -0.4929  1.9255
  816MOL0     H10104   3.888   2.743   0.257 -1.6093  0.2723 -2.3469
  816MOL0     H10105   4.112   2.656   0.291 -0.4368  0.2327 -1.3808
  816MOL0     H10106   4.065   2.492   0.286  1.3260 -0.5161 -0.6710
  816MOL0     H10107   4.082   2.690   0.053 -1.5828 -0.3490 -1.6590
  816MOL0     H10108   3.993   2.541   0.041 -0.4909 -1.2590  2.3946
  816MOL0     H10109   4.208   2.412   0.100 -0.7365 -1.5387 -3.0325
  816MOL0     H10110   4.214   2.486  -0.043  2.3456 -1.9227  1.0759
  816MOL0     H10111   4.365   2.752  -0.037 -2.6003 -0.2917  0.8122
  816MOL0     H10112   4.539   2.933   0.075  0.3664  1.0400  1.2975
  816MOL0     H10113   4.612   2.869   0.222  1.6613  1.5018 -0.9675
  816MOL0     H10114   4.694   2.773  -0.061  1.5285  2.1308 -1.0576
  816MOL0     H10115   4.768   2.905   0.035 -0.3407  0.0442 -0.8196
  816MOL0     H10116   4.775   2.624   0.129 -0.1536 -0.2024 -0.5585
  816MOL0     H10117   4.811   2.773   0.223 -0.9065  2.0080 -1.1876
  816MOL0     H10118   4.945   2.684  -0.037  1.1447  2.3955 -1.7295
  816MOL0     H10119   4.995   2.644   0.125  0.5064 -0.9861 -1.1348
  816MOL0     H10120   5.195   2.643   0.132  0.7942 -0.1381  0.9809
  816MOL0     H10121   5.409   2.635   0.150 -0.4440 -0.2423  0.1946
  816MOL0     H10122   5.802   3.174   0.038 -2.8736 -1.8008  0.0866
  816MOL0     H10123   6.061   3.187   0.008 -0.7995 -0.1986 -1.9894
  816MOL0     H10124   6.302   2.878   0.147 -0.0453  1.7915  0.3662
  816MOL0     H10125   6.294   2.792  -0.006  2.2229 -0.0092  0.0390
  816MOL0     H10126   6.452   3.042   0.006  0.4037 -0.5730  2.3689
  816MOL0     H10127   6.513   2.881   0.066  0.1638 -0.9528 -1.5775
  816MOL0     H10128   6.466   2.780  -0.158  2.6030 -1.0041  0.0627
  816MOL0     H10129   6.434   2.933  -0.225  3.0381 -1.1904 -1.6876
  816MOL0     H10130   6.702   2.902  -0.089 -3.2379  0.7692  2.1850
  816MOL0     H10131   6.652   3.031  -0.196 -0.9214  0.5888  1.3717
  816MOL0     H10132   6.673   2.875  -0.395  2.6400  0.9272 -0.8057
  816MOL0     H10133   6.667   2.742  -0.281 -0.0617  0.1005 -0.1321
  816MOL0     H10134   6.896   2.941  -0.271  1.2858 -1.1514  2.5234
  816MOL0     H10135   6.889   2.786  -0.195 -3.1679 -1.0750  0.6489
  816MOL0     H10136   6.894   2.663  -0.417 -2.3111  1.4573 -1.6042
  816MOL0     H10137   7.037   2.742  -0.359  1.6819  3.1069 -1.1338
  816MOL0     H10138   6.863   2.818  -0.582  0.4047  1.4342 -0.4035
  816MOL0     H10139   6.980   2.937  -0.526 -0.6677 -0.2268  1.5600
  816MOL0     H10140   6.073   2.759   0.005  1.4065  0.5155  3.9643
  816MOL0     H10141   5.828   2.752   0.053  0.8448 -0.2892 -1.8073
  816MOL0     H10142   5.412   3.068   0.036  0.3668  1.5517  4.5062
  816MOL0     H10143   5.187   3.064   0.013 -1.4701 -0.9789 -0.5163
  816MOL0     H10144   3.236   2.560   0.598 -0.7070  1.0383  2.7386
  816MOL0     H10145   3.012   2.621   0.631  0.6975 -0.1741  0.3828
  816MOL0     H10146   2.717   2.793   0.407  0.7864 -0.5326  1.0267
  816MOL0     H10147   2.513   2.797   0.303  1.0871 -1.1067 -0.0563
  816MOL0     H10148   2.290   2.776   0.319  0.5425 -0.6923 -0.6494
  816MOL0     H10149   2.299   2.895   0.181  0.9086  1.1836  0.2869
  816MOL0     H10150   2.073   2.844   0.394  4.0718 -3.4027  0.2805
  816MOL0     H10151   2.067   2.791   0.232  1.2492 -0.8611 -0.4719
  816MOL0     H10152   2.026   2.988   0.134  1.1204  1.0397 -0.8024
  816MOL0     H10153   2.112   3.090   0.241  0.1007  0.2888 -0.1363
  816MOL0     H10154   1.919   3.079   0.413  3.2534 -0.3618 -1.0527
  816MOL0     H10155   1.866   3.136   0.269  3.1032  0.4585 -1.8095
  816MOL0     H10156   1.664   2.762   0.309  0.2118 -0.2759  2.4550
  816MOL0     H10157   2.404   3.135   0.564  2.6197  1.4780 -1.0947
  816MOL0     H10158   2.523   3.196   0.743 -0.7661 -2.0706 -0.1659
  816MOL0     H10159   2.664   3.110   0.794 -1.0875  1.4239  1.4351
  816MOL0     H10160   2.680   3.241   0.678  0.2169  1.1952  1.8653
  817MOL0     O10161   9.189   1.646   3.879  0.2707  0.0372 -1.0714
  817MOL0     C10162   9.138   1.689   3.983  1.2632 -0.7209 -0.0393
  817MOL0     O10163   9.202   1.749   4.082 -0.1397  0.1010  0.3509
  817MOL0     C10164   9.339   1.752   4.062  0.6535  0.1797 -0.7058
  817MOL0     C10165   9.394   1.834   3.969 -0.6951 -0.2805  0.2045
  817MOL0     C10166   9.532   1.823   3.933 -0.1129 -0.1675 -0.7886
  817MOL0     C10167   9.619   1.732   4.013 -0.6842 -0.6039  0.6516
  817MOL0     O10168   9.749   1.712   3.987  0.1686 -0.1032 -0.2791
  817MOL0     C10169   9.824   1.833   3.987  0.5221  0.3580 -0.0872
  817MOL0     C10170   9.962   1.780   3.982 -0.7161 -0.8118 -0.0372
  817MOL0     C10171  10.057   1.898   3.956  0.2150 -0.5240 -1.0379
  817MOL0     C10172  10.191   1.864   4.014 -0.5474  0.8459  0.2137
  817MOL0     C10173  10.296   1.964   3.954 -0.4715  0.2310  0.3189
  817MOL0     C10174  10.431   1.947   4.036 -0.7455 -0.0911  0.6408
  817MOL0     C10175  10.538   2.050   3.997 -0.6329 -0.0636  0.4801
  817MOL0     C10176  10.599   2.022   3.860  0.7894 -0.0565 -0.7295
  817MOL0     N10177  10.718   2.106   3.827  0.0748  0.0424  0.1895
  817MOL0     C10178  10.823   2.121   3.916 -0.8239 -0.1045 -0.8215
  817MOL0     C10179  10.913   2.193   3.853  0.5286 -0.8945  0.4072
  817MOL0     C10180  11.047   2.235   3.919  0.6393 -0.4363 -0.0439
  817MOL0     C10181  11.159   2.235   3.814 -0.4954  0.5734  0.4483
  817MOL0     C10182  11.284   2.285   3.886  0.2496  0.1452 -0.6072
  817MOL0     C10183  11.407   2.277   3.812 -0.2182 -0.2345 -0.5560
  817MOL0     O10184  11.509   2.273   3.914  0.3727  0.2907 -1.6084
  817MOL0     C10185  11.642   2.253   3.887  0.3883  0.2076 -0.3781
  817MOL0     C10186  11.702   2.243   3.765  0.4941 -0.1441  0.4043
  817MOL0     C10187  11.842   2.235   3.748  0.7426  0.6750  0.2812
  817MOL0     C10188  11.922   2.215   3.857 -0.4257  0.2706  0.0202
  817MOL0     C10189  12.071   2.196   3.847  0.5434 -0.1499  0.3554
  817MOL0     O10190  12.128   2.219   3.724  0.2562 -0.5403  0.4049
  817MOL0     C10191  12.270   2.186   3.718  0.2244  0.3864 -0.4919
  817MOL0     C10192  12.319   2.097   3.627  0.0196 -0.5254  0.6272
  817MOL0     C10193  12.454   2.057   3.635 -0.1735 -0.1964  0.1007
  817MOL0     C10194  12.550   2.116   3.717 -0.4897  0.1237  0.1379
  817MOL0     O10195  12.684   2.087   3.704  0.6759  0.1505 -0.9584
  817MOL0     C10196  12.748   2.084   3.837  0.2828  0.1579  0.0500
  817MOL0     C10197  12.891   2.046   3.817  0.0700 -0.0301 -0.1433
  817MOL0     C10198  12.969   2.145   3.724  0.1625  0.0448 -0.2637
  817MOL0     C10199  13.119   2.111   3.737 -0.6643  0.2761  0.1105
  817MOL0     C10200  13.197   2.214   3.651  0.4795  0.1553 -0.1982
  817MOL0     C10201  13.343   2.225   3.684 -0.7215  0.3899  0.3363
  817MOL0     C10202  13.404   2.081   3.646  0.3356 -1.0988  0.0114
  817MOL0     C10203  13.562   2.090   3.609  0.2406  0.0075 -0.8251
  817MOL0    Cl10204  13.663   2.160   3.741 -0.2377  0.0790 -0.1337
  817MOL0     C10205  12.500   2.209   3.806 -0.3307  0.2220 -0.3387
  817MOL0     C10206  12.363   2.244   3.809 -0.1982 -0.2466 -0.6779
  817MOL0     O10207  12.123   2.143   3.948  0.8061  0.3067  0.5712
  817MOL0     C10208  11.858   2.225   3.987  0.6954  0.3127  0.3667
  817MOL0     C10209  11.715   2.242   3.997 -0.0013 -0.6140  0.0261
  817MOL0     N10210  10.855   2.247   3.738  0.4126  0.5254 -0.3180
  817MOL0     N10211  10.739   2.198   3.732  0.3795 -0.7707  0.7826
  817MOL0     C10212   9.559   1.659   4.112 -0.5682  0.6709  0.2258
  817MOL0     C10213   9.424   1.671   4.141  0.4817  0.3340  0.6104
  817MOL0     C10214   8.994   1.679   4.012 -0.1624 -0.3509 -0.8480
  817MOL0     C10215   8.924   1.631   3.900 -0.6292  0.8224  0.1244
  817MOL0     C10216   8.783   1.647   3.901 -0.4813 -0.1118 -0.7701
  817MOL0     C10217   8.707   1.687   4.014 -0.1190  0.0630 -0.3965
  817MOL0     O10218   8.570   1.693   4.014  0.4835 -0.1714  0.0160
  817MOL0     C10219   8.485   1.597   3.938  0.2124  0.8020  0.5580
  817MOL0     C10220   8.360   1.658   3.881 -0.4606  0.6248 -0.3014
  817MOL0     C10221   8.277   1.565   3.784  0.0240  0.3048 -0.0965
  817MOL0     C10222   8.225   1.449   3.867  0.0587 -0.0176  0.2006
  817MOL0     C10223   8.139   1.362   3.786  0.4174 -0.7927 -0.8822
  817MOL0     C10224   8.041   1.314   3.723  0.0671 -0.4368  0.5120
  817MOL0     C10225   8.772   1.721   4.122 -0.6034  1.0819  0.1629
  817MOL0     C10226   8.915   1.711   4.126  0.7902 -0.1555  0.5592
  817MOL0     C10227   8.981   1.723   4.259  0.1532 -0.6466 -0.8653
  817MOL0     H10228   9.340   1.905   3.907 -2.0335  0.5039  2.1740
  817MOL0     H10229   9.576   1.880   3.852  1.9353 -0.5185  0.0133
  817MOL0     H10230   9.800   1.891   3.897  0.3581 -0.4046 -0.5442
  817MOL0     H10231   9.804   1.890   4.078 -0.7772 -0.7852  0.3822
  817MOL0     H10232   9.975   1.701   3.908  1.6519  1.2860 -2.0223
  817MOL0     H10233   9.974   1.734   4.081  1.0694 -0.7732 -0.2122
  817MOL0     H10234  10.023   1.988   4.009  0.3795 -1.2613  0.3620
  817MOL0     H10235  10.066   1.927   3.851  0.9937  0.2530 -0.7664
  817MOL0     H10236  10.183   1.875   4.123 -2.2319 -0.4736  0.2746
  817MOL0     H10237  10.221   1.764   3.982 -1.0401  0.2869  1.4287
  817MOL0     H10238  10.297   1.948   3.846  0.7373 -0.1742  0.3849
  817MOL0     H10239  10.252   2.063   3.971 -3.1845 -0.6498 -1.0151
  817MOL0     H10240  10.403   1.953   4.141  1.9235  1.0134  1.3772
  817MOL0     H10241  10.457   1.843   4.018 -1.6901 -0.0972 -0.9354
  817MOL0     H10242  10.615   2.049   4.074  0.9209 -0.2977 -1.0089
  817MOL0     H10243  10.488   2.148   3.995  0.8363  0.7089 -0.1367
  817MOL0     H10244  10.624   1.917   3.875 -0.4016 -0.1995  0.4897
  817MOL0     H10245  10.521   2.025   3.782 -0.2124 -0.1459  0.2485
  817MOL0     H10246  10.826   2.080   4.016  0.7224 -3.0577 -1.9507
  817MOL0     H10247  11.029   2.336   3.957 -0.9776 -0.5968 -0.3189
  817MOL0     H10248  11.065   2.175   4.008  1.7002 -0.3835 -0.2013
  817MOL0     H10249  11.174   2.135   3.771 -2.3966  1.3821 -2.3726
  817MOL0     H10250  11.127   2.303   3.735 -0.4679  0.7441  0.5832
  817MOL0     H10251  11.303   2.243   3.986 -0.3969  0.3181 -0.4010
  817MOL0     H10252  11.254   2.388   3.908  2.3422  0.8824 -1.0191
  817MOL0     H10253  11.423   2.363   3.746 -0.9863  0.7842  0.5445
  817MOL0     H10254  11.414   2.187   3.750  0.6654 -1.0146  0.6061
  817MOL0     H10255  11.648   2.267   3.674  2.5124 -1.5126 -1.2547
  817MOL0     H10256  11.874   2.233   3.645  0.2275 -1.7770  0.0884
  817MOL0     H10257  12.252   2.044   3.559 -0.0582  0.8171 -0.3744
  817MOL0     H10258  12.483   1.973   3.574 -0.4212 -0.3841  0.2392
  817MOL0     H10259  12.731   2.180   3.887  0.1246  1.2176 -1.9383
  817MOL0     H10260  12.701   2.006   3.897  0.3689 -0.7632 -1.0419
  817MOL0     H10261  12.940   2.040   3.915  1.7847 -0.3093 -0.9875
  817MOL0     H10262  12.898   1.946   3.772  0.8656 -0.3052  0.5483
  817MOL0     H10263  12.924   2.140   3.624  1.0726 -3.3292 -0.6322
  817MOL0     H10264  12.969   2.249   3.757  0.9110 -0.3792  1.1272
  817MOL0     H10265  13.136   2.012   3.694 -3.4278 -0.9182  1.5164
  817MOL0     H10266  13.156   2.103   3.839  1.8138 -2.0109 -0.8676
  817MOL0     H10267  13.161   2.315   3.669  0.2439 -0.1943  1.4006
  817MOL0     H10268  13.182   2.193   3.544  2.9430 -2.2575 -0.1845
  817MOL0     H10269  13.377   2.303   3.615 -3.8896 -0.8213 -2.8772
  817MOL0     H10270  13.357   2.238   3.792 -0.6720  0.3170  0.3374
  817MOL0     H10271  13.357   2.025   3.564 -1.3137  0.6468 -0.3113
  817MOL0     H10272  13.382   2.017   3.732 -0.9533 -1.1539 -0.3330
  817MOL0     H10273  13.592   1.986   3.601  1.9820 -0.0971  3.9882
  817MOL0     H10274  13.590   2.142   3.517  2.2428  0.8378  0.1842
  817MOL0     H10275  12.557   2.259   3.884 -0.6283 -0.8560  0.5959
  817MOL0     H10276  12.321   2.310   3.883  0.0390 -1.4386  0.5628
  817MOL0     H10277  11.913   2.232   4.080 -0.4312 -0.2534  1.0948
  817MOL0     H10278  11.679   2.255   4.099 -0.5777  1.6414 -0.4287
  817MOL0     H10279   9.607   1.588   4.178  1.5107  0.4245 -1.4323
  817MOL0     H10280   9.394   1.600   4.217  0.9646 -0.5305  0.0064
  817MOL0     H10281   8.973   1.600   3.808  0.3129  2.0797  0.1783
  817MOL0     H10282   8.741   1.614   3.806  1.9642 -2.7622 -1.0941
  817MOL0     H10283   8.463   1.511   4.002  1.0212 -1.8056 -2.4195
  817MOL0     H10284   8.542   1.556   3.854 -2.1309 -2.7376  0.4802
  817MOL0     H10285   8.405   1.742   3.827 -0.0353  0.1102 -0.7574
  817MOL0     H10286   8.292   1.699   3.957 -0.5210  1.3805 -0.7461
  817MOL0     H10287   8.352   1.524   3.715 -0.3262  2.7102 -2.0457
  817MOL0     H10288   8.195   1.617   3.733 -0.9560 -0.3161  0.8203
  817MOL0     H10289   8.309   1.391   3.907 -1.2653 -1.4392  1.0241
  817MOL0     H10290   8.173   1.494   3.952  0.6196  1.4510 -0.1953
  817MOL0     H10291   7.960   1.255   3.683  0.7457  0.3712 -2.2776
  817MOL0     H10292   8.714   1.746   4.210 -1.8163  1.9336 -0.8459
  817MOL0     H10293   9.045   1.811   4.272 -1.1819  0.2304  0.0813
  817MOL0     H10294   8.913   1.739   4.343  1.8423  0.5776  0.3498
  817MOL0     H10295   9.036   1.629   4.272  2.2636  0.7072  0.7945
  818MOL0     O10296   9.728   1.900   8.000 -0.0410  0.5081  0.5146
  818MOL0     C10297   9.690   2.006   7.949 -1.2849  1.0815  0.3788
  818MOL0     O10298   9.756   2.058   7.825 -0.3061  0.3875 -0.3067
  818MOL0     C10299   9.877   2.000   7.792  0.6972 -0.8370  0.5754
  818MOL0     C10300   9.995   2.068   7.824 -0.4731  0.7482 -0.4459
  818MOL0     C10301  10.116   2.008   7.794  0.5539  0.6466 -0.2265
  818MOL0     C10302  10.125   1.887   7.724  0.9189 -0.3379 -0.7858
  818MOL0     O10303  10.244   1.845   7.662 -0.1919 -0.1222  0.5651
  818MOL0     C10304  10.281   1.709   7.664 -0.0722 -0.0902 -0.1623
  818MOL0     C10305  10.428   1.698   7.626 -0.6492  0.3542 -0.8862
  818MOL0     C10306  10.444   1.681   7.478 -0.3143 -0.0852 -0.2631
  818MOL0     C10307  10.451   1.807   7.387 -0.6339 -0.4585 -0.0366
  818MOL0     C10308  10.464   1.772   7.241  0.6953 -0.4188  0.1330
  818MOL0     C10309  10.451   1.895   7.149 -0.9300 -0.5547 -1.3886
  818MOL0     C10310  10.308   1.947   7.130  0.9014  0.0512 -0.3209
  818MOL0     C10311  10.301   2.080   7.056 -0.3467  0.8788 -0.4578
  818MOL0     N10312  10.321   2.050   6.910 -0.3609  0.7445 -0.8913
  818MOL0     C10313  10.234   2.019   6.809 -1.2361 -0.4055  0.1844
  818MOL0     C10314  10.314   1.990   6.703 -0.0109 -0.2831  0.6367
  818MOL0     C10315  10.258   1.928   6.584  0.3832 -0.1811  0.4935
  818MOL0     C10316  10.270   2.013   6.456  0.5477 -1.0189 -0.1007
  818MOL0     C10317  10.176   2.136   6.448  1.0918  0.5280 -0.1169
  818MOL0     C10318  10.027   2.107   6.424 -0.3011 -0.0771 -0.5958
  818MOL0     O10319   9.964   2.147   6.548  0.2113 -0.1963  0.9717
  818MOL0     C10320   9.940   2.283   6.573  0.1569  0.5051  0.3083
  818MOL0     C10321   9.870   2.317   6.686 -0.2579 -0.2053 -0.7025
  818MOL0     C10322   9.831   2.450   6.705 -0.2215  0.6550 -0.3534
  818MOL0     C10323   9.868   2.558   6.621  0.1382  0.9020 -0.6953
  818MOL0     C10324   9.823   2.693   6.649  0.0450 -0.7036  0.5352
  818MOL0     O10325   9.745   2.702   6.763  0.0913 -0.5014 -0.3214
  818MOL0     C10326   9.684   2.824   6.801 -0.2529  0.1347  0.5393
  818MOL0     C10327   9.675   2.945   6.731  0.5834 -0.0859  0.1803
  818MOL0     C10328   9.615   3.055   6.776  0.9310 -0.4682 -0.2102
  818MOL0     C10329   9.539   3.047   6.897  0.9685  0.1940  0.4685
  818MOL0     O10330   9.463   3.156   6.935  0.8781  0.6836  0.2884
  818MOL0     C10331   9.322   3.148   6.953 -0.2185 -0.9814  0.2808
  818MOL0     C10332   9.241   3.057   6.854  1.1086 -0.2322  0.8918
  818MOL0     C10333   9.092   3.075   6.871  0.5411  0.1037 -0.0686
  818MOL0     C10334   9.035   3.190   6.794  0.9701 -0.0366 -0.1036
  818MOL0     C10335   8.886   3.218   6.828  0.4721  0.3057  0.1332
  818MOL0     C10336   8.858   3.300   6.952 -0.1441 -0.6413 -0.1820
  818MOL0     C10337   8.817   3.224   7.069  1.0748  0.0169  0.1423
  818MOL0     C10338   8.719   3.311   7.159  0.6119 -0.8052 -1.0278
  818MOL0    Cl10339   8.685   3.201   7.300  0.0689 -0.1570 -0.3672
  818MOL0     C10340   9.522   2.931   6.965 -0.3987  0.6024 -0.0730
  818MOL0     C10341   9.606   2.822   6.920  0.7371 -0.7937  0.5514
  818MOL0     O10342   9.881   2.785   6.587 -0.9731  0.2004  0.8240
  818MOL0     C10343   9.953   2.519   6.516  0.9311 -0.6109  0.2547
  818MOL0     C10344   9.988   2.386   6.489 -0.1925  0.8114  0.7891
  818MOL0     N10345  10.450   2.013   6.736  0.2753  0.0582 -0.0867
  818MOL0     N10346  10.451   2.056   6.857  0.0806  0.6394  0.0568
  818MOL0     C10347  10.000   1.829   7.686 -0.6298 -0.4194  0.1153
  818MOL0     C10348   9.879   1.887   7.715 -0.1219  0.5038  0.0539
  818MOL0     C10349   9.568   2.081   7.994  0.6528  0.1693  0.0617
  818MOL0     C10350   9.523   2.195   7.920 -0.8251 -0.5966  1.1001
  818MOL0     C10351   9.417   2.270   7.974  0.1576  0.3284  0.7033
  818MOL0     C10352   9.346   2.253   8.094 -0.2620  0.3479  0.1204
  818MOL0     O10353   9.267   2.345   8.148  0.1688 -0.2483  0.3634
  818MOL0     C10354   9.257   2.479   8.097 -0.5848 -0.3466  0.3035
  818MOL0     C10355   9.197   2.562   8.208  0.0230  0.3601 -0.3711
  818MOL0     C10356   9.052   2.539   8.218  1.6531  0.4577 -0.0646
  818MOL0     C10357   8.972   2.621   8.319  0.6422 -0.3821  0.5423
  818MOL0     C10358   9.006   2.565   8.445 -0.1408  0.0918  0.8334
  818MOL0     C10359   9.030   2.504   8.546  0.0266  0.4778  0.3054
  818MOL0     C10360   9.391   2.140   8.164  0.3060  0.0184  0.2060
  818MOL0     C10361   9.496   2.059   8.117 -0.5516  0.0306 -0.1867
  818MOL0     C10362   9.554   1.954   8.211  0.4080 -0.7567  0.8706
  818MOL0     H10363   9.987   2.161   7.880 -1.8560 -0.1790  1.0037
  818MOL0     H10364  10.204   2.071   7.806 -0.7177  2.3880  0.3009
  818MOL0     H10365  10.279   1.669   7.766 -1.3279  3.4180  1.3393
  818MOL0     H10366  10.224   1.643   7.599  1.4090  0.4986 -2.1309
  818MOL0     H10367  10.481   1.618   7.677  1.1815  1.0174 -1.6695
  818MOL0     H10368  10.482   1.787   7.660  1.4002 -0.5967 -1.4819
  818MOL0     H10369  10.365   1.614   7.443  0.6468 -2.0899  1.2139
  818MOL0     H10370  10.539   1.629   7.470 -0.0112  0.7432 -3.5126
  818MOL0     H10371  10.357   1.862   7.401 -1.6911 -2.4213  1.0621
  818MOL0     H10372  10.536   1.867   7.419  0.0514  0.6728 -3.5909
  818MOL0     H10373  10.559   1.721   7.221 -0.2954 -1.6870 -1.6183
  818MOL0     H10374  10.381   1.706   7.214 -1.1599  1.0027  2.0465
  818MOL0     H10375  10.516   1.977   7.182  1.6797 -3.8407  2.5700
  818MOL0     H10376  10.497   1.861   7.055 -0.1257  0.7496 -1.4998
  818MOL0     H10377  10.262   1.967   7.227  1.2534 -0.7669  0.0215
  818MOL0     H10378  10.247   1.876   7.073  2.4618 -2.0974  0.5672
  818MOL0     H10379  10.200   2.120   7.073 -0.1107  1.3977 -0.2586
  818MOL0     H10380  10.371   2.148   7.105  0.1989  0.4988 -0.7071
  818MOL0     H10381  10.127   1.997   6.811 -0.9009 -2.4229 -1.2475
  818MOL0     H10382  10.301   1.831   6.559 -1.0693 -0.2003 -2.2713
  818MOL0     H10383  10.151   1.905   6.593 -0.2528 -0.8058 -5.1205
  818MOL0     H10384  10.370   2.054   6.445  0.4105 -1.0835 -1.8064
  818MOL0     H10385  10.258   1.948   6.369  0.7394  1.2464 -1.9075
  818MOL0     H10386  10.209   2.207   6.371  0.9385  1.4496  0.6523
  818MOL0     H10387  10.189   2.195   6.540 -2.4518  0.2401  0.7062
  818MOL0     H10388  10.021   1.999   6.407  0.8779 -0.1170 -0.8684
  818MOL0     H10389   9.998   2.163   6.334 -2.6402 -2.4219 -1.4409
  818MOL0     H10390   9.839   2.239   6.755  1.1741  1.5108  2.0734
  818MOL0     H10391   9.751   2.458   6.779  0.1300 -0.3204  0.1410
  818MOL0     H10392   9.716   2.957   6.632 -0.4893 -1.6237 -0.4928
  818MOL0     H10393   9.611   3.153   6.730  0.1735 -0.1666  0.4879
  818MOL0     H10394   9.301   3.131   7.059  5.5266 -2.1406  1.5453
  818MOL0     H10395   9.290   3.252   6.940  2.5746 -0.0311  0.3646
  818MOL0     H10396   9.269   3.081   6.751  3.0200  0.4399  1.5389
  818MOL0     H10397   9.278   2.955   6.868  4.4116  0.9081  1.3648
  818MOL0     H10398   9.035   2.990   6.833 -1.0348  0.7443  0.7612
  818MOL0     H10399   9.066   3.084   6.977  0.6038  0.8159 -0.1054
  818MOL0     H10400   9.044   3.166   6.688 -1.1364 -1.4187 -0.0324
  818MOL0     H10401   9.091   3.275   6.833 -2.0934  1.6776  0.9149
  818MOL0     H10402   8.845   3.118   6.843  1.1736  0.2731  2.0384
  818MOL0     H10403   8.851   3.270   6.738 -1.9643  0.3461  1.0092
  818MOL0     H10404   8.950   3.349   6.983 -0.4893 -0.4264  0.5488
  818MOL0     H10405   8.786   3.379   6.927 -0.7835 -1.4812 -1.0529
  818MOL0     H10406   8.907   3.198   7.126  3.1250  1.1956 -2.3972
  818MOL0     H10407   8.760   3.138   7.033  1.7124  0.4334 -1.9402
  818MOL0     H10408   8.785   3.393   7.188  0.0141 -0.5475 -0.3606
  818MOL0     H10409   8.621   3.330   7.113 -0.2008 -0.0959  0.8706
  818MOL0     H10410   9.458   2.939   7.053 -2.1917 -1.7134 -1.0730
  818MOL0     H10411   9.609   2.724   6.967  0.8846  0.1027  2.5250
  818MOL0     H10412  10.002   2.593   6.453  0.5420 -1.4904 -1.1392
  818MOL0     H10413  10.056   2.368   6.407  0.6816  4.4266  0.5725
  818MOL0     H10414  10.007   1.732   7.638  2.1354 -0.7283  0.9242
  818MOL0     H10415   9.781   1.856   7.682 -0.0967  0.4953 -0.0103
  818MOL0     H10416   9.553   2.220   7.819 -2.0298 -0.1863  0.8305
  818MOL0     H10417   9.384   2.346   7.903  2.5528 -0.4822 -1.4424
  818MOL0     H10418   9.194   2.477   8.008 -0.6020 -0.9618  0.3259
  818MOL0     H10419   9.359   2.510   8.073  0.3185 -3.6359 -0.5987
  818MOL0     H10420   9.211   2.666   8.175  2.4797 -0.2365 -1.3717
  818MOL0     H10421   9.249   2.540   8.302 -1.4791  1.5509  0.8001
  818MOL0     H10422   9.029   2.432   8.217 -0.4471  0.8313 -2.8157
  818MOL0     H10423   9.014   2.568   8.120 -0.4952 -3.0115 -0.4281
  818MOL0     H10424   8.988   2.729   8.322  0.9223 -0.3972 -0.3203
  818MOL0     H10425   8.867   2.602   8.294  0.5636 -2.1617  1.9722
  818MOL0     H10426   9.042   2.442   8.633 -2.1183 -1.8748 -0.9581
  818MOL0     H10427   9.353   2.113   8.262  1.9845  1.1404  1.2176
  818MOL0     H10428   9.490   1.936   8.298  1.0819  1.5277  1.9228
  818MOL0     H10429   9.567   1.855   8.166 -2.0031 -1.0177  0.5856
  818MOL0     H10430   9.653   1.986   8.244  0.3387  1.1119 -0.5942
  819MOL0     O10431   7.807   3.122   6.012 -0.4326 -0.3949  0.8853
  819MOL0     C10432   7.732   3.036   5.955  0.4582 -0.0919 -0.4583
  819MOL0     O10433   7.773   2.938   5.865  0.4264  0.2196  0.0338
  819MOL0     C10434   7.909   2.934   5.843  0.9021  1.0007 -1.0919
  819MOL0     C10435   7.953   2.954   5.716  0.8049  0.4053  0.7262
  819MOL0     C10436   8.088   2.954   5.683  0.5909  1.2685 -0.1476
  819MOL0     C10437   8.183   2.924   5.782 -0.4832 -0.7910  1.6286
  819MOL0     O10438   8.319   2.920   5.732  0.2985  0.0069  0.0953
  819MOL0     C10439   8.404   2.829   5.807  0.5117 -0.3755 -0.1287
  819MOL0     C10440   8.492   2.912   5.905 -0.4153  0.3857 -0.0051
  819MOL0     C10441   8.606   2.987   5.839  0.7938  0.2280 -0.1013
  819MOL0     C10442   8.676   3.081   5.933  0.0896 -0.0274  0.0621
  819MOL0     C10443   8.780   3.167   5.861 -0.1064  0.5268  0.3701
  819MOL0     C10444   8.874   3.225   5.969  1.0327 -0.5431  0.6484
  819MOL0     C10445   8.978   3.319   5.910 -0.1114  0.0739  0.1058
  819MOL0     C10446   8.918   3.448   5.856  0.0472 -0.9693 -0.2000
  819MOL0     N10447   9.014   3.543   5.805  0.2388  0.1149 -0.0233
  819MOL0     C10448   9.137   3.512   5.767 -0.9031 -0.1621  0.0916
  819MOL0     C10449   9.213   3.622   5.767  0.1549  0.0260  0.3199
  819MOL0     C10450   9.362   3.618   5.725 -0.9419  0.2611  0.1816
  819MOL0     C10451   9.450   3.659   5.841  0.3288  0.8363 -0.3721
  819MOL0     C10452   9.447   3.558   5.958 -0.7356  0.3663  1.2475
  819MOL0     C10453   9.488   3.622   6.085  0.7283 -0.6819  0.1491
  819MOL0     O10454   9.606   3.705   6.065 -0.3151 -0.2575  0.6696
  819MOL0     C10455   9.738   3.661   6.056  0.2668  0.2723  0.0434
  819MOL0     C10456   9.771   3.530   6.058  0.8110 -0.0918 -0.0370
  819MOL0     C10457   9.899   3.490   6.055 -0.5164  0.3916  0.4899
  819MOL0     C10458  10.005   3.585   6.055 -0.7245  0.1614 -1.1859
  819MOL0     C10459  10.146   3.543   6.068 -0.5807 -0.2167  0.5082
  819MOL0     O10460  10.240   3.643   6.094  0.1774  0.0579 -0.1742
  819MOL0     C10461  10.375   3.607   6.083 -0.3458  0.1579  0.7731
  819MOL0     C10462  10.459   3.696   6.017 -0.3747 -0.3053  1.5097
  819MOL0     C10463  10.592   3.674   5.985 -0.4175  1.1311  0.6100
  819MOL0     C10464  10.653   3.553   6.032 -0.1274 -0.9324 -0.3123
  819MOL0     O10465  10.786   3.532   6.027 -0.3291  0.0164 -0.0058
  819MOL0     C10466  10.877   3.610   5.951  0.4198  0.0612  0.3893
  819MOL0     C10467  11.021   3.576   5.988 -0.9021 -0.3547  0.2143
  819MOL0     C10468  11.041   3.424   5.975  0.1495 -0.5608  0.0698
  819MOL0     C10469  11.184   3.393   5.932 -0.0738 -0.4165  0.7463
  819MOL0     C10470  11.286   3.446   6.024 -1.3163  0.0070  0.3577
  819MOL0     C10471  11.423   3.386   5.991  0.7858  0.3549  0.7182
  819MOL0     C10472  11.532   3.462   6.081 -0.4207  0.5133 -0.8220
  819MOL0     C10473  11.644   3.375   6.147 -0.1452  0.1246 -0.0231
  819MOL0    Cl10474  11.585   3.311   6.313  0.5109 -0.5643 -0.0139
  819MOL0     C10475  10.578   3.465   6.119  0.1163 -1.0247  0.0028
  819MOL0     C10476  10.439   3.492   6.131  0.2991  0.2584  1.2866
  819MOL0     O10477  10.169   3.436   6.019 -0.4166  0.0213  0.4950
  819MOL0     C10478   9.969   3.725   6.060 -0.9447 -0.0988 -0.0354
  819MOL0     C10479   9.835   3.761   6.058  0.4738  0.1844 -0.1738
  819MOL0     N10480   9.129   3.726   5.812 -0.5433 -0.1412 -0.5979
  819MOL0     N10481   9.013   3.677   5.837  0.7005  0.2308  1.4047
  819MOL0     C10482   8.141   2.893   5.910  0.9181 -0.2903 -0.2480
  819MOL0     C10483   8.005   2.905   5.941 -0.1109  0.5637  0.5797
  819MOL0     C10484   7.592   3.044   5.994  0.1902  0.2083 -0.5545
  819MOL0     C10485   7.522   2.922   5.978 -0.3235  0.0771 -0.4112
  819MOL0     C10486   7.392   2.904   6.021  0.7297  0.0985  0.1422
  819MOL0     C10487   7.311   3.011   6.050  0.1075 -0.1789  0.1377
  819MOL0     O10488   7.186   2.989   6.100  0.1725 -0.6987  0.1114
  819MOL0     C10489   7.148   3.077   6.211 -0.2704  0.0966 -0.6219
  819MOL0     C10490   7.215   3.031   6.345  0.2793 -0.2116  0.1084
  819MOL0     C10491   7.183   2.886   6.388  0.6890 -0.4043  0.1296
  819MOL0     C10492   7.204   2.868   6.534 -0.0184  0.1262 -0.8112
  819MOL0     C10493   7.340   2.901   6.587  0.8390  0.2118 -0.4641
  819MOL0     C10494   7.447   2.934   6.625 -0.4832  0.6574 -0.5229
  819MOL0     C10495   7.379   3.143   6.039  0.1976  0.4492  0.1962
  819MOL0     C10496   7.521   3.158   6.023  0.3247  0.1960  0.3301
  819MOL0     C10497   7.580   3.296   6.048 -0.0074 -0.3285  0.0075
  819MOL0     H10498   7.881   2.977   5.639  1.0876  1.1789  0.6767
  819MOL0     H10499   8.106   2.961   5.576  1.2514  0.9253 -0.0635
  819MOL0     H10500   8.371   2.735   5.852 -2.3174 -1.6200 -4.2315
  819MOL0     H10501   8.473   2.795   5.729  0.1435 -1.6087  0.0555
  819MOL0     H10502   8.524   2.867   6.000 -3.8495  2.2791  2.2197
  819MOL0     H10503   8.417   2.979   5.947 -0.9559 -1.6471  2.4972
  819MOL0     H10504   8.549   3.045   5.766  0.3867 -0.5104 -0.3882
  819MOL0     H10505   8.677   2.919   5.790  0.0872 -0.9780  0.4959
  819MOL0     H10506   8.612   3.149   5.989  1.0745  2.7490 -1.9753
  819MOL0     H10507   8.727   3.022   6.010 -0.0837  0.4464  0.5485
  819MOL0     H10508   8.836   3.108   5.787 -0.3626 -0.6231  1.0838
  819MOL0     H10509   8.738   3.250   5.804  0.1807 -0.1839 -0.9159
  819MOL0     H10510   8.812   3.282   6.038 -2.5082 -1.1947 -1.6783
  819MOL0     H10511   8.933   3.153   6.027  2.5477  1.9502  2.3544
  819MOL0     H10512   9.031   3.267   5.830 -2.8495 -0.0601 -1.7726
  819MOL0     H10513   9.065   3.328   5.975  2.6536  1.2096 -3.4716
  819MOL0     H10514   8.846   3.418   5.779 -0.4318 -1.8328  0.5620
  819MOL0     H10515   8.872   3.495   5.943  2.6785 -0.8085  1.2063
  819MOL0     H10516   9.182   3.414   5.760  0.3820  0.3740  0.4294
  819MOL0     H10517   9.396   3.515   5.710 -2.6011 -0.3791  0.6202
  819MOL0     H10518   9.388   3.671   5.633  0.0749 -0.4091  0.0602
  819MOL0     H10519   9.553   3.655   5.805 -0.7836 -3.0191 -3.9467
  819MOL0     H10520   9.422   3.759   5.875 -0.5941 -0.4232  2.9039
  819MOL0     H10521   9.505   3.469   5.933 -2.2850 -0.2009 -0.5517
  819MOL0     H10522   9.344   3.527   5.979 -0.0512 -2.7171  0.6050
  819MOL0     H10523   9.508   3.550   6.164  2.7346  0.1467  0.4707
  819MOL0     H10524   9.409   3.688   6.122  1.2996  0.6231 -0.8673
  819MOL0     H10525   9.698   3.451   6.055  0.6643  0.0781 -1.8087
  819MOL0     H10526   9.915   3.383   6.054 -1.6366  0.2204  0.2823
  819MOL0     H10527  10.433   3.795   5.983  0.7756 -0.3682  0.3596
  819MOL0     H10528  10.642   3.746   5.921 -3.2781  2.8165  0.1102
  819MOL0     H10529  10.845   3.596   5.848 -1.2597  0.3659  0.8373
  819MOL0     H10530  10.863   3.717   5.971 -2.4701  0.0732 -1.1785
  819MOL0     H10531  11.096   3.623   5.924  0.2826 -2.6754 -0.1799
  819MOL0     H10532  11.036   3.605   6.092 -3.0396  2.0283 -0.0234
  819MOL0     H10533  11.011   3.386   6.073  1.0295 -1.1701  0.1138
  819MOL0     H10534  10.979   3.373   5.901  0.4213 -0.7114 -0.0568
  819MOL0     H10535  11.194   3.432   5.830 -0.4837  0.4216  1.0181
  819MOL0     H10536  11.197   3.284   5.925  0.9256 -0.2192 -0.7366
  819MOL0     H10537  11.248   3.430   6.125 -1.2651 -0.9012  0.2403
  819MOL0     H10538  11.297   3.555   6.026 -1.0905 -0.0234  0.9558
  819MOL0     H10539  11.418   3.278   6.007  1.3660  0.1275 -0.5098
  819MOL0     H10540  11.452   3.408   5.888  1.1808  1.8873  1.1332
  819MOL0     H10541  11.476   3.507   6.164  0.7473  2.1425 -0.8888
  819MOL0     H10542  11.570   3.550   6.029 -0.5446  1.3793  0.5262
  819MOL0     H10543  11.679   3.293   6.084 -0.2293 -0.7079  0.9810
  819MOL0     H10544  11.715   3.456   6.166 -1.6632  1.3974  0.4413
  819MOL0     H10545  10.628   3.374   6.151  1.1118 -0.8699 -1.0339
  819MOL0     H10546  10.394   3.400   6.167  0.3230  0.1429  1.0323
  819MOL0     H10547  10.052   3.791   6.085 -2.1224  0.6618  2.1396
  819MOL0     H10548   9.810   3.866   6.057 -0.6205 -0.0540  0.2019
  819MOL0     H10549   8.199   2.849   5.990 -3.2005 -2.3489  1.9610
  819MOL0     H10550   7.978   2.895   6.046 -2.8595 -1.5575 -0.2024
  819MOL0     H10551   7.576   2.834   5.945  1.5880 -0.1753  2.9144
  819MOL0     H10552   7.336   2.811   6.027  3.4036 -1.5813  0.7153
  819MOL0     H10553   7.039   3.072   6.217 -0.3740  2.4918  0.7997
  819MOL0     H10554   7.170   3.180   6.181 -1.0748  0.9415  1.5456
  819MOL0     H10555   7.175   3.096   6.423 -0.6273 -2.1176  1.3010
  819MOL0     H10556   7.324   3.041   6.343  0.1343  1.5870 -0.6334
  819MOL0     H10557   7.250   2.829   6.324 -0.8001  1.2760 -3.2156
  819MOL0     H10558   7.078   2.869   6.362  1.0465 -0.3764 -1.4421
  819MOL0     H10559   7.135   2.929   6.593  3.5726  0.1252  3.8756
  819MOL0     H10560   7.191   2.762   6.559  4.3407 -0.3907 -0.0280
  819MOL0     H10561   7.539   2.967   6.667 -0.7523 -0.3516  0.9364
  819MOL0     H10562   7.328   3.233   6.070  0.1765 -0.1061  1.8961
  819MOL0     H10563   7.645   3.320   5.963  2.0473 -0.2169  1.5353
  819MOL0     H10564   7.502   3.371   6.064 -0.3402 -1.0338  2.0318
  819MOL0     H10565   7.634   3.293   6.143 -2.7858  0.4325  1.7382
  820MOL0     O10566   1.895   1.185  10.477  0.0259 -0.5891  0.3124
  820MOL0     C10567   1.944   1.140  10.378 -0.7722 -0.1295  0.6764
  820MOL0     O10568   2.076   1.104  10.361 -0.4322  0.1404  0.4793
  820MOL0     C10569   2.124   1.000  10.428  0.2298 -0.5389 -0.2165
  820MOL0     C10570   2.062   0.934  10.536  0.2537  0.5257  0.3597
  820MOL0     C10571   2.126   0.847  10.617 -0.5008  0.3484  0.0733
  820MOL0     C10572   2.250   0.794  10.589  0.4479  0.5524  0.5305
  820MOL0     O10573   2.298   0.695  10.669 -0.1668 -0.2080 -0.4125
  820MOL0     C10574   2.439   0.703  10.686  0.5966 -0.7019  0.0901
  820MOL0     C10575   2.536   0.616  10.599  0.5544  0.3181  0.7639
  820MOL0     C10576   2.672   0.565  10.648  0.6513 -0.3539 -0.7436
  820MOL0     C10577   2.725   0.444  10.577  0.0007  0.7169  0.5376
  820MOL0     C10578   2.761   0.462  10.423  0.4707  0.1728 -0.1904
  820MOL0     C10579   2.770   0.333  10.348 -0.1758  0.5650 -0.0264
  820MOL0     C10580   2.804   0.364  10.204 -0.2355  0.2272  0.1978
  820MOL0     C10581   2.807   0.229  10.118 -0.6508 -0.6835  0.0414
  820MOL0     N10582   2.915   0.239  10.012 -0.3667 -0.0868  0.5708
  820MOL0     C10583   2.885   0.210   9.886  0.2998  0.6653 -1.2714
  820MOL0     C10584   2.996   0.228   9.812  0.3973  0.2844  0.3380
  820MOL0     C10585   3.022   0.224   9.660  0.5568  0.6095  0.0497
  820MOL0     C10586   3.166   0.227   9.620  0.2546  0.3134  0.2855
  820MOL0     C10587   3.244   0.096   9.651  0.2533  0.1922  0.6788
  820MOL0     C10588   3.392   0.120   9.606  0.0238 -0.3429 -0.5142
  820MOL0     O10589   3.399   0.194   9.487  1.2184 -0.6363 -0.5123
  820MOL0     C10590   3.521   0.231   9.440 -0.3324 -0.5451 -0.2262
  820MOL0     C10591   3.639   0.200   9.506  0.2943  0.6469  0.5138
  820MOL0     C10592   3.759   0.251   9.464 -0.1820  0.1699  0.6300
  820MOL0     C10593   3.765   0.339   9.356 -0.2051  0.7202  0.4845
  820MOL0     C10594   3.899   0.382   9.307  0.2497 -0.0675 -0.7116
  820MOL0     O10595   4.009   0.305   9.341 -0.3802 -0.3330 -0.2699
  820MOL0     C10596   4.136   0.333   9.286 -0.6270  0.4582  0.2891
  820MOL0     C10597   4.222   0.213   9.272  0.3922  0.3281 -0.2221
  820MOL0     C10598   4.347   0.231   9.218  0.1926  0.0953  0.5075
  820MOL0     C10599   4.392   0.350   9.153 -0.0752  0.0172 -1.0990
  820MOL0     O10600   4.530   0.343   9.111  0.0861 -0.5333  0.3610
  820MOL0     C10601   4.588   0.472   9.074 -0.0896  1.0055  0.9075
  820MOL0     C10602   4.719   0.438   8.992  0.2756  0.1183 -0.7285
  820MOL0     C10603   4.775   0.563   8.942 -0.9524  0.1872 -0.3402
  820MOL0     C10604   4.914   0.539   8.873  0.6036  0.2232 -0.3001
  820MOL0     C10605   4.985   0.663   8.834 -0.0375 -0.0057  0.1446
  820MOL0     C10606   5.134   0.644   8.805  0.0787 -0.2116  0.7597
  820MOL0     C10607   5.216   0.767   8.777  0.4566 -0.0821 -0.6728
  820MOL0     C10608   5.366   0.757   8.766 -0.3434 -0.4748  0.7473
  820MOL0    Cl10609   5.409   0.723   8.601 -0.3074  0.2517  0.1169
  820MOL0     C10610   4.314   0.457   9.173 -0.5450 -0.3246 -0.2666
  820MOL0     C10611   4.190   0.454   9.242  0.5019  0.1734 -0.5074
  820MOL0     O10612   3.900   0.495   9.246 -0.5739 -1.3326 -0.3164
  820MOL0     C10613   3.646   0.370   9.298  0.2985 -0.4402 -1.0787
  820MOL0     C10614   3.519   0.330   9.345  0.0523  0.1447  0.0717
  820MOL0     N10615   3.095   0.271   9.900  0.4160  0.0980 -0.0704
  820MOL0     N10616   3.041   0.293  10.015  0.7378 -1.5274 -0.2272
  820MOL0     C10617   2.310   0.848  10.470 -0.8213  0.3035  0.3008
  820MOL0     C10618   2.247   0.950  10.394  0.6030  1.3514  0.1413
  820MOL0     C10619   1.843   1.121  10.267 -1.0175  1.1557  0.1171
  820MOL0     C10620   1.903   1.101  10.139  0.6313 -1.1113  0.5847
  820MOL0     C10621   1.820   1.088  10.027  0.3728  0.1518 -0.0310
  820MOL0     C10622   1.685   1.078  10.041  0.1563  0.7065 -0.1864
  820MOL0     O10623   1.612   1.063   9.929  0.2982  0.6163  0.8137
  820MOL0     C10624   1.486   0.991   9.936  0.1076  0.0516 -0.0862
  820MOL0     C10625   1.414   0.977   9.810  0.4028 -0.6901 -0.1540
  820MOL0     C10626   1.389   1.115   9.750  0.1774 -1.8813  0.8542
  820MOL0     C10627   1.259   1.192   9.787  0.0967 -0.1082 -0.1246
  820MOL0     C10628   1.137   1.104   9.776 -0.2694 -0.3776  0.1932
  820MOL0     C10629   1.047   1.026   9.757 -0.2708  0.0447  0.5507
  820MOL0     C10630   1.630   1.097  10.165 -0.5464 -0.9367  0.6679
  820MOL0     C10631   1.701   1.111  10.278 -0.4470 -0.7028 -0.1243
  820MOL0     C10632   1.639   1.144  10.413 -0.0897 -0.6994 -1.2663
  820MOL0     H10633   1.954   0.943  10.550  0.0506 -2.6997  1.6231
  820MOL0     H10634   2.069   0.817  10.704  0.4542  2.7456  1.6379
  820MOL0     H10635   2.469   0.806  10.702 -0.2113 -0.5270  0.5260
  820MOL0     H10636   2.448   0.658  10.785  1.4395 -0.8755 -0.0534
  820MOL0     H10637   2.566   0.681  10.516  0.2749  0.4550  0.7709
  820MOL0     H10638   2.479   0.532  10.559 -0.5327  1.9119 -1.2612
  820MOL0     H10639   2.652   0.546  10.754  0.6822 -1.6260 -0.9461
  820MOL0     H10640   2.754   0.636  10.643 -0.3372  0.8460 -0.4999
  820MOL0     H10641   2.815   0.399  10.622 -0.4380 -1.7962 -0.9074
  820MOL0     H10642   2.646   0.369  10.574  0.9065 -0.2601  0.5230
  820MOL0     H10643   2.678   0.522  10.385  0.7648 -0.0302 -1.1848
  820MOL0     H10644   2.852   0.522  10.409  0.2299  0.7323  0.5477
  820MOL0     H10645   2.843   0.261  10.387 -0.0500  0.2937 -0.7598
  820MOL0     H10646   2.670   0.291  10.364 -0.4840  1.2629 -0.0892
  820MOL0     H10647   2.897   0.421  10.198 -0.6690  0.8313 -1.0727
  820MOL0     H10648   2.724   0.425  10.160 -0.8014  1.3907  2.6628
  820MOL0     H10649   2.833   0.142  10.178  1.0139 -0.5287 -0.3999
  820MOL0     H10650   2.706   0.223  10.078 -1.9146  4.1333  1.7876
  820MOL0     H10651   2.787   0.181   9.849 -0.1431  0.5327 -0.0223
  820MOL0     H10652   2.984   0.138   9.603 -0.6010  0.7445  0.5944
  820MOL0     H10653   2.963   0.303   9.613 -1.5207 -1.5586 -1.2656
  820MOL0     H10654   3.166   0.256   9.514  0.0446  1.8099  0.6654
  820MOL0     H10655   3.210   0.304   9.684 -1.9373  2.0254 -0.0998
  820MOL0     H10656   3.186   0.014   9.608 -1.4505  0.5236  2.2294
  820MOL0     H10657   3.226   0.081   9.758 -2.8344  0.7956  0.3348
  820MOL0     H10658   3.444   0.025   9.593  0.0452 -0.4379  0.2249
  820MOL0     H10659   3.443   0.160   9.694  1.3119 -1.3814 -0.7565
  820MOL0     H10660   3.648   0.120   9.578  0.3693 -2.4823 -2.6943
  820MOL0     H10661   3.848   0.215   9.515 -0.9036 -0.2683  1.6105
  820MOL0     H10662   4.191   0.122   9.321 -0.2865  0.1608 -0.9540
  820MOL0     H10663   4.414   0.146   9.214  1.7598  1.3169 -2.7041
  820MOL0     H10664   4.525   0.538   9.014  0.4956  0.5809 -0.1992
  820MOL0     H10665   4.625   0.516   9.167 -2.8899  1.0598  2.1170
  820MOL0     H10666   4.789   0.382   9.056  0.2203 -0.4391 -1.1434
  820MOL0     H10667   4.692   0.371   8.909 -0.4414  0.0386 -0.4409
  820MOL0     H10668   4.706   0.609   8.869 -0.3230  2.2104  0.2763
  820MOL0     H10669   4.798   0.635   9.021  2.1962 -1.7990  0.7113
  820MOL0     H10670   4.909   0.468   8.790  1.3457  1.1323 -1.1314
  820MOL0     H10671   4.978   0.490   8.948 -1.7178 -1.7247  0.5668
  820MOL0     H10672   4.983   0.735   8.916 -0.5763 -0.0966  0.2151
  820MOL0     H10673   4.935   0.710   8.749 -1.9759  1.5556  2.0123
  820MOL0     H10674   5.182   0.589   8.886  0.2710  0.1219  0.8725
  820MOL0     H10675   5.148   0.579   8.718  0.4042 -0.1451  0.7607
  820MOL0     H10676   5.210   0.833   8.864  1.1710  0.6388 -1.1557
  820MOL0     H10677   5.170   0.818   8.692 -2.7340 -0.2300  0.8135
  820MOL0     H10678   5.407   0.855   8.792  1.5720 -1.0802  0.1715
  820MOL0     H10679   5.416   0.682   8.828  1.4241 -1.7944 -2.0788
  820MOL0     H10680   4.354   0.554   9.145 -0.7276 -0.0368  0.4482
  820MOL0     H10681   4.139   0.549   9.260 -2.9205 -0.8688 -3.4102
  820MOL0     H10682   3.649   0.439   9.215  1.2063  1.5042  0.4686
  820MOL0     H10683   3.421   0.359   9.310  1.2273  2.1989 -1.7692
  820MOL0     H10684   2.405   0.803  10.442 -1.4600 -0.1736 -1.2619
  820MOL0     H10685   2.303   0.985  10.308 -1.8381  1.1836 -1.6303
  820MOL0     H10686   2.008   1.119  10.117  0.7363 -0.5413  1.5118
  820MOL0     H10687   1.845   1.103   9.922  0.2292  0.9200  0.0393
  820MOL0     H10688   1.419   1.056   9.992  2.0814  3.1919 -1.0924
  820MOL0     H10689   1.500   0.893   9.982 -0.2332  0.5443  1.1067
  820MOL0     H10690   1.323   0.922   9.836  1.7646 -1.9655  2.2432
  820MOL0     H10691   1.463   0.920   9.729 -0.6945  0.3483 -1.6011
  820MOL0     H10692   1.383   1.095   9.643  1.7535 -1.8237  0.7308
  820MOL0     H10693   1.469   1.188   9.762 -2.8381  1.9428 -0.2757
  820MOL0     H10694   1.262   1.244   9.883  0.0887  2.8219 -1.6056
  820MOL0     H10695   1.254   1.270   9.711 -2.3481  0.3330  0.4241
  820MOL0     H10696   0.969   0.959   9.727  0.2513  0.2051 -1.3199
  820MOL0     H10697   1.521   1.101  10.175 -0.7077  1.1233 -1.1754
  820MOL0     H10698   1.685   1.083  10.491  2.4160  3.2945  0.7036
  820MOL0     H10699   1.648   1.250  10.439 -0.4667 -0.9325 -0.1578
  820MOL0     H10700   1.535   1.111  10.416  0.8013 -3.7530 -0.0255
  821MOL0     O10701   4.164   9.865   8.222  0.7652 -0.0378 -0.6841
  821MOL0     C10702   4.085   9.824   8.132 -0.4725 -0.4768 -0.3430
  821MOL0     O10703   4.122   9.776   8.005  0.2368 -0.1750 -0.1890
  821MOL0     C10704   4.256   9.789   7.970  0.3764 -0.0747  0.1677
  821MOL0     C10705   4.338   9.690   8.018 -0.1429  0.0436 -0.7050
  821MOL0     C10706   4.476   9.694   7.993  0.0117  0.3139 -0.1040
  821MOL0     C10707   4.531   9.795   7.918 -0.1398 -0.5418 -0.2047
  821MOL0     O10708   4.669   9.806   7.897  1.2541  0.0086 -0.2742
  821MOL0     C10709   4.762   9.763   8.005 -0.2130  0.5406  0.3236
  821MOL0     C10710   4.908   9.776   7.951  0.3713 -0.3803 -0.0509
  821MOL0     C10711   4.933   9.914   7.877  0.3862  0.1353  0.3609
  821MOL0     C10712   5.053   9.917   7.789  0.4790  0.2337 -0.4279
  821MOL0     C10713   5.179   9.891   7.862 -0.9269 -0.3048 -0.1897
  821MOL0     C10714   5.295   9.898   7.761 -0.0187  0.0421  0.4484
  821MOL0     C10715   5.416   9.834   7.816  0.7563  0.8626 -0.3567
  821MOL0     C10716   5.419   9.678   7.816 -0.2079  0.8749  0.6831
  821MOL0     N10717   5.393   9.630   7.676 -0.3214  0.0680  0.7393
  821MOL0     C10718   5.498   9.620   7.585 -0.3245  0.2982 -0.3153
  821MOL0     C10719   5.447   9.546   7.481 -0.0496 -0.3216 -0.3020
  821MOL0     C10720   5.530   9.486   7.374  0.2595 -1.0805  0.7550
  821MOL0     C10721   5.683   9.486   7.398  0.5276 -0.2874  0.9343
  821MOL0     C10722   5.747   9.432   7.280  0.1968  0.6146  0.8506
  821MOL0     C10723   5.895   9.429   7.299  0.3729 -0.3663  0.5830
  821MOL0     O10724   5.929   9.562   7.339 -0.5155  0.3940 -0.3062
  821MOL0     C10725   6.063   9.598   7.316  0.7944  0.2311 -0.4530
  821MOL0     C10726   6.163   9.514   7.368  0.9390 -0.3808  0.6632
  821MOL0     C10727   6.300   9.545   7.335  0.3567  0.5971 -0.1182
  821MOL0     C10728   6.325   9.670   7.275  0.6976  0.2217 -0.1717
  821MOL0     C10729   6.462   9.722   7.249  0.3666 -0.3345  0.5014
  821MOL0     O10730   6.561   9.632   7.255 -0.0520  0.2948 -0.1049
  821MOL0     C10731   6.687   9.645   7.195 -0.2626 -0.4614  0.2990
  821MOL0     C10732   6.715   9.740   7.093  0.2096 -0.5584  0.4925
  821MOL0     C10733   6.848   9.771   7.061 -0.1740 -0.2429  0.4645
  821MOL0     C10734   6.954   9.710   7.131 -0.0329  0.7656 -1.1705
  821MOL0     O10735   7.081   9.746   7.097  0.2959  0.2707 -0.2221
  821MOL0     C10736   7.202   9.695   7.153  0.9371  1.7274  0.4317
  821MOL0     C10737   7.333   9.747   7.097 -0.1697 -0.3129  0.4579
  821MOL0     C10738   7.350   9.770   6.943 -0.3854 -0.3311  0.5648
  821MOL0     C10739   7.447   9.890   6.917  0.0436 -0.0849 -0.2132
  821MOL0     C10740   7.491   9.889   6.770 -0.9925  0.5060  0.0898
  821MOL0     C10741   7.557  10.029   6.744 -0.6325 -0.4369  0.2467
  821MOL0     C10742   7.695  10.028   6.676  0.8277 -0.5302  1.0850
  821MOL0     C10743   7.716  10.155   6.597 -0.2063  0.1393 -0.2446
  821MOL0    Cl10744   7.740  10.293   6.703  0.2492  0.1729  0.2957
  821MOL0     C10745   6.925   9.610   7.219 -0.3501  0.3543  0.1375
  821MOL0     C10746   6.790   9.578   7.255 -0.4818 -0.2068 -0.2108
  821MOL0     O10747   6.481   9.845   7.239  1.4131 -0.2770  0.0275
  821MOL0     C10748   6.222   9.761   7.243  0.2492  0.5500  0.2902
  821MOL0     C10749   6.088   9.715   7.249  0.3084 -1.1593  1.2583
  821MOL0     N10750   5.311   9.536   7.497  0.3919 -0.1912  0.2725
  821MOL0     N10751   5.279   9.585   7.614 -0.6944 -0.2185 -0.0519
  821MOL0     C10752   4.447   9.889   7.869 -0.0361 -0.2849  0.2492
  821MOL0     C10753   4.314   9.894   7.892 -0.5037  0.2232  0.5684
  821MOL0     C10754   3.940   9.821   8.156  0.9815 -0.1421 -0.3955
  821MOL0     C10755   3.863   9.764   8.044  0.0675 -0.7570 -0.0574
  821MOL0     C10756   3.729   9.770   8.043  0.0413  1.1465 -0.3521
  821MOL0     C10757   3.656   9.824   8.148 -0.4504  1.2596 -0.3437
  821MOL0     O10758   3.526   9.832   8.160  0.2327  0.2220 -0.5367
  821MOL0     C10759   3.425   9.824   8.046  0.2475 -0.8612 -0.3972
  821MOL0     C10760   3.450   9.930   7.950  0.5869 -1.0785  0.5190
  821MOL0     C10761   3.367   9.931   7.820 -0.3064  0.9435  0.5225
  821MOL0     C10762   3.223   9.968   7.820 -0.0699 -0.1057 -0.3464
  821MOL0     C10763   3.198  10.094   7.895  0.2639  0.7971  0.6969
  821MOL0     C10764   3.163  10.186   7.958  0.0587 -0.7306 -0.5238
  821MOL0     C10765   3.726   9.870   8.260  0.6148  0.3822  0.3800
  821MOL0     C10766   3.866   9.863   8.271 -0.7338 -0.1565  0.4583
  821MOL0     C10767   3.925   9.913   8.400 -0.4155 -0.6217 -0.2061
  821MOL0     H10768   4.294   9.613   8.081 -1.0319  2.4078  1.7474
  821MOL0     H10769   4.531   9.611   8.037  0.4704  1.0477  0.7389
  821MOL0     H10770   4.746   9.843   8.078 -5.7290  2.9971 -2.9619
  821MOL0     H10771   4.729   9.667   8.045 -0.8606  0.0512 -1.2992
  821MOL0     H10772   4.930   9.692   7.885  0.9904  0.7179 -1.2990
  821MOL0     H10773   4.970   9.767   8.040  0.8089  0.3431 -0.2762
  821MOL0     H10774   4.955   9.982   7.960 -0.4533  0.5793  0.2318
  821MOL0     H10775   4.843   9.949   7.826  0.0596  0.2599  1.0080
  821MOL0     H10776   5.033   9.838   7.715 -2.4866 -0.7428  1.2454
  821MOL0     H10777   5.064  10.017   7.745  0.4573 -0.6192 -2.4721
  821MOL0     H10778   5.184   9.965   7.942 -4.2555 -2.6253  2.4654
  821MOL0     H10779   5.177   9.787   7.896  4.2991 -0.7589 -0.4857
  821MOL0     H10780   5.260   9.855   7.667 -0.4748 -1.7262  1.3767
  821MOL0     H10781   5.322  10.000   7.735  0.4384 -0.4835 -1.2578
  821MOL0     H10782   5.445   9.859   7.918 -0.4571  0.8832  0.0000
  821MOL0     H10783   5.505   9.863   7.760  2.3602 -3.5116 -0.4651
  821MOL0     H10784   5.511   9.634   7.855 -0.0755  1.0397  0.5591
  821MOL0     H10785   5.347   9.642   7.889 -1.2294 -0.0934 -0.7327
  821MOL0     H10786   5.598   9.663   7.594 -0.9292  3.2043 -4.5407
  821MOL0     H10787   5.489   9.385   7.366  1.3633 -1.4505 -0.5972
  821MOL0     H10788   5.515   9.539   7.280  3.2719 -0.4478  0.5086
  821MOL0     H10789   5.719   9.588   7.416  1.9466 -0.6155  0.0848
  821MOL0     H10790   5.709   9.432   7.489  3.1238 -0.0917  0.3872
  821MOL0     H10791   5.717   9.496   7.197 -0.4637  2.7318  2.6583
  821MOL0     H10792   5.707   9.331   7.264 -1.6274  1.6927 -2.2001
  821MOL0     H10793   5.942   9.395   7.206 -3.0071 -1.8024 -0.7715
  821MOL0     H10794   5.917   9.363   7.383  1.4618  0.8329  1.2908
  821MOL0     H10795   6.128   9.426   7.420 -3.0841  0.0336 -0.9832
  821MOL0     H10796   6.382   9.481   7.366  2.0947  2.6654 -0.1554
  821MOL0     H10797   6.633   9.799   7.053  0.2910  2.4497  4.2362
  821MOL0     H10798   6.876   9.851   6.994  1.1920  0.3679  1.6960
  821MOL0     H10799   7.208   9.702   7.262  0.9827 -1.4372  0.7244
  821MOL0     H10800   7.211   9.589   7.131  2.6261  2.1775 -1.3348
  821MOL0     H10801   7.369   9.836   7.149 -1.4268  1.2358 -1.1929
  821MOL0     H10802   7.409   9.672   7.118  0.3376  0.2780  0.7313
  821MOL0     H10803   7.377   9.678   6.891  0.0242 -0.8437  1.6669
  821MOL0     H10804   7.257   9.802   6.895  0.8205 -1.3778 -2.7357
  821MOL0     H10805   7.536   9.867   6.976  0.0854  0.9592  0.1582
  821MOL0     H10806   7.403   9.986   6.948 -1.7514 -1.2957  1.2791
  821MOL0     H10807   7.401   9.869   6.712 -1.2903 -0.3633  0.8242
  821MOL0     H10808   7.564   9.808   6.758 -1.0511  0.2498  1.2743
  821MOL0     H10809   7.488  10.094   6.690 -0.4768 -0.1672  0.3708
  821MOL0     H10810   7.573  10.086   6.837  1.7523 -0.0193 -0.3590
  821MOL0     H10811   7.685   9.950   6.600 -1.1435  0.9079 -0.2543
  821MOL0     H10812   7.770  10.020   6.754  1.9369  4.2448  0.8364
  821MOL0     H10813   7.808  10.148   6.537 -1.1015  0.7852 -1.7497
  821MOL0     H10814   7.631  10.178   6.532  0.0917  1.3426 -0.2337
  821MOL0     H10815   7.004   9.564   7.278  0.9752  0.4219 -1.5364
  821MOL0     H10816   6.773   9.509   7.338  0.8272 -0.6999 -0.3328
  821MOL0     H10817   6.246   9.850   7.186  3.4604  0.4214  1.2606
  821MOL0     H10818   6.010   9.779   7.210  0.9691 -1.5622 -0.8425
  821MOL0     H10819   4.487   9.982   7.829  1.8999 -2.2263 -2.6636
  821MOL0     H10820   4.246   9.968   7.852 -1.3864 -0.8035  0.1036
  821MOL0     H10821   3.916   9.736   7.954  1.6485 -1.9637  1.1850
  821MOL0     H10822   3.676   9.732   7.956 -0.3053  0.1422  0.2820
  821MOL0     H10823   3.325   9.833   8.090  0.4823  0.2552 -0.0605
  821MOL0     H10824   3.417   9.727   7.995 -0.0368 -0.6313 -0.7966
  821MOL0     H10825   3.552   9.940   7.914  0.7142  1.5642  1.4088
  821MOL0     H10826   3.438  10.025   8.003 -0.5438 -0.4797 -0.7464
  821MOL0     H10827   3.373   9.829   7.781  0.9822  0.9864  0.5842
  821MOL0     H10828   3.419  10.004   7.757 -0.9002  0.1507 -0.9411
  821MOL0     H10829   3.182   9.980   7.719  0.3932 -0.3305 -0.5597
  821MOL0     H10830   3.163   9.890   7.869  0.8745 -1.1432 -0.8157
  821MOL0     H10831   3.128  10.264   8.022 -2.4737 -0.2898 -2.2909
  821MOL0     H10832   3.667   9.896   8.347  0.3298 -0.5765  0.4851
  821MOL0     H10833   3.847   9.943   8.470 -1.8678  0.7660 -2.3234
  821MOL0     H10834   3.993   9.838   8.440 -0.2134  0.0438  0.7302
  821MOL0     H10835   3.993   9.998   8.390 -0.3058 -0.6983 -0.1157
  822MOL0     O10836   0.008   6.218   0.198 -0.2214  0.1881  1.0355
  822MOL0     C10837  -0.039   6.120   0.253  0.1387  0.3069 -0.6742
  822MOL0     O10838   0.021   6.049   0.355 -0.3746 -0.1479  0.1183
  822MOL0     C10839   0.155   6.075   0.389  0.7119 -0.3642 -0.4737
  822MOL0     C10840   0.190   6.101   0.528  0.0438 -0.2497  0.7076
  822MOL0     C10841   0.319   6.130   0.568 -0.2355 -0.7215 -1.0658
  822MOL0     C10842   0.420   6.155   0.467  0.2549 -0.3821  0.4420
  822MOL0     O10843   0.547   6.190   0.505  0.3894  0.5331 -0.0372
  822MOL0     C10844   0.601   6.122   0.619  0.3835 -0.0086  0.6721
  822MOL0     C10845   0.664   5.990   0.586  0.8239 -0.2298 -0.2405
  822MOL0     C10846   0.768   6.013   0.472 -0.2215 -0.4584  0.0154
  822MOL0     C10847   0.904   5.948   0.499 -0.0201  0.1836 -0.7135
  822MOL0     C10848   1.006   5.960   0.388 -0.2269  0.5834 -0.6502
  822MOL0     C10849   1.121   5.861   0.414 -0.9825 -0.5670 -0.3931
  822MOL0     C10850   1.220   5.872   0.299 -0.3767 -0.4169 -0.3423
  822MOL0     C10851   1.347   5.954   0.329  0.0002 -0.4135  0.2029
  822MOL0     N10852   1.470   5.893   0.271 -0.1054  0.3942 -0.4337
  822MOL0     C10853   1.504   5.903   0.140  0.0123  0.0322  0.1334
  822MOL0     C10854   1.615   5.828   0.122 -0.0425 -0.3718 -0.0767
  822MOL0     C10855   1.702   5.825   0.004 -0.6112 -0.2717  0.2975
  822MOL0     C10856   1.838   5.759   0.024  0.1294 -0.0739 -0.1792
  822MOL0     C10857   1.935   5.786  -0.088 -0.3841  0.5132 -0.4503
  822MOL0     C10858   2.074   5.722  -0.069 -0.6563 -0.0916 -0.6150
  822MOL0     O10859   2.151   5.815   0.005  0.2593  0.0754 -0.2617
  822MOL0     C10860   2.280   5.766   0.029 -0.3413 -0.0474  0.2523
  822MOL0     C10861   2.345   5.651  -0.044  0.2154  0.4833 -0.0771
  822MOL0     C10862   2.478   5.604  -0.016  0.3656  0.6064  0.3245
  822MOL0     C10863   2.545   5.664   0.083 -0.8499  0.1389 -0.2573
  822MOL0     C10864   2.684   5.616   0.119  0.1139 -0.1581 -0.3886
  822MOL0     O10865   2.769   5.713   0.180  0.8414  0.0267  0.5391
  822MOL0     C10866   2.900   5.689   0.197 -0.2592 -0.6493 -0.7564
  822MOL0     C10867   2.960   5.570   0.254 -0.0299  0.4457  0.8758
  822MOL0     C10868   3.106   5.562   0.254  0.9575  0.4760 -0.6158
  822MOL0     C10869   3.188   5.660   0.192  0.6600 -0.5766  0.2898
  822MOL0     O10870   3.320   5.664   0.201  0.7312 -0.7308  0.1292
  822MOL0     C10871   3.389   5.537   0.217  0.3416  0.4571 -0.1087
  822MOL0     C10872   3.534   5.556   0.236  0.0725 -0.9328 -0.5044
  822MOL0     C10873   3.607   5.426   0.239  0.0885  0.2818 -0.2809
  822MOL0     C10874   3.751   5.451   0.286 -0.0085  0.6617  0.4557
  822MOL0     C10875   3.819   5.314   0.312 -0.2598 -0.4357  0.8270
  822MOL0     C10876   3.862   5.242   0.185  0.3509  0.4416 -0.6853
  822MOL0     C10877   3.976   5.144   0.198 -0.5478 -0.4546  0.1110
  822MOL0     C10878   3.962   5.035   0.301  0.2852 -0.0923 -0.4111
  822MOL0    Cl10879   4.068   4.906   0.277 -0.8507 -0.4199  0.1942
  822MOL0     C10880   3.122   5.774   0.138 -0.4398  0.3458 -0.1612
  822MOL0     C10881   2.985   5.789   0.147  0.1604 -1.3192 -0.0342
  822MOL0     O10882   2.715   5.500   0.089 -0.7845  0.8049  0.2223
  822MOL0     C10883   2.486   5.763   0.157  0.1943  0.4327 -0.0456
  822MOL0     C10884   2.358   5.820   0.126  0.1067 -0.3621  0.3835
  822MOL0     N10885   1.642   5.773   0.241  0.2818  1.3308 -1.1110
  822MOL0     N10886   1.565   5.816   0.336  0.5810  0.7498  0.1767
  822MOL0     C10887   0.384   6.126   0.338  0.2858 -0.7778 -0.1402
  822MOL0     C10888   0.255   6.088   0.291 -0.4090 -0.4491 -0.8807
  822MOL0     C10889  -0.167   6.071   0.204 -0.4815  0.7336 -0.7314
  822MOL0     C10890  -0.238   6.155   0.109 -0.4352  0.1834 -0.2421
  822MOL0     C10891  -0.349   6.108   0.043 -0.0740 -0.6220 -0.7205
  822MOL0     C10892  -0.407   5.984   0.076 -0.2890  0.4321  0.2967
  822MOL0     O10893  -0.504   5.933  -0.008  0.1108 -0.1003  0.4854
  822MOL0     C10894  -0.583   5.820   0.033  0.0879 -0.0797  0.2392
  822MOL0     C10895  -0.700   5.788  -0.060  0.7111 -0.1090 -0.8147
  822MOL0     C10896  -0.824   5.876  -0.048  0.0313  0.6415 -0.2232
  822MOL0     C10897  -0.802   6.030  -0.043 -0.1793  0.3814  0.1145
  822MOL0     C10898  -0.722   6.072  -0.155 -0.2406 -0.1223 -0.2890
  822MOL0     C10899  -0.658   6.102  -0.262 -0.0613  0.4299 -0.3475
  822MOL0     C10900  -0.337   5.905   0.173  0.4834  0.2713  0.5109
  822MOL0     C10901  -0.227   5.941   0.236  0.4651 -0.0934 -0.5891
  822MOL0     C10902  -0.192   5.844   0.349  0.1991  0.7348  0.3665
  822MOL0     H10903   0.113   6.111   0.604  0.3329  0.6070  0.8915
  822MOL0     H10904   0.344   6.155   0.670  0.4493 -1.5537 -1.0139
  822MOL0     H10905   0.681   6.181   0.665 -0.3377  1.2386  0.3843
  822MOL0     H10906   0.532   6.109   0.703  0.4582 -2.5703  0.4139
  822MOL0     H10907   0.581   5.925   0.557 -1.1726  0.6184  3.0709
  822MOL0     H10908   0.714   5.936   0.667 -2.0746  0.2090  1.9769
  822MOL0     H10909   0.788   6.120   0.458 -2.2327  0.4731  3.1300
  822MOL0     H10910   0.729   5.961   0.385 -0.5042 -2.9902  1.5603
  822MOL0     H10911   0.932   5.992   0.595 -0.5411  0.0095 -0.4796
  822MOL0     H10912   0.891   5.841   0.519  0.4326 -0.7856 -4.7560
  822MOL0     H10913   0.960   5.956   0.289  0.0716  0.2185 -0.7789
  822MOL0     H10914   1.050   6.060   0.396 -1.1080  0.8296  2.1192
  822MOL0     H10915   1.173   5.876   0.509 -0.0068 -1.2868 -0.7905
  822MOL0     H10916   1.089   5.757   0.427  0.6086 -0.6992  4.5937
  822MOL0     H10917   1.189   5.912   0.202 -1.5781 -0.4715  0.0095
  822MOL0     H10918   1.256   5.772   0.270  3.1860  1.1445 -1.9342
  822MOL0     H10919   1.344   6.048   0.274 -4.8245 -1.0896 -1.1890
  822MOL0     H10920   1.358   5.975   0.436 -1.8828  1.9077  0.0019
  822MOL0     H10921   1.467   5.963   0.057 -1.6094  2.0922  2.2031
  822MOL0     H10922   1.649   5.774  -0.078 -0.8499 -0.1308  0.3636
  822MOL0     H10923   1.722   5.927  -0.029 -1.7879  0.0029  0.3570
  822MOL0     H10924   1.881   5.797   0.118 -0.2644  0.0891 -0.0625
  822MOL0     H10925   1.824   5.651   0.033  0.8099 -0.1526 -0.0374
  822MOL0     H10926   1.946   5.893  -0.107 -0.3185  0.6735  0.4260
  822MOL0     H10927   1.899   5.735  -0.177  0.5229 -0.2030 -0.4167
  822MOL0     H10928   2.129   5.714  -0.163  0.6922  0.4045  0.0978
  822MOL0     H10929   2.077   5.622  -0.023 -1.5406  0.2899  0.3108
  822MOL0     H10930   2.288   5.597  -0.119 -1.9580  3.0401 -0.4206
  822MOL0     H10931   2.517   5.522  -0.077  0.9197 -1.8123  3.6191
  822MOL0     H10932   2.897   5.492   0.295  0.0788 -1.5818 -2.4634
  822MOL0     H10933   3.145   5.469   0.295 -2.4458 -0.2891  1.2711
  822MOL0     H10934   3.352   5.478   0.301 -1.4338  2.0373  0.3117
  822MOL0     H10935   3.361   5.481   0.127 -2.0756  1.7411 -0.2504
  822MOL0     H10936   3.580   5.623   0.163  0.1816  1.8781  1.9418
  822MOL0     H10937   3.548   5.610   0.330 -2.8633 -2.0263  0.6841
  822MOL0     H10938   3.547   5.367   0.308 -0.0415  0.2047 -0.4612
  822MOL0     H10939   3.604   5.376   0.142 -2.0956 -3.5305  1.5473
  822MOL0     H10940   3.756   5.519   0.371 -0.3592  1.8788 -0.4792
  822MOL0     H10941   3.803   5.501   0.204 -0.7797  2.5451  1.0715
  822MOL0     H10942   3.744   5.250   0.360  2.1952 -4.2335  0.0307
  822MOL0     H10943   3.904   5.321   0.380  0.4954 -0.7020 -0.0689
  822MOL0     H10944   3.781   5.180   0.146  1.1449 -0.6199 -0.6729
  822MOL0     H10945   3.882   5.314   0.105 -3.6870  0.6291 -1.7210
  822MOL0     H10946   4.069   5.193   0.229 -0.7949 -1.2848  2.2546
  822MOL0     H10947   3.994   5.100   0.099  1.3156 -3.2574  1.5826
  822MOL0     H10948   3.989   5.080   0.397  0.0490  0.7030 -0.7019
  822MOL0     H10949   3.858   5.001   0.304  0.9442 -2.6775 -2.9656
  822MOL0     H10950   3.183   5.841   0.078  0.7997 -0.6427 -0.0743
  822MOL0     H10951   2.930   5.873   0.105  0.2638 -0.5812  1.2155
  822MOL0     H10952   2.548   5.819   0.225  1.3774 -0.4389 -0.3790
  822MOL0     H10953   2.325   5.909   0.177  0.3722  0.6879 -1.2134
  822MOL0     H10954   0.461   6.125   0.262 -0.7098 -2.3824 -1.2043
  822MOL0     H10955   0.252   6.077   0.183  0.4587  1.9608 -1.2322
  822MOL0     H10956  -0.204   6.254   0.080  1.1615 -0.6954 -1.5500
  822MOL0     H10957  -0.384   6.153  -0.049 -0.7732 -2.2067 -1.2701
  822MOL0     H10958  -0.617   5.851   0.133 -2.2164  1.6168 -0.9788
  822MOL0     H10959  -0.516   5.734   0.027  0.7792  0.3887  1.0833
  822MOL0     H10960  -0.735   5.687  -0.036 -0.3070  0.2846 -0.5606
  822MOL0     H10961  -0.659   5.791  -0.161  4.4886 -1.3504  0.5426
  822MOL0     H10962  -0.867   5.855   0.051 -0.2634  0.2241 -0.4392
  822MOL0     H10963  -0.892   5.840  -0.126  0.1417 -0.9790  0.3908
  822MOL0     H10964  -0.894   6.089  -0.036 -1.5463 -1.8071  1.8183
  822MOL0     H10965  -0.745   6.061   0.045  0.5424 -1.3930  0.3098
  822MOL0     H10966  -0.600   6.132  -0.347  3.6782 -1.2744  1.3620
  822MOL0     H10967  -0.377   5.805   0.186  2.3550 -0.5390  0.2594
  822MOL0     H10968  -0.282   5.840   0.412 -0.0016 -0.0275  0.0412
  822MOL0     H10969  -0.179   5.745   0.306  0.4926  0.4972  0.9907
  822MOL0     H10970  -0.113   5.880   0.415 -1.5399  2.6607  1.5393
  823MOL0     O10971   7.216   9.514   8.422  0.0702  0.4408 -0.1282
  823MOL0     C10972   7.150   9.544   8.522 -0.4969 -0.2665  0.1313
  823MOL0     O10973   7.182   9.638   8.615 -0.2061  0.0245 -0.7866
  823MOL0     C10974   7.303   9.695   8.619  0.7250 -0.0282  0.3745
  823MOL0     C10975   7.319   9.832   8.676  0.9459  0.9598 -0.5376
  823MOL0     C10976   7.448   9.895   8.680  0.0027 -0.4287  0.2413
  823MOL0     C10977   7.559   9.828   8.639  0.2800 -0.5700  0.7042
  823MOL0     O10978   7.679   9.896   8.617  0.4955 -0.3332  0.3100
  823MOL0     C10979   7.807   9.825   8.598 -0.4768 -0.6276  0.1919
  823MOL0     C10980   7.899   9.930   8.535  0.0430  0.2558  0.4351
  823MOL0     C10981   8.041   9.880   8.505  0.5065 -0.7242 -0.0439
  823MOL0     C10982   8.119   9.826   8.632 -0.2436 -0.6031  0.4817
  823MOL0     C10983   8.266   9.824   8.608  0.4385  0.4919 -0.3012
  823MOL0     C10984   8.334   9.737   8.716  1.0376 -0.8902 -0.6501
  823MOL0     C10985   8.484   9.766   8.731  0.4573 -0.0236 -0.0729
  823MOL0     C10986   8.534   9.707   8.863  0.2462 -0.8023 -0.0493
  823MOL0     N10987   8.678   9.726   8.873 -1.0707  0.9685  0.2876
  823MOL0     C10988   8.717   9.844   8.929 -0.7117  0.0573 -0.1765
  823MOL0     C10989   8.846   9.837   8.910 -0.0672  0.7488  0.1065
  823MOL0     C10990   8.914   9.954   8.952 -0.1668 -0.1199  0.6859
  823MOL0     C10991   8.998   9.926   9.076  0.7421  1.2282  0.1600
  823MOL0     C10992   9.140   9.870   9.058 -0.1469 -0.8305  1.0389
  823MOL0     C10993   9.219   9.858   9.185  0.9249  0.3006  1.1278
  823MOL0     O10994   9.253   9.986   9.234 -0.1552  0.2381  0.5292
  823MOL0     C10995   9.334   9.972   9.343 -0.5454 -0.1221 -0.9134
  823MOL0     C10996   9.473   9.983   9.330 -0.0102 -0.3564 -0.0723
  823MOL0     C10997   9.557   9.985   9.448  0.2079 -0.6578  0.2561
  823MOL0     C10998   9.506   9.982   9.580 -0.1955  0.7781 -0.0144
  823MOL0     C10999   9.589   9.988   9.700  0.4441 -0.3559  0.2829
  823MOL0     O11000   9.699  10.060   9.694  0.5853  0.2927  0.6023
  823MOL0     C11001   9.770  10.063   9.810 -0.1063 -0.2899 -0.4373
  823MOL0     C11002   9.731  10.145   9.919  0.1408 -0.6818  0.0799
  823MOL0     C11003   9.817  10.152  10.030 -0.8233  1.0444 -0.2778
  823MOL0     C11004   9.928  10.066  10.045  0.6113 -0.9671 -0.5152
  823MOL0     O11005  10.010  10.056  10.153  0.2096 -0.2096  0.1915
  823MOL0     C11006  10.009  10.150  10.266 -0.4435 -0.4259  0.4135
  823MOL0     C11007  10.148  10.160  10.326 -0.3598  0.6181 -0.4332
  823MOL0     C11008  10.242  10.257  10.255  0.0904  0.1928 -0.5103
  823MOL0     C11009  10.270  10.214  10.110 -0.2174 -0.4676  0.8479
  823MOL0     C11010  10.373  10.312  10.049 -0.9641 -0.5012 -1.0970
  823MOL0     C11011  10.517  10.283  10.088 -0.4182 -0.1659  0.0907
  823MOL0     C11012  10.621  10.337   9.983 -0.6880 -0.2698 -0.1835
  823MOL0     C11013  10.737  10.240   9.953 -0.3523  0.3790 -0.9792
  823MOL0    Cl11014  10.820  10.300   9.806 -0.2590  0.2794 -0.4126
  823MOL0     C11015   9.963   9.991   9.933  0.1928  0.5041  0.6061
  823MOL0     C11016   9.884   9.981   9.814  0.1964 -0.7307  0.2389
  823MOL0     O11017   9.537   9.935   9.800  0.0478  0.1154 -0.7963
  823MOL0     C11018   9.364   9.966   9.587 -0.6771 -0.2873  1.0444
  823MOL0     C11019   9.279   9.976   9.475 -0.0442  0.8645  0.7663
  823MOL0     N11020   8.895   9.719   8.853 -0.7665 -0.0628  0.5602
  823MOL0     N11021   8.789   9.647   8.830  0.2217 -0.5159  0.3308
  823MOL0     C11022   7.543   9.696   8.610  0.5169 -0.9371 -1.6599
  823MOL0     C11023   7.423   9.633   8.601  0.0902  0.1545 -0.1607
  823MOL0     C11024   7.019   9.476   8.546  0.0512 -0.3512  0.1310
  823MOL0     C11025   6.950   9.496   8.666  0.3683 -0.2620 -0.7292
  823MOL0     C11026   6.819   9.449   8.687 -0.5721  0.1850  1.3492
  823MOL0     C11027   6.757   9.370   8.595 -0.3987 -0.6359  0.7349
  823MOL0     O11028   6.626   9.330   8.625 -0.6060  0.9205  0.1138
  823MOL0     C11029   6.523   9.340   8.522  0.2676  0.1209 -0.9395
  823MOL0     C11030   6.385   9.307   8.589 -0.2991  0.3277 -0.4172
  823MOL0     C11031   6.271   9.342   8.497  0.5086 -0.0843 -0.2420
  823MOL0     C11032   6.133   9.290   8.558  0.2721  0.1492 -0.0568
  823MOL0     C11033   6.019   9.366   8.512 -0.2229  0.3659 -0.5242
  823MOL0     C11034   5.920   9.420   8.462  0.0236 -0.2917  0.3185
  823MOL0     C11035   6.813   9.353   8.471 -0.1387  0.0858  0.0677
  823MOL0     C11036   6.941   9.402   8.450 -1.4828 -0.3580  0.6690
  823MOL0     C11037   6.989   9.376   8.307 -0.5204 -0.6432  0.3499
  823MOL0     H11038   7.226   9.883   8.702  0.4904 -0.2690  0.3414
  823MOL0     H11039   7.455   9.999   8.713 -2.9308 -0.7029  2.1047
  823MOL0     H11040   7.849   9.797   8.694 -0.1026 -4.5655 -0.9563
  823MOL0     H11041   7.800   9.741   8.528 -1.2077  0.8223 -1.5659
  823MOL0     H11042   7.898  10.020   8.596  2.8085 -0.1407  1.1789
  823MOL0     H11043   7.842   9.961   8.447 -0.6932  0.6169  1.0296
  823MOL0     H11044   8.077   9.969   8.452 -1.5319 -0.4857 -1.1515
  823MOL0     H11045   8.035   9.796   8.434 -0.2966 -1.3806  0.7753
  823MOL0     H11046   8.099   9.903   8.708 -2.2625  0.7025 -1.2586
  823MOL0     H11047   8.088   9.726   8.666  2.7052 -1.6930  0.2076
  823MOL0     H11048   8.283   9.797   8.504 -0.0738 -2.3857  0.2602
  823MOL0     H11049   8.296   9.929   8.605  1.4893  0.1872 -3.3910
  823MOL0     H11050   8.288   9.758   8.813 -0.6734 -0.6754 -1.4793
  823MOL0     H11051   8.311   9.634   8.688  0.1461 -0.4780 -1.4652
  823MOL0     H11052   8.498   9.874   8.720 -2.1137  0.3367 -0.5756
  823MOL0     H11053   8.535   9.723   8.645  0.2437  1.5307 -1.0251
  823MOL0     H11054   8.480   9.755   8.945  1.8839  0.9177  0.1125
  823MOL0     H11055   8.524   9.598   8.869 -0.1366 -0.6885  2.1811
  823MOL0     H11056   8.648   9.917   8.972  0.0042  1.6464 -1.6043
  823MOL0     H11057   8.987   9.981   8.875 -0.3859 -3.0056 -0.6545
  823MOL0     H11058   8.840  10.034   8.962 -0.1349  0.3594 -2.0902
  823MOL0     H11059   9.010  10.017   9.137  0.1076  0.4524  1.4974
  823MOL0     H11060   8.938   9.859   9.139 -0.8651  0.9709 -1.5501
  823MOL0     H11061   9.194   9.937   8.991  0.1664 -1.9131  0.1917
  823MOL0     H11062   9.125   9.772   9.014 -1.7165 -1.1114  2.1097
  823MOL0     H11063   9.311   9.802   9.166  0.5748 -1.5379  4.2909
  823MOL0     H11064   9.160   9.803   9.258  0.1979 -0.7299 -0.1816
  823MOL0     H11065   9.512   9.994   9.229 -1.9716  2.4309 -0.6294
  823MOL0     H11066   9.664   9.999   9.439  0.5478 -2.3794  1.2541
  823MOL0     H11067   9.640  10.202   9.906  0.5561  0.1533  0.7939
  823MOL0     H11068   9.780  10.214  10.111 -1.5826 -0.2364  0.3796
  823MOL0     H11069   9.987  10.252  10.236  1.7279  1.2142  3.7347
  823MOL0     H11070   9.935  10.118  10.340 -0.3832  1.8447  1.5347
  823MOL0     H11071  10.140  10.192  10.431  1.2871  0.7623 -0.3220
  823MOL0     H11072  10.210  10.070  10.323  0.4425  0.8662  3.5423
  823MOL0     H11073  10.205  10.360  10.264  0.4567  0.3243 -0.4983
  823MOL0     H11074  10.336  10.252  10.310  2.1571 -0.8637 -3.9135
  823MOL0     H11075  10.176  10.229  10.057 -1.3805 -1.7071  2.4484
  823MOL0     H11076  10.297  10.109  10.099  3.1643  0.3105  0.6517
  823MOL0     H11077  10.346  10.413  10.080 -2.7100 -0.8794 -1.2678
  823MOL0     H11078  10.358  10.305   9.940 -4.8153 -3.2993 -0.6121
  823MOL0     H11079  10.547  10.330  10.182  0.5355  0.1036 -0.3388
  823MOL0     H11080  10.537  10.175  10.091  2.2022  0.2569  3.0226
  823MOL0     H11081  10.667  10.429  10.020  1.2350 -1.8613  1.5454
  823MOL0     H11082  10.564  10.352   9.891  1.1974 -2.5109 -1.8380
  823MOL0     H11083  10.801  10.221  10.040 -0.8224 -1.1690 -0.9374
  823MOL0     H11084  10.701  10.138   9.937  1.0720 -0.2390 -0.4262
  823MOL0     H11085  10.041   9.916   9.924 -0.2537  0.0366  0.5633
  823MOL0     H11086   9.915   9.913   9.735  2.8177 -0.3766  0.8719
  823MOL0     H11087   9.317   9.947   9.683 -0.0665 -1.0758  1.2003
  823MOL0     H11088   9.173   9.993   9.490  0.1224  0.1080  3.1878
  823MOL0     H11089   7.629   9.633   8.586  1.2353 -0.0566 -1.4301
  823MOL0     H11090   7.430   9.528   8.575  3.0621  0.1865  0.2200
  823MOL0     H11091   6.977   9.564   8.747 -5.0555  2.4952 -0.7250
  823MOL0     H11092   6.764   9.478   8.777 -1.1345  2.0489  0.4505
  823MOL0     H11093   6.549   9.264   8.449 -2.0836  1.7438 -3.6756
  823MOL0     H11094   6.520   9.438   8.474  3.0275  1.7298  1.7899
  823MOL0     H11095   6.389   9.375   8.675  0.4478 -1.5510  1.0964
  823MOL0     H11096   6.380   9.204   8.624  1.2581  0.0976 -0.8373
  823MOL0     H11097   6.273   9.296   8.398 -0.3083 -3.7828  1.3004
  823MOL0     H11098   6.266   9.451   8.489  0.9683  0.1155  1.6115
  823MOL0     H11099   6.120   9.185   8.530  0.5679  0.6056 -2.0121
  823MOL0     H11100   6.133   9.295   8.667 -2.2617  1.6639 -0.0556
  823MOL0     H11101   5.847   9.482   8.414 -3.1448 -3.3818  0.7131
  823MOL0     H11102   6.763   9.309   8.385  1.5856  1.1347 -1.5466
  823MOL0     H11103   6.916   9.320   8.248  1.2567 -2.1744 -0.5025
  823MOL0     H11104   7.005   9.479   8.275  0.5261 -0.7436  0.5080
  823MOL0     H11105   7.080   9.315   8.305 -0.0422  0.0710  0.2498
  824MOL0     O11106   4.580   8.371   1.640  0.3403  0.1337 -0.1867
  824MOL0     C11107   4.520   8.335   1.537  0.0290 -0.1738 -0.5819
  824MOL0     O11108   4.580   8.323   1.418 -0.9170  0.6723  0.4049
  824MOL0     C11109   4.706   8.356   1.390 -0.2487  0.1083 -0.1134
  824MOL0     C11110   4.789   8.255   1.330  0.6698 -0.4740  0.1842
  824MOL0     C11111   4.918   8.280   1.284  0.6536 -0.2577 -0.9147
  824MOL0     C11112   4.966   8.411   1.284  0.1619  0.1563 -0.1286
  824MOL0     O11113   5.093   8.449   1.242 -0.4881 -0.1771  0.6240
  824MOL0     C11114   5.176   8.345   1.183 -0.1725 -0.3815  0.0431
  824MOL0     C11115   5.305   8.414   1.126  0.6783 -0.4170  0.7235
  824MOL0     C11116   5.342   8.333   0.993 -0.3657 -0.3202 -0.8148
  824MOL0     C11117   5.473   8.394   0.943 -0.5928 -0.1251 -1.1169
  824MOL0     C11118   5.581   8.281   0.958 -0.4074 -0.5978 -0.3976
  824MOL0     C11119   5.720   8.329   0.922 -0.1317  0.4893  0.4201
  824MOL0     C11120   5.711   8.382   0.778 -0.9928  0.3608  0.1690
  824MOL0     C11121   5.835   8.393   0.699  0.0184  0.6542 -0.4735
  824MOL0     N11122   5.912   8.264   0.675 -0.4078 -0.0457  0.9039
  824MOL0     C11123   6.031   8.234   0.726 -0.5563  0.9185  0.2115
  824MOL0     C11124   6.075   8.115   0.662 -0.0577 -0.2285  0.4575
  824MOL0     C11125   6.208   8.038   0.679  0.5424 -0.1552  0.7221
  824MOL0     C11126   6.295   8.086   0.799 -0.3196 -0.0213 -0.2088
  824MOL0     C11127   6.364   8.224   0.775  0.0469 -0.0481  0.4926
  824MOL0     C11128   6.406   8.272   0.633  0.6759  0.4914 -0.0027
  824MOL0     O11129   6.498   8.172   0.583 -0.0058 -0.3853  0.0753
  824MOL0     C11130   6.631   8.185   0.620 -0.7635  0.1312 -0.3429
  824MOL0     C11131   6.729   8.084   0.590  0.4028  0.3195  0.7365
  824MOL0     C11132   6.861   8.095   0.632 -0.5857 -0.5148 -0.0489
  824MOL0     C11133   6.897   8.203   0.713 -0.2768  0.4569 -0.3414
  824MOL0     C11134   7.041   8.211   0.752 -0.6882 -0.2976  0.6799
  824MOL0     O11135   7.133   8.126   0.683  0.2874  0.3370 -0.0290
  824MOL0     C11136   7.269   8.126   0.713 -0.3896  0.4071 -0.1205
  824MOL0     C11137   7.361   8.144   0.611  0.3226  0.4831  0.1416
  824MOL0     C11138   7.494   8.131   0.633  0.0195 -0.3448 -0.9455
  824MOL0     C11139   7.542   8.108   0.762  0.4274 -0.7793 -0.9741
  824MOL0     O11140   7.672   8.071   0.794  0.1433  0.5209  0.4227
  824MOL0     C11141   7.760   8.175   0.762 -0.2143 -0.3675  0.4311
  824MOL0     C11142   7.890   8.155   0.840  1.1460  0.0056 -0.0457
  824MOL0     C11143   7.992   8.254   0.804 -0.2604  0.3250  0.0353
  824MOL0     C11144   8.111   8.246   0.887  0.1899 -0.7378 -0.1498
  824MOL0     C11145   8.187   8.106   0.898 -0.0509  0.5469 -0.7305
  824MOL0     C11146   8.294   8.112   1.008  0.5710  0.0598 -0.1054
  824MOL0     C11147   8.410   8.199   0.986 -0.2025 -0.5267 -0.0589
  824MOL0     C11148   8.516   8.188   1.101  0.9193 -0.3474 -0.2549
  824MOL0    Cl11149   8.646   8.298   1.052  0.1070 -0.5450 -0.2555
  824MOL0     C11150   7.452   8.097   0.864 -0.7318  0.2273  0.3621
  824MOL0     C11151   7.316   8.111   0.844  0.2878  0.0577  0.6196
  824MOL0     O11152   7.071   8.300   0.830 -0.3767 -0.2236 -0.1704
  824MOL0     C11153   6.809   8.304   0.751  0.7104  0.1987  0.0291
  824MOL0     C11154   6.681   8.295   0.702 -0.2505 -0.6352  0.7322
  824MOL0     N11155   5.973   8.077   0.575 -0.0675  0.2349  0.0562
  824MOL0     N11156   5.870   8.166   0.588 -0.2223  0.3597 -0.6410
  824MOL0     C11157   4.879   8.515   1.341  0.0219 -0.0691 -0.3037
  824MOL0     C11158   4.753   8.484   1.396  0.4554  0.1770  0.2428
  824MOL0     C11159   4.369   8.317   1.542 -0.7261 -0.1278 -0.3811
  824MOL0     C11160   4.307   8.209   1.480  0.3227  0.0382  0.4413
  824MOL0     C11161   4.171   8.202   1.475  0.4354  1.1914 -0.3399
  824MOL0     C11162   4.081   8.301   1.531  0.4590  0.5588 -0.2125
  824MOL0     O11163   3.949   8.287   1.520  0.6379 -0.0715 -0.2954
  824MOL0     C11164   3.891   8.159   1.481 -0.2500 -0.4876  0.4735
  824MOL0     C11165   3.743   8.170   1.501  0.7544  0.3191 -0.2484
  824MOL0     C11166   3.676   8.273   1.397 -0.3905  0.0532  0.1770
  824MOL0     C11167   3.532   8.241   1.392  0.5906  0.6959  1.1180
  824MOL0     C11168   3.464   8.324   1.293  0.2434 -0.4298 -0.5937
  824MOL0     C11169   3.404   8.404   1.218  0.6796 -0.4380 -0.5056
  824MOL0     C11170   4.142   8.411   1.592 -0.5750  0.0112 -0.1421
  824MOL0     C11171   4.288   8.418   1.602  0.9982  0.6276  0.0466
  824MOL0     C11172   4.348   8.540   1.656  0.1811  0.3980  0.8909
  824MOL0     H11173   4.760   8.152   1.348 -0.0943 -0.4227 -0.6820
  824MOL0     H11174   4.965   8.187   1.251 -0.9679 -1.7853  0.8387
  824MOL0     H11175   5.207   8.271   1.258 -1.6280 -0.0413  1.0361
  824MOL0     H11176   5.108   8.301   1.110  0.0653  0.9458 -0.9954
  824MOL0     H11177   5.382   8.411   1.204 -1.4051  0.4007  2.9506
  824MOL0     H11178   5.289   8.519   1.101 -2.3058 -0.9371  0.0512
  824MOL0     H11179   5.266   8.337   0.914  0.3314  2.4674 -1.4197
  824MOL0     H11180   5.365   8.232   1.031  3.1719  0.7931  0.4161
  824MOL0     H11181   5.460   8.407   0.835  2.0837  0.4861 -1.4439
  824MOL0     H11182   5.504   8.489   0.989  0.8202 -0.2687 -1.7069
  824MOL0     H11183   5.573   8.245   1.061 -0.5283  2.2622  0.7113
  824MOL0     H11184   5.562   8.197   0.891 -0.1892 -0.7882 -0.2217
  824MOL0     H11185   5.737   8.411   0.992 -0.9417 -0.6323  2.0038
  824MOL0     H11186   5.786   8.242   0.935  1.2119  0.7070 -3.6234
  824MOL0     H11187   5.657   8.477   0.778  0.7336  1.3795  0.4420
  824MOL0     H11188   5.647   8.312   0.724 -0.5394  0.3480 -0.3536
  824MOL0     H11189   5.804   8.439   0.605  0.4259 -0.3758 -1.1162
  824MOL0     H11190   5.902   8.460   0.755  1.5526 -1.2148  0.0168
  824MOL0     H11191   6.080   8.289   0.805 -0.1753  1.6921 -0.5473
  824MOL0     H11192   6.181   7.936   0.707  0.9412 -0.0540  1.5138
  824MOL0     H11193   6.272   8.058   0.593 -2.1609  1.9207 -0.9467
  824MOL0     H11194   6.255   8.086   0.901 -0.8631  1.1631 -0.4008
  824MOL0     H11195   6.380   8.018   0.797 -0.0267  0.3159  0.5551
  824MOL0     H11196   6.453   8.230   0.840  0.3991 -0.1665  0.0240
  824MOL0     H11197   6.302   8.302   0.820 -1.4549 -0.8261 -0.1892
  824MOL0     H11198   6.452   8.371   0.635  1.2988  0.3307 -2.7890
  824MOL0     H11199   6.319   8.279   0.567 -2.3209 -0.2652  3.5444
  824MOL0     H11200   6.704   7.997   0.530  1.4814  0.5119 -0.0108
  824MOL0     H11201   6.929   8.014   0.610 -0.1015 -0.0957 -0.1239
  824MOL0     H11202   7.309   8.176   0.521 -2.0195  1.3521  1.7014
  824MOL0     H11203   7.567   8.131   0.553  0.2659  1.4124 -0.7707
  824MOL0     H11204   7.780   8.180   0.654 -2.8208 -1.0135 -0.1551
  824MOL0     H11205   7.730   8.278   0.785  0.0134  0.1983 -1.5824
  824MOL0     H11206   7.872   8.168   0.947  2.8771 -1.2132  0.4374
  824MOL0     H11207   7.918   8.051   0.821  0.0304 -0.1301 -1.0332
  824MOL0     H11208   8.017   8.239   0.698  0.4708 -2.3578  0.5203
  824MOL0     H11209   7.965   8.360   0.801  0.1815  0.5045  1.8251
  824MOL0     H11210   8.080   8.281   0.986  3.0872  0.7128  0.3850
  824MOL0     H11211   8.189   8.313   0.849 -0.5451  0.2254  0.0114
  824MOL0     H11212   8.228   8.072   0.802 -2.0565 -1.8988 -0.8425
  824MOL0     H11213   8.107   8.040   0.934 -1.5617  1.9719 -1.3533
  824MOL0     H11214   8.249   8.147   1.101  0.1799  3.0519 -1.3033
  824MOL0     H11215   8.320   8.006   1.009 -1.0988 -0.3991 -0.9046
  824MOL0     H11216   8.393   8.307   0.975  1.8375 -0.1907 -0.2052
  824MOL0     H11217   8.449   8.165   0.889 -0.5016 -0.2249 -0.2862
  824MOL0     H11218   8.467   8.214   1.195 -1.7311  1.8935 -2.0852
  824MOL0     H11219   8.562   8.089   1.107  0.8885 -0.2761  1.6734
  824MOL0     H11220   7.503   8.085   0.959  0.8722  4.4789  0.2384
  824MOL0     H11221   7.252   8.109   0.932  0.8465 -1.1187  1.0269
  824MOL0     H11222   6.852   8.382   0.812  3.6523 -0.2184 -1.3411
  824MOL0     H11223   6.611   8.366   0.742 -1.1640 -0.2874 -1.3820
  824MOL0     H11224   4.922   8.613   1.360 -1.0667  1.0030 -2.8315
  824MOL0     H11225   4.691   8.559   1.443  1.0462 -1.1366  3.3397
  824MOL0     H11226   4.366   8.136   1.426  0.1797 -1.0127  1.6797
  824MOL0     H11227   4.145   8.113   1.419  0.6856  0.6722  0.3441
  824MOL0     H11228   3.930   8.067   1.525  0.3258 -1.5952 -2.1606
  824MOL0     H11229   3.915   8.143   1.375  2.7839 -0.0733  0.9968
  824MOL0     H11230   3.716   8.198   1.602 -0.6550 -0.4963 -0.3783
  824MOL0     H11231   3.698   8.071   1.489 -0.8489  0.9108  0.6240
  824MOL0     H11232   3.723   8.265   1.298  0.5441 -1.7880  0.7267
  824MOL0     H11233   3.689   8.375   1.433 -0.5863 -1.1830  4.2787
  824MOL0     H11234   3.514   8.139   1.359 -0.6332  2.2382 -3.8749
  824MOL0     H11235   3.480   8.257   1.487 -2.0653  1.3557 -0.3369
  824MOL0     H11236   3.353   8.475   1.156 -1.8307 -0.7980  0.9939
  824MOL0     H11237   4.076   8.477   1.647 -0.7654 -2.5919  3.1512
  824MOL0     H11238   4.420   8.576   1.582  0.0571 -1.4284 -0.2075
  824MOL0     H11239   4.269   8.610   1.684 -1.3347 -0.3980 -1.1403
  824MOL0     H11240   4.404   8.520   1.747  0.3624 -0.3387  0.6250
  825MOL0     O11241   2.422   6.888   0.783  0.4441  0.6980  0.3842
  825MOL0     C11242   2.364   6.805   0.712  0.0429  1.0898  0.0134
  825MOL0     O11243   2.426   6.709   0.634 -0.0061 -0.6124 -0.2165
  825MOL0     C11244   2.557   6.690   0.657  0.1800 -0.9468 -0.1591
  825MOL0     C11245   2.607   6.621   0.772 -0.0791  0.2230 -0.1923
  825MOL0     C11246   2.737   6.579   0.791  0.1066 -0.0142  0.1906
  825MOL0     C11247   2.829   6.608   0.694 -0.3474 -0.3572  0.0467
  825MOL0     O11248   2.961   6.568   0.724  0.8641  0.1143  0.2430
  825MOL0     C11249   3.069   6.568   0.622  0.0817  0.1243 -0.0253
  825MOL0     C11250   3.199   6.530   0.696 -0.4547  0.3632  0.2244
  825MOL0     C11251   3.320   6.600   0.634 -0.1097 -0.4290 -0.2783
  825MOL0     C11252   3.444   6.544   0.682 -0.1655  0.3268 -0.6821
  825MOL0     C11253   3.569   6.632   0.637  0.0587  0.7515 -0.7963
  825MOL0     C11254   3.693   6.584   0.718  0.1433  1.1195  0.9248
  825MOL0     C11255   3.831   6.631   0.665  0.0299 -0.5662  0.1453
  825MOL0     C11256   3.946   6.559   0.721 -0.1162  0.4035  0.2285
  825MOL0     N11257   4.075   6.581   0.655 -0.3343  0.4061 -0.3042
  825MOL0     C11258   4.141   6.512   0.567 -0.3429  0.1581 -0.2930
  825MOL0     C11259   4.276   6.527   0.593 -0.1940 -0.2008  0.8915
  825MOL0     C11260   4.399   6.469   0.523  0.5183  0.0664 -0.2785
  825MOL0     C11261   4.385   6.482   0.368 -0.5755  0.0534  0.5329
  825MOL0     C11262   4.515   6.417   0.314  0.4310 -0.5825 -0.8689
  825MOL0     C11263   4.631   6.519   0.300  0.1354 -0.1834  0.6369
  825MOL0     O11264   4.744   6.469   0.225  0.4855 -0.1218  0.3097
  825MOL0     C11265   4.847   6.559   0.201 -0.4135  0.2852 -0.7900
  825MOL0     C11266   4.854   6.696   0.234  0.6018 -0.6018 -0.4905
  825MOL0     C11267   4.975   6.766   0.226 -0.7146 -0.4388  0.1232
  825MOL0     C11268   5.086   6.700   0.176  0.2703 -0.5615  0.3095
  825MOL0     C11269   5.207   6.769   0.168 -0.2053  1.0053 -0.0592
  825MOL0     O11270   5.317   6.690   0.142  0.5335  0.4608 -0.7196
  825MOL0     C11271   5.445   6.737   0.127  0.8109 -0.1142  0.6043
  825MOL0     C11272   5.551   6.658   0.180  0.2870 -0.0248  0.5692
  825MOL0     C11273   5.682   6.700   0.165  0.5984  1.2179  0.5008
  825MOL0     C11274   5.711   6.823   0.105 -0.8172 -0.7029  0.1248
  825MOL0     O11275   5.842   6.868   0.086 -0.1607 -0.1675  0.5091
  825MOL0     C11276   5.942   6.784   0.125  0.1723  0.8679 -0.6247
  825MOL0     C11277   6.076   6.827   0.071  1.2953  0.4967 -0.7099
  825MOL0     C11278   6.084   6.804  -0.088 -1.1334  0.0328 -1.0941
  825MOL0     C11279   6.214   6.874  -0.150 -0.7366 -0.1316 -0.7638
  825MOL0     C11280   6.209   6.854  -0.300  0.2193 -0.4202  0.0067
  825MOL0     C11281   6.348   6.849  -0.356  0.2167 -0.2185 -0.4937
  825MOL0     C11282   6.349   6.838  -0.508  0.7936 -0.4555  0.0475
  825MOL0     C11283   6.485   6.883  -0.552 -0.5878  0.5520 -0.2113
  825MOL0    Cl11284   6.517   6.812  -0.712 -0.1374 -0.2364 -0.3110
  825MOL0     C11285   5.615   6.907   0.055  0.1378 -0.2416 -0.1987
  825MOL0     C11286   5.479   6.857   0.062 -0.5143  0.4236  0.5560
  825MOL0     O11287   5.210   6.891   0.179 -0.1528  0.4885 -0.3074
  825MOL0     C11288   5.076   6.571   0.123 -0.0918 -0.3074 -1.0215
  825MOL0     C11289   4.961   6.497   0.143  1.0511 -0.2741 -0.1322
  825MOL0     N11290   4.286   6.625   0.686 -0.8099 -0.2441  0.2592
  825MOL0     N11291   4.169   6.658   0.723  0.3205  0.0589 -0.7923
  825MOL0     C11292   2.788   6.675   0.576 -0.5577 -0.2969 -0.3306
  825MOL0     C11293   2.653   6.709   0.562  0.0354 -0.3592  0.4756
  825MOL0     C11294   2.221   6.799   0.702 -0.6757 -0.4098 -0.1348
  825MOL0     C11295   2.156   6.697   0.628  0.7442  0.2551 -0.1658
  825MOL0     C11296   2.016   6.695   0.628 -0.4012  0.1769  0.3572
  825MOL0     C11297   1.937   6.794   0.687 -0.0344  0.4798 -0.4850
  825MOL0     O11298   1.809   6.760   0.679 -0.2624  0.4630  0.1447
  825MOL0     C11299   1.703   6.837   0.742 -0.8091 -0.1823  1.2152
  825MOL0     C11300   1.688   6.978   0.681 -0.1217 -0.0610 -1.0323
  825MOL0     C11301   1.668   6.971   0.522  0.0527  0.0486  0.3618
  825MOL0     C11302   1.602   7.099   0.472  0.0014  0.5659  0.7386
  825MOL0     C11303   1.456   7.090   0.511  0.0444  0.3281 -0.6308
  825MOL0     C11304   1.333   7.091   0.533 -1.0306  0.8881  0.4093
  825MOL0     C11305   1.996   6.885   0.768  0.0308  0.7232 -0.4387
  825MOL0     C11306   2.139   6.888   0.778  0.2717 -0.5149  0.0601
  825MOL0     C11307   2.191   7.002   0.874 -0.2377  0.4151  0.5320
  825MOL0     H11308   2.534   6.591   0.847  0.5430  2.3091  1.3605
  825MOL0     H11309   2.773   6.530   0.880  1.6680  1.5938  0.5007
  825MOL0     H11310   3.052   6.506   0.533 -4.8092 -2.1222  2.0816
  825MOL0     H11311   3.077   6.674   0.598 -2.0621  1.5418  4.3731
  825MOL0     H11312   3.220   6.423   0.694  0.5075  0.5550 -0.7390
  825MOL0     H11313   3.187   6.572   0.797 -0.3579  1.2792 -0.1384
  825MOL0     H11314   3.323   6.709   0.639  1.3009 -0.5170  1.2819
  825MOL0     H11315   3.319   6.577   0.527 -1.0260  1.6612 -0.7752
  825MOL0     H11316   3.437   6.547   0.791  0.0038  1.1108 -0.6876
  825MOL0     H11317   3.448   6.439   0.652 -1.0506  0.1254 -0.1183
  825MOL0     H11318   3.589   6.625   0.529  0.2189  1.3454 -0.8106
  825MOL0     H11319   3.547   6.736   0.661  0.3592  0.6838 -0.2064
  825MOL0     H11320   3.692   6.622   0.821  0.0330  1.6367  0.7342
  825MOL0     H11321   3.692   6.475   0.718  0.1886  1.0152 -2.6824
  825MOL0     H11322   3.839   6.740   0.671 -1.3150 -0.4911  1.1052
  825MOL0     H11323   3.823   6.620   0.556 -2.2809  1.5570 -0.0081
  825MOL0     H11324   3.950   6.584   0.827  0.6335  2.0316 -0.1356
  825MOL0     H11325   3.925   6.452   0.717 -0.8926  0.5447  0.4106
  825MOL0     H11326   4.102   6.439   0.497 -1.1413  0.3989 -0.1009
  825MOL0     H11327   4.478   6.533   0.563  0.4087  0.0425 -0.0236
  825MOL0     H11328   4.409   6.365   0.555  2.7977  0.8502  1.8716
  825MOL0     H11329   4.295   6.427   0.337 -2.1587  1.0480  3.0622
  825MOL0     H11330   4.373   6.587   0.341 -0.3658  0.1675  0.8812
  825MOL0     H11331   4.510   6.379   0.212  2.2597 -2.2577 -0.4028
  825MOL0     H11332   4.559   6.346   0.384  2.6710 -0.9337 -2.5425
  825MOL0     H11333   4.673   6.551   0.395 -0.0242  0.0336  0.6348
  825MOL0     H11334   4.600   6.604   0.239 -2.7286 -0.9164  0.9124
  825MOL0     H11335   4.769   6.760   0.258  1.6576  1.2666 -1.5307
  825MOL0     H11336   4.976   6.870   0.259 -4.1028  0.3747 -1.8506
  825MOL0     H11337   5.522   6.567   0.232 -1.5839  1.4269  2.2380
  825MOL0     H11338   5.748   6.636   0.223 -0.2140 -1.2756 -1.1510
  825MOL0     H11339   5.933   6.781   0.234 -2.0585 -1.7675 -0.7649
  825MOL0     H11340   5.937   6.679   0.095 -0.7623  1.3299 -2.2799
  825MOL0     H11341   6.084   6.930   0.106 -0.3827 -0.0205  1.3875
  825MOL0     H11342   6.144   6.772   0.136 -1.0221 -1.3598  0.2836
  825MOL0     H11343   6.082   6.696  -0.107  2.9998 -0.5062  0.5081
  825MOL0     H11344   6.001   6.852  -0.140  0.2586  1.5236 -2.0416
  825MOL0     H11345   6.296   6.814  -0.108 -2.3946 -1.4165  0.8237
  825MOL0     H11346   6.233   6.980  -0.132  1.6171 -0.6293  0.0295
  825MOL0     H11347   6.149   6.936  -0.342 -2.5832 -3.1502 -1.7398
  825MOL0     H11348   6.164   6.760  -0.332  0.7319  0.1132 -2.5591
  825MOL0     H11349   6.407   6.936  -0.325 -0.9236 -0.9809  4.6905
  825MOL0     H11350   6.395   6.756  -0.322  2.1845  1.0911  0.5334
  825MOL0     H11351   6.272   6.899  -0.556  0.2729  1.1698  2.7397
  825MOL0     H11352   6.327   6.733  -0.531 -3.2362  0.1000  0.4633
  825MOL0     H11353   6.483   6.992  -0.552 -0.8476  0.7073  3.9116
  825MOL0     H11354   6.570   6.847  -0.495 -0.6389  0.0049 -0.4659
  825MOL0     H11355   5.633   7.005   0.013  0.8025  0.8842  2.4760
  825MOL0     H11356   5.402   6.927   0.032 -2.0032  0.2317  3.6143
  825MOL0     H11357   5.153   6.515   0.070  1.5838  0.0058  0.9675
  825MOL0     H11358   4.954   6.395   0.106 -1.3190 -0.0038 -0.5648
  825MOL0     H11359   2.865   6.694   0.501 -1.0401  0.4825 -0.6425
  825MOL0     H11360   2.626   6.739   0.461 -1.2653  1.2479  1.2508
  825MOL0     H11361   2.198   6.623   0.561  1.1184  1.5215 -1.3925
  825MOL0     H11362   1.968   6.615   0.572 -0.3002  0.0549  0.4440
  825MOL0     H11363   1.729   6.841   0.848 -0.7979 -1.4634  1.2729
  825MOL0     H11364   1.610   6.779   0.734 -0.3417 -0.6753 -2.4030
  825MOL0     H11365   1.774   7.043   0.699 -2.3665  2.5398  1.1005
  825MOL0     H11366   1.598   7.017   0.729  0.6269 -0.6143  0.9081
  825MOL0     H11367   1.608   6.886   0.488 -2.1251  1.1220  1.3136
  825MOL0     H11368   1.767   6.958   0.476  0.1835  0.8706  0.3910
  825MOL0     H11369   1.646   7.195   0.500 -1.6140  1.9692 -1.1635
  825MOL0     H11370   1.608   7.090   0.363 -0.9208 -1.1396  0.8048
  825MOL0     H11371   1.227   7.079   0.535 -0.9161 -2.0596 -2.3257
  825MOL0     H11372   1.928   6.940   0.833  0.5129 -0.7219  1.3318
  825MOL0     H11373   2.264   7.064   0.821  0.9153  0.8688  2.5534
  825MOL0     H11374   2.112   7.070   0.906 -1.1028 -1.0609  1.6798
  825MOL0     H11375   2.231   6.947   0.960 -0.6501  0.3294  0.6676
  826MOL0     O11376   5.384   9.050   0.826 -0.9767 -0.0501 -0.6841
  826MOL0     C11377   5.395   8.967   0.920 -0.5561  0.2858  0.2601
  826MOL0     O11378   5.508   8.889   0.944  0.0042 -0.2063  0.7098
  826MOL0     C11379   5.617   8.916   0.867 -0.6805  0.1264  0.5162
  826MOL0     C11380   5.676   9.036   0.872 -0.5800 -0.2196 -0.5376
  826MOL0     C11381   5.784   9.071   0.797  0.1313 -0.4670 -0.9077
  826MOL0     C11382   5.839   8.983   0.705  0.0026 -0.8226  0.1944
  826MOL0     O11383   5.948   9.025   0.635 -0.9746  0.1174  0.7580
  826MOL0     C11384   6.049   8.935   0.589 -1.1604 -0.1604  0.4288
  826MOL0     C11385   6.157   9.013   0.506  0.8665  0.1957 -0.1655
  826MOL0     C11386   6.085   9.086   0.385 -0.9656  0.0918 -0.0848
  826MOL0     C11387   6.189   9.164   0.300 -0.1900  0.2886 -0.4784
  826MOL0     C11388   6.126   9.230   0.177  1.1003  0.6008  0.2455
  826MOL0     C11389   6.211   9.344   0.121 -0.1927  0.0987  0.1139
  826MOL0     C11390   6.354   9.285   0.066 -0.4245 -0.1295 -0.4201
  826MOL0     C11391   6.449   9.403   0.035  0.3516 -0.3401 -0.6465
  826MOL0     N11392   6.570   9.361  -0.049  0.6584 -0.1713 -1.1702
  826MOL0     C11393   6.695   9.394  -0.025  0.9571 -0.4004  0.7348
  826MOL0     C11394   6.777   9.317  -0.105 -0.4509  0.5765 -0.3588
  826MOL0     C11395   6.919   9.335  -0.102  0.2399  1.2429  0.2094
  826MOL0     C11396   7.004   9.208  -0.128 -0.3817  0.8517 -0.2230
  826MOL0     C11397   7.028   9.116  -0.006  0.1970  0.3010 -0.2147
  826MOL0     C11398   7.043   8.969  -0.040  0.5082 -0.3005 -0.0189
  826MOL0     O11399   7.119   8.951  -0.160 -0.2953 -0.5674  0.2668
  826MOL0     C11400   7.254   8.988  -0.168  0.3136  1.0521  0.1904
  826MOL0     C11401   7.307   9.036  -0.284  0.4437 -0.6861 -0.2182
  826MOL0     C11402   7.445   9.051  -0.295 -0.0556  0.8911  0.8388
  826MOL0     C11403   7.534   9.042  -0.189 -0.6809 -0.4076  0.0829
  826MOL0     C11404   7.677   9.070  -0.206 -0.7232  0.8665 -0.2953
  826MOL0     O11405   7.735   9.099  -0.329  0.1702 -0.0010  0.1429
  826MOL0     C11406   7.865   9.154  -0.332 -0.1137  0.7334 -0.2082
  826MOL0     C11407   7.953   9.108  -0.431  0.3091 -0.3159 -0.2979
  826MOL0     C11408   8.084   9.151  -0.451 -1.1654  0.0240 -0.2791
  826MOL0     C11409   8.141   9.249  -0.370 -0.2396 -0.2401  0.3678
  826MOL0     O11410   8.270   9.279  -0.395 -0.6565  0.6227 -0.1276
  826MOL0     C11411   8.320   9.404  -0.348  0.0629 -0.7151 -0.2229
  826MOL0     C11412   8.415   9.467  -0.454 -0.1969 -0.7507 -0.1153
  826MOL0     C11413   8.543   9.398  -0.478 -0.0091 -0.4887 -0.4805
  826MOL0     C11414   8.626   9.487  -0.569 -0.4046  0.3739 -0.1078
  826MOL0     C11415   8.764   9.420  -0.589 -0.2793  0.1578 -0.6403
  826MOL0     C11416   8.855   9.513  -0.667 -0.8999 -0.6587 -0.7969
  826MOL0     C11417   8.978   9.431  -0.711 -0.5791  0.2525 -0.1214
  826MOL0     C11418   9.046   9.498  -0.829  0.0566  0.0885 -0.4100
  826MOL0    Cl11419   8.942   9.539  -0.978 -0.2215 -0.1759  0.1124
  826MOL0     C11420   8.058   9.301  -0.266  0.0111  0.1310  0.5356
  826MOL0     C11421   7.922   9.251  -0.247 -0.4074 -0.4219 -0.6033
  826MOL0     O11422   7.742   9.052  -0.101 -0.1588  0.4931  1.2401
  826MOL0     C11423   7.478   9.013  -0.071 -0.2577 -0.9854 -0.1768
  826MOL0     C11424   7.341   8.986  -0.061 -0.3389 -0.0408 -0.2988
  826MOL0     N11425   6.696   9.236  -0.177  0.6129  0.5995  0.2465
  826MOL0     N11426   6.570   9.267  -0.145  0.2104  0.4262  1.6261
  826MOL0     C11427   5.788   8.860   0.691 -0.2817  0.6442 -0.8531
  826MOL0     C11428   5.680   8.822   0.787  0.4467 -0.2102  0.5104
  826MOL0     C11429   5.279   8.946   1.003  0.2585  0.9972 -0.6839
  826MOL0     C11430   5.279   8.838   1.101 -0.5029 -0.0321 -0.0470
  826MOL0     C11431   5.172   8.816   1.181  0.4697 -0.7890  0.3109
  826MOL0     C11432   5.056   8.884   1.170  0.5600  0.6578 -0.5038
  826MOL0     O11433   4.953   8.848   1.256  0.1371 -0.6278  0.3535
  826MOL0     C11434   4.822   8.898   1.210 -0.6251  0.6274  0.0179
  826MOL0     C11435   4.717   8.827   1.301 -0.2460 -0.3800  0.0417
  826MOL0     C11436   4.574   8.883   1.276  0.4996  0.2831 -0.0289
  826MOL0     C11437   4.474   8.806   1.364  0.1892 -0.3342  0.1314
  826MOL0     C11438   4.493   8.830   1.506 -0.2610  0.3108  0.4264
  826MOL0     C11439   4.494   8.850   1.630 -0.3481  0.2637  0.0182
  826MOL0     C11440   5.052   8.993   1.079  0.2164  0.0817 -0.2623
  826MOL0     C11441   5.159   9.024   0.996 -0.7287  0.3529 -0.4181
  826MOL0     C11442   5.131   9.142   0.913 -0.8073 -0.1111 -0.3599
  826MOL0     H11443   5.634   9.111   0.939 -1.9506 -1.8721  0.5619
  826MOL0     H11444   5.828   9.168   0.815  0.7040 -0.8033 -0.4680
  826MOL0     H11445   6.105   8.889   0.671 -1.0036  1.0043  1.0036
  826MOL0     H11446   6.015   8.858   0.518  0.3004 -0.9959  0.6032
  826MOL0     H11447   6.216   8.931   0.463  1.2224  0.9778 -1.2031
  826MOL0     H11448   6.228   9.076   0.562 -0.6706  0.4338  1.6126
  826MOL0     H11449   6.002   9.147   0.420 -1.2078  0.2961 -0.9886
  826MOL0     H11450   6.039   9.002   0.333 -1.1585 -1.5734  2.6026
  826MOL0     H11451   6.227   9.251   0.355 -2.3721  0.1605  1.3814
  826MOL0     H11452   6.270   9.097   0.267  1.7069  1.5580  1.3058
  826MOL0     H11453   6.112   9.152   0.101 -1.2541  2.0661 -0.9393
  826MOL0     H11454   6.027   9.275   0.190  1.4148  1.1889  0.6518
  826MOL0     H11455   6.146   9.379   0.040 -0.1073 -2.8768 -1.3594
  826MOL0     H11456   6.213   9.423   0.197 -1.5615  1.3497 -1.0810
  826MOL0     H11457   6.342   9.230  -0.028  3.8227  0.1282 -1.3212
  826MOL0     H11458   6.400   9.218   0.139 -2.3123 -0.3554  0.6321
  826MOL0     H11459   6.393   9.473  -0.029 -1.3699 -2.5520 -1.7199
  826MOL0     H11460   6.490   9.447   0.125 -0.5259  0.1137 -0.4540
  826MOL0     H11461   6.726   9.473   0.041  0.6964 -1.3593  2.0379
  826MOL0     H11462   6.959   9.413  -0.167 -0.5409  0.5892 -1.0770
  826MOL0     H11463   6.942   9.376  -0.003 -1.0294  0.4743  0.8441
  826MOL0     H11464   6.964   9.149  -0.211  0.0053 -1.4176  1.1170
  826MOL0     H11465   7.101   9.248  -0.158  0.9117 -0.5354  1.8655
  826MOL0     H11466   6.951   9.128   0.072  1.8059 -0.3862  1.5495
  826MOL0     H11467   7.119   9.159   0.037  1.0459  2.2608 -3.6051
  826MOL0     H11468   6.950   8.923  -0.073  1.5216 -1.9876 -0.6554
  826MOL0     H11469   7.075   8.903   0.041  2.3814 -0.7333 -1.0373
  826MOL0     H11470   7.241   9.054  -0.369  2.8910 -0.1257 -2.1147
  826MOL0     H11471   7.475   9.086  -0.393  3.7313 -0.2666  1.4257
  826MOL0     H11472   7.924   9.029  -0.500 -0.7025  1.9704 -2.6137
  826MOL0     H11473   8.137   9.097  -0.529 -3.3135 -2.4084 -0.1676
  826MOL0     H11474   8.241   9.479  -0.340  1.7975  0.9920  2.9396
  826MOL0     H11475   8.374   9.409  -0.253  1.1584 -1.1440 -0.8022
  826MOL0     H11476   8.356   9.457  -0.545 -1.0663 -1.5657  0.5131
  826MOL0     H11477   8.432   9.572  -0.427  1.1773 -0.9413 -0.1564
  826MOL0     H11478   8.599   9.386  -0.385  0.7983  3.9993 -0.1498
  826MOL0     H11479   8.520   9.307  -0.532 -0.4193  0.7000 -2.3986
  826MOL0     H11480   8.644   9.584  -0.522 -1.5747 -0.4031  2.0497
  826MOL0     H11481   8.570   9.504  -0.662 -0.1326 -1.5632 -0.6761
  826MOL0     H11482   8.746   9.329  -0.646 -2.6990 -0.0538  0.3598
  826MOL0     H11483   8.817   9.392  -0.497  1.6757  2.1488 -1.0683
  826MOL0     H11484   8.799   9.552  -0.753 -2.6806 -1.3866 -0.0154
  826MOL0     H11485   8.888   9.596  -0.603  0.5415 -3.4183  2.2911
  826MOL0     H11486   8.954   9.328  -0.738  1.2493 -0.1370 -0.3780
  826MOL0     H11487   9.044   9.427  -0.624 -0.5108  1.5032 -0.1001
  826MOL0     H11488   9.092   9.596  -0.812 -1.7563  1.1914 -1.5235
  826MOL0     H11489   9.133   9.434  -0.846  1.8398  1.1909  3.3889
  826MOL0     H11490   8.100   9.375  -0.197 -0.0507  0.3237  0.3664
  826MOL0     H11491   7.859   9.299  -0.172 -1.9441 -0.7151 -1.6656
  826MOL0     H11492   7.529   9.006   0.024  0.8479 -0.8831 -0.7552
  826MOL0     H11493   7.295   8.968   0.036 -1.7524  1.4213 -0.6528
  826MOL0     H11494   5.823   8.785   0.619  1.7534 -0.8271  1.5036
  826MOL0     H11495   5.632   8.725   0.780 -0.5719  0.0602  2.8476
  826MOL0     H11496   5.366   8.773   1.107  0.5472  1.4442  1.6007
  826MOL0     H11497   5.177   8.734   1.252 -0.5151 -1.0408  0.1084
  826MOL0     H11498   4.807   8.868   1.106  0.0939 -0.6614  0.2690
  826MOL0     H11499   4.827   9.005   1.235 -0.2142  0.4901  0.5482
  826MOL0     H11500   4.731   8.853   1.406 -2.3407  3.0911 -0.3568
  826MOL0     H11501   4.721   8.719   1.286 -2.1400 -1.0737  3.4273
  826MOL0     H11502   4.544   8.887   1.171 -1.6964  2.4194  0.6111
  826MOL0     H11503   4.562   8.987   1.306 -2.6386  0.0656 -0.2388
  826MOL0     H11504   4.382   8.845   1.318 -1.2720 -2.5023  1.0664
  826MOL0     H11505   4.479   8.700   1.341 -1.0101 -0.5843  0.9333
  826MOL0     H11506   4.509   8.861   1.736 -0.7220  0.0552  0.0967
  826MOL0     H11507   4.963   9.055   1.083  1.7446  2.3449  0.0079
  826MOL0     H11508   5.222   9.203   0.910 -0.8846  0.0127 -0.2026
  826MOL0     H11509   5.100   9.107   0.815 -2.6537 -0.0826  0.1766
  826MOL0     H11510   5.054   9.205   0.958 -0.3087 -0.0655  0.4514
  827MOL0     O11511   8.034   6.665   7.725  0.2675 -1.0861  0.0095
  827MOL0     C11512   8.007   6.778   7.775 -0.1728 -0.2865 -0.8094
  827MOL0     O11513   8.083   6.860   7.866 -0.4625  0.3283 -0.2536
  827MOL0     C11514   8.221   6.826   7.871  0.7402 -0.0934 -0.1820
  827MOL0     C11515   8.274   6.767   7.979 -0.6877  0.3510 -0.4876
  827MOL0     C11516   8.410   6.734   7.978 -0.8010  0.8607  0.3352
  827MOL0     C11517   8.495   6.747   7.861  1.0786  0.9881  0.8309
  827MOL0     O11518   8.620   6.700   7.862 -0.6328 -0.2934 -0.6200
  827MOL0     C11519   8.685   6.716   7.991  0.1878  0.0612  0.0319
  827MOL0     C11520   8.836   6.709   7.970  0.3007 -0.3030  0.1087
  827MOL0     C11521   8.872   6.577   7.896 -0.3988 -0.3195 -0.7821
  827MOL0     C11522   9.020   6.548   7.880  0.8384 -0.8379 -0.3281
  827MOL0     C11523   9.048   6.413   7.812  0.1216 -0.4927  0.2760
  827MOL0     C11524   9.200   6.388   7.780 -0.4310 -1.9162 -0.4278
  827MOL0     C11525   9.221   6.266   7.697  0.5462 -0.5515 -0.0431
  827MOL0     C11526   9.369   6.247   7.658  0.7729  0.3160 -0.4151
  827MOL0     N11527   9.443   6.241   7.789 -0.3105 -0.0972  0.4728
  827MOL0     C11528   9.429   6.142   7.876  0.3800  0.2545 -1.6563
  827MOL0     C11529   9.526   6.161   7.967  0.3342  0.4889 -0.0806
  827MOL0     C11530   9.540   6.069   8.091  0.0281 -0.2149  0.4362
  827MOL0     C11531   9.594   6.157   8.204 -0.4316 -0.2322 -0.8293
  827MOL0     C11532   9.750   6.206   8.199  0.2519 -0.5030  0.7520
  827MOL0     C11533   9.852   6.107   8.145  0.8768 -0.4571  1.1085
  827MOL0     O11534   9.977   6.161   8.175 -0.2760  0.2346 -0.5996
  827MOL0     C11535  10.030   6.138   8.301 -0.2173 -0.5948  0.8358
  827MOL0     C11536  10.142   6.216   8.324  0.2475  0.6383 -0.4545
  827MOL0     C11537  10.209   6.209   8.448 -0.3568  0.8360 -0.1416
  827MOL0     C11538  10.163   6.129   8.557 -0.3140  0.1061  1.0508
  827MOL0     C11539  10.228   6.128   8.684 -0.1454  0.3210  0.0436
  827MOL0     O11540  10.177   6.045   8.782  0.9210  1.0881  0.7900
  827MOL0     C11541  10.260   5.997   8.880 -0.1033  0.0034 -0.1368
  827MOL0     C11542  10.364   5.911   8.847 -0.4337 -0.0087 -0.3869
  827MOL0     C11543  10.437   5.852   8.953 -0.7187  0.2602  0.4868
  827MOL0     C11544  10.389   5.872   9.084  0.5084 -0.0346  0.3567
  827MOL0     O11545  10.441   5.812   9.192  0.5873 -0.2395 -0.9419
  827MOL0     C11546  10.578   5.766   9.186 -0.4157 -0.4487 -0.5403
  827MOL0     C11547  10.676   5.883   9.184  0.4467 -0.2433  0.4228
  827MOL0     C11548  10.821   5.836   9.193 -0.6001 -0.4736 -0.8940
  827MOL0     C11549  10.874   5.758   9.077  0.7868 -0.2386 -0.2931
  827MOL0     C11550  11.025   5.731   9.071  0.0351  0.5528  0.7785
  827MOL0     C11551  11.091   5.668   9.193  0.2291 -0.0820  0.2758
  827MOL0     C11552  11.236   5.637   9.167  0.3531 -0.1117  1.2992
  827MOL0     C11553  11.319   5.626   9.301 -0.0468 -0.0130  0.3608
  827MOL0    Cl11554  11.483   5.584   9.271 -0.5899 -0.2500  0.4612
  827MOL0     C11555  10.287   5.960   9.111  0.4147 -0.4357 -0.2181
  827MOL0     C11556  10.221   6.024   9.009 -0.5772 -0.7015 -0.6611
  827MOL0     O11557  10.339   6.184   8.689  0.0132 -0.1983  0.1571
  827MOL0     C11558  10.038   6.048   8.535  0.4267  0.5309  0.3193
  827MOL0     C11559   9.984   6.044   8.407  0.9295  0.3537  0.4195
  827MOL0     N11560   9.602   6.268   7.925  0.0460 -0.3409 -1.0422
  827MOL0     N11561   9.559   6.308   7.817  0.1123  0.0029 -0.1222
  827MOL0     C11562   8.438   6.816   7.750  0.8047  0.1935  0.5357
  827MOL0     C11563   8.300   6.859   7.752 -0.1044  0.1446  0.0544
  827MOL0     C11564   7.865   6.821   7.758  0.5713  0.4873  0.6220
  827MOL0     C11565   7.791   6.755   7.665  0.6256 -0.1857 -0.6029
  827MOL0     C11566   7.660   6.793   7.620 -0.2062  0.1797  0.1822
  827MOL0     C11567   7.595   6.897   7.679  0.5706 -0.5426 -0.4833
  827MOL0     O11568   7.477   6.931   7.626  1.0970  0.2166  0.4051
  827MOL0     C11569   7.401   7.046   7.667  0.2379  0.1588 -0.3539
  827MOL0     C11570   7.284   6.990   7.754  0.0461  0.9138  0.1723
  827MOL0     C11571   7.320   6.933   7.890  0.0452  0.3273 -0.5663
  827MOL0     C11572   7.213   6.918   7.988 -0.0534 -0.2878 -1.0839
  827MOL0     C11573   7.173   7.052   8.021  0.6056  0.0135  0.0385
  827MOL0     C11574   7.138   7.170   8.046 -0.2190 -0.0726 -0.6091
  827MOL0     C11575   7.659   6.962   7.785  0.0148  0.0503  0.4564
  827MOL0     C11576   7.789   6.922   7.833 -0.2953  0.0404  0.0424
  827MOL0     C11577   7.852   6.999   7.946  0.3211 -0.5799 -0.2633
  827MOL0     H11578   8.212   6.750   8.066 -1.3732 -1.9909 -1.3912
  827MOL0     H11579   8.448   6.689   8.069 -0.7132  0.5907  0.1689
  827MOL0     H11580   8.668   6.814   8.038  1.6290  1.7015 -2.6366
  827MOL0     H11581   8.640   6.637   8.051 -0.6724 -0.1630 -0.8849
  827MOL0     H11582   8.892   6.724   8.062 -1.3974  1.0842  0.9746
  827MOL0     H11583   8.876   6.791   7.909 -1.0652  0.4997  0.2493
  827MOL0     H11584   8.837   6.577   7.793  0.3988 -1.0711 -1.0711
  827MOL0     H11585   8.835   6.488   7.948  2.7870 -2.6411 -2.1589
  827MOL0     H11586   9.067   6.620   7.812  1.6301 -0.2793  0.7854
  827MOL0     H11587   9.073   6.550   7.976  3.3606 -2.0707 -1.5977
  827MOL0     H11588   9.006   6.338   7.879 -0.6814 -0.9687 -0.7476
  827MOL0     H11589   8.992   6.416   7.718  0.3937  1.2546  0.1220
  827MOL0     H11590   9.238   6.476   7.728 -2.3337  0.1712  1.5289
  827MOL0     H11591   9.245   6.372   7.878 -2.9213 -1.7574  0.8295
  827MOL0     H11592   9.166   6.270   7.602  2.5426 -1.7294 -1.3286
  827MOL0     H11593   9.183   6.178   7.750  0.0678 -0.8268 -0.8185
  827MOL0     H11594   9.392   6.155   7.602 -0.6647 -0.0787 -0.3846
  827MOL0     H11595   9.390   6.333   7.595 -2.1805  0.9450 -0.6768
  827MOL0     H11596   9.357   6.061   7.881  0.6870  0.0576 -0.1109
  827MOL0     H11597   9.445   6.039   8.137  0.0837  0.5208  1.0404
  827MOL0     H11598   9.595   5.980   8.057  1.4847  0.3303  1.2600
  827MOL0     H11599   9.532   6.245   8.221  0.7716  0.3459  0.7816
  827MOL0     H11600   9.582   6.116   8.304  1.1639 -1.0475 -0.9401
  827MOL0     H11601   9.764   6.225   8.306 -2.6004 -0.8390  1.2579
  827MOL0     H11602   9.763   6.302   8.148  0.1957 -1.1433 -0.5060
  827MOL0     H11603   9.838   6.097   8.037 -5.8268 -1.5895  1.6667
  827MOL0     H11604   9.839   6.005   8.184 -2.0121 -2.1620 -3.4719
  827MOL0     H11605  10.180   6.293   8.258  2.2030  2.9305  3.0131
  827MOL0     H11606  10.283   6.284   8.472  0.3032 -0.5573  2.5558
  827MOL0     H11607  10.383   5.885   8.744 -0.9461  3.8267 -1.6088
  827MOL0     H11608  10.526   5.798   8.921  0.3937  2.0628  0.3746
  827MOL0     H11609  10.594   5.713   9.280  1.3539  1.7970  0.5385
  827MOL0     H11610  10.607   5.694   9.109  0.1819 -0.4792 -0.2932
  827MOL0     H11611  10.667   5.940   9.091 -1.3019  1.8748  1.7941
  827MOL0     H11612  10.656   5.950   9.269  1.7019  1.7455 -0.7546
  827MOL0     H11613  10.883   5.925   9.209  0.2033 -1.4659  2.0258
  827MOL0     H11614  10.835   5.772   9.280 -4.3889 -1.4774 -0.8702
  827MOL0     H11615  10.846   5.820   8.992 -0.1554 -0.4439 -0.1503
  827MOL0     H11616  10.824   5.660   9.078  1.4779 -0.6638  2.9801
  827MOL0     H11617  11.073   5.828   9.053  0.2802 -0.0820 -2.6132
  827MOL0     H11618  11.053   5.678   8.980 -0.3387 -0.0929  1.0364
  827MOL0     H11619  11.079   5.735   9.278  1.3819  2.0773 -1.1580
  827MOL0     H11620  11.039   5.574   9.212  0.2104 -0.2012 -0.3349
  827MOL0     H11621  11.268   5.730   9.120  3.2681 -1.1377  1.0273
  827MOL0     H11622  11.254   5.555   9.096  1.5352  0.1249  1.3043
  827MOL0     H11623  11.304   5.712   9.367 -0.5941 -0.3605  0.7034
  827MOL0     H11624  11.287   5.540   9.360 -0.6174 -1.4236 -1.8863
  827MOL0     H11625  10.270   5.985   9.215 -0.0215  2.0660 -0.8258
  827MOL0     H11626  10.146   6.099   9.031  1.1403  0.7855  0.4338
  827MOL0     H11627  10.016   5.989   8.624  5.9345  0.4085  2.0074
  827MOL0     H11628   9.897   5.980   8.398  2.1441 -1.0785 -2.1574
  827MOL0     H11629   8.509   6.833   7.670 -0.4889  3.6552 -0.0263
  827MOL0     H11630   8.254   6.912   7.669 -1.1116  1.7789  1.5942
  827MOL0     H11631   7.830   6.683   7.593  0.0037 -1.9180  0.7321
  827MOL0     H11632   7.623   6.735   7.537  0.6109 -0.2256  0.0841
  827MOL0     H11633   7.371   7.100   7.577  2.3436  1.3160 -0.4278
  827MOL0     H11634   7.455   7.115   7.732  0.6310 -2.0112  1.7812
  827MOL0     H11635   7.222   6.915   7.704  1.5316 -1.3952  1.6197
  827MOL0     H11636   7.219   7.076   7.771  0.4556  0.8420  2.3808
  827MOL0     H11637   7.402   6.992   7.932  0.3170 -0.0220 -0.6032
  827MOL0     H11638   7.358   6.838   7.852  0.0651  1.4107 -3.5074
  827MOL0     H11639   7.135   6.851   7.952  0.2542 -1.8975  1.0410
  827MOL0     H11640   7.257   6.871   8.077 -2.8707 -1.9982 -0.4548
  827MOL0     H11641   7.100   7.269   8.062 -1.0502 -0.1188 -2.1450
  827MOL0     H11642   7.600   7.031   7.844 -0.1750  0.0111  0.3130
  827MOL0     H11643   7.937   7.055   7.907 -0.4714  0.8003 -0.0979
  827MOL0     H11644   7.777   7.070   7.983  0.4228 -0.3942 -0.4104
  827MOL0     H11645   7.885   6.931   8.025  1.2022 -2.2034 -1.9560
  828MOL0     O11646   7.795   7.132   9.348 -0.4406  0.3804  0.0988
  828MOL0     C11647   7.730   7.168   9.445 -1.0363  0.0479 -0.5760
  828MOL0     O11648   7.786   7.164   9.571  0.7747  0.7551  1.6446
  828MOL0     C11649   7.909   7.102   9.587  0.7598 -0.4717  0.2894
  828MOL0     C11650   7.908   6.977   9.654  0.1254  0.6676  0.0526
  828MOL0     C11651   8.025   6.901   9.660 -0.1134 -0.4470 -0.2595
  828MOL0     C11652   8.143   6.959   9.608 -0.3547 -0.3263 -0.3373
  828MOL0     O11653   8.260   6.890   9.622 -0.4490  0.4463 -0.2413
  828MOL0     C11654   8.253   6.756   9.568 -0.9700 -0.5710  0.1744
  828MOL0     C11655   8.282   6.763   9.418 -0.5748  0.7116 -0.3876
  828MOL0     C11656   8.416   6.824   9.379 -0.8561 -0.2079  0.1347
  828MOL0     C11657   8.442   6.798   9.225 -0.1192 -0.8105 -0.6218
  828MOL0     C11658   8.582   6.842   9.173  0.7208  0.8419 -0.0259
  828MOL0     C11659   8.604   6.992   9.191  0.4424  0.6466  0.8877
  828MOL0     C11660   8.725   7.024   9.099  0.1070 -0.4097 -0.8568
  828MOL0     C11661   8.770   7.174   9.111 -1.0576 -0.1229  0.3033
  828MOL0     N11662   8.795   7.214   9.249  0.8852 -0.7028 -0.8972
  828MOL0     C11663   8.915   7.195   9.315 -0.0760 -0.2044  0.0844
  828MOL0     C11664   8.909   7.277   9.422  0.3492  0.5728  0.2049
  828MOL0     C11665   9.007   7.293   9.532 -0.0982 -0.6426  0.1396
  828MOL0     C11666   9.118   7.389   9.489  0.3521 -0.3912 -0.5069
  828MOL0     C11667   9.220   7.410   9.600  0.4001 -0.2392  0.7221
  828MOL0     C11668   9.176   7.512   9.712  0.2270 -0.4543  0.0205
  828MOL0     O11669   9.210   7.458   9.842 -0.9870  0.2058  0.5671
  828MOL0     C11670   9.127   7.497   9.942  0.4443  0.2783  0.1146
  828MOL0     C11671   9.001   7.439   9.955  0.0699 -0.6576 -0.3719
  828MOL0     C11672   8.922   7.478  10.070 -1.0455  0.4402  0.2446
  828MOL0     C11673   8.965   7.567  10.170 -0.5545  0.2463  0.2030
  828MOL0     C11674   8.889   7.583  10.291 -0.3951 -0.1392  0.3378
  828MOL0     O11675   8.762   7.523  10.277 -0.0955 -0.2844 -0.3069
  828MOL0     C11676   8.685   7.525  10.389  0.4652 -0.2100 -0.0087
  828MOL0     C11677   8.673   7.410  10.477  0.1250  0.0058  0.2623
  828MOL0     C11678   8.606   7.419  10.596 -0.3740  0.0518  0.4239
  828MOL0     C11679   8.546   7.539  10.637  0.6127  0.5350 -0.3485
  828MOL0     O11680   8.488   7.537  10.762 -0.0598  0.2370  0.6443
  828MOL0     C11681   8.487   7.661  10.841  0.7570  0.1059 -0.2674
  828MOL0     C11682   8.458   7.629  10.985  0.3751 -0.4331 -0.7516
  828MOL0     C11683   8.475   7.740  11.083  0.5075 -1.0930  0.7565
  828MOL0     C11684   8.357   7.842  11.072 -0.4939  0.0715 -0.8526
  828MOL0     C11685   8.377   7.974  11.144  1.2390  0.6174 -0.2851
  828MOL0     C11686   8.349   7.955  11.294 -0.8779  0.2065 -0.7607
  828MOL0     C11687   8.286   8.079  11.369  0.0690 -1.4742  0.0421
  828MOL0     C11688   8.133   8.099  11.345  0.1943  0.0503  0.1453
  828MOL0    Cl11689   8.043   7.979  11.434  0.0061  0.0234 -0.5356
  828MOL0     C11690   8.559   7.652  10.554  0.7124  0.0460 -0.4185
  828MOL0     C11691   8.624   7.647  10.435 -0.3446  0.9770 -0.5372
  828MOL0     O11692   8.934   7.659  10.379 -0.6347 -0.2908 -0.0271
  828MOL0     C11693   9.095   7.630  10.149 -0.3887  0.6605 -0.0774
  828MOL0     C11694   9.169   7.591  10.034 -0.1453 -1.5087  1.2522
  828MOL0     N11695   8.793   7.345   9.424  0.5217 -0.3374  0.5993
  828MOL0     N11696   8.729   7.319   9.312 -0.2086 -0.7751 -0.0431
  828MOL0     C11697   8.141   7.085   9.548  0.3064  0.4126 -1.0726
  828MOL0     C11698   8.019   7.151   9.537  0.1434 -0.5676  0.6474
  828MOL0     C11699   7.594   7.208   9.442  0.4232 -0.5778  0.9969
  828MOL0     C11700   7.533   7.246   9.565  0.1305  0.3181  0.5861
  828MOL0     C11701   7.403   7.293   9.568 -0.3134 -0.0881 -0.0749
  828MOL0     C11702   7.326   7.295   9.451 -0.4111  0.0816  0.1027
  828MOL0     O11703   7.200   7.337   9.471  0.2274  0.2453  0.8378
  828MOL0     C11704   7.121   7.395   9.374  0.5639 -0.5299 -0.7930
  828MOL0     C11705   7.029   7.493   9.443 -0.0363 -0.1760 -0.2290
  828MOL0     C11706   6.916   7.439   9.520 -0.4307  0.1130 -0.1968
  828MOL0     C11707   6.839   7.547   9.590 -0.6975 -0.8622 -0.3686
  828MOL0     C11708   6.726   7.477   9.661  0.1304 -0.1500  0.0819
  828MOL0     C11709   6.623   7.432   9.722 -0.1530 -0.2187  0.1320
  828MOL0     C11710   7.391   7.253   9.323 -0.1226 -0.6257 -0.5713
  828MOL0     C11711   7.527   7.218   9.323 -0.0533 -0.0005  0.9289
  828MOL0     C11712   7.578   7.192   9.184  0.2913  0.0838  0.2453
  828MOL0     H11713   7.820   6.935   9.702 -1.2427  0.0209 -2.8322
  828MOL0     H11714   8.025   6.807   9.713  0.7583  0.4175  1.3766
  828MOL0     H11715   8.343   6.703   9.602  0.5294  0.3948 -1.9932
  828MOL0     H11716   8.160   6.702   9.584  0.7142 -2.7920  3.4826
  828MOL0     H11717   8.204   6.822   9.368  1.5575  0.8778 -3.7579
  828MOL0     H11718   8.280   6.665   9.370 -0.1842 -0.6660  2.2447
  828MOL0     H11719   8.500   6.774   9.427 -2.5084 -1.6172  1.7084
  828MOL0     H11720   8.431   6.930   9.398  3.5356 -0.9376  1.8919
  828MOL0     H11721   8.427   6.691   9.204  1.3412 -1.4377  1.2707
  828MOL0     H11722   8.362   6.850   9.170 -1.8085  1.2406  3.3608
  828MOL0     H11723   8.664   6.786   9.217  1.3034  1.7147  0.0141
  828MOL0     H11724   8.590   6.813   9.068  1.0305  0.9831 -0.0443
  828MOL0     H11725   8.511   7.042   9.164 -0.3556 -1.0531  0.3626
  828MOL0     H11726   8.623   7.015   9.297  1.2964  1.5122  0.5616
  828MOL0     H11727   8.702   6.994   8.997 -2.1420 -0.0317 -0.5032
  828MOL0     H11728   8.813   6.966   9.128  0.4773  0.2429 -0.6292
  828MOL0     H11729   8.871   7.168   9.071 -0.5123  1.2949  1.3859
  828MOL0     H11730   8.704   7.243   9.057  0.1320  3.8476  3.4295
  828MOL0     H11731   8.999   7.133   9.284 -0.2308 -1.1493  1.4757
  828MOL0     H11732   8.953   7.337   9.616  0.1564 -0.8826  0.4316
  828MOL0     H11733   9.049   7.197   9.564 -0.3720  0.7067  5.4739
  828MOL0     H11734   9.161   7.338   9.401  0.3033 -0.0985 -0.6996
  828MOL0     H11735   9.068   7.481   9.459 -4.2119 -2.4610 -0.0328
  828MOL0     H11736   9.312   7.455   9.562 -0.1987  2.5794  2.3654
  828MOL0     H11737   9.247   7.312   9.642  3.3469  0.2633  0.1846
  828MOL0     H11738   9.067   7.524   9.713  0.5260  4.1383  0.7494
  828MOL0     H11739   9.221   7.611   9.700  0.5717 -0.5339  0.6035
  828MOL0     H11740   8.975   7.377   9.870 -1.6140 -0.7089  0.1586
  828MOL0     H11741   8.832   7.418  10.076 -1.1987  0.7912  2.7509
  828MOL0     H11742   8.729   7.323  10.444  0.0562  0.4585 -1.1468
  828MOL0     H11743   8.603   7.340  10.670  1.4634  0.0662  0.5677
  828MOL0     H11744   8.582   7.714  10.844 -0.3483  2.1643  0.4654
  828MOL0     H11745   8.421   7.731  10.789 -0.4188 -3.2589 -3.8915
  828MOL0     H11746   8.360   7.583  10.998 -0.1069  0.6621 -0.3793
  828MOL0     H11747   8.539   7.559  11.010  1.1077  0.3619 -0.8377
  828MOL0     H11748   8.488   7.690  11.179  4.5148 -1.5580  0.1452
  828MOL0     H11749   8.566   7.796  11.060  1.0748 -1.5785  1.7800
  828MOL0     H11750   8.266   7.791  11.106  0.4666 -1.8945 -1.1417
  828MOL0     H11751   8.341   7.867  10.967  1.1678 -1.8775 -1.6127
  828MOL0     H11752   8.308   8.048  11.102  0.9475 -0.2560 -1.4207
  828MOL0     H11753   8.480   8.009  11.129  1.2443  0.6492 -0.1725
  828MOL0     H11754   8.286   7.871  11.322 -0.9307  0.5598  0.2313
  828MOL0     H11755   8.447   7.934  11.339 -0.8194 -3.8549 -2.3847
  828MOL0     H11756   8.329   8.174  11.338  0.3355 -1.1932  1.2021
  828MOL0     H11757   8.300   8.073  11.478  2.4034  0.0946 -0.1054
  828MOL0     H11758   8.096   8.199  11.369  1.3814  0.6016 -0.2726
  828MOL0     H11759   8.105   8.092  11.240  2.7567  2.1610 -0.7676
  828MOL0     H11760   8.512   7.743  10.591  0.0723 -0.4466  0.0208
  828MOL0     H11761   8.639   7.731  10.368  1.9944  0.4005 -0.7998
  828MOL0     H11762   9.136   7.698  10.222 -1.2118 -0.2068  1.2441
  828MOL0     H11763   9.269   7.625  10.009 -0.5232 -1.1557  0.2016
  828MOL0     H11764   8.232   7.139   9.523  1.4681 -0.9704 -0.0856
  828MOL0     H11765   8.013   7.238   9.472 -1.8061 -1.2041 -0.1157
  828MOL0     H11766   7.580   7.231   9.662 -0.0652  2.5852  1.0874
  828MOL0     H11767   7.371   7.337   9.662  1.0057 -2.1364  1.4474
  828MOL0     H11768   7.068   7.312   9.326 -2.2462 -0.5916  2.0648
  828MOL0     H11769   7.173   7.453   9.297  0.1235 -2.1862 -2.3960
  828MOL0     H11770   6.989   7.569   9.375 -1.9991 -1.7927 -0.9698
  828MOL0     H11771   7.098   7.543   9.511  1.2907 -2.1395 -0.0406
  828MOL0     H11772   6.956   7.370   9.595 -1.4950  0.0912  0.3712
  828MOL0     H11773   6.844   7.382   9.459 -2.2569 -0.5147  2.3758
  828MOL0     H11774   6.901   7.601   9.661 -2.3971  0.7421 -0.0183
  828MOL0     H11775   6.799   7.619   9.518  2.2878  0.0481 -1.2673
  828MOL0     H11776   6.534   7.385   9.760 -1.5295  0.0809 -2.5161
  828MOL0     H11777   7.332   7.258   9.231 -0.5523  1.4407 -0.2533
  828MOL0     H11778   7.499   7.206   9.110  0.0464 -0.7128  0.3399
  828MOL0     H11779   7.667   7.254   9.168  1.0624 -1.1317 -0.4006
  828MOL0     H11780   7.600   7.085   9.178  0.5798  0.0197  1.8809
  829MOL0     O11781   4.596   6.598  10.595  0.7493  0.3390 -0.2142
  829MOL0     C11782   4.518   6.617  10.685  0.3825 -0.2063  0.5601
  829MOL0     O11783   4.540   6.614  10.822 -0.2063 -0.0115  0.3849
  829MOL0     C11784   4.659   6.642  10.886  0.5993 -0.5256  0.6490
  829MOL0     C11785   4.656   6.624  11.024 -0.4151  0.3959  1.0442
  829MOL0     C11786   4.765   6.648  11.104 -0.2905 -1.0253  0.1225
  829MOL0     C11787   4.892   6.676  11.051  0.0712  0.2816  0.1368
  829MOL0     O11788   4.991   6.672  11.149 -1.1106  0.1589  0.0223
  829MOL0     C11789   5.119   6.710  11.103 -0.1320  0.5213 -0.7530
  829MOL0     C11790   5.136   6.865  11.109  0.9550  0.9725  0.4376
  829MOL0     C11791   5.287   6.910  11.082 -0.3324 -0.5671  0.1924
  829MOL0     C11792   5.330   7.057  11.102 -1.0674  0.1331  0.5703
  829MOL0     C11793   5.457   7.092  11.031 -0.5912  0.3476 -0.9572
  829MOL0     C11794   5.492   7.233  11.064  0.1858  0.2387 -0.1105
  829MOL0     C11795   5.633   7.269  11.028 -0.3841  0.2463 -0.2378
  829MOL0     C11796   5.749   7.185  11.088  0.0116  0.2694  0.5206
  829MOL0     N11797   5.884   7.245  11.055 -0.1550 -0.1860  0.6740
  829MOL0     C11798   5.982   7.182  10.982 -0.6508  0.5200  0.1949
  829MOL0     C11799   6.080   7.275  10.972  0.7509 -0.4204 -0.4579
  829MOL0     C11800   6.214   7.249  10.919 -0.7570  0.7983 -0.0853
  829MOL0     C11801   6.281   7.383  10.892 -0.9570 -0.1015  0.4534
  829MOL0     C11802   6.425   7.368  10.869 -0.1205 -0.6740  0.6667
  829MOL0     C11803   6.492   7.510  10.857 -0.5804 -0.2715  0.2598
  829MOL0     O11804   6.638   7.496  10.880 -0.5715  0.7247  0.7060
  829MOL0     C11805   6.731   7.484  10.774  0.6472  0.6004 -0.5306
  829MOL0     C11806   6.698   7.465  10.643  0.3378 -0.3639 -0.0074
  829MOL0     C11807   6.794   7.454  10.546  0.3015  0.0319  0.0466
  829MOL0     C11808   6.932   7.476  10.572  0.9247  0.4143 -0.0952
  829MOL0     C11809   7.037   7.460  10.465 -0.9261  0.0222 -0.9721
  829MOL0     O11810   7.167   7.448  10.516 -0.0531  0.1225 -0.8303
  829MOL0     C11811   7.266   7.423  10.440 -0.8332 -0.2961 -0.1309
  829MOL0     C11812   7.369   7.354  10.494  0.0103 -0.3514 -0.2264
  829MOL0     C11813   7.483   7.322  10.412  0.6148  0.0744  0.2420
  829MOL0     C11814   7.508   7.391  10.294 -0.4197  0.4569  0.4621
  829MOL0     O11815   7.621   7.375  10.210 -0.3964  0.0146 -0.1263
  829MOL0     C11816   7.726   7.288  10.248  0.6233 -0.8223  0.2128
  829MOL0     C11817   7.816   7.353  10.354  0.7524 -0.5651 -0.4161
  829MOL0     C11818   7.931   7.263  10.397 -0.3952 -0.7278 -0.9617
  829MOL0     C11819   8.011   7.337  10.497 -0.1341 -1.0072 -0.3211
  829MOL0     C11820   8.130   7.258  10.550 -0.4289 -0.2962 -0.7839
  829MOL0     C11821   8.213   7.197  10.442 -0.2595 -0.2176  0.1109
  829MOL0     C11822   8.345   7.156  10.506  0.1529  1.4752 -0.4918
  829MOL0     C11823   8.434   7.071  10.412 -0.0744 -0.3653 -1.0174
  829MOL0    Cl11824   8.366   6.918  10.350 -0.1946  0.0677 -0.0748
  829MOL0     C11825   7.408   7.480  10.247 -1.4727  0.4463 -0.6842
  829MOL0     C11826   7.285   7.485  10.313  0.3966 -1.2638  0.0790
  829MOL0     O11827   7.005   7.452  10.348  0.6622 -0.3084  0.1325
  829MOL0     C11828   6.969   7.497  10.710 -0.0139  1.1156 -0.1650
  829MOL0     C11829   6.869   7.492  10.812 -1.3169 -0.1816  0.8528
  829MOL0     N11830   6.044   7.384  11.055 -0.9458 -0.4055  0.1018
  829MOL0     N11831   5.932   7.362  11.104  0.3408 -0.2961 -1.0479
  829MOL0     C11832   4.902   6.679  10.914 -0.2646  0.5411  0.6293
  829MOL0     C11833   4.789   6.664  10.829  0.3290 -0.9188  0.0283
  829MOL0     C11834   4.376   6.631  10.659 -0.0124 -0.1770 -0.1202
  829MOL0     C11835   4.283   6.675  10.762 -1.5412 -0.0748 -0.3128
  829MOL0     C11836   4.143   6.680  10.749  0.5864 -0.1478 -0.1371
  829MOL0     C11837   4.081   6.637  10.633  0.1861 -0.4110  0.9263
  829MOL0     O11838   3.945   6.645  10.624 -0.0741  0.3577 -0.1081
  829MOL0     C11839   3.885   6.612  10.503 -0.2333 -0.5386  0.8372
  829MOL0     C11840   3.737   6.639  10.527 -0.4071  0.1967  0.5615
  829MOL0     C11841   3.671   6.516  10.602 -0.4193 -0.1097 -0.1901
  829MOL0     C11842   3.522   6.544  10.623 -0.4504 -0.3750  0.1084
  829MOL0     C11843   3.468   6.446  10.719  0.1085  0.5540  0.2004
  829MOL0     C11844   3.410   6.373  10.797 -0.1978  0.0181  1.0229
  829MOL0     C11845   4.163   6.601  10.529  0.4642  0.5721 -0.2351
  829MOL0     C11846   4.307   6.596  10.537  0.2404 -1.1942  0.8172
  829MOL0     C11847   4.369   6.543  10.406  0.6137  0.0222 -0.5464
  829MOL0     H11848   4.561   6.586  11.060 -0.6420  0.0413  0.1101
  829MOL0     H11849   4.751   6.623  11.209 -1.3180 -2.1210 -0.2525
  829MOL0     H11850   5.181   6.661  11.179  0.0989  1.1730 -0.5049
  829MOL0     H11851   5.154   6.671  11.008  0.6746 -1.6870  0.3845
  829MOL0     H11852   5.110   6.895  11.211 -2.5073  0.2699 -0.1104
  829MOL0     H11853   5.058   6.912  11.048 -1.0681 -1.1761  1.2343
  829MOL0     H11854   5.313   6.887  10.978 -0.3293 -2.9020  0.6534
  829MOL0     H11855   5.353   6.846  11.140 -1.6071 -2.0721  0.0459
  829MOL0     H11856   5.249   7.127  11.077 -3.9267 -2.4773  1.8969
  829MOL0     H11857   5.334   7.079  11.209  2.0357  1.6637  0.2831
  829MOL0     H11858   5.532   7.021  11.067  3.5189  2.6455 -4.1061
  829MOL0     H11859   5.448   7.076  10.923 -1.4948 -3.7789 -0.4325
  829MOL0     H11860   5.423   7.311  11.031  0.6713  1.0601  0.7678
  829MOL0     H11861   5.482   7.237  11.173 -0.2062 -0.1088 -0.1323
  829MOL0     H11862   5.645   7.375  11.053 -1.1942  0.1992  0.3530
  829MOL0     H11863   5.644   7.269  10.919  1.3612  1.4509 -0.1206
  829MOL0     H11864   5.740   7.178  11.197  0.1497 -2.2056  0.4371
  829MOL0     H11865   5.754   7.080  11.058  0.5479  0.6996 -0.9963
  829MOL0     H11866   5.972   7.094  10.919 -0.6184  0.0220  0.8721
  829MOL0     H11867   6.286   7.205  10.989 -1.3351  0.7688  0.5028
  829MOL0     H11868   6.191   7.191  10.830 -0.4955 -1.3655  1.1886
  829MOL0     H11869   6.221   7.441  10.822 -1.2301 -1.8916 -0.8523
  829MOL0     H11870   6.271   7.438  10.986 -1.3772  0.8906 -0.1576
  829MOL0     H11871   6.440   7.314  10.775  2.4136  1.2130 -0.1246
  829MOL0     H11872   6.475   7.315  10.952  0.5258 -1.0893  0.0242
  829MOL0     H11873   6.451   7.588  10.920  1.5534  1.6561 -0.5866
  829MOL0     H11874   6.479   7.555  10.758  1.2743  0.1672  0.1730
  829MOL0     H11875   6.597   7.455  10.604  0.8301 -1.4542 -1.0604
  829MOL0     H11876   6.768   7.422  10.445  1.9714 -1.8440  0.1497
  829MOL0     H11877   7.361   7.321  10.597 -1.5874 -0.2971 -0.3007
  829MOL0     H11878   7.561   7.255  10.447  0.5078 -1.3206 -2.0352
  829MOL0     H11879   7.688   7.189  10.276 -2.0705  0.4403  1.2633
  829MOL0     H11880   7.788   7.263  10.161  1.7806 -0.1738  0.8352
  829MOL0     H11881   7.857   7.447  10.317  1.6906 -0.1297  1.6089
  829MOL0     H11882   7.748   7.368  10.439  1.1825 -0.2032 -0.1352
  829MOL0     H11883   7.882   7.177  10.445  0.2693 -0.9632 -0.6970
  829MOL0     H11884   7.992   7.234  10.312 -0.1941 -0.5654 -0.8708
  829MOL0     H11885   7.947   7.356  10.584  2.0640 -0.9565  1.3598
  829MOL0     H11886   8.044   7.431  10.454 -0.0449 -2.0065 -2.5825
  829MOL0     H11887   8.088   7.185  10.620 -0.2948  2.0451  1.9294
  829MOL0     H11888   8.188   7.322  10.617 -2.2886  1.2021 -0.4959
  829MOL0     H11889   8.160   7.123  10.381  2.2630  0.7046 -3.5791
  829MOL0     H11890   8.236   7.280  10.375  5.6495 -0.0777  1.7425
  829MOL0     H11891   8.335   7.093  10.595 -0.8950 -0.1089 -1.6702
  829MOL0     H11892   8.397   7.248  10.534  2.1141 -0.3692  2.5157
  829MOL0     H11893   8.478   7.125  10.328  1.7684  0.4953  0.4074
  829MOL0     H11894   8.520   7.043  10.474 -0.7388 -0.2818 -0.0387
  829MOL0     H11895   7.435   7.551  10.169 -2.6887  2.7583  0.8638
  829MOL0     H11896   7.207   7.547  10.270  1.7694  0.4476 -0.0560
  829MOL0     H11897   7.074   7.501  10.736  0.1141 -0.5828 -0.2910
  829MOL0     H11898   6.903   7.510  10.914 -2.6506  0.9607  1.1329
  829MOL0     H11899   5.003   6.676  10.875  0.0507  0.6915  1.4217
  829MOL0     H11900   4.809   6.662  10.722  0.5497 -0.5520  0.0593
  829MOL0     H11901   4.318   6.705  10.860 -1.5565  1.1374 -0.6635
  829MOL0     H11902   4.076   6.707  10.831  0.4104 -0.4477 -0.1815
  829MOL0     H11903   3.902   6.509  10.470 -0.5763 -0.3229 -0.0229
  829MOL0     H11904   3.923   6.682  10.429  0.3000  0.2241  1.8013
  829MOL0     H11905   3.696   6.627  10.426  2.4516 -3.1069 -0.4083
  829MOL0     H11906   3.720   6.738  10.571  0.6923 -0.7460  3.3195
  829MOL0     H11907   3.714   6.496  10.701  0.5690 -0.5564 -0.7052
  829MOL0     H11908   3.686   6.423  10.548 -0.5308 -0.9315  1.1467
  829MOL0     H11909   3.500   6.642  10.667  1.9509  0.2468  0.0498
  829MOL0     H11910   3.474   6.536  10.526  4.4930  1.2552 -2.8388
  829MOL0     H11911   3.349   6.315  10.863 -2.2259  0.4805 -0.3273
  829MOL0     H11912   4.116   6.560  10.440  0.0140  3.6238 -1.5331
  829MOL0     H11913   4.296   6.532  10.326  3.4409 -0.3910 -3.2876
  829MOL0     H11914   4.444   6.616  10.371  0.3627  0.8405  0.5773
  829MOL0     H11915   4.423   6.448  10.417  0.7934  0.0110 -1.3843
  830MOL0     O11916   9.827   4.322   7.330  0.1903  0.2534 -0.0778
  830MOL0     C11917   9.812   4.420   7.398 -0.2561  0.1257 -0.2387
  830MOL0     O11918   9.915   4.508   7.444  0.4191 -0.6424  0.9269
  830MOL0     C11919  10.049   4.470   7.434  0.2137  0.2568 -0.4331
  830MOL0     C11920  10.117   4.386   7.340  0.1097 -0.8402  0.2514
  830MOL0     C11921  10.252   4.348   7.353  0.7706 -0.3554 -0.1571
  830MOL0     C11922  10.332   4.404   7.446  0.2195 -0.1240  0.7737
  830MOL0     O11923  10.454   4.369   7.444 -0.4784  0.2344  0.3053
  830MOL0     C11924  10.547   4.468   7.479  0.0203 -0.0449  0.0754
  830MOL0     C11925  10.692   4.415   7.466 -0.4028  0.3336 -0.0370
  830MOL0     C11926  10.781   4.517   7.532 -0.1412 -0.1850 -0.4060
  830MOL0     C11927  10.924   4.466   7.545 -0.4122  0.5350  0.3355
  830MOL0     C11928  11.024   4.560   7.612 -0.3285  0.4282  0.2684
  830MOL0     C11929  11.172   4.547   7.572  0.6868  0.6544  0.6224
  830MOL0     C11930  11.254   4.645   7.649  0.4422  0.3301  0.6609
  830MOL0     C11931  11.391   4.658   7.581 -0.6918  0.6049  0.8929
  830MOL0     N11932  11.494   4.719   7.672 -0.8307 -1.0036 -0.4853
  830MOL0     C11933  11.542   4.660   7.785 -0.6032 -0.0527 -0.1738
  830MOL0     C11934  11.628   4.748   7.836  0.3216 -0.2327 -0.1577
  830MOL0     C11935  11.722   4.722   7.948 -0.8944  0.1546 -0.4840
  830MOL0     C11936  11.759   4.841   8.038  0.1060  0.9652 -0.6669
  830MOL0     C11937  11.860   4.933   7.974 -0.3234 -0.2684  0.2853
  830MOL0     C11938  12.003   4.916   8.020 -0.2851  0.5014  0.5166
  830MOL0     O11939  12.040   4.988   8.137 -0.7033  0.1582 -0.1512
  830MOL0     C11940  12.172   4.962   8.177  0.4239 -0.5538  0.6700
  830MOL0     C11941  12.281   5.044   8.152 -0.4870  0.2439 -0.2011
  830MOL0     C11942  12.406   5.010   8.210 -0.7614  0.0435  0.6369
  830MOL0     C11943  12.428   4.893   8.278  1.2031  0.4499 -0.2590
  830MOL0     C11944  12.561   4.867   8.335  1.0848 -0.3207 -0.8688
  830MOL0     O11945  12.661   4.945   8.288 -0.9221  0.1240  0.4833
  830MOL0     C11946  12.795   4.939   8.332 -0.1048  0.4348  0.4373
  830MOL0     C11947  12.886   5.004   8.250  0.0186 -0.3053  0.0563
  830MOL0     C11948  13.020   5.007   8.292 -0.8898  1.1412 -0.5977
  830MOL0     C11949  13.070   4.955   8.407  0.2739 -0.1576 -0.5046
  830MOL0     O11950  13.207   4.961   8.435  0.3244 -0.4898 -0.0537
  830MOL0     C11951  13.255   4.892   8.553 -0.7624 -0.8990  0.7416
  830MOL0     C11952  13.414   4.879   8.545  0.4216  0.5832  0.1906
  830MOL0     C11953  13.470   4.831   8.675 -0.0354  0.6519  0.0480
  830MOL0     C11954  13.620   4.805   8.671 -0.4134  0.2260 -0.3743
  830MOL0     C11955  13.704   4.933   8.636 -1.2046 -0.3539  0.0937
  830MOL0     C11956  13.848   4.901   8.599 -0.0771  0.0726  0.2100
  830MOL0     C11957  13.922   5.027   8.641 -0.1332 -1.2734  0.2173
  830MOL0     C11958  14.065   5.032   8.591 -0.7606  1.0411 -0.2439
  830MOL0    Cl11959  14.159   4.903   8.664  0.2046 -0.4085  0.7193
  830MOL0     C11960  12.974   4.911   8.493  0.6916 -0.6686  0.2425
  830MOL0     C11961  12.845   4.892   8.454  0.0326 -0.4963 -0.3112
  830MOL0     O11962  12.569   4.779   8.423  0.7309 -0.1679  0.3834
  830MOL0     C11963  12.317   4.805   8.296  0.1308 -0.3770  0.0649
  830MOL0     C11964  12.192   4.842   8.248  0.2310  0.0904  0.6965
  830MOL0     N11965  11.635   4.861   7.740  0.3024  0.9600  0.7901
  830MOL0     N11966  11.557   4.834   7.638 -0.5367  0.9731 -0.2893
  830MOL0     C11967  10.270   4.490   7.535  0.9112 -0.4283 -0.7254
  830MOL0     C11968  10.133   4.512   7.538 -1.0538 -0.3158  0.9100
  830MOL0     C11969   9.670   4.449   7.441 -0.3565 -0.0903 -0.2743
  830MOL0     C11970   9.655   4.548   7.527  0.4029 -1.1454  0.4940
  830MOL0     C11971   9.529   4.582   7.590 -0.9568 -0.6116  0.0059
  830MOL0     C11972   9.419   4.516   7.561 -0.2026 -0.2679 -0.2988
  830MOL0     O11973   9.301   4.559   7.621 -1.0517 -0.1744  0.2828
  830MOL0     C11974   9.176   4.511   7.572 -0.3818  0.4937  0.9739
  830MOL0     C11975   9.135   4.366   7.626 -0.0119 -0.9611 -0.5150
  830MOL0     C11976   9.151   4.362   7.781  0.2425  0.2114 -0.0384
  830MOL0     C11977   9.100   4.223   7.829  0.0287 -0.1800 -0.4453
  830MOL0     C11978   8.957   4.211   7.821 -0.5823  0.4868 -0.5465
  830MOL0     C11979   8.839   4.187   7.827 -0.2968 -0.0854  0.5560
  830MOL0     C11980   9.434   4.409   7.468  0.0029 -0.4142  0.0382
  830MOL0     C11981   9.556   4.376   7.402 -0.3017  0.5118 -0.0691
  830MOL0     C11982   9.552   4.254   7.313 -0.3289 -0.7657 -0.1102
  830MOL0     H11983  10.061   4.356   7.252  2.6610 -1.9775 -1.0724
  830MOL0     H11984  10.290   4.277   7.280 -1.1470 -1.6748  0.0699
  830MOL0     H11985  10.528   4.561   7.425 -1.2880  1.0300  2.2439
  830MOL0     H11986  10.531   4.497   7.584 -2.7556  3.1710 -1.0560
  830MOL0     H11987  10.727   4.381   7.368  1.1754 -2.6198  1.4085
  830MOL0     H11988  10.700   4.322   7.522  1.0706  0.7768  0.5237
  830MOL0     H11989  10.740   4.545   7.630  2.1324 -1.7102  1.0736
  830MOL0     H11990  10.779   4.613   7.479 -1.6481 -0.3255 -0.6711
  830MOL0     H11991  10.928   4.382   7.614 -0.6642  0.7099  0.5640
  830MOL0     H11992  10.966   4.442   7.446  0.7539 -0.4374  1.0396
  830MOL0     H11993  10.993   4.664   7.593  2.3151  1.3922  0.7898
  830MOL0     H11994  11.018   4.552   7.721 -1.2979 -1.0091  0.1352
  830MOL0     H11995  11.200   4.448   7.610 -2.5786 -0.6100  0.0214
  830MOL0     H11996  11.189   4.554   7.464 -2.2970 -0.4415  0.0027
  830MOL0     H11997  11.258   4.611   7.753 -2.2100  0.4603  0.8907
  830MOL0     H11998  11.214   4.746   7.644  2.3024  1.1232  1.1031
  830MOL0     H11999  11.413   4.559   7.539 -0.8130  1.5718 -1.5983
  830MOL0     H12000  11.379   4.728   7.498 -2.4283 -0.6079  0.0466
  830MOL0     H12001  11.528   4.557   7.818 -0.5594  0.1115  0.3735
  830MOL0     H12002  11.665   4.655   8.013  0.0810  0.4552  0.7170
  830MOL0     H12003  11.804   4.666   7.902 -1.6118 -0.1436 -1.4354
  830MOL0     H12004  11.667   4.893   8.066 -0.1286 -0.3533  1.1759
  830MOL0     H12005  11.802   4.805   8.132  2.2217 -0.0961 -1.9692
  830MOL0     H12006  11.824   5.034   7.997  1.7322  0.8880 -1.2157
  830MOL0     H12007  11.854   4.935   7.864  0.1026 -1.6593  0.2251
  830MOL0     H12008  12.060   4.962   7.939 -1.9350 -1.0733 -1.6641
  830MOL0     H12009  12.026   4.809   8.016 -0.3830  0.4950  0.0247
  830MOL0     H12010  12.284   5.132   8.087  2.0307 -2.3725 -4.0773
  830MOL0     H12011  12.487   5.073   8.174 -1.2287 -0.3121 -1.1665
  830MOL0     H12012  12.866   5.053   8.155  2.8329  2.6737  0.8358
  830MOL0     H12013  13.087   5.057   8.223 -1.2957  2.5135 -0.0321
  830MOL0     H12014  13.231   4.952   8.641  0.4113  2.8974 -1.3234
  830MOL0     H12015  13.210   4.792   8.548  0.6174 -1.5248  0.3911
  830MOL0     H12016  13.447   4.812   8.465  1.6788 -0.2518  1.3585
  830MOL0     H12017  13.451   4.977   8.514  1.0789  0.5118  0.7323
  830MOL0     H12018  13.446   4.913   8.743  1.2719 -1.2334  3.0040
  830MOL0     H12019  13.419   4.740   8.707 -0.2315  1.2098  1.4106
  830MOL0     H12020  13.638   4.715   8.611 -2.0994 -1.0536  0.9413
  830MOL0     H12021  13.652   4.762   8.766  1.9848  4.0647  0.7766
  830MOL0     H12022  13.688   5.017   8.705  0.0643 -0.5664  0.6796
  830MOL0     H12023  13.670   4.973   8.540  1.2179  0.3673 -0.5406
  830MOL0     H12024  13.885   4.820   8.661  1.9177  1.2216  0.6005
  830MOL0     H12025  13.850   4.879   8.492 -1.4114  1.2131 -0.0888
  830MOL0     H12026  13.921   5.043   8.749  0.8283  0.2498  0.0340
  830MOL0     H12027  13.877   5.118   8.601  1.4755 -0.1044  0.9363
  830MOL0     H12028  14.065   5.013   8.484  0.4364 -1.1957  0.0943
  830MOL0     H12029  14.123   5.124   8.608 -0.6010  1.1242 -1.1832
  830MOL0     H12030  12.998   4.881   8.594 -0.8078 -2.1731  0.1920
  830MOL0     H12031  12.768   4.842   8.512 -0.3665 -0.3451 -0.7053
  830MOL0     H12032  12.335   4.711   8.346  0.4626 -0.5677 -0.4055
  830MOL0     H12033  12.115   4.771   8.275  0.3229 -0.1978  0.2117
  830MOL0     H12034  10.326   4.521   7.623 -0.3402 -0.2599  0.0377
  830MOL0     H12035  10.098   4.567   7.625  0.5469 -1.7112  2.5275
  830MOL0     H12036   9.734   4.620   7.543 -1.2858  0.7238  0.9460
  830MOL0     H12037   9.520   4.674   7.647  0.1244 -0.7970  0.5009
  830MOL0     H12038   9.181   4.513   7.463  0.2370 -0.0744  0.9862
  830MOL0     H12039   9.102   4.585   7.606 -2.7571 -2.2971  2.2615
  830MOL0     H12040   9.196   4.290   7.578 -0.4140 -0.2731 -2.1934
  830MOL0     H12041   9.037   4.342   7.585 -0.4952  2.6732 -1.8716
  830MOL0     H12042   9.097   4.444   7.830 -0.8622  1.4060 -3.0159
  830MOL0     H12043   9.250   4.381   7.824 -1.3886  2.0378  3.3623
  830MOL0     H12044   9.158   4.142   7.784  0.9733  0.5313 -0.5272
  830MOL0     H12045   9.116   4.209   7.936  0.8236  0.4955 -0.4641
  830MOL0     H12046   8.739   4.148   7.821 -0.0821 -0.5110 -0.4807
  830MOL0     H12047   9.352   4.345   7.436 -0.2449 -0.6998  1.2007
  830MOL0     H12048   9.447   4.227   7.298 -0.1975 -1.5569  0.3319
  830MOL0     H12049   9.567   4.285   7.209 -2.1421  1.7692  0.2788
  830MOL0     H12050   9.610   4.169   7.349  1.1344 -0.8614 -2.4938
  831MOL0     O12051  10.585   9.943   9.749  0.3484  0.2362 -0.0147
  831MOL0     C12052  10.648   9.879   9.829 -0.0488 -0.1970  0.0011
  831MOL0     O12053  10.779   9.864   9.821 -0.5435  0.2358  1.1669
  831MOL0     C12054  10.869   9.937   9.744 -0.1101  0.3424 -1.3107
  831MOL0     C12055  10.993   9.942   9.810 -0.0615 -0.5066  0.4798
  831MOL0     C12056  11.096   9.999   9.738 -0.7316 -0.3759  0.8585
  831MOL0     C12057  11.078  10.050   9.607  0.2721  0.0859  0.4712
  831MOL0     O12058  11.170  10.125   9.538 -0.3986  0.1679 -0.7465
  831MOL0     C12059  11.296  10.062   9.522 -0.4971 -0.6641  0.3507
  831MOL0     C12060  11.365  10.140   9.403 -1.2376  0.5645 -0.4101
  831MOL0     C12061  11.501  10.098   9.425  0.2767  0.1614 -1.1287
  831MOL0     C12062  11.595  10.151   9.314  0.8805 -0.4631 -0.6035
  831MOL0     C12063  11.734  10.085   9.320 -0.6546  0.5280  0.0904
  831MOL0     C12064  11.821  10.114   9.207 -0.5297  0.3889 -0.6572
  831MOL0     C12065  11.968  10.075   9.231 -0.3808  0.1086  0.5794
  831MOL0     C12066  11.998   9.934   9.206  0.6827  0.4430  0.6477
  831MOL0     N12067  12.144   9.910   9.200  0.7086 -0.1162  1.0254
  831MOL0     C12068  12.207   9.886   9.080  0.0149  0.9064  0.2631
  831MOL0     C12069  12.342   9.878   9.107  0.5794  0.4600 -0.3588
  831MOL0     C12070  12.465   9.841   9.026 -1.1246  0.1425 -1.3318
  831MOL0     C12071  12.466   9.701   8.973 -0.6669 -0.9640  0.3267
  831MOL0     C12072  12.475   9.599   9.092 -0.0441  0.4252 -0.0093
  831MOL0     C12073  12.548   9.467   9.055 -0.5532 -0.0155  0.1624
  831MOL0     O12074  12.689   9.493   9.060  0.9934 -0.3723 -0.1631
  831MOL0     C12075  12.768   9.411   8.974 -0.2223  0.9390 -0.4951
  831MOL0     C12076  12.906   9.429   8.987  0.0823 -1.3973  0.3965
  831MOL0     C12077  13.003   9.387   8.902  0.1707 -0.1099  0.9366
  831MOL0     C12078  12.973   9.296   8.800  0.2329 -0.3356  0.3536
  831MOL0     C12079  13.075   9.279   8.695  0.6256  0.1429  0.5874
  831MOL0     O12080  13.174   9.365   8.672  0.9172 -0.0994 -0.8657
  831MOL0     C12081  13.275   9.336   8.590 -0.6714 -0.3596 -0.6183
  831MOL0     C12082  13.395   9.402   8.629  0.4037  0.3214 -0.7997
  831MOL0     C12083  13.501   9.400   8.535  0.3252  0.7411  0.1795
  831MOL0     C12084  13.494   9.334   8.407 -0.1931  0.8180 -0.3305
  831MOL0     O12085  13.603   9.328   8.323  0.3179  0.1393  0.6555
  831MOL0     C12086  13.727   9.399   8.345 -0.0042 -0.9980 -0.0328
  831MOL0     C12087  13.763   9.466   8.213  0.5697 -0.6467 -0.0409
  831MOL0     C12088  13.909   9.534   8.211 -0.2299 -0.0245  0.6739
  831MOL0     C12089  13.951   9.610   8.089  0.2302 -0.5113  0.3738
  831MOL0     C12090  13.870   9.741   8.074  0.0751  0.3119  0.1691
  831MOL0     C12091  13.869   9.789   7.932 -0.0875 -0.3260  0.8812
  831MOL0     C12092  14.006   9.817   7.872 -0.0897  0.2068 -0.4287
  831MOL0     C12093  14.079   9.932   7.949  0.2058  0.1816  0.5173
  831MOL0    Cl12094  14.210   9.997   7.837 -0.0479  0.1201  0.2762
  831MOL0     C12095  13.370   9.290   8.365  0.1085  0.0967  0.9407
  831MOL0     C12096  13.266   9.275   8.461 -0.4228  0.2997  1.0003
  831MOL0     O12097  13.053   9.179   8.631  0.2445 -0.3245 -0.4323
  831MOL0     C12098  12.836   9.250   8.787 -0.1710  0.2970  0.3259
  831MOL0     C12099  12.732   9.316   8.866 -0.6023  1.0924 -0.0965
  831MOL0     N12100  12.355   9.920   9.238  0.1693 -0.0425  0.6795
  831MOL0     N12101  12.241   9.944   9.294  0.6094  0.2842  1.0148
  831MOL0     C12102  10.950  10.049   9.545 -0.4232  0.0108 -0.3105
  831MOL0     C12103  10.851   9.986   9.614  0.1740 -0.1916 -0.8870
  831MOL0     C12104  10.560   9.828   9.939  0.1077 -0.0186  0.8385
  831MOL0     C12105  10.438   9.882   9.953  0.0550 -1.1623  0.0516
  831MOL0     C12106  10.346   9.830  10.046  0.0614 -0.4318  0.5949
  831MOL0     C12107  10.387   9.726  10.130 -0.6403 -0.1988 -0.5878
  831MOL0     O12108  10.300   9.661  10.208 -0.4889  0.2092 -1.0586
  831MOL0     C12109  10.162   9.672  10.166 -0.2876 -0.0458  0.3304
  831MOL0     C12110  10.090   9.539  10.205  0.1978  0.2638  0.1488
  831MOL0     C12111  10.140   9.476  10.337 -0.0733  0.7024  0.3983
  831MOL0     C12112  10.086   9.337  10.380  0.5571 -0.1727  0.6860
  831MOL0     C12113  10.144   9.312  10.512  0.7215  0.1389  0.2723
  831MOL0     C12114  10.212   9.302  10.617 -0.2406  0.1383 -0.7561
  831MOL0     C12115  10.511   9.660  10.114  0.7208  0.3050 -0.1927
  831MOL0     C12116  10.598   9.717  10.019  0.3804  0.6683  0.9765
  831MOL0     C12117  10.732   9.637  10.016  0.3011  0.7333 -0.3732
  831MOL0     H12118  10.998   9.893   9.907 -2.7746 -0.2593  0.8247
  831MOL0     H12119  11.192  10.010   9.786  0.2537  1.0781 -1.2635
  831MOL0     H12120  11.351  10.064   9.616 -0.7399 -2.4169  0.5688
  831MOL0     H12121  11.279   9.958   9.494  1.0569 -1.1151  1.0072
  831MOL0     H12122  11.353  10.249   9.403 -0.1266  0.7270 -1.9287
  831MOL0     H12123  11.330  10.100   9.307 -1.7374 -3.0624  1.1019
  831MOL0     H12124  11.509   9.989   9.423 -0.5115 -0.2117  3.8987
  831MOL0     H12125  11.528  10.132   9.526 -3.5753  3.2769 -0.9061
  831MOL0     H12126  11.557  10.139   9.212  1.1957 -0.8455 -0.6781
  831MOL0     H12127  11.604  10.260   9.315 -1.9269 -0.1527  0.1141
  831MOL0     H12128  11.782  10.110   9.415 -1.2212  0.6306  0.3565
  831MOL0     H12129  11.723   9.976   9.317 -1.7506  0.6317 -2.0758
  831MOL0     H12130  11.787  10.061   9.118 -1.9480  3.0476 -1.7866
  831MOL0     H12131  11.814  10.223   9.201 -0.3585  0.3499 -1.6021
  831MOL0     H12132  12.001  10.102   9.332  1.5180  2.6592 -0.6060
  831MOL0     H12133  12.033  10.141   9.173 -0.8273  0.7641  0.8221
  831MOL0     H12134  11.947   9.885   9.290 -1.3286 -2.1624 -1.9048
  831MOL0     H12135  11.948   9.903   9.114  0.0348 -1.2094  1.5201
  831MOL0     H12136  12.161   9.855   8.987  1.7248 -1.0819 -0.0021
  831MOL0     H12137  12.466   9.908   8.939  0.2973 -0.6370 -1.9493
  831MOL0     H12138  12.548   9.865   9.093 -1.7654  0.9077 -0.7922
  831MOL0     H12139  12.373   9.685   8.917 -0.0235  1.1198 -1.4733
  831MOL0     H12140  12.555   9.692   8.910 -0.8243  1.5094 -0.3418
  831MOL0     H12141  12.381   9.573   9.142  1.8165  1.4618  4.5832
  831MOL0     H12142  12.544   9.649   9.160  0.0648  2.7640 -1.7141
  831MOL0     H12143  12.513   9.408   8.970  3.0368 -1.2846 -0.6249
  831MOL0     H12144  12.530   9.403   9.143  0.2254 -0.5156 -0.0235
  831MOL0     H12145  12.933   9.501   9.064  0.2327  0.2095 -1.0890
  831MOL0     H12146  13.103   9.423   8.927  0.4264 -1.1651  1.5097
  831MOL0     H12147  13.406   9.457   8.722 -0.9294 -1.7571  0.6896
  831MOL0     H12148  13.599   9.430   8.572  1.1376  0.5419 -1.6829
  831MOL0     H12149  13.733   9.466   8.430  3.1194 -0.2488 -0.7034
  831MOL0     H12150  13.806   9.326   8.366  0.6701 -0.9296 -2.0923
  831MOL0     H12151  13.770   9.388   8.136  1.4883 -0.9643  0.3455
  831MOL0     H12152  13.681   9.535   8.190 -0.7595 -2.5389 -1.2906
  831MOL0     H12153  13.912   9.610   8.290  1.5098  1.0938 -0.4016
  831MOL0     H12154  13.986   9.459   8.232 -0.9045 -1.4098 -1.5304
  831MOL0     H12155  13.948   9.546   8.000 -0.5967  2.0285 -1.5508
  831MOL0     H12156  14.058   9.631   8.097  0.5143 -1.5008 -0.5392
  831MOL0     H12157  13.918   9.814   8.139  1.2867 -0.0397 -0.3150
  831MOL0     H12158  13.763   9.737   8.099  0.0260  0.5416 -0.0099
  831MOL0     H12159  13.814   9.720   7.868 -0.5834 -1.2662  2.2795
  831MOL0     H12160  13.806   9.878   7.937 -1.0560 -0.9050 -0.3911
  831MOL0     H12161  13.989   9.854   7.770 -1.1017 -0.2122 -0.4152
  831MOL0     H12162  14.074   9.731   7.877  0.2107  0.5063  3.5183
  831MOL0     H12163  14.003  10.005   7.979 -1.8362 -1.5161 -0.2349
  831MOL0     H12164  14.122   9.886   8.039  2.8986  0.7518 -0.3946
  831MOL0     H12165  13.361   9.259   8.262  0.9377  1.0515  0.5611
  831MOL0     H12166  13.167   9.241   8.433  0.2252 -1.7349  0.9695
  831MOL0     H12167  12.811   9.171   8.717  1.6222 -2.5709  2.6910
  831MOL0     H12168  12.630   9.280   8.850 -0.9156  1.7901  0.2816
  831MOL0     H12169  10.943  10.084   9.443 -0.6753  3.1200  0.6581
  831MOL0     H12170  10.752   9.972   9.572  0.4829  0.1485 -1.7513
  831MOL0     H12171  10.401   9.966   9.897  1.5735 -1.5803 -1.6771
  831MOL0     H12172  10.254   9.886  10.060  0.5682  0.6210 -0.1989
  831MOL0     H12173  10.142   9.693  10.061 -1.8983  0.9650  0.7921
  831MOL0     H12174  10.114   9.754  10.221  0.6050  0.6058  0.1399
  831MOL0     H12175  10.108   9.470  10.123 -0.5656 -2.7357  2.3264
  831MOL0     H12176   9.981   9.550  10.208  0.2347  0.8839 -0.3832
  831MOL0     H12177  10.150   9.556  10.411  4.3242  1.4767 -0.7564
  831MOL0     H12178  10.243   9.442  10.322 -0.5829 -1.8946  2.1344
  831MOL0     H12179   9.978   9.343  10.391  0.7695  1.5897  2.7051
  831MOL0     H12180  10.113   9.259  10.308  3.7656  0.8979  0.5406
  831MOL0     H12181  10.276   9.282  10.700  1.7936  0.0790 -2.2521
  831MOL0     H12182  10.543   9.572  10.169 -1.9966  0.1307  1.3072
  831MOL0     H12183  10.817   9.699  10.045  1.7794 -2.2879  2.4277
  831MOL0     H12184  10.744   9.543  10.071  1.8236  1.1441  0.0229
  831MOL0     H12185  10.760   9.601   9.916  0.4642 -2.0247  0.5755
  832MOL0     O12186  10.134   6.443   3.166  0.1725 -0.5349  0.5888
  832MOL0     C12187  10.048   6.359   3.136  0.3752 -0.0784  0.3171
  832MOL0     O12188  10.069   6.227   3.142 -0.1125 -0.4903 -0.9248
  832MOL0     C12189  10.195   6.176   3.116 -0.0354 -0.1511 -0.3426
  832MOL0     C12190  10.204   6.072   3.024 -0.8622  0.6201  0.4326
  832MOL0     C12191  10.319   5.991   3.008  1.4494  0.3675 -0.0333
  832MOL0     C12192  10.428   6.006   3.094 -0.4436  0.4888 -0.5581
  832MOL0     O12193  10.547   5.936   3.089  0.4828  0.1237  0.6104
  832MOL0     C12194  10.581   5.876   2.957 -0.4361 -0.3436 -0.2520
  832MOL0     C12195  10.710   5.785   2.970  0.5598 -0.0988 -0.2847
  832MOL0     C12196  10.834   5.871   3.009  0.7157  0.0144 -0.3875
  832MOL0     C12197  10.948   5.778   3.056  0.4232  0.2086 -0.1426
  832MOL0     C12198  11.057   5.870   3.115 -0.3136 -0.0573 -0.8319
  832MOL0     C12199  11.171   5.795   3.184  0.3078 -0.2387  0.3839
  832MOL0     C12200  11.298   5.877   3.212  0.3200 -0.6784 -0.3232
  832MOL0     C12201  11.400   5.782   3.269 -0.4654  0.3868  0.9776
  832MOL0     N12202  11.432   5.662   3.177  0.0593 -0.0210  0.1970
  832MOL0     C12203  11.379   5.534   3.189  0.4263 -0.0166  0.0693
  832MOL0     C12204  11.456   5.472   3.093  0.0945  1.3714 -0.6671
  832MOL0     C12205  11.450   5.316   3.073  0.2468 -0.0471 -0.3112
  832MOL0     C12206  11.588   5.250   3.086 -0.3077  0.1553  0.8141
  832MOL0     C12207  11.566   5.105   3.070  0.3462 -0.0550  0.2679
  832MOL0     C12208  11.694   5.030   3.089 -0.4628  0.3203  0.5556
  832MOL0     O12209  11.781   5.067   2.974 -0.3721 -0.6568  0.3831
  832MOL0     C12210  11.919   5.051   2.989  0.3884  0.3675 -0.3341
  832MOL0     C12211  11.969   4.946   3.073  0.2737  0.7329 -0.0137
  832MOL0     C12212  12.105   4.922   3.096 -0.0575  0.3388 -0.2280
  832MOL0     C12213  12.199   5.010   3.040 -0.2226  0.5028 -0.7790
  832MOL0     C12214  12.341   4.986   3.048  0.0791 -0.3999 -0.1193
  832MOL0     O12215  12.431   5.072   2.984  0.4776  0.5795  0.3016
  832MOL0     C12216  12.568   5.052   2.999  0.1587 -0.2296  0.0647
  832MOL0     C12217  12.668   5.019   2.909  0.9356 -0.3303 -0.0646
  832MOL0     C12218  12.804   5.016   2.933 -0.8929 -0.3279 -0.0502
  832MOL0     C12219  12.846   5.044   3.067  0.1297 -1.0504  0.1525
  832MOL0     O12220  12.985   5.037   3.098 -0.2844 -0.3103 -0.0176
  832MOL0     C12221  13.051   4.910   3.076 -0.5329 -0.3171 -0.9081
  832MOL0     C12222  13.197   4.944   3.027  0.2732 -0.8575  0.2440
  832MOL0     C12223  13.276   4.984   3.151  0.1796  0.4921  0.8980
  832MOL0     C12224  13.431   4.985   3.114 -0.9212 -0.0423 -0.3473
  832MOL0     C12225  13.523   5.007   3.241  0.7540  0.7865 -0.3143
  832MOL0     C12226  13.495   5.135   3.309  0.3126 -0.1323 -0.1528
  832MOL0     C12227  13.596   5.172   3.416 -0.6435 -0.5371  0.3949
  832MOL0     C12228  13.565   5.311   3.466  0.1719 -0.3581  0.5400
  832MOL0    Cl12229  13.685   5.363   3.597  0.7017 -0.1463  0.3846
  832MOL0     C12230  12.750   5.093   3.161  0.2100 -0.7865  0.9443
  832MOL0     C12231  12.612   5.096   3.123 -0.2782 -0.2024 -0.7560
  832MOL0     O12232  12.370   4.889   3.118 -0.0875  0.8871  0.4561
  832MOL0     C12233  12.150   5.120   2.961 -0.3220  0.3017 -0.2494
  832MOL0     C12234  12.010   5.130   2.937  0.6322 -0.7009  0.0463
  832MOL0     N12235  11.539   5.550   3.020  0.2213 -0.2170 -0.6137
  832MOL0     N12236  11.520   5.672   3.068  0.5445  0.4994  0.0295
  832MOL0     C12237  10.420   6.109   3.193  0.5890  0.1854  0.3205
  832MOL0     C12238  10.300   6.186   3.213 -0.1446  0.3441 -0.3611
  832MOL0     C12239   9.921   6.409   3.091 -0.4225 -0.7733  0.4409
  832MOL0     C12240   9.882   6.361   2.959 -0.4719 -0.7818 -0.9046
  832MOL0     C12241   9.775   6.420   2.896 -0.5155  0.8427 -0.1510
  832MOL0     C12242   9.699   6.519   2.968  1.6079  0.7443  0.2976
  832MOL0     O12243   9.582   6.576   2.929 -0.2753  0.0310  0.0608
  832MOL0     C12244   9.504   6.508   2.823  0.6509  0.3425 -0.9822
  832MOL0     C12245   9.380   6.593   2.796 -0.2651  0.0382  0.7646
  832MOL0     C12246   9.284   6.588   2.919  0.0672  0.3258 -0.7151
  832MOL0     C12247   9.145   6.633   2.880 -0.2901  0.2522  0.2935
  832MOL0     C12248   9.046   6.641   2.986 -1.1049  0.6139  0.1824
  832MOL0     C12249   8.964   6.678   3.070  0.4988  0.8038 -0.6070
  832MOL0     C12250   9.728   6.552   3.096  0.2533  0.1216 -0.7993
  832MOL0     C12251   9.837   6.500   3.161  0.4001  0.8136 -0.1567
  832MOL0     C12252   9.868   6.565   3.301  0.7639  0.0986 -0.4258
  832MOL0     H12253  10.133   6.070   2.943 -0.5617  1.5728  0.1334
  832MOL0     H12254  10.316   5.919   2.927 -1.1106  0.7218 -0.3301
  832MOL0     H12255  10.493   5.819   2.928 -3.2122  1.8155  3.0795
  832MOL0     H12256  10.608   5.966   2.900 -1.2912  0.5628  0.7212
  832MOL0     H12257  10.724   5.725   2.879 -0.6262  1.1489 -1.3451
  832MOL0     H12258  10.692   5.710   3.047 -2.2704 -1.0745 -1.7489
  832MOL0     H12259  10.819   5.949   3.084  0.9248  0.3035 -0.6467
  832MOL0     H12260  10.864   5.915   2.914 -2.2043  0.6806 -1.1137
  832MOL0     H12261  10.909   5.713   3.135  3.1687 -1.6846 -0.2141
  832MOL0     H12262  10.988   5.713   2.977 -0.1662  0.5793 -0.7627
  832MOL0     H12263  11.114   5.930   3.044  1.9714 -1.0330  0.0522
  832MOL0     H12264  11.002   5.933   3.186 -0.9393 -2.3363  0.8571
  832MOL0     H12265  11.137   5.753   3.279 -0.0364 -1.3757 -0.2215
  832MOL0     H12266  11.200   5.714   3.117 -0.6528  0.3786 -0.8152
  832MOL0     H12267  11.272   5.954   3.286 -1.4261 -1.7304  0.2049
  832MOL0     H12268  11.326   5.920   3.115 -0.5972  2.5890  0.7274
  832MOL0     H12269  11.486   5.851   3.270 -0.5778  0.5285  1.4229
  832MOL0     H12270  11.377   5.755   3.373 -0.5048 -2.9596  0.2062
  832MOL0     H12271  11.312   5.499   3.267  1.9195 -2.0358  0.5113
  832MOL0     H12272  11.369   5.280   3.137  0.1238  1.1025  0.1977
  832MOL0     H12273  11.411   5.303   2.971  0.1200  1.7490 -0.5266
  832MOL0     H12274  11.655   5.295   3.011  0.4984 -1.4176  0.5441
  832MOL0     H12275  11.630   5.261   3.186  1.8695  0.2491 -0.0559
  832MOL0     H12276  11.535   5.078   2.968 -2.3988  2.7390  0.2128
  832MOL0     H12277  11.494   5.064   3.141  0.0049  0.4696  0.2350
  832MOL0     H12278  11.672   4.923   3.079 -2.2640  0.6965  0.3069
  832MOL0     H12279  11.738   5.059   3.185 -0.5104 -2.3759  1.4912
  832MOL0     H12280  11.894   4.878   3.110 -0.8997  2.0406  0.0870
  832MOL0     H12281  12.128   4.836   3.158  0.4601  1.2730  0.9114
  832MOL0     H12282  12.614   5.000   2.817 -1.9763  1.3579  1.1671
  832MOL0     H12283  12.881   4.989   2.860  0.4779  1.8932  0.4658
  832MOL0     H12284  13.049   4.852   3.169  1.8871  1.8530  0.6325
  832MOL0     H12285  13.012   4.845   2.997 -1.0955 -0.3403 -0.6187
  832MOL0     H12286  13.243   4.862   2.972  0.7724  0.7092 -1.8068
  832MOL0     H12287  13.198   5.027   2.955  1.3739 -1.4016 -0.3961
  832MOL0     H12288  13.234   5.080   3.185 -0.0269 -0.0945  2.3491
  832MOL0     H12289  13.263   4.909   3.229  0.3780 -1.1610 -0.6021
  832MOL0     H12290  13.453   5.055   3.033 -2.1476  1.1162  0.2751
  832MOL0     H12291  13.460   4.888   3.073  1.6961  0.2239  0.6401
  832MOL0     H12292  13.630   5.007   3.221  1.1607  1.3163  1.6134
  832MOL0     H12293  13.497   4.924   3.308 -2.6428  1.9813  0.0722
  832MOL0     H12294  13.484   5.206   3.227 -1.9809  0.4595  0.5786
  832MOL0     H12295  13.395   5.132   3.355  2.0214 -2.2530  3.8708
  832MOL0     H12296  13.699   5.175   3.379 -0.1386 -0.5560  1.7102
  832MOL0     H12297  13.593   5.106   3.504 -1.9272  0.5259  1.1961
  832MOL0     H12298  13.567   5.370   3.374 -2.4496  0.7330  1.0998
  832MOL0     H12299  13.462   5.323   3.499 -0.4578 -0.2323 -1.3484
  832MOL0     H12300  12.798   5.137   3.248 -0.1296  1.4611  0.0746
  832MOL0     H12301  12.542   5.130   3.198  0.6888  2.3145 -0.9040
  832MOL0     H12302  12.225   5.173   2.904  1.2093 -2.2354 -0.7340
  832MOL0     H12303  11.975   5.206   2.868 -0.0515 -2.6951 -1.9198
  832MOL0     H12304  10.499   6.121   3.267  0.2595 -0.3656  0.7720
  832MOL0     H12305  10.276   6.251   3.296 -1.1257  0.3604 -0.6399
  832MOL0     H12306   9.956   6.296   2.913 -0.0606 -1.2813  0.4238
  832MOL0     H12307   9.764   6.397   2.791 -0.1923 -1.4049  0.2523
  832MOL0     H12308   9.472   6.413   2.868  0.5028  0.3550 -1.0607
  832MOL0     H12309   9.561   6.505   2.730  1.2508 -1.5863 -0.6077
  832MOL0     H12310   9.338   6.551   2.704  0.9336  3.1687 -1.4087
  832MOL0     H12311   9.413   6.697   2.782  1.4534 -0.2945  2.0546
  832MOL0     H12312   9.322   6.645   3.004 -1.7632 -3.2840  2.9178
  832MOL0     H12313   9.266   6.485   2.952 -0.4774  0.6701  0.1081
  832MOL0     H12314   9.167   6.731   2.838  0.0684  0.3384  0.6791
  832MOL0     H12315   9.125   6.559   2.802  3.7015  0.4302 -1.1472
  832MOL0     H12316   8.893   6.704   3.145  1.6134  1.7016  0.1808
  832MOL0     H12317   9.650   6.606   3.149 -1.4382 -1.7933 -1.2300
  832MOL0     H12318   9.770   6.576   3.350  0.4201 -3.8289  0.0587
  832MOL0     H12319   9.920   6.502   3.373 -2.5840  3.0425  5.3380
  832MOL0     H12320   9.926   6.655   3.277  1.3802 -0.3095 -0.4713
  833MOL0     O12321  10.330   2.052   1.599  0.8968  0.2080 -0.1638
  833MOL0     C12322  10.236   2.021   1.674  0.4853 -0.5794  0.1386
  833MOL0     O12323  10.245   2.000   1.802  0.1968 -1.1536 -0.1344
  833MOL0     C12324  10.370   2.028   1.858  0.7745 -0.4321  0.4181
  833MOL0     C12325  10.394   2.155   1.894 -0.4635  0.4435 -0.1703
  833MOL0     C12326  10.524   2.187   1.954 -0.0488  0.2764 -0.0671
  833MOL0     C12327  10.609   2.082   1.981  0.5806  0.3913  1.3662
  833MOL0     O12328  10.723   2.104   2.045 -0.7353 -0.4871 -0.3365
  833MOL0     C12329  10.787   2.236   2.048 -0.1232  0.6505 -0.6280
  833MOL0     C12330  10.939   2.215   2.070 -0.2928  0.6256  0.0118
  833MOL0     C12331  11.033   2.328   2.034 -0.8903  0.4650  0.6380
  833MOL0     C12332  11.166   2.285   1.980 -0.2377  0.2403 -0.4253
  833MOL0     C12333  11.261   2.406   1.954 -0.0619  0.3936  0.8546
  833MOL0     C12334  11.402   2.356   1.919  0.4237  0.0849 -0.3375
  833MOL0     C12335  11.499   2.473   1.931 -0.9399 -0.2119  0.4845
  833MOL0     C12336  11.615   2.440   1.841  0.3179 -0.4119  0.5126
  833MOL0     N12337  11.698   2.333   1.907 -0.4727  0.6089  0.5961
  833MOL0     C12338  11.761   2.356   2.022  0.3675  1.2398 -0.5043
  833MOL0     C12339  11.862   2.266   2.037 -0.0280  0.1932  0.0508
  833MOL0     C12340  11.975   2.257   2.141  0.4090 -1.2146 -0.0603
  833MOL0     C12341  12.108   2.212   2.079 -0.2825  0.1641  0.4906
  833MOL0     C12342  12.117   2.062   2.053 -0.6156  0.1788  0.5410
  833MOL0     C12343  12.260   2.015   2.041 -1.2427  0.2405  0.0862
  833MOL0     O12344  12.316   2.000   2.170  0.3999 -0.2737 -0.4817
  833MOL0     C12345  12.449   2.006   2.184 -0.4991  0.8430 -0.5405
  833MOL0     C12346  12.536   2.034   2.075 -0.2085 -0.0508 -0.4752
  833MOL0     C12347  12.674   2.023   2.097  0.1596  0.1979  0.0288
  833MOL0     C12348  12.731   1.978   2.218 -0.0699 -0.6690  0.1307
  833MOL0     C12349  12.883   1.984   2.234 -0.1474  0.1653  0.4562
  833MOL0     O12350  12.955   2.057   2.136  0.7370  0.3796  0.2935
  833MOL0     C12351  13.085   2.062   2.138 -0.6794 -0.4843 -0.2522
  833MOL0     C12352  13.149   2.171   2.075  0.0274 -0.0324 -0.5432
  833MOL0     C12353  13.292   2.188   2.065 -0.5560 -0.4588  0.5834
  833MOL0     C12354  13.374   2.087   2.119 -0.2747 -0.0498 -0.3116
  833MOL0     O12355  13.510   2.080   2.111 -0.3075 -0.1151 -0.0881
  833MOL0     C12356  13.577   2.193   2.049  0.3859  0.7158 -0.0704
  833MOL0     C12357  13.730   2.175   2.041 -0.3846  0.0454 -0.3084
  833MOL0     C12358  13.774   2.066   1.942 -0.3089 -0.9205  0.4332
  833MOL0     C12359  13.928   2.073   1.929 -0.0468  0.1654 -0.1575
  833MOL0     C12360  13.986   1.956   1.853  0.5035 -0.2066  0.2488
  833MOL0     C12361  14.136   1.966   1.851  0.6161 -0.6977  0.0976
  833MOL0     C12362  14.207   1.909   1.977 -0.2846 -0.2865  0.5611
  833MOL0     C12363  14.348   1.878   1.948 -0.5901  0.2269 -0.3846
  833MOL0    Cl12364  14.447   1.868   2.087  0.4608 -0.4642 -0.4135
  833MOL0     C12365  13.311   1.978   2.178  0.8541 -0.1097  0.9681
  833MOL0     C12366  13.172   1.971   2.194 -0.0145  0.4499  0.1324
  833MOL0     O12367  12.928   1.947   2.344  0.3478 -0.2302  0.8305
  833MOL0     C12368  12.646   1.958   2.326 -0.0634 -0.3476  0.4859
  833MOL0     C12369  12.506   1.968   2.303  0.9510 -0.1408 -1.1513
  833MOL0     N12370  11.858   2.183   1.925 -0.4293 -0.1458 -0.0173
  833MOL0     N12371  11.753   2.219   1.854  0.1367  0.4500  0.3116
  833MOL0     C12372  10.577   1.947   1.951  0.0382 -0.3246  0.5215
  833MOL0     C12373  10.453   1.929   1.901  0.5681  0.7971 -0.2245
  833MOL0     C12374  10.095   2.000   1.622 -0.5982  0.3383 -0.1006
  833MOL0     C12375   9.991   2.008   1.717  0.1402 -0.5872  0.8153
  833MOL0     C12376   9.861   1.994   1.670  0.1257  0.0849 -0.7034
  833MOL0     C12377   9.828   1.991   1.542  0.1166 -0.6152  0.1533
  833MOL0     O12378   9.703   1.990   1.489 -0.5578 -0.1258 -0.2927
  833MOL0     C12379   9.596   2.062   1.548  0.8981  0.1061 -0.2507
  833MOL0     C12380   9.516   2.145   1.442  0.8354 -0.1235 -0.3923
  833MOL0     C12381   9.446   2.054   1.340  0.6481 -0.9269 -0.4529
  833MOL0     C12382   9.469   2.107   1.201  0.0413  0.0856 -0.8091
  833MOL0     C12383   9.407   2.031   1.101  0.7797  0.3222  0.5350
  833MOL0     C12384   9.346   1.971   1.013  0.5947  0.2300  0.1415
  833MOL0     C12385   9.929   1.984   1.444 -0.3938  0.5770  0.3724
  833MOL0     C12386  10.059   1.989   1.484 -0.6395  0.0882 -0.1991
  833MOL0     C12387  10.161   1.975   1.363 -0.3507 -0.5420 -0.2604
  833MOL0     H12388  10.322   2.235   1.877 -0.8103  0.2012  0.1484
  833MOL0     H12389  10.529   2.289   1.989  2.1392  0.5766 -1.0861
  833MOL0     H12390  10.780   2.285   1.950 -3.0169  0.0008 -0.8483
  833MOL0     H12391  10.743   2.297   2.127  0.0480  1.5459 -1.2046
  833MOL0     H12392  10.956   2.126   2.009 -0.0679  0.5938  0.1224
  833MOL0     H12393  10.967   2.193   2.173  4.3690 -1.1326 -1.3843
  833MOL0     H12394  11.047   2.400   2.115  1.1111  0.4517  0.3625
  833MOL0     H12395  10.993   2.393   1.956  1.5751  1.1365 -0.1727
  833MOL0     H12396  11.213   2.212   2.046  1.2929 -0.0250 -1.7528
  833MOL0     H12397  11.157   2.227   1.887 -0.1100 -1.9100  0.8354
  833MOL0     H12398  11.218   2.451   1.864  1.5409  0.7710  0.2270
  833MOL0     H12399  11.266   2.470   2.042 -0.9541  1.2061  0.3241
  833MOL0     H12400  11.435   2.278   1.988  1.7520 -1.0723 -2.1970
  833MOL0     H12401  11.398   2.311   1.820 -0.1161 -2.2642  0.6959
  833MOL0     H12402  11.523   2.498   2.035 -1.1010 -0.3191  0.5474
  833MOL0     H12403  11.448   2.560   1.888 -3.3179 -1.9175 -0.3318
  833MOL0     H12404  11.583   2.405   1.742  0.7795  0.4332  0.0480
  833MOL0     H12405  11.668   2.535   1.825 -1.4773  0.1380 -3.3081
  833MOL0     H12406  11.727   2.429   2.094 -0.3107 -2.0170  2.7646
  833MOL0     H12407  11.983   2.351   2.195 -1.6274 -1.3105  0.4770
  833MOL0     H12408  11.955   2.182   2.218  0.5351 -1.0362  0.1455
  833MOL0     H12409  12.122   2.260   1.981 -0.8536  0.4741  0.5570
  833MOL0     H12410  12.188   2.243   2.147 -1.6647  1.5363  1.5395
  833MOL0     H12411  12.067   2.046   1.957 -1.1024 -0.7134  0.9256
  833MOL0     H12412  12.053   2.000   2.117 -0.2415  1.2344  1.9891
  833MOL0     H12413  12.312   2.080   1.970 -0.1978  0.2356  0.8260
  833MOL0     H12414  12.265   1.915   1.995 -3.6240  1.0103 -2.1073
  833MOL0     H12415  12.506   2.067   1.976  0.1397  0.5673 -0.3839
  833MOL0     H12416  12.736   2.037   2.009  0.6594 -0.7839  0.2144
  833MOL0     H12417  13.089   2.258   2.051 -0.5781 -0.1510  0.4966
  833MOL0     H12418  13.336   2.265   2.004  2.5032 -1.4092  1.4158
  833MOL0     H12419  13.535   2.216   1.951  1.1083  2.0368 -0.1042
  833MOL0     H12420  13.567   2.287   2.106 -0.9350  0.2214  0.5420
  833MOL0     H12421  13.773   2.274   2.023  3.7046 -1.0883  1.9979
  833MOL0     H12422  13.761   2.132   2.136 -0.1426 -1.5153 -1.0682
  833MOL0     H12423  13.741   1.967   1.972 -0.1946 -0.3295  2.6866
  833MOL0     H12424  13.727   2.095   1.847 -1.2760 -1.2438  0.8028
  833MOL0     H12425  13.973   2.069   2.029  3.8924 -0.4698 -1.7561
  833MOL0     H12426  13.950   2.169   1.883 -2.2496  1.2405  0.8976
  833MOL0     H12427  13.951   1.950   1.750  2.4831 -4.2798 -0.4205
  833MOL0     H12428  13.960   1.860   1.898 -1.4842  0.7513  1.2177
  833MOL0     H12429  14.178   1.916   1.762  2.0628  2.9901 -1.5035
  833MOL0     H12430  14.158   2.073   1.841  2.6489 -1.0439  0.4367
  833MOL0     H12431  14.159   1.825   2.028  1.5022 -0.0417  2.7995
  833MOL0     H12432  14.200   1.992   2.047 -0.7358 -1.1347  1.5615
  833MOL0     H12433  14.349   1.781   1.896  1.8436  0.7788 -1.5072
  833MOL0     H12434  14.383   1.952   1.875 -2.7988  1.3860 -0.3482
  833MOL0     H12435  13.372   1.892   2.202 -1.6680 -1.8207  1.6977
  833MOL0     H12436  13.132   1.877   2.231  2.9272 -0.1429  2.1208
  833MOL0     H12437  12.685   1.934   2.425 -2.1422 -1.7536  1.0269
  833MOL0     H12438  12.433   1.958   2.382 -0.2078  2.4740 -1.7903
  833MOL0     H12439  10.641   1.860   1.964 -1.4097 -2.0813 -2.9767
  833MOL0     H12440  10.434   1.825   1.878  2.4003  0.4494 -0.3028
  833MOL0     H12441  10.014   2.014   1.823 -1.5850  1.4122  1.1369
  833MOL0     H12442   9.778   1.978   1.738  0.0511 -1.8070 -1.2036
  833MOL0     H12443   9.640   2.138   1.612  1.4166 -1.4206  1.2820
  833MOL0     H12444   9.528   1.997   1.604 -4.7674  1.2369 -4.8087
  833MOL0     H12445   9.569   2.234   1.405  2.0857 -0.5974  0.2076
  833MOL0     H12446   9.446   2.192   1.512  1.4874  0.0042  0.1892
  833MOL0     H12447   9.339   2.056   1.361  0.8202 -0.1861  0.4187
  833MOL0     H12448   9.484   1.951   1.346 -0.0549 -1.2266 -0.9581
  833MOL0     H12449   9.429   2.208   1.185  0.3955  0.3349 -0.1683
  833MOL0     H12450   9.577   2.116   1.186  0.4454  0.5756  1.7613
  833MOL0     H12451   9.294   1.903   0.948 -1.2711 -0.5725  2.3224
  833MOL0     H12452   9.902   1.955   1.343 -1.8143 -0.8421  1.1030
  833MOL0     H12453  10.162   1.876   1.318 -0.5382 -0.3094 -0.7928
  833MOL0     H12454  10.112   2.043   1.292 -1.3557  0.1961  1.0989
  833MOL0     H12455  10.262   2.014   1.377 -0.0224 -1.8145  1.0401
  834MOL0     O12456   8.216   2.167   0.407 -0.4197  0.0034 -0.6001
  834MOL0     C12457   8.185   2.151   0.524 -0.5865 -0.4857 -0.0074
  834MOL0     O12458   8.257   2.085   0.622 -0.3889  0.1598 -0.2300
  834MOL0     C12459   8.363   2.010   0.574  0.2739  0.8691  0.5524
  834MOL0     C12460   8.354   1.923   0.469 -1.1781 -0.2503 -0.2258
  834MOL0     C12461   8.464   1.844   0.422  0.5480  1.0034  0.4746
  834MOL0     C12462   8.588   1.849   0.482  0.1972  0.0163 -0.2279
  834MOL0     O12463   8.704   1.783   0.459  0.3524 -0.5189 -0.2132
  834MOL0     C12464   8.717   1.685   0.356  0.3839  0.1107  0.7898
  834MOL0     C12465   8.638   1.556   0.389 -0.5373  0.0779 -1.2395
  834MOL0     C12466   8.609   1.474   0.268 -0.3888 -0.4932  1.3872
  834MOL0     C12467   8.536   1.343   0.305 -0.3469  0.4419  0.3132
  834MOL0     C12468   8.513   1.249   0.183  0.3827 -0.3584  0.7759
  834MOL0     C12469   8.412   1.305   0.086 -0.3402  0.4108  0.4845
  834MOL0     C12470   8.296   1.217   0.045 -0.2624 -0.3689 -0.1352
  834MOL0     C12471   8.179   1.289  -0.017 -0.5825 -0.2457  0.0397
  834MOL0     N12472   8.200   1.337  -0.151 -0.9281 -0.5041 -0.5219
  834MOL0     C12473   8.276   1.274  -0.248 -0.6467 -0.6523 -0.4372
  834MOL0     C12474   8.283   1.368  -0.345 -0.4117  0.5902  0.5539
  834MOL0     C12475   8.370   1.353  -0.474  0.5938  0.4285  0.0818
  834MOL0     C12476   8.299   1.387  -0.607  0.9530 -0.5965 -0.6949
  834MOL0     C12477   8.381   1.340  -0.732 -0.0613  0.1162 -0.5397
  834MOL0     C12478   8.321   1.417  -0.849  0.2935 -0.8077  0.8778
  834MOL0     O12479   8.366   1.355  -0.976 -0.0503  0.2719 -1.1892
  834MOL0     C12480   8.490   1.369  -1.016 -0.0697  0.1097  0.2394
  834MOL0     C12481   8.588   1.456  -0.971 -1.5077 -0.8234  0.4131
  834MOL0     C12482   8.725   1.450  -1.014 -0.3602 -0.0507  0.0113
  834MOL0     C12483   8.759   1.365  -1.116  0.6607  0.3885  0.2351
  834MOL0     C12484   8.890   1.352  -1.164 -0.5270 -0.3433 -0.4196
  834MOL0     O12485   8.990   1.430  -1.099 -0.6262  0.7307  0.0366
  834MOL0     C12486   9.108   1.462  -1.160  0.6710  0.6704  0.7548
  834MOL0     C12487   9.103   1.524  -1.295 -0.6683  0.7965 -0.1967
  834MOL0     C12488   9.223   1.548  -1.363  0.2640 -0.7918 -0.2561
  834MOL0     C12489   9.346   1.553  -1.289  0.1806  0.3156  0.1989
  834MOL0     O12490   9.454   1.616  -1.344  0.3517  0.2881  0.0473
  834MOL0     C12491   9.478   1.622  -1.487  0.8510 -0.1629  0.0620
  834MOL0     C12492   9.599   1.698  -1.519 -0.2860 -0.6171 -0.7819
  834MOL0     C12493   9.721   1.634  -1.454 -0.5768 -0.0466 -0.5272
  834MOL0     C12494   9.856   1.685  -1.512 -0.0272 -0.0826  0.1323
  834MOL0     C12495   9.978   1.597  -1.465 -0.0738 -0.6002  0.1940
  834MOL0     C12496  10.108   1.636  -1.525  0.4417 -0.8217 -0.3854
  834MOL0     C12497  10.217   1.594  -1.436 -0.8988  0.2641 -1.7552
  834MOL0     C12498  10.355   1.612  -1.498 -0.2470 -0.8534  0.3039
  834MOL0    Cl12499  10.372   1.761  -1.588 -0.0777  0.1520  0.4684
  834MOL0     C12500   9.347   1.503  -1.150  0.4765  0.0835 -0.0018
  834MOL0     C12501   9.225   1.450  -1.093 -0.0259 -0.9937  0.1671
  834MOL0     O12502   8.904   1.272  -1.252  0.1478  0.1608  1.0065
  834MOL0     C12503   8.666   1.283  -1.161  0.0275 -0.0346 -0.4600
  834MOL0     C12504   8.531   1.280  -1.123  0.7506 -0.3363 -0.3817
  834MOL0     N12505   8.229   1.489  -0.311  0.5312  0.2388 -0.5090
  834MOL0     N12506   8.166   1.464  -0.197 -0.2857  0.3766  0.1328
  834MOL0     C12507   8.590   1.943   0.593  0.1904  0.3377  0.6044
  834MOL0     C12508   8.487   2.025   0.632  0.0679  0.2748  0.1307
  834MOL0     C12509   8.054   2.185   0.564  0.4350 -1.1123  0.1605
  834MOL0     C12510   8.022   2.183   0.704 -0.1679 -0.0116 -0.2045
  834MOL0     C12511   7.892   2.204   0.749 -0.3993  0.2583 -0.8340
  834MOL0     C12512   7.785   2.236   0.664  0.3936 -0.1657 -0.5248
  834MOL0     O12513   7.656   2.263   0.702  0.2626  0.4794  0.0226
  834MOL0     C12514   7.556   2.168   0.669  0.1921  0.1274 -1.0536
  834MOL0     C12515   7.452   2.248   0.602  0.7619  0.4198 -0.4297
  834MOL0     C12516   7.324   2.171   0.575 -0.2815  0.1467 -1.3410
  834MOL0     C12517   7.197   2.259   0.558 -0.1614  0.0402  0.5354
  834MOL0     C12518   7.150   2.302   0.689 -0.3681  0.1501  0.0790
  834MOL0     C12519   7.120   2.334   0.795 -0.5489 -0.7946 -1.1967
  834MOL0     C12520   7.819   2.252   0.529  0.2441  0.5277 -0.3075
  834MOL0     C12521   7.947   2.228   0.477  0.2293  0.0093 -0.6592
  834MOL0     C12522   7.972   2.245   0.330  0.3423  0.0451 -0.0138
  834MOL0     H12523   8.264   1.895   0.415 -0.8382  0.7790 -1.3656
  834MOL0     H12524   8.447   1.771   0.344 -1.3218  0.4336  1.3501
  834MOL0     H12525   8.682   1.726   0.260 -1.6459 -0.6242  1.1504
  834MOL0     H12526   8.820   1.659   0.330 -0.6940 -4.0238 -0.1473
  834MOL0     H12527   8.552   1.579   0.453  1.9794 -2.7881  3.7858
  834MOL0     H12528   8.702   1.501   0.459 -0.7837  0.1894 -0.9259
  834MOL0     H12529   8.701   1.454   0.211 -0.5206  0.2338  0.8984
  834MOL0     H12530   8.556   1.538   0.197  2.0633 -0.7676 -0.8712
  834MOL0     H12531   8.592   1.280   0.375 -0.9215 -1.0695 -0.5338
  834MOL0     H12532   8.439   1.359   0.353 -0.0896 -0.9715  1.3792
  834MOL0     H12533   8.606   1.236   0.128 -0.0150  0.0784 -0.0291
  834MOL0     H12534   8.472   1.157   0.225 -1.9230 -0.4210 -1.3816
  834MOL0     H12535   8.366   1.396   0.124 -4.0319 -0.4577 -1.3710
  834MOL0     H12536   8.468   1.340  -0.001 -0.4212  0.0322  0.2770
  834MOL0     H12537   8.246   1.170   0.131  0.9926 -2.0471 -0.2609
  834MOL0     H12538   8.332   1.135  -0.018 -1.9279  0.3633 -2.1369
  834MOL0     H12539   8.097   1.217  -0.027 -1.0300 -0.1215  2.3687
  834MOL0     H12540   8.148   1.369   0.050  0.7915  0.1072  0.2764
  834MOL0     H12541   8.330   1.180  -0.242  0.3973 -0.2044 -2.1561
  834MOL0     H12542   8.446   1.430  -0.456 -0.9253  2.0499 -0.2417
  834MOL0     H12543   8.407   1.250  -0.481 -0.3012 -0.0633  1.9930
  834MOL0     H12544   8.196   1.352  -0.620 -0.3034  2.4802  0.0768
  834MOL0     H12545   8.291   1.496  -0.615  2.3594 -0.3444  0.8249
  834MOL0     H12546   8.360   1.234  -0.742 -1.3637  0.2879  0.2020
  834MOL0     H12547   8.488   1.362  -0.732 -0.4447  2.3876  1.1295
  834MOL0     H12548   8.341   1.524  -0.848 -0.3091 -0.6269 -1.3684
  834MOL0     H12549   8.212   1.403  -0.850 -0.2832  2.8145 -0.0413
  834MOL0     H12550   8.547   1.530  -0.903 -1.9427 -2.1994  1.7067
  834MOL0     H12551   8.796   1.522  -0.976 -0.3998  2.2627 -3.7847
  834MOL0     H12552   9.009   1.545  -1.345 -0.5030  0.8753 -0.4737
  834MOL0     H12553   9.212   1.578  -1.467 -2.4173 -1.8999 -0.3774
  834MOL0     H12554   9.489   1.523  -1.531 -1.8592 -0.0014 -1.1855
  834MOL0     H12555   9.390   1.665  -1.534 -0.2678 -1.7384  0.6327
  834MOL0     H12556   9.614   1.696  -1.628  1.8972  0.0512 -0.5408
  834MOL0     H12557   9.585   1.799  -1.481  3.8368 -0.9183  2.1642
  834MOL0     H12558   9.703   1.662  -1.350 -0.1897 -1.0199 -0.1878
  834MOL0     H12559   9.722   1.525  -1.455 -2.4393 -0.1486  1.4210
  834MOL0     H12560   9.866   1.790  -1.480 -0.3839 -0.5319  1.8182
  834MOL0     H12561   9.853   1.677  -1.621  1.8818 -1.0115  0.1056
  834MOL0     H12562   9.961   1.491  -1.486  0.3406 -1.3543  3.1729
  834MOL0     H12563   9.979   1.604  -1.356  1.8097  0.0276  0.1606
  834MOL0     H12564  10.115   1.595  -1.626 -1.9477  1.4074 -1.5519
  834MOL0     H12565  10.108   1.745  -1.517 -1.4777 -0.8945  1.9458
  834MOL0     H12566  10.215   1.489  -1.408 -0.0730  0.9707  1.3665
  834MOL0     H12567  10.210   1.656  -1.346 -0.9341 -0.3434 -1.3332
  834MOL0     H12568  10.426   1.620  -1.416 -0.9520 -1.5763  1.0083
  834MOL0     H12569  10.389   1.530  -1.562  1.9420  0.6496 -0.5619
  834MOL0     H12570   9.436   1.519  -1.091 -0.5649  3.2560  0.9215
  834MOL0     H12571   9.226   1.395  -0.999 -2.8069  0.2475  1.0077
  834MOL0     H12572   8.675   1.209  -1.239 -1.6726 -1.0749  0.2703
  834MOL0     H12573   8.472   1.201  -1.168  0.1441  0.2332 -0.6073
  834MOL0     H12574   8.682   1.956   0.649  0.3839  1.2302  0.1003
  834MOL0     H12575   8.501   2.103   0.707  1.3738 -0.1011  0.3111
  834MOL0     H12576   8.092   2.156   0.782 -0.1247  0.4853 -0.0688
  834MOL0     H12577   7.875   2.195   0.856 -1.7034 -4.4022 -1.1870
  834MOL0     H12578   7.531   2.109   0.758 -0.1160  0.1094 -1.1515
  834MOL0     H12579   7.600   2.100   0.595 -0.6032 -0.6424 -0.8285
  834MOL0     H12580   7.487   2.286   0.505 -0.5081  2.0755 -0.2949
  834MOL0     H12581   7.419   2.336   0.659  0.3434  0.7474 -1.1596
  834MOL0     H12582   7.296   2.098   0.651  1.3911  1.9065  1.1412
  834MOL0     H12583   7.337   2.109   0.486 -0.8878 -3.6288  1.0157
  834MOL0     H12584   7.220   2.346   0.495 -0.7309 -0.4833 -0.4102
  834MOL0     H12585   7.122   2.206   0.499  0.5894 -1.0065  0.4927
  834MOL0     H12586   7.075   2.368   0.886  0.4454 -1.6567 -0.3514
  834MOL0     H12587   7.737   2.267   0.460 -1.5161  1.6257  1.8884
  834MOL0     H12588   8.052   2.319   0.326 -0.5721  1.4134  3.2181
  834MOL0     H12589   8.008   2.153   0.284  2.2140  1.0919 -0.7455
  834MOL0     H12590   7.879   2.272   0.278 -1.2911  0.5481  2.9202
  835MOL0     O12591   0.159  10.249   9.965 -0.5024 -0.3030  0.0079
  835MOL0     C12592   0.150  10.358  10.017 -0.2774 -0.4230 -0.3229
  835MOL0     O12593   0.251  10.453  10.026 -0.2574 -0.0824  0.3216
  835MOL0     C12594   0.381  10.405  10.007  0.4811  0.1762  0.2141
  835MOL0     C12595   0.434  10.296  10.079 -0.5628  0.5672 -0.1937
  835MOL0     C12596   0.568  10.261  10.045 -0.2436 -0.9514  0.7968
  835MOL0     C12597   0.642  10.330   9.951  1.0685 -0.2272 -0.1623
  835MOL0     O12598   0.772  10.311   9.916 -0.2373  0.7862  0.1767
  835MOL0     C12599   0.845  10.207   9.983  0.0252 -0.1021 -0.8339
  835MOL0     C12600   0.988  10.208   9.946  0.2638  0.5851  0.2464
  835MOL0     C12601   1.021  10.118   9.820  0.1246  0.4851 -1.0145
  835MOL0     C12602   1.163  10.132   9.783  0.1531  0.5833  0.1689
  835MOL0     C12603   1.201  10.082   9.645 -0.6772  1.2221 -0.1843
  835MOL0     C12604   1.193   9.923   9.651 -0.7345  1.2223  0.1092
  835MOL0     C12605   1.261   9.870   9.529  0.2284  0.4982 -0.4589
  835MOL0     C12606   1.257   9.712   9.486  0.4893  0.1384 -1.3594
  835MOL0     N12607   1.132   9.627   9.504 -0.5154  0.1183  0.5628
  835MOL0     C12608   1.005   9.668   9.468 -0.3663 -0.3569 -0.4530
  835MOL0     C12609   0.938   9.549   9.442  0.3205 -0.9383 -0.2181
  835MOL0     C12610   0.800   9.546   9.384 -0.1436 -0.5128  0.5921
  835MOL0     C12611   0.700   9.622   9.479  0.8692 -0.2983  0.1370
  835MOL0     C12612   0.560   9.616   9.425 -0.1801  0.2588 -0.0789
  835MOL0     C12613   0.458   9.681   9.514  0.6464 -0.2269 -0.3303
  835MOL0     O12614   0.445   9.625   9.647  0.3904 -0.4281 -0.2480
  835MOL0     C12615   0.331   9.637   9.720  0.3283 -0.0207 -0.2739
  835MOL0     C12616   0.225   9.728   9.682 -0.0037  0.2241  0.0920
  835MOL0     C12617   0.101   9.740   9.753 -0.3835  0.3995 -0.9484
  835MOL0     C12618   0.089   9.668   9.869  0.0352 -0.6733  0.0308
  835MOL0     C12619  -0.031   9.678   9.951 -0.1123  0.3826 -0.0654
  835MOL0     O12620  -0.041   9.590  10.061 -0.9089 -0.1855 -0.4480
  835MOL0     C12621  -0.158   9.581  10.131  0.2070  0.1962 -0.5849
  835MOL0     C12622  -0.247   9.482  10.106  0.2862 -0.2855  0.9100
  835MOL0     C12623  -0.347   9.451  10.199  0.1246  0.5581 -0.1346
  835MOL0     C12624  -0.378   9.536  10.305  0.0370  0.1139 -0.3599
  835MOL0     O12625  -0.486   9.516  10.388 -0.4269 -0.0783 -0.4328
  835MOL0     C12626  -0.576   9.628  10.423  0.1540  0.6748 -0.7204
  835MOL0     C12627  -0.690   9.573  10.503 -0.1758  0.2035  0.5253
  835MOL0     C12628  -0.788   9.681  10.520  0.3239 -0.3985 -0.0103
  835MOL0     C12629  -0.903   9.639  10.611  1.0138 -0.3866 -0.3106
  835MOL0     C12630  -1.014   9.752  10.620 -0.6171 -1.4454  0.8471
  835MOL0     C12631  -1.119   9.727  10.733 -0.0646  0.3691  0.6106
  835MOL0     C12632  -1.210   9.848  10.748 -0.3572  0.2176 -0.1017
  835MOL0     C12633  -1.291   9.825  10.872  0.2492  0.4898  0.1427
  835MOL0    Cl12634  -1.438   9.726  10.846 -0.1982 -0.4832 -0.1626
  835MOL0     C12635  -0.294   9.643  10.325  0.7912 -0.2997  0.2328
  835MOL0     C12636  -0.183   9.656  10.244 -0.1912 -0.1800 -0.5493
  835MOL0     O12637  -0.119   9.752   9.910 -0.1571  0.0476 -0.2161
  835MOL0     C12638   0.188   9.588   9.914 -0.9169  0.6726  0.3246
  835MOL0     C12639   0.309   9.578   9.842  0.4754  0.7939 -0.8665
  835MOL0     N12640   1.025   9.443   9.461  0.2407 -0.0764  0.6123
  835MOL0     N12641   1.141   9.491   9.495 -0.4328  0.7086  1.1410
  835MOL0     C12642   0.591  10.441   9.887 -0.9688  0.6934  0.3611
  835MOL0     C12643   0.464  10.481   9.917 -0.1305 -0.5067 -0.8699
  835MOL0     C12644   0.009  10.406  10.053  0.1932 -0.0335 -0.7188
  835MOL0     C12645  -0.100  10.336   9.990  0.2883  0.5877 -1.1414
  835MOL0     C12646  -0.228  10.366  10.022 -1.2116 -0.3111 -0.4266
  835MOL0     C12647  -0.258  10.456  10.132  0.1956 -0.1320  0.1122
  835MOL0     O12648  -0.388  10.498  10.156 -0.2513  0.2792  0.1565
  835MOL0     C12649  -0.423  10.561  10.286  0.2866  0.0053  0.4100
  835MOL0     C12650  -0.565  10.528  10.320 -0.7034  0.5434  0.6218
  835MOL0     C12651  -0.597  10.610  10.445 -0.4498 -0.0096 -0.1519
  835MOL0     C12652  -0.728  10.597  10.520 -0.2809  0.4014 -0.5868
  835MOL0     C12653  -0.747  10.457  10.562  0.7845  0.0095  0.6271
  835MOL0     C12654  -0.774  10.344  10.595 -0.1400  0.1785  0.7538
  835MOL0     C12655  -0.149  10.514  10.197  0.1138  0.0617 -0.5647
  835MOL0     C12656  -0.020  10.498  10.154  0.1656 -0.6142 -0.0712
  835MOL0     C12657   0.084  10.579  10.220 -0.3773 -0.5644  0.2933
  835MOL0     H12658   0.375  10.232  10.145 -2.4075  1.0497 -1.2935
  835MOL0     H12659   0.615  10.186  10.108  0.8606 -0.4768  0.5798
  835MOL0     H12660   0.842  10.233  10.089 -0.4998 -2.2567 -0.2909
  835MOL0     H12661   0.807  10.108   9.958 -2.6062  0.6341 -0.1414
  835MOL0     H12662   1.040  10.164  10.032 -2.2749 -0.4667  1.3230
  835MOL0     H12663   1.013  10.312   9.923 -1.6937  0.9530 -0.3823
  835MOL0     H12664   0.952  10.161   9.747 -2.7255 -0.1281  1.1537
  835MOL0     H12665   0.981  10.017   9.834 -4.2332  1.9768 -1.2157
  835MOL0     H12666   1.201  10.235   9.790  0.5039  0.3602  2.1284
  835MOL0     H12667   1.206  10.068   9.860 -2.5814 -0.4252  0.9797
  835MOL0     H12668   1.132  10.122   9.569  0.4317  2.5038 -0.5589
  835MOL0     H12669   1.298  10.125   9.619  1.1814 -2.3481  0.2205
  835MOL0     H12670   1.243   9.876   9.737  1.1427  0.0875 -1.5103
  835MOL0     H12671   1.090   9.886   9.651 -0.7438  1.2429  0.3490
  835MOL0     H12672   1.368   9.892   9.536  0.7855 -2.0668  0.2135
  835MOL0     H12673   1.221   9.926   9.444  0.9950  0.6709 -0.7153
  835MOL0     H12674   1.270   9.712   9.378  1.1893  0.7458 -1.2887
  835MOL0     H12675   1.337   9.657   9.537 -2.5557 -3.0816  0.4190
  835MOL0     H12676   0.979   9.772   9.449 -0.0934 -0.7074 -3.1779
  835MOL0     H12677   0.802   9.584   9.281  1.3956 -0.1346  0.7399
  835MOL0     H12678   0.767   9.442   9.386  2.2593 -1.3464  2.8354
  835MOL0     H12679   0.696   9.567   9.574  0.8426  1.9687  1.5407
  835MOL0     H12680   0.723   9.726   9.502  0.0744  0.1341 -0.9265
  835MOL0     H12681   0.526   9.512   9.417 -0.0886  0.2588 -0.5004
  835MOL0     H12682   0.557   9.669   9.329 -0.4657 -0.3285 -0.3997
  835MOL0     H12683   0.365   9.675   9.456  1.5417 -0.9598 -1.7255
  835MOL0     H12684   0.484   9.787   9.526  1.4721 -0.5061  0.3838
  835MOL0     H12685   0.227   9.801   9.601  1.0588 -0.1355 -0.2260
  835MOL0     H12686   0.031   9.817   9.724  1.0596  2.4948  0.8023
  835MOL0     H12687  -0.239   9.419  10.018  0.3830 -0.9702  1.4032
  835MOL0     H12688  -0.408   9.366  10.171  1.5602 -0.2313 -0.9800
  835MOL0     H12689  -0.517   9.704  10.474  2.1979  0.9942 -3.3574
  835MOL0     H12690  -0.619   9.676  10.334 -0.5536  0.5467 -0.4553
  835MOL0     H12691  -0.732   9.482  10.459  1.2682 -1.0960  1.6915
  835MOL0     H12692  -0.651   9.545  10.601  0.2666  0.8171  0.5274
  835MOL0     H12693  -0.738   9.761  10.574  2.2933 -1.0137 -0.8272
  835MOL0     H12694  -0.814   9.730  10.426  2.3569 -2.7154 -1.9368
  835MOL0     H12695  -0.858   9.619  10.709 -0.1527 -0.0147  0.3201
  835MOL0     H12696  -0.954   9.547  10.579  1.0750 -0.4443 -0.2413
  835MOL0     H12697  -1.070   9.756  10.526 -0.7123 -0.4591  0.9380
  835MOL0     H12698  -0.970   9.850  10.641  0.9307 -2.3848  2.2243
  835MOL0     H12699  -1.189   9.645  10.714 -0.2816  0.5614  0.5716
  835MOL0     H12700  -1.072   9.695  10.826  0.6054 -0.3600  0.0366
  835MOL0     H12701  -1.264   9.859  10.654  1.1743  0.0427 -1.0341
  835MOL0     H12702  -1.140   9.928  10.777 -2.1199  1.9123 -0.2943
  835MOL0     H12703  -1.240   9.790  10.962  0.8040 -1.2592 -0.8152
  835MOL0     H12704  -1.326   9.926  10.895  0.3623  1.7287 -4.1732
  835MOL0     H12705  -0.307   9.711  10.409  1.6990  0.9452 -0.5985
  835MOL0     H12706  -0.103   9.724  10.270  0.3330  0.1748 -2.8533
  835MOL0     H12707   0.180   9.534  10.008  1.3531 -1.1830 -0.4384
  835MOL0     H12708   0.396   9.521   9.876 -0.8653  0.0114  1.4603
  835MOL0     H12709   0.655  10.493   9.817 -2.5343 -0.1426 -1.8369
  835MOL0     H12710   0.414  10.560   9.863 -0.5227  0.9883  1.4978
  835MOL0     H12711  -0.076  10.277   9.902  0.5657 -0.1663 -0.5696
  835MOL0     H12712  -0.309  10.313   9.973 -1.7027 -1.8394  1.9076
  835MOL0     H12713  -0.409  10.669  10.274  0.6956  0.0292  1.0180
  835MOL0     H12714  -0.363  10.521  10.369 -4.6561 -2.1855  3.4108
  835MOL0     H12715  -0.577  10.419  10.331  0.0187  0.4425  0.4091
  835MOL0     H12716  -0.624  10.572  10.239 -1.0104  0.8079  0.9905
  835MOL0     H12717  -0.587  10.712  10.404  1.0033 -0.2171 -0.3658
  835MOL0     H12718  -0.518  10.601  10.520  0.3092 -0.2713 -0.9563
  835MOL0     H12719  -0.736  10.654  10.612  1.4673 -2.4205  1.4740
  835MOL0     H12720  -0.806  10.627  10.448  2.0859  3.0147 -2.2743
  835MOL0     H12721  -0.794  10.240  10.611 -2.1384  0.5877  1.1771
  835MOL0     H12722  -0.178  10.598  10.259 -1.8703 -0.5836 -0.5299
  835MOL0     H12723   0.048  10.646  10.298  0.9951 -0.4158  0.8320
  835MOL0     H12724   0.160  10.520  10.271  1.3888  1.9878  0.8358
  835MOL0     H12725   0.134  10.639  10.143 -2.2923  0.2317 -0.3834
  836MOL0     O12726   0.427   9.939   0.974 -0.4355  0.1179  0.0816
  836MOL0     C12727   0.386   9.824   0.978 -0.3832 -0.1584  0.4056
  836MOL0     O12728   0.465   9.720   0.977 -0.7201  0.6207 -0.3491
  836MOL0     C12729   0.597   9.726   0.933 -0.2227 -0.4522 -0.1162
  836MOL0     C12730   0.703   9.664   1.008  0.2878  0.3221  0.8531
  836MOL0     C12731   0.831   9.675   0.958 -0.3630  0.0187 -0.1007
  836MOL0     C12732   0.862   9.735   0.829 -0.0554 -0.2262 -0.1341
  836MOL0     O12733   0.991   9.734   0.796  0.9505  0.7328 -0.2017
  836MOL0     C12734   1.035   9.812   0.685  0.3270  0.0906 -0.2080
  836MOL0     C12735   1.184   9.851   0.703 -0.3816  0.2956 -0.1495
  836MOL0     C12736   1.225   9.906   0.566  0.1070 -0.0875  0.0446
  836MOL0     C12737   1.356   9.991   0.596 -0.2439 -0.1761 -0.5247
  836MOL0     C12738   1.431  10.046   0.478 -0.8800 -0.4390 -0.4067
  836MOL0     C12739   1.556  10.132   0.513  0.6928  0.8854  0.8775
  836MOL0     C12740   1.632  10.171   0.395 -0.2609  0.4234  0.5118
  836MOL0     C12741   1.653  10.318   0.370 -0.2167 -0.7894 -0.0727
  836MOL0     N12742   1.673  10.403   0.494 -0.1973 -0.4897  0.0216
  836MOL0     C12743   1.749  10.357   0.608  0.7074  0.0928 -0.7033
  836MOL0     C12744   1.734  10.448   0.699 -0.2876 -0.6799  0.2534
  836MOL0     C12745   1.784  10.442   0.839  0.2315  0.0059  0.8644
  836MOL0     C12746   1.938  10.435   0.847 -0.1725 -0.8360 -0.0421
  836MOL0     C12747   1.980  10.485   0.981 -0.0806  0.4335 -0.8413
  836MOL0     C12748   2.134  10.478   0.981  0.0975 -0.0728  0.4073
  836MOL0     O12749   2.191  10.344   0.986  0.7296 -0.2998 -0.1991
  836MOL0     C12750   2.323  10.328   1.032 -0.8291 -0.0325 -0.4773
  836MOL0     C12751   2.422  10.432   1.030 -0.5692 -0.8280 -0.6388
  836MOL0     C12752   2.555  10.400   1.075  0.6911  0.7047 -0.3051
  836MOL0     C12753   2.597  10.269   1.106 -0.2262  0.4396  0.5224
  836MOL0     C12754   2.723  10.237   1.164 -0.0068 -0.0331  0.2710
  836MOL0     O12755   2.818  10.338   1.179  0.2018 -0.1692  0.0063
  836MOL0     C12756   2.937  10.317   1.242 -0.5451  0.1994  1.0710
  836MOL0     C12757   3.041  10.400   1.205  0.8281  0.1639 -0.4266
  836MOL0     C12758   3.175  10.389   1.248  0.0554  0.1219 -0.0494
  836MOL0     C12759   3.203  10.275   1.324 -0.4029  0.0448 -0.1025
  836MOL0     O12760   3.338  10.241   1.344 -0.3243 -0.0529  0.1295
  836MOL0     C12761   3.405  10.199   1.219  0.1300  1.0763  0.1039
  836MOL0     C12762   3.500  10.300   1.167 -0.5643  0.9495 -0.6643
  836MOL0     C12763   3.611  10.317   1.276 -0.2644  1.0090  0.5312
  836MOL0     C12764   3.720  10.422   1.248 -0.3632 -0.0422 -0.2722
  836MOL0     C12765   3.804  10.437   1.379  0.3208 -0.3787  0.5392
  836MOL0     C12766   3.913  10.544   1.360 -0.3880 -1.0634 -0.7163
  836MOL0     C12767   4.032  10.503   1.262  0.2526  0.2178  0.3995
  836MOL0     C12768   4.169  10.569   1.294  0.3863 -0.6810 -0.4930
  836MOL0    Cl12769   4.120  10.740   1.314  0.1903  0.3923 -0.0134
  836MOL0     C12770   3.108  10.191   1.375 -0.7986 -0.0626 -0.1951
  836MOL0     C12771   2.971  10.218   1.338  0.4031  0.3685  0.0089
  836MOL0     O12772   2.746  10.117   1.180  0.4609 -0.5575  0.5590
  836MOL0     C12773   2.493  10.173   1.114 -0.0908 -0.5613  1.0381
  836MOL0     C12774   2.358  10.206   1.086 -0.3860  0.1914  0.7589
  836MOL0     N12775   1.658  10.552   0.642  0.7605  0.2549  0.6919
  836MOL0     N12776   1.609  10.521   0.524 -0.4890  0.2447 -0.9504
  836MOL0     C12777   0.754   9.795   0.759 -0.3405  1.1902  0.4751
  836MOL0     C12778   0.626   9.788   0.809  0.3120 -0.0523  0.0103
  836MOL0     C12779   0.240   9.805   1.013 -0.1339  0.3597  0.4028
  836MOL0     C12780   0.195   9.673   0.994  1.1060 -0.8563  0.0522
  836MOL0     C12781   0.053   9.659   1.005  0.4196  0.1449 -0.2824
  836MOL0     C12782  -0.038   9.755   1.028 -0.2501 -0.5497 -0.1653
  836MOL0     O12783  -0.176   9.745   1.031  0.2316 -0.3515  0.1310
  836MOL0     C12784  -0.240   9.623   0.993  0.3130 -1.0909 -0.5177
  836MOL0     C12785  -0.375   9.621   1.073 -0.5230  0.4945 -0.3895
  836MOL0     C12786  -0.456   9.740   1.039  0.2808  0.8012  0.4878
  836MOL0     C12787  -0.601   9.705   1.067 -0.4612 -0.3143  0.5322
  836MOL0     C12788  -0.661   9.612   0.971  0.3297  0.0663  0.1209
  836MOL0     C12789  -0.715   9.553   0.882  1.0865 -0.0535  1.0986
  836MOL0     C12790   0.009   9.883   1.051 -0.0927 -0.5061 -0.7295
  836MOL0     C12791   0.148   9.913   1.052 -0.4127  0.1857  0.7574
  836MOL0     C12792   0.192  10.064   1.085 -0.3637 -0.2780  0.0226
  836MOL0     H12793   0.682   9.633   1.110 -1.6794 -0.4513  0.2487
  836MOL0     H12794   0.922   9.645   1.010 -0.3318  0.6570  0.2276
  836MOL0     H12795   1.017   9.754   0.594  1.2145 -0.6929  0.0957
  836MOL0     H12796   0.979   9.905   0.668 -1.4516 -1.2463 -2.2417
  836MOL0     H12797   1.249   9.769   0.735 -3.0970 -1.2440  1.8408
  836MOL0     H12798   1.203   9.923   0.783 -0.1883 -0.1214  0.1831
  836MOL0     H12799   1.143   9.964   0.523  0.1435 -0.2415 -0.2348
  836MOL0     H12800   1.251   9.824   0.498  0.9922 -1.0399  1.4565
  836MOL0     H12801   1.327  10.076   0.658 -1.6851 -0.1048 -1.2531
  836MOL0     H12802   1.432   9.937   0.654 -0.9323 -1.1095 -0.4679
  836MOL0     H12803   1.459   9.960   0.417 -2.0137 -2.3543  1.6380
  836MOL0     H12804   1.362  10.107   0.420  0.6335  1.9275  0.1550
  836MOL0     H12805   1.534  10.223   0.569  1.8220 -0.3907  3.6190
  836MOL0     H12806   1.611  10.068   0.584 -0.7271  0.2962  1.4858
  836MOL0     H12807   1.599  10.118   0.305  3.0297  0.5836 -0.9254
  836MOL0     H12808   1.727  10.124   0.420 -1.3685 -1.6523  1.0716
  836MOL0     H12809   1.741  10.326   0.305 -0.8049 -2.5789 -1.1657
  836MOL0     H12810   1.562  10.354   0.319 -2.1878 -0.7642  3.1834
  836MOL0     H12811   1.807  10.266   0.616 -1.9692 -1.7424 -0.9284
  836MOL0     H12812   1.747  10.522   0.904 -0.7774 -0.5526  0.9969
  836MOL0     H12813   1.744  10.352   0.888  0.2956 -1.9881 -2.4497
  836MOL0     H12814   1.967  10.330   0.835  1.2558 -0.5469  0.5981
  836MOL0     H12815   1.985  10.493   0.767 -0.1367 -1.6019 -0.5912
  836MOL0     H12816   1.929  10.418   1.051  0.6783 -1.4768 -2.0416
  836MOL0     H12817   1.963  10.591   1.001  2.5580  1.0774 -1.5575
  836MOL0     H12818   2.165  10.538   1.068 -2.7235 -0.8785  2.0713
  836MOL0     H12819   2.163  10.519   0.884  2.2980  0.1650  1.1014
  836MOL0     H12820   2.389  10.529   0.995 -1.5606 -0.3481  1.4709
  836MOL0     H12821   2.625  10.483   1.075  0.6856  0.8128  2.2201
  836MOL0     H12822   3.018  10.486   1.142 -1.8311 -0.3945 -0.3430
  836MOL0     H12823   3.252  10.455   1.210 -0.8700  0.1306 -2.0451
  836MOL0     H12824   3.452  10.100   1.219  1.0609  1.3264 -4.1696
  836MOL0     H12825   3.330  10.176   1.143  2.9936  0.2060 -2.6877
  836MOL0     H12826   3.547  10.259   1.077  0.8179 -0.2407  0.5412
  836MOL0     H12827   3.449  10.395   1.154 -4.6011 -0.9111 -0.0753
  836MOL0     H12828   3.564  10.338   1.372  1.1003 -2.3982  2.0911
  836MOL0     H12829   3.659  10.220   1.289  0.5194  1.2517 -0.4301
  836MOL0     H12830   3.678  10.521   1.225  0.2925  0.2609 -0.1916
  836MOL0     H12831   3.789  10.386   1.172  0.4017  2.4211 -0.8583
  836MOL0     H12832   3.855  10.343   1.404  1.2423  0.5316  2.2056
  836MOL0     H12833   3.744  10.455   1.468  1.9899  0.7144  1.4856
  836MOL0     H12834   3.862  10.632   1.320  1.6150  0.8301  0.6676
  836MOL0     H12835   3.949  10.574   1.459 -1.9101  1.2855 -0.7903
  836MOL0     H12836   4.007  10.533   1.159  1.1406 -0.9735 -0.1862
  836MOL0     H12837   4.050  10.395   1.265  0.9257  0.3330  0.5655
  836MOL0     H12838   4.206  10.524   1.387 -0.8746 -0.5651  0.0882
  836MOL0     H12839   4.236  10.560   1.208 -0.1496  1.3713 -1.1822
  836MOL0     H12840   3.138  10.111   1.442 -5.0516 -3.6596 -2.0394
  836MOL0     H12841   2.896  10.147   1.373 -0.7557  1.3683 -0.3499
  836MOL0     H12842   2.519  10.071   1.141  0.4100 -0.7006  0.0894
  836MOL0     H12843   2.292  10.120   1.085  0.9131 -0.8582 -0.8522
  836MOL0     H12844   0.775   9.860   0.674  2.2486 -0.3223 -0.1633
  836MOL0     H12845   0.540   9.826   0.756  0.2296  0.6660  0.6450
  836MOL0     H12846   0.254   9.586   0.968  1.9550  0.3801 -2.4824
  836MOL0     H12847   0.007   9.564   0.980 -2.1798  0.7353  1.8193
  836MOL0     H12848  -0.181   9.532   1.006  1.5546 -0.5523 -2.0725
  836MOL0     H12849  -0.280   9.623   0.891 -1.4509 -0.5796  0.1343
  836MOL0     H12850  -0.357   9.605   1.180  1.1933  1.6831 -0.4554
  836MOL0     H12851  -0.420   9.524   1.049  2.2074 -1.4315  1.5365
  836MOL0     H12852  -0.439   9.775   0.937 -1.4444  0.8170  0.1658
  836MOL0     H12853  -0.428   9.819   1.108 -1.0339 -1.1517  3.4486
  836MOL0     H12854  -0.595   9.664   1.168  0.7903  2.8313  1.8910
  836MOL0     H12855  -0.657   9.799   1.078  0.2939  0.3190 -0.6727
  836MOL0     H12856  -0.771   9.483   0.822  1.8162 -2.6527  3.2600
  836MOL0     H12857  -0.067   9.957   1.075 -0.6693 -0.1741 -3.3387
  836MOL0     H12858   0.256  10.108   1.008 -0.5991 -0.8961 -0.5393
  836MOL0     H12859   0.109  10.135   1.097  0.2484  0.5232 -0.4273
  836MOL0     H12860   0.245  10.063   1.181 -0.7601 -0.5111  0.2429
  837MOL0     O12861  10.032   5.849  10.584  0.3475  0.1967  0.0252
  837MOL0     C12862   9.983   5.795  10.490  0.5569 -0.3610  0.8527
  837MOL0     O12863  10.057   5.715  10.403  0.1949 -0.3599  0.7403
  837MOL0     C12864  10.196   5.722  10.386  0.8818 -0.5136 -0.7703
  837MOL0     C12865  10.260   5.619  10.315 -0.2992 -0.3129  0.0625
  837MOL0     C12866  10.397   5.626  10.291  0.5545 -0.2724 -0.0482
  837MOL0     C12867  10.480   5.728  10.328  0.2168  0.9984  0.3613
  837MOL0     O12868  10.616   5.710  10.317 -0.2841 -0.3451 -0.2703
  837MOL0     C12869  10.698   5.821  10.358  0.7255  0.5339  0.7275
  837MOL0     C12870  10.841   5.793  10.317 -0.5403 -0.3702 -0.3732
  837MOL0     C12871  10.951   5.892  10.350  0.3669 -0.7675 -0.1384
  837MOL0     C12872  11.082   5.832  10.317  0.1304 -0.1890 -0.2087
  837MOL0     C12873  11.188   5.945  10.309 -0.3371 -0.0092  0.1779
  837MOL0     C12874  11.330   5.889  10.272  0.2018  0.8470  0.0385
  837MOL0     C12875  11.336   5.785  10.150 -0.4987  0.2831 -0.2430
  837MOL0     C12876  11.480   5.793  10.079  0.5158  0.8494 -0.6688
  837MOL0     N12877  11.492   5.908   9.994 -0.2102 -0.9493 -0.4275
  837MOL0     C12878  11.581   6.008  10.006 -0.4373 -0.3864 -0.3835
  837MOL0     C12879  11.526   6.117   9.942  0.0444  0.6913  0.6279
  837MOL0     C12880  11.595   6.254   9.942  0.0983  0.3033  0.5704
  837MOL0     C12881  11.547   6.322  10.071  0.9561 -0.1433  1.4599
  837MOL0     C12882  11.419   6.409  10.042  0.2817  0.6763  1.2738
  837MOL0     C12883  11.363   6.484  10.162 -0.6509 -0.2480  0.8296
  837MOL0     O12884  11.334   6.393  10.269 -0.1236  0.0130  0.3596
  837MOL0     C12885  11.207   6.336  10.284 -0.3568  0.5553 -0.5201
  837MOL0     C12886  11.165   6.287  10.408 -0.0524  0.5423 -0.3883
  837MOL0     C12887  11.037   6.226  10.425 -0.6487 -0.0633 -0.0680
  837MOL0     C12888  10.945   6.232  10.320 -0.0878  0.5191  0.0970
  837MOL0     C12889  10.803   6.195  10.344 -0.1749 -0.1801  1.5350
  837MOL0     O12890  10.759   6.181  10.473 -0.4878 -0.4671  0.4878
  837MOL0     C12891  10.627   6.177  10.515  0.1652 -0.2449  0.0600
  837MOL0     C12892  10.594   6.148  10.646 -0.4528  0.0603  0.2510
  837MOL0     C12893  10.463   6.132  10.699 -0.3884 -0.2358 -0.4259
  837MOL0     C12894  10.360   6.177  10.623  0.8104  0.1505 -0.4615
  837MOL0     O12895  10.241   6.174  10.687  0.6099 -0.0342  0.1554
  837MOL0     C12896  10.126   6.182  10.602 -0.4190 -0.3842 -0.3068
  837MOL0     C12897   9.999   6.166  10.689 -0.8205  0.6114 -0.2269
  837MOL0     C12898   9.880   6.189  10.602  0.0998 -0.5009  0.2556
  837MOL0     C12899   9.752   6.171  10.680  0.0148 -0.4636  0.0514
  837MOL0     C12900   9.629   6.196  10.596 -0.3067  1.3915  0.3471
  837MOL0     C12901   9.498   6.196  10.683  0.0559  0.0915  0.4364
  837MOL0     C12902   9.366   6.198  10.606 -0.3671 -0.1098  0.1921
  837MOL0     C12903   9.344   6.315  10.512 -0.8194  0.0016  0.3511
  837MOL0    Cl12904   9.170   6.324  10.479  0.1402 -0.6051 -0.1350
  837MOL0     C12905  10.382   6.207  10.485 -0.4421  0.1431  0.4553
  837MOL0     C12906  10.510   6.220  10.440  0.1885  0.1584 -0.4837
  837MOL0     O12907  10.728   6.187  10.245 -0.3749  0.8365 -0.0488
  837MOL0     C12908  10.985   6.289  10.202  0.7331  0.7428 -0.5911
  837MOL0     C12909  11.107   6.331  10.184  0.8416 -0.1404  0.1862
  837MOL0     N12910  11.407   6.073   9.886 -0.0185  0.3314 -0.3004
  837MOL0     N12911  11.395   5.950   9.917  0.2219 -0.1156 -0.6964
  837MOL0     C12912  10.411   5.828  10.395  0.3678 -0.2171 -0.0503
  837MOL0     C12913  10.272   5.835  10.423  0.4515  0.1476 -0.1468
  837MOL0     C12914   9.836   5.820  10.458 -0.1314 -0.4418 -0.0919
  837MOL0     C12915   9.738   5.800  10.560 -0.0645  0.3759 -0.3708
  837MOL0     C12916   9.603   5.793  10.540  0.5642  0.0666 -0.3106
  837MOL0     C12917   9.558   5.818  10.410  0.1100 -1.0638 -0.1181
  837MOL0     O12918   9.424   5.796  10.400 -0.4641  0.6954  0.3436
  837MOL0     C12919   9.376   5.784  10.268 -0.2649  0.6731  0.5043
  837MOL0     C12920   9.223   5.751  10.269  0.2378  0.1205  0.2206
  837MOL0     C12921   9.146   5.866  10.345  0.1732  0.0565  0.0984
  837MOL0     C12922   9.002   5.877  10.317  0.2608  0.2652 -0.3708
  837MOL0     C12923   8.936   5.745  10.333 -0.6737  0.9797  0.0434
  837MOL0     C12924   8.874   5.638  10.360 -0.1865 -0.0170 -0.0221
  837MOL0     C12925   9.647   5.845  10.309  0.6256  0.3726  0.5616
  837MOL0     C12926   9.782   5.853  10.332 -0.2198 -0.1859 -0.3596
  837MOL0     C12927   9.876   5.866  10.212 -0.2393  0.6320  1.0040
  837MOL0     H12928  10.213   5.525  10.286 -1.2549  0.0897  0.2691
  837MOL0     H12929  10.412   5.533  10.237  0.5574  0.5478 -1.4897
  837MOL0     H12930  10.661   5.916  10.319  1.6904  2.0149  3.1941
  837MOL0     H12931  10.687   5.831  10.466  1.3529 -1.3756  1.0107
  837MOL0     H12932  10.841   5.787  10.208  2.4876  3.5257 -0.8018
  837MOL0     H12933  10.852   5.688  10.347 -0.8940 -0.4798 -0.6170
  837MOL0     H12934  10.970   5.934  10.450  3.6211 -0.1407 -0.8974
  837MOL0     H12935  10.933   5.980  10.288 -1.7478 -0.7404  0.4506
  837MOL0     H12936  11.107   5.751  10.386 -0.5247 -0.3697 -0.1692
  837MOL0     H12937  11.080   5.780  10.221 -2.6456 -2.1814  0.7825
  837MOL0     H12938  11.153   6.011  10.229  1.3760  0.2120 -0.4280
  837MOL0     H12939  11.191   6.006  10.400 -1.9782  0.3980 -0.0245
  837MOL0     H12940  11.395   5.973  10.246  3.3784 -1.6970 -0.8721
  837MOL0     H12941  11.378   5.843  10.359 -2.9066  0.9408  1.9390
  837MOL0     H12942  11.257   5.812  10.079 -1.1125 -0.2293  0.2315
  837MOL0     H12943  11.318   5.683  10.184  1.9748  0.8451  3.3104
  837MOL0     H12944  11.556   5.788  10.158  0.8971 -3.8733 -1.0429
  837MOL0     H12945  11.493   5.709  10.010 -1.2232 -0.2951  0.3313
  837MOL0     H12946  11.673   6.002  10.064 -1.1321 -0.8423  0.6970
  837MOL0     H12947  11.702   6.232   9.950 -0.5017 -2.5723  2.0685
  837MOL0     H12948  11.567   6.303   9.848  0.1034 -3.5069 -1.6324
  837MOL0     H12949  11.527   6.254  10.154  1.7542 -0.6818  1.2263
  837MOL0     H12950  11.620   6.396  10.105  0.2411  1.1661  0.2426
  837MOL0     H12951  11.343   6.338  10.007  1.0771  0.9617 -1.2395
  837MOL0     H12952  11.441   6.468   9.953 -1.2559  0.4525  0.7134
  837MOL0     H12953  11.281   6.543  10.120  0.3675  0.8283  0.2983
  837MOL0     H12954  11.434   6.560  10.194 -2.9001  3.0972 -1.4529
  837MOL0     H12955  11.237   6.295  10.489  0.7980  1.2159 -1.1876
  837MOL0     H12956  11.006   6.188  10.522 -1.9742 -1.1535 -0.8810
  837MOL0     H12957  10.670   6.113  10.714 -0.7690 -0.0728  0.5410
  837MOL0     H12958  10.435   6.104  10.800 -4.3738 -1.3465 -1.6319
  837MOL0     H12959  10.131   6.279  10.551  1.0751 -0.9848 -1.3614
  837MOL0     H12960  10.129   6.107  10.522  1.3493 -0.4225 -0.2513
  837MOL0     H12961   9.995   6.061  10.720 -2.1045  0.7417  0.1274
  837MOL0     H12962  10.003   6.232  10.777 -0.1917  0.1323  0.1138
  837MOL0     H12963   9.886   6.287  10.554  0.5776 -0.3108  0.6958
  837MOL0     H12964   9.882   6.116  10.522  1.1106  0.1460 -0.3364
  837MOL0     H12965   9.753   6.228  10.773  1.6746 -1.5933  0.7768
  837MOL0     H12966   9.744   6.064  10.703 -1.5935 -1.0254 -2.7174
  837MOL0     H12967   9.624   6.120  10.518 -3.5566  1.3868  0.4342
  837MOL0     H12968   9.647   6.291  10.545  2.0151  1.8346  1.8209
  837MOL0     H12969   9.496   6.113  10.754 -2.1746 -0.6051 -0.3650
  837MOL0     H12970   9.490   6.285  10.746 -1.6701  0.4506 -0.2247
  837MOL0     H12971   9.288   6.208  10.683 -0.5942 -0.8634  0.0682
  837MOL0     H12972   9.350   6.108  10.545  0.3620 -1.3277  1.7250
  837MOL0     H12973   9.377   6.404  10.566 -0.3355 -1.0649  1.8537
  837MOL0     H12974   9.406   6.310  10.422  1.5160 -0.5144  1.9030
  837MOL0     H12975  10.305   6.241  10.416  1.9185  1.5024 -1.7157
  837MOL0     H12976  10.526   6.255  10.339 -0.6621 -1.3331 -1.1648
  837MOL0     H12977  10.916   6.309  10.121 -0.5991  3.1350  1.0278
  837MOL0     H12978  11.134   6.346  10.079  2.2123 -0.3215  0.4848
  837MOL0     H12979  10.480   5.899  10.439  0.8091 -0.6137 -0.0964
  837MOL0     H12980  10.242   5.918  10.487  0.3037 -0.6460  0.8489
  837MOL0     H12981   9.766   5.771  10.661 -1.7692 -2.8656 -0.6938
  837MOL0     H12982   9.536   5.761  10.618  1.4396 -3.2820 -0.7579
  837MOL0     H12983   9.440   5.710  10.218  1.5546  0.9481  2.2802
  837MOL0     H12984   9.392   5.874  10.208  2.2393 -1.1348 -1.7762
  837MOL0     H12985   9.215   5.654  10.319  2.5496  0.7034  1.9074
  837MOL0     H12986   9.194   5.739  10.165  0.0018 -2.5234  0.5190
  837MOL0     H12987   9.188   5.965  10.326 -0.1185  0.3075  0.7528
  837MOL0     H12988   9.152   5.846  10.452 -2.8153 -3.5671 -0.1991
  837MOL0     H12989   8.955   5.951  10.382 -2.1841 -1.2302 -0.2771
  837MOL0     H12990   8.997   5.911  10.213  1.2357  1.8988  0.0854
  837MOL0     H12991   8.808   5.559  10.393 -2.1938  1.3955 -0.4295
  837MOL0     H12992   9.613   5.864  10.208 -1.8435 -1.1392  1.0333
  837MOL0     H12993   9.825   5.886  10.117 -0.7924 -0.5954  1.0129
  837MOL0     H12994   9.950   5.943  10.233  1.1363 -0.5054  0.4899
  837MOL0     H12995   9.931   5.771  10.208 -1.8981 -0.3479 -1.7290
  838MOL0     O12996   2.304   9.917   4.299 -0.8815 -0.1794  0.1632
  838MOL0     C12997   2.220   9.985   4.359 -0.3164  0.2738  0.1119
  838MOL0     O12998   2.246  10.058   4.470  0.4472  0.2030 -0.6713
  838MOL0     C12999   2.354  10.034   4.555  0.0151 -0.7082  0.1692
  838MOL0     C13000   2.412  10.149   4.621  0.9630 -0.0516 -0.2817
  838MOL0     C13001   2.526  10.129   4.711  0.2970  0.8261  0.3962
  838MOL0     C13002   2.581  10.000   4.727  0.1028  0.5448 -0.3541
  838MOL0     O13003   2.693   9.985   4.793 -0.9411  1.0839  0.2197
  838MOL0     C13004   2.693  10.013   4.929  0.1266 -0.1998 -0.2651
  838MOL0     C13005   2.838   9.980   4.967  0.0681  0.7764 -0.5504
  838MOL0     C13006   2.948  10.078   4.932 -0.4763 -0.0342  0.5551
  838MOL0     C13007   3.067  10.075   5.030 -0.6782 -0.3129  0.1618
  838MOL0     C13008   3.040  10.116   5.169 -0.3519 -0.8643 -0.7182
  838MOL0     C13009   3.175  10.112   5.251  0.7235  0.1265  0.2979
  838MOL0     C13010   3.143  10.122   5.404 -0.2103 -0.2689 -0.3156
  838MOL0     C13011   3.050  10.239   5.437 -0.7413  0.6046  0.1836
  838MOL0     N13012   3.022  10.210   5.580 -0.4089 -0.4937 -0.0224
  838MOL0     C13013   2.901  10.163   5.620  0.9183  0.4214  0.7688
  838MOL0     C13014   2.902  10.169   5.755  0.2373 -1.1010 -0.8756
  838MOL0     C13015   2.784  10.149   5.848  0.2766  0.6502 -0.0704
  838MOL0     C13016   2.663  10.237   5.811 -0.1253  0.5322  0.4151
  838MOL0     C13017   2.575  10.247   5.940  0.6553  1.3210  0.7001
  838MOL0     C13018   2.437  10.313   5.895 -1.3096  0.1504  0.3151
  838MOL0     O13019   2.330  10.226   5.869  0.4388 -0.0333 -0.3870
  838MOL0     C13020   2.207  10.282   5.835 -0.5135  0.7200 -0.6436
  838MOL0     C13021   2.177  10.425   5.833 -0.2704 -0.7563 -0.5985
  838MOL0     C13022   2.042  10.460   5.798  0.7196  0.5919 -0.4482
  838MOL0     C13023   1.952  10.363   5.741 -0.1180 -1.2869  0.1852
  838MOL0     C13024   1.834  10.414   5.679  0.2174  0.0025 -0.9005
  838MOL0     O13025   1.776  10.320   5.599 -0.1706 -0.9504  0.1261
  838MOL0     C13026   1.645  10.339   5.565  0.3822 -0.2447 -1.0003
  838MOL0     C13027   1.544  10.244   5.589  0.3462  0.4955 -0.2977
  838MOL0     C13028   1.405  10.274   5.555  0.4190 -0.4315 -0.4050
  838MOL0     C13029   1.369  10.395   5.486 -0.8812  1.1335 -0.5584
  838MOL0     O13030   1.250  10.422   5.443  0.3372  0.4886 -0.2620
  838MOL0     C13031   1.147  10.358   5.509 -0.0564 -0.7140  0.3423
  838MOL0     C13032   1.029  10.448   5.483  0.1910 -0.0863 -0.5059
  838MOL0     C13033   0.911  10.434   5.572 -0.1528  0.1697  0.5235
  838MOL0     C13034   0.832  10.563   5.609  1.1625  0.6013 -0.4618
  838MOL0     C13035   0.688  10.537   5.663 -1.0506  0.6937 -0.3001
  838MOL0     C13036   0.608  10.660   5.654  0.6456 -0.1197  0.1389
  838MOL0     C13037   0.466  10.627   5.700  0.0809 -0.0222  0.2210
  838MOL0     C13038   0.374  10.746   5.703 -0.2213 -0.2389 -0.4274
  838MOL0    Cl13039   0.221  10.692   5.762  0.2026 -0.2582 -0.0799
  838MOL0     C13040   1.477  10.481   5.464 -0.6358 -0.0397  1.1760
  838MOL0     C13041   1.608  10.454   5.503  0.0700 -0.3785 -0.1724
  838MOL0     O13042   1.784  10.518   5.730 -0.1070  0.1042  0.2427
  838MOL0     C13043   1.988  10.231   5.739 -0.6946 -0.0208 -0.5517
  838MOL0     C13044   2.112  10.190   5.798  0.8831 -0.5454 -0.2357
  838MOL0     N13045   3.020  10.228   5.793  0.2030  1.6222 -0.1877
  838MOL0     N13046   3.087  10.257   5.689  0.5087 -0.4763 -0.6257
  838MOL0     C13047   2.533   9.894   4.645 -0.3307  0.7075 -0.1809
  838MOL0     C13048   2.410   9.910   4.570  0.7170 -0.4227 -0.6716
  838MOL0     C13049   2.075   9.978   4.317  0.3135 -0.1350  0.0629
  838MOL0     C13050   1.981  10.045   4.393  0.0676 -1.3986  0.4698
  838MOL0     C13051   1.853  10.065   4.356  0.2401  0.1170  0.0797
  838MOL0     C13052   1.799  10.010   4.244 -0.3671 -0.0493  0.3146
  838MOL0     O13053   1.674  10.046   4.213 -0.5255  0.6780  0.1757
  838MOL0     C13054   1.589   9.967   4.128 -0.5873 -0.0347  0.7688
  838MOL0     C13055   1.585   9.821   4.178  0.5205 -0.1216 -0.5004
  838MOL0     C13056   1.521   9.729   4.066 -0.7806  0.4282 -0.2392
  838MOL0     C13057   1.544   9.580   4.078  0.5280 -0.9961 -1.1162
  838MOL0     C13058   1.677   9.543   4.045 -0.3448 -1.1453  0.6219
  838MOL0     C13059   1.800   9.522   4.024 -0.2492  0.2263  0.3866
  838MOL0     C13060   1.888   9.946   4.158 -0.0697 -0.6916 -0.1893
  838MOL0     C13061   2.022   9.914   4.199 -0.0979  0.3792  0.8240
  838MOL0     C13062   2.112   9.837   4.100  0.5988  0.5026 -0.0881
  838MOL0     H13063   2.366  10.247   4.612 -1.6311 -1.3146 -1.8314
  838MOL0     H13064   2.548  10.220   4.764 -4.1148  1.2228  1.9324
  838MOL0     H13065   2.683  10.122   4.936 -0.5093 -0.2885  0.3000
  838MOL0     H13066   2.627   9.954   4.993  1.0628 -2.4659 -1.2645
  838MOL0     H13067   2.870   9.887   4.919  1.6275  1.7970 -1.5643
  838MOL0     H13068   2.841   9.956   5.074  2.8260 -1.3463 -1.0110
  838MOL0     H13069   2.923  10.185   4.936 -0.4476  0.2130 -2.9353
  838MOL0     H13070   2.974  10.046   4.831 -1.7361 -1.9645  0.7810
  838MOL0     H13071   3.110   9.974   5.030 -2.7380 -1.3584  3.5063
  838MOL0     H13072   3.133  10.152   4.988 -2.4614  1.0179 -0.3120
  838MOL0     H13073   2.998  10.217   5.170 -0.0713 -0.7375 -1.1767
  838MOL0     H13074   2.964  10.051   5.213 -1.5837 -0.3777 -2.0418
  838MOL0     H13075   3.230  10.019   5.235  0.4903 -0.4228  2.4287
  838MOL0     H13076   3.254  10.179   5.216 -0.2655  0.5846 -1.1636
  838MOL0     H13077   3.236  10.141   5.459 -1.3762  0.4838  1.4856
  838MOL0     H13078   3.105  10.032   5.452 -1.0340  1.7605  3.2563
  838MOL0     H13079   3.104  10.334   5.425 -0.9437  0.6965 -0.0161
  838MOL0     H13080   2.957  10.255   5.381  0.2903  2.0483 -1.1970
  838MOL0     H13081   2.817  10.138   5.556 -0.5273  2.0377  1.9422
  838MOL0     H13082   2.745  10.046   5.845  2.0752 -0.0569 -1.1154
  838MOL0     H13083   2.816  10.179   5.948  1.2626  1.4850 -0.6227
  838MOL0     H13084   2.696  10.333   5.771 -2.6876  0.3449 -2.4877
  838MOL0     H13085   2.608  10.190   5.730 -1.9304  2.5400  0.3935
  838MOL0     H13086   2.619  10.315   6.014 -0.9032 -0.4707  3.4125
  838MOL0     H13087   2.570  10.149   5.988  2.2041  0.8186 -0.0805
  838MOL0     H13088   2.449  10.389   5.817 -1.7464  1.8243  1.8059
  838MOL0     H13089   2.407  10.371   5.983 -0.3026 -0.9096  1.3844
  838MOL0     H13090   2.254  10.489   5.875  0.4085 -1.7684 -0.2697
  838MOL0     H13091   2.015  10.564   5.816 -6.4079 -0.8616  0.1777
  838MOL0     H13092   1.558  10.154   5.647 -1.6154  0.3221 -0.0310
  838MOL0     H13093   1.322  10.206   5.573 -0.6481  1.4387  2.4729
  838MOL0     H13094   1.127  10.253   5.483 -3.7848  0.2591 -1.5171
  838MOL0     H13095   1.159  10.358   5.617 -0.0934 -0.2338  0.3497
  838MOL0     H13096   1.060  10.552   5.474 -1.4096  0.7449  2.2619
  838MOL0     H13097   1.001  10.414   5.383 -0.9291 -1.8114  0.3458
  838MOL0     H13098   0.843  10.373   5.511 -0.8378  2.2074 -0.8690
  838MOL0     H13099   0.941  10.382   5.663  3.2545 -0.5288 -0.8534
  838MOL0     H13100   0.814  10.638   5.532 -0.1230  1.6900  0.8192
  838MOL0     H13101   0.885  10.616   5.689 -2.5664  1.1581  1.9175
  838MOL0     H13102   0.695  10.492   5.763  2.3068  2.3838  0.3661
  838MOL0     H13103   0.648  10.453   5.605  0.0294  0.0841 -0.1876
  838MOL0     H13104   0.658  10.735   5.716  2.3545 -1.0097 -0.1031
  838MOL0     H13105   0.601  10.692   5.550 -2.0507 -1.4007 -0.1622
  838MOL0     H13106   0.460  10.574   5.796  0.3250 -1.5631 -0.5839
  838MOL0     H13107   0.413  10.560   5.632  0.5418 -1.9613  1.6634
  838MOL0     H13108   0.417  10.832   5.756 -0.7995  0.8728 -1.7225
  838MOL0     H13109   0.360  10.788   5.604  0.3745 -0.2924 -0.5410
  838MOL0     H13110   1.461  10.581   5.426 -2.4050 -0.4882  0.6848
  838MOL0     H13111   1.694  10.515   5.478  1.2779 -3.1131 -3.4491
  838MOL0     H13112   1.920  10.157   5.699 -1.0732 -0.9748  1.7367
  838MOL0     H13113   2.143  10.086   5.792 -1.1402 -1.1403 -1.0875
  838MOL0     H13114   2.575   9.794   4.655  1.5801  1.3786 -1.0584
  838MOL0     H13115   2.363   9.827   4.518 -3.8398  0.2043  1.9291
  838MOL0     H13116   2.001  10.090   4.489  1.5735 -0.8935 -0.0580
  838MOL0     H13117   1.793  10.127   4.422  0.7299  1.8949 -1.0762
  838MOL0     H13118   1.629   9.963   4.027  4.4685 -0.0558  2.5053
  838MOL0     H13119   1.489  10.011   4.124  0.4375  2.3738 -0.0312
  838MOL0     H13120   1.518   9.828   4.264  1.0342  1.2483 -0.1801
  838MOL0     H13121   1.685   9.791   4.208  1.3218  2.5796 -0.2258
  838MOL0     H13122   1.565   9.747   3.967 -1.3674  0.8570 -0.4324
  838MOL0     H13123   1.415   9.757   4.056 -1.5998 -2.5337 -0.8290
  838MOL0     H13124   1.528   9.543   4.180  1.8317  0.6679 -0.2566
  838MOL0     H13125   1.472   9.527   4.016 -1.3534 -1.3304  1.1875
  838MOL0     H13126   1.902   9.491   4.017 -0.8616 -3.3756  3.9170
  838MOL0     H13127   1.854   9.907   4.062 -0.2845  0.0580 -0.4218
  838MOL0     H13128   2.190   9.780   4.151 -0.4637  0.2522  1.3548
  838MOL0     H13129   2.042   9.763   4.060  1.5702  0.6917 -2.2507
  838MOL0     H13130   2.168   9.890   4.023 -0.3752 -0.6482 -1.6538
  839MOL0     O13131   8.610   8.271   3.951 -0.4979  0.1335  0.7293
  839MOL0     C13132   8.607   8.388   3.922 -0.5238  0.3934  0.0123
  839MOL0     O13133   8.722   8.467   3.930  0.4669 -0.8290  0.5786
  839MOL0     C13134   8.845   8.410   3.915 -0.7425  0.2506 -0.7558
  839MOL0     C13135   8.884   8.323   3.814  0.2328  0.7150 -0.0968
  839MOL0     C13136   9.017   8.280   3.796  0.4240 -0.3984 -0.4892
  839MOL0     C13137   9.115   8.316   3.893 -0.3267 -0.2797  0.6568
  839MOL0     O13138   9.242   8.258   3.861  0.3462 -0.4792  0.2791
  839MOL0     C13139   9.297   8.189   3.976 -0.8106  0.0263 -0.2846
  839MOL0     C13140   9.417   8.263   4.042 -0.6563  0.2448 -0.0051
  839MOL0     C13141   9.520   8.166   4.109 -0.4563  0.0486  0.2362
  839MOL0     C13142   9.659   8.234   4.141 -0.0813  0.0534 -0.0980
  839MOL0     C13143   9.741   8.140   4.234 -0.4378  0.1222  0.1343
  839MOL0     C13144   9.878   8.189   4.292 -0.0266 -0.6486 -0.2442
  839MOL0     C13145   9.903   8.145   4.434 -0.2411  0.6672  1.5181
  839MOL0     C13146   9.921   7.987   4.452  0.2861  0.1959 -0.2527
  839MOL0     N13147   9.992   7.959   4.576 -0.7314  0.2665  0.5561
  839MOL0     C13148   9.953   7.983   4.706 -0.2543  0.0071  0.0923
  839MOL0     C13149  10.064   7.981   4.783  0.6570  0.6089 -0.0931
  839MOL0     C13150  10.081   8.000   4.933 -0.2597  0.1785  0.8276
  839MOL0     C13151  10.229   7.994   4.982  0.3285  0.3313 -0.0040
  839MOL0     C13152  10.249   8.015   5.139 -0.3693 -0.7865  0.4312
  839MOL0     C13153  10.400   8.029   5.167  0.5319  0.5901  0.1236
  839MOL0     O13154  10.455   7.907   5.120 -0.1841  0.7170  0.1005
  839MOL0     C13155  10.592   7.889   5.132  0.1468 -0.8759 -0.3870
  839MOL0     C13156  10.666   7.795   5.057  0.0563 -0.6305  0.2340
  839MOL0     C13157  10.806   7.786   5.083  0.0406  0.5570  0.0070
  839MOL0     C13158  10.876   7.874   5.161 -0.6157  0.0977  0.0056
  839MOL0     C13159  11.016   7.846   5.189 -0.4496 -0.4239  0.4983
  839MOL0     O13160  11.085   7.931   5.272 -0.1926 -0.5689  0.1619
  839MOL0     C13161  11.220   7.922   5.300  0.4565 -0.6141 -0.3358
  839MOL0     C13162  11.259   7.973   5.421  0.3662  0.1378  0.9331
  839MOL0     C13163  11.394   7.969   5.466 -0.4871  0.2881  0.1065
  839MOL0     C13164  11.493   7.909   5.390  0.6936 -0.5951 -0.2578
  839MOL0     O13165  11.628   7.891   5.425 -0.4696 -0.7871 -0.0073
  839MOL0     C13166  11.684   7.984   5.517 -0.0068  0.3694  0.6370
  839MOL0     C13167  11.799   8.044   5.433 -0.5470  0.4727 -0.1416
  839MOL0     C13168  11.921   7.948   5.411 -0.6701 -0.1325  0.5506
  839MOL0     C13169  12.042   8.017   5.349  0.6310 -0.0593  0.2806
  839MOL0     C13170  12.169   7.934   5.360  0.4142  0.0900  0.6350
  839MOL0     C13171  12.289   8.004   5.285  0.0854  0.4527 -0.0669
  839MOL0     C13172  12.418   7.936   5.324 -0.7069  0.1158 -0.1734
  839MOL0     C13173  12.537   8.000   5.243  0.1739 -0.3093 -0.0333
  839MOL0    Cl13174  12.666   7.873   5.247 -0.0928 -0.6002  0.3285
  839MOL0     C13175  11.451   7.868   5.262 -0.3880  0.2577  0.3550
  839MOL0     C13176  11.323   7.869   5.219  0.5358  0.4435 -0.2108
  839MOL0     O13177  11.074   7.744   5.146  0.9825  0.1054  0.5550
  839MOL0     C13178  10.802   7.969   5.233 -0.3457  0.2911 -0.8963
  839MOL0     C13179  10.665   7.968   5.231  1.0008 -0.1297  0.1116
  839MOL0     N13180  10.162   7.960   4.691 -0.9905 -0.3990 -0.1100
  839MOL0     N13181  10.124   7.942   4.565  0.9731 -0.2108 -1.1692
  839MOL0     C13182   9.079   8.408   3.998 -0.3645 -0.3148  0.3631
  839MOL0     C13183   8.952   8.454   4.004 -0.2078 -0.1568 -0.5182
  839MOL0     C13184   8.489   8.457   3.888 -0.4323  0.3431  0.4163
  839MOL0     C13185   8.498   8.573   3.809 -0.5073  0.9135 -0.3751
  839MOL0     C13186   8.387   8.645   3.781  0.6634 -0.7425 -1.4328
  839MOL0     C13187   8.250   8.605   3.805 -0.8840  0.2783  0.1329
  839MOL0     O13188   8.142   8.678   3.753 -0.1710 -0.6078 -0.2619
  839MOL0     C13189   8.007   8.638   3.767 -0.4281  0.5774  0.0183
  839MOL0     C13190   7.914   8.740   3.704  0.5019  0.1562 -0.0668
  839MOL0     C13191   7.906   8.879   3.784  0.6143 -0.0141  1.1000
  839MOL0     C13192   7.767   8.893   3.861 -0.2762  0.1947 -0.4226
  839MOL0     C13193   7.639   8.867   3.794 -0.2453 -1.0237  0.2817
  839MOL0     C13194   7.531   8.876   3.741 -0.0640  0.0393  1.2783
  839MOL0     C13195   8.242   8.488   3.884  0.6069  0.1227 -0.6221
  839MOL0     C13196   8.357   8.420   3.933  0.2685 -0.4110  0.6713
  839MOL0     C13197   8.325   8.291   4.008  0.3305 -0.3971 -0.3703
  839MOL0     H13198   8.808   8.289   3.744 -0.1120 -0.0057  0.6087
  839MOL0     H13199   9.051   8.218   3.714 -2.1398 -3.3486  0.4910
  839MOL0     H13200   9.222   8.170   4.053 -1.2085  1.9814 -0.1234
  839MOL0     H13201   9.318   8.089   3.937  0.7702  0.1653  0.1586
  839MOL0     H13202   9.374   8.346   4.098 -0.9423  0.7326 -0.9284
  839MOL0     H13203   9.477   8.309   3.963  2.5228 -0.8989  1.5375
  839MOL0     H13204   9.538   8.084   4.039 -0.6249  0.6331 -0.4970
  839MOL0     H13205   9.478   8.120   4.199  0.2251 -1.8654 -0.3720
  839MOL0     H13206   9.714   8.259   4.050  2.4231 -0.2442  1.2548
  839MOL0     H13207   9.633   8.323   4.199  0.6522  0.7170 -0.7676
  839MOL0     H13208   9.679   8.135   4.324 -0.6328  2.2165  0.1774
  839MOL0     H13209   9.758   8.045   4.183  1.9200  1.8453 -2.6194
  839MOL0     H13210   9.961   8.158   4.229 -0.3563 -0.9763 -0.5252
  839MOL0     H13211   9.876   8.298   4.289  1.0563 -0.6476 -1.3328
  839MOL0     H13212   9.834   8.188   4.507 -0.9612  0.9611  0.6781
  839MOL0     H13213  10.002   8.184   4.461  2.1553 -2.6404 -1.4586
  839MOL0     H13214   9.821   7.949   4.475  0.9911 -2.4781 -1.2985
  839MOL0     H13215   9.963   7.947   4.360  0.9532  0.0386  0.1156
  839MOL0     H13216   9.856   8.022   4.732  0.3039  0.3832  1.7218
  839MOL0     H13217  10.038   8.099   4.948 -0.8900 -0.0906  0.8409
  839MOL0     H13218  10.013   7.929   4.981 -1.4679  1.0974  0.5156
  839MOL0     H13219  10.266   7.897   4.948 -2.6312 -1.0991  0.5816
  839MOL0     H13220  10.285   8.074   4.931 -0.7972  2.0074  1.2761
  839MOL0     H13221  10.205   7.926   5.184  1.6706 -2.5022 -0.7499
  839MOL0     H13222  10.200   8.104   5.178  0.4084  0.2580 -0.8850
  839MOL0     H13223  10.418   8.028   5.275  0.8482 -0.6314  0.0780
  839MOL0     H13224  10.435   8.120   5.118 -0.5812  0.3628 -1.1413
  839MOL0     H13225  10.637   7.712   4.993 -1.6211  1.3714 -1.7935
  839MOL0     H13226  10.845   7.694   5.042 -3.0744  0.0378 -2.1357
  839MOL0     H13227  11.185   8.035   5.471 -2.3773 -0.5353 -1.9208
  839MOL0     H13228  11.410   8.001   5.568  3.1600  0.2227 -0.3081
  839MOL0     H13229  11.615   8.063   5.549  2.3081  3.0776 -0.6432
  839MOL0     H13230  11.729   7.935   5.604  1.3116  0.2572 -0.0750
  839MOL0     H13231  11.755   8.072   5.337  0.2432  3.5085  0.2700
  839MOL0     H13232  11.832   8.134   5.486  0.1019  0.2818 -0.2105
  839MOL0     H13233  11.941   7.898   5.506 -1.2865  0.4751  1.0148
  839MOL0     H13234  11.900   7.867   5.341 -1.8735 -1.3871  2.2642
  839MOL0     H13235  12.061   8.107   5.409  0.5155 -1.4871  2.6003
  839MOL0     H13236  12.019   8.050   5.247  1.9413 -0.8625 -0.3031
  839MOL0     H13237  12.144   7.839   5.310 -0.2861  0.8914 -0.6018
  839MOL0     H13238  12.194   7.919   5.465  0.6129 -1.4791  0.3939
  839MOL0     H13239  12.281   7.992   5.176  2.0602 -1.3196 -0.0822
  839MOL0     H13240  12.299   8.109   5.314  2.7621  0.9802 -2.4656
  839MOL0     H13241  12.402   7.834   5.288 -1.4918  0.1110  0.1764
  839MOL0     H13242  12.448   7.940   5.429  1.4162  1.4943 -0.7772
  839MOL0     H13243  12.501   8.018   5.141 -0.0445 -2.0780 -0.2940
  839MOL0     H13244  12.583   8.087   5.291  2.5449 -1.5524  0.0989
  839MOL0     H13245  11.519   7.822   5.191 -1.2608 -3.2408  1.5808
  839MOL0     H13246  11.307   7.832   5.118 -0.2203  0.1264  0.0166
  839MOL0     H13247  10.851   8.032   5.307  1.7042 -0.0919 -1.8530
  839MOL0     H13248  10.626   8.035   5.307  1.0173 -0.2963  0.2709
  839MOL0     H13249   9.153   8.444   4.069  0.3666  1.1191 -1.0605
  839MOL0     H13250   8.928   8.535   4.071  2.0394  1.2962 -1.3603
  839MOL0     H13251   8.586   8.613   3.760  0.1703 -0.3960 -0.2606
  839MOL0     H13252   8.406   8.738   3.729  2.6103  2.0681  3.5800
  839MOL0     H13253   7.973   8.623   3.870 -2.3272 -2.0336 -0.8911
  839MOL0     H13254   8.001   8.548   3.706 -2.1714  0.0562  0.8989
  839MOL0     H13255   7.813   8.698   3.711  0.8361 -0.4538  1.4091
  839MOL0     H13256   7.955   8.746   3.602  2.4581  2.4414  0.7847
  839MOL0     H13257   7.910   8.957   3.707 -0.3255 -1.7504 -0.8013
  839MOL0     H13258   7.994   8.887   3.848  3.1952  0.8967 -2.2366
  839MOL0     H13259   7.767   8.830   3.950 -2.5551 -0.8402 -1.0879
  839MOL0     H13260   7.755   8.993   3.904  1.2195  0.0452  0.4015
  839MOL0     H13261   7.435   8.846   3.704 -0.1887  2.7161 -0.8870
  839MOL0     H13262   8.143   8.451   3.907  0.0880  2.9889  2.3564
  839MOL0     H13263   8.322   8.202   3.944  0.4859 -0.4932 -0.2464
  839MOL0     H13264   8.393   8.279   4.093 -0.2369  1.3200  0.3694
  839MOL0     H13265   8.223   8.302   4.046 -0.3809 -1.1231 -1.9884
  840MOL0     O13266   3.096   3.463   2.233  0.3495 -0.0909  0.6120
  840MOL0     C13267   3.156   3.449   2.122 -1.0374 -0.2903 -0.6031
  840MOL0     O13268   3.176   3.338   2.052 -0.3798 -0.2182 -0.1001
  840MOL0     C13269   3.095   3.226   2.065 -0.3759  0.2538 -0.0402
  840MOL0     C13270   3.019   3.187   1.954 -0.0054  0.4579  0.0042
  840MOL0     C13271   2.942   3.072   1.954  0.4680  1.0236 -0.3427
  840MOL0     C13272   2.923   2.997   2.073  0.0387  1.1057 -0.9536
  840MOL0     O13273   2.825   2.899   2.079 -0.3569 -0.5558  0.2614
  840MOL0     C13274   2.835   2.807   2.183  0.0892 -0.8683 -0.1908
  840MOL0     C13275   2.724   2.703   2.156 -0.2300  0.1871  0.7874
  840MOL0     C13276   2.713   2.604   2.281 -0.3989 -0.0611 -0.3522
  840MOL0     C13277   2.617   2.490   2.241  0.3144  0.1997 -0.2467
  840MOL0     C13278   2.639   2.369   2.331  0.4705  0.1777  0.3916
  840MOL0     C13279   2.567   2.386   2.463  0.3856 -0.3744 -0.2858
  840MOL0     C13280   2.602   2.267   2.558 -0.0885 -0.0681  0.0357
  840MOL0     C13281   2.527   2.281   2.684  0.1814 -0.0378 -0.5377
  840MOL0     N13282   2.499   2.154   2.746 -0.5917  0.3792 -0.1958
  840MOL0     C13283   2.442   2.038   2.685 -0.1899  0.4931  0.2783
  840MOL0     C13284   2.470   1.936   2.782  0.3260 -1.2161  0.1569
  840MOL0     C13285   2.428   1.793   2.760  1.1220  1.4131  0.3800
  840MOL0     C13286   2.273   1.776   2.783  0.2403 -0.9911 -0.4299
  840MOL0     C13287   2.219   1.801   2.919 -0.4467  0.6352  0.2708
  840MOL0     C13288   2.073   1.755   2.928  0.1861 -0.0532  0.8898
  840MOL0     O13289   1.997   1.877   2.944 -0.1477 -0.0776 -0.1242
  840MOL0     C13290   1.876   1.879   2.883  0.2775  0.8207  0.3691
  840MOL0     C13291   1.857   1.944   2.759  0.5343 -0.0198  1.2531
  840MOL0     C13292   1.725   1.956   2.710  0.2336 -0.3615 -0.1542
  840MOL0     C13293   1.615   1.895   2.784  0.0529  0.1598  0.0475
  840MOL0     C13294   1.480   1.930   2.740  0.3121 -0.8397  0.4961
  840MOL0     O13295   1.380   1.853   2.777 -0.3039 -0.1122 -0.0564
  840MOL0     C13296   1.253   1.878   2.730 -0.8738 -0.0975 -0.0258
  840MOL0     C13297   1.167   1.978   2.772  0.3187  0.3085 -0.9262
  840MOL0     C13298   1.036   1.978   2.731  0.6088  0.2277  0.4216
  840MOL0     C13299   0.976   1.878   2.654  0.1103  0.2145  0.2311
  840MOL0     O13300   0.853   1.878   2.603 -0.8196  0.0542 -0.6726
  840MOL0     C13301   0.771   1.996   2.614  1.5014 -0.2596 -0.3399
  840MOL0     C13302   0.696   2.022   2.478  0.8314 -0.3984 -0.1627
  840MOL0     C13303   0.601   1.904   2.440 -0.0644  0.4522  0.2186
  840MOL0     C13304   0.494   1.957   2.344  0.7204  0.7120 -0.0917
  840MOL0     C13305   0.384   1.849   2.324  0.5881  0.4333  0.4607
  840MOL0     C13306   0.308   1.876   2.190  0.0718  0.2554 -0.9394
  840MOL0     C13307   0.210   1.766   2.143  0.1971  0.6317 -0.6705
  840MOL0     C13308   0.166   1.802   2.001 -0.9478 -0.0072  0.2991
  840MOL0    Cl13309   0.063   1.942   2.016  0.2173  0.1095  0.5485
  840MOL0     C13310   1.058   1.774   2.620 -0.4184 -0.8556  0.8756
  840MOL0     C13311   1.197   1.776   2.659  1.7774 -0.3569  1.0264
  840MOL0     O13312   1.470   2.023   2.654 -0.3909 -0.2366  0.8410
  840MOL0     C13313   1.638   1.827   2.908  0.6320  1.6164 -0.3727
  840MOL0     C13314   1.772   1.818   2.955 -0.4326 -0.4090  0.3738
  840MOL0     N13315   2.529   1.992   2.890 -0.6063 -0.1842  0.5636
  840MOL0     N13316   2.546   2.117   2.870  0.7883 -0.1986  0.5646
  840MOL0     C13317   3.001   3.039   2.184 -0.7329  0.0665 -0.3526
  840MOL0     C13318   3.096   3.150   2.176  0.3910 -0.2115  0.0128
  840MOL0     C13319   3.205   3.573   2.067  0.4981 -0.3025 -0.0040
  840MOL0     C13320   3.166   3.610   1.934  0.4375 -0.2616 -0.6216
  840MOL0     C13321   3.211   3.727   1.880  0.4129 -0.8571  0.3678
  840MOL0     C13322   3.279   3.826   1.953  0.3383 -0.0221 -0.4040
  840MOL0     O13323   3.317   3.947   1.902 -0.6640 -0.1135  0.1578
  840MOL0     C13324   3.220   4.020   1.829 -0.2266 -0.1789  0.7992
  840MOL0     C13325   3.092   4.039   1.902  0.8910  0.2245 -0.5904
  840MOL0     C13326   3.101   4.121   2.042  0.8727 -0.0443  0.2450
  840MOL0     C13327   2.966   4.133   2.116 -0.5344 -0.8251 -0.3428
  840MOL0     C13328   2.970   4.220   2.229  0.0781 -0.9814  0.0685
  840MOL0     C13329   2.988   4.287   2.328  0.4607 -0.5747  0.0269
  840MOL0     C13330   3.317   3.784   2.085 -0.0895 -0.4865 -0.0409
  840MOL0     C13331   3.279   3.661   2.140  0.2716  0.1822  0.2313
  840MOL0     C13332   3.333   3.629   2.278 -0.0973 -0.5822 -0.0214
  840MOL0     H13333   3.023   3.250   1.866 -1.2835  0.1339 -0.3076
  840MOL0     H13334   2.880   3.064   1.865  0.3692 -2.2308 -0.1099
  840MOL0     H13335   2.936   2.766   2.193  0.2946 -0.8662 -1.9013
  840MOL0     H13336   2.808   2.848   2.281 -0.5696 -0.8295 -0.3835
  840MOL0     H13337   2.760   2.649   2.068 -2.5418 -1.3699  0.6897
  840MOL0     H13338   2.629   2.742   2.118  1.1616  0.6953 -2.5260
  840MOL0     H13339   2.685   2.660   2.371  0.2784 -0.3897  0.0714
  840MOL0     H13340   2.813   2.559   2.288 -1.1138 -1.7562 -0.6370
  840MOL0     H13341   2.514   2.527   2.243 -0.2375 -1.0453 -2.3397
  840MOL0     H13342   2.628   2.470   2.134 -0.2926  2.3138 -0.7617
  840MOL0     H13343   2.585   2.289   2.279 -2.1247  2.3270 -0.4531
  840MOL0     H13344   2.747   2.353   2.342  0.5351  0.1790 -0.2073
  840MOL0     H13345   2.597   2.482   2.505 -1.7688 -1.4981  4.3731
  840MOL0     H13346   2.460   2.387   2.443  0.4194  0.0789 -0.4540
  840MOL0     H13347   2.709   2.272   2.579 -0.2912  1.3431  0.8393
  840MOL0     H13348   2.578   2.175   2.504 -0.7213 -0.5587  1.1217
  840MOL0     H13349   2.578   2.351   2.751  0.6407  0.7956 -1.7132
  840MOL0     H13350   2.432   2.333   2.669  0.9203  1.3426 -0.5407
  840MOL0     H13351   2.386   2.027   2.593 -0.8267 -0.5081  0.7593
  840MOL0     H13352   2.445   1.758   2.658 -0.2501 -0.0643  0.6090
  840MOL0     H13353   2.482   1.723   2.823 -1.6165 -2.6210 -1.3034
  840MOL0     H13354   2.219   1.843   2.717  0.1213 -0.1695  0.4742
  840MOL0     H13355   2.252   1.676   2.745  1.9145 -1.3478 -0.5040
  840MOL0     H13356   2.231   1.902   2.959  2.6610  0.5247 -0.1592
  840MOL0     H13357   2.274   1.727   2.978  0.3025  2.2503  1.6938
  840MOL0     H13358   2.057   1.695   3.018 -1.0639 -0.3838  0.4771
  840MOL0     H13359   2.039   1.697   2.842 -2.6733  1.8874  0.5777
  840MOL0     H13360   1.934   2.000   2.706 -1.4148  0.6677 -1.0230
  840MOL0     H13361   1.711   2.012   2.617  0.1420 -1.5559 -0.8752
  840MOL0     H13362   1.194   2.061   2.836  0.2403  0.7439 -1.4469
  840MOL0     H13363   0.971   2.058   2.765 -1.8666 -1.8195  0.8462
  840MOL0     H13364   0.699   1.969   2.691  2.3252 -0.1483  0.4842
  840MOL0     H13365   0.819   2.092   2.637  1.2039  0.3731 -2.1794
  840MOL0     H13366   0.630   2.107   2.496 -0.6535 -0.7779 -3.0442
  840MOL0     H13367   0.765   2.053   2.399  2.0922  0.5680  1.2618
  840MOL0     H13368   0.667   1.827   2.397 -1.7648 -0.8290 -0.2034
  840MOL0     H13369   0.564   1.863   2.534  1.0262 -1.6810 -0.2161
  840MOL0     H13370   0.537   1.975   2.245 -0.7592 -1.2896 -1.1906
  840MOL0     H13371   0.439   2.048   2.369 -1.0627 -0.2030 -0.4849
  840MOL0     H13372   0.313   1.850   2.407  1.0084 -1.3470  0.8806
  840MOL0     H13373   0.425   1.748   2.327  0.3514  0.3509  1.2828
  840MOL0     H13374   0.252   1.970   2.200 -1.8770 -0.9718  0.3839
  840MOL0     H13375   0.390   1.886   2.118  1.7164 -0.0808  0.8050
  840MOL0     H13376   0.119   1.763   2.204  0.6776  1.1617  0.0814
  840MOL0     H13377   0.252   1.664   2.145  0.4842  0.7476  1.6944
  840MOL0     H13378   0.254   1.814   1.936 -2.4662 -0.8352 -2.0476
  840MOL0     H13379   0.111   1.722   1.952  2.2924 -0.4851 -3.0111
  840MOL0     H13380   1.023   1.716   2.536 -1.3535  0.7063  0.1526
  840MOL0     H13381   1.262   1.694   2.634 -0.0893 -1.6988  0.3722
  840MOL0     H13382   1.561   1.791   2.974 -1.4789  0.6035 -3.1919
  840MOL0     H13383   1.800   1.769   3.048  0.1079  0.6923  0.8141
  840MOL0     H13384   2.999   2.998   2.284  0.5913  0.1160 -0.2891
  840MOL0     H13385   3.147   3.187   2.264  0.8544 -0.7577 -0.0264
  840MOL0     H13386   3.113   3.536   1.875 -0.6542  0.2696 -0.3180
  840MOL0     H13387   3.186   3.750   1.777  0.6517  1.3912  0.7514
  840MOL0     H13388   3.203   3.978   1.729  1.4752 -0.4378  0.5811
  840MOL0     H13389   3.272   4.115   1.813  0.6032 -0.9298 -1.4385
  840MOL0     H13390   3.051   3.939   1.922  0.8931  0.0248 -1.5328
  840MOL0     H13391   3.024   4.084   1.829  2.5290  1.8846 -1.1872
  840MOL0     H13392   3.133   4.222   2.014 -1.2455  0.2587 -1.3249
  840MOL0     H13393   3.182   4.085   2.106  2.1674  3.2627  0.6839
  840MOL0     H13394   2.889   4.176   2.051 -1.1674  0.6367  1.3083
  840MOL0     H13395   2.937   4.038   2.162  0.4910 -0.7599  0.4834
  840MOL0     H13396   3.024   4.334   2.417 -0.9860  0.5570  0.0390
  840MOL0     H13397   3.383   3.844   2.147  0.0528  0.8620 -1.4039
  840MOL0     H13398   3.339   3.523   2.301 -2.0477 -0.8458 -0.5781
  840MOL0     H13399   3.435   3.669   2.290  1.6061 -2.2781 -5.6959
  840MOL0     H13400   3.275   3.680   2.356  2.3046 -0.5110  1.8413
  841MOL0     O13401   4.850  11.225   1.511  0.0508  0.4209 -0.6301
  841MOL0     C13402   4.785  11.250   1.414  0.1718 -0.4345  0.3484
  841MOL0     O13403   4.824  11.218   1.287 -0.5015 -0.4002 -0.4156
  841MOL0     C13404   4.943  11.165   1.246  0.1501 -0.1159  0.0021
  841MOL0     C13405   5.063  11.184   1.307  0.3390 -0.5612 -0.1898
  841MOL0     C13406   5.169  11.101   1.289 -0.7918  0.0415  0.1687
  841MOL0     C13407   5.166  11.017   1.174 -0.1095 -0.1479 -0.8662
  841MOL0     O13408   5.289  10.951   1.149  0.0514 -0.4631  0.1707
  841MOL0     C13409   5.331  10.945   1.010 -0.3513 -1.4995 -0.0903
  841MOL0     C13410   5.431  10.835   0.976  0.4479  0.2756 -0.0384
  841MOL0     C13411   5.562  10.850   1.052 -0.0219 -0.0766 -0.4962
  841MOL0     C13412   5.665  10.746   0.993  0.4738 -0.5581 -0.0725
  841MOL0     C13413   5.811  10.769   1.038  0.1051  1.0432 -0.6345
  841MOL0     C13414   5.873  10.903   0.991 -0.0425 -0.4856 -0.0085
  841MOL0     C13415   5.891  10.930   0.839  0.3070 -0.3042 -0.5528
  841MOL0     C13416   5.923  11.084   0.824  0.0837  0.6630  0.4012
  841MOL0     N13417   6.056  11.133   0.876  0.2895 -0.1035 -0.2468
  841MOL0     C13418   6.176  11.145   0.811 -0.8396 -0.3332 -0.0220
  841MOL0     C13419   6.261  11.176   0.919 -0.0562  0.2911  0.7441
  841MOL0     C13420   6.410  11.178   0.903 -0.3801 -0.4956 -0.4923
  841MOL0     C13421   6.496  11.141   1.030 -0.6355 -0.1795 -0.2134
  841MOL0     C13422   6.645  11.174   1.008 -0.4590  0.2538  0.3885
  841MOL0     C13423   6.720  11.144   1.137 -0.7460 -0.3089  0.7851
  841MOL0     O13424   6.823  11.046   1.117 -0.3819  0.7733  0.5017
  841MOL0     C13425   6.942  11.074   1.054  0.9821 -0.5371  1.7656
  841MOL0     C13426   6.983  11.201   1.005 -1.0150  0.9387  0.0329
  841MOL0     C13427   7.106  11.221   0.940 -0.3758 -0.3204  0.2221
  841MOL0     C13428   7.194  11.107   0.914 -0.2065  0.0517  0.2195
  841MOL0     C13429   7.330  11.123   0.856 -0.2830 -0.1620 -0.0444
  841MOL0     O13430   7.375  11.250   0.823  0.4129  0.0247  0.4051
  841MOL0     C13431   7.510  11.266   0.776  0.4710  0.7854  0.0169
  841MOL0     C13432   7.622  11.200   0.830 -0.3835  0.1611  1.4083
  841MOL0     C13433   7.751  11.218   0.780 -0.9310 -0.3188  0.2771
  841MOL0     C13434   7.772  11.297   0.665  0.1577 -0.1997 -0.4630
  841MOL0     O13435   7.898  11.331   0.619  0.1994 -0.0063 -0.4521
  841MOL0     C13436   8.000  11.224   0.619 -1.4411 -0.8299 -0.1689
  841MOL0     C13437   8.120  11.250   0.523 -0.5348  0.4508  0.2130
  841MOL0     C13438   8.188  11.382   0.545 -0.1044  0.1475 -0.2478
  841MOL0     C13439   8.264  11.384   0.681 -0.4851  0.5599 -0.2424
  841MOL0     C13440   8.388  11.302   0.691 -0.1158  0.4072  0.7597
  841MOL0     C13441   8.492  11.347   0.588  0.1354  0.0396 -0.6050
  841MOL0     C13442   8.647  11.300   0.616 -0.3447  0.2872  0.0024
  841MOL0     C13443   8.744  11.362   0.522 -0.3952  0.5184  0.6846
  841MOL0    Cl13444   8.908  11.318   0.598 -0.0164 -0.6523 -0.1969
  841MOL0     C13445   7.659  11.371   0.616  0.5600 -0.0765  0.7969
  841MOL0     C13446   7.537  11.348   0.671  0.0432 -0.1231 -0.8781
  841MOL0     O13447   7.395  11.019   0.830 -0.2894 -0.1029 -0.0742
  841MOL0     C13448   7.156  10.985   0.972  0.2366  0.1386  0.0511
  841MOL0     C13449   7.030  10.965   1.026 -0.3421 -0.0466  0.0286
  841MOL0     N13450   6.190  11.206   1.031 -0.1432  0.4781 -0.0242
  841MOL0     N13451   6.070  11.184   1.001  0.7825 -0.0985  0.6060
  841MOL0     C13452   5.047  11.009   1.098 -0.4194  0.2666  0.1300
  841MOL0     C13453   4.929  11.072   1.141 -0.3832 -0.7640 -0.0286
  841MOL0     C13454   4.668  11.344   1.429 -0.1041  0.3647 -1.0284
  841MOL0     C13455   4.675  11.458   1.351  0.3805  0.5673  0.6921
  841MOL0     C13456   4.577  11.548   1.354  0.3197  0.1562  0.1343
  841MOL0     C13457   4.453  11.523   1.424  0.7503  0.1293  0.3959
  841MOL0     O13458   4.358  11.617   1.425  0.4088 -0.0542 -0.3588
  841MOL0     C13459   4.235  11.591   1.356  0.8529 -0.2400  0.2317
  841MOL0     C13460   4.120  11.549   1.449  0.4027  0.4323  0.0024
  841MOL0     C13461   4.119  11.642   1.574 -0.3911 -0.1320  0.0378
  841MOL0     C13462   3.975  11.647   1.636 -0.1699  0.0503 -0.1257
  841MOL0     C13463   3.930  11.515   1.678  0.4958 -0.2503 -0.5740
  841MOL0     C13464   3.874  11.403   1.695  0.3319  0.2982  0.7391
  841MOL0     C13465   4.440  11.406   1.495  0.2138 -0.2665 -0.4606
  841MOL0     C13466   4.559  11.320   1.507  1.2310 -0.4032  0.3831
  841MOL0     C13467   4.530  11.195   1.586 -0.0274  0.1442  0.1622
  841MOL0     H13468   5.061  11.261   1.383  1.6007  0.4984 -1.1778
  841MOL0     H13469   5.255  11.110   1.355 -2.4778 -0.6675  2.5591
  841MOL0     H13470   5.241  10.910   0.959  0.7393 -2.2510 -1.5713
  841MOL0     H13471   5.352  11.046   0.974 -3.4436  0.1091  2.0694
  841MOL0     H13472   5.466  10.843   0.873 -2.9514  2.1178 -1.2029
  841MOL0     H13473   5.386  10.737   0.989 -0.8021  0.6429 -1.3645
  841MOL0     H13474   5.542  10.829   1.158 -0.8083  2.8445  0.0050
  841MOL0     H13475   5.608  10.948   1.035 -1.3291  0.5531 -0.4618
  841MOL0     H13476   5.624  10.645   1.007 -0.9245 -0.1766 -1.1446
  841MOL0     H13477   5.674  10.763   0.886  3.8326  0.8918  0.3197
  841MOL0     H13478   5.808  10.757   1.146 -2.0720 -2.3662 -0.9218
  841MOL0     H13479   5.881  10.695   0.996  1.6433  3.2185 -2.1328
  841MOL0     H13480   5.820  10.980   1.048 -1.6115  0.5154 -2.6457
  841MOL0     H13481   5.975  10.897   1.031 -0.7945 -0.5275  2.0299
  841MOL0     H13482   5.800  10.901   0.785 -0.9517 -0.4048  1.5054
  841MOL0     H13483   5.979  10.875   0.804  0.9200  0.3632 -0.0918
  841MOL0     H13484   5.923  11.098   0.715 -2.1575  0.4384  0.3132
  841MOL0     H13485   5.840  11.138   0.871 -0.5064 -0.3761  0.5921
  841MOL0     H13486   6.197  11.133   0.705  0.2201  1.2006 -0.0298
  841MOL0     H13487   6.437  11.116   0.817 -1.0095 -0.4766 -0.7142
  841MOL0     H13488   6.435  11.281   0.875 -0.1318 -0.4180  0.0107
  841MOL0     H13489   6.461  11.196   1.118 -1.6043 -2.0683  0.6400
  841MOL0     H13490   6.484  11.035   1.053 -0.3751  0.1468  1.5797
  841MOL0     H13491   6.658  11.282   0.996 -0.4162  0.2216  0.1333
  841MOL0     H13492   6.680  11.111   0.925  0.8976  1.0557  0.3255
  841MOL0     H13493   6.649  11.103   1.209  0.2326  0.1726  2.0657
  841MOL0     H13494   6.763  11.239   1.169 -1.3776  0.8552 -1.5512
  841MOL0     H13495   6.927  11.294   1.007  1.7407  2.7124  0.2203
  841MOL0     H13496   7.130  11.318   0.896 -1.0714  0.1974  0.9620
  841MOL0     H13497   7.598  11.136   0.915 -2.7867 -1.0047 -0.0415
  841MOL0     H13498   7.834  11.156   0.813 -0.7113 -0.4426 -0.4824
  841MOL0     H13499   8.037  11.213   0.721 -0.6580  0.4104 -0.2838
  841MOL0     H13500   7.961  11.126   0.593 -4.4538  0.1548  0.3321
  841MOL0     H13501   8.189  11.166   0.537  1.6641  1.7138 -2.2030
  841MOL0     H13502   8.086  11.245   0.419  1.8829  1.1003 -0.6878
  841MOL0     H13503   8.260  11.404   0.466 -0.9659 -0.8699 -1.3615
  841MOL0     H13504   8.112  11.460   0.543  1.7324  2.0706  1.4084
  841MOL0     H13505   8.197  11.352   0.761  1.2334 -3.7677 -0.2463
  841MOL0     H13506   8.306  11.484   0.694 -0.0142  0.8896 -3.3906
  841MOL0     H13507   8.361  11.197   0.675 -0.3766  0.8196 -2.1032
  841MOL0     H13508   8.431  11.300   0.791 -1.3586  1.6963  1.3480
  841MOL0     H13509   8.467  11.298   0.494  3.0447 -0.0966 -1.4091
  841MOL0     H13510   8.490  11.455   0.574  3.2486  0.3446  0.4909
  841MOL0     H13511   8.657  11.191   0.609 -0.1409  0.1882  1.4747
  841MOL0     H13512   8.671  11.324   0.720 -1.5247 -2.6559  1.0844
  841MOL0     H13513   8.746  11.321   0.420  0.7604  2.7254 -0.2473
  841MOL0     H13514   8.726  11.469   0.510  2.5210  0.8294 -2.5800
  841MOL0     H13515   7.685  11.433   0.531 -0.9687  0.5514  0.7479
  841MOL0     H13516   7.457  11.410   0.632 -0.3285 -0.2392 -0.3176
  841MOL0     H13517   7.230  10.908   0.956  0.3974  0.4850 -1.0094
  841MOL0     H13518   7.019  10.864   1.065 -4.1822 -0.8050 -2.4567
  841MOL0     H13519   5.051  10.947   1.009  2.4385 -0.4252  0.6342
  841MOL0     H13520   4.835  11.061   1.088 -1.8097  1.9082  1.7055
  841MOL0     H13521   4.763  11.482   1.293 -0.1910  2.4681  0.5564
  841MOL0     H13522   4.585  11.644   1.305 -0.3446  0.6130  0.9003
  841MOL0     H13523   4.240  11.515   1.277 -3.4419  2.0089 -2.6643
  841MOL0     H13524   4.206  11.681   1.300 -1.2351  0.1752  1.8607
  841MOL0     H13525   4.133  11.445   1.480 -0.3861  0.2318 -0.3160
  841MOL0     H13526   4.026  11.557   1.394 -1.0304 -3.5170  1.4882
  841MOL0     H13527   4.156  11.743   1.554 -3.9019  1.4652  0.8550
  841MOL0     H13528   4.185  11.596   1.648  0.4864  1.6221  0.4097
  841MOL0     H13529   3.987  11.717   1.719 -0.5624  0.0335 -0.0522
  841MOL0     H13530   3.900  11.695   1.571  2.4667 -0.1635 -3.6086
  841MOL0     H13531   3.839  11.307   1.730  2.7479 -0.5594  1.0035
  841MOL0     H13532   4.353  11.393   1.559  0.3041  0.8266 -0.1072
  841MOL0     H13533   4.588  11.194   1.679  1.9200  2.6962 -0.9078
  841MOL0     H13534   4.427  11.186   1.621  0.0148  0.5862  0.4149
  841MOL0     H13535   4.561  11.108   1.528  1.8511  1.0686 -0.3047
  842MOL0     O13536   2.539   7.553   1.886  0.6422  0.6856  0.4846
  842MOL0     C13537   2.541   7.430   1.880 -0.1009  0.7736  0.5152
  842MOL0     O13538   2.646   7.359   1.932  0.6417 -0.0769 -0.0372
  842MOL0     C13539   2.760   7.409   1.991  1.0583 -0.8049  0.6336
  842MOL0     C13540   2.770   7.529   2.059 -0.1630 -0.2348  0.3125
  842MOL0     C13541   2.901   7.566   2.103  0.2651 -0.3051 -0.7998
  842MOL0     C13542   3.011   7.488   2.071  0.4864 -0.2178 -0.2615
  842MOL0     O13543   3.132   7.531   2.111 -0.2823 -0.0835 -0.2085
  842MOL0     C13544   3.159   7.608   2.237 -0.5936 -0.2493 -1.0840
  842MOL0     C13545   3.312   7.632   2.232  0.1226 -0.2588  0.2492
  842MOL0     C13546   3.399   7.518   2.285  0.5911 -0.4234  0.1635
  842MOL0     C13547   3.537   7.576   2.307 -0.0744  0.4258 -0.6094
  842MOL0     C13548   3.640   7.482   2.382  0.1148 -0.1918 -0.1922
  842MOL0     C13549   3.762   7.566   2.424 -0.3447 -0.1661  0.9363
  842MOL0     C13550   3.866   7.502   2.508  0.0069 -0.7041  0.9501
  842MOL0     C13551   3.942   7.388   2.439 -0.0427  0.0099  0.8465
  842MOL0     N13552   4.053   7.347   2.518  0.5502 -0.5434 -0.5167
  842MOL0     C13553   4.083   7.383   2.648 -0.1440  0.1162 -0.1191
  842MOL0     C13554   4.160   7.276   2.699 -0.3113 -0.3154  0.3418
  842MOL0     C13555   4.242   7.275   2.833  0.0250  0.7125  0.2016
  842MOL0     C13556   4.387   7.292   2.810 -0.4279 -0.4277 -0.0659
  842MOL0     C13557   4.458   7.335   2.938 -0.2236 -0.0203  0.0390
  842MOL0     C13558   4.609   7.335   2.913 -0.5288 -0.1305  0.2875
  842MOL0     O13559   4.639   7.460   2.847  1.1638 -0.6980  0.2794
  842MOL0     C13560   4.764   7.489   2.809 -0.8747 -1.3593 -0.4052
  842MOL0     C13561   4.863   7.395   2.781  0.3010 -0.1612  0.0482
  842MOL0     C13562   4.982   7.424   2.729  0.4073 -0.6136  0.1603
  842MOL0     C13563   5.024   7.558   2.715  0.3609 -0.1109  0.6107
  842MOL0     C13564   5.156   7.591   2.647 -0.3326  0.5336  0.3112
  842MOL0     O13565   5.190   7.723   2.629  0.3662  0.5401 -0.3967
  842MOL0     C13566   5.314   7.760   2.591  0.2716 -0.1233  0.1332
  842MOL0     C13567   5.390   7.701   2.484 -0.1615  0.7420  0.4893
  842MOL0     C13568   5.492   7.766   2.428  0.0643 -0.5074  0.7354
  842MOL0     C13569   5.543   7.884   2.476  0.6353  0.4755 -1.0678
  842MOL0     O13570   5.659   7.921   2.427 -0.1935 -0.8418  0.3674
  842MOL0     C13571   5.728   8.039   2.490 -0.2413  0.3790 -0.4513
  842MOL0     C13572   5.866   8.067   2.436 -0.2627 -0.4073 -0.2870
  842MOL0     C13573   5.971   7.970   2.488  0.3364  0.2527  0.2451
  842MOL0     C13574   6.095   7.957   2.406 -0.1919 -0.7043  0.3248
  842MOL0     C13575   6.183   7.844   2.443  0.1586  0.1319 -0.8086
  842MOL0     C13576   6.259   7.858   2.577 -0.1217 -0.3254 -0.2083
  842MOL0     C13577   6.375   7.764   2.580 -0.2700  0.1671  0.0845
  842MOL0     C13578   6.420   7.721   2.726  0.0889  0.3130  0.1522
  842MOL0    Cl13579   6.457   7.873   2.819 -0.5663  0.3609  0.8936
  842MOL0     C13580   5.471   7.948   2.584  0.8116  0.0581  0.1770
  842MOL0     C13581   5.353   7.886   2.639 -0.4966 -0.0384  1.0948
  842MOL0     O13582   5.223   7.491   2.613  0.6844 -0.7565  0.8646
  842MOL0     C13583   4.923   7.659   2.722  0.0692  0.6154  0.0875
  842MOL0     C13584   4.790   7.623   2.771 -0.0299 -0.5877 -0.3424
  842MOL0     N13585   4.182   7.194   2.582 -0.8799 -0.4453  0.5290
  842MOL0     N13586   4.132   7.248   2.475 -0.0011 -0.5721 -0.1064
  842MOL0     C13587   2.993   7.363   2.004 -0.7321 -0.3804 -1.0883
  842MOL0     C13588   2.866   7.320   1.974  0.0714  0.8351  0.1197
  842MOL0     C13589   2.422   7.361   1.824 -0.3589  0.3141 -0.4159
  842MOL0     C13590   2.365   7.243   1.894 -0.0287  0.7863  0.5967
  842MOL0     C13591   2.255   7.176   1.842  0.5338 -0.6417 -0.4881
  842MOL0     C13592   2.198   7.216   1.719  0.4626  0.7616  1.0945
  842MOL0     O13593   2.077   7.155   1.686  0.0116  0.3285 -0.4445
  842MOL0     C13594   2.035   7.158   1.548 -0.3491 -0.9328 -0.2538
  842MOL0     C13595   1.899   7.098   1.535 -0.6962 -0.1360 -0.5503
  842MOL0     C13596   1.778   7.193   1.569 -0.5795  0.1783  0.4604
  842MOL0     C13597   1.649   7.120   1.525 -0.2529  0.0515 -0.7011
  842MOL0     C13598   1.530   7.188   1.574 -0.1449  0.2455  0.4445
  842MOL0     C13599   1.427   7.235   1.611  0.6436  0.1611  0.0213
  842MOL0     C13600   2.257   7.328   1.651 -0.4739  0.8145  0.3291
  842MOL0     C13601   2.362   7.396   1.704 -0.3871  1.0668  0.8800
  842MOL0     C13602   2.434   7.492   1.608  0.0308  0.6838  0.1216
  842MOL0     H13603   2.686   7.595   2.075  1.0944  1.7321 -0.7694
  842MOL0     H13604   2.908   7.648   2.174  1.8056 -2.4599  1.7224
  842MOL0     H13605   3.111   7.705   2.224 -1.9144 -0.7105  0.1090
  842MOL0     H13606   3.130   7.553   2.327  0.8472 -2.2726 -1.7778
  842MOL0     H13607   3.332   7.727   2.283  0.1784  0.9930 -2.0050
  842MOL0     H13608   3.344   7.632   2.128  0.1611 -3.1403  0.1859
  842MOL0     H13609   3.400   7.435   2.213 -1.3125 -1.5360  1.3510
  842MOL0     H13610   3.346   7.484   2.374  0.1129 -0.7686 -0.2452
  842MOL0     H13611   3.572   7.593   2.205 -3.3061 -0.3966 -1.9856
  842MOL0     H13612   3.531   7.667   2.368 -0.8638 -0.5339  0.7859
  842MOL0     H13613   3.595   7.435   2.469 -1.6206 -2.2868 -2.1108
  842MOL0     H13614   3.680   7.400   2.323 -0.0609 -0.4582  0.0572
  842MOL0     H13615   3.802   7.584   2.324 -3.2256 -0.3251 -0.3547
  842MOL0     H13616   3.724   7.652   2.480 -4.8162 -0.8877 -0.5859
  842MOL0     H13617   3.821   7.467   2.601 -2.2943  0.8100  0.4756
  842MOL0     H13618   3.945   7.576   2.526 -1.8147  1.3380  0.8918
  842MOL0     H13619   3.872   7.306   2.419 -1.5045  0.3120  4.1976
  842MOL0     H13620   3.979   7.416   2.340 -0.4909 -0.8939  0.4121
  842MOL0     H13621   4.034   7.460   2.708  1.1816 -1.2735  2.9832
  842MOL0     H13622   4.207   7.352   2.902 -0.2432  1.3972 -0.6673
  842MOL0     H13623   4.224   7.174   2.871 -0.1763 -0.4240 -2.6700
  842MOL0     H13624   4.440   7.204   2.772  2.3123  1.6391 -1.3712
  842MOL0     H13625   4.400   7.370   2.734  0.4545 -1.9040 -1.4964
  842MOL0     H13626   4.431   7.262   3.016 -1.1908  1.4672  1.1459
  842MOL0     H13627   4.424   7.433   2.971 -1.7557 -0.2183 -0.8688
  842MOL0     H13628   4.636   7.248   2.854  0.0967  0.4509 -0.2970
  842MOL0     H13629   4.664   7.325   3.007  0.5470  0.2914 -0.2843
  842MOL0     H13630   4.845   7.288   2.780 -1.0547 -0.1800  4.7923
  842MOL0     H13631   5.057   7.351   2.698  2.5853  1.9242 -0.9398
  842MOL0     H13632   5.340   7.617   2.436 -0.5053  2.3069 -2.0932
  842MOL0     H13633   5.544   7.736   2.337 -0.3129  0.9118  0.0080
  842MOL0     H13634   5.668   8.127   2.465  0.8335  2.3542  3.2157
  842MOL0     H13635   5.736   8.038   2.599 -1.5105  1.0741 -0.3279
  842MOL0     H13636   5.856   8.067   2.327 -2.1784  1.1851 -0.1509
  842MOL0     H13637   5.885   8.167   2.475  1.3768 -0.7949 -0.0130
  842MOL0     H13638   5.990   8.008   2.589 -0.0725  2.7486 -0.5513
  842MOL0     H13639   5.927   7.870   2.498 -0.9969  0.5988 -1.6300
  842MOL0     H13640   6.169   8.038   2.410 -2.6195  1.6200  0.8657
  842MOL0     H13641   6.058   7.960   2.303 -0.2839  0.6417  0.3748
  842MOL0     H13642   6.258   7.836   2.364  0.4206 -1.2956 -0.4430
  842MOL0     H13643   6.122   7.752   2.444  1.8612 -1.0512 -1.0722
  842MOL0     H13644   6.306   7.956   2.574  0.8607 -0.7248  1.2388
  842MOL0     H13645   6.197   7.840   2.666 -2.6149  1.5079 -1.4574
  842MOL0     H13646   6.471   7.806   2.551  0.4937 -1.7057 -0.2452
  842MOL0     H13647   6.352   7.677   2.517 -0.2125  1.8603 -2.4070
  842MOL0     H13648   6.338   7.677   2.783 -0.4383  0.4084 -0.5222
  842MOL0     H13649   6.500   7.647   2.718  0.9408  1.4341 -4.6694
  842MOL0     H13650   5.497   8.047   2.619 -1.1383  0.0690  1.7428
  842MOL0     H13651   5.296   7.946   2.709  2.2386  3.9516  0.2499
  842MOL0     H13652   4.941   7.766   2.710 -0.2509  0.4129 -2.7608
  842MOL0     H13653   4.704   7.689   2.768 -0.4971 -1.0677  1.3938
  842MOL0     H13654   3.091   7.319   1.994 -0.0839  0.5841  0.5611
  842MOL0     H13655   2.844   7.223   1.929  5.1120 -1.2901  1.5252
  842MOL0     H13656   2.400   7.218   1.993  0.1988  1.9962  0.8294
  842MOL0     H13657   2.200   7.096   1.891  1.1477 -1.0766 -0.4958
  842MOL0     H13658   2.099   7.090   1.491  0.6036 -0.9980  0.8526
  842MOL0     H13659   2.045   7.262   1.516  0.9801  0.3492  3.6393
  842MOL0     H13660   1.897   7.010   1.600  1.0062 -1.0296 -1.6429
  842MOL0     H13661   1.888   7.066   1.431 -1.7130 -2.9042  0.3278
  842MOL0     H13662   1.788   7.290   1.521  3.3414 -0.5464 -0.5350
  842MOL0     H13663   1.786   7.218   1.675  1.0492 -1.6153  0.8064
  842MOL0     H13664   1.645   7.104   1.417  1.0502  0.5907 -0.8523
  842MOL0     H13665   1.645   7.020   1.569 -3.9411 -0.0323 -0.8647
  842MOL0     H13666   1.341   7.299   1.624  1.9251  2.7547 -2.8909
  842MOL0     H13667   2.205   7.370   1.565 -0.8339 -4.9571 -2.7463
  842MOL0     H13668   2.474   7.438   1.522 -1.7795  0.5250 -0.6608
  842MOL0     H13669   2.359   7.562   1.570 -0.3753  2.8338  4.2696
  842MOL0     H13670   2.515   7.560   1.639  1.4864  0.2621 -2.4302
  843MOL0     O13671  10.994   0.887   4.671  0.2236 -0.0100 -0.3246
  843MOL0     C13672  10.900   0.967   4.676  0.0178  0.0904  0.4012
  843MOL0     O13673  10.906   1.087   4.731  0.5306  0.9636  0.1737
  843MOL0     C13674  10.992   1.117   4.830  0.1772 -0.0510  0.5520
  843MOL0     C13675  10.943   1.163   4.957  0.0281 -0.5161  0.0019
  843MOL0     C13676  11.035   1.206   5.049  0.2513  0.7427 -0.4496
  843MOL0     C13677  11.167   1.196   5.032 -0.2761 -0.6208  0.2620
  843MOL0     O13678  11.239   1.239   5.142 -0.2094 -0.3191 -0.6303
  843MOL0     C13679  11.377   1.261   5.127  0.7371 -0.4587 -0.4497
  843MOL0     C13680  11.441   1.339   5.250  0.3523 -0.7373 -0.2394
  843MOL0     C13681  11.588   1.357   5.225 -0.5382  1.5425 -0.2715
  843MOL0     C13682  11.641   1.468   5.314  0.9579 -0.1100 -0.2729
  843MOL0     C13683  11.791   1.492   5.317  0.2863 -0.0185  0.9833
  843MOL0     C13684  11.825   1.617   5.392  0.6340 -0.5250 -0.1134
  843MOL0     C13685  11.982   1.627   5.405 -0.2330 -1.0910 -0.8544
  843MOL0     C13686  12.046   1.762   5.347 -0.6631 -0.0955  0.2845
  843MOL0     N13687  12.177   1.782   5.395 -0.1914  0.1771  0.4276
  843MOL0     C13688  12.215   1.822   5.519  0.3508 -0.4553 -0.6815
  843MOL0     C13689  12.342   1.787   5.529  0.0124  0.3568 -0.4565
  843MOL0     C13690  12.418   1.809   5.659  0.2238  0.2352  0.0812
  843MOL0     C13691  12.522   1.921   5.648  0.8183 -0.2683 -0.5294
  843MOL0     C13692  12.635   1.891   5.747  0.5712  0.2909 -0.2886
  843MOL0     C13693  12.732   2.009   5.743 -0.2175  0.0563 -0.2037
  843MOL0     O13694  12.844   2.000   5.829  0.2952  0.5473  0.1153
  843MOL0     C13695  12.960   2.077   5.817  0.3792  0.7505  0.0705
  843MOL0     C13696  13.071   2.036   5.888 -0.3136  0.7420 -1.1005
  843MOL0     C13697  13.195   2.099   5.867  0.9084 -0.1568 -0.1560
  843MOL0     C13698  13.206   2.218   5.792 -0.4264  0.0475 -0.4971
  843MOL0     C13699  13.325   2.292   5.769  0.1610  0.2572 -0.5239
  843MOL0     O13700  13.427   2.259   5.853  0.3461  0.5213  0.5574
  843MOL0     C13701  13.564   2.301   5.831  0.2206 -0.1444  0.4137
  843MOL0     C13702  13.661   2.229   5.902 -0.1063  0.7765  0.3412
  843MOL0     C13703  13.797   2.259   5.896  0.4949  0.5329  0.5729
  843MOL0     C13704  13.834   2.361   5.807 -0.2041  0.1075 -0.1315
  843MOL0     O13705  13.958   2.405   5.794  0.1956 -0.3603  0.5855
  843MOL0     C13706  14.008   2.384   5.657  0.8304 -0.6950  0.0371
  843MOL0     C13707  14.157   2.402   5.668 -0.3857  0.1392  0.8681
  843MOL0     C13708  14.219   2.448   5.539 -0.3424  0.7181 -0.2532
  843MOL0     C13709  14.366   2.415   5.556  0.1738 -0.9696 -0.2428
  843MOL0     C13710  14.449   2.449   5.430 -0.0984  0.0220 -0.0929
  843MOL0     C13711  14.598   2.413   5.453  0.8830 -1.1434 -0.0262
  843MOL0     C13712  14.683   2.436   5.333  0.1380 -0.4427  0.5489
  843MOL0     C13713  14.823   2.394   5.351 -0.8797  0.7112  0.3365
  843MOL0    Cl13714  14.902   2.393   5.196 -0.3134 -0.1791  0.3619
  843MOL0     C13715  13.735   2.437   5.733 -0.7165  0.0225 -0.1089
  843MOL0     C13716  13.601   2.421   5.763  0.7737 -1.0181 -0.3626
  843MOL0     O13717  13.340   2.358   5.662 -0.2019  0.2376 -0.5775
  843MOL0     C13718  13.094   2.252   5.719 -0.2004 -0.1076  0.3561
  843MOL0     C13719  12.972   2.182   5.726 -0.7014  0.3119 -0.0242
  843MOL0     N13720  12.387   1.741   5.412 -0.1027 -0.1322  0.1469
  843MOL0     N13721  12.283   1.734   5.335 -0.5979  0.0129  0.9177
  843MOL0     C13722  11.218   1.153   4.909  0.0474 -0.1138  0.5723
  843MOL0     C13723  11.128   1.120   4.806 -0.9925  0.4202  0.2614
  843MOL0     C13724  10.770   0.925   4.618  0.2180 -0.3258  0.5934
  843MOL0     C13725  10.666   1.018   4.606 -0.0418  0.2317 -0.7189
  843MOL0     C13726  10.543   0.994   4.539  0.4227  0.9191  0.4293
  843MOL0     C13727  10.512   0.866   4.491 -0.1807  0.0808 -0.2841
  843MOL0     O13728  10.384   0.824   4.452  0.1754  0.3837  0.4210
  843MOL0     C13729  10.293   0.924   4.403 -0.0625  0.1584 -1.0602
  843MOL0     C13730  10.198   0.871   4.295  0.9241 -0.3554  0.6211
  843MOL0     C13731  10.273   0.835   4.165 -0.0560 -0.1232  0.0426
  843MOL0     C13732  10.185   0.778   4.053  0.1754  0.0212 -0.2817
  843MOL0     C13733  10.058   0.848   4.038  0.0766 -0.1481  0.2011
  843MOL0     C13734   9.952   0.905   4.038 -0.5925  1.3262  0.1388
  843MOL0     C13735  10.606   0.765   4.517  0.1411  0.0527 -0.3405
  843MOL0     C13736  10.736   0.792   4.567  0.8812  0.4261 -0.8509
  843MOL0     C13737  10.827   0.669   4.570 -0.2423  0.2694  0.3407
  843MOL0     H13738  10.837   1.161   4.981  0.1757  0.4453  0.7822
  843MOL0     H13739  11.002   1.245   5.145  3.2068 -0.5101  1.1971
  843MOL0     H13740  11.430   1.166   5.116  5.0087  1.1397  3.3571
  843MOL0     H13741  11.389   1.318   5.035 -1.6196  2.0864  0.6550
  843MOL0     H13742  11.427   1.278   5.339 -0.2027 -2.0889 -1.2113
  843MOL0     H13743  11.391   1.436   5.260  1.4666 -0.2580  0.8488
  843MOL0     H13744  11.605   1.391   5.122 -0.9511  2.4191 -0.0532
  843MOL0     H13745  11.634   1.260   5.244 -0.0031  1.9713  0.6766
  843MOL0     H13746  11.588   1.559   5.285 -0.5155 -0.6999  0.4411
  843MOL0     H13747  11.613   1.449   5.419 -1.8042  0.4443 -0.8319
  843MOL0     H13748  11.832   1.401   5.362 -1.9162 -2.0891 -0.9021
  843MOL0     H13749  11.827   1.505   5.214  1.9222  0.6468  1.6076
  843MOL0     H13750  11.789   1.704   5.337  2.2865  0.1549 -0.1797
  843MOL0     H13751  11.779   1.601   5.490  2.9053 -1.4478  0.8903
  843MOL0     H13752  12.031   1.544   5.354  2.1525 -0.2374 -0.0941
  843MOL0     H13753  12.005   1.617   5.511  3.0552  3.6004 -0.7961
  843MOL0     H13754  12.068   1.760   5.240  1.0990 -1.5873  0.6116
  843MOL0     H13755  11.986   1.850   5.370 -0.6250 -0.7607  3.4576
  843MOL0     H13756  12.144   1.865   5.588  0.3410  0.5769 -1.3123
  843MOL0     H13757  12.345   1.818   5.740  0.2920  0.2291  0.1434
  843MOL0     H13758  12.471   1.716   5.684 -0.8453  0.1623  2.3115
  843MOL0     H13759  12.566   1.930   5.548 -2.7811 -1.9169 -2.4572
  843MOL0     H13760  12.473   2.014   5.679  1.7672 -0.2876  1.1120
  843MOL0     H13761  12.684   1.804   5.701  2.1962  1.7440 -1.4230
  843MOL0     H13762  12.585   1.876   5.843  2.4398  1.6812  0.9631
  843MOL0     H13763  12.679   2.101   5.770  0.2581  1.0244 -2.3326
  843MOL0     H13764  12.763   2.032   5.641 -3.0662  1.7668 -0.7980
  843MOL0     H13765  13.045   1.948   5.944 -2.4171  1.2989 -1.1452
  843MOL0     H13766  13.284   2.061   5.916 -0.6962 -2.3220  1.2771
  843MOL0     H13767  13.624   2.141   5.954  1.5064  0.9040  1.7815
  843MOL0     H13768  13.872   2.210   5.958  2.0544 -0.9634 -2.2900
  843MOL0     H13769  13.981   2.289   5.610  1.2036 -1.3188  1.0479
  843MOL0     H13770  13.973   2.467   5.594 -1.0016 -1.2480  0.2654
  843MOL0     H13771  14.192   2.473   5.744  0.8876 -0.5163  0.9130
  843MOL0     H13772  14.194   2.303   5.694  1.8162  0.7205  0.1943
  843MOL0     H13773  14.175   2.393   5.455 -2.5977 -0.3826  1.5215
  843MOL0     H13774  14.199   2.554   5.521 -1.1740  0.7236  0.6479
  843MOL0     H13775  14.365   2.307   5.575 -4.0926 -1.2135 -0.7179
  843MOL0     H13776  14.410   2.468   5.641  0.1193 -1.6338  0.2110
  843MOL0     H13777  14.441   2.555   5.406  0.9270 -0.2572 -1.8733
  843MOL0     H13778  14.414   2.389   5.346  3.1658 -0.0676 -1.5527
  843MOL0     H13779  14.633   2.471   5.538 -1.6462 -0.0531  0.3635
  843MOL0     H13780  14.603   2.310   5.490 -0.9461 -0.7918  1.2912
  843MOL0     H13781  14.689   2.544   5.312 -0.9702  0.2477  3.3777
  843MOL0     H13782  14.630   2.385   5.252 -4.2891  2.8300  1.0368
  843MOL0     H13783  14.859   2.472   5.419 -1.3488  1.1112  0.1389
  843MOL0     H13784  14.846   2.295   5.389 -0.0055  1.0285  0.6653
  843MOL0     H13785  13.764   2.504   5.652  0.3717 -0.5890 -0.2490
  843MOL0     H13786  13.528   2.486   5.717  1.4074 -2.4016 -3.5495
  843MOL0     H13787  13.104   2.330   5.644  3.3589  1.9716  2.6637
  843MOL0     H13788  12.887   2.196   5.660  0.0130 -2.8561 -1.8172
  843MOL0     H13789  11.326   1.152   4.895 -0.1352  0.4368 -1.1385
  843MOL0     H13790  11.169   1.093   4.709  1.7201  2.7291  0.6302
  843MOL0     H13791  10.678   1.115   4.653 -3.1028  0.7818 -0.9356
  843MOL0     H13792  10.480   1.082   4.547  0.1367  0.8233 -0.5984
  843MOL0     H13793  10.355   1.004   4.361  1.1720  0.4111  1.1162
  843MOL0     H13794  10.234   0.962   4.487  3.1325 -1.3405  2.1267
  843MOL0     H13795  10.121   0.949   4.288  0.7791 -0.5595 -0.1492
  843MOL0     H13796  10.145   0.785   4.336 -2.0489  0.4519 -1.1918
  843MOL0     H13797  10.339   0.751   4.189  0.0669 -0.2532 -0.7004
  843MOL0     H13798  10.340   0.913   4.126 -0.3471 -0.0864 -0.3872
  843MOL0     H13799  10.242   0.759   3.961  0.4103 -0.8348  0.0413
  843MOL0     H13800  10.159   0.677   4.084  2.0127 -0.3436  0.2183
  843MOL0     H13801   9.851   0.941   4.037 -1.3518 -0.6068 -1.9609
  843MOL0     H13802  10.568   0.669   4.485 -0.9906 -0.2638  1.7952
  843MOL0     H13803  10.779   0.571   4.562  0.9317 -0.2896 -0.0917
  843MOL0     H13804  10.897   0.674   4.486  0.0924 -1.6762  0.4538
  843MOL0     H13805  10.888   0.667   4.661  0.3771 -1.1114 -0.0776
  844MOL0     O13806   0.723   2.200   6.014 -0.0781 -0.0417  0.2327
  844MOL0     C13807   0.829   2.206   5.955  0.7977 -0.3229  0.8800
  844MOL0     O13808   0.842   2.171   5.828  0.3439 -0.2008 -0.3840
  844MOL0     C13809   0.737   2.134   5.735 -0.6193 -0.1789 -0.4230
  844MOL0     C13810   0.620   2.068   5.776 -0.2708  0.2656 -0.2268
  844MOL0     C13811   0.519   2.024   5.691  0.4785  0.7372 -0.1508
  844MOL0     C13812   0.527   2.063   5.556  0.1318  0.1702  0.1731
  844MOL0     O13813   0.425   2.033   5.465 -0.1848 -0.5244 -0.4271
  844MOL0     C13814   0.310   1.976   5.525  0.0109  0.4375 -0.9625
  844MOL0     C13815   0.201   1.963   5.419 -0.1297  0.2767  0.2210
  844MOL0     C13816   0.071   1.924   5.486  0.6927  0.2440 -0.9694
  844MOL0     C13817   0.071   1.781   5.546  0.3170  0.6123  0.0947
  844MOL0     C13818   0.092   1.793   5.699 -0.1136  0.1540  0.3161
  844MOL0     C13819   0.071   1.656   5.768  0.1272  0.6840  0.5142
  844MOL0     C13820   0.202   1.568   5.748  0.5372 -0.1199  0.2266
  844MOL0     C13821   0.190   1.443   5.812  0.2361  0.6963  0.0504
  844MOL0     N13822   0.307   1.354   5.781 -0.6082 -0.6214  0.5285
  844MOL0     C13823   0.437   1.374   5.823  0.2778 -0.1517  0.2251
  844MOL0     C13824   0.510   1.299   5.745  0.7296  0.1439  0.3352
  844MOL0     C13825   0.657   1.281   5.736 -0.7243  0.2715  0.6544
  844MOL0     C13826   0.729   1.338   5.617  0.1863  0.2775 -0.2122
  844MOL0     C13827   0.874   1.289   5.594 -0.3989 -0.4244 -0.7930
  844MOL0     C13828   0.970   1.342   5.703  0.4419 -0.0440 -0.1682
  844MOL0     O13829   1.100   1.298   5.666  0.5849 -0.1013  0.2992
  844MOL0     C13830   1.205   1.360   5.721 -0.1666 -0.4284  0.7156
  844MOL0     C13831   1.332   1.320   5.679  0.8079 -0.8724  0.4704
  844MOL0     C13832   1.442   1.380   5.726 -0.4488  0.5282 -0.9545
  844MOL0     C13833   1.439   1.496   5.810 -0.0026  0.7577  0.2498
  844MOL0     C13834   1.562   1.557   5.858  0.0106 -0.5124 -1.0217
  844MOL0     O13835   1.679   1.506   5.802  0.4656 -0.8212 -0.2783
  844MOL0     C13836   1.796   1.575   5.821  0.1242  0.0173  0.5366
  844MOL0     C13837   1.898   1.528   5.919 -0.6533 -0.3463 -0.1923
  844MOL0     C13838   2.024   1.593   5.928 -0.6489 -0.2567 -0.2630
  844MOL0     C13839   2.045   1.705   5.854  0.0348 -0.0563 -0.0419
  844MOL0     O13840   2.151   1.782   5.866 -0.2077 -0.0742 -0.3481
  844MOL0     C13841   2.276   1.712   5.858 -0.2217 -0.6692 -0.5367
  844MOL0     C13842   2.388   1.799   5.799 -0.5140  0.3810  0.1253
  844MOL0     C13843   2.334   1.867   5.668 -0.6055 -0.9025  0.4446
  844MOL0     C13844   2.429   1.958   5.593 -0.0990 -0.4992  0.1384
  844MOL0     C13845   2.533   1.892   5.503  0.4649 -0.1426  0.0967
  844MOL0     C13846   2.615   1.998   5.438  0.0672  1.3148  0.3350
  844MOL0     C13847   2.767   1.959   5.441 -1.1579  0.0223  0.1336
  844MOL0     C13848   2.863   2.071   5.388  0.1274  0.8387  0.5043
  844MOL0    Cl13849   2.808   2.154   5.236  0.3397  0.2602  0.4109
  844MOL0     C13850   1.943   1.757   5.776 -0.4696  0.5631 -0.4054
  844MOL0     C13851   1.833   1.687   5.747  0.1961  0.6649 -0.0696
  844MOL0     O13852   1.556   1.650   5.940  0.2101  0.2778  0.1768
  844MOL0     C13853   1.315   1.525   5.866 -0.2833 -0.3628  0.0285
  844MOL0     C13854   1.204   1.458   5.826  0.2657  0.4556  0.7875
  844MOL0     N13855   0.434   1.230   5.658  0.0291  0.4122 -0.2985
  844MOL0     N13856   0.315   1.260   5.685 -0.0150  0.0344 -0.1844
  844MOL0     C13857   0.649   2.114   5.507  0.0534  0.0420  0.5688
  844MOL0     C13858   0.754   2.153   5.595  1.0741 -0.0669 -0.2789
  844MOL0     C13859   0.954   2.248   6.027 -0.0086 -0.1981 -0.4719
  844MOL0     C13860   1.080   2.214   5.973 -0.0463  0.3652 -0.0197
  844MOL0     C13861   1.205   2.256   6.036  0.3740 -0.4208 -0.6267
  844MOL0     C13862   1.201   2.346   6.144 -0.4514  0.4002 -0.6038
  844MOL0     O13863   1.311   2.388   6.218  0.1225 -1.0179 -0.5359
  844MOL0     C13864   1.440   2.342   6.184  0.3046  0.1193  0.2229
  844MOL0     C13865   1.544   2.406   6.271  0.2424 -0.8261  0.0185
  844MOL0     C13866   1.680   2.407   6.192  0.1734  0.0482 -0.6371
  844MOL0     C13867   1.782   2.500   6.252  0.1242  0.7331  0.8918
  844MOL0     C13868   1.906   2.478   6.173  0.0282  0.2773  0.7809
  844MOL0     C13869   2.006   2.464   6.101 -0.7703  0.6265 -0.4765
  844MOL0     C13870   1.080   2.383   6.192 -0.8284 -0.6154  0.4504
  844MOL0     C13871   0.956   2.330   6.145  0.4064 -1.1840 -0.3638
  844MOL0     C13872   0.834   2.370   6.216 -0.3729  0.4002  0.5349
  844MOL0     H13873   0.612   2.030   5.877  0.2156  0.4377 -0.1226
  844MOL0     H13874   0.434   1.973   5.735 -1.8061  3.5307 -1.0518
  844MOL0     H13875   0.337   1.880   5.568 -2.8995 -0.3683 -0.7148
  844MOL0     H13876   0.277   2.043   5.605 -0.7542 -0.1050 -0.8156
  844MOL0     H13877   0.211   1.878   5.351  0.7530  1.2515 -0.9032
  844MOL0     H13878   0.193   2.059   5.367 -3.4132  0.7664  1.3915
  844MOL0     H13879  -0.012   1.911   5.415  1.0501 -0.2508 -1.2984
  844MOL0     H13880   0.028   2.010   5.538  2.4055  2.0227 -2.3703
  844MOL0     H13881  -0.028   1.736   5.541 -0.7191  2.4682  2.0579
  844MOL0     H13882   0.148   1.721   5.497  0.5912  1.6635 -0.8292
  844MOL0     H13883   0.195   1.821   5.723 -0.6468  1.7902  0.8372
  844MOL0     H13884   0.024   1.870   5.736 -1.8823  0.6893 -3.5166
  844MOL0     H13885   0.064   1.663   5.877  0.2506 -0.8100  0.6416
  844MOL0     H13886  -0.019   1.603   5.735  0.5326 -1.5106  2.7020
  844MOL0     H13887   0.291   1.621   5.784 -1.5338  1.4450  3.5083
  844MOL0     H13888   0.225   1.563   5.641  3.9421  0.3840  0.8052
  844MOL0     H13889   0.157   1.452   5.916  0.6504  0.2707  0.2228
  844MOL0     H13890   0.102   1.397   5.764 -0.9545 -0.9140  3.4667
  844MOL0     H13891   0.462   1.451   5.896 -0.0557 -0.2773  0.4781
  844MOL0     H13892   0.700   1.320   5.829  0.4645  2.1177 -0.5956
  844MOL0     H13893   0.665   1.172   5.731  0.3013  0.4140 -1.6370
  844MOL0     H13894   0.675   1.321   5.523  0.7539  0.1143 -0.5163
  844MOL0     H13895   0.719   1.446   5.631 -0.5008  0.0485  1.1626
  844MOL0     H13896   0.917   1.334   5.504 -0.8883  2.0127  0.1192
  844MOL0     H13897   0.866   1.180   5.595  0.8381 -0.5470  1.4719
  844MOL0     H13898   0.939   1.309   5.803  1.6879 -2.3802 -0.4712
  844MOL0     H13899   0.954   1.450   5.712 -1.8217 -0.4865  3.1196
  844MOL0     H13900   1.346   1.234   5.615 -0.8781 -0.8110 -0.0197
  844MOL0     H13901   1.531   1.334   5.685 -1.2904 -1.6615 -0.4966
  844MOL0     H13902   1.886   1.432   5.968 -1.8355  0.6041  1.4757
  844MOL0     H13903   2.098   1.561   6.001 -0.8491 -1.2073 -0.4745
  844MOL0     H13904   2.287   1.683   5.963 -1.1451  0.9596  0.0426
  844MOL0     H13905   2.272   1.615   5.808  0.3168 -1.0826  0.2108
  844MOL0     H13906   2.419   1.874   5.872 -0.3833 -0.1308  0.6021
  844MOL0     H13907   2.475   1.740   5.770 -1.9877 -1.9277  0.1226
  844MOL0     H13908   2.297   1.793   5.597  1.9165 -0.8216 -1.0525
  844MOL0     H13909   2.249   1.929   5.698  1.3548  0.2881  4.1945
  844MOL0     H13910   2.475   2.028   5.664 -3.4129  3.1859 -0.9690
  844MOL0     H13911   2.376   2.015   5.516  2.5636 -1.0345 -2.2606
  844MOL0     H13912   2.466   1.836   5.438 -1.6004 -0.9868  2.7451
  844MOL0     H13913   2.592   1.830   5.572 -1.9049 -0.3249  2.1300
  844MOL0     H13914   2.580   2.014   5.336  1.8152 -1.0778 -0.7306
  844MOL0     H13915   2.618   2.094   5.491 -1.7289  1.7517 -0.3147
  844MOL0     H13916   2.787   1.871   5.379 -1.4255 -0.0425  0.1408
  844MOL0     H13917   2.801   1.935   5.543 -1.1988 -4.2540 -0.6914
  844MOL0     H13918   2.869   2.153   5.460 -0.7014  0.5151  0.9477
  844MOL0     H13919   2.964   2.034   5.368  0.4733  1.6141  0.7605
  844MOL0     H13920   1.963   1.849   5.721 -1.0163  0.0286 -1.5186
  844MOL0     H13921   1.756   1.701   5.672  0.3245  0.7602 -0.1838
  844MOL0     H13922   1.304   1.610   5.933 -0.9264  0.4936 -1.1229
  844MOL0     H13923   1.115   1.499   5.873 -1.6428 -4.6158  2.2447
  844MOL0     H13924   0.655   2.121   5.399  0.4033  0.5381  0.6186
  844MOL0     H13925   0.853   2.186   5.564  1.3296 -1.3616 -0.9056
  844MOL0     H13926   1.093   2.145   5.890 -2.8266 -0.7375  0.3313
  844MOL0     H13927   1.296   2.207   6.006 -0.2016 -2.5902  0.9355
  844MOL0     H13928   1.453   2.350   6.075  1.3705 -3.3186 -0.0476
  844MOL0     H13929   1.430   2.234   6.203 -1.6830  0.2888  0.3105
  844MOL0     H13930   1.551   2.360   6.370 -2.0756  1.2224  1.2242
  844MOL0     H13931   1.508   2.507   6.289 -1.1565 -1.1979 -0.5020
  844MOL0     H13932   1.654   2.445   6.092  0.7276  0.2945 -0.6913
  844MOL0     H13933   1.722   2.306   6.193 -1.8231 -0.8291  0.0441
  844MOL0     H13934   1.753   2.605   6.239  0.1831  0.5911 -0.6014
  844MOL0     H13935   1.795   2.480   6.358 -3.2128 -0.5313  1.1721
  844MOL0     H13936   2.101   2.463   6.051 -0.5764  2.5279 -0.2320
  844MOL0     H13937   1.095   2.444   6.281  0.1151 -0.6217  0.3005
  844MOL0     H13938   0.772   2.292   6.262 -1.1701  0.9413  0.3966
  844MOL0     H13939   0.850   2.443   6.296  0.7921  0.4277  0.2966
  844MOL0     H13940   0.775   2.420   6.139  2.4661 -0.9130 -2.7602
  845MOL0     O13941   5.859   2.523   0.725 -0.1305 -0.5391 -0.4556
  845MOL0     C13942   5.867   2.642   0.682 -0.5024  0.8007  1.2100
  845MOL0     O13943   5.787   2.756   0.703  0.7426 -0.0128 -0.1925
  845MOL0     C13944   5.662   2.735   0.745  0.8173 -0.0843  0.7403
  845MOL0     C13945   5.577   2.642   0.674  0.7430 -0.4119 -0.4565
  845MOL0     C13946   5.441   2.630   0.719 -0.1063 -0.1862  0.5137
  845MOL0     C13947   5.393   2.719   0.819  1.2118 -0.7396  0.0802
  845MOL0     O13948   5.263   2.718   0.851  0.6902  0.3645 -0.2016
  845MOL0     C13949   5.188   2.826   0.797 -1.3154  0.2160 -0.2884
  845MOL0     C13950   5.136   2.902   0.919 -0.0905  0.6772  0.8465
  845MOL0     C13951   5.006   2.845   0.965 -0.3032  0.0589  0.1454
  845MOL0     C13952   4.952   2.909   1.090  0.1987 -0.3581  0.0515
  845MOL0     C13953   4.810   2.854   1.118 -0.0174 -0.8157 -0.1345
  845MOL0     C13954   4.702   2.883   1.021  0.5872  0.6083  0.0996
  845MOL0     C13955   4.698   3.023   0.963 -1.0814 -0.1788 -1.0540
  845MOL0     C13956   4.581   3.029   0.862 -0.1962 -0.0107 -0.0939
  845MOL0     N13957   4.557   3.171   0.836 -0.0993 -0.0493 -1.1955
  845MOL0     C13958   4.641   3.280   0.812 -0.9673 -1.2885  0.5590
  845MOL0     C13959   4.563   3.394   0.826 -0.3452  1.2716 -0.2896
  845MOL0     C13960   4.619   3.532   0.825 -0.2765  0.5773  0.4098
  845MOL0     C13961   4.595   3.587   0.684 -1.0885 -0.8845 -0.3947
  845MOL0     C13962   4.674   3.724   0.671  0.2694  0.9889 -0.6980
  845MOL0     C13963   4.823   3.714   0.690 -1.0566  0.8933 -0.0504
  845MOL0     O13964   4.885   3.640   0.583 -0.6924 -0.2782  0.4473
  845MOL0     C13965   5.028   3.649   0.583 -0.2396 -0.2778  0.1151
  845MOL0     C13966   5.090   3.709   0.473  0.0614 -0.0665 -0.5264
  845MOL0     C13967   5.227   3.729   0.472  0.0934 -0.4989  0.1237
  845MOL0     C13968   5.308   3.698   0.580  0.1429  0.3215  0.0974
  845MOL0     C13969   5.451   3.734   0.591  0.3225  0.0315 -0.1583
  845MOL0     O13970   5.503   3.791   0.477 -0.6168 -0.1271  0.0944
  845MOL0     C13971   5.635   3.833   0.461 -1.4224 -0.1030 -1.2263
  845MOL0     C13972   5.656   3.966   0.421  0.5398  0.2499 -0.2357
  845MOL0     C13973   5.784   4.023   0.418 -0.1539 -0.3950 -0.1989
  845MOL0     C13974   5.898   3.943   0.444 -1.2009  0.2566 -0.2486
  845MOL0     O13975   6.024   3.996   0.448  0.7257  0.3170 -0.2227
  845MOL0     C13976   6.052   4.121   0.375  0.0099  0.0320  0.4147
  845MOL0     C13977   6.193   4.179   0.376  0.1747 -0.0710 -0.0804
  845MOL0     C13978   6.288   4.099   0.282 -0.4670  0.5010  0.5523
  845MOL0     C13979   6.424   4.161   0.282  0.2001 -0.1023  0.0039
  845MOL0     C13980   6.514   4.100   0.179 -0.5099  0.3261 -0.4414
  845MOL0     C13981   6.619   4.203   0.129  0.4731  0.0967 -0.2901
  845MOL0     C13982   6.719   4.118   0.056  0.5899  0.5865  0.3412
  845MOL0     C13983   6.859   4.157   0.089 -0.7464  0.1368 -0.0619
  845MOL0    Cl13984   6.975   4.022   0.044 -0.3211 -0.0436 -0.1789
  845MOL0     C13985   5.874   3.811   0.488 -0.2141 -0.3420  0.2819
  845MOL0     C13986   5.749   3.759   0.500  0.4523 -0.2696  0.4608
  845MOL0     O13987   5.504   3.702   0.697 -0.0576 -0.5392  0.5402
  845MOL0     C13988   5.245   3.630   0.687  0.2292 -0.5104 -0.0121
  845MOL0     C13989   5.102   3.604   0.692  0.7045  0.0695 -0.0425
  845MOL0     N13990   4.424   3.354   0.850  0.8679 -0.0060  0.1194
  845MOL0     N13991   4.436   3.223   0.851  0.3519 -0.3358  0.3266
  845MOL0     C13992   5.480   2.807   0.886  0.1062 -0.1077 -0.2467
  845MOL0     C13993   5.613   2.821   0.843 -0.9666 -0.0875  0.7618
  845MOL0     C13994   5.984   2.651   0.594  0.0471  0.5285  0.3119
  845MOL0     C13995   5.960   2.674   0.460  0.1298 -0.3716  0.9088
  845MOL0     C13996   6.070   2.687   0.369 -0.4492 -0.5498  0.3662
  845MOL0     C13997   6.201   2.676   0.410 -0.8758 -0.5814  0.0065
  845MOL0     O13998   6.299   2.684   0.307  0.1665 -0.1000 -0.2232
  845MOL0     C13999   6.405   2.598   0.326 -0.0337  0.5514  0.2413
  845MOL0     C14000   6.364   2.453   0.320  0.3361  0.6323  0.2412
  845MOL0     C14001   6.494   2.376   0.326 -0.5425 -0.0090 -0.6169
  845MOL0     C14002   6.470   2.237   0.385  0.0400  0.5731 -0.1386
  845MOL0     C14003   6.595   2.177   0.405  0.5334 -1.1415 -0.6273
  845MOL0     C14004   6.699   2.120   0.415 -0.2013 -0.1608 -0.0988
  845MOL0     C14005   6.225   2.647   0.549  0.1135 -0.4055  0.2431
  845MOL0     C14006   6.123   2.642   0.644  0.8204  0.1800  0.3390
  845MOL0     C14007   6.155   2.598   0.781  0.4436  0.0694  0.0445
  845MOL0     H14008   5.619   2.589   0.590 -3.3665  0.5131 -3.4016
  845MOL0     H14009   5.367   2.557   0.691 -0.9770  0.9833 -0.3527
  845MOL0     H14010   5.245   2.896   0.736 -2.1829  0.8401 -0.4019
  845MOL0     H14011   5.106   2.779   0.741 -0.4527 -0.5950 -0.8974
  845MOL0     H14012   5.113   3.003   0.883  0.2490  1.3297  2.3933
  845MOL0     H14013   5.207   2.904   1.002 -2.5729  1.6581  3.0969
  845MOL0     H14014   5.022   2.740   0.994 -0.5651 -0.2317 -0.7475
  845MOL0     H14015   4.932   2.845   0.885 -2.2116 -1.2981  1.7951
  845MOL0     H14016   5.010   2.879   1.178 -1.5044 -1.2345  0.9180
  845MOL0     H14017   4.951   3.018   1.091  1.6549 -0.2479 -2.0099
  845MOL0     H14018   4.813   2.748   1.143 -0.8902 -1.1191 -1.2479
  845MOL0     H14019   4.786   2.908   1.210 -2.4955 -0.9989 -0.6180
  845MOL0     H14020   4.709   2.817   0.934  1.4925  2.9152 -1.7081
  845MOL0     H14021   4.607   2.858   1.068  0.6605  1.2473  0.6015
  845MOL0     H14022   4.783   3.049   0.900 -1.7599  1.1923 -1.4476
  845MOL0     H14023   4.685   3.089   1.050 -0.0445 -0.7776 -0.4289
  845MOL0     H14024   4.603   2.979   0.767  0.4333  0.0677  0.0025
  845MOL0     H14025   4.495   2.979   0.908 -0.0206 -0.2952 -0.0718
  845MOL0     H14026   4.749   3.278   0.800 -1.2384 -0.6928 -3.1732
  845MOL0     H14027   4.570   3.603   0.893 -1.6994 -0.1335  0.1541
  845MOL0     H14028   4.723   3.513   0.852 -0.5919  0.0764  1.3038
  845MOL0     H14029   4.631   3.515   0.611  0.7599  0.6499 -1.0912
  845MOL0     H14030   4.491   3.601   0.655 -1.3936 -1.1869  0.5153
  845MOL0     H14031   4.624   3.803   0.728 -0.1535  1.6127 -1.9069
  845MOL0     H14032   4.667   3.764   0.569 -0.2491  2.2718 -0.1766
  845MOL0     H14033   4.857   3.680   0.788  3.2625  1.4084 -1.1351
  845MOL0     H14034   4.875   3.810   0.695 -1.6973  1.2706 -0.4990
  845MOL0     H14035   5.031   3.746   0.390  0.5576  0.5027 -0.6297
  845MOL0     H14036   5.273   3.777   0.386 -0.4693 -1.3746 -0.6824
  845MOL0     H14037   5.566   4.026   0.408 -0.7627 -1.4838  0.3005
  845MOL0     H14038   5.792   4.130   0.405 -0.3127 -0.6451 -2.8982
  845MOL0     H14039   6.006   4.109   0.276 -1.0582 -1.7168  1.0797
  845MOL0     H14040   6.001   4.201   0.428  0.1048  0.1880  0.2714
  845MOL0     H14041   6.191   4.280   0.335 -2.1668  0.1493  0.4170
  845MOL0     H14042   6.232   4.185   0.478 -1.8022  1.6184  0.6528
  845MOL0     H14043   6.294   3.991   0.302 -2.9343 -0.4736 -2.9636
  845MOL0     H14044   6.243   4.120   0.184  2.4749  1.0401 -0.7795
  845MOL0     H14045   6.457   4.162   0.386 -0.5913 -0.5988  0.2746
  845MOL0     H14046   6.408   4.266   0.257 -0.8984 -0.5109 -1.0960
  845MOL0     H14047   6.467   4.058   0.090 -3.4106  2.9818 -0.3233
  845MOL0     H14048   6.561   4.016   0.231 -2.1422 -0.3984 -0.0761
  845MOL0     H14049   6.586   4.280   0.059 -1.6497 -1.3012 -0.9539
  845MOL0     H14050   6.658   4.251   0.219  1.2401 -1.9502  0.5261
  845MOL0     H14051   6.706   4.117  -0.053 -2.4826  4.0913  0.4832
  845MOL0     H14052   6.702   4.014   0.084  1.2786 -1.2889 -5.0356
  845MOL0     H14053   6.892   4.243   0.031  0.1991 -0.1599  0.0181
  845MOL0     H14054   6.852   4.187   0.194  0.6591 -0.7567  0.3101
  845MOL0     H14055   5.969   3.759   0.504 -0.9284 -2.1601 -1.1334
  845MOL0     H14056   5.748   3.659   0.541  0.4270 -0.0378  1.0327
  845MOL0     H14057   5.296   3.597   0.777  0.5735  0.8160  0.3122
  845MOL0     H14058   5.054   3.559   0.778 -1.7601 -0.9357 -1.8025
  845MOL0     H14059   5.441   2.870   0.966 -3.0727 -0.8015 -1.0848
  845MOL0     H14060   5.671   2.895   0.898  0.7444 -2.0281  1.6865
  845MOL0     H14061   5.862   2.680   0.415 -0.7098 -1.7968  2.4474
  845MOL0     H14062   6.044   2.699   0.265  2.0172 -1.5527 -0.4433
  845MOL0     H14063   6.477   2.632   0.401 -1.4381  2.1833  0.9216
  845MOL0     H14064   6.466   2.620   0.237 -0.5940 -0.6436 -0.4626
  845MOL0     H14065   6.317   2.422   0.226  0.3073 -0.0357  0.4673
  845MOL0     H14066   6.304   2.420   0.405  0.1204 -0.6770 -0.3965
  845MOL0     H14067   6.568   2.426   0.389 -1.9980  0.2144  0.9726
  845MOL0     H14068   6.537   2.370   0.225 -2.2460 -2.9654 -1.2930
  845MOL0     H14069   6.417   2.250   0.481  0.4273  0.8487  0.0361
  845MOL0     H14070   6.408   2.178   0.317  0.6538 -2.4358  1.6805
  845MOL0     H14071   6.783   2.054   0.422  1.0931  1.1116 -2.3417
  845MOL0     H14072   6.325   2.626   0.587 -0.5218  0.6175  2.6731
  845MOL0     H14073   6.108   2.502   0.806 -0.6026  1.0399  2.1294
  845MOL0     H14074   6.262   2.589   0.800  0.2301  1.7704  2.6182
  845MOL0     H14075   6.101   2.657   0.856 -0.3082 -1.2345  0.5797
  846MOL0     O14076  10.007   4.984   7.008 -0.1198  0.5957  0.0460
  846MOL0     C14077   9.964   4.917   7.100  1.3207 -0.0956 -0.5877
  846MOL0     O14078  10.029   4.876   7.209 -0.1643 -0.4063 -0.1165
  846MOL0     C14079  10.169   4.867   7.217 -0.3293 -1.1296 -0.9600
  846MOL0     C14080  10.223   4.793   7.321 -0.0761 -0.0363 -0.1970
  846MOL0     C14081  10.358   4.797   7.361  0.1110  0.1294  0.2362
  846MOL0     C14082  10.441   4.877   7.292  0.0386 -0.7640 -0.1586
  846MOL0     O14083  10.571   4.880   7.344  0.1773 -0.4581 -0.5075
  846MOL0     C14084  10.672   4.970   7.287  0.2750 -0.7093  0.4006
  846MOL0     C14085  10.793   4.927   7.358 -0.0813 -0.8853  0.4266
  846MOL0     C14086  10.922   4.978   7.316  0.3399 -0.0665  0.6999
  846MOL0     C14087  11.030   4.919   7.407  0.2806 -0.8358 -0.2216
  846MOL0     C14088  11.171   4.964   7.364  0.2522  0.4637  0.1571
  846MOL0     C14089  11.213   5.102   7.429  0.3889 -0.1625 -0.1266
  846MOL0     C14090  11.362   5.118   7.418 -0.3920 -0.1157 -0.7125
  846MOL0     C14091  11.405   5.249   7.465  0.5003  0.2602 -0.0767
  846MOL0     N14092  11.548   5.256   7.444 -0.2226 -0.7077  0.0465
  846MOL0     C14093  11.648   5.169   7.494  0.4593 -0.2038  0.9453
  846MOL0     C14094  11.767   5.204   7.440 -1.0091 -0.2487  0.2103
  846MOL0     C14095  11.900   5.154   7.479  0.1775  0.6171 -0.6591
  846MOL0     C14096  11.953   5.201   7.619  0.5424 -0.1271  0.0256
  846MOL0     C14097  12.078   5.148   7.678 -0.3889  0.4384  0.2465
  846MOL0     C14098  12.197   5.149   7.581 -0.0772 -0.2653  0.0504
  846MOL0     O14099  12.320   5.158   7.656  0.0637  0.2658  0.3356
  846MOL0     C14100  12.432   5.197   7.585 -0.1259 -0.3839  0.3738
  846MOL0     C14101  12.445   5.192   7.447 -0.9066  1.0997 -0.0090
  846MOL0     C14102  12.575   5.206   7.391 -0.3755  0.3954  0.1948
  846MOL0     C14103  12.686   5.230   7.472  0.6303  0.5196  0.3177
  846MOL0     C14104  12.824   5.249   7.414 -0.3336 -0.0215 -0.3769
  846MOL0     O14105  12.929   5.284   7.500  0.2785  0.8775  0.4834
  846MOL0     C14106  13.057   5.307   7.453 -1.0575 -0.7344  0.2472
  846MOL0     C14107  13.091   5.384   7.341  0.1064 -0.0011 -0.9798
  846MOL0     C14108  13.228   5.407   7.316 -0.5823  0.1930 -0.3891
  846MOL0     C14109  13.329   5.351   7.395  0.4479  0.3599 -0.2996
  846MOL0     O14110  13.462   5.366   7.370  0.0109 -0.0359  0.0114
  846MOL0     C14111  13.495   5.502   7.356  0.1221 -0.6729  0.3658
  846MOL0     C14112  13.608   5.545   7.448  0.1766  0.2228 -0.8329
  846MOL0     C14113  13.558   5.604   7.581  0.1207  0.6004  1.1871
  846MOL0     C14114  13.669   5.631   7.668 -0.8999 -0.0903  0.0057
  846MOL0     C14115  13.623   5.696   7.802  0.7870 -0.2860 -0.2724
  846MOL0     C14116  13.678   5.832   7.824  0.3166 -0.4601 -0.2201
  846MOL0     C14117  13.823   5.829   7.867 -0.0004 -0.1190 -0.6395
  846MOL0     C14118  13.910   5.956   7.846 -0.9117 -0.1911 -0.4573
  846MOL0    Cl14119  13.860   6.068   7.982  0.0075 -0.3064  0.0853
  846MOL0     C14120  13.289   5.281   7.510 -0.0139  0.2719  0.2670
  846MOL0     C14121  13.153   5.252   7.534  1.8125 -0.1598  0.7014
  846MOL0     O14122  12.829   5.241   7.292  0.7688 -0.4123  0.3159
  846MOL0     C14123  12.668   5.235   7.610 -0.3938 -0.8569 -0.0572
  846MOL0     C14124  12.542   5.218   7.665 -0.4996 -0.0771  0.1287
  846MOL0     N14125  11.736   5.314   7.358 -0.3683 -0.3474 -0.3069
  846MOL0     N14126  11.609   5.352   7.363 -0.3904 -0.3264 -0.3568
  846MOL0     C14127  10.398   4.951   7.185  0.4389 -1.0588  0.2062
  846MOL0     C14128  10.261   4.945   7.144 -0.9078 -0.5659 -1.1246
  846MOL0     C14129   9.826   4.858   7.085 -0.1420 -0.1695 -0.6394
  846MOL0     C14130   9.772   4.763   7.179 -0.3275  0.3153  0.9751
  846MOL0     C14131   9.654   4.692   7.175 -0.9747 -0.5707  0.8758
  846MOL0     C14132   9.560   4.729   7.070  0.2980  0.3431  0.0909
  846MOL0     O14133   9.445   4.671   7.054 -0.2575 -0.1294 -0.6310
  846MOL0     C14134   9.429   4.537   7.101 -0.5616 -0.6424  0.0235
  846MOL0     C14135   9.292   4.493   7.031  0.1312 -0.5703 -0.5481
  846MOL0     C14136   9.174   4.549   7.112  1.1041 -0.0205 -0.6656
  846MOL0     C14137   9.086   4.442   7.192 -0.1485  0.0046  0.1105
  846MOL0     C14138   8.982   4.517   7.251  0.9870 -0.1735  0.8006
  846MOL0     C14139   8.892   4.562   7.311 -0.4983  0.5165  0.1811
  846MOL0     C14140   9.592   4.840   6.988  0.3492 -0.0186 -0.0967
  846MOL0     C14141   9.726   4.898   6.993  0.1722 -0.4335 -0.1702
  846MOL0     C14142   9.748   5.021   6.899  0.1494 -0.1982 -0.2180
  846MOL0     H14143  10.163   4.723   7.378  2.3472 -2.9301 -0.9186
  846MOL0     H14144  10.398   4.733   7.439 -0.2579  0.4782  0.7172
  846MOL0     H14145  10.672   4.973   7.177 -2.7370 -0.4197  0.3351
  846MOL0     H14146  10.656   5.071   7.326  0.2442 -1.3597  2.1266
  846MOL0     H14147  10.799   4.818   7.349 -3.6468 -1.2881  1.4061
  846MOL0     H14148  10.790   4.956   7.463  2.7391  1.2865  0.0399
  846MOL0     H14149  10.930   5.087   7.323  0.0337  0.0838 -0.9485
  846MOL0     H14150  10.944   4.959   7.211  0.4016  3.6288 -0.0916
  846MOL0     H14151  11.007   4.931   7.513 -1.8932 -1.1670 -0.6011
  846MOL0     H14152  11.020   4.812   7.389 -2.2162 -1.1205  2.1670
  846MOL0     H14153  11.239   4.884   7.396 -0.0972 -0.0768 -0.4316
  846MOL0     H14154  11.185   4.965   7.256  0.0667 -1.2985  0.0905
  846MOL0     H14155  11.169   5.194   7.389  0.4535  0.7762  1.8743
  846MOL0     H14156  11.174   5.098   7.531 -2.0015  0.2717 -0.9397
  846MOL0     H14157  11.394   5.098   7.316  1.5509 -0.8833  0.0164
  846MOL0     H14158  11.399   5.032   7.474 -1.0045  0.9175  1.3838
  846MOL0     H14159  11.354   5.318   7.397  1.0723  1.3883  0.6137
  846MOL0     H14160  11.372   5.273   7.566 -0.1827 -0.2610 -0.1759
  846MOL0     H14161  11.630   5.092   7.569 -0.4006 -1.3783 -0.4313
  846MOL0     H14162  11.890   5.045   7.477 -0.5510  0.6487  0.3429
  846MOL0     H14163  11.974   5.184   7.404  0.7863 -0.0596 -0.3465
  846MOL0     H14164  11.951   5.310   7.617  0.3529 -0.1072  0.8348
  846MOL0     H14165  11.884   5.172   7.700 -0.1032  0.6141 -0.2410
  846MOL0     H14166  12.068   5.039   7.687  1.8505  0.2792  1.3676
  846MOL0     H14167  12.100   5.205   7.769  0.2229 -1.6698  1.4894
  846MOL0     H14168  12.185   5.239   7.520 -1.4221  2.4234  3.8968
  846MOL0     H14169  12.209   5.060   7.518  1.4690 -0.3400  0.4161
  846MOL0     H14170  12.359   5.175   7.384 -1.2799  1.1342  0.4859
  846MOL0     H14171  12.576   5.202   7.282 -2.6277  4.5381 -0.1775
  846MOL0     H14172  13.017   5.436   7.282  0.3854 -2.2147 -3.4433
  846MOL0     H14173  13.262   5.472   7.237  0.3095  0.5285  0.2462
  846MOL0     H14174  13.522   5.513   7.251 -1.3666 -3.1721 -0.3661
  846MOL0     H14175  13.416   5.576   7.369  0.0038 -0.5289 -1.0712
  846MOL0     H14176  13.674   5.459   7.464 -2.9593 -1.9578  1.4965
  846MOL0     H14177  13.663   5.625   7.396  0.4884  0.0280 -0.8079
  846MOL0     H14178  13.509   5.697   7.548  0.3137 -0.1420 -1.4430
  846MOL0     H14179  13.490   5.534   7.631  0.8766 -1.0282  0.0114
  846MOL0     H14180  13.741   5.705   7.631 -1.5157  3.7362  5.2896
  846MOL0     H14181  13.708   5.536   7.706 -1.0705 -0.0334  0.3164
  846MOL0     H14182  13.649   5.633   7.887  3.9663  1.6680  0.3649
  846MOL0     H14183  13.515   5.706   7.810  0.5603 -2.8992  0.7347
  846MOL0     H14184  13.675   5.888   7.729 -1.3289  0.6174  0.4200
  846MOL0     H14185  13.612   5.886   7.892 -0.7658 -0.6751 -1.0547
  846MOL0     H14186  13.869   5.741   7.821  0.7389 -0.2767  0.3598
  846MOL0     H14187  13.821   5.809   7.975 -0.6340  0.6123 -0.5045
  846MOL0     H14188  14.018   5.943   7.851 -0.1715  3.9651 -2.0365
  846MOL0     H14189  13.887   6.003   7.750  1.2586  2.5446  0.2437
  846MOL0     H14190  13.364   5.236   7.574 -0.0549  0.1879  0.2554
  846MOL0     H14191  13.120   5.178   7.606  0.3848  0.5761  0.8367
  846MOL0     H14192  12.751   5.265   7.673  0.7518  1.3766 -2.4212
  846MOL0     H14193  12.531   5.227   7.772 -0.3079 -1.8193  0.3238
  846MOL0     H14194  10.461   5.021   7.130 -1.0762  0.5866  0.4562
  846MOL0     H14195  10.236   5.013   7.063  1.2704  0.3721 -1.0912
  846MOL0     H14196   9.836   4.739   7.263 -0.4903 -1.6273  0.6016
  846MOL0     H14197   9.626   4.621   7.252 -0.5533 -1.3155  0.3529
  846MOL0     H14198   9.414   4.535   7.210 -1.6077  3.0824  0.0947
  846MOL0     H14199   9.506   4.470   7.063 -1.0324  0.1964 -2.5631
  846MOL0     H14200   9.284   4.384   7.033 -0.7912 -0.5256 -1.1871
  846MOL0     H14201   9.284   4.518   6.925 -1.1347  0.0702 -0.3243
  846MOL0     H14202   9.107   4.600   7.041 -0.4462  0.3835  1.0000
  846MOL0     H14203   9.209   4.628   7.179  0.7726 -1.0095  0.7098
  846MOL0     H14204   9.025   4.379   7.126 -1.8875  1.3327  0.3828
  846MOL0     H14205   9.135   4.398   7.279 -2.7783  0.4859  1.9744
  846MOL0     H14206   8.817   4.620   7.360  0.7560  1.0637  1.5309
  846MOL0     H14207   9.524   4.871   6.909  0.9083 -1.3044 -1.1390
  846MOL0     H14208   9.806   5.101   6.945  5.7714 -3.8157  0.0118
  846MOL0     H14209   9.803   4.987   6.810 -1.1023 -0.3203 -0.9745
  846MOL0     H14210   9.649   5.051   6.863  0.5364  0.1747 -1.0002
  847MOL0     O14211   2.275   2.644   9.553 -0.1099  0.4085 -0.9066
  847MOL0     C14212   2.183   2.651   9.467  0.7587  0.0774 -0.1152
  847MOL0     O14213   2.202   2.637   9.333 -0.7345 -0.4627  0.2541
  847MOL0     C14214   2.325   2.586   9.303  0.3153  0.1921 -0.1804
  847MOL0     C14215   2.438   2.667   9.291  0.3399 -0.3448  0.7296
  847MOL0     C14216   2.554   2.616   9.235  0.1619 -0.4091  0.2324
  847MOL0     C14217   2.576   2.482   9.190 -0.2464  0.7232 -0.3326
  847MOL0     O14218   2.697   2.426   9.144  0.3778 -0.2170  0.2888
  847MOL0     C14219   2.813   2.488   9.187 -0.8738 -0.4038 -0.4466
  847MOL0     C14220   2.850   2.455   9.334 -0.2360  0.2102  0.3067
  847MOL0     C14221   2.998   2.449   9.359 -0.1675  0.6577 -0.3169
  847MOL0     C14222   3.017   2.430   9.509 -0.6616 -0.1914 -0.8763
  847MOL0     C14223   3.166   2.421   9.545  0.5395  0.2253 -1.2013
  847MOL0     C14224   3.230   2.277   9.517  0.2466  0.4902  0.4507
  847MOL0     C14225   3.386   2.282   9.504  0.2268  0.2180 -0.0911
  847MOL0     C14226   3.449   2.151   9.473  0.6906  0.3291 -0.3091
  847MOL0     N14227   3.582   2.169   9.450  0.6248 -0.1764  0.2392
  847MOL0     C14228   3.633   2.237   9.342 -0.2454 -0.5841 -0.6180
  847MOL0     C14229   3.768   2.227   9.351  0.3670 -0.4385 -0.9760
  847MOL0     C14230   3.874   2.304   9.273  0.3372 -0.5563 -0.4712
  847MOL0     C14231   3.954   2.409   9.362 -0.3811  0.2418 -0.4422
  847MOL0     C14232   4.030   2.366   9.494 -1.6254 -0.2356  0.2790
  847MOL0     C14233   4.125   2.245   9.469 -0.5538 -0.2143 -0.1078
  847MOL0     O14234   4.207   2.283   9.359  0.3755 -0.5621  0.2228
  847MOL0     C14235   4.316   2.216   9.326  0.3477  0.0676  0.6617
  847MOL0     C14236   4.376   2.269   9.215 -0.6269 -0.6977  0.1848
  847MOL0     C14237   4.481   2.204   9.158 -0.4869 -0.1228  0.6565
  847MOL0     C14238   4.534   2.086   9.213 -0.0592  0.0327 -0.1143
  847MOL0     C14239   4.654   2.027   9.159  0.0687  0.6536  0.0633
  847MOL0     O14240   4.752   1.979   9.234 -0.0731  0.7429 -1.1740
  847MOL0     C14241   4.850   1.907   9.177 -0.0936  0.3011 -0.8346
  847MOL0     C14242   4.877   1.778   9.228  1.0013 -0.4912 -1.0129
  847MOL0     C14243   4.976   1.693   9.194 -0.5571 -1.2567  0.2172
  847MOL0     C14244   5.063   1.735   9.096 -0.0769  0.6994 -0.1854
  847MOL0     O14245   5.167   1.660   9.036  0.2034  0.4891 -0.2611
  847MOL0     C14246   5.158   1.515   9.053  0.3849  0.2515  0.6787
  847MOL0     C14247   5.267   1.454   8.959  0.4098 -0.4371 -0.5201
  847MOL0     C14248   5.270   1.299   8.961  0.1366 -0.0596 -0.6663
  847MOL0     C14249   5.352   1.248   8.843 -0.0441 -0.0591 -0.0940
  847MOL0     C14250   5.388   1.105   8.858 -0.6660  0.5201  0.6141
  847MOL0     C14251   5.539   1.096   8.889 -0.0629 -0.7559  0.4540
  847MOL0     C14252   5.577   1.160   9.022  1.5141 -0.0939  0.9054
  847MOL0     C14253   5.718   1.113   9.071 -1.2506  0.6951  0.1507
  847MOL0    Cl14254   5.726   1.172   9.235 -0.5791  0.0257 -0.2438
  847MOL0     C14255   5.055   1.865   9.041  0.8170  0.3167 -0.3057
  847MOL0     C14256   4.948   1.951   9.088  0.2144 -0.0374  0.1884
  847MOL0     O14257   4.655   2.030   9.034 -0.0528  0.0095 -0.4915
  847MOL0     C14258   4.490   2.040   9.337  0.6940 -0.4465 -0.1256
  847MOL0     C14259   4.379   2.102   9.388  0.1770 -0.8913  0.3854
  847MOL0     N14260   3.802   2.150   9.470 -0.4571  0.1410 -0.0881
  847MOL0     N14261   3.691   2.123   9.521  1.1609  0.0161 -0.1051
  847MOL0     C14262   2.467   2.402   9.206  0.0873  1.0486 -0.1607
  847MOL0     C14263   2.342   2.449   9.263 -0.2184 -0.2421 -0.3537
  847MOL0     C14264   2.048   2.682   9.514  0.0693 -0.3621  0.3536
  847MOL0     C14265   2.031   2.731   9.635 -0.2842 -0.3684 -1.1189
  847MOL0     C14266   1.918   2.780   9.685  0.4000  0.6906 -0.4059
  847MOL0     C14267   1.806   2.782   9.594  0.2100 -0.7391 -0.6611
  847MOL0     O14268   1.674   2.817   9.618 -0.3129  0.0329 -0.0680
  847MOL0     C14269   1.644   2.809   9.757  0.5827  0.6925 -0.1311
  847MOL0     C14270   1.496   2.858   9.761  0.6094 -0.1081 -0.7298
  847MOL0     C14271   1.448   2.884   9.903  0.4805  0.1590  0.3434
  847MOL0     C14272   1.298   2.900   9.902 -0.5321 -0.1816 -0.3319
  847MOL0     C14273   1.230   2.899  10.034 -0.6187  0.2064  0.6935
  847MOL0     C14274   1.174   2.897  10.138  0.6096  0.1901  0.1193
  847MOL0     C14275   1.819   2.728   9.474  0.8857 -0.5068  0.5954
  847MOL0     C14276   1.930   2.677   9.428  0.8097  0.0315 -0.3137
  847MOL0     C14277   1.914   2.633   9.282 -0.7832 -0.2608  0.0819
  847MOL0     H14278   2.432   2.772   9.320  0.7163  0.3207 -1.3988
  847MOL0     H14279   2.628   2.693   9.215 -0.6103  0.4405  0.5949
  847MOL0     H14280   2.898   2.457   9.125  1.3590 -1.7373  2.9829
  847MOL0     H14281   2.813   2.596   9.170  2.3812 -0.3305 -0.5507
  847MOL0     H14282   2.796   2.365   9.363  0.3892  0.4223  2.2211
  847MOL0     H14283   2.816   2.533   9.403 -0.1382 -1.0940  1.8666
  847MOL0     H14284   3.035   2.549   9.332  0.3133  1.1277  1.8789
  847MOL0     H14285   3.051   2.371   9.304  0.3150  0.7069  0.0645
  847MOL0     H14286   2.978   2.521   9.556  3.9299  0.9757  1.3339
  847MOL0     H14287   2.971   2.332   9.527  1.1535 -1.1964 -1.4027
  847MOL0     H14288   3.221   2.498   9.490  2.7001  0.8111  1.5781
  847MOL0     H14289   3.180   2.439   9.652 -2.3483  0.1337 -0.7313
  847MOL0     H14290   3.201   2.206   9.594  1.7848 -1.4189 -0.6440
  847MOL0     H14291   3.192   2.236   9.423  3.0041 -1.5318  0.0685
  847MOL0     H14292   3.441   2.319   9.591 -1.1003 -1.0727  1.3574
  847MOL0     H14293   3.405   2.350   9.420 -1.1752 -0.0777 -0.6740
  847MOL0     H14294   3.428   2.085   9.557 -0.2448  0.7347 -0.2058
  847MOL0     H14295   3.399   2.109   9.384  1.9877 -1.3888 -0.2683
  847MOL0     H14296   3.578   2.299   9.271 -1.0128  0.6550  0.9826
  847MOL0     H14297   3.944   2.229   9.236  1.7017 -1.2250  3.0499
  847MOL0     H14298   3.824   2.358   9.192 -0.6786  0.3952  0.7515
  847MOL0     H14299   4.029   2.444   9.291  2.1610 -1.3938  1.2726
  847MOL0     H14300   3.893   2.498   9.385  1.9892  1.9762 -0.5229
  847MOL0     H14301   3.967   2.337   9.579 -0.9401  0.1970  0.9445
  847MOL0     H14302   4.089   2.453   9.524  1.0337 -1.0502 -2.2141
  847MOL0     H14303   4.076   2.148   9.455  1.7686 -1.4196 -0.3757
  847MOL0     H14304   4.187   2.237   9.559 -0.5013  1.3003  0.0201
  847MOL0     H14305   4.333   2.363   9.179 -0.1807 -0.4602  0.2678
  847MOL0     H14306   4.525   2.232   9.063 -2.1395 -0.3286 -0.1913
  847MOL0     H14307   4.811   1.730   9.299  0.2663  2.8280  0.7601
  847MOL0     H14308   4.977   1.598   9.247  0.6454 -0.9021  0.8579
  847MOL0     H14309   5.190   1.492   9.155  0.3950 -1.0748  0.4000
  847MOL0     H14310   5.053   1.492   9.033  0.7534 -1.3452  0.4312
  847MOL0     H14311   5.225   1.487   8.864 -1.9635 -0.1476  0.5717
  847MOL0     H14312   5.370   1.475   8.989  0.5573 -2.7961  0.8783
  847MOL0     H14313   5.300   1.259   9.059 -2.3708 -1.7234 -0.4718
  847MOL0     H14314   5.167   1.267   8.944 -0.5527  1.4549  0.4441
  847MOL0     H14315   5.440   1.309   8.823 -1.4759  1.2496 -3.1817
  847MOL0     H14316   5.282   1.261   8.760  0.3667 -0.0785 -0.4448
  847MOL0     H14317   5.374   1.061   8.758  2.2122  1.3271 -0.2220
  847MOL0     H14318   5.329   1.057   8.936 -0.9377  1.1400  0.7985
  847MOL0     H14319   5.562   0.989   8.896 -0.2549 -0.7472  1.4131
  847MOL0     H14320   5.600   1.141   8.811 -0.7755  2.6141  1.6662
  847MOL0     H14321   5.505   1.133   9.101  0.9500 -1.3754 -0.0152
  847MOL0     H14322   5.572   1.268   9.006 -0.8573 -0.3337 -0.4777
  847MOL0     H14323   5.735   1.005   9.074  0.2286  0.9294  1.1734
  847MOL0     H14324   5.804   1.144   9.012  0.4884 -0.9846  1.6686
  847MOL0     H14325   5.135   1.897   8.976  1.3093  1.7899  0.9688
  847MOL0     H14326   4.935   2.058   9.072  0.0367  0.1660  1.5859
  847MOL0     H14327   4.541   1.956   9.382  1.1656 -0.7996 -1.2659
  847MOL0     H14328   4.346   2.074   9.487  1.4065  1.0623  1.4114
  847MOL0     H14329   2.470   2.299   9.173 -0.3599  1.2321 -0.7898
  847MOL0     H14330   2.250   2.394   9.279 -0.3912  0.4235  1.1495
  847MOL0     H14331   2.125   2.739   9.688  0.6288 -1.7686 -2.4312
  847MOL0     H14332   1.921   2.820   9.786  0.8833 -1.5935  0.5588
  847MOL0     H14333   1.702   2.876   9.822  1.4790 -1.0677  0.9668
  847MOL0     H14334   1.648   2.709   9.802  0.4969  1.0990  0.8078
  847MOL0     H14335   1.432   2.793   9.700 -2.3753  1.7491  0.2619
  847MOL0     H14336   1.482   2.950   9.704 -1.3949  0.1979  0.1700
  847MOL0     H14337   1.503   2.969   9.944 -2.9908  2.2252  1.1283
  847MOL0     H14338   1.467   2.789   9.955 -2.9781 -0.8646  0.0142
  847MOL0     H14339   1.262   2.977   9.833 -1.0085  0.3580  0.5028
  847MOL0     H14340   1.253   2.811   9.856 -3.0736 -0.0821  1.7507
  847MOL0     H14341   1.120   2.887  10.230  0.8362 -0.3514  0.1898
  847MOL0     H14342   1.733   2.724   9.407  0.2415  0.8526  1.2952
  847MOL0     H14343   1.813   2.596   9.259 -0.2449 -1.4195 -0.5208
  847MOL0     H14344   1.945   2.724   9.229 -0.0152 -0.4040  0.2686
  847MOL0     H14345   1.980   2.550   9.254 -1.4214  0.1396 -2.9513
  848MOL0     O14346   5.807   7.961   9.054 -1.2886 -0.0450  0.5632
  848MOL0     C14347   5.843   7.987   9.164 -0.9541 -0.4616 -0.8321
  848MOL0     O14348   5.955   7.929   9.225  0.5642 -0.0210  0.5707
  848MOL0     C14349   6.035   7.856   9.147  0.2905 -0.2728  0.9330
  848MOL0     C14350   5.996   7.734   9.092 -0.2410 -0.5021 -0.2920
  848MOL0     C14351   6.086   7.668   9.012 -0.1612 -0.1128  0.0293
  848MOL0     C14352   6.220   7.724   8.994 -0.0752 -0.0842 -0.5339
  848MOL0     O14353   6.311   7.647   8.926  0.3053 -0.4757 -0.5869
  848MOL0     C14354   6.436   7.711   8.875 -0.0767 -0.7704 -0.1549
  848MOL0     C14355   6.514   7.594   8.820 -0.4779 -1.0183  0.4781
  848MOL0     C14356   6.620   7.662   8.727 -0.5289 -0.1116 -0.6252
  848MOL0     C14357   6.706   7.555   8.655  1.1672 -0.1415 -0.1472
  848MOL0     C14358   6.782   7.605   8.533  0.2685  0.4254 -0.6918
  848MOL0     C14359   6.903   7.689   8.552 -0.4821 -0.4912  0.1745
  848MOL0     C14360   7.004   7.685   8.436  0.5620 -0.1438 -0.0332
  848MOL0     C14361   7.109   7.784   8.465 -0.2144  0.3544 -0.1475
  848MOL0     N14362   7.200   7.785   8.349  0.1280  0.0296  0.4048
  848MOL0     C14363   7.284   7.681   8.308  0.1220 -0.9335  0.3704
  848MOL0     C14364   7.334   7.717   8.189 -0.6503  0.0671  0.0357
  848MOL0     C14365   7.411   7.625   8.096  0.9926  0.2469 -0.3107
  848MOL0     C14366   7.414   7.474   8.136 -0.6243  0.2254  0.0192
  848MOL0     C14367   7.439   7.387   8.014 -0.8342 -0.0809  0.5375
  848MOL0     C14368   7.585   7.384   7.961 -0.4211 -0.2712  0.0992
  848MOL0     O14369   7.656   7.336   8.073 -0.8803 -0.4752 -0.2004
  848MOL0     C14370   7.795   7.345   8.052  0.1286  0.4093  0.1331
  848MOL0     C14371   7.884   7.327   8.162  0.2439  0.0695  0.7612
  848MOL0     C14372   8.022   7.340   8.150  0.5672  0.0770 -0.9205
  848MOL0     C14373   8.080   7.355   8.025 -0.2545 -0.5546  0.2563
  848MOL0     C14374   8.221   7.360   8.011 -0.0048 -0.2886 -0.8692
  848MOL0     O14375   8.280   7.374   7.884 -0.4666 -0.3778  0.3514
  848MOL0     C14376   8.417   7.354   7.867  0.5803  0.1580 -0.1143
  848MOL0     C14377   8.503   7.459   7.851  0.1376 -0.5645  0.0389
  848MOL0     C14378   8.643   7.435   7.840  0.1013  1.1951 -0.0316
  848MOL0     C14379   8.698   7.304   7.856 -0.9908 -0.0258  0.1562
  848MOL0     O14380   8.828   7.263   7.848 -0.1999  0.0554  0.4449
  848MOL0     C14381   8.933   7.364   7.829 -0.4946 -0.1462  0.2777
  848MOL0     C14382   8.966   7.412   7.690  0.8357  0.1150  0.4278
  848MOL0     C14383   9.105   7.482   7.673 -0.1085  0.1097  0.5991
  848MOL0     C14384   9.228   7.388   7.678  0.0099  0.6692 -0.8242
  848MOL0     C14385   9.351   7.473   7.724  0.1591 -0.5925 -0.4091
  848MOL0     C14386   9.480   7.388   7.705 -0.0792  0.8548  0.0988
  848MOL0     C14387   9.607   7.459   7.754 -0.1808 -0.4987 -0.2550
  848MOL0     C14388   9.735   7.376   7.726 -0.3666 -0.0963  0.1764
  848MOL0    Cl14389   9.764   7.360   7.546  0.1185 -0.1857 -0.0935
  848MOL0     C14390   8.616   7.191   7.868 -0.0502  0.2687  1.2030
  848MOL0     C14391   8.477   7.223   7.868  0.4387  0.1346 -0.1177
  848MOL0     O14392   8.284   7.376   8.117  0.1600  0.4013  0.0438
  848MOL0     C14393   7.996   7.371   7.914 -0.4012 -0.1496  0.3762
  848MOL0     C14394   7.854   7.358   7.924  0.5452  0.4140 -0.7477
  848MOL0     N14395   7.297   7.848   8.169 -0.3637  0.2512  0.2430
  848MOL0     N14396   7.223   7.887   8.269  0.0623 -0.4893  0.1633
  848MOL0     C14397   6.252   7.845   9.048 -0.1749  0.2498  0.7260
  848MOL0     C14398   6.158   7.916   9.117 -0.8637  0.2499  0.7112
  848MOL0     C14399   5.750   8.058   9.251 -0.0845 -0.3826  0.8301
  848MOL0     C14400   5.750   8.034   9.388 -0.6437  0.4408  0.1074
  848MOL0     C14401   5.661   8.096   9.474  0.9744 -0.4026 -0.2539
  848MOL0     C14402   5.577   8.205   9.426  0.3513  0.5571  0.4278
  848MOL0     O14403   5.498   8.268   9.517 -0.4144  0.2660  0.0310
  848MOL0     C14404   5.414   8.376   9.468  0.0272  0.2622 -0.0477
  848MOL0     C14405   5.377   8.473   9.577  0.0687  0.0998  0.2534
  848MOL0     C14406   5.287   8.423   9.676 -0.3632  0.5378  0.0273
  848MOL0     C14407   5.288   8.510   9.807 -0.0455  0.0757  0.5220
  848MOL0     C14408   5.180   8.469   9.893  0.3953 -0.1934 -0.0733
  848MOL0     C14409   5.091   8.430   9.959 -0.6346 -0.1679  0.5101
  848MOL0     C14410   5.585   8.233   9.287  0.1992  0.3403  0.4454
  848MOL0     C14411   5.664   8.159   9.198  0.3145  0.3663 -0.0700
  848MOL0     C14412   5.662   8.213   9.056 -0.0285 -0.1312  0.1560
  848MOL0     H14413   5.894   7.701   9.107 -0.3353  1.1397  3.9642
  848MOL0     H14414   6.058   7.587   8.945 -0.6207  1.7211 -2.1249
  848MOL0     H14415   6.400   7.790   8.808 -0.1856  1.2585  2.1156
  848MOL0     H14416   6.494   7.765   8.951 -1.1458  1.8626 -1.0953
  848MOL0     H14417   6.454   7.519   8.767 -3.0290  1.6881 -0.8135
  848MOL0     H14418   6.567   7.543   8.900  0.6669 -1.7500 -0.7044
  848MOL0     H14419   6.688   7.727   8.784  1.5453 -1.0389 -1.9259
  848MOL0     H14420   6.574   7.730   8.655  1.3480  1.2739 -0.6047
  848MOL0     H14421   6.762   7.506   8.735 -0.0680 -0.5336  0.5123
  848MOL0     H14422   6.648   7.476   8.606  1.8244 -0.1263 -0.9791
  848MOL0     H14423   6.810   7.512   8.481 -0.2382 -1.2940  1.9169
  848MOL0     H14424   6.712   7.648   8.461  1.5504 -0.7462 -2.7767
  848MOL0     H14425   6.863   7.787   8.577 -0.4077 -0.0650 -1.3374
  848MOL0     H14426   6.964   7.663   8.639 -2.0587  0.6691  1.6910
  848MOL0     H14427   6.948   7.715   8.346 -0.3969 -1.2134  0.1814
  848MOL0     H14428   7.043   7.584   8.420  0.3654 -0.2074 -0.1131
  848MOL0     H14429   7.065   7.879   8.495  0.4938  0.3061  1.1325
  848MOL0     H14430   7.168   7.754   8.552  0.0353  1.6275  0.1394
  848MOL0     H14431   7.290   7.582   8.351 -2.5094 -1.5394 -0.5015
  848MOL0     H14432   7.369   7.636   7.995  0.1054 -0.5235 -0.0407
  848MOL0     H14433   7.516   7.657   8.092  0.9870  0.7205  2.0155
  848MOL0     H14434   7.475   7.452   8.224  0.0846 -0.8775 -0.7278
  848MOL0     H14435   7.312   7.444   8.162 -0.6805  1.6491  1.6276
  848MOL0     H14436   7.368   7.406   7.933  1.3117  0.7736 -1.2514
  848MOL0     H14437   7.429   7.286   8.056 -0.3498 -0.4987 -0.3346
  848MOL0     H14438   7.628   7.482   7.937 -1.5049 -0.1069 -1.2143
  848MOL0     H14439   7.587   7.331   7.866  1.5078  2.0702 -1.2827
  848MOL0     H14440   7.848   7.303   8.261  0.6561 -0.3010  0.8231
  848MOL0     H14441   8.080   7.335   8.242  0.2950 -0.3899 -0.7738
  848MOL0     H14442   8.452   7.554   7.841  1.4599  0.0137 -1.6609
  848MOL0     H14443   8.689   7.532   7.824 -1.6037  1.5285 -4.2595
  848MOL0     H14444   8.912   7.459   7.880 -0.1337 -0.0065  0.1696
  848MOL0     H14445   9.026   7.323   7.868 -0.7252 -1.9823 -0.9763
  848MOL0     H14446   8.952   7.340   7.609 -1.8255 -1.1460  1.9146
  848MOL0     H14447   8.892   7.490   7.669  0.2268 -0.5266  0.1442
  848MOL0     H14448   9.106   7.543   7.583 -3.0172  0.1530  0.4890
  848MOL0     H14449   9.109   7.551   7.758  3.0997  1.9490 -0.8851
  848MOL0     H14450   9.245   7.342   7.581 -1.5907  0.8525 -1.2161
  848MOL0     H14451   9.213   7.305   7.749  0.5888 -0.1337 -1.6191
  848MOL0     H14452   9.350   7.500   7.830  1.3920 -0.8201 -0.3192
  848MOL0     H14453   9.361   7.563   7.663  2.8008 -0.7654 -0.3283
  848MOL0     H14454   9.466   7.294   7.761 -4.2158  1.1913 -0.0499
  848MOL0     H14455   9.491   7.377   7.597 -1.4819  1.1483 -0.0874
  848MOL0     H14456   9.608   7.455   7.863 -1.1805 -2.5443 -0.2747
  848MOL0     H14457   9.607   7.561   7.713  1.0377 -1.0072 -1.5720
  848MOL0     H14458   9.813   7.437   7.773 -1.3145  1.1700  0.1683
  848MOL0     H14459   9.733   7.281   7.779 -0.6049 -0.7033 -0.8915
  848MOL0     H14460   8.653   7.090   7.854 -0.3716 -0.0143  2.2664
  848MOL0     H14461   8.405   7.142   7.869  2.1231 -1.4598 -1.3159
  848MOL0     H14462   8.041   7.381   7.816 -1.8417 -3.2168 -0.7263
  848MOL0     H14463   7.800   7.350   7.831  1.3121 -2.1404 -1.0655
  848MOL0     H14464   6.352   7.888   9.041  0.4426 -1.4069 -3.0400
  848MOL0     H14465   6.173   8.014   9.160  0.8427 -0.5000  1.9121
  848MOL0     H14466   5.821   7.955   9.410 -0.4033 -0.0240 -2.0909
  848MOL0     H14467   5.669   8.084   9.582  1.4851 -0.1379 -0.2569
  848MOL0     H14468   5.322   8.337   9.423 -0.6816  0.7966  0.9063
  848MOL0     H14469   5.476   8.433   9.398  0.6373 -0.1720  0.1239
  848MOL0     H14470   5.345   8.561   9.519 -0.9455 -0.0243  0.6186
  848MOL0     H14471   5.470   8.497   9.629  0.5000  0.1273 -0.5028
  848MOL0     H14472   5.316   8.320   9.700 -0.0115  0.5949 -0.1478
  848MOL0     H14473   5.190   8.418   9.626 -1.0353 -3.0027  1.3842
  848MOL0     H14474   5.378   8.487   9.865 -0.2859  0.2348  0.9639
  848MOL0     H14475   5.272   8.614   9.777 -2.3543 -0.3683  0.0400
  848MOL0     H14476   5.012   8.395  10.022 -0.0992  2.1607  2.6061
  848MOL0     H14477   5.518   8.300   9.233 -0.9162 -0.9774  0.1527
  848MOL0     H14478   5.761   8.208   9.010 -0.7917  1.7819 -1.8780
  848MOL0     H14479   5.590   8.163   8.990 -0.7127  0.9924  0.0211
  848MOL0     H14480   5.631   8.317   9.063 -1.7576 -0.5777 -0.2919
  849MOL0     O14481   1.299   0.637   9.220 -0.0745 -0.8490 -0.4644
  849MOL0     C14482   1.323   0.758   9.250 -1.0646  0.0977  0.0358
  849MOL0     O14483   1.238   0.856   9.235  0.7053  0.1726  0.0671
  849MOL0     C14484   1.106   0.830   9.229  0.0805 -0.2004 -0.2375
  849MOL0     C14485   1.016   0.888   9.322 -0.7629  0.3793 -0.1156
  849MOL0     C14486   0.883   0.859   9.329 -0.3261 -0.8137  0.4274
  849MOL0     C14487   0.831   0.779   9.228  1.0800 -0.4949 -0.3995
  849MOL0     O14488   0.710   0.719   9.224 -0.1660  0.5746 -0.3102
  849MOL0     C14489   0.602   0.786   9.280  0.7046  0.2943  0.5618
  849MOL0     C14490   0.480   0.693   9.244  0.5570 -0.6290 -0.3973
  849MOL0     C14491   0.343   0.761   9.274 -0.2530 -0.2303  0.0051
  849MOL0     C14492   0.237   0.684   9.191 -0.1842 -0.7753 -0.4428
  849MOL0     C14493   0.102   0.759   9.211 -1.4907  0.2580  0.2877
  849MOL0     C14494   0.042   0.713   9.346  0.1847 -0.4205  0.1283
  849MOL0     C14495  -0.097   0.772   9.355  0.1067 -1.0062  0.0507
  849MOL0     C14496  -0.097   0.871   9.473  0.1705 -0.3543 -0.6440
  849MOL0     N14497  -0.001   0.982   9.459  0.6135  0.4870 -0.1829
  849MOL0     C14498  -0.015   1.081   9.368  0.7611 -1.1369 -0.4827
  849MOL0     C14499   0.093   1.163   9.388 -0.8389 -0.2733  0.2500
  849MOL0     C14500   0.132   1.274   9.303 -0.0134 -0.0789 -0.2626
  849MOL0     C14501   0.161   1.267   9.161  0.0242  0.3456 -0.2989
  849MOL0     C14502   0.280   1.173   9.118  0.2402 -1.1882  0.7564
  849MOL0     C14503   0.409   1.224   9.182  0.6512 -0.8602  0.1211
  849MOL0     O14504   0.524   1.167   9.124 -0.0360 -0.0192 -0.1529
  849MOL0     C14505   0.655   1.212   9.153 -0.2400  0.2694  0.0391
  849MOL0     C14506   0.759   1.123   9.123 -0.2469 -0.0152  0.5926
  849MOL0     C14507   0.896   1.148   9.144 -0.4659 -0.4292  0.1041
  849MOL0     C14508   0.925   1.279   9.196 -0.5821  0.1715 -1.1052
  849MOL0     C14509   1.063   1.301   9.232  0.7249 -0.2975 -0.4345
  849MOL0     O14510   1.152   1.200   9.233 -1.1466 -0.1659 -0.0866
  849MOL0     C14511   1.286   1.234   9.251 -0.3164 -0.8099  0.4725
  849MOL0     C14512   1.321   1.265   9.380  0.4044  0.1226 -1.3684
  849MOL0     C14513   1.452   1.281   9.414  0.2358  0.4115  0.2139
  849MOL0     C14514   1.552   1.267   9.310  0.1708 -0.1735 -0.2401
  849MOL0     O14515   1.679   1.286   9.355  0.4157  0.1587  0.1240
  849MOL0     C14516   1.784   1.225   9.296 -0.5080 -0.4297 -0.3178
  849MOL0     C14517   1.901   1.327   9.312  1.2640  0.5216  0.3441
  849MOL0     C14518   2.039   1.262   9.327 -0.1781  1.2789 -0.2893
  849MOL0     C14519   2.129   1.369   9.270  0.3987  0.0953 -0.3630
  849MOL0     C14520   2.276   1.376   9.309 -0.5487  0.1017  0.2126
  849MOL0     C14521   2.369   1.455   9.219 -0.2445 -0.4761  0.3919
  849MOL0     C14522   2.334   1.597   9.203 -0.0407 -0.8533 -0.7418
  849MOL0     C14523   2.427   1.658   9.097 -0.7188  0.1554  0.1660
  849MOL0    Cl14524   2.407   1.603   8.935  0.0811  0.4404 -0.1218
  849MOL0     C14525   1.520   1.232   9.179 -1.1174 -0.0046 -0.4456
  849MOL0     C14526   1.381   1.223   9.147 -0.6609 -0.1946  0.7366
  849MOL0     O14527   1.090   1.421   9.252 -0.1367 -0.1258  0.7926
  849MOL0     C14528   0.819   1.370   9.233 -0.6053  0.4309 -0.7358
  849MOL0     C14529   0.685   1.337   9.212  0.4679 -0.0503 -0.0277
  849MOL0     N14530   0.165   1.119   9.498  0.2058 -0.0068  0.3097
  849MOL0     N14531   0.107   1.005   9.547  0.7551  0.3581  0.7960
  849MOL0     C14532   0.909   0.733   9.116 -0.2669 -0.5096  0.6583
  849MOL0     C14533   1.051   0.761   9.123 -0.2468 -0.0098  0.3473
  849MOL0     C14534   1.450   0.797   9.320 -0.6121  0.0673  0.0696
  849MOL0     C14535   1.459   0.923   9.389  0.9148  0.3179  0.1095
  849MOL0     C14536   1.570   0.959   9.463 -0.0762  0.4498  0.2543
  849MOL0     C14537   1.681   0.871   9.463  0.0059  0.4178 -0.3903
  849MOL0     O14538   1.791   0.917   9.527  0.2610  0.5260  0.0090
  849MOL0     C14539   1.854   0.829   9.620 -0.8639 -0.0858  0.2962
  849MOL0     C14540   1.768   0.840   9.750  0.3838 -1.0436 -0.5356
  849MOL0     C14541   1.771   0.725   9.849  0.1293 -0.4814  0.1865
  849MOL0     C14542   1.915   0.714   9.911  0.2923  0.5150  0.9533
  849MOL0     C14543   2.022   0.646   9.826  0.0763  0.3928 -0.3643
  849MOL0     C14544   2.110   0.609   9.759  0.7736 -0.2788  0.2616
  849MOL0     C14545   1.676   0.742   9.408 -0.0487 -0.2033  0.3033
  849MOL0     C14546   1.568   0.707   9.329  0.2757 -0.0560 -0.0536
  849MOL0     C14547   1.573   0.573   9.255 -0.2372 -0.3456 -0.9118
  849MOL0     H14548   1.049   0.951   9.403 -2.5965 -0.6305  1.4946
  849MOL0     H14549   0.824   0.885   9.417 -1.3911 -0.8647 -0.2466
  849MOL0     H14550   0.607   0.806   9.388 -0.2508  2.7025  0.2159
  849MOL0     H14551   0.577   0.885   9.242 -3.1093 -0.7767 -0.0941
  849MOL0     H14552   0.476   0.605   9.308 -0.1409 -0.0737  0.3427
  849MOL0     H14553   0.490   0.666   9.139  0.5209  2.8575 -1.4468
  849MOL0     H14554   0.341   0.866   9.243 -0.4148 -0.4913 -0.8664
  849MOL0     H14555   0.329   0.749   9.382  4.3149  0.0272  0.8322
  849MOL0     H14556   0.261   0.682   9.084 -1.8964 -1.9532 -0.8495
  849MOL0     H14557   0.229   0.582   9.230 -0.9674 -1.2129 -1.6833
  849MOL0     H14558   0.112   0.867   9.201 -2.9363  0.5179  1.2689
  849MOL0     H14559   0.029   0.720   9.141 -2.1071  2.3730 -0.3155
  849MOL0     H14560   0.039   0.604   9.358  1.1170 -0.4035  0.5847
  849MOL0     H14561   0.100   0.756   9.429 -1.0086  0.4589  0.5319
  849MOL0     H14562  -0.168   0.691   9.379  1.2559 -2.1575 -0.3364
  849MOL0     H14563  -0.137   0.819   9.264  0.3826  0.0408  0.4620
  849MOL0     H14564  -0.197   0.913   9.490 -1.2088 -3.1478 -1.2869
  849MOL0     H14565  -0.062   0.820   9.563 -1.5118  0.8304  0.7495
  849MOL0     H14566  -0.097   1.084   9.297  0.0016 -1.6772  0.3630
  849MOL0     H14567   0.056   1.352   9.319 -0.2524 -0.2562 -0.5222
  849MOL0     H14568   0.228   1.307   9.342  1.2063 -3.2691 -0.3039
  849MOL0     H14569   0.080   1.207   9.118 -0.4578  0.6766  0.1351
  849MOL0     H14570   0.182   1.363   9.112 -1.1450  0.5242 -0.4857
  849MOL0     H14571   0.290   1.163   9.010  0.7035 -3.9583  0.9743
  849MOL0     H14572   0.256   1.075   9.160 -0.3302 -1.4253 -0.1001
  849MOL0     H14573   0.403   1.197   9.288  0.9601 -2.3297 -0.2189
  849MOL0     H14574   0.417   1.333   9.179  1.4434 -0.6940  3.5373
  849MOL0     H14575   0.735   1.036   9.062 -0.9323 -1.0848  2.3114
  849MOL0     H14576   0.963   1.067   9.118 -1.1748 -0.9575 -0.1229
  849MOL0     H14577   1.236   1.268   9.447  1.6752 -2.3555  0.5350
  849MOL0     H14578   1.488   1.316   9.510  0.6280  1.6084 -0.3448
  849MOL0     H14579   1.806   1.133   9.351 -0.1457 -1.7534 -2.5619
  849MOL0     H14580   1.762   1.192   9.194 -1.3153 -1.2807  0.1188
  849MOL0     H14581   1.895   1.395   9.226  0.0758 -0.7227 -0.6039
  849MOL0     H14582   1.883   1.379   9.406 -0.9309  1.6928 -0.6229
  849MOL0     H14583   2.065   1.243   9.431  0.0814  1.7348 -0.2691
  849MOL0     H14584   2.034   1.162   9.282  0.5327  1.8462 -1.7086
  849MOL0     H14585   2.093   1.466   9.307 -0.3462  1.3829 -4.0000
  849MOL0     H14586   2.126   1.368   9.160 -2.1566  2.5011 -0.4339
  849MOL0     H14587   2.321   1.276   9.313 -1.8748 -0.5140  0.1714
  849MOL0     H14588   2.277   1.431   9.404  0.6749 -1.2335  1.0224
  849MOL0     H14589   2.474   1.445   9.248  0.1780  0.4811 -0.7051
  849MOL0     H14590   2.364   1.410   9.119 -0.3310  2.4374 -1.0381
  849MOL0     H14591   2.350   1.650   9.297 -1.8869  1.1369 -1.4713
  849MOL0     H14592   2.229   1.607   9.173  0.0544 -1.8481 -1.4842
  849MOL0     H14593   2.426   1.768   9.098 -0.1933  0.1629  0.8024
  849MOL0     H14594   2.527   1.626   9.128 -0.7904 -0.4871 -0.2479
  849MOL0     H14595   1.594   1.213   9.101  0.6142  0.7081  0.9642
  849MOL0     H14596   1.352   1.187   9.049  3.4917 -0.1843 -0.6720
  849MOL0     H14597   0.836   1.469   9.273 -1.2030  0.8594 -1.4956
  849MOL0     H14598   0.607   1.407   9.241  0.1283 -0.5175  0.1949
  849MOL0     H14599   0.861   0.677   9.036 -2.0822  0.0303  1.3241
  849MOL0     H14600   1.111   0.725   9.040  4.3303 -2.7343  4.2933
  849MOL0     H14601   1.385   1.002   9.379  1.3919  0.6757 -0.6692
  849MOL0     H14602   1.573   1.061   9.500  2.2872  0.3080  0.6072
  849MOL0     H14603   1.960   0.852   9.631 -0.1360 -0.5014 -4.1618
  849MOL0     H14604   1.852   0.724   9.589 -0.9752  0.8754 -3.4647
  849MOL0     H14605   1.663   0.856   9.725  0.3687 -0.2098  0.0044
  849MOL0     H14606   1.796   0.928   9.810 -0.6067 -0.7049 -0.5573
  849MOL0     H14607   1.737   0.638   9.791 -2.4149 -1.4171  2.8524
  849MOL0     H14608   1.697   0.736   9.929 -0.8851  1.0987 -0.8949
  849MOL0     H14609   1.958   0.804   9.956 -0.6423  1.1219  0.6678
  849MOL0     H14610   1.900   0.644   9.994 -0.1235 -2.3274 -1.3605
  849MOL0     H14611   2.197   0.596   9.699  0.4108  0.8799 -0.5534
  849MOL0     H14612   1.757   0.671   9.423 -0.4209 -1.2610 -2.2343
  849MOL0     H14613   1.669   0.523   9.243 -0.0037  0.2659 -1.6767
  849MOL0     H14614   1.496   0.509   9.298 -0.0139 -1.5568 -2.2558
  849MOL0     H14615   1.545   0.590   9.151 -2.1485  3.3574  0.0072
  850MOL0     O14616   9.455   2.817   1.711 -0.5347 -0.0078 -0.1967
  850MOL0     C14617   9.379   2.878   1.788 -0.2801  0.0016 -1.4387
  850MOL0     O14618   9.415   2.928   1.911  0.0778  1.0217 -0.7611
  850MOL0     C14619   9.541   2.895   1.951 -0.1449 -0.0553  0.4395
  850MOL0     C14620   9.642   2.991   1.951 -0.2844 -0.2928 -0.0463
  850MOL0     C14621   9.772   2.957   1.993 -0.8467  0.1408  0.0368
  850MOL0     C14622   9.802   2.823   2.030  0.1634  1.1027 -0.1331
  850MOL0     O14623   9.920   2.780   2.075  0.4920 -0.1805  0.3148
  850MOL0     C14624  10.020   2.877   2.111  0.2896  0.2737  0.0982
  850MOL0     C14625  10.103   2.800   2.216  0.8241  0.6636  0.0822
  850MOL0     C14626  10.182   2.682   2.157  0.8689 -0.4344  0.9261
  850MOL0     C14627  10.318   2.716   2.113 -0.4167  0.7183 -0.3703
  850MOL0     C14628  10.385   2.601   2.038  0.1454 -0.1436  0.1325
  850MOL0     C14629  10.520   2.652   1.988 -0.0561 -0.2213 -0.0070
  850MOL0     C14630  10.607   2.543   1.929 -0.1878 -0.1479 -0.3292
  850MOL0     C14631  10.728   2.600   1.834 -0.3320  0.0587 -0.6564
  850MOL0     N14632  10.819   2.704   1.901 -0.2900 -0.5584  0.5042
  850MOL0     C14633  10.958   2.705   1.897  0.9307  0.6340 -0.9530
  850MOL0     C14634  10.995   2.816   1.965 -0.0640  0.1796 -0.7786
  850MOL0     C14635  11.134   2.862   1.988 -1.1928  0.0610 -0.0117
  850MOL0     C14636  11.188   2.804   2.116 -0.3768 -0.1183  1.1669
  850MOL0     C14637  11.338   2.853   2.111  0.6876  0.4162 -0.4917
  850MOL0     C14638  11.411   2.798   2.232 -0.6313  0.0335 -1.1028
  850MOL0     O14639  11.516   2.893   2.257  0.0023  0.5732  0.3698
  850MOL0     C14640  11.649   2.861   2.258 -0.4351  0.8640  0.8306
  850MOL0     C14641  11.704   2.734   2.242 -0.0891  0.7860 -0.3937
  850MOL0     C14642  11.836   2.708   2.245  0.2033  0.1448  0.6403
  850MOL0     C14643  11.923   2.812   2.259 -0.9143 -0.3997  0.1529
  850MOL0     C14644  12.073   2.775   2.268  0.5066  0.2599  0.3175
  850MOL0     O14645  12.102   2.648   2.237  0.1356 -0.1445  0.1609
  850MOL0     C14646  12.227   2.588   2.256 -0.4467  0.2400 -0.0623
  850MOL0     C14647  12.355   2.660   2.223  0.4179 -0.3480  0.7149
  850MOL0     C14648  12.476   2.597   2.265  0.8114 -0.0413  0.0407
  850MOL0     C14649  12.472   2.471   2.325 -0.7092 -0.0930  0.3359
  850MOL0     O14650  12.603   2.436   2.363  0.1082  0.4913  0.3507
  850MOL0     C14651  12.614   2.311   2.431 -0.6454  0.4133  0.5538
  850MOL0     C14652  12.756   2.261   2.444 -0.0726  0.7146  0.5406
  850MOL0     C14653  12.860   2.370   2.434  0.4686 -0.3965 -0.6132
  850MOL0     C14654  12.990   2.317   2.478  0.0739  0.2348 -0.4134
  850MOL0     C14655  13.099   2.386   2.406 -0.3008 -0.5122  0.1011
  850MOL0     C14656  13.248   2.372   2.465  0.1545  0.1155  0.4507
  850MOL0     C14657  13.277   2.223   2.475 -0.1448  0.6124  1.1707
  850MOL0     C14658  13.418   2.178   2.501 -0.1132 -0.7414 -0.6762
  850MOL0    Cl14659  13.454   2.202   2.673 -0.1352  0.4961  0.4400
  850MOL0     C14660  12.354   2.403   2.353  0.0938 -0.3553 -0.6956
  850MOL0     C14661  12.233   2.461   2.322  0.4179  0.3026 -0.5636
  850MOL0     O14662  12.147   2.862   2.308 -0.5505 -0.8404  0.2103
  850MOL0     C14663  11.875   2.948   2.266 -0.1100  0.0431  0.6101
  850MOL0     C14664  11.735   2.966   2.276 -0.4625 -0.6902  0.7989
  850MOL0     N14665  10.884   2.880   2.022 -0.7184  0.5824  0.4594
  850MOL0     N14666  10.783   2.808   1.983  0.9310 -0.7001  0.4241
  850MOL0     C14667   9.701   2.724   2.010 -0.0058 -0.5964  0.5535
  850MOL0     C14668   9.571   2.764   1.980 -0.7870 -0.3444  0.7092
  850MOL0     C14669   9.241   2.899   1.739 -0.8234 -0.4856 -0.1471
  850MOL0     C14670   9.224   2.920   1.601  0.5502 -0.1643 -0.8684
  850MOL0     C14671   9.098   2.919   1.543 -0.8448 -0.8747  0.1866
  850MOL0     C14672   8.983   2.902   1.616 -0.0958  0.2340  0.4930
  850MOL0     O14673   8.859   2.906   1.547 -0.5494 -0.8074  0.0889
  850MOL0     C14674   8.745   2.950   1.631  0.7134  0.0172  0.2234
  850MOL0     C14675   8.619   2.958   1.540 -0.7160 -0.2786  0.3582
  850MOL0     C14676   8.617   3.097   1.486  0.0355  0.0689 -0.2236
  850MOL0     C14677   8.526   3.117   1.371 -1.3824 -0.0822 -0.2384
  850MOL0     C14678   8.581   3.050   1.247  0.3939  0.7522 -0.5746
  850MOL0     C14679   8.618   3.015   1.139  0.8529  0.1864 -0.1763
  850MOL0     C14680   9.002   2.889   1.759  0.0247 -0.4080 -0.3614
  850MOL0     C14681   9.130   2.902   1.819 -0.2863  0.7151  0.3905
  850MOL0     C14682   9.138   2.874   1.971  0.1043 -0.6518 -0.0571
  850MOL0     H14683   9.633   3.093   1.915 -0.5225  0.2735  1.5290
  850MOL0     H14684   9.848   3.035   1.998 -0.3435 -0.3003 -0.4980
  850MOL0     H14685  10.077   2.907   2.022 -2.3559 -0.1046 -1.8455
  850MOL0     H14686   9.981   2.958   2.172  2.6864 -0.5780  3.0092
  850MOL0     H14687  10.026   2.760   2.284  0.3892 -0.1491 -0.8679
  850MOL0     H14688  10.164   2.878   2.262  1.2279  0.6884 -0.4987
  850MOL0     H14689  10.112   2.629   2.091 -3.4486  2.7900  2.4497
  850MOL0     H14690  10.195   2.622   2.248  0.6362 -0.2593  1.0747
  850MOL0     H14691  10.311   2.799   2.042 -0.2573 -0.4656 -1.8469
  850MOL0     H14692  10.374   2.743   2.203 -1.3122 -1.5627  0.9533
  850MOL0     H14693  10.409   2.521   2.110 -0.5637  0.5995  1.2249
  850MOL0     H14694  10.318   2.565   1.960  0.7443 -1.6505  0.2785
  850MOL0     H14695  10.488   2.726   1.914 -3.4311 -3.3897 -2.0070
  850MOL0     H14696  10.571   2.693   2.076 -1.7569  0.7410  0.5730
  850MOL0     H14697  10.557   2.479   1.857  1.5209 -1.3697 -0.4851
  850MOL0     H14698  10.657   2.479   2.003 -0.4293  2.4935  2.3315
  850MOL0     H14699  10.796   2.515   1.822 -3.0254 -2.3376  0.0566
  850MOL0     H14700  10.685   2.635   1.740 -1.2412 -1.2464 -0.7347
  850MOL0     H14701  11.020   2.631   1.847 -0.8753 -1.3122 -0.4482
  850MOL0     H14702  11.197   2.825   1.906 -2.3739 -2.9642  0.2971
  850MOL0     H14703  11.135   2.969   2.010  0.0272 -0.5388  3.5857
  850MOL0     H14704  11.131   2.835   2.204 -0.0887 -1.1724  1.7406
  850MOL0     H14705  11.188   2.695   2.114  2.1585 -0.1970  2.2341
  850MOL0     H14706  11.343   2.963   2.107  0.0510  0.4496 -0.4479
  850MOL0     H14707  11.395   2.806   2.030  2.8043  0.4363  0.9015
  850MOL0     H14708  11.436   2.691   2.233 -1.3128 -0.2583  3.2893
  850MOL0     H14709  11.343   2.803   2.317  0.9008 -0.7625  0.2270
  850MOL0     H14710  11.635   2.660   2.204  0.1183  1.3159 -1.8621
  850MOL0     H14711  11.861   2.603   2.232 -1.2469 -0.4870  2.3870
  850MOL0     H14712  12.359   2.763   2.189 -0.6184  0.5207  3.0130
  850MOL0     H14713  12.562   2.654   2.232 -1.4261  3.8102  0.2527
  850MOL0     H14714  12.574   2.329   2.531 -2.1803  1.8319 -0.2560
  850MOL0     H14715  12.546   2.241   2.382 -0.8791 -0.3982  2.0024
  850MOL0     H14716  12.756   2.209   2.540  0.8858  0.3265  0.3448
  850MOL0     H14717  12.777   2.188   2.365 -0.1714 -0.6540  1.7289
  850MOL0     H14718  12.860   2.408   2.331  4.2896 -0.9060 -0.9503
  850MOL0     H14719  12.829   2.451   2.501  1.5644 -1.5611  1.3880
  850MOL0     H14720  12.990   2.211   2.450 -0.0040  0.4501 -1.2573
  850MOL0     H14721  13.006   2.325   2.586  0.8080  0.2588 -0.5146
  850MOL0     H14722  13.079   2.494   2.406 -2.6160 -0.8482  1.6020
  850MOL0     H14723  13.094   2.357   2.301  0.0396  2.2705 -0.7574
  850MOL0     H14724  13.321   2.423   2.402 -1.7248  0.2306 -1.7731
  850MOL0     H14725  13.257   2.426   2.559  1.7023  1.8344 -0.6081
  850MOL0     H14726  13.260   2.183   2.375  0.8269  0.3258  1.1072
  850MOL0     H14727  13.212   2.169   2.545 -0.9349 -0.7350 -0.5198
  850MOL0     H14728  13.418   2.071   2.475 -0.7036 -1.3323  1.5292
  850MOL0     H14729  13.484   2.227   2.430  1.8485  0.5826  1.9115
  850MOL0     H14730  12.360   2.320   2.423 -2.6166  1.7902  2.3632
  850MOL0     H14731  12.142   2.406   2.347 -0.4637  0.3556 -3.3699
  850MOL0     H14732  11.939   3.035   2.276  0.3220 -0.1522 -0.2862
  850MOL0     H14733  11.692   3.064   2.296 -3.1306 -1.6002 -0.0440
  850MOL0     H14734   9.723   2.619   2.024  1.9428 -0.2704  0.2041
  850MOL0     H14735   9.502   2.683   1.960 -0.7525  0.2273 -2.2680
  850MOL0     H14736   9.312   2.936   1.540  0.7428 -1.2226 -0.8858
  850MOL0     H14737   9.088   2.920   1.435  0.7193  0.2010  0.0223
  850MOL0     H14738   8.773   3.047   1.673  1.7487 -0.4904  0.7450
  850MOL0     H14739   8.722   2.881   1.712  1.2605 -0.8202 -0.3178
  850MOL0     H14740   8.524   2.943   1.592 -0.7501  3.2862  1.5556
  850MOL0     H14741   8.614   2.883   1.461 -2.6945  0.0362  0.1296
  850MOL0     H14742   8.717   3.137   1.464  0.5947 -0.7930  0.6297
  850MOL0     H14743   8.576   3.154   1.569 -1.7705 -0.7773 -0.4947
  850MOL0     H14744   8.426   3.076   1.390 -1.0305  0.5794  3.9509
  850MOL0     H14745   8.507   3.223   1.347 -1.3960  0.1124  0.6221
  850MOL0     H14746   8.657   2.991   1.042 -2.5744 -1.4092 -1.3256
  850MOL0     H14747   8.915   2.879   1.823 -1.1409  0.5389 -1.7299
  850MOL0     H14748   9.219   2.808   2.005  1.4339  1.9235  2.2344
  850MOL0     H14749   9.161   2.972   2.013 -1.4636  0.3730 -1.4641
  850MOL0     H14750   9.041   2.841   2.009 -0.9401 -0.6954 -2.5690
  851MOL0     O14751   8.654   3.460   3.611  0.5319 -0.5786 -0.7314
  851MOL0     C14752   8.534   3.425   3.596 -0.6707  1.1274  0.0336
  851MOL0     O14753   8.462   3.434   3.476 -0.4743 -0.6168 -0.8587
  851MOL0     C14754   8.531   3.485   3.368  0.0387  0.8368  0.1601
  851MOL0     C14755   8.646   3.423   3.318 -0.1533 -0.8009  0.0614
  851MOL0     C14756   8.717   3.490   3.215  0.3245 -0.6255  0.4383
  851MOL0     C14757   8.669   3.603   3.156 -0.3655 -0.7478  0.0575
  851MOL0     O14758   8.731   3.686   3.060  0.2563  0.4819 -0.5209
  851MOL0     C14759   8.876   3.708   3.081 -0.3560  0.4586  0.1776
  851MOL0     C14760   8.919   3.819   2.989 -0.0393 -0.4638 -0.1072
  851MOL0     C14761   9.067   3.828   2.998  0.8526  0.1464 -0.3734
  851MOL0     C14762   9.126   3.851   3.135  0.3906  0.2069 -0.3114
  851MOL0     C14763   9.265   3.906   3.121  0.1613  0.6450  0.5402
  851MOL0     C14764   9.337   3.953   3.251  0.2431  0.1019 -0.8330
  851MOL0     C14765   9.483   3.947   3.235 -0.5633 -0.1933  0.0153
  851MOL0     C14766   9.575   4.005   3.343 -0.3981 -0.2530 -0.1638
  851MOL0     N14767   9.719   3.966   3.325  0.0516 -0.3998 -0.4003
  851MOL0     C14768   9.779   3.867   3.242  0.0296 -1.4272  0.1844
  851MOL0     C14769   9.909   3.864   3.272 -0.9210  0.3414  0.3976
  851MOL0     C14770  10.019   3.813   3.179  0.1705 -0.0096 -1.0771
  851MOL0     C14771  10.135   3.737   3.246  0.3480  0.3136 -0.1021
  851MOL0     C14772  10.169   3.611   3.172  0.2584  0.4849  0.7117
  851MOL0     C14773  10.285   3.547   3.238 -0.5882  0.0141  0.1981
  851MOL0     O14774  10.401   3.623   3.206 -0.2638 -0.3152  0.8971
  851MOL0     C14775  10.528   3.576   3.228 -1.0334 -0.1710  0.7749
  851MOL0     C14776  10.631   3.649   3.173 -0.3897  0.0834 -0.3230
  851MOL0     C14777  10.768   3.610   3.181  0.7671  0.1298 -0.1837
  851MOL0     C14778  10.796   3.492   3.253 -0.7184  0.0215  0.5337
  851MOL0     C14779  10.940   3.448   3.272 -0.2529  0.0898  0.0392
  851MOL0     O14780  11.033   3.533   3.213  1.0651 -0.6172 -0.4792
  851MOL0     C14781  11.172   3.520   3.240 -0.4201  0.0711 -0.3797
  851MOL0     C14782  11.242   3.402   3.242 -0.1399 -0.0688  0.6415
  851MOL0     C14783  11.383   3.389   3.267  0.3445  0.2136  0.0692
  851MOL0     C14784  11.454   3.507   3.288 -0.9884 -0.2874  1.6498
  851MOL0     O14785  11.590   3.512   3.304 -0.5355 -0.5684 -0.0853
  851MOL0     C14786  11.658   3.469   3.189  0.1202  0.3150 -0.0359
  851MOL0     C14787  11.813   3.461   3.213 -0.0416 -0.2361 -0.1680
  851MOL0     C14788  11.844   3.397   3.350 -0.1856 -0.2880 -0.0490
  851MOL0     C14789  11.982   3.347   3.367 -1.3773 -0.2273  0.4981
  851MOL0     C14790  12.081   3.449   3.418 -0.1047  0.0658 -0.3187
  851MOL0     C14791  12.216   3.383   3.456 -0.0946 -0.5246  0.4235
  851MOL0     C14792  12.201   3.307   3.594 -0.3609 -0.0736 -0.6808
  851MOL0     C14793  12.310   3.338   3.692 -0.5043 -0.2172 -0.2166
  851MOL0    Cl14794  12.304   3.516   3.742 -0.1607  0.0936 -0.4117
  851MOL0     C14795  11.390   3.623   3.288  0.3888  0.4016 -0.0765
  851MOL0     C14796  11.254   3.632   3.261 -0.1641 -0.0022  0.6498
  851MOL0     O14797  10.967   3.348   3.336  0.1613 -0.2145 -0.0016
  851MOL0     C14798  10.698   3.423   3.326  1.3701 -0.2230  0.6421
  851MOL0     C14799  10.565   3.467   3.310  0.4788  0.8124  0.3620
  851MOL0     N14800   9.925   3.948   3.382  0.4674 -0.6682  0.4090
  851MOL0     N14801   9.820   4.018   3.402  1.1316 -0.0161 -0.3413
  851MOL0     C14802   8.546   3.657   3.198  0.5914 -0.9735  0.2900
  851MOL0     C14803   8.477   3.598   3.308  0.4503 -0.8533  0.0749
  851MOL0     C14804   8.458   3.379   3.712 -0.0066  0.4695 -0.1698
  851MOL0     C14805   8.318   3.384   3.707 -0.0600 -0.1174 -0.0638
  851MOL0     C14806   8.241   3.360   3.816  0.2977 -0.2298 -0.5596
  851MOL0     C14807   8.293   3.322   3.933 -0.5154  0.4919 -0.2349
  851MOL0     O14808   8.231   3.299   4.055 -0.6885 -0.0769 -0.5935
  851MOL0     C14809   8.097   3.337   4.060 -0.9837 -0.8616 -0.8010
  851MOL0     C14810   8.054   3.368   4.209 -0.3536  0.7860  0.1189
  851MOL0     C14811   8.077   3.251   4.301  0.0170  0.5056 -0.3158
  851MOL0     C14812   8.065   3.294   4.456 -0.4420  0.4697  0.5492
  851MOL0     C14813   7.926   3.324   4.469 -0.2687  0.9744  0.0282
  851MOL0     C14814   7.810   3.350   4.500 -0.0870 -0.5424  0.5140
  851MOL0     C14815   8.435   3.302   3.937  0.4716  0.3633  0.0125
  851MOL0     C14816   8.515   3.336   3.834 -0.0186  0.0398 -0.3719
  851MOL0     C14817   8.661   3.296   3.856  0.4932  0.8888  0.2923
  851MOL0     H14818   8.689   3.337   3.369  1.2031  0.8440  1.8540
  851MOL0     H14819   8.815   3.454   3.186  1.3854  2.6687 -0.4909
  851MOL0     H14820   8.898   3.727   3.186 -3.2493 -1.6445  1.3207
  851MOL0     H14821   8.942   3.624   3.055  0.1299  0.3870  1.5768
  851MOL0     H14822   8.873   3.914   3.018  2.4895  0.0346  2.7132
  851MOL0     H14823   8.901   3.800   2.883  0.1932 -1.7158  0.0704
  851MOL0     H14824   9.093   3.909   2.929 -2.4563  1.2390 -0.5317
  851MOL0     H14825   9.104   3.732   2.961  1.6599  0.2446  0.1654
  851MOL0     H14826   9.066   3.924   3.189 -1.8410 -2.6381  1.3253
  851MOL0     H14827   9.131   3.759   3.194 -1.7768 -0.0433 -0.4571
  851MOL0     H14828   9.323   3.825   3.075 -1.3347 -2.0700  3.0593
  851MOL0     H14829   9.259   3.992   3.054  0.9066  0.3127  0.0283
  851MOL0     H14830   9.306   4.055   3.278 -0.9476 -0.4036 -0.1991
  851MOL0     H14831   9.310   3.891   3.337  0.8929  2.6036  1.3004
  851MOL0     H14832   9.503   3.998   3.140 -0.1708 -2.4999 -1.1962
  851MOL0     H14833   9.508   3.841   3.232  0.4605  0.0017  0.9886
  851MOL0     H14834   9.556   4.112   3.339 -0.9241 -0.3800 -1.3019
  851MOL0     H14835   9.544   3.982   3.446 -1.4893  1.2362 -0.1312
  851MOL0     H14836   9.737   3.814   3.157  0.8788 -2.5990  0.4729
  851MOL0     H14837   9.970   3.760   3.097 -0.9541  2.4307 -2.1142
  851MOL0     H14838  10.058   3.902   3.128  0.0991  1.1429  0.7833
  851MOL0     H14839  10.216   3.811   3.239 -2.0563  2.9449 -3.2673
  851MOL0     H14840  10.111   3.719   3.352 -2.4242  0.5108 -0.6094
  851MOL0     H14841  10.177   3.647   3.069 -3.7193 -0.7210 -0.2090
  851MOL0     H14842  10.082   3.545   3.179 -1.4087  2.1370 -2.2738
  851MOL0     H14843  10.284   3.439   3.221  0.8153 -0.3109  1.8649
  851MOL0     H14844  10.261   3.547   3.345 -0.9724  1.1147  0.1192
  851MOL0     H14845  10.617   3.738   3.112  3.6474  0.4220 -0.9908
  851MOL0     H14846  10.847   3.675   3.143 -0.7123  0.4533 -2.8974
  851MOL0     H14847  11.186   3.311   3.219 -1.8107  1.3130 -1.1308
  851MOL0     H14848  11.445   3.300   3.257  0.5533  0.2914  0.6475
  851MOL0     H14849  11.633   3.366   3.162 -0.3602  0.5359 -0.4754
  851MOL0     H14850  11.650   3.534   3.101  0.3806 -0.6730 -0.8097
  851MOL0     H14851  11.854   3.395   3.136  0.0337 -0.1017 -0.2432
  851MOL0     H14852  11.859   3.559   3.200 -0.3706  0.1095  1.1385
  851MOL0     H14853  11.808   3.448   3.440  3.8721  0.5699  1.2917
  851MOL0     H14854  11.779   3.309   3.348  0.3077 -0.6786  0.4948
  851MOL0     H14855  12.016   3.308   3.270 -1.8233  2.5916 -0.9112
  851MOL0     H14856  11.982   3.261   3.435  3.3333 -0.6394  0.3215
  851MOL0     H14857  12.043   3.505   3.503 -1.3236 -1.3656  0.1244
  851MOL0     H14858  12.094   3.528   3.343 -3.2400  0.5427 -0.4998
  851MOL0     H14859  12.245   3.315   3.375 -2.1531  1.8913 -2.5427
  851MOL0     H14860  12.290   3.462   3.475 -2.3548  2.1214 -1.0299
  851MOL0     H14861  12.198   3.200   3.568 -1.7651  0.0450 -1.1143
  851MOL0     H14862  12.103   3.319   3.641  1.0995 -3.0259  3.7694
  851MOL0     H14863  12.301   3.283   3.786  4.2482  1.4937  1.5555
  851MOL0     H14864  12.408   3.304   3.656 -0.1826  0.6084 -0.1353
  851MOL0     H14865  11.456   3.708   3.302 -0.4997  1.2641 -1.0394
  851MOL0     H14866  11.202   3.727   3.252  0.5932  0.3476 -0.2123
  851MOL0     H14867  10.709   3.332   3.384  0.0081 -1.5700 -1.1328
  851MOL0     H14868  10.493   3.411   3.368  0.7703 -0.2663 -0.2799
  851MOL0     H14869   8.510   3.748   3.150 -0.7904 -1.2572  0.7568
  851MOL0     H14870   8.383   3.624   3.353  1.8858  0.4797  2.5028
  851MOL0     H14871   8.272   3.412   3.612  0.3080 -1.7996 -0.7826
  851MOL0     H14872   8.137   3.386   3.798 -0.9130 -4.1351 -0.0639
  851MOL0     H14873   8.027   3.264   4.018 -2.2460 -1.3401  1.8874
  851MOL0     H14874   8.090   3.428   4.000 -0.5527  0.9164  1.6582
  851MOL0     H14875   7.954   3.411   4.213 -0.9291 -0.4448 -0.4014
  851MOL0     H14876   8.124   3.447   4.237  1.2059  0.1028 -1.6319
  851MOL0     H14877   8.182   3.228   4.283  0.0321  1.1286 -1.0596
  851MOL0     H14878   8.018   3.165   4.269  0.0473  0.6928 -0.8769
  851MOL0     H14879   8.089   3.205   4.515  2.3634 -0.0085 -1.1659
  851MOL0     H14880   8.115   3.383   4.495 -0.6682  0.1544  1.5903
  851MOL0     H14881   7.710   3.368   4.536  1.0637 -0.3283  3.8964
  851MOL0     H14882   8.477   3.271   4.032 -0.9935 -1.9851 -0.0334
  851MOL0     H14883   8.669   3.187   3.862  2.2222  0.9127 -1.0129
  851MOL0     H14884   8.724   3.322   3.771 -1.6650  2.0289 -1.0552
  851MOL0     H14885   8.707   3.352   3.938  2.8879 -0.3799 -0.0746
  852MOL0     O14886   6.940   5.893   1.439  0.3148 -0.0506  0.2012
  852MOL0     C14887   6.873   5.974   1.377 -0.2684  0.5073 -0.0187
  852MOL0     O14888   6.916   6.092   1.333  0.2857  0.2024  0.0468
  852MOL0     C14889   7.041   6.129   1.331 -0.2105 -0.8203 -0.5591
  852MOL0     C14890   7.148   6.045   1.307 -0.8754  0.3178 -0.0397
  852MOL0     C14891   7.282   6.099   1.306  0.3401  0.1158 -0.5508
  852MOL0     C14892   7.302   6.239   1.317 -0.1378  0.4039 -0.8628
  852MOL0     O14893   7.420   6.306   1.300  0.3837  0.1845  0.2100
  852MOL0     C14894   7.538   6.230   1.267  0.0211 -0.0548 -0.3497
  852MOL0     C14895   7.616   6.175   1.385  0.2526  0.0153  0.4012
  852MOL0     C14896   7.753   6.114   1.339 -0.0067  0.7814  0.1682
  852MOL0     C14897   7.836   6.067   1.463 -0.5599  0.0846  0.1017
  852MOL0     C14898   7.970   6.005   1.403 -0.3702  0.2660  0.2629
  852MOL0     C14899   8.088   6.098   1.435 -0.0745 -0.0755 -0.1857
  852MOL0     C14900   8.220   6.041   1.370  0.2809 -0.5100  0.7674
  852MOL0     C14901   8.341   6.135   1.404 -0.1077 -0.7784 -0.1512
  852MOL0     N14902   8.456   6.106   1.313  0.7228  0.7548 -0.1537
  852MOL0     C14903   8.569   6.029   1.323 -0.7826 -0.2197  0.5445
  852MOL0     C14904   8.636   6.052   1.212  0.2692 -0.2224  0.4475
  852MOL0     C14905   8.766   5.985   1.202  0.4106  0.1815  0.8590
  852MOL0     C14906   8.868   6.091   1.154  0.1872  0.4026  0.5127
  852MOL0     C14907   9.006   6.037   1.194  0.5880  0.2004  0.3784
  852MOL0     C14908   9.118   6.122   1.144  0.6831 -0.4719  0.2807
  852MOL0     O14909   9.096   6.256   1.191 -0.3132 -0.0217 -0.0341
  852MOL0     C14910   9.191   6.350   1.168 -0.3641  1.3662 -0.1506
  852MOL0     C14911   9.204   6.445   1.261 -0.2038 -0.4700  0.3573
  852MOL0     C14912   9.313   6.535   1.258 -0.2919 -1.1562 -0.3414
  852MOL0     C14913   9.402   6.537   1.157  0.0987  0.4545  0.5281
  852MOL0     C14914   9.503   6.644   1.134 -0.7483 -0.6601 -0.3552
  852MOL0     O14915   9.591   6.641   1.031 -0.2534  0.3890  0.3374
  852MOL0     C14916   9.697   6.725   1.038 -0.5394 -0.2307  0.0721
  852MOL0     C14917   9.742   6.775   0.918 -0.3412 -0.4087  0.3793
  852MOL0     C14918   9.860   6.856   0.907  0.1337  0.3437 -0.0965
  852MOL0     C14919   9.920   6.908   1.021  0.1120  0.2657  1.3821
  852MOL0     O14920  10.038   6.979   1.003 -0.4617  0.3869  0.2490
  852MOL0     C14921  10.141   6.969   1.107 -0.3362 -0.4174  0.2824
  852MOL0     C14922  10.272   7.035   1.058  0.0123  0.8486  0.2208
  852MOL0     C14923  10.394   6.951   1.101 -0.5467 -1.0718 -1.1992
  852MOL0     C14924  10.520   7.039   1.077  0.0790 -0.5604  0.3797
  852MOL0     C14925  10.639   6.972   1.131 -0.5679 -0.3987 -0.2072
  852MOL0     C14926  10.763   7.060   1.111 -0.0693  0.0886 -0.7467
  852MOL0     C14927  10.887   7.000   1.193 -0.0838 -0.2903 -0.3006
  852MOL0     C14928  11.027   7.054   1.148 -0.0441 -0.0075 -0.0695
  852MOL0    Cl14929  11.030   7.230   1.160 -0.1211  0.2881  0.0102
  852MOL0     C14930   9.872   6.860   1.136  0.2644 -0.0041 -0.6131
  852MOL0     C14931   9.758   6.776   1.157 -0.6374  0.2467  0.8823
  852MOL0     O14932   9.483   6.744   1.208 -0.0122  0.0150 -0.5809
  852MOL0     C14933   9.391   6.444   1.056  0.3038  0.6422  0.2115
  852MOL0     C14934   9.287   6.350   1.060 -0.1379 -0.1201 -0.0838
  852MOL0     N14935   8.559   6.131   1.126  0.1936  0.4490  0.4525
  852MOL0     N14936   8.449   6.160   1.190  0.2874  0.1698  0.9088
  852MOL0     C14937   7.189   6.321   1.346 -0.4928 -0.4390 -0.1063
  852MOL0     C14938   7.058   6.261   1.356 -0.5596 -0.0705 -0.0448
  852MOL0     C14939   6.732   5.939   1.338  0.7074 -0.2327  0.0940
  852MOL0     C14940   6.699   5.805   1.360  0.3368 -0.3211 -0.4357
  852MOL0     C14941   6.566   5.759   1.354 -0.0151  0.0521 -0.3139
  852MOL0     C14942   6.465   5.850   1.320  0.4136 -0.1988 -0.1485
  852MOL0     O14943   6.329   5.817   1.299  0.1980  0.1634  0.7844
  852MOL0     C14944   6.258   5.707   1.372 -0.1141  0.3718  0.6330
  852MOL0     C14945   6.128   5.698   1.285  0.2724  0.0798 -0.1798
  852MOL0     C14946   6.061   5.560   1.313  0.8843 -0.1849 -0.6600
  852MOL0     C14947   5.965   5.520   1.210 -0.8272 -0.3912 -0.2861
  852MOL0     C14948   6.025   5.462   1.091 -0.1491  0.9968  1.0612
  852MOL0     C14949   6.064   5.421   0.980  0.0562 -0.3981  0.2783
  852MOL0     C14950   6.502   5.981   1.283  0.1809 -0.2237 -0.3492
  852MOL0     C14951   6.631   6.034   1.296  0.2915  0.0495  0.9644
  852MOL0     C14952   6.661   6.181   1.272  0.1417 -1.2414  0.6500
  852MOL0     H14953   7.140   5.937   1.309 -0.0894  0.2566  0.0985
  852MOL0     H14954   7.356   6.020   1.298  2.3674  1.5625  2.2456
  852MOL0     H14955   7.521   6.148   1.197  1.1190 -1.0259  0.4893
  852MOL0     H14956   7.603   6.304   1.220 -0.9430  1.9401  1.3197
  852MOL0     H14957   7.557   6.099   1.438  3.2047 -3.6807 -1.1047
  852MOL0     H14958   7.640   6.265   1.443 -2.8024  1.0858  0.1493
  852MOL0     H14959   7.816   6.191   1.294  0.3436 -0.3166 -1.3029
  852MOL0     H14960   7.743   6.034   1.265  3.5724 -0.6228  1.0230
  852MOL0     H14961   7.850   6.148   1.535 -1.4834  1.3476 -1.0797
  852MOL0     H14962   7.774   5.986   1.504  1.1231 -1.1850  0.2338
  852MOL0     H14963   7.978   5.902   1.437 -1.7884  0.4400  1.2396
  852MOL0     H14964   7.965   6.001   1.294 -0.3730 -2.0794  0.3102
  852MOL0     H14965   8.077   6.198   1.393 -0.6800 -0.3877 -0.7932
  852MOL0     H14966   8.094   6.116   1.543 -0.7094  2.5643 -0.5225
  852MOL0     H14967   8.203   6.030   1.263  1.6366  2.7742  0.0991
  852MOL0     H14968   8.235   5.939   1.407  1.2969  0.0182  1.8886
  852MOL0     H14969   8.299   6.234   1.384 -4.5750 -2.2090  1.0036
  852MOL0     H14970   8.357   6.116   1.510 -1.7492 -2.6430 -0.1729
  852MOL0     H14971   8.589   5.960   1.405  0.1580  0.2379  0.7161
  852MOL0     H14972   8.783   5.928   1.294 -0.3634  0.7307  1.3529
  852MOL0     H14973   8.768   5.913   1.120  2.9383  0.7255  0.3431
  852MOL0     H14974   8.861   6.101   1.045 -1.4611 -1.2484  0.4078
  852MOL0     H14975   8.841   6.183   1.205 -1.4038 -0.4761  1.3498
  852MOL0     H14976   9.016   5.939   1.147  2.9339  0.9717 -0.8757
  852MOL0     H14977   9.016   6.022   1.302  2.4133 -0.3822  0.1566
  852MOL0     H14978   9.115   6.125   1.035  2.5955  0.9883  0.2156
  852MOL0     H14979   9.213   6.083   1.180  1.4469  0.5111 -0.6098
  852MOL0     H14980   9.131   6.438   1.341 -1.7548  1.4840 -0.7831
  852MOL0     H14981   9.314   6.604   1.342  1.1464 -0.7517 -0.6597
  852MOL0     H14982   9.697   6.762   0.820  1.2595  1.3655 -0.6542
  852MOL0     H14983   9.901   6.883   0.810  1.8918 -0.1013  0.4801
  852MOL0     H14984  10.119   7.018   1.203  1.9072  0.8105  0.2311
  852MOL0     H14985  10.148   6.862   1.126  0.0058 -0.4072  0.2274
  852MOL0     H14986  10.265   7.060   0.952  0.6337 -0.7915 -0.2368
  852MOL0     H14987  10.283   7.125   1.118  0.3341  1.0702 -0.1704
  852MOL0     H14988  10.384   6.925   1.207 -2.5636 -1.8129 -1.5154
  852MOL0     H14989  10.405   6.861   1.039  0.3931 -2.4212  0.7968
  852MOL0     H14990  10.515   7.135   1.129 -1.6995 -0.3626 -0.0851
  852MOL0     H14991  10.541   7.043   0.970  0.3241  1.1260  0.4596
  852MOL0     H14992  10.654   6.884   1.067  3.4627 -0.5256  0.6202
  852MOL0     H14993  10.623   6.947   1.236  2.7281  0.6778  0.6650
  852MOL0     H14994  10.790   7.080   1.007  2.1685  0.8939 -0.0756
  852MOL0     H14995  10.741   7.157   1.158  1.1893  1.9757 -3.7424
  852MOL0     H14996  10.882   6.891   1.189  0.1875 -0.2772 -1.5204
  852MOL0     H14997  10.873   7.032   1.296  0.4557  1.7021 -0.7878
  852MOL0     H14998  11.112   7.009   1.199 -0.4629 -1.1669 -0.3726
  852MOL0     H14999  11.047   7.022   1.046 -0.9190  0.4225 -0.3832
  852MOL0     H15000   9.921   6.881   1.231 -2.4299 -0.4359  0.9799
  852MOL0     H15001   9.717   6.745   1.252 -2.5503  0.5768  0.1997
  852MOL0     H15002   9.464   6.431   0.976 -0.5390 -0.2124 -0.4388
  852MOL0     H15003   9.282   6.285   0.973 -3.1923 -0.3852  0.1668
  852MOL0     H15004   7.211   6.427   1.357  0.8532 -0.5512 -1.4220
  852MOL0     H15005   6.984   6.337   1.375  0.5002  1.4554 -1.6645
  852MOL0     H15006   6.768   5.741   1.415 -0.5955 -1.2986 -0.3714
  852MOL0     H15007   6.535   5.661   1.389 -2.8743  1.3693  1.1768
  852MOL0     H15008   6.238   5.734   1.476 -0.4439 -1.0585  0.9551
  852MOL0     H15009   6.313   5.613   1.363  0.4617  0.7316  0.3726
  852MOL0     H15010   6.142   5.711   1.177 -2.7537  3.4388 -0.3353
  852MOL0     H15011   6.065   5.786   1.302 -0.2869 -0.2478 -0.5312
  852MOL0     H15012   6.003   5.566   1.405 -0.1385  2.8498 -1.3808
  852MOL0     H15013   6.138   5.485   1.327 -1.7430 -2.6880  1.4835
  852MOL0     H15014   5.899   5.444   1.253  0.7348 -0.7597  1.6084
  852MOL0     H15015   5.907   5.611   1.191  0.0782 -0.1523 -2.1114
  852MOL0     H15016   6.092   5.382   0.884 -0.4597 -1.9911  0.7460
  852MOL0     H15017   6.410   6.039   1.275  0.7942  0.5753 -2.3357
  852MOL0     H15018   6.728   6.190   1.185 -1.7224 -3.3727 -1.1443
  852MOL0     H15019   6.567   6.230   1.245  1.1072  0.6427  0.5169
  852MOL0     H15020   6.696   6.227   1.365 -0.0552  1.1507 -0.3858
  853MOL0     O15021   2.748   4.313   6.584  0.4264  0.3883  0.0341
  853MOL0     C15022   2.702   4.210   6.527 -0.0193  1.0589  1.3669
  853MOL0     O15023   2.776   4.105   6.473  0.5781  0.1452  0.1497
  853MOL0     C15024   2.912   4.125   6.469 -0.6805  0.0264  0.4103
  853MOL0     C15025   3.003   4.046   6.539  0.4354  1.0117  1.0547
  853MOL0     C15026   3.151   4.072   6.509 -0.4795  0.1305 -0.4055
  853MOL0     C15027   3.195   4.161   6.406  0.2104  0.1176 -0.0643
  853MOL0     O15028   3.327   4.179   6.363  0.2382  0.8046  0.3204
  853MOL0     C15029   3.426   4.091   6.414  0.7610  0.0857  0.6120
  853MOL0     C15030   3.548   4.098   6.327 -0.1734 -0.2236  0.0704
  853MOL0     C15031   3.650   3.987   6.367 -0.2868 -0.0859 -0.1796
  853MOL0     C15032   3.779   4.033   6.298  0.1895  0.7099 -0.3566
  853MOL0     C15033   3.892   3.930   6.339 -0.5425  0.4909  0.5771
  853MOL0     C15034   4.028   3.984   6.278  0.9687 -0.2291  0.3161
  853MOL0     C15035   4.154   3.907   6.322 -1.1611  0.6091 -0.6320
  853MOL0     C15036   4.165   3.895   6.469 -0.3260 -0.1665 -0.1774
  853MOL0     N15037   4.164   4.028   6.537  0.4592 -0.5833  0.5217
  853MOL0     C15038   4.053   4.083   6.602  0.2738 -0.2550  0.3781
  853MOL0     C15039   4.091   4.207   6.636 -0.0177 -0.0655 -0.4485
  853MOL0     C15040   4.000   4.323   6.688 -0.3527  0.1660  0.2094
  853MOL0     C15041   3.854   4.289   6.675 -0.1572  0.0968  0.3054
  853MOL0     C15042   3.757   4.404   6.710  0.4119  0.4548  0.9605
  853MOL0     C15043   3.606   4.371   6.705 -0.3983  0.8767 -0.1077
  853MOL0     O15044   3.579   4.273   6.808  0.2305 -0.1619 -0.3615
  853MOL0     C15045   3.439   4.235   6.824 -0.6710 -0.5726  0.0033
  853MOL0     C15046   3.325   4.286   6.749 -0.3710  0.5452  0.8059
  853MOL0     C15047   3.197   4.247   6.798  0.0680 -0.1581  0.1772
  853MOL0     C15048   3.183   4.154   6.901 -0.2090  0.3308  0.0463
  853MOL0     C15049   3.050   4.096   6.934 -0.6013 -0.5646  0.8874
  853MOL0     O15050   2.960   4.111   6.839  0.7860 -0.1075 -0.4092
  853MOL0     C15051   2.853   4.029   6.846 -0.4423 -0.8978  0.0734
  853MOL0     C15052   2.734   4.091   6.885  0.2354 -0.7401  0.3869
  853MOL0     C15053   2.621   4.007   6.878 -0.4429 -0.1839 -0.0956
  853MOL0     C15054   2.627   3.871   6.851  0.4747 -0.8095 -0.1041
  853MOL0     O15055   2.512   3.795   6.845 -1.0266  0.2148 -0.2975
  853MOL0     C15056   2.505   3.694   6.743  1.2020 -0.6805 -0.4114
  853MOL0     C15057   2.371   3.633   6.759 -0.9193  0.1543  0.3848
  853MOL0     C15058   2.348   3.490   6.703  0.6315  0.3735  0.2401
  853MOL0     C15059   2.198   3.449   6.713 -0.1924  0.9166 -0.0712
  853MOL0     C15060   2.156   3.315   6.650  0.5462 -0.7031 -0.1704
  853MOL0     C15061   2.201   3.304   6.507 -0.4308  0.2867  1.2180
  853MOL0     C15062   2.120   3.190   6.430 -0.0118 -0.5687 -0.2003
  853MOL0     C15063   2.178   3.177   6.293  0.1515 -0.0211 -0.4923
  853MOL0    Cl15064   2.089   3.283   6.177 -0.0038  0.3423 -0.2463
  853MOL0     C15065   2.748   3.820   6.817 -0.3968  0.6333 -0.2866
  853MOL0     C15066   2.867   3.898   6.813 -0.4012  0.3810  0.3251
  853MOL0     O15067   3.033   4.031   7.037  1.2520 -0.0801 -0.8360
  853MOL0     C15068   3.292   4.111   6.976  0.0635  0.1847 -0.2659
  853MOL0     C15069   3.421   4.156   6.940  0.6466  0.2628  0.7610
  853MOL0     N15070   4.226   4.223   6.609 -0.0858 -0.5637 -0.1258
  853MOL0     N15071   4.272   4.114   6.559 -0.4107  0.5286  0.1622
  853MOL0     C15072   3.094   4.231   6.332  0.1644 -0.5504 -0.9524
  853MOL0     C15073   2.960   4.213   6.365 -0.3775  0.8233 -0.0860
  853MOL0     C15074   2.561   4.196   6.505  0.0554 -0.5295  0.8642
  853MOL0     C15075   2.498   4.084   6.547 -0.5103 -0.6974 -0.0418
  853MOL0     C15076   2.356   4.076   6.539  0.0841 -0.0205  0.6194
  853MOL0     C15077   2.279   4.173   6.467  0.1575 -0.5737 -0.7343
  853MOL0     O15078   2.152   4.152   6.459 -0.3993 -0.8520  0.3609
  853MOL0     C15079   2.058   4.264   6.454 -0.2607 -0.1617  0.7002
  853MOL0     C15080   1.998   4.275   6.310 -0.3325 -0.3256 -0.5139
  853MOL0     C15081   1.956   4.137   6.248 -0.2247 -0.3702 -0.4894
  853MOL0     C15082   1.884   4.035   6.336  0.0975 -0.4440 -0.4366
  853MOL0     C15083   1.776   4.109   6.410  0.1153 -0.0053  0.3872
  853MOL0     C15084   1.691   4.175   6.477  0.2686  0.1566 -0.5230
  853MOL0     C15085   2.348   4.293   6.420 -0.4558  0.0774  0.4164
  853MOL0     C15086   2.489   4.301   6.441 -0.1216 -0.1578 -0.4689
  853MOL0     C15087   2.543   4.440   6.396 -0.5736  0.5052  0.0925
  853MOL0     H15088   2.972   3.966   6.605 -2.1119 -0.9187 -2.1758
  853MOL0     H15089   3.226   4.018   6.567 -0.1378  0.0287 -0.9412
  853MOL0     H15090   3.435   4.113   6.521 -0.1727 -2.3476  1.2664
  853MOL0     H15091   3.390   3.987   6.410 -0.1618  0.4296 -0.4673
  853MOL0     H15092   3.584   4.200   6.342 -1.4370 -0.0587  2.4952
  853MOL0     H15093   3.506   4.084   6.227 -1.9935  1.9428  0.4486
  853MOL0     H15094   3.617   3.886   6.341 -3.2194  0.4843  0.9851
  853MOL0     H15095   3.662   3.982   6.475 -0.4649 -1.3303 -0.2122
  853MOL0     H15096   3.767   4.030   6.190 -2.2974 -1.1170 -0.1112
  853MOL0     H15097   3.803   4.134   6.332  3.1759 -0.3825  1.2134
  853MOL0     H15098   3.885   3.925   6.448  2.0045  1.3588  0.8256
  853MOL0     H15099   3.863   3.830   6.304 -1.6523  0.6156  1.0731
  853MOL0     H15100   4.023   3.974   6.169  0.6390  1.4421  0.1593
  853MOL0     H15101   4.035   4.091   6.297 -0.6269 -0.3153  1.6475
  853MOL0     H15102   4.249   3.943   6.284 -0.8390  1.6573  1.0661
  853MOL0     H15103   4.151   3.805   6.282 -0.1361  0.1948  0.2941
  853MOL0     H15104   4.085   3.834   6.513 -0.0006  0.7164  1.7285
  853MOL0     H15105   4.264   3.852   6.489  2.0271  4.5968 -0.1698
  853MOL0     H15106   3.948   4.056   6.610  0.4164 -0.4142  1.9983
  853MOL0     H15107   4.020   4.341   6.794 -0.3880  1.5518 -0.0006
  853MOL0     H15108   4.018   4.412   6.627 -0.9006 -1.2526 -2.1313
  853MOL0     H15109   3.824   4.264   6.573  1.3243 -0.8783  0.0871
  853MOL0     H15110   3.835   4.201   6.738 -0.5108 -0.0332  0.0210
  853MOL0     H15111   3.778   4.501   6.666  1.0849  0.3486  1.0438
  853MOL0     H15112   3.773   4.427   6.816  1.7123 -0.9291  1.0983
  853MOL0     H15113   3.592   4.317   6.611  1.4473 -1.5314  0.8575
  853MOL0     H15114   3.536   4.455   6.700  0.1197  1.3092 -0.1714
  853MOL0     H15115   3.338   4.346   6.659  1.7590 -0.9886 -0.0017
  853MOL0     H15116   3.114   4.298   6.750  1.6526  3.2962  0.7721
  853MOL0     H15117   2.720   4.193   6.919 -1.1075 -0.8172  0.1477
  853MOL0     H15118   2.524   4.048   6.905 -0.5634  2.0277 -3.2765
  853MOL0     H15119   2.525   3.732   6.643  2.5095 -1.0140 -0.2980
  853MOL0     H15120   2.581   3.618   6.761 -0.2594 -1.6255  2.3844
  853MOL0     H15121   2.357   3.629   6.868  0.5443  0.1062  0.5915
  853MOL0     H15122   2.293   3.694   6.713 -1.8623 -1.3289 -0.0756
  853MOL0     H15123   2.391   3.482   6.603  0.8973  0.2237  0.3657
  853MOL0     H15124   2.392   3.412   6.764  0.4407 -1.1814 -1.5217
  853MOL0     H15125   2.135   3.529   6.673 -1.7548 -0.4595 -0.4931
  853MOL0     H15126   2.184   3.437   6.821  1.2122 -4.0601 -0.1676
  853MOL0     H15127   2.049   3.302   6.666  0.2775  0.2261 -1.0786
  853MOL0     H15128   2.199   3.230   6.704  2.1106 -0.4387 -0.9377
  853MOL0     H15129   2.201   3.396   6.447 -0.3408 -0.6771 -0.3109
  853MOL0     H15130   2.307   3.279   6.520  0.3112  1.0449 -2.1959
  853MOL0     H15131   2.014   3.215   6.423 -0.0293 -0.6577 -0.2617
  853MOL0     H15132   2.136   3.099   6.489  1.2951 -0.2129  0.0311
  853MOL0     H15133   2.283   3.208   6.289  0.5524 -1.2636 -0.2057
  853MOL0     H15134   2.171   3.075   6.253  0.7075 -0.2581 -0.0014
  853MOL0     H15135   2.755   3.714   6.797  0.9380  0.4729  0.8127
  853MOL0     H15136   2.969   3.863   6.801  0.2344  2.1304  0.3365
  853MOL0     H15137   3.289   4.046   7.063 -0.9563  1.3768  0.6251
  853MOL0     H15138   3.508   4.143   7.004  1.5212  0.1809 -0.4054
  853MOL0     H15139   3.133   4.307   6.264  1.6707  0.6133  1.1083
  853MOL0     H15140   2.897   4.262   6.292  2.2955  0.7736 -2.6264
  853MOL0     H15141   2.557   4.007   6.597 -0.8328 -0.5485  0.5760
  853MOL0     H15142   2.310   3.989   6.584  1.7756 -0.9733  0.5702
  853MOL0     H15143   2.110   4.356   6.482 -2.4293  1.9709 -1.7255
  853MOL0     H15144   1.979   4.253   6.529  0.5753 -0.9840  1.4892
  853MOL0     H15145   2.079   4.312   6.246  1.4170  1.6849  2.5943
  853MOL0     H15146   1.911   4.341   6.312  0.6017  1.0108 -2.0120
  853MOL0     H15147   2.046   4.084   6.214 -0.8893  0.4711 -3.9857
  853MOL0     H15148   1.899   4.162   6.158 -0.3905  0.4133 -0.1767
  853MOL0     H15149   1.834   3.960   6.274 -1.1746  0.6310 -0.7732
  853MOL0     H15150   1.950   3.993   6.412 -0.5753  0.3550  0.6261
  853MOL0     H15151   1.613   4.213   6.539  0.4413 -1.2552  0.6093
  853MOL0     H15152   2.292   4.371   6.370  3.1273  1.4031 -1.8775
  853MOL0     H15153   2.567   4.494   6.488  1.6585 -1.7063  0.9281
  853MOL0     H15154   2.638   4.421   6.346  0.3449 -0.0584  1.9540
  853MOL0     H15155   2.475   4.497   6.332 -1.9850 -1.3195 -0.1235
  854MOL0     O15156  11.156   3.823  10.755  0.4789  0.6973 -0.0994
  854MOL0     C15157  11.214   3.819  10.649 -0.4835  0.0412  0.4071
  854MOL0     O15158  11.168   3.844  10.522 -0.7057  0.0414 -0.2977
  854MOL0     C15159  11.037   3.826  10.515  0.1902 -0.0928 -0.2446
  854MOL0     C15160  10.971   3.943  10.504  0.2713  0.6947  0.0963
  854MOL0     C15161  10.828   3.941  10.494 -0.7812 -0.1219  0.2269
  854MOL0     C15162  10.751   3.825  10.485  0.0695 -0.4541  0.7525
  854MOL0     O15163  10.619   3.844  10.470  0.2812  0.3344  0.0515
  854MOL0     C15164  10.539   3.742  10.406  0.7585 -0.4965 -0.0693
  854MOL0     C15165  10.392   3.791  10.390  1.3143 -0.0714  0.3169
  854MOL0     C15166  10.302   3.706  10.291  0.1207 -0.5182  0.4705
  854MOL0     C15167  10.155   3.744  10.302  0.0108 -0.7293 -0.9417
  854MOL0     C15168  10.071   3.686  10.193 -0.3829 -0.1151 -0.1825
  854MOL0     C15169   9.920   3.685  10.223 -0.8084  1.0669  0.4774
  854MOL0     C15170   9.872   3.812  10.276  0.7158  0.4167 -0.0071
  854MOL0     C15171   9.895   3.935  10.190  0.4848 -1.1223 -0.5320
  854MOL0     N15172   9.808   4.051  10.218  0.1453  0.6593  0.6775
  854MOL0     C15173   9.701   4.062  10.300 -0.2163 -0.9257 -0.1403
  854MOL0     C15174   9.655   4.188  10.284  0.3117  0.0189 -0.3582
  854MOL0     C15175   9.530   4.237  10.341 -0.8534 -0.3718 -0.1562
  854MOL0     C15176   9.511   4.196  10.487 -0.1682 -0.4018  0.5027
  854MOL0     C15177   9.609   4.286  10.567  0.5954  0.4561  0.1827
  854MOL0     C15178   9.586   4.255  10.720 -0.3620 -0.4030 -0.6347
  854MOL0     O15179   9.641   4.356  10.809 -0.1452  0.1396 -0.5490
  854MOL0     C15180   9.780   4.374  10.816  0.2283  0.3962  0.1112
  854MOL0     C15181   9.826   4.494  10.844 -0.6518  0.0860  0.3791
  854MOL0     C15182   9.963   4.522  10.862 -1.0593  0.0988 -0.5656
  854MOL0     C15183  10.054   4.413  10.868 -0.1460 -1.2261 -0.4968
  854MOL0     C15184  10.207   4.432  10.881 -0.0308 -0.4763 -0.5129
  854MOL0     O15185  10.275   4.316  10.892 -0.0964  0.3106 -0.3668
  854MOL0     C15186  10.410   4.322  10.900 -0.6455 -0.1930 -0.7636
  854MOL0     C15187  10.476   4.268  11.006 -0.1610  0.0022 -0.0424
  854MOL0     C15188  10.610   4.272  11.014 -0.6623  0.1837 -0.3546
  854MOL0     C15189  10.691   4.340  10.925  0.6279 -0.4179 -0.4545
  854MOL0     O15190  10.830   4.343  10.942 -0.6978  0.2637  0.3744
  854MOL0     C15191  10.869   4.439  11.033 -0.7561  0.2386  0.5382
  854MOL0     C15192  11.022   4.442  11.010  0.5699  0.0035 -0.1434
  854MOL0     C15193  11.100   4.554  11.079  0.3459  0.0552  1.0802
  854MOL0     C15194  11.092   4.541  11.235 -0.7404  0.2559  0.4417
  854MOL0     C15195  11.223   4.527  11.299 -0.3328  0.4241  0.5645
  854MOL0     C15196  11.285   4.382  11.271  0.2222  0.5081 -0.2120
  854MOL0     C15197  11.395   4.337  11.375 -0.0135 -0.0279 -0.0664
  854MOL0     C15198  11.488   4.227  11.329  0.1176  0.3228  0.1618
  854MOL0    Cl15199  11.584   4.164  11.459 -0.1913  0.2512 -0.0010
  854MOL0     C15200  10.627   4.411  10.817  0.0589 -0.0288 -0.3751
  854MOL0     C15201  10.484   4.385  10.803 -0.2907 -0.2029 -0.0893
  854MOL0     O15202  10.258   4.547  10.876 -0.0647  0.2739  1.2181
  854MOL0     C15203  10.001   4.282  10.842  0.1430  0.0926 -0.1231
  854MOL0     C15204   9.867   4.262  10.823  0.6160 -1.0035 -0.3668
  854MOL0     N15205   9.742   4.257  10.195  0.7515  0.1728 -0.2518
  854MOL0     N15206   9.834   4.174  10.158  0.3717 -0.5489  0.6148
  854MOL0     C15207  10.827   3.707  10.497  0.8659 -0.4852  0.1184
  854MOL0     C15208  10.968   3.705  10.509 -0.4352 -0.3096  0.8561
  854MOL0     C15209  11.347   3.761  10.650  0.8058 -0.0201  0.3673
  854MOL0     C15210  11.409   3.724  10.529  0.0519 -0.8244 -0.1581
  854MOL0     C15211  11.532   3.674  10.518 -0.1077 -0.5963 -0.3953
  854MOL0     C15212  11.618   3.669  10.633  0.3606 -0.4870  0.6027
  854MOL0     O15213  11.744   3.627  10.599 -0.0673 -0.0464  0.3489
  854MOL0     C15214  11.838   3.614  10.714 -0.5973 -0.8732  0.9841
  854MOL0     C15215  11.893   3.749  10.749  0.0505 -0.1028  0.5201
  854MOL0     C15216  12.010   3.799  10.655  1.8276  0.8475 -0.5250
  854MOL0     C15217  12.040   3.934  10.709 -0.5731 -0.5936  0.2507
  854MOL0     C15218  12.166   3.976  10.649 -0.4542 -0.3771 -0.1136
  854MOL0     C15219  12.264   3.994  10.589 -0.3647 -0.4903  0.0392
  854MOL0     C15220  11.556   3.692  10.761 -0.3576  0.0323  0.1072
  854MOL0     C15221  11.425   3.744  10.769  0.0489 -0.3863 -0.6167
  854MOL0     C15222  11.382   3.793  10.909  0.6718  0.3615  0.0690
  854MOL0     H15223  11.037   4.028  10.514  1.2497 -0.2900  3.2111
  854MOL0     H15224  10.791   4.043  10.491  1.0621  0.5591 -0.4909
  854MOL0     H15225  10.577   3.732  10.304  0.4401 -0.3567 -0.2037
  854MOL0     H15226  10.541   3.642  10.450 -0.6167 -1.0588 -1.1774
  854MOL0     H15227  10.383   3.898  10.368  1.8827  0.3109  1.8234
  854MOL0     H15228  10.347   3.782  10.489  0.4008 -3.4249 -0.2730
  854MOL0     H15229  10.304   3.599  10.316 -1.4746 -0.7898 -0.4318
  854MOL0     H15230  10.341   3.714  10.189  0.6376 -0.8013  0.6379
  854MOL0     H15231  10.109   3.721  10.398 -1.3197 -0.5357 -1.5071
  854MOL0     H15232  10.155   3.853  10.298  4.0754 -0.4091  1.5166
  854MOL0     H15233  10.089   3.737  10.098  1.4342  0.2627  0.3327
  854MOL0     H15234  10.095   3.583  10.167 -0.4294 -0.7739  2.1365
  854MOL0     H15235   9.868   3.661  10.129  1.2152 -0.4361 -0.3516
  854MOL0     H15236   9.894   3.598  10.285  0.6306  0.3650  0.1519
  854MOL0     H15237   9.917   3.840  10.372  1.4179 -0.7072 -0.0057
  854MOL0     H15238   9.767   3.795  10.301  0.6585  0.5690 -0.1406
  854MOL0     H15239   9.994   3.980  10.199 -0.2989  0.6953 -0.5597
  854MOL0     H15240   9.883   3.911  10.084  1.7111 -2.4406 -0.4010
  854MOL0     H15241   9.662   3.990  10.371 -1.2693  1.0704  1.3933
  854MOL0     H15242   9.510   4.344  10.330 -3.4326 -0.6766  0.7845
  854MOL0     H15243   9.456   4.182  10.282 -1.1160 -0.5029  0.2946
  854MOL0     H15244   9.410   4.228  10.515  0.4524  0.4760  1.8044
  854MOL0     H15245   9.528   4.091  10.515  1.2269 -0.0348  1.1173
  854MOL0     H15246   9.593   4.393  10.549 -0.5119  0.3034  0.1679
  854MOL0     H15247   9.712   4.257  10.544 -0.5630 -0.7459 -4.7141
  854MOL0     H15248   9.627   4.158  10.749  1.1137  0.0881 -1.0048
  854MOL0     H15249   9.478   4.248  10.738 -0.3349 -1.8020 -0.9611
  854MOL0     H15250   9.767   4.585  10.837 -0.5655  0.0400 -4.3466
  854MOL0     H15251   9.984   4.627  10.876  0.4902  0.0686 -2.3294
  854MOL0     H15252  10.430   4.223  11.094  0.6301 -0.2244  0.2657
  854MOL0     H15253  10.660   4.230  11.101  0.9921  0.0546 -1.3133
  854MOL0     H15254  10.825   4.537  11.012 -1.4841 -0.1512  0.2287
  854MOL0     H15255  10.844   4.398  11.132 -0.5597 -0.1267  0.4398
  854MOL0     H15256  11.058   4.345  11.046  0.7582 -0.0462 -0.4629
  854MOL0     H15257  11.045   4.455  10.904  2.2247  0.6607  0.2527
  854MOL0     H15258  11.205   4.546  11.048 -0.3985 -2.6983 -1.1281
  854MOL0     H15259  11.059   4.653  11.057  2.1622  0.9864  1.6385
  854MOL0     H15260  11.038   4.449  11.258 -1.8469  0.8145  0.1557
  854MOL0     H15261  11.047   4.634  11.271  0.8533  0.7068  1.3652
  854MOL0     H15262  11.205   4.534  11.406 -2.8032  0.6186  0.1833
  854MOL0     H15263  11.291   4.608  11.269 -0.0257 -0.0511 -0.0404
  854MOL0     H15264  11.209   4.304  11.284  1.1570 -0.5914 -1.1578
  854MOL0     H15265  11.326   4.377  11.169  1.0985 -1.4467  0.1973
  854MOL0     H15266  11.331   4.306  11.459  1.5244  2.1822  2.0765
  854MOL0     H15267  11.454   4.426  11.401 -0.5529 -0.1216  1.6428
  854MOL0     H15268  11.425   4.145  11.294  1.3648 -1.2052  1.3439
  854MOL0     H15269  11.554   4.249  11.244  3.0388 -1.3295  1.8159
  854MOL0     H15270  10.697   4.444  10.741  0.0949 -0.2220 -0.4256
  854MOL0     H15271  10.442   4.434  10.715 -2.5133 -1.3864  0.2170
  854MOL0     H15272  10.058   4.189  10.840  2.3925  1.4214 -1.1420
  854MOL0     H15273   9.827   4.164  10.796 -0.5022 -0.0472 -2.4753
  854MOL0     H15274  10.778   3.610  10.497  2.3748 -1.2841 -0.6473
  854MOL0     H15275  11.028   3.617  10.527 -0.8587 -0.4957  1.3437
  854MOL0     H15276  11.350   3.729  10.438  0.6893  0.4804 -0.5161
  854MOL0     H15277  11.574   3.638  10.425  0.8261 -0.2190 -0.1339
  854MOL0     H15278  11.915   3.537  10.698  0.3328 -0.1852  1.9297
  854MOL0     H15279  11.792   3.580  10.807 -0.9024 -0.1704  1.0971
  854MOL0     H15280  11.926   3.756  10.854  0.5933  1.7101  0.2745
  854MOL0     H15281  11.812   3.821  10.732  0.0916 -0.7664 -3.2851
  854MOL0     H15282  11.974   3.805  10.552  0.4047  0.5922 -0.0756
  854MOL0     H15283  12.093   3.728  10.651  0.5070 -0.7362 -0.9786
  854MOL0     H15284  11.966   4.008  10.676  0.5712 -0.2871 -1.7579
  854MOL0     H15285  12.041   3.941  10.818 -0.1072  3.5448  0.1483
  854MOL0     H15286  12.351   4.018  10.530  0.2448  2.7734  2.0237
  854MOL0     H15287  11.610   3.681  10.854 -1.9660  3.4375  1.6505
  854MOL0     H15288  11.361   3.900  10.922  2.0108  0.5276  1.2474
  854MOL0     H15289  11.300   3.736  10.951 -0.2823  1.6776  0.0618
  854MOL0     H15290  11.462   3.767  10.980  1.2504  1.8921  0.0179
  855MOL0     O15291   1.689   8.358   7.425  0.4611  0.1172 -0.2246
  855MOL0     C15292   1.687   8.484   7.436 -0.9073 -0.6113  0.1463
  855MOL0     O15293   1.798   8.566   7.477 -0.5964  0.3890  0.0375
  855MOL0     C15294   1.919   8.507   7.478 -0.1831  0.1735  0.1915
  855MOL0     C15295   2.019   8.517   7.384 -0.2150 -0.2440  0.7833
  855MOL0     C15296   2.146   8.455   7.403 -0.9125 -0.1746 -0.1588
  855MOL0     C15297   2.167   8.377   7.524 -0.5576  0.3981 -1.3832
  855MOL0     O15298   2.293   8.331   7.568 -0.0516  0.6553 -0.4787
  855MOL0     C15299   2.417   8.354   7.492  0.7439 -0.1318  0.5363
  855MOL0     C15300   2.521   8.250   7.520 -0.0185 -0.4333 -0.1676
  855MOL0     C15301   2.565   8.242   7.670  0.2874 -0.3093 -0.2301
  855MOL0     C15302   2.657   8.121   7.685 -0.5955  0.4120  0.7765
  855MOL0     C15303   2.770   8.131   7.579  0.0848  0.1841  0.4090
  855MOL0     C15304   2.900   8.069   7.637 -0.4074 -0.0671  0.1012
  855MOL0     C15305   3.022   8.092   7.556  0.4244 -0.3838  0.4219
  855MOL0     C15306   3.124   8.003   7.622  0.3476 -0.2098 -0.0479
  855MOL0     N15307   3.262   8.027   7.563 -0.2448 -0.6960 -0.4150
  855MOL0     C15308   3.387   7.997   7.619  0.9939  0.2896 -0.7782
  855MOL0     C15309   3.467   8.078   7.555 -0.8285  0.7297 -0.1898
  855MOL0     C15310   3.615   8.084   7.597  0.6631  0.6921  0.8313
  855MOL0     C15311   3.719   8.101   7.483 -0.8249 -0.3904  0.0366
  855MOL0     C15312   3.851   8.134   7.540 -0.1494  1.0771 -0.4192
  855MOL0     C15313   3.952   8.158   7.433 -0.0954 -0.3524  0.0629
  855MOL0     O15314   4.089   8.138   7.481  0.2908 -0.6876 -0.2188
  855MOL0     C15315   4.202   8.198   7.428 -0.0632  0.3796  0.3162
  855MOL0     C15316   4.201   8.314   7.348 -0.3028  0.3147  0.3164
  855MOL0     C15317   4.316   8.385   7.320  0.0721  0.2260 -0.4380
  855MOL0     C15318   4.439   8.336   7.374  0.2572 -0.1386 -0.4204
  855MOL0     C15319   4.569   8.404   7.341  0.4805  0.4149 -1.2610
  855MOL0     O15320   4.572   8.523   7.275  0.3362 -0.5536 -0.2454
  855MOL0     C15321   4.690   8.578   7.234  0.0016 -0.2212 -0.0504
  855MOL0     C15322   4.770   8.525   7.136  0.3398 -0.0327 -0.8860
  855MOL0     C15323   4.892   8.588   7.094 -0.2791 -0.3498  0.2087
  855MOL0     C15324   4.945   8.697   7.155  0.4717 -0.6627 -0.5219
  855MOL0     O15325   5.065   8.755   7.142  0.3089 -0.3144 -0.0544
  855MOL0     C15326   5.163   8.707   7.047  0.1155  0.0315  0.2443
  855MOL0     C15327   5.246   8.826   6.990  0.5791 -0.3296  0.6097
  855MOL0     C15328   5.338   8.888   7.096 -0.1507  1.2120  0.7528
  855MOL0     C15329   5.439   8.983   7.033 -0.2135  0.1093 -0.6831
  855MOL0     C15330   5.569   8.913   6.986 -0.0060  0.0925  0.4016
  855MOL0     C15331   5.667   9.026   6.948  0.1285 -0.0851  0.0025
  855MOL0     C15332   5.801   8.972   6.903  0.2867  0.6033 -1.4542
  855MOL0     C15333   5.893   9.090   6.873 -0.1784  0.1263 -0.4675
  855MOL0    Cl15334   5.931   9.165   7.035  0.0242 -0.0077  0.1043
  855MOL0     C15335   4.855   8.759   7.248 -0.1603 -0.9695 -0.1806
  855MOL0     C15336   4.733   8.697   7.288 -0.2179  0.8108  0.0432
  855MOL0     O15337   4.668   8.341   7.359  0.7315  0.1298 -0.2938
  855MOL0     C15338   4.435   8.223   7.457 -0.6499 -0.1924 -0.3817
  855MOL0     C15339   4.318   8.154   7.478  0.4580  1.1926 -0.2981
  855MOL0     N15340   3.410   8.138   7.445  0.5163 -0.0331 -0.1257
  855MOL0     N15341   3.283   8.113   7.456  0.0320 -0.2607 -0.9445
  855MOL0     C15342   2.055   8.353   7.608  0.3184  0.8693 -0.1944
  855MOL0     C15343   1.933   8.431   7.595 -0.3719 -0.5020  0.5963
  855MOL0     C15344   1.572   8.554   7.383 -0.7102  0.2917 -0.4678
  855MOL0     C15345   1.458   8.571   7.467 -0.1529 -0.0107  1.1869
  855MOL0     C15346   1.330   8.611   7.414 -1.0943  0.5385  0.0880
  855MOL0     C15347   1.329   8.639   7.278 -0.3637  1.0468  0.7140
  855MOL0     O15348   1.214   8.666   7.204  0.5594 -0.4363  0.5506
  855MOL0     C15349   1.086   8.700   7.263 -0.1670  0.4235 -0.6902
  855MOL0     C15350   0.995   8.740   7.153 -0.1725  0.1152  0.1805
  855MOL0     C15351   0.949   8.629   7.065 -0.4484  0.0832  0.5258
  855MOL0     C15352   0.872   8.525   7.130 -0.4653  1.2706 -0.0548
  855MOL0     C15353   0.728   8.557   7.150 -0.0830  0.5946 -0.3649
  855MOL0     C15354   0.603   8.574   7.153  0.1044  0.7210 -1.2216
  855MOL0     C15355   1.443   8.630   7.196 -0.5234 -0.1220  0.2385
  855MOL0     C15356   1.563   8.582   7.248  0.1662  0.9465  1.3663
  855MOL0     C15357   1.681   8.564   7.154 -0.0648  0.2426  0.3717
  855MOL0     H15358   2.019   8.568   7.289 -0.2021 -0.9895  0.3734
  855MOL0     H15359   2.229   8.479   7.337 -0.0444 -0.4939  0.7962
  855MOL0     H15360   2.392   8.337   7.386  0.9955 -0.3365  0.5100
  855MOL0     H15361   2.464   8.449   7.520  0.4147 -0.7627  3.5517
  855MOL0     H15362   2.600   8.277   7.450 -2.1100 -0.8634 -2.8768
  855MOL0     H15363   2.496   8.150   7.483  0.9253 -0.0996 -1.8026
  855MOL0     H15364   2.481   8.244   7.741  1.0397  4.6320  0.8682
  855MOL0     H15365   2.626   8.325   7.708 -1.7947 -0.3354  3.7299
  855MOL0     H15366   2.708   8.115   7.782  2.0197 -1.5424 -0.6157
  855MOL0     H15367   2.599   8.029   7.671  0.9267 -0.5963  0.8980
  855MOL0     H15368   2.741   8.083   7.486  1.6522 -0.2708  0.1379
  855MOL0     H15369   2.793   8.235   7.554  0.0324 -0.2630 -1.6750
  855MOL0     H15370   2.922   8.121   7.730  2.6291 -0.1560 -0.4558
  855MOL0     H15371   2.884   7.962   7.651 -3.0197  0.4916  2.1496
  855MOL0     H15372   3.056   8.195   7.569  1.2676 -0.2150 -2.4514
  855MOL0     H15373   3.019   8.073   7.448  1.0817  2.2955 -0.1504
  855MOL0     H15374   3.119   8.019   7.730 -2.1697 -0.4106 -0.0877
  855MOL0     H15375   3.103   7.902   7.587 -0.1514  0.0959 -0.6573
  855MOL0     H15376   3.402   7.926   7.700 -0.6664  1.0011  0.2058
  855MOL0     H15377   3.627   8.176   7.656  1.2555  0.2647  1.3925
  855MOL0     H15378   3.644   8.006   7.667 -2.4279  0.8218  2.4246
  855MOL0     H15379   3.718   8.010   7.422 -0.9346 -0.5394  0.2605
  855MOL0     H15380   3.681   8.180   7.418  0.7723 -1.5417 -2.4807
  855MOL0     H15381   3.881   8.046   7.598 -0.8496  0.1827 -1.3869
  855MOL0     H15382   3.855   8.223   7.604 -0.3748  0.8355 -0.0614
  855MOL0     H15383   3.930   8.255   7.387 -3.2181 -1.0659 -0.2218
  855MOL0     H15384   3.931   8.096   7.345 -0.4168  3.5827 -2.9480
  855MOL0     H15385   4.108   8.351   7.305 -0.3739 -0.3305 -0.0935
  855MOL0     H15386   4.320   8.480   7.267  1.1343  0.6052  0.2956
  855MOL0     H15387   4.743   8.437   7.080  1.4203 -0.3647 -0.9074
  855MOL0     H15388   4.950   8.544   7.014  2.1235 -1.0910  2.2469
  855MOL0     H15389   5.231   8.644   7.104 -0.0084 -2.7524 -2.4743
  855MOL0     H15390   5.117   8.646   6.969 -0.0887 -0.7686  0.9780
  855MOL0     H15391   5.289   8.776   6.903 -2.0359 -1.1595 -0.3146
  855MOL0     H15392   5.185   8.911   6.957 -0.4063 -1.3038 -0.1315
  855MOL0     H15393   5.279   8.942   7.172  0.3404  3.0264 -0.1002
  855MOL0     H15394   5.400   8.814   7.148  1.4128  3.2343  1.9049
  855MOL0     H15395   5.480   9.053   7.106  1.7989 -0.6454 -1.0163
  855MOL0     H15396   5.388   9.032   6.950 -1.3026  1.6900  0.8576
  855MOL0     H15397   5.559   8.837   6.908  1.2709 -0.4699  0.7530
  855MOL0     H15398   5.606   8.857   7.072  1.2609  0.3300  0.0217
  855MOL0     H15399   5.640   9.084   6.860  1.5301  0.2784 -0.2126
  855MOL0     H15400   5.681   9.100   7.028 -3.0061  0.4054  0.2156
  855MOL0     H15401   5.775   8.904   6.821  2.0435 -1.2971 -0.5609
  855MOL0     H15402   5.853   8.911   6.978 -1.2006  1.9851  0.8042
  855MOL0     H15403   5.988   9.055   6.830  0.0113 -0.2293  0.2317
  855MOL0     H15404   5.849   9.157   6.798  0.5612 -0.7937 -1.7644
  855MOL0     H15405   4.897   8.847   7.295 -1.0851 -1.1540  1.0299
  855MOL0     H15406   4.685   8.750   7.370  0.7259  0.1400  1.0692
  855MOL0     H15407   4.525   8.181   7.502 -0.7868  2.2499  2.4544
  855MOL0     H15408   4.333   8.076   7.552 -3.0372  1.5566  0.9679
  855MOL0     H15409   2.072   8.287   7.693  1.3362  0.0466 -1.0060
  855MOL0     H15410   1.859   8.429   7.675 -1.1074 -0.0795 -0.0583
  855MOL0     H15411   1.476   8.542   7.570  0.5566  0.9473  1.3503
  855MOL0     H15412   1.247   8.628   7.481 -1.6801  0.2072 -0.5407
  855MOL0     H15413   1.105   8.782   7.333  0.8311 -1.4719  1.4281
  855MOL0     H15414   1.041   8.618   7.321 -1.4795  1.7241  0.1930
  855MOL0     H15415   1.040   8.821   7.095  0.6370 -2.0171 -2.3467
  855MOL0     H15416   0.902   8.774   7.201 -1.6817 -2.4187 -0.7667
  855MOL0     H15417   1.036   8.593   7.010 -0.2878  1.2659 -0.0347
  855MOL0     H15418   0.880   8.672   6.992  1.8434  1.0611 -1.2102
  855MOL0     H15419   0.882   8.442   7.060 -0.6701 -0.7342  2.1676
  855MOL0     H15420   0.929   8.486   7.215 -0.3901 -1.1111 -1.1190
  855MOL0     H15421   0.499   8.599   7.162 -0.6332 -1.8463 -1.6035
  855MOL0     H15422   1.437   8.651   7.090  3.3442  1.5883  0.1996
  855MOL0     H15423   1.765   8.619   7.196  0.3198  1.5053 -1.8893
  855MOL0     H15424   1.707   8.459   7.142 -0.1580  0.1888  0.6273
  855MOL0     H15425   1.662   8.607   7.055  0.7765 -2.5018 -1.0843
  856MOL0     O15426   9.068   5.075   1.396 -0.1660 -0.5709 -0.1087
  856MOL0     C15427   9.023   5.149   1.483 -0.0107 -0.6419 -0.4572
  856MOL0     O15428   9.074   5.163   1.606  0.2947 -0.6130 -0.5348
  856MOL0     C15429   9.177   5.084   1.639  0.1528 -0.1263  0.1582
  856MOL0     C15430   9.164   4.967   1.710 -0.0378  1.0639 -0.0277
  856MOL0     C15431   9.264   4.876   1.722 -0.0809  0.3332 -0.6011
  856MOL0     C15432   9.391   4.898   1.663  0.0485  0.2309 -0.0575
  856MOL0     O15433   9.496   4.816   1.694 -0.4937  0.9167 -0.1329
  856MOL0     C15434   9.473   4.673   1.714 -0.0384 -0.0903  0.0620
  856MOL0     C15435   9.610   4.624   1.759 -0.6698 -0.3720  0.2398
  856MOL0     C15436   9.637   4.484   1.817  0.5721  0.6810 -0.8411
  856MOL0     C15437   9.780   4.462   1.810 -0.1117  0.1354  1.0055
  856MOL0     C15438   9.816   4.325   1.863 -0.5184  0.8452  0.1389
  856MOL0     C15439   9.961   4.292   1.823  0.4123 -0.0403  0.3178
  856MOL0     C15440   9.986   4.150   1.881 -0.2110  1.2634  0.0840
  856MOL0     C15441  10.122   4.093   1.829 -0.5178  0.3938  0.7730
  856MOL0     N15442  10.223   4.187   1.867  0.1130  0.0773  0.2714
  856MOL0     C15443  10.317   4.256   1.806 -0.8099  0.1251  0.0712
  856MOL0     C15444  10.405   4.298   1.894  0.3256 -0.3633  0.6904
  856MOL0     C15445  10.533   4.373   1.870 -0.8863  0.1537  0.3546
  856MOL0     C15446  10.508   4.511   1.803 -0.2998 -0.1595  0.6738
  856MOL0     C15447  10.622   4.607   1.818 -0.3282  0.3715  0.9459
  856MOL0     C15448  10.743   4.571   1.729 -0.4645 -0.4328  0.1249
  856MOL0     O15449  10.839   4.679   1.724  0.1096  0.0651 -0.2658
  856MOL0     C15450  10.970   4.658   1.747  0.0416  0.0935 -0.2902
  856MOL0     C15451  11.067   4.737   1.675  0.2941 -0.5265  0.0700
  856MOL0     C15452  11.204   4.710   1.700  1.4724  0.2913  0.4700
  856MOL0     C15453  11.248   4.608   1.786 -0.3024  0.2879 -0.9791
  856MOL0     C15454  11.391   4.573   1.796 -0.7557  0.0517  0.9153
  856MOL0     O15455  11.433   4.474   1.880  0.2315 -0.5118  0.3134
  856MOL0     C15456  11.569   4.471   1.910  1.1809 -0.6119  1.4339
  856MOL0     C15457  11.624   4.579   1.968  0.6829 -0.3267  0.0878
  856MOL0     C15458  11.756   4.591   2.017 -0.5248  1.0203  1.5063
  856MOL0     C15459  11.835   4.480   1.997 -0.1621 -1.3175  0.3339
  856MOL0     O15460  11.960   4.485   2.063 -0.1427  0.0720  0.3591
  856MOL0     C15461  12.059   4.388   2.030 -0.3102 -1.0701  0.1311
  856MOL0     C15462  12.150   4.375   2.139  0.4395  0.8189 -0.1628
  856MOL0     C15463  12.281   4.304   2.090  0.0561 -0.0360  0.6885
  856MOL0     C15464  12.373   4.234   2.199  1.1678 -0.0866  0.3031
  856MOL0     C15465  12.499   4.162   2.134 -0.4549  0.4334  0.9499
  856MOL0     C15466  12.598   4.266   2.079  0.7837 -0.3032  0.3345
  856MOL0     C15467  12.738   4.217   2.041 -0.4073  0.1908  0.1734
  856MOL0     C15468  12.833   4.341   2.036 -0.4745  0.1048  0.6428
  856MOL0    Cl15469  13.009   4.311   2.024  0.2109  0.0305  0.5917
  856MOL0     C15470  11.785   4.363   1.933 -0.5354  0.5812  0.1457
  856MOL0     C15471  11.647   4.354   1.890  0.2729 -1.0992 -0.6876
  856MOL0     O15472  11.461   4.629   1.715  0.3674  0.0211  0.9729
  856MOL0     C15473  11.152   4.528   1.848  0.4338  0.2336 -0.0422
  856MOL0     C15474  11.014   4.559   1.833  0.0439  0.0975 -0.3210
  856MOL0     N15475  10.367   4.244   2.018  0.0644 -0.4211  0.3449
  856MOL0     N15476  10.252   4.195   2.002 -0.2163  0.0237 -0.1055
  856MOL0     C15477   9.409   5.022   1.594  1.1775  0.9805 -0.0119
  856MOL0     C15478   9.303   5.107   1.577  0.3047 -0.6981  0.3988
  856MOL0     C15479   8.881   5.196   1.442  0.2153  1.4795  0.2657
  856MOL0     C15480   8.841   5.157   1.311 -0.8791 -1.2974 -0.7576
  856MOL0     C15481   8.720   5.195   1.270 -0.6941 -0.6359  0.3212
  856MOL0     C15482   8.621   5.259   1.344  0.2620 -0.2198  0.0480
  856MOL0     O15483   8.493   5.265   1.295  0.1521 -0.7054 -0.3104
  856MOL0     C15484   8.400   5.275   1.390 -0.3999  0.7578  0.1924
  856MOL0     C15485   8.263   5.268   1.323  0.0125 -0.3739 -0.3877
  856MOL0     C15486   8.221   5.129   1.275 -0.5203 -0.1316  0.7716
  856MOL0     C15487   8.068   5.116   1.234 -0.0010  0.3584 -0.1348
  856MOL0     C15488   7.975   5.125   1.342 -0.5257  0.1055  0.2201
  856MOL0     C15489   7.903   5.135   1.436 -0.0765  0.6391 -0.0979
  856MOL0     C15490   8.652   5.293   1.475 -0.0395  1.0403  0.3596
  856MOL0     C15491   8.780   5.262   1.525 -1.0552  0.1028 -0.8517
  856MOL0     C15492   8.815   5.310   1.665 -0.1509  0.0272  0.0777
  856MOL0     H15493   9.063   4.943   1.744 -0.1412 -1.0035 -1.6347
  856MOL0     H15494   9.241   4.786   1.778  0.3485  1.3240  1.2460
  856MOL0     H15495   9.406   4.664   1.800 -0.3455  3.0139  0.2520
  856MOL0     H15496   9.435   4.619   1.627 -0.3514  1.6272 -0.9089
  856MOL0     H15497   9.644   4.692   1.837  1.4321  1.3048 -1.9776
  856MOL0     H15498   9.683   4.639   1.678 -3.0082  2.0592 -1.5957
  856MOL0     H15499   9.583   4.401   1.772 -1.8662  1.9611 -0.4358
  856MOL0     H15500   9.616   4.484   1.925 -1.9795 -3.1475 -1.1727
  856MOL0     H15501   9.809   4.484   1.707 -0.7313  1.9851  1.1941
  856MOL0     H15502   9.835   4.534   1.871  1.5371  0.1388 -0.4191
  856MOL0     H15503   9.808   4.329   1.972  0.4736 -0.3068  0.2663
  856MOL0     H15504   9.750   4.245   1.829  0.6240 -1.0424  2.0927
  856MOL0     H15505   9.974   4.289   1.714 -0.7406 -0.8217  0.1875
  856MOL0     H15506  10.031   4.361   1.872 -0.7087 -0.2584  2.3437
  856MOL0     H15507   9.908   4.083   1.841  0.6698 -0.1332  0.6241
  856MOL0     H15508   9.981   4.146   1.990  0.6111  0.5615  0.1118
  856MOL0     H15509  10.138   4.001   1.887  1.0966  1.8207  2.7801
  856MOL0     H15510  10.124   4.061   1.725  1.0889 -1.0901  1.2062
  856MOL0     H15511  10.326   4.258   1.697 -1.1707  1.3924  0.0416
  856MOL0     H15512  10.593   4.393   1.960  1.3369 -0.3807 -0.9228
  856MOL0     H15513  10.603   4.319   1.807 -2.1836 -0.1091 -0.8984
  856MOL0     H15514  10.498   4.504   1.694  2.5203  1.5886  0.1898
  856MOL0     H15515  10.413   4.550   1.841 -2.5535 -4.3669 -0.0094
  856MOL0     H15516  10.654   4.603   1.923 -0.8532  1.1785  1.1472
  856MOL0     H15517  10.589   4.708   1.792 -1.2603 -0.1082  0.2109
  856MOL0     H15518  10.722   4.563   1.622 -0.7678  1.3001  0.0374
  856MOL0     H15519  10.781   4.475   1.767  2.2941  0.9105  1.0245
  856MOL0     H15520  11.022   4.819   1.620 -1.5494 -0.3848  1.6574
  856MOL0     H15521  11.284   4.762   1.649  0.9628 -1.7376 -2.6696
  856MOL0     H15522  11.557   4.664   1.979  0.8082 -0.2070 -0.0784
  856MOL0     H15523  11.790   4.682   2.065 -0.8653  1.0758  1.6454
  856MOL0     H15524  12.021   4.286   2.017  1.9027 -2.2789  2.3161
  856MOL0     H15525  12.111   4.408   1.936 -1.0533 -1.3682 -0.3537
  856MOL0     H15526  12.179   4.468   2.189  1.0626 -1.1650  3.5553
  856MOL0     H15527  12.109   4.306   2.213  2.5577  1.1916  1.4904
  856MOL0     H15528  12.254   4.224   2.021 -0.0074 -1.9148  2.7824
  856MOL0     H15529  12.344   4.378   2.039 -0.2161  2.7704  4.0047
  856MOL0     H15530  12.313   4.148   2.228 -0.2383  0.1904 -1.6033
  856MOL0     H15531  12.397   4.301   2.282  0.0243  0.0500  0.5316
  856MOL0     H15532  12.462   4.117   2.041 -1.3136  2.7331  0.0966
  856MOL0     H15533  12.542   4.089   2.203 -4.0285 -1.0317  1.9094
  856MOL0     H15534  12.551   4.323   1.998 -1.1017 -0.1618  1.4581
  856MOL0     H15535  12.597   4.341   2.158 -1.8101 -1.2430  1.3254
  856MOL0     H15536  12.727   4.159   1.949 -0.2650 -0.8701  0.8010
  856MOL0     H15537  12.774   4.141   2.111  0.0338 -0.9874 -1.2838
  856MOL0     H15538  12.787   4.417   1.973 -3.4203 -0.0191  2.4338
  856MOL0     H15539  12.829   4.387   2.135  3.5828  0.3647  0.8551
  856MOL0     H15540  11.852   4.278   1.924  1.0925  1.9167 -0.7888
  856MOL0     H15541  11.605   4.260   1.856 -0.3510 -0.3608 -2.0400
  856MOL0     H15542  11.179   4.443   1.911  3.2856  0.5623 -0.6859
  856MOL0     H15543  10.953   4.494   1.895 -0.2110  1.6605  1.1443
  856MOL0     H15544   9.497   5.038   1.532  0.0962  0.3013 -1.8308
  856MOL0     H15545   9.301   5.200   1.521 -2.3593 -0.2750  1.0619
  856MOL0     H15546   8.913   5.113   1.242 -0.4800 -0.6628 -0.7448
  856MOL0     H15547   8.685   5.152   1.176 -1.9607 -0.0557  0.5032
  856MOL0     H15548   8.404   5.375   1.433  1.3704 -0.2150  2.4922
  856MOL0     H15549   8.413   5.198   1.467  0.7961  1.9206  1.1868
  856MOL0     H15550   8.254   5.347   1.248  3.3951 -0.3795 -0.9786
  856MOL0     H15551   8.188   5.299   1.396 -0.6221 -0.3100 -1.0491
  856MOL0     H15552   8.241   5.054   1.353 -0.1984  1.8574  2.6887
  856MOL0     H15553   8.290   5.098   1.197  0.2466 -0.2957  1.5008
  856MOL0     H15554   8.038   5.190   1.160 -2.0941  0.5133  0.7934
  856MOL0     H15555   8.061   5.016   1.190  0.0490  0.4508 -0.3546
  856MOL0     H15556   7.840   5.138   1.523 -3.4271 -0.2585 -2.3290
  856MOL0     H15557   8.588   5.356   1.535 -1.6295 -0.0901 -0.0869
  856MOL0     H15558   8.865   5.238   1.730  0.7991  0.4869 -0.1290
  856MOL0     H15559   8.881   5.397   1.656 -1.1805  0.6049 -4.3209
  856MOL0     H15560   8.727   5.338   1.723  1.1876  0.7604  1.8586
  857MOL0     O15561   1.298   1.093  10.202  0.3044 -0.1226  0.6970
  857MOL0     C15562   1.216   1.165  10.144  0.4534  0.2198  0.3614
  857MOL0     O15563   1.220   1.307  10.150 -0.2486 -0.1784  0.3970
  857MOL0     C15564   1.334   1.366  10.173 -0.9445 -0.0906  0.3361
  857MOL0     C15565   1.356   1.420  10.298 -0.2072 -0.0314 -0.0172
  857MOL0     C15566   1.469   1.492  10.338 -0.3418  0.1749 -0.4727
  857MOL0     C15567   1.568   1.520  10.245 -0.0963 -0.7543  0.2112
  857MOL0     O15568   1.686   1.583  10.272  0.2803 -0.1717 -0.7565
  857MOL0     C15569   1.807   1.517  10.238  0.3430 -0.3760  0.1660
  857MOL0     C15570   1.918   1.578  10.315 -0.1316  0.1101  0.4070
  857MOL0     C15571   2.050   1.493  10.296 -0.0592  0.3519  0.3381
  857MOL0     C15572   2.108   1.465  10.158  0.2988  0.8241  0.2131
  857MOL0     C15573   2.255   1.398  10.179  0.0803  0.4550 -0.0875
  857MOL0     C15574   2.322   1.370  10.043 -0.6794  0.2380  0.5933
  857MOL0     C15575   2.463   1.309  10.053 -0.5757  0.3046 -0.0937
  857MOL0     C15576   2.457   1.162  10.109  0.1107 -0.2710  0.4751
  857MOL0     N15577   2.582   1.094  10.112 -0.5154 -0.0295 -0.7451
  857MOL0     C15578   2.682   1.104  10.011 -0.3322 -0.1377 -1.0126
  857MOL0     C15579   2.767   1.001  10.038  0.4064  1.3988 -0.2665
  857MOL0     C15580   2.896   0.962   9.969  0.2035  0.1318  0.1870
  857MOL0     C15581   3.016   0.998  10.053 -1.3245  0.9304 -0.6231
  857MOL0     C15582   3.147   1.016   9.983  0.1423 -0.5215  0.3125
  857MOL0     C15583   3.244   1.081  10.086  0.0638 -0.2905  0.4182
  857MOL0     O15584   3.261   1.004  10.205  0.2500  0.0249  0.7780
  857MOL0     C15585   3.382   1.002  10.264  1.1846 -0.3103  0.1085
  857MOL0     C15586   3.502   0.992  10.198 -0.0163  0.2334 -0.6745
  857MOL0     C15587   3.623   0.970  10.265  0.6961 -0.5262 -0.1649
  857MOL0     C15588   3.631   0.952  10.405 -1.2004 -0.2515 -0.6810
  857MOL0     C15589   3.765   0.937  10.467  1.0589  0.4582 -0.1601
  857MOL0     O15590   3.870   0.932  10.378  0.0063  0.7452  0.2565
  857MOL0     C15591   3.994   0.891  10.430 -0.2514  0.1512  0.1520
  857MOL0     C15592   4.105   0.963  10.401  0.1016 -0.3483  0.4740
  857MOL0     C15593   4.227   0.929  10.450  1.1324  0.2349  0.6264
  857MOL0     C15594   4.241   0.823  10.547 -0.4252 -0.6256 -0.0489
  857MOL0     O15595   4.370   0.815  10.600 -0.6998 -0.3356 -0.0780
  857MOL0     C15596   4.393   0.691  10.663 -0.2292  0.3007 -0.2851
  857MOL0     C15597   4.542   0.666  10.677 -0.0361 -0.2330  0.3632
  857MOL0     C15598   4.622   0.703  10.550 -0.7724  0.1993 -0.4508
  857MOL0     C15599   4.766   0.735  10.586  0.1084 -0.0884  0.6092
  857MOL0     C15600   4.852   0.797  10.471 -0.0713 -0.2070 -0.2975
  857MOL0     C15601   5.007   0.781  10.489  1.1207 -0.1873  0.5137
  857MOL0     C15602   5.051   0.841  10.619 -0.4439  0.7892 -0.6573
  857MOL0     C15603   5.180   0.770  10.663 -0.0061  0.7902  1.7357
  857MOL0    Cl15604   5.176   0.593  10.682  0.1251 -0.0268 -0.1556
  857MOL0     C15605   4.135   0.742  10.567  0.2025 -0.8718 -0.0101
  857MOL0     C15606   4.016   0.769  10.499  0.1239  0.9678 -0.5752
  857MOL0     O15607   3.770   0.934  10.590 -0.3022  0.2260  0.1015
  857MOL0     C15608   3.510   0.963  10.474 -0.2986 -0.1206  0.2251
  857MOL0     C15609   3.387   0.994  10.403 -0.2567  0.6218 -0.2786
  857MOL0     N15610   2.718   0.923  10.138  0.3032  0.5187  0.0886
  857MOL0     N15611   2.615   0.977  10.181  0.2113  0.2449 -0.1444
  857MOL0     C15612   1.546   1.465  10.109 -1.0308  0.0415  0.4743
  857MOL0     C15613   1.441   1.383  10.079  0.5753  1.0398 -0.2421
  857MOL0     C15614   1.077   1.118  10.095 -0.5932 -0.5648 -0.6853
  857MOL0     C15615   0.978   1.210  10.059  0.4885 -0.0900 -1.0845
  857MOL0     C15616   0.851   1.166  10.029 -0.7302 -0.3094 -0.0434
  857MOL0     C15617   0.822   1.031  10.012  0.0615  1.7736  0.3122
  857MOL0     O15618   0.699   0.970   9.975  0.0420 -0.5521 -0.2783
  857MOL0     C15619   0.579   1.041   9.973  0.3895 -0.0568  0.1853
  857MOL0     C15620   0.544   1.108   9.845  0.7261 -0.4131 -0.2965
  857MOL0     C15621   0.534   1.016   9.727 -0.3314 -0.2673 -0.7605
  857MOL0     C15622   0.521   1.090   9.597  0.1842  0.4367  0.4261
  857MOL0     C15623   0.646   1.162   9.564  0.3721 -0.2242  0.0692
  857MOL0     C15624   0.752   1.212   9.529 -0.2220 -0.1502  0.6300
  857MOL0     C15625   0.916   0.938  10.029 -0.1409  0.8327  0.1676
  857MOL0     C15626   1.047   0.980  10.073  0.1742 -0.5634 -0.2245
  857MOL0     C15627   1.152   0.869  10.084  0.3687 -0.1808  0.2842
  857MOL0     H15628   1.271   1.406  10.364 -2.5794  2.1870 -2.3530
  857MOL0     H15629   1.479   1.530  10.440  0.0591  2.7176 -1.3881
  857MOL0     H15630   1.799   1.411  10.260  1.1741 -0.8085 -1.5061
  857MOL0     H15631   1.811   1.538  10.131 -5.5787  0.6437 -0.2283
  857MOL0     H15632   1.895   1.585  10.422  1.8220  2.2496  0.7664
  857MOL0     H15633   1.940   1.676  10.271  4.1899 -0.5037  0.7726
  857MOL0     H15634   2.043   1.395  10.344  0.8849  0.4561  0.7088
  857MOL0     H15635   2.130   1.560  10.330  2.1771  0.3964 -4.2088
  857MOL0     H15636   2.048   1.397  10.097  1.0488 -0.2523  0.6501
  857MOL0     H15637   2.109   1.559  10.101 -1.5091  0.7996  0.0828
  857MOL0     H15638   2.319   1.460  10.243  0.0866  0.3738 -0.0141
  857MOL0     H15639   2.242   1.306  10.237  5.1385  0.4005  1.3873
  857MOL0     H15640   2.259   1.311   9.976 -0.6488 -0.4393  1.1524
  857MOL0     H15641   2.329   1.470   9.999  2.7598  1.0658  2.6727
  857MOL0     H15642   2.533   1.371  10.109  4.9979 -3.8141 -1.6028
  857MOL0     H15643   2.503   1.304   9.952  2.9115  2.5062  0.9855
  857MOL0     H15644   2.414   1.176  10.208 -2.0998  0.0416 -0.4840
  857MOL0     H15645   2.389   1.104  10.046 -0.0405 -0.4886  0.8332
  857MOL0     H15646   2.698   1.169   9.926  3.5664  0.8282  0.2842
  857MOL0     H15647   2.907   0.857   9.938 -1.0457 -0.7588  2.5257
  857MOL0     H15648   2.893   1.013   9.872 -1.5273  1.3826  0.8387
  857MOL0     H15649   2.987   1.089  10.107 -1.5540  1.5184 -1.7081
  857MOL0     H15650   3.035   0.922  10.129 -0.4914  3.1380  1.5229
  857MOL0     H15651   3.151   1.073   9.890  4.0409 -1.4566 -0.2681
  857MOL0     H15652   3.173   0.915   9.952 -0.9908 -1.2641  1.6608
  857MOL0     H15653   3.211   1.179  10.122 -0.6370 -0.4378  0.1893
  857MOL0     H15654   3.343   1.086  10.038  1.4172 -4.5008  2.2939
  857MOL0     H15655   3.508   0.994  10.089 -1.0236  0.9774 -0.7381
  857MOL0     H15656   3.714   0.962  10.206 -0.9943  2.5830 -3.5997
  857MOL0     H15657   4.093   1.054  10.343  2.6673  1.1571  2.1036
  857MOL0     H15658   4.307   0.993  10.415  0.5904  0.2516 -0.6332
  857MOL0     H15659   4.341   0.693  10.759 -1.4184 -0.1884 -0.9017
  857MOL0     H15660   4.348   0.607  10.609 -3.4912  0.7329  1.5076
  857MOL0     H15661   4.566   0.731  10.761 -1.7851 -1.4410  1.8666
  857MOL0     H15662   4.554   0.563  10.711  0.7418 -0.0865  0.5474
  857MOL0     H15663   4.633   0.617  10.483  1.6562 -0.2627  0.4290
  857MOL0     H15664   4.573   0.774  10.483 -0.1536  1.1529  0.0870
  857MOL0     H15665   4.825   0.648  10.614  0.3878 -0.5192 -1.2193
  857MOL0     H15666   4.764   0.803  10.673  0.8903 -1.0796  1.4327
  857MOL0     H15667   4.829   0.903  10.458  0.6629 -0.0016  0.0195
  857MOL0     H15668   4.823   0.745  10.379 -1.4315 -0.0488  0.0270
  857MOL0     H15669   5.026   0.674  10.489  1.3329 -0.1510  1.0754
  857MOL0     H15670   5.064   0.819  10.404  0.6514  0.9803  0.6994
  857MOL0     H15671   4.974   0.815  10.693 -1.1834 -0.1974 -1.7369
  857MOL0     H15672   5.061   0.950  10.615 -0.5746  0.7527 -2.6919
  857MOL0     H15673   5.258   0.789  10.589 -1.5038  0.2879 -0.0462
  857MOL0     H15674   5.208   0.814  10.759  1.8191  1.2098  1.0542
  857MOL0     H15675   4.133   0.651  10.627 -2.4965 -1.8917 -1.4803
  857MOL0     H15676   3.942   0.694  10.525  0.5813  0.6864 -0.0567
  857MOL0     H15677   3.509   0.943  10.581  0.7328 -1.1563  0.0608
  857MOL0     H15678   3.302   1.001  10.471  1.0148 -1.8119  1.7289
  857MOL0     H15679   1.611   1.486  10.026  0.6602  2.0456  2.1912
  857MOL0     H15680   1.438   1.347   9.977 -0.5020  0.2961  0.0339
  857MOL0     H15681   1.016   1.312  10.059 -0.0811  0.1676  1.0246
  857MOL0     H15682   0.777   1.237   9.994 -1.5513  0.0288  2.2693
  857MOL0     H15683   0.568   1.108  10.059 -3.3549 -1.2229  0.8019
  857MOL0     H15684   0.504   0.962   9.985 -2.6283  2.2772 -1.7997
  857MOL0     H15685   0.616   1.187   9.823 -0.1087  0.5007  0.1510
  857MOL0     H15686   0.442   1.149   9.849  0.5022 -0.8286 -1.4127
  857MOL0     H15687   0.446   0.953   9.744 -0.0302 -0.0480  2.0099
  857MOL0     H15688   0.622   0.951   9.717  0.4536  0.9633 -2.2320
  857MOL0     H15689   0.488   1.018   9.521 -0.5633  2.4841 -1.3188
  857MOL0     H15690   0.439   1.162   9.596 -0.0012  0.2215 -0.1173
  857MOL0     H15691   0.847   1.249   9.496 -1.1336  1.4236 -0.3625
  857MOL0     H15692   0.890   0.833  10.026 -0.5097  0.8874  1.2380
  857MOL0     H15693   1.178   0.843   9.981 -3.2199  0.5809 -0.9692
  857MOL0     H15694   1.231   0.896  10.154 -0.2061  0.5133  0.6718
  857MOL0     H15695   1.108   0.776  10.122 -0.1364 -0.0708 -0.0172
  858MOL0     O15696   1.698   5.522   4.705 -0.1633  0.5383  0.4830
  858MOL0     C15697   1.671   5.419   4.764 -0.1430  0.9863 -0.4578
  858MOL0     O15698   1.760   5.318   4.806 -0.4257 -0.2816  0.3556
  858MOL0     C15699   1.891   5.335   4.771  0.6047 -0.5165 -0.2027
  858MOL0     C15700   1.996   5.339   4.870  0.2680 -0.2336 -0.4563
  858MOL0     C15701   2.130   5.353   4.837  0.1143 -0.2832  0.7336
  858MOL0     C15702   2.170   5.378   4.704  0.3393 -0.3502 -0.2288
  858MOL0     O15703   2.307   5.394   4.686  0.0728 -0.2748 -0.2818
  858MOL0     C15704   2.354   5.351   4.559  0.1234  0.5739  0.4083
  858MOL0     C15705   2.502   5.312   4.557 -0.4644 -0.4000 -0.3630
  858MOL0     C15706   2.535   5.186   4.638 -0.0092  0.1737  0.7946
  858MOL0     C15707   2.677   5.134   4.625  0.2670 -0.1965 -0.5920
  858MOL0     C15708   2.692   5.003   4.697 -0.0471  0.4765 -0.0806
  858MOL0     C15709   2.832   4.942   4.682  0.5997  0.1920 -1.4762
  858MOL0     C15710   2.857   4.819   4.759 -0.1624  0.8532  0.3717
  858MOL0     C15711   2.983   4.755   4.698 -0.3912 -0.0162  0.4579
  858MOL0     N15712   3.102   4.842   4.720 -0.0147  0.4300 -0.3116
  858MOL0     C15713   3.159   4.876   4.851  0.0267 -0.2057 -0.7145
  858MOL0     C15714   3.245   4.987   4.827  0.8928 -0.1034 -0.6764
  858MOL0     C15715   3.334   5.076   4.915 -0.5973 -0.8166  0.1091
  858MOL0     C15716   3.474   5.040   4.889 -0.0663  0.1617  0.7539
  858MOL0     C15717   3.569   5.112   4.988  0.0842 -0.5334  0.2511
  858MOL0     C15718   3.716   5.072   4.957  0.1726 -0.4844 -0.3939
  858MOL0     O15719   3.813   5.146   5.037  0.0973 -0.0767 -0.6157
  858MOL0     C15720   3.949   5.116   5.039  0.5274 -0.1121 -0.6405
  858MOL0     C15721   4.032   5.207   5.091  0.3391 -1.2199  0.8716
  858MOL0     C15722   4.168   5.194   5.104  0.9682  0.7792 -0.5151
  858MOL0     C15723   4.226   5.081   5.036  0.2285  0.0948 -0.9645
  858MOL0     C15724   4.379   5.069   5.036 -0.1680 -0.5841 -0.2934
  858MOL0     O15725   4.446   5.165   5.114 -0.2991 -0.5576 -0.4395
  858MOL0     C15726   4.582   5.191   5.119 -0.2210 -0.1769 -0.3668
  858MOL0     C15727   4.624   5.315   5.172 -0.2415  0.3750  0.5843
  858MOL0     C15728   4.756   5.355   5.185 -0.0989  0.3539 -0.3953
  858MOL0     C15729   4.858   5.264   5.139  0.7059  1.1810 -0.1614
  858MOL0     O15730   4.994   5.302   5.146  0.5624  0.2377 -0.0692
  858MOL0     C15731   5.105   5.207   5.124  0.4128  0.3467  0.5130
  858MOL0     C15732   5.236   5.281   5.125  0.0492 -0.5657  0.2232
  858MOL0     C15733   5.347   5.191   5.080  0.2621  0.6933  0.6884
  858MOL0     C15734   5.485   5.255   5.109  0.4153  0.0493  0.0552
  858MOL0     C15735   5.593   5.157   5.068  0.6847 -0.3931  0.4091
  858MOL0     C15736   5.738   5.196   5.081  0.0637 -0.9054 -0.1568
  858MOL0     C15737   5.773   5.341   5.045  1.1370  0.5664  0.7308
  858MOL0     C15738   5.908   5.374   4.991  0.5795  0.9800  0.7728
  858MOL0    Cl15739   6.023   5.366   5.120  0.3725 -0.1798 -0.3540
  858MOL0     C15740   4.818   5.145   5.084 -0.4632 -0.6547 -0.7697
  858MOL0     C15741   4.685   5.106   5.079  0.8931 -0.3540 -0.3242
  858MOL0     O15742   4.430   4.990   4.960  0.2405  0.2407  0.2736
  858MOL0     C15743   4.146   4.985   4.976 -0.6461 -0.0185 -0.3891
  858MOL0     C15744   4.007   4.997   4.979 -0.3037  0.0127  0.4049
  858MOL0     N15745   3.253   4.992   4.683  0.0300 -0.7958  0.7033
  858MOL0     N15746   3.162   4.922   4.624  0.5185 -0.0625  0.3336
  858MOL0     C15747   2.068   5.372   4.603 -0.0644  0.0267  0.0781
  858MOL0     C15748   1.932   5.350   4.636  0.7110 -0.8687 -0.2073
  858MOL0     C15749   1.539   5.416   4.839 -0.2149 -0.9754 -0.3914
  858MOL0     C15750   1.512   5.318   4.932 -0.2862 -0.8787 -0.3323
  858MOL0     C15751   1.391   5.317   5.002 -0.3459  0.4867 -0.4062
  858MOL0     C15752   1.290   5.401   4.976  0.2659 -0.2086 -0.8177
  858MOL0     O15753   1.168   5.394   5.038 -0.5659  0.1862 -0.0140
  858MOL0     C15754   1.065   5.326   4.965 -0.2234 -0.7974  0.1539
  858MOL0     C15755   0.949   5.276   5.044  0.3550  0.2489  0.3967
  858MOL0     C15756   0.823   5.237   4.957  1.1998 -0.4344 -0.2387
  858MOL0     C15757   0.746   5.130   5.029  0.0974 -0.3361 -0.4258
  858MOL0     C15758   0.611   5.112   4.972 -0.4364 -0.8612 -0.2779
  858MOL0     C15759   0.498   5.074   4.941  0.1566 -0.6327 -0.1667
  858MOL0     C15760   1.311   5.498   4.869  0.5880  0.2684  0.4034
  858MOL0     C15761   1.430   5.495   4.798  0.4544  0.0742 -0.5184
  858MOL0     C15762   1.431   5.583   4.674 -0.0090  0.0465 -0.2147
  858MOL0     H15763   1.955   5.324   4.970 -2.0104 -0.2139 -1.3494
  858MOL0     H15764   2.204   5.346   4.916  2.7152  0.7291 -1.4802
  858MOL0     H15765   2.295   5.264   4.526  2.1786 -0.5845 -0.3944
  858MOL0     H15766   2.349   5.415   4.470 -2.2554  0.6085  0.5047
  858MOL0     H15767   2.554   5.397   4.602 -1.6320 -0.2874  0.8461
  858MOL0     H15768   2.538   5.303   4.454  1.3143 -0.7018  0.2447
  858MOL0     H15769   2.477   5.098   4.610 -0.0437  0.4828 -0.1532
  858MOL0     H15770   2.508   5.208   4.742 -1.2971  1.9069  0.1453
  858MOL0     H15771   2.709   5.129   4.520  0.4196  1.4113 -0.6489
  858MOL0     H15772   2.737   5.212   4.671  0.2336 -1.6357  2.0394
  858MOL0     H15773   2.676   5.017   4.804 -0.1685 -1.7732  0.2605
  858MOL0     H15774   2.624   4.929   4.654  2.2737 -0.4530 -2.4439
  858MOL0     H15775   2.842   4.915   4.576 -2.2501 -0.5196 -1.6503
  858MOL0     H15776   2.899   5.026   4.704 -0.7258  0.6237  1.3434
  858MOL0     H15777   2.776   4.746   4.762  2.4301 -2.2713  3.5856
  858MOL0     H15778   2.865   4.849   4.864 -0.4046  1.4149  0.2344
  858MOL0     H15779   3.007   4.657   4.740 -1.3315  0.2142  1.5983
  858MOL0     H15780   2.966   4.731   4.593 -2.7537  0.9125  0.5512
  858MOL0     H15781   3.129   4.844   4.950  0.4605  2.4647  0.3640
  858MOL0     H15782   3.312   5.183   4.903  1.4349 -0.4112 -0.4842
  858MOL0     H15783   3.304   5.064   5.019 -0.6166  1.4489  0.4167
  858MOL0     H15784   3.477   4.932   4.903 -1.6556 -0.1607 -1.0265
  858MOL0     H15785   3.498   5.064   4.785  3.3285 -1.0740  1.1262
  858MOL0     H15786   3.544   5.067   5.085 -2.9944 -1.6923 -0.9439
  858MOL0     H15787   3.553   5.220   4.986 -2.1051 -0.8071  0.9404
  858MOL0     H15788   3.736   5.096   4.853 -0.2119 -0.4020 -0.4517
  858MOL0     H15789   3.736   4.966   4.975  2.0543 -0.4281 -1.8968
  858MOL0     H15790   3.985   5.296   5.131  1.2113 -1.2788  2.0779
  858MOL0     H15791   4.237   5.266   5.146  0.5090  0.4101  0.9233
  858MOL0     H15792   4.545   5.379   5.210 -0.9759 -0.6747  0.8775
  858MOL0     H15793   4.783   5.451   5.228 -0.0330  0.0358  0.2928
  858MOL0     H15794   5.102   5.123   5.195 -0.8837 -0.1514 -0.1113
  858MOL0     H15795   5.090   5.163   5.025  0.4334 -1.9728  1.4754
  858MOL0     H15796   5.224   5.371   5.064  0.0487 -1.7590 -1.6234
  858MOL0     H15797   5.254   5.305   5.230  0.1866 -0.4022  0.1619
  858MOL0     H15798   5.346   5.100   5.141  2.0139  0.4664  0.4130
  858MOL0     H15799   5.338   5.174   4.973 -0.2699  1.0948  0.6625
  858MOL0     H15800   5.499   5.280   5.215 -3.3370 -0.8402  0.9245
  858MOL0     H15801   5.483   5.352   5.058 -0.5813  0.9294  1.6837
  858MOL0     H15802   5.578   5.117   4.967 -0.3101  0.0219  0.3754
  858MOL0     H15803   5.584   5.074   5.138  1.0363 -2.2757 -1.6452
  858MOL0     H15804   5.765   5.182   5.186  0.1052 -2.1378 -0.3153
  858MOL0     H15805   5.811   5.138   5.024 -0.3694 -0.1253 -1.5684
  858MOL0     H15806   5.741   5.411   5.123  1.0210 -0.1148  1.3092
  858MOL0     H15807   5.704   5.369   4.965  1.7921  0.7852  0.2366
  858MOL0     H15808   5.928   5.323   4.896  2.6264  6.6224 -2.2700
  858MOL0     H15809   5.903   5.478   4.959 -1.6041  0.1974 -1.7772
  858MOL0     H15810   4.898   5.075   5.066  0.8734  0.1641  1.5672
  858MOL0     H15811   4.671   5.009   5.034  1.6202 -0.4437 -0.3833
  858MOL0     H15812   4.188   4.894   4.934 -1.0386  0.6656 -2.3687
  858MOL0     H15813   3.945   4.918   4.938 -1.4714  0.9716  0.2580
  858MOL0     H15814   2.088   5.406   4.502  2.4957 -1.0511  0.1616
  858MOL0     H15815   1.860   5.361   4.556  1.3061  0.0009 -0.6300
  858MOL0     H15816   1.588   5.245   4.961 -1.4201 -2.1983 -0.5798
  858MOL0     H15817   1.384   5.244   5.083  1.9242  3.1959  2.5141
  858MOL0     H15818   1.102   5.242   4.905 -1.3076  0.8146 -3.0401
  858MOL0     H15819   1.030   5.402   4.894  2.0491  0.7402  0.5558
  858MOL0     H15820   0.914   5.338   5.127 -1.9606  1.0439 -1.0598
  858MOL0     H15821   0.991   5.185   5.088 -2.2085 -0.2675  1.9715
  858MOL0     H15822   0.851   5.207   4.855  4.0281  0.3069  0.2296
  858MOL0     H15823   0.764   5.327   4.936  0.5663 -0.1117  2.5785
  858MOL0     H15824   0.793   5.032   5.018  1.8847  0.6918 -3.1199
  858MOL0     H15825   0.745   5.155   5.135  0.2542  1.7892 -0.8704
  858MOL0     H15826   0.400   5.045   4.909 -0.3427  0.4458  0.3352
  858MOL0     H15827   1.234   5.563   4.829  1.6968  2.1951  1.2675
  858MOL0     H15828   1.494   5.672   4.679 -0.6230  0.5898 -1.7130
  858MOL0     H15829   1.447   5.528   4.581  1.4875  0.5064 -0.2481
  858MOL0     H15830   1.336   5.636   4.666 -2.2021 -3.6191 -0.8448
  859MOL0     O15831   2.685   5.705  11.082  0.1156  0.4981 -0.4752
  859MOL0     C15832   2.702   5.673  10.966 -0.0044  0.7438 -0.1957
  859MOL0     O15833   2.822   5.624  10.923  0.5241  0.5034 -0.1017
  859MOL0     C15834   2.926   5.578  10.992  0.8206 -0.7534 -0.8778
  859MOL0     C15835   3.043   5.576  10.917  0.2970  0.6809  0.0162
  859MOL0     C15836   3.165   5.542  10.974 -0.3158 -0.2716 -0.2971
  859MOL0     C15837   3.179   5.525  11.112  0.6196  0.2870  0.3598
  859MOL0     O15838   3.299   5.488  11.168  0.3740 -1.0267 -0.3896
  859MOL0     C15839   3.404   5.435  11.091 -0.6301 -0.3723  0.0094
  859MOL0     C15840   3.524   5.404  11.178 -0.6708  0.5820  0.0246
  859MOL0     C15841   3.628   5.328  11.098 -0.5424  1.2284  0.3350
  859MOL0     C15842   3.763   5.331  11.174 -0.0413 -0.9335 -0.3490
  859MOL0     C15843   3.867   5.290  11.083 -0.2132 -0.0440 -0.6467
  859MOL0     C15844   3.923   5.399  10.995 -0.3033  0.3898 -0.4820
  859MOL0     C15845   4.033   5.367  10.896 -0.4517  0.9411  0.6163
  859MOL0     C15846   3.973   5.304  10.772  0.8495 -0.2690  0.6115
  859MOL0     N15847   4.070   5.290  10.663  0.2711 -0.9256 -0.4022
  859MOL0     C15848   4.159   5.192  10.644 -0.1287  0.4382  0.0294
  859MOL0     C15849   4.228   5.205  10.528  0.1261  0.0899 -1.1895
  859MOL0     C15850   4.330   5.114  10.477  0.3911 -0.0118  0.3856
  859MOL0     C15851   4.421   5.056  10.585  0.4300  0.4764  0.0817
  859MOL0     C15852   4.502   4.953  10.513 -0.3992 -0.7939  0.9669
  859MOL0     C15853   4.634   4.929  10.582  0.4960 -1.4959 -0.7985
  859MOL0     O15854   4.654   4.789  10.569  0.3661  0.1925  0.7112
  859MOL0     C15855   4.780   4.747  10.597 -0.3588  0.1219 -0.4275
  859MOL0     C15856   4.885   4.828  10.646 -0.3544  0.6493 -0.6456
  859MOL0     C15857   5.011   4.771  10.684  0.0379  0.3950 -0.4697
  859MOL0     C15858   5.045   4.640  10.671 -0.1629  0.6055  0.3183
  859MOL0     C15859   5.184   4.600  10.680 -0.7318 -0.5866  0.3529
  859MOL0     O15860   5.280   4.700  10.657 -0.1869 -0.3446  0.3452
  859MOL0     C15861   5.418   4.688  10.654  0.4093  0.9375  0.3483
  859MOL0     C15862   5.487   4.563  10.653 -0.0757  0.6096 -0.1706
  859MOL0     C15863   5.629   4.560  10.663 -0.0779  0.6694 -0.9961
  859MOL0     C15864   5.709   4.675  10.652  0.1068 -0.3286  0.2123
  859MOL0     O15865   5.841   4.665  10.642  0.5091  0.3401  0.0612
  859MOL0     C15866   5.905   4.764  10.562  0.7500  0.1719  0.3434
  859MOL0     C15867   6.046   4.716  10.527  0.1376 -0.7170 -0.3756
  859MOL0     C15868   6.132   4.761  10.638 -0.5622  0.1278 -0.9210
  859MOL0     C15869   6.278   4.736  10.601  0.3086 -0.2087 -0.2934
  859MOL0     C15870   6.368   4.729  10.723 -0.1888  0.6506  0.2111
  859MOL0     C15871   6.520   4.719  10.704  0.0867  0.1987 -0.6551
  859MOL0     C15872   6.598   4.833  10.639 -0.3162 -0.3960  0.0018
  859MOL0     C15873   6.746   4.794  10.600 -0.5829 -0.5295  0.1415
  859MOL0    Cl15874   6.864   4.860  10.719 -0.3955 -0.2348 -0.1092
  859MOL0     C15875   5.638   4.803  10.643  0.4057 -0.5917  0.4896
  859MOL0     C15876   5.497   4.803  10.638 -0.8061 -0.2980  0.2201
  859MOL0     O15877   5.203   4.492  10.716 -0.1696  0.5881 -0.7396
  859MOL0     C15878   4.944   4.555  10.618 -0.0716 -0.1175  0.0794
  859MOL0     C15879   4.818   4.610  10.578  0.4000 -0.2618 -1.1096
  859MOL0     N15880   4.191   5.333  10.481  0.3369 -0.6685 -0.2439
  859MOL0     N15881   4.097   5.375  10.567  0.6326 -0.6514 -0.3054
  859MOL0     C15882   3.069   5.536  11.195  0.1829 -0.3919 -0.2446
  859MOL0     C15883   2.941   5.564  11.138  0.4380 -0.9931 -0.3824
  859MOL0     C15884   2.588   5.697  10.872  0.7625 -0.3503  0.7037
  859MOL0     C15885   2.459   5.734  10.926 -0.2304 -0.1535 -0.9796
  859MOL0     C15886   2.352   5.771  10.850  0.3466  0.2731  0.3693
  859MOL0     C15887   2.360   5.772  10.708  0.0105 -0.6572 -0.0041
  859MOL0     O15888   2.245   5.810  10.651  0.1797  0.6514 -0.2406
  859MOL0     C15889   2.224   5.817  10.513  0.0331  0.7417  0.7445
  859MOL0     C15890   2.078   5.776  10.495  0.2601  0.2860  0.4104
  859MOL0     C15891   1.977   5.876  10.549 -0.5625 -0.1803 -0.4987
  859MOL0     C15892   1.831   5.822  10.573  0.5091  0.5212 -0.1530
  859MOL0     C15893   1.764   5.777  10.449  1.0771 -0.7891 -1.0928
  859MOL0     C15894   1.708   5.745  10.342 -0.8019 -0.5964 -0.5689
  859MOL0     C15895   2.487   5.740  10.654 -0.9552 -0.1696  0.0169
  859MOL0     C15896   2.600   5.704  10.729 -0.0150  0.1079  0.2842
  859MOL0     C15897   2.733   5.689  10.665 -0.8487 -0.4607 -0.2874
  859MOL0     H15898   3.044   5.610  10.814  1.8350  0.2664 -0.1371
  859MOL0     H15899   3.246   5.516  10.906  2.8411  0.5003  2.8446
  859MOL0     H15900   3.379   5.338  11.045  2.4344  0.4413 -3.9700
  859MOL0     H15901   3.434   5.504  11.011 -0.7714  1.3364  1.3831
  859MOL0     H15902   3.492   5.343  11.263  0.0598  0.0022 -0.0977
  859MOL0     H15903   3.568   5.492  11.226  1.1014 -1.4715  2.4965
  859MOL0     H15904   3.638   5.374  10.999 -1.5115  3.0654  1.0468
  859MOL0     H15905   3.605   5.224  11.073 -0.6899  1.7340 -1.7997
  859MOL0     H15906   3.785   5.434  11.202 -0.7837 -0.8466 -0.0806
  859MOL0     H15907   3.765   5.258  11.256  4.9754  1.5516  2.2288
  859MOL0     H15908   3.951   5.255  11.145 -0.3110  1.4330  0.3644
  859MOL0     H15909   3.816   5.209  11.030 -1.6835 -0.4565  1.2511
  859MOL0     H15910   3.840   5.436  10.934 -1.1718  0.2024  0.5330
  859MOL0     H15911   3.959   5.476  11.064 -1.9524  0.6871  0.1127
  859MOL0     H15912   4.105   5.295  10.937 -0.8053  0.0626 -0.2724
  859MOL0     H15913   4.085   5.462  10.879 -0.6175  0.6502 -1.7986
  859MOL0     H15914   3.920   5.210  10.795 -0.7140  0.1722 -0.9548
  859MOL0     H15915   3.891   5.371  10.744 -0.8899 -2.5105 -0.0363
  859MOL0     H15916   4.154   5.101  10.702 -1.0794 -1.1784 -2.3898
  859MOL0     H15917   4.288   5.025  10.429 -1.2625  1.0020 -0.1436
  859MOL0     H15918   4.389   5.166  10.401 -2.0252 -0.0120 -1.6172
  859MOL0     H15919   4.491   5.135  10.613  2.0304 -1.1029  0.6993
  859MOL0     H15920   4.378   5.004  10.671 -0.0725  1.1477  0.2461
  859MOL0     H15921   4.517   4.989  10.410  0.6163  0.8803  1.6570
  859MOL0     H15922   4.439   4.865  10.506  1.2590 -1.8931 -1.9724
  859MOL0     H15923   4.622   4.957  10.687 -0.7074  1.8935 -1.7194
  859MOL0     H15924   4.716   4.977  10.527  1.0752 -2.9398 -1.2280
  859MOL0     H15925   4.864   4.931  10.672  1.5969  1.5687 -2.5054
  859MOL0     H15926   5.086   4.830  10.735  3.3482 -2.6256 -1.4413
  859MOL0     H15927   5.434   4.469  10.660  1.2222 -0.1168  0.2042
  859MOL0     H15928   5.670   4.459  10.665 -3.1402 -1.0465 -5.8507
  859MOL0     H15929   5.846   4.769  10.470  0.6031 -2.3521  0.2288
  859MOL0     H15930   5.906   4.867  10.599 -1.1590  0.1323  0.6433
  859MOL0     H15931   6.036   4.608  10.516 -1.4794 -0.6349 -0.0050
  859MOL0     H15932   6.075   4.775  10.440  2.1414  0.4707  1.0166
  859MOL0     H15933   6.126   4.870  10.648 -0.6124  0.1618 -1.3088
  859MOL0     H15934   6.092   4.706  10.723  0.0487 -1.4868 -1.6371
  859MOL0     H15935   6.303   4.815  10.529 -1.1632  0.5078 -0.0640
  859MOL0     H15936   6.288   4.637  10.555 -0.8922 -0.4983  0.0409
  859MOL0     H15937   6.344   4.646  10.790  2.3895  2.2579  3.4522
  859MOL0     H15938   6.352   4.823  10.776 -2.7097 -0.4049  1.4739
  859MOL0     H15939   6.556   4.714  10.807 -2.9223 -1.5198  0.4526
  859MOL0     H15940   6.541   4.622  10.658 -0.2289 -0.1340 -0.1037
  859MOL0     H15941   6.596   4.920  10.706  0.9494 -0.7624  0.5413
  859MOL0     H15942   6.540   4.859  10.550  0.0641 -1.3542 -0.5417
  859MOL0     H15943   6.762   4.687  10.584 -0.1516 -0.3603 -0.6164
  859MOL0     H15944   6.771   4.853  10.511 -0.6433  0.0353  0.4918
  859MOL0     H15945   5.684   4.900  10.626 -2.9285  1.1648  0.6769
  859MOL0     H15946   5.438   4.890  10.613  1.2167  0.5562 -1.9413
  859MOL0     H15947   4.958   4.449  10.597 -1.5146 -0.5672  1.2000
  859MOL0     H15948   4.755   4.541  10.523  1.3213 -2.0023 -0.0849
  859MOL0     H15949   3.069   5.531  11.304 -0.5676  1.6741 -0.0957
  859MOL0     H15950   2.855   5.567  11.204  0.5940 -2.4743 -0.0686
  859MOL0     H15951   2.440   5.747  11.032  0.1904  1.1515 -1.0365
  859MOL0     H15952   2.262   5.810  10.897 -0.6400 -1.2029 -0.1772
  859MOL0     H15953   2.276   5.729  10.475 -0.3060  0.1138  1.6839
  859MOL0     H15954   2.249   5.912  10.466 -0.0627  0.5778  0.3602
  859MOL0     H15955   2.051   5.681  10.541  0.3310  0.6801  1.2900
  859MOL0     H15956   2.058   5.762  10.388  0.9174 -0.6736  0.4036
  859MOL0     H15957   1.971   5.960  10.479  0.6865 -0.4300 -0.9459
  859MOL0     H15958   2.018   5.912  10.644  2.4090 -0.6241 -1.4842
  859MOL0     H15959   1.835   5.741  10.646 -0.6898  2.6130  2.4097
  859MOL0     H15960   1.761   5.896  10.613 -0.4394  0.3789 -1.4757
  859MOL0     H15961   1.678   5.719  10.242  2.3762 -3.9718 -0.8902
  859MOL0     H15962   2.502   5.754  10.547  0.8451 -4.8502 -0.5766
  859MOL0     H15963   2.730   5.702  10.557 -1.4886  0.0714 -0.2101
  859MOL0     H15964   2.796   5.768  10.706 -0.2658  0.5615 -2.9561
  859MOL0     H15965   2.777   5.593  10.696  4.8285  1.4288 -1.3143
  860MOL0     O15966   3.752   8.874  11.244 -0.5724 -0.3477 -0.4971
  860MOL0     C15967   3.848   8.811  11.202 -0.3688 -0.1269  0.6314
  860MOL0     O15968   3.915   8.859  11.091  0.9532 -0.0240 -0.8759
  860MOL0     C15969   4.037   8.920  11.120  0.4828  1.2062 -0.2646
  860MOL0     C15970   4.081   8.963  11.248 -0.1812 -0.3416  0.4379
  860MOL0     C15971   4.202   9.029  11.244 -0.1075 -0.6444  0.9818
  860MOL0     C15972   4.283   9.044  11.130 -0.1669  0.5930  0.2456
  860MOL0     O15973   4.409   9.092  11.145  0.2991  0.1622  0.9509
  860MOL0     C15974   4.521   9.020  11.097  0.1865 -0.4424 -0.5249
  860MOL0     C15975   4.616   8.989  11.214 -0.9461  0.3031 -0.4874
  860MOL0     C15976   4.750   8.946  11.158 -0.7392 -0.1811  0.0089
  860MOL0     C15977   4.841   9.059  11.140  0.0471  0.3498  0.7457
  860MOL0     C15978   4.977   9.052  11.084 -0.4429  0.1653  0.9616
  860MOL0     C15979   4.981   9.015  10.935  0.1006 -0.4306  0.6695
  860MOL0     C15980   5.121   8.997  10.882 -0.6625  0.5723 -0.3149
  860MOL0     C15981   5.129   8.992  10.732 -0.9492 -0.2315  0.4889
  860MOL0     N15982   5.263   9.004  10.682 -0.4386 -0.0254 -0.7516
  860MOL0     C15983   5.376   8.964  10.753 -0.0198  0.4312 -0.3398
  860MOL0     C15984   5.472   8.963  10.660 -0.9780 -0.1648  0.3439
  860MOL0     C15985   5.613   8.907  10.679 -0.2623  0.2572 -0.1291
  860MOL0     C15986   5.725   8.987  10.626  0.1099 -0.7272  0.0280
  860MOL0     C15987   5.756   9.135  10.684  0.1663 -0.3587  1.1062
  860MOL0     C15988   5.675   9.178  10.809  0.6489  0.9612  0.0951
  860MOL0     O15989   5.703   9.080  10.917 -0.9172  0.2957 -0.0243
  860MOL0     C15990   5.611   9.056  11.010  0.2915  0.5575  0.2820
  860MOL0     C15991   5.612   8.929  11.077 -0.5073  0.7478 -0.0269
  860MOL0     C15992   5.521   8.900  11.179 -0.2494 -0.5907  0.7197
  860MOL0     C15993   5.408   8.979  11.193 -0.4001  0.1691 -0.1025
  860MOL0     C15994   5.306   8.946  11.293 -0.2434  0.6246 -0.1131
  860MOL0     O15995   5.290   8.817  11.337  0.4787  0.5385 -0.0005
  860MOL0     C15996   5.189   8.784  11.421  0.0244 -0.4919  0.4651
  860MOL0     C15997   5.056   8.791  11.385  0.2677  0.1972 -0.2170
  860MOL0     C15998   4.958   8.737  11.470 -0.1903 -0.0449 -0.1734
  860MOL0     C15999   4.993   8.673  11.590 -0.5766  0.5323  1.2912
  860MOL0     O16000   4.904   8.613  11.670 -0.0752  0.1291  0.6921
  860MOL0     C16001   4.781   8.567  11.613  0.4127  0.1261  0.1434
  860MOL0     C16002   4.714   8.490  11.722  0.3410 -0.1902  0.2657
  860MOL0     C16003   4.679   8.585  11.848  0.8829 -0.0938 -0.8052
  860MOL0     C16004   4.545   8.542  11.917  0.5912 -0.3003 -0.6535
  860MOL0     C16005   4.547   8.395  11.954 -0.2366  0.5438  0.4904
  860MOL0     C16006   4.416   8.363  11.998 -0.0746  0.8123  0.1599
  860MOL0     C16007   4.414   8.223  12.066 -0.4099  0.4476  0.9833
  860MOL0     C16008   4.271   8.191  12.108 -0.5753 -0.5480 -0.8465
  860MOL0    Cl16009   4.178   8.157  11.978 -0.0929 -0.1645  0.1239
  860MOL0     C16010   5.131   8.662  11.625  0.0242  0.4232  0.1617
  860MOL0     C16011   5.226   8.717  11.535 -0.3642  0.1767 -0.0796
  860MOL0     O16012   5.255   9.044  11.336 -0.0845  0.3123 -0.6209
  860MOL0     C16013   5.404   9.104  11.123  0.1929  0.4908 -0.4758
  860MOL0     C16014   5.505   9.143  11.041 -0.8167 -0.5033  0.0945
  860MOL0     N16015   5.415   8.997  10.539 -0.1602 -0.3631  0.1944
  860MOL0     N16016   5.291   9.020  10.552  0.1825  0.3912 -0.5945
  860MOL0     C16017   4.240   8.993  11.008  0.4064 -0.6416 -0.2247
  860MOL0     C16018   4.105   8.944  11.002  0.1771  0.3052  0.2232
  860MOL0     C16019   3.867   8.673  11.251  0.0245  0.8616 -0.0519
  860MOL0     C16020   3.955   8.588  11.177 -0.0285 -0.4153  0.8912
  860MOL0     C16021   3.988   8.459  11.220 -0.6262 -0.6557  0.2188
  860MOL0     C16022   3.924   8.411  11.329  0.0292  0.2705  0.2628
  860MOL0     O16023   3.962   8.283  11.364 -0.4030  0.0990 -0.5414
  860MOL0     C16024   3.921   8.228  11.495 -0.4730 -0.0494 -0.7451
  860MOL0     C16025   3.830   8.106  11.463  0.2430 -0.8845  0.4197
  860MOL0     C16026   3.909   7.998  11.385  0.0718  0.5530 -0.0607
  860MOL0     C16027   3.843   7.867  11.361 -0.4646  0.1693 -0.0550
  860MOL0     C16028   3.790   7.803  11.484  0.0207  0.3899  0.3415
  860MOL0     C16029   3.742   7.740  11.578  0.2493  0.2973 -0.0623
  860MOL0     C16030   3.832   8.493  11.396 -0.5772  0.4454 -0.7068
  860MOL0     C16031   3.797   8.620  11.363 -0.0659 -0.1485 -1.2520
  860MOL0     C16032   3.698   8.694  11.454 -0.1208 -0.7524 -0.4986
  860MOL0     H16033   4.018   8.948  11.335 -0.3297 -0.9126  0.2373
  860MOL0     H16034   4.245   9.070  11.335 -2.8957  0.7567  1.7849
  860MOL0     H16035   4.502   8.922  11.051  0.5167 -2.2664  2.8848
  860MOL0     H16036   4.574   9.079  11.023  0.6830 -2.7258 -2.1163
  860MOL0     H16037   4.561   8.907  11.263 -0.7696 -0.3908 -1.4273
  860MOL0     H16038   4.638   9.079  11.273  1.6209  0.8173 -2.0793
  860MOL0     H16039   4.741   8.897  11.061  1.9603 -0.0190 -0.3919
  860MOL0     H16040   4.796   8.867  11.217 -1.5367 -0.8056 -0.1801
  860MOL0     H16041   4.787   9.137  11.085  0.8930  0.9783  0.7760
  860MOL0     H16042   4.853   9.106  11.238 -1.0756 -0.1905  1.1562
  860MOL0     H16043   5.027   9.149  11.089 -0.7365  0.2731  2.1213
  860MOL0     H16044   5.037   8.981  11.142 -0.5995 -2.4754 -1.8173
  860MOL0     H16045   4.935   8.919  10.912  1.3143 -1.1217  1.0085
  860MOL0     H16046   4.915   9.090  10.891 -1.4824 -1.6565  0.8364
  860MOL0     H16047   5.151   8.902  10.926  0.2311  1.1093  0.2642
  860MOL0     H16048   5.194   9.071  10.917 -0.5461 -0.4913  1.8768
  860MOL0     H16049   5.064   8.919  10.683 -1.6950  0.6536  0.1264
  860MOL0     H16050   5.077   9.086  10.709  0.5217  1.0914  2.2936
  860MOL0     H16051   5.384   8.924  10.853  2.0639 -3.9193 -1.9680
  860MOL0     H16052   5.631   8.896  10.786  1.8424  0.6343 -0.4062
  860MOL0     H16053   5.619   8.801  10.652 -3.0506 -0.8160  2.7939
  860MOL0     H16054   5.817   8.929  10.613  0.2428  0.0549 -3.4886
  860MOL0     H16055   5.687   8.995  10.524 -2.8011 -0.3394  1.0530
  860MOL0     H16056   5.765   9.205  10.600 -1.0255  0.6476  1.7906
  860MOL0     H16057   5.862   9.141  10.712  0.4706  0.2393 -0.1389
  860MOL0     H16058   5.571   9.181  10.777  0.9594  1.6627 -0.9213
  860MOL0     H16059   5.703   9.281  10.834  2.4155  1.2427 -2.5701
  860MOL0     H16060   5.693   8.858  11.070 -1.2382 -0.6054  3.3354
  860MOL0     H16061   5.523   8.804  11.229 -0.0298 -0.9482  0.0299
  860MOL0     H16062   5.022   8.822  11.287 -3.6486  0.8645  1.1745
  860MOL0     H16063   4.856   8.748  11.433  0.4161 -0.8653 -2.2433
  860MOL0     H16064   4.719   8.654  11.589 -2.1716 -1.4429  0.8174
  860MOL0     H16065   4.794   8.509  11.521  6.2966  1.4386 -0.2467
  860MOL0     H16066   4.626   8.440  11.678  0.0994  1.7608 -1.6458
  860MOL0     H16067   4.786   8.412  11.749  1.5980 -0.4612 -3.3692
  860MOL0     H16068   4.760   8.595  11.921  1.0443 -3.0607 -0.4764
  860MOL0     H16069   4.659   8.683  11.803  0.9003  0.7384  0.9168
  860MOL0     H16070   4.458   8.562  11.854  0.4012 -0.3729 -0.4164
  860MOL0     H16071   4.543   8.610  12.003  0.4946  0.9507 -1.6039
  860MOL0     H16072   4.622   8.384  12.033  0.1391 -1.7200 -0.1225
  860MOL0     H16073   4.570   8.339  11.864 -0.7387 -0.4336  0.9564
  860MOL0     H16074   4.374   8.439  12.065  0.6568  0.8087  0.6304
  860MOL0     H16075   4.349   8.364  11.911  1.8436 -0.3736 -1.3950
  860MOL0     H16076   4.477   8.226  12.156  1.3308 -0.2017 -0.1591
  860MOL0     H16077   4.457   8.144  12.004  2.1970  0.8813  2.0882
  860MOL0     H16078   4.266   8.116  12.187 -0.8887  1.5420  1.2379
  860MOL0     H16079   4.236   8.285  12.152  2.4730 -0.6082  2.0871
  860MOL0     H16080   5.157   8.614  11.719  2.2014 -0.3750 -0.7806
  860MOL0     H16081   5.331   8.703  11.558  0.3470  0.7773 -2.6842
  860MOL0     H16082   5.335   9.183  11.151 -2.1107 -1.2940 -0.7945
  860MOL0     H16083   5.495   9.245  11.005  0.5040 -0.2331  0.4314
  860MOL0     H16084   4.299   8.979  10.917  1.7622 -3.0292  0.9169
  860MOL0     H16085   4.069   8.908  10.906  3.1486  0.6402 -1.1201
  860MOL0     H16086   4.001   8.632  11.088 -2.1603 -2.0441 -1.1338
  860MOL0     H16087   4.044   8.396  11.152 -1.0924 -0.1333 -0.6611
  860MOL0     H16088   3.866   8.297  11.560 -3.4705 -1.0494 -2.0657
  860MOL0     H16089   4.002   8.197  11.562 -2.9622 -0.0236  2.5478
  860MOL0     H16090   3.747   8.142  11.402 -0.0726 -1.9162  0.2233
  860MOL0     H16091   3.782   8.060  11.549 -1.2165 -0.2164 -0.0112
  860MOL0     H16092   4.003   7.989  11.440  0.2140  0.7000 -0.2730
  860MOL0     H16093   3.925   8.040  11.285 -0.6076  2.3707  0.5630
  860MOL0     H16094   3.769   7.888  11.283 -1.5199  0.8549  1.0875
  860MOL0     H16095   3.910   7.790  11.322 -2.4438 -1.4347 -0.4682
  860MOL0     H16096   3.703   7.669  11.648  0.8313 -0.3919 -0.4254
  860MOL0     H16097   3.764   8.454  11.472  0.0433 -0.1067 -0.4164
  860MOL0     H16098   3.611   8.730  11.400  2.0918  3.6064 -1.5971
  860MOL0     H16099   3.662   8.632  11.536 -0.6364  2.6174  2.0140
  860MOL0     H16100   3.749   8.780  11.497 -1.1088 -1.1677  1.5860
  861MOL0     O16101   8.345   7.638   1.258  0.1325  0.2721 -0.6076
  861MOL0     C16102   8.280   7.733   1.219  0.5908  0.5625  0.3778
  861MOL0     O16103   8.308   7.870   1.248  0.7077 -0.0671 -0.4847
  861MOL0     C16104   8.428   7.909   1.308  0.4685 -0.0147  0.6956
  861MOL0     C16105   8.547   7.835   1.306 -1.0947 -0.3544  0.4689
  861MOL0     C16106   8.660   7.882   1.374  0.4209 -0.6323  0.8216
  861MOL0     C16107   8.674   8.019   1.422  0.1276 -0.4128  0.0428
  861MOL0     O16108   8.776   8.089   1.485 -0.1506  0.5190 -0.2790
  861MOL0     C16109   8.901   8.072   1.429 -0.5849 -0.6112  0.9481
  861MOL0     C16110   8.935   8.198   1.336 -0.7478  0.7021 -0.3492
  861MOL0     C16111   9.058   8.182   1.254 -0.2592  0.0904 -0.4650
  861MOL0     C16112   9.183   8.144   1.330 -0.2070  0.0086  0.4111
  861MOL0     C16113   9.309   8.150   1.257 -0.0670  0.4610 -0.4035
  861MOL0     C16114   9.422   8.136   1.349  0.0500  0.4278  0.1661
  861MOL0     C16115   9.558   8.182   1.299 -0.2913 -0.5518 -0.0628
  861MOL0     C16116   9.569   8.327   1.331 -0.3533  1.1757  0.9334
  861MOL0     N16117   9.693   8.384   1.272  0.3473 -0.5109  0.2645
  861MOL0     C16118   9.701   8.490   1.184 -0.1515 -0.8911  0.5620
  861MOL0     C16119   9.828   8.533   1.181 -0.3752  1.2414 -0.0406
  861MOL0     C16120   9.888   8.638   1.092 -0.7606  0.0517 -0.6347
  861MOL0     C16121   9.805   8.761   1.066  0.0392 -0.2947 -0.1040
  861MOL0     C16122   9.770   8.834   1.197  0.1804  0.0528  0.1501
  861MOL0     C16123   9.769   8.984   1.212 -0.0257  0.0063 -0.1358
  861MOL0     O16124   9.663   9.049   1.139 -0.3533  0.1176 -0.0526
  861MOL0     C16125   9.538   9.061   1.187  0.4544 -0.1329 -0.0844
  861MOL0     C16126   9.497   9.013   1.317  0.4272 -1.1815 -0.1261
  861MOL0     C16127   9.370   9.040   1.367 -0.3658 -0.2855 -0.2899
  861MOL0     C16128   9.276   9.104   1.291  0.4652 -0.4457 -0.0988
  861MOL0     C16129   9.138   9.107   1.338 -0.5635 -0.0615 -0.5696
  861MOL0     O16130   9.044   9.117   1.244 -0.2307  1.0168  0.4904
  861MOL0     C16131   8.916   9.094   1.273 -0.0020 -0.4297  0.1162
  861MOL0     C16132   8.838   9.190   1.209  0.2274  0.1185  0.5392
  861MOL0     C16133   8.700   9.189   1.232 -0.3258  0.1894  0.7090
  861MOL0     C16134   8.643   9.092   1.314 -0.2817 -0.2971 -0.3741
  861MOL0     O16135   8.509   9.096   1.346  0.5713  0.4545  0.1934
  861MOL0     C16136   8.436   8.974   1.371 -0.3034 -0.4118 -0.6803
  861MOL0     C16137   8.285   9.015   1.389 -0.2926 -0.1632 -0.2407
  861MOL0     C16138   8.212   8.885   1.403 -1.3686  0.2622 -0.1510
  861MOL0     C16139   8.060   8.913   1.399 -0.4774 -0.7149 -0.4169
  861MOL0     C16140   7.968   8.795   1.444  0.2433 -0.1893 -0.2395
  861MOL0     C16141   7.818   8.840   1.463  0.0832  0.4388 -0.1914
  861MOL0     C16142   7.735   8.714   1.459 -0.0017 -0.1159  0.3157
  861MOL0     C16143   7.585   8.746   1.435  0.9257  0.7436  0.0038
  861MOL0    Cl16144   7.557   8.850   1.306  0.7171 -0.8014 -0.0940
  861MOL0     C16145   8.726   9.011   1.391 -0.4649 -0.3266 -0.4091
  861MOL0     C16146   8.861   9.010   1.367  0.2121 -0.3177 -0.7492
  861MOL0     O16147   9.125   9.114   1.462  0.2722  0.0183 -0.1339
  861MOL0     C16148   9.315   9.159   1.163  0.2765  0.2519 -0.3736
  861MOL0     C16149   9.446   9.135   1.121  1.4126  0.3764  0.6535
  861MOL0     N16150   9.905   8.455   1.263  0.0740  0.2855  0.7321
  861MOL0     N16151   9.820   8.372   1.326  0.1085  0.4425  0.2541
  861MOL0     C16152   8.555   8.088   1.419 -1.2020 -0.1223 -0.3645
  861MOL0     C16153   8.435   8.028   1.378 -0.5879  0.5848 -0.4096
  861MOL0     C16154   8.149   7.690   1.149 -0.2575 -0.0289 -0.5252
  861MOL0     C16155   8.046   7.788   1.150  0.1478 -0.5898 -0.1090
  861MOL0     C16156   7.916   7.763   1.090 -0.4492 -1.2317  0.0253
  861MOL0     C16157   7.896   7.641   1.023 -0.1651 -0.8098 -0.2639
  861MOL0     O16158   7.780   7.633   0.957  0.5999  0.2172 -0.0378
  861MOL0     C16159   7.727   7.494   0.943  0.2006 -0.8323  0.9079
  861MOL0     C16160   7.591   7.520   0.872  0.3120  0.9369  0.0308
  861MOL0     C16161   7.500   7.573   0.985 -0.6594 -0.4157 -0.5879
  861MOL0     C16162   7.353   7.581   0.946  0.1411 -0.2243 -0.6715
  861MOL0     C16163   7.344   7.683   0.844 -0.3628  0.5189 -0.9440
  861MOL0     C16164   7.356   7.764   0.761  0.6048 -0.0200  0.4206
  861MOL0     C16165   7.997   7.544   1.025  0.0435  0.0397  1.0775
  861MOL0     C16166   8.118   7.561   1.089  0.2504  0.1330 -0.2616
  861MOL0     C16167   8.215   7.446   1.095  0.1997 -0.6420  0.4932
  861MOL0     H16168   8.550   7.738   1.257  1.9565 -0.0223 -0.1874
  861MOL0     H16169   8.755   7.829   1.367  1.2544  0.7471  1.1662
  861MOL0     H16170   8.973   8.057   1.510  0.0932  0.0903  0.4838
  861MOL0     H16171   8.906   7.981   1.367 -0.4278 -0.0727  0.1586
  861MOL0     H16172   8.948   8.292   1.389  0.4666  1.5881 -2.1317
  861MOL0     H16173   8.849   8.215   1.271 -0.4092  2.9023 -0.2841
  861MOL0     H16174   9.073   8.276   1.200 -0.7696 -0.1523 -1.0401
  861MOL0     H16175   9.036   8.101   1.184 -1.2822 -0.4438  0.4541
  861MOL0     H16176   9.185   8.209   1.418  1.8482  0.9243 -0.2407
  861MOL0     H16177   9.180   8.043   1.370  0.6826 -0.4160 -0.5466
  861MOL0     H16178   9.320   8.076   1.177  3.9373 -0.0267  0.3834
  861MOL0     H16179   9.325   8.243   1.201  2.4594  0.5155  0.2514
  861MOL0     H16180   9.396   8.196   1.437  0.8388  0.9592  0.0462
  861MOL0     H16181   9.431   8.030   1.377 -0.1101  0.5987  0.9031
  861MOL0     H16182   9.562   8.169   1.190 -3.0639  2.4980 -0.6854
  861MOL0     H16183   9.643   8.131   1.345 -2.0444 -3.1600  0.5100
  861MOL0     H16184   9.486   8.384   1.287  1.1342  2.3116 -0.5597
  861MOL0     H16185   9.553   8.339   1.438 -0.5935 -1.1538  1.2056
  861MOL0     H16186   9.615   8.530   1.132  0.6185 -0.0550 -0.0864
  861MOL0     H16187   9.979   8.669   1.143 -2.2971 -0.0959  2.4125
  861MOL0     H16188   9.908   8.596   0.993 -0.7583  1.1852 -1.1282
  861MOL0     H16189   9.880   8.822   1.013  0.0999  1.0782  1.4757
  861MOL0     H16190   9.714   8.744   1.009 -1.2799  2.6611  0.9365
  861MOL0     H16191   9.842   8.793   1.268  0.3317  1.0317  0.5825
  861MOL0     H16192   9.668   8.805   1.223 -0.1450 -0.2791 -1.3552
  861MOL0     H16193   9.871   9.011   1.182  1.8354 -2.6013  3.0562
  861MOL0     H16194   9.767   9.022   1.315  2.6749  0.8155 -0.2978
  861MOL0     H16195   9.559   8.950   1.380  1.6891  2.1048  2.2391
  861MOL0     H16196   9.337   8.995   1.460  0.5905  3.0217  1.8263
  861MOL0     H16197   8.874   9.271   1.147 -0.5038  0.1001  0.0834
  861MOL0     H16198   8.627   9.257   1.191 -0.8999 -0.9961 -0.2893
  861MOL0     H16199   8.451   8.897   1.295 -0.2079 -0.3762 -0.6987
  861MOL0     H16200   8.459   8.942   1.473  0.1161 -1.1548 -0.9994
  861MOL0     H16201   8.269   9.077   1.478 -3.9877 -1.2529 -0.0017
  861MOL0     H16202   8.256   9.073   1.301 -0.1985  2.5163  1.3852
  861MOL0     H16203   8.237   8.822   1.317  0.7800  2.9759 -1.6981
  861MOL0     H16204   8.243   8.826   1.489 -0.9926 -2.2347 -1.9054
  861MOL0     H16205   8.034   8.930   1.294  0.8996 -0.8276 -0.7918
  861MOL0     H16206   8.027   8.998   1.459 -2.2683  0.6880 -3.1637
  861MOL0     H16207   8.001   8.751   1.538  0.0400 -1.4718 -0.7366
  861MOL0     H16208   7.987   8.726   1.361  1.6115 -0.2063  0.0598
  861MOL0     H16209   7.779   8.881   1.556 -3.4914 -3.0677  0.1053
  861MOL0     H16210   7.792   8.906   1.381 -2.1723  0.3209  0.3833
  861MOL0     H16211   7.735   8.668   1.558  1.4691  0.0538  0.4109
  861MOL0     H16212   7.778   8.643   1.387  0.5427  1.4589 -0.9719
  861MOL0     H16213   7.541   8.647   1.414  1.7934  0.4475 -0.4683
  861MOL0     H16214   7.531   8.786   1.521  1.9656 -1.1382  1.5966
  861MOL0     H16215   8.672   8.939   1.452 -0.3558  0.2040  0.3250
  861MOL0     H16216   8.919   8.936   1.421  0.8822 -0.0775 -1.1241
  861MOL0     H16217   9.249   9.211   1.094  0.8460  2.1284  0.4164
  861MOL0     H16218   9.483   9.181   1.029  3.7753 -2.3430  0.0737
  861MOL0     H16219   8.560   8.186   1.466 -3.3559  0.5685 -1.4513
  861MOL0     H16220   8.349   8.095   1.375 -2.5417 -1.8058 -1.6596
  861MOL0     H16221   8.060   7.873   1.215  1.8259 -2.6836  2.4851
  861MOL0     H16222   7.836   7.836   1.106 -0.3985 -1.3262  0.7461
  861MOL0     H16223   7.731   7.437   1.036  0.1742 -0.7659  0.9496
  861MOL0     H16224   7.782   7.442   0.863  0.4282 -0.8520  1.0762
  861MOL0     H16225   7.568   7.417   0.845  0.3482  0.5293  1.5029
  861MOL0     H16226   7.589   7.587   0.785 -0.8346  1.2115  0.2533
  861MOL0     H16227   7.541   7.671   1.008  0.4249 -1.2834  1.4693
  861MOL0     H16228   7.515   7.514   1.076  1.2419  3.3122  1.7302
  861MOL0     H16229   7.313   7.487   0.908  0.3800  0.2254 -2.1068
  861MOL0     H16230   7.302   7.611   1.037  1.5909  1.1025 -0.2494
  861MOL0     H16231   7.361   7.853   0.700 -0.1184 -0.1553  0.1531
  861MOL0     H16232   7.975   7.452   0.972  0.4600 -1.3399  3.1831
  861MOL0     H16233   8.173   7.375   1.023 -1.7047  1.3268 -0.4618
  861MOL0     H16234   8.322   7.469   1.085  0.3722 -0.5898  2.1508
  861MOL0     H16235   8.211   7.408   1.197  4.0456 -0.1322  0.9750
  862MOL0     O16236   2.712   8.856   5.578 -0.2839 -0.0949  0.0710
  862MOL0     C16237   2.664   8.822   5.686 -0.6362  0.3119  0.6724
  862MOL0     O16238   2.736   8.809   5.802 -0.2252 -0.7979  0.4148
  862MOL0     C16239   2.862   8.837   5.802 -0.0093  0.5135  0.3226
  862MOL0     C16240   2.945   8.735   5.769 -1.2244  0.0820 -0.4741
  862MOL0     C16241   3.077   8.750   5.786 -0.0100  0.8412  0.5061
  862MOL0     C16242   3.131   8.865   5.843 -0.3785  0.7269  0.6488
  862MOL0     O16243   3.269   8.880   5.850 -0.2111  0.1670 -1.0236
  862MOL0     C16244   3.369   8.778   5.893  0.3585  0.5690  0.1596
  862MOL0     C16245   3.460   8.739   5.777 -0.1540  0.0431 -0.7172
  862MOL0     C16246   3.540   8.855   5.732 -0.0411 -0.2592 -0.2196
  862MOL0     C16247   3.575   8.872   5.589 -0.1204  1.0560 -0.6194
  862MOL0     C16248   3.585   8.739   5.500 -0.3947 -0.5966 -0.2556
  862MOL0     C16249   3.706   8.658   5.552 -0.9228  0.2153 -0.1439
  862MOL0     C16250   3.835   8.727   5.584 -1.0203 -0.2360 -0.1043
  862MOL0     C16251   3.891   8.803   5.459  0.5014 -0.1173 -0.1573
  862MOL0     N16252   3.910   8.712   5.343 -0.0835 -1.0105  0.0070
  862MOL0     C16253   3.959   8.588   5.343  0.7331  0.1901 -0.6629
  862MOL0     C16254   3.932   8.529   5.224 -0.2364 -0.4888 -0.1016
  862MOL0     C16255   3.971   8.392   5.176 -0.7997 -0.6831  0.4744
  862MOL0     C16256   4.125   8.389   5.155  0.2356 -0.5247 -1.0609
  862MOL0     C16257   4.168   8.292   5.045  0.1542  0.6386  0.1207
  862MOL0     C16258   4.319   8.284   5.033  0.0081  0.4492  0.2517
  862MOL0     O16259   4.372   8.229   5.160  0.2658 -0.0293  0.0305
  862MOL0     C16260   4.512   8.226   5.179  0.5489 -0.2843  0.0814
  862MOL0     C16261   4.609   8.282   5.091  0.5456 -0.6196 -1.0324
  862MOL0     C16262   4.750   8.262   5.114 -0.3520  0.4953 -0.6125
  862MOL0     C16263   4.797   8.187   5.224 -0.0852 -0.3317 -0.3548
  862MOL0     C16264   4.940   8.175   5.246 -0.5848  0.0953  0.0429
  862MOL0     O16265   5.016   8.268   5.172  0.0999 -0.1938 -0.2901
  862MOL0     C16266   5.152   8.283   5.172 -0.7120  0.0360  0.5315
  862MOL0     C16267   5.223   8.294   5.293  0.3556 -0.7525  0.0857
  862MOL0     C16268   5.363   8.307   5.290 -1.2023  0.0682 -0.6990
  862MOL0     C16269   5.436   8.323   5.174 -0.2837 -0.1192  0.1391
  862MOL0     O16270   5.566   8.366   5.172  0.3133 -0.5384 -0.0340
  862MOL0     C16271   5.626   8.407   5.299  0.5169 -0.5220  0.0047
  862MOL0     C16272   5.761   8.469   5.266  0.2824  0.1669 -0.3294
  862MOL0     C16273   5.873   8.360   5.232 -0.6634  0.5332 -0.0445
  862MOL0     C16274   5.965   8.421   5.136 -0.4725 -0.5090 -0.4843
  862MOL0     C16275   6.087   8.337   5.100 -0.4781  1.0481 -0.2923
  862MOL0     C16276   6.206   8.413   5.049  0.2262 -0.3885  0.3085
  862MOL0     C16277   6.165   8.468   4.910 -0.0478 -0.7920  0.0832
  862MOL0     C16278   6.268   8.581   4.866  0.3919  0.6953  0.2507
  862MOL0    Cl16279   6.289   8.705   4.994  0.0348 -0.0080 -0.2589
  862MOL0     C16280   5.365   8.318   5.057  0.4411  0.2104  0.6265
  862MOL0     C16281   5.228   8.299   5.055  0.9328  0.7200 -0.1467
  862MOL0     O16282   4.978   8.087   5.323 -0.1371  0.5961  0.0754
  862MOL0     C16283   4.700   8.141   5.314 -0.0618  0.7168  0.1415
  862MOL0     C16284   4.563   8.155   5.286  0.0579  0.0732 -0.3617
  862MOL0     N16285   3.852   8.617   5.158 -0.9710 -0.6495  0.2718
  862MOL0     N16286   3.845   8.729   5.224 -0.7188 -0.2944 -0.2091
  862MOL0     C16287   3.045   8.970   5.873 -0.5380 -1.0153 -1.2909
  862MOL0     C16288   2.908   8.958   5.853  0.9842  0.4935 -0.7006
  862MOL0     C16289   2.523   8.776   5.701  0.1363 -0.4302 -0.1786
  862MOL0     C16290   2.486   8.732   5.833 -0.5530 -0.3314  0.5977
  862MOL0     C16291   2.356   8.685   5.865 -0.6458 -0.5710  0.0391
  862MOL0     C16292   2.255   8.687   5.769 -1.0597  0.2172 -0.2447
  862MOL0     O16293   2.119   8.663   5.787 -0.3299 -0.6372 -0.0061
  862MOL0     C16294   2.082   8.578   5.896 -0.2622 -0.0544 -0.5411
  862MOL0     C16295   1.954   8.496   5.865  0.2893  0.6097  0.1462
  862MOL0     C16296   1.830   8.576   5.906  0.3727  0.0189  0.3991
  862MOL0     C16297   1.699   8.498   5.882 -0.4239  0.7747  0.5387
  862MOL0     C16298   1.583   8.572   5.928 -0.6162  0.2667  1.3850
  862MOL0     C16299   1.478   8.621   5.960  0.2175 -1.0435  0.9782
  862MOL0     C16300   2.292   8.737   5.647  0.0635  0.2960 -0.3168
  862MOL0     C16301   2.416   8.778   5.606 -0.0006 -0.4922 -0.7708
  862MOL0     C16302   2.436   8.819   5.469 -0.5810  0.0504  0.7530
  862MOL0     H16303   2.896   8.643   5.738 -4.3125  1.6087 -0.5121
  862MOL0     H16304   3.145   8.667   5.769  0.2968  0.8142  1.7347
  862MOL0     H16305   3.428   8.826   5.971  0.4281 -0.6867  0.9044
  862MOL0     H16306   3.318   8.687   5.926  0.6275 -0.2999 -1.7056
  862MOL0     H16307   3.389   8.704   5.702  0.2244  1.8891 -2.0353
  862MOL0     H16308   3.529   8.661   5.810 -2.2346 -0.5670  2.6303
  862MOL0     H16309   3.637   8.837   5.779 -0.8216 -2.4481  0.6669
  862MOL0     H16310   3.490   8.948   5.760 -0.4465 -0.4303 -0.3562
  862MOL0     H16311   3.497   8.935   5.546  1.9814  1.7358 -3.8147
  862MOL0     H16312   3.667   8.930   5.583  0.4313  0.2408 -0.2225
  862MOL0     H16313   3.488   8.689   5.512 -2.2420  2.8622  0.5039
  862MOL0     H16314   3.599   8.754   5.392  1.0392  2.1325  0.2194
  862MOL0     H16315   3.682   8.592   5.635  1.0678  1.3088  1.3778
  862MOL0     H16316   3.732   8.580   5.480 -1.1499 -0.2412  0.2668
  862MOL0     H16317   3.917   8.658   5.605  1.2639  2.4926  0.4656
  862MOL0     H16318   3.831   8.793   5.671 -2.0649  1.0896 -1.1100
  862MOL0     H16319   3.835   8.894   5.436 -0.5619 -0.4062  1.1765
  862MOL0     H16320   3.992   8.835   5.487  1.3573 -1.2767 -1.7720
  862MOL0     H16321   4.015   8.534   5.420  0.1724  2.5296  1.5183
  862MOL0     H16322   3.924   8.314   5.237 -0.6113 -0.1528  1.3101
  862MOL0     H16323   3.925   8.375   5.078 -0.2982 -0.5170  0.2026
  862MOL0     H16324   4.169   8.486   5.131  1.2845 -0.5863  0.4644
  862MOL0     H16325   4.167   8.365   5.253 -2.7514 -2.3657 -0.0903
  862MOL0     H16326   4.125   8.336   4.955 -2.0700  1.6810  1.5834
  862MOL0     H16327   4.139   8.190   5.069  0.8804  0.5157  0.4851
  862MOL0     H16328   4.371   8.376   5.002  1.3665 -1.1241 -2.4472
  862MOL0     H16329   4.346   8.223   4.947  0.8693  1.6784 -0.3956
  862MOL0     H16330   4.575   8.346   5.010  1.4322  0.7697 -0.3366
  862MOL0     H16331   4.815   8.300   5.036  0.0255 -0.7452 -0.9278
  862MOL0     H16332   5.167   8.298   5.386  2.0234  2.3844  1.0868
  862MOL0     H16333   5.408   8.309   5.388  1.7056 -0.4518 -1.9309
  862MOL0     H16334   5.566   8.492   5.333  1.4219  0.0458  0.2042
  862MOL0     H16335   5.637   8.325   5.371  2.5096  1.2412  1.8252
  862MOL0     H16336   5.741   8.525   5.174  0.0749  2.0255  0.8107
  862MOL0     H16337   5.796   8.528   5.351  1.7376 -1.7084  0.4466
  862MOL0     H16338   5.920   8.318   5.322  0.0500 -4.0139 -2.2398
  862MOL0     H16339   5.815   8.279   5.187  0.0906  0.0352 -0.1324
  862MOL0     H16340   6.001   8.518   5.173 -1.0597  0.3758 -2.1456
  862MOL0     H16341   5.904   8.441   5.048 -2.2956  0.4180  0.9060
  862MOL0     H16342   6.072   8.257   5.026 -1.2942 -0.6090  1.5623
  862MOL0     H16343   6.125   8.287   5.190 -1.7972  2.5056  1.1282
  862MOL0     H16344   6.242   8.495   5.111  1.1965  0.2607 -1.0530
  862MOL0     H16345   6.292   8.348   5.027  2.5845  3.1189 -1.8789
  862MOL0     H16346   6.061   8.497   4.893 -0.3066 -1.7480  0.0066
  862MOL0     H16347   6.175   8.393   4.832 -0.2109 -1.0264  0.2866
  862MOL0     H16348   6.361   8.523   4.858 -0.5479 -0.6179 -1.9480
  862MOL0     H16349   6.253   8.628   4.769 -0.0502  2.0211  0.9433
  862MOL0     H16350   5.421   8.332   4.965  0.2217  1.8078  0.7071
  862MOL0     H16351   5.174   8.289   4.961  0.0334 -1.6846  0.5503
  862MOL0     H16352   4.743   8.091   5.401  1.2437 -0.3239 -1.0499
  862MOL0     H16353   4.482   8.099   5.330 -1.7401 -0.2560 -3.7570
  862MOL0     H16354   3.092   9.060   5.912 -2.3696 -0.4318 -0.3292
  862MOL0     H16355   2.840   9.040   5.877 -0.4880 -0.5243 -1.2053
  862MOL0     H16356   2.559   8.731   5.913 -1.3413 -2.0368  1.3366
  862MOL0     H16357   2.331   8.653   5.966 -0.8393 -1.4097 -0.2751
  862MOL0     H16358   2.064   8.633   5.989  1.2924  1.4586 -1.0941
  862MOL0     H16359   2.164   8.509   5.917 -0.2649  1.2086  5.2002
  862MOL0     H16360   1.962   8.408   5.929  2.5561  0.3308 -0.4130
  862MOL0     H16361   1.950   8.470   5.759 -1.9323 -1.5173  0.6829
  862MOL0     H16362   1.827   8.667   5.846 -1.2417  0.2394  0.7792
  862MOL0     H16363   1.836   8.601   6.012  1.1290  3.0676 -0.2744
  862MOL0     H16364   1.691   8.480   5.774 -0.7842 -0.7781  0.7941
  862MOL0     H16365   1.695   8.395   5.920 -0.0613  1.6345  3.0656
  862MOL0     H16366   1.378   8.656   5.976 -0.6357 -3.1206  0.5527
  862MOL0     H16367   2.214   8.731   5.572 -1.1472 -3.4525  1.0186
  862MOL0     H16368   2.504   8.749   5.419 -1.0710 -0.6828  1.0880
  862MOL0     H16369   2.345   8.808   5.409 -0.5218  2.2907  0.1645
  862MOL0     H16370   2.458   8.924   5.450 -1.0232 -0.1798 -1.2993
  863MOL0     O16371   7.467   3.781   0.948 -0.0108 -0.4102 -0.5799
  863MOL0     C16372   7.411   3.815   1.053 -0.3335 -0.0113  0.4445
  863MOL0     O16373   7.472   3.834   1.170  0.1206 -0.6058 -0.0619
  863MOL0     C16374   7.610   3.839   1.170  0.5385 -0.3453  0.4127
  863MOL0     C16375   7.681   3.724   1.207 -0.1474 -0.1868 -0.1127
  863MOL0     C16376   7.821   3.720   1.224 -0.4738 -0.5696  0.7854
  863MOL0     C16377   7.888   3.824   1.159  0.1269 -0.1265  0.8659
  863MOL0     O16378   8.021   3.819   1.161 -0.1516  0.1997  0.3413
  863MOL0     C16379   8.105   3.914   1.109 -1.1993 -0.8571  0.6530
  863MOL0     C16380   8.251   3.875   1.145 -0.6110  0.4383 -0.0123
  863MOL0     C16381   8.310   3.786   1.037 -1.2071  0.8082  0.6547
  863MOL0     C16382   8.460   3.765   1.057 -0.2184  0.3475  0.2339
  863MOL0     C16383   8.513   3.674   0.946 -0.2620 -0.0427 -0.1822
  863MOL0     C16384   8.499   3.745   0.811  0.2001  0.5592 -0.2743
  863MOL0     C16385   8.557   3.654   0.698  0.2540 -0.5910  0.0061
  863MOL0     C16386   8.559   3.720   0.565  0.8381 -0.5431  1.0442
  863MOL0     N16387   8.426   3.738   0.490 -0.4171  0.9743  0.2139
  863MOL0     C16388   8.373   3.644   0.406  0.4252  0.8126  0.2974
  863MOL0     C16389   8.258   3.698   0.357  0.3282  0.7553  0.1623
  863MOL0     C16390   8.156   3.617   0.266  0.0866  0.1938 -0.3186
  863MOL0     C16391   8.025   3.620   0.336 -0.5117  0.6880 -0.1852
  863MOL0     C16392   7.915   3.545   0.252 -0.2883 -0.4861  0.3069
  863MOL0     C16393   7.780   3.536   0.318 -0.2575  0.0747 -1.0021
  863MOL0     O16394   7.682   3.474   0.240  0.2031 -0.6615  0.4350
  863MOL0     C16395   7.550   3.477   0.284 -0.8691  0.1193 -0.1871
  863MOL0     C16396   7.514   3.509   0.416 -0.7693  0.2213 -0.0575
  863MOL0     C16397   7.385   3.499   0.463 -0.4198 -1.1885 -0.9158
  863MOL0     C16398   7.284   3.469   0.369 -0.7075 -0.8840 -0.7069
  863MOL0     C16399   7.144   3.473   0.415 -0.4834  0.3007  0.1620
  863MOL0     O16400   7.122   3.465   0.547 -0.0990 -0.7588 -0.4941
  863MOL0     C16401   6.993   3.449   0.596 -0.2057  0.4070  0.3519
  863MOL0     C16402   6.894   3.368   0.533 -0.2917  0.3073 -0.2714
  863MOL0     C16403   6.768   3.348   0.597 -0.3582  0.5371  0.5098
  863MOL0     C16404   6.733   3.415   0.714 -0.3902  0.6489  0.5666
  863MOL0     O16405   6.618   3.386   0.788  0.7246  0.8032 -0.3472
  863MOL0     C16406   6.498   3.322   0.744  0.2651  0.0388 -0.1123
  863MOL0     C16407   6.420   3.292   0.871  0.8843  0.0411 -0.2277
  863MOL0     C16408   6.361   3.425   0.931  0.4064 -1.3290  0.4193
  863MOL0     C16409   6.270   3.392   1.051  0.4140 -0.0818  0.8307
  863MOL0     C16410   6.230   3.518   1.134  0.2310  0.2090  0.0625
  863MOL0     C16411   6.117   3.496   1.231  0.2054 -0.5702  0.4302
  863MOL0     C16412   6.157   3.424   1.358  0.1124 -0.6638  0.4674
  863MOL0     C16413   6.028   3.400   1.430  0.1272  0.1131 -0.2296
  863MOL0    Cl16414   5.926   3.263   1.390 -0.1185 -0.7404 -0.3101
  863MOL0     C16415   6.827   3.505   0.765  0.6758 -0.5135 -0.3654
  863MOL0     C16416   6.957   3.518   0.707 -0.4827 -0.5908 -0.3478
  863MOL0     O16417   7.057   3.454   0.332 -0.3508 -0.3688 -0.0666
  863MOL0     C16418   7.319   3.443   0.241 -0.6712 -0.4487  0.4270
  863MOL0     C16419   7.449   3.450   0.193 -0.0763 -0.1504  0.5008
  863MOL0     N16420   8.244   3.826   0.406  0.6304  0.9237 -0.2385
  863MOL0     N16421   8.342   3.851   0.487 -0.0621  0.0763 -0.2964
  863MOL0     C16422   7.822   3.942   1.107  0.2143  0.2920 -0.5625
  863MOL0     C16423   7.675   3.944   1.110 -0.1191  0.1569  0.9526
  863MOL0     C16424   7.259   3.826   1.059  0.5650  1.1892 -0.0672
  863MOL0     C16425   7.190   3.819   1.184 -0.7122 -0.3078  0.2982
  863MOL0     C16426   7.055   3.806   1.191 -0.1966 -0.4199  0.5485
  863MOL0     C16427   6.981   3.810   1.066 -0.3147  0.7664  0.0976
  863MOL0     O16428   6.843   3.789   1.056  0.7444  0.0751 -0.8671
  863MOL0     C16429   6.783   3.691   1.150 -0.3195 -0.4386  0.0475
  863MOL0     C16430   6.641   3.688   1.117  1.5159 -0.2486 -0.2712
  863MOL0     C16431   6.586   3.827   1.139  0.4147 -0.4542  0.2029
  863MOL0     C16432   6.433   3.812   1.130 -0.0271 -0.0887 -0.5184
  863MOL0     C16433   6.366   3.807   1.267 -0.5415 -0.3488 -1.0519
  863MOL0     C16434   6.311   3.826   1.377 -0.1255  0.6530 -0.3906
  863MOL0     C16435   7.046   3.822   0.942 -1.0562 -0.1542 -0.9131
  863MOL0     C16436   7.186   3.822   0.938  0.3800 -0.0181 -0.9380
  863MOL0     C16437   7.244   3.841   0.799 -0.0057 -0.3575 -0.2436
  863MOL0     H16438   7.630   3.651   1.270  0.9960  0.5053  1.6816
  863MOL0     H16439   7.874   3.636   1.268  1.2158  1.2407  2.3555
  863MOL0     H16440   8.102   3.912   1.000 -1.4061 -2.1984  0.6597
  863MOL0     H16441   8.087   4.011   1.156  3.3731  0.6574 -0.2674
  863MOL0     H16442   8.256   3.814   1.235  2.4658 -2.5260 -1.9270
  863MOL0     H16443   8.314   3.962   1.169 -0.6656  0.0894  1.4903
  863MOL0     H16444   8.312   3.851   0.949  2.9059  1.2321  0.8593
  863MOL0     H16445   8.261   3.688   1.025  1.5608 -0.7100  0.9517
  863MOL0     H16446   8.518   3.858   1.062  1.4329 -0.6321  0.1599
  863MOL0     H16447   8.481   3.712   1.150 -0.2670 -0.3248 -0.1265
  863MOL0     H16448   8.620   3.649   0.950  0.0287  0.2050 -3.4184
  863MOL0     H16449   8.463   3.577   0.942  0.7807 -0.6159  0.2838
  863MOL0     H16450   8.392   3.764   0.795 -0.3610 -0.2147  2.1322
  863MOL0     H16451   8.550   3.840   0.824 -0.6907  0.8205  1.5835
  863MOL0     H16452   8.497   3.563   0.706  0.7137 -0.9091 -0.1281
  863MOL0     H16453   8.662   3.641   0.725  0.2127  2.0524  1.7781
  863MOL0     H16454   8.609   3.817   0.571 -2.4646  1.3871  0.1709
  863MOL0     H16455   8.621   3.666   0.492  2.0290  4.0364 -1.7477
  863MOL0     H16456   8.416   3.547   0.384  1.6397  1.3381  0.2943
  863MOL0     H16457   8.160   3.656   0.164 -0.0790  2.0480  0.3436
  863MOL0     H16458   8.189   3.513   0.265 -1.7514 -0.5059  2.0077
  863MOL0     H16459   8.033   3.574   0.434 -2.7239  0.9472  0.1567
  863MOL0     H16460   7.990   3.722   0.354 -0.0874  1.0730 -1.4156
  863MOL0     H16461   7.940   3.441   0.228 -1.9836 -1.6047  2.8878
  863MOL0     H16462   7.902   3.604   0.161 -1.3482 -2.2959 -0.7730
  863MOL0     H16463   7.740   3.631   0.354 -1.0198 -0.5429 -0.1682
  863MOL0     H16464   7.801   3.467   0.400  1.4850  0.1994 -1.2953
  863MOL0     H16465   7.595   3.538   0.482  0.3507 -0.1460 -1.2295
  863MOL0     H16466   7.366   3.530   0.565  1.5523  3.3570 -1.6774
  863MOL0     H16467   6.907   3.312   0.442  2.2171 -0.1011  0.2742
  863MOL0     H16468   6.700   3.283   0.542  1.8839 -0.6931 -0.9793
  863MOL0     H16469   6.439   3.385   0.677  0.1703 -2.4963 -2.6215
  863MOL0     H16470   6.514   3.225   0.695 -3.5219 -0.0871 -1.4253
  863MOL0     H16471   6.328   3.240   0.845 -0.4003  1.0434  1.9787
  863MOL0     H16472   6.477   3.239   0.948 -0.1437  1.0228  1.2648
  863MOL0     H16473   6.442   3.492   0.962 -0.9254  1.0931 -1.0284
  863MOL0     H16474   6.308   3.486   0.858  1.4374 -1.6588 -0.6395
  863MOL0     H16475   6.319   3.325   1.121  1.1799  1.2202  1.5802
  863MOL0     H16476   6.181   3.356   0.997  2.1125 -0.1731 -2.1438
  863MOL0     H16477   6.206   3.608   1.076  0.9384  2.0277  2.4146
  863MOL0     H16478   6.320   3.558   1.182  0.1635  1.8658 -1.0918
  863MOL0     H16479   6.069   3.589   1.260 -2.6188 -1.5145 -0.8363
  863MOL0     H16480   6.050   3.433   1.170  0.0864  0.3092 -0.3693
  863MOL0     H16481   6.214   3.500   1.413 -0.5759 -0.7587  1.3315
  863MOL0     H16482   6.199   3.323   1.347 -3.2966 -2.0266 -1.4408
  863MOL0     H16483   6.069   3.372   1.528  0.3872  2.9916  0.5821
  863MOL0     H16484   5.976   3.496   1.436  1.4010  0.7389  2.5422
  863MOL0     H16485   6.794   3.552   0.857  2.1327 -1.7596  0.8392
  863MOL0     H16486   7.031   3.560   0.775 -2.9761  1.4328  1.3300
  863MOL0     H16487   7.243   3.409   0.171  0.5562 -0.8039 -0.7795
  863MOL0     H16488   7.456   3.419   0.089  0.8797 -0.6009  0.6958
  863MOL0     H16489   7.889   4.021   1.076  3.3267 -1.9704 -0.0671
  863MOL0     H16490   7.628   4.030   1.064  1.0813 -0.2155 -1.0959
  863MOL0     H16491   7.243   3.829   1.278 -1.6953 -1.4501  0.9934
  863MOL0     H16492   7.017   3.805   1.293 -0.9469 -1.0143  0.2752
  863MOL0     H16493   6.797   3.713   1.256 -1.0993  0.3166 -0.0024
  863MOL0     H16494   6.832   3.595   1.128  1.1226  0.2350  0.1874
  863MOL0     H16495   6.586   3.611   1.171  4.6546 -3.3437 -1.1222
  863MOL0     H16496   6.619   3.660   1.014  1.3462 -0.0510 -0.2881
  863MOL0     H16497   6.612   3.909   1.072 -0.8883 -0.7646 -0.7395
  863MOL0     H16498   6.613   3.863   1.238  0.1505  2.1309 -0.5905
  863MOL0     H16499   6.399   3.907   1.088  3.6852  0.2884 -3.1302
  863MOL0     H16500   6.399   3.735   1.060  3.3025  0.4883 -2.9919
  863MOL0     H16501   6.250   3.838   1.465 -1.6910 -0.3290 -1.2919
  863MOL0     H16502   6.993   3.829   0.848  1.0628 -0.7098 -2.2124
  863MOL0     H16503   7.160   3.854   0.729 -1.7811 -3.1893  1.1667
  863MOL0     H16504   7.318   3.921   0.811 -4.3109  3.6991  3.1147
  863MOL0     H16505   7.273   3.738   0.777  0.8631 -0.7007  2.2397
  864MOL0     O16506   9.162   8.136   6.993 -0.4623 -0.2014  0.0290
  864MOL0     C16507   9.150   8.116   7.113 -0.4039  0.3734  0.2554
  864MOL0     O16508   9.254   8.127   7.209 -0.6412  0.3293  0.5105
  864MOL0     C16509   9.388   8.167   7.191  1.1487  0.8944  0.2943
  864MOL0     C16510   9.470   8.160   7.311 -0.5297 -0.2777 -0.3170
  864MOL0     C16511   9.603   8.212   7.299  0.1811  0.1211 -0.5583
  864MOL0     C16512   9.645   8.262   7.178 -0.7326 -0.0271 -0.1842
  864MOL0     O16513   9.774   8.310   7.165 -0.2165 -0.7866  0.0703
  864MOL0     C16514   9.802   8.435   7.231  0.0966 -0.2721  0.3956
  864MOL0     C16515   9.955   8.438   7.243 -0.8338 -1.0014 -0.4340
  864MOL0     C16516  10.042   8.408   7.118 -0.4523 -0.0017 -0.0171
  864MOL0     C16517  10.004   8.498   6.989 -0.0746 -0.6555 -0.2242
  864MOL0     C16518  10.036   8.646   7.019  0.7628 -0.1034  0.4057
  864MOL0     C16519  10.180   8.679   7.052 -0.9174  0.2467 -0.4471
  864MOL0     C16520  10.206   8.824   7.066 -0.6365 -0.2578  0.1805
  864MOL0     C16521  10.335   8.872   7.134 -0.1017 -0.3657 -0.3503
  864MOL0     N16522  10.460   8.819   7.073 -0.0676  0.2364  0.0034
  864MOL0     C16523  10.492   8.855   6.945  0.5304 -0.1633  0.1455
  864MOL0     C16524  10.574   8.758   6.901  1.0817 -0.5984  0.1338
  864MOL0     C16525  10.658   8.749   6.785  0.3199 -0.5810 -0.1888
  864MOL0     C16526  10.581   8.718   6.664 -0.0104 -0.1033 -0.2627
  864MOL0     C16527  10.510   8.582   6.662  0.3314  0.4538 -0.6646
  864MOL0     C16528  10.566   8.449   6.728  0.1711  0.1332  0.2262
  864MOL0     O16529  10.694   8.420   6.656  0.6649 -0.1831  0.6109
  864MOL0     C16530  10.757   8.304   6.680 -0.0680 -0.3271 -0.5356
  864MOL0     C16531  10.717   8.199   6.764 -0.3554  0.0694 -0.4013
  864MOL0     C16532  10.797   8.079   6.784 -0.0481  0.5425 -1.1840
  864MOL0     C16533  10.918   8.061   6.716  0.5267 -0.8912 -0.6200
  864MOL0     C16534  10.983   7.931   6.731 -0.3788  0.2411 -0.1958
  864MOL0     O16535  11.098   7.929   6.664 -0.1128 -0.0444  0.6999
  864MOL0     C16536  11.152   7.798   6.650 -0.0925 -0.0190  0.9490
  864MOL0     C16537  11.094   7.715   6.553  0.0482  0.2981  0.2839
  864MOL0     C16538  11.140   7.579   6.540  0.0216 -0.0922 -0.6068
  864MOL0     C16539  11.256   7.538   6.611 -0.2182 -0.5834  1.1922
  864MOL0     O16540  11.301   7.416   6.579  0.1586 -0.3045  0.1078
  864MOL0     C16541  11.441   7.395   6.537 -0.7209 -0.1217  0.7083
  864MOL0     C16542  11.493   7.259   6.592 -0.0437 -0.0029 -0.7717
  864MOL0     C16543  11.639   7.222   6.564 -0.2863  0.1355 -0.0890
  864MOL0     C16544  11.662   7.168   6.422  0.2814 -0.2975 -1.3123
  864MOL0     C16545  11.805   7.136   6.391 -0.3860 -0.4365 -0.2847
  864MOL0     C16546  11.813   7.061   6.253  0.4300 -0.7395 -0.2735
  864MOL0     C16547  11.733   7.122   6.140  1.2033 -1.0076 -0.4549
  864MOL0     C16548  11.775   7.058   6.014  0.0383 -0.7378 -0.1102
  864MOL0    Cl16549  11.941   7.111   5.951  0.4966 -0.0322  0.0506
  864MOL0     C16550  11.321   7.625   6.701  0.0212  0.2258 -0.8734
  864MOL0     C16551  11.264   7.761   6.716 -0.3447 -0.0615 -0.8271
  864MOL0     O16552  10.933   7.838   6.795  0.6409 -0.1928 -0.5228
  864MOL0     C16553  10.960   8.171   6.637 -0.3596 -0.2311  0.5797
  864MOL0     C16554  10.889   8.291   6.625 -0.2431 -0.4914 -0.0326
  864MOL0     N16555  10.572   8.658   6.993 -0.0988  0.7336 -0.1431
  864MOL0     N16556  10.510   8.695   7.102 -0.6020  0.6994  0.3419
  864MOL0     C16557   9.560   8.261   7.065  0.5280  0.3513  0.0197
  864MOL0     C16558   9.428   8.213   7.074  0.5812 -0.7859  0.3627
  864MOL0     C16559   9.022   8.056   7.159 -0.5861 -0.8706 -0.5158
  864MOL0     C16560   9.015   7.997   7.285  0.8355  0.1489 -0.0620
  864MOL0     C16561   8.895   7.933   7.331  0.4876  0.3818 -0.0237
  864MOL0     C16562   8.783   7.938   7.252 -0.5791  0.0996  0.4353
  864MOL0     O16563   8.673   7.870   7.302 -0.2081  0.6621  0.5621
  864MOL0     C16564   8.545   7.861   7.228  0.3181  0.0457  0.2241
  864MOL0     C16565   8.472   7.994   7.242  0.2920  0.6248 -0.9613
  864MOL0     C16566   8.331   8.006   7.169  0.9648 -0.8910 -0.2805
  864MOL0     C16567   8.332   7.949   7.027 -0.4167 -0.4159  0.3212
  864MOL0     C16568   8.423   8.031   6.948  0.2548 -0.3870 -1.1014
  864MOL0     C16569   8.497   8.098   6.878 -0.1986 -0.8305 -0.6915
  864MOL0     C16570   8.784   8.001   7.124  0.0030  0.3187 -0.0830
  864MOL0     C16571   8.906   8.062   7.079  0.5998 -0.5939 -0.1199
  864MOL0     C16572   8.881   8.122   6.944 -0.0693 -0.3412  0.1937
  864MOL0     H16573   9.420   8.131   7.403 -0.7195  1.4044  0.1314
  864MOL0     H16574   9.666   8.225   7.387 -0.5443 -0.1266  0.0130
  864MOL0     H16575   9.747   8.513   7.177 -0.8658 -2.4307 -1.9357
  864MOL0     H16576   9.759   8.432   7.332 -0.8709  0.9292  0.0499
  864MOL0     H16577   9.993   8.364   7.314  0.3610 -0.6484 -0.6837
  864MOL0     H16578   9.987   8.538   7.274 -0.4552 -1.1972 -0.1972
  864MOL0     H16579  10.023   8.302   7.097  1.3850 -0.3802  0.1307
  864MOL0     H16580  10.148   8.425   7.133 -0.3738  1.3158 -1.7346
  864MOL0     H16581  10.065   8.481   6.900 -0.1587  1.3317 -0.7088
  864MOL0     H16582   9.898   8.486   6.964  0.0821 -1.9920 -0.3260
  864MOL0     H16583  10.003   8.713   6.939  2.0131  0.8318  0.6380
  864MOL0     H16584   9.973   8.676   7.103  0.3132  0.3618 -0.0918
  864MOL0     H16585  10.210   8.628   7.144 -1.2869  4.2694  2.1771
  864MOL0     H16586  10.246   8.645   6.972 -0.9163  0.6496 -0.6185
  864MOL0     H16587  10.130   8.877   7.124 -0.2448 -1.0272  1.4444
  864MOL0     H16588  10.208   8.874   6.969 -0.7064 -2.5040 -1.0458
  864MOL0     H16589  10.335   8.981   7.128  1.2154 -0.1596  2.2480
  864MOL0     H16590  10.320   8.857   7.241  0.1499 -1.5487 -0.4596
  864MOL0     H16591  10.470   8.949   6.894 -0.9116 -1.2205 -1.2702
  864MOL0     H16592  10.702   8.847   6.761  1.2598 -1.0719 -0.5053
  864MOL0     H16593  10.737   8.676   6.803 -0.1963 -0.5580  2.8027
  864MOL0     H16594  10.501   8.792   6.656  1.7636  2.1995  1.6918
  864MOL0     H16595  10.649   8.734   6.580 -0.0589 -0.3877 -0.3554
  864MOL0     H16596  10.487   8.555   6.559 -0.3435  2.2724 -1.0229
  864MOL0     H16597  10.419   8.599   6.721  2.7414  2.5997  2.8497
  864MOL0     H16598  10.486   8.378   6.702 -2.1258  2.5524  0.2030
  864MOL0     H16599  10.572   8.450   6.837  1.5496  0.7690  0.1694
  864MOL0     H16600  10.622   8.207   6.817 -0.1524  1.5711 -0.2274
  864MOL0     H16601  10.770   8.012   6.865 -0.3433 -0.0205 -1.7318
  864MOL0     H16602  11.012   7.730   6.483  1.6971 -2.1294 -2.3824
  864MOL0     H16603  11.101   7.505   6.470  2.0205 -0.5919 -1.2785
  864MOL0     H16604  11.445   7.380   6.429 -0.1580 -0.9690  0.8351
  864MOL0     H16605  11.511   7.474   6.566  0.9642 -1.6296  0.9005
  864MOL0     H16606  11.488   7.280   6.700  4.7082 -1.9998  0.1380
  864MOL0     H16607  11.431   7.172   6.571  1.7437 -1.7515  0.7404
  864MOL0     H16608  11.712   7.302   6.580  2.4671 -2.0681 -0.8569
  864MOL0     H16609  11.665   7.141   6.632 -1.7987  0.3451  0.7899
  864MOL0     H16610  11.612   7.236   6.353 -0.5938 -0.4598 -0.8587
  864MOL0     H16611  11.615   7.069   6.414 -1.4751  0.4352 -0.7043
  864MOL0     H16612  11.845   7.082   6.477 -0.1065  2.6639  1.6956
  864MOL0     H16613  11.861   7.230   6.389 -0.4310 -0.3299  1.7525
  864MOL0     H16614  11.922   7.068   6.239  0.7634 -1.9016  1.4415
  864MOL0     H16615  11.778   6.958   6.250 -1.6167 -0.0658 -1.1018
  864MOL0     H16616  11.755   7.229   6.132 -0.7829 -0.5617 -0.5641
  864MOL0     H16617  11.626   7.102   6.154  1.5507 -1.1864  2.7319
  864MOL0     H16618  11.763   6.949   6.018 -0.4936 -0.6790 -0.0016
  864MOL0     H16619  11.720   7.089   5.924  2.0356 -1.9815 -1.8528
  864MOL0     H16620  11.413   7.612   6.757 -1.4077 -1.7462  1.1840
  864MOL0     H16621  11.307   7.824   6.793 -1.8684  0.4564 -0.3755
  864MOL0     H16622  11.059   8.155   6.596 -1.2770  0.1908 -1.9800
  864MOL0     H16623  10.935   8.371   6.568 -0.8239 -0.2319 -0.1456
  864MOL0     H16624   9.594   8.297   6.968  2.2016 -0.8082  0.1206
  864MOL0     H16625   9.377   8.216   6.978 -0.2093  2.1925  0.7541
  864MOL0     H16626   9.104   7.993   7.347  1.8018  0.2523 -1.4099
  864MOL0     H16627   8.883   7.895   7.431 -0.9820 -1.4377 -0.8348
  864MOL0     H16628   8.479   7.787   7.275 -2.9793  2.1348 -0.8041
  864MOL0     H16629   8.559   7.844   7.120  0.5614  5.1662 -0.7931
  864MOL0     H16630   8.543   8.071   7.210  0.8480 -0.1797 -1.7261
  864MOL0     H16631   8.443   7.993   7.347 -0.3770  1.2824 -1.1323
  864MOL0     H16632   8.313   8.114   7.171  2.0991 -0.6998  0.0541
  864MOL0     H16633   8.258   7.942   7.220  0.3870 -1.3607 -1.6534
  864MOL0     H16634   8.359   7.843   7.031 -0.0636 -0.5998 -3.2198
  864MOL0     H16635   8.238   7.948   6.971 -0.1804 -2.6289 -0.1377
  864MOL0     H16636   8.567   8.166   6.833  0.5497 -0.2113  1.3213
  864MOL0     H16637   8.695   8.001   7.063 -0.5402 -4.7047  0.2802
  864MOL0     H16638   8.908   8.228   6.944 -1.8578  0.1945  2.3673
  864MOL0     H16639   8.948   8.063   6.881 -0.1349 -0.7951  0.5432
  864MOL0     H16640   8.778   8.121   6.909  0.3922 -0.1606 -1.2542
  865MOL0     O16641   1.669   8.176   6.997 -1.0534 -0.2210  0.7657
  865MOL0     C16642   1.687   8.120   7.099 -0.1274 -0.4796 -0.8410
  865MOL0     O16643   1.592   8.083   7.191  0.0461 -0.2885  0.9360
  865MOL0     C16644   1.464   8.114   7.150  0.1360  0.6952  0.6450
  865MOL0     C16645   1.411   8.230   7.203  0.0044 -0.9617 -0.1775
  865MOL0     C16646   1.283   8.265   7.178  0.0093 -0.4503  0.3809
  865MOL0     C16647   1.206   8.191   7.091 -0.2239 -0.1367 -0.0052
  865MOL0     O16648   1.076   8.236   7.064  0.7373 -0.0147 -0.3835
  865MOL0     C16649   1.012   8.202   6.939 -0.3686 -0.3708  0.1823
  865MOL0     C16650   1.082   8.282   6.825 -0.5284 -0.2765  0.0019
  865MOL0     C16651   1.014   8.252   6.695  0.2133 -0.4701 -0.2812
  865MOL0     C16652   1.079   8.321   6.577 -0.9020  0.2717 -0.3057
  865MOL0     C16653   1.035   8.245   6.455  0.1945 -0.5824  0.2956
  865MOL0     C16654   1.128   8.291   6.339  0.0810 -1.0442 -0.1819
  865MOL0     C16655   1.087   8.219   6.208  0.0806  0.5485 -0.4955
  865MOL0     C16656   1.185   8.256   6.094  0.0147 -0.2228 -0.7688
  865MOL0     N16657   1.328   8.259   6.123 -0.7758  0.5913 -0.5432
  865MOL0     C16658   1.412   8.361   6.149 -0.0356 -0.0811 -0.7443
  865MOL0     C16659   1.519   8.292   6.197 -0.1941 -0.1228 -0.6730
  865MOL0     C16660   1.645   8.361   6.227 -0.1858  0.5224 -0.9134
  865MOL0     C16661   1.618   8.443   6.348  0.3855  0.0615 -1.2147
  865MOL0     C16662   1.592   8.357   6.473 -0.6781  0.3507  0.4509
  865MOL0     C16663   1.727   8.298   6.514  0.0711 -0.0976 -0.6908
  865MOL0     O16664   1.840   8.388   6.543  0.8406  0.1308  0.1324
  865MOL0     C16665   1.950   8.338   6.605  0.2754  0.3265  0.2835
  865MOL0     C16666   2.055   8.422   6.625  0.0958 -0.0078 -0.7310
  865MOL0     C16667   2.175   8.377   6.700 -1.2230 -0.5575 -0.1484
  865MOL0     C16668   2.187   8.237   6.727  0.0335  0.6634 -0.0302
  865MOL0     C16669   2.302   8.173   6.792 -0.3377  0.5021 -0.1684
  865MOL0     O16670   2.408   8.256   6.828 -0.3153  0.2519 -0.3846
  865MOL0     C16671   2.514   8.208   6.901 -0.5364 -0.1436 -1.2132
  865MOL0     C16672   2.573   8.082   6.883  1.0478  0.2814  0.6244
  865MOL0     C16673   2.683   8.049   6.959 -0.8610  1.1090 -0.6011
  865MOL0     C16674   2.744   8.136   7.050 -0.0983  0.2275 -0.1887
  865MOL0     O16675   2.843   8.096   7.137  1.0429 -0.2418  0.0441
  865MOL0     C16676   2.973   8.086   7.081  0.5795 -0.1236  0.0744
  865MOL0     C16677   3.039   7.962   7.143  0.0559  0.1399  0.0446
  865MOL0     C16678   2.959   7.826   7.122 -1.0407  0.6274  0.2612
  865MOL0     C16679   3.018   7.705   7.196 -0.4043  1.3549  1.1337
  865MOL0     C16680   3.120   7.621   7.120  0.2580 -0.4157 -0.2486
  865MOL0     C16681   3.165   7.494   7.205  0.0632 -0.0479  0.3356
  865MOL0     C16682   3.240   7.404   7.104 -0.9269  0.2084 -0.2342
  865MOL0     C16683   3.379   7.458   7.071 -0.8715  0.8330 -0.4846
  865MOL0    Cl16684   3.452   7.342   6.962 -0.1583  0.3611 -0.1968
  865MOL0     C16685   2.678   8.259   7.072 -0.4983  0.2430 -0.4053
  865MOL0     C16686   2.562   8.288   7.000  0.2267  0.4892 -0.9797
  865MOL0     O16687   2.305   8.046   6.789  0.4980 -0.0352 -0.0429
  865MOL0     C16688   2.087   8.152   6.681 -0.1935 -0.6393  0.4490
  865MOL0     C16689   1.973   8.197   6.622 -0.2853 -0.4528 -0.6557
  865MOL0     N16690   1.515   8.160   6.181 -0.0319 -0.8590 -0.1249
  865MOL0     N16691   1.400   8.144   6.139  0.4905  0.2209  0.0960
  865MOL0     C16692   1.261   8.075   7.032  0.2424 -0.3920  0.1110
  865MOL0     C16693   1.394   8.038   7.062  0.6219 -0.5045 -0.4052
  865MOL0     C16694   1.827   8.090   7.142 -0.4694 -0.1217 -0.4153
  865MOL0     C16695   1.881   8.142   7.268  0.2985 -0.6657  0.0320
  865MOL0     C16696   2.011   8.132   7.305  0.0763  0.8859  1.0159
  865MOL0     C16697   2.097   8.077   7.216  0.0679 -0.3286  0.0771
  865MOL0     O16698   2.227   8.075   7.266  0.8887  0.1345 -0.5074
  865MOL0     C16699   2.326   8.017   7.181 -0.5566  0.3231  0.0932
  865MOL0     C16700   2.325   7.863   7.177 -0.4035 -0.1834 -0.4321
  865MOL0     C16701   2.426   7.810   7.071  0.5124  0.0374  0.8574
  865MOL0     C16702   2.360   7.680   7.016  0.1094  0.4833 -0.7252
  865MOL0     C16703   2.472   7.600   6.976 -0.4172 -0.0059 -0.0628
  865MOL0     C16704   2.573   7.544   6.946  0.5046 -0.0014 -0.0851
  865MOL0     C16705   2.060   8.021   7.092 -0.0636 -0.2463  0.0742
  865MOL0     C16706   1.927   8.043   7.054 -0.3477  0.1628 -0.5670
  865MOL0     C16707   1.888   8.005   6.914  0.3087 -0.0009  0.6452
  865MOL0     H16708   1.488   8.293   7.247  1.5391 -2.2107 -0.9658
  865MOL0     H16709   1.245   8.360   7.213 -1.2808 -1.2110  1.1620
  865MOL0     H16710   1.012   8.098   6.903 -2.1482  0.9303 -4.2232
  865MOL0     H16711   0.906   8.229   6.944 -0.1912  0.2478  0.7707
  865MOL0     H16712   1.184   8.245   6.818 -0.6304 -0.2725 -2.3542
  865MOL0     H16713   1.077   8.388   6.853 -1.2699  0.9690 -4.1180
  865MOL0     H16714   0.916   8.301   6.693 -1.5968 -3.7621  0.3142
  865MOL0     H16715   1.007   8.143   6.681 -2.3098 -0.4786  0.4413
  865MOL0     H16716   1.046   8.426   6.571  0.6632  0.7557 -0.8815
  865MOL0     H16717   1.188   8.314   6.578 -0.9927 -2.8151 -1.6185
  865MOL0     H16718   1.047   8.138   6.474  0.0092 -0.3324  1.9419
  865MOL0     H16719   0.934   8.281   6.434  0.4561  1.5365  2.2218
  865MOL0     H16720   1.119   8.400   6.340 -1.9586 -1.1203 -2.5885
  865MOL0     H16721   1.230   8.257   6.360  0.5499 -2.1003 -3.6543
  865MOL0     H16722   0.986   8.233   6.169  0.6906  0.3952 -2.2317
  865MOL0     H16723   1.106   8.115   6.236  0.7301  0.5766 -0.8120
  865MOL0     H16724   1.164   8.186   6.012 -2.1411 -0.9103  0.3107
  865MOL0     H16725   1.162   8.355   6.054 -3.1605 -0.4302  0.2691
  865MOL0     H16726   1.386   8.465   6.169 -0.5135 -0.0616 -1.4051
  865MOL0     H16727   1.723   8.286   6.241 -1.1755 -0.1568  1.5388
  865MOL0     H16728   1.680   8.419   6.141 -0.5340  0.7684 -0.8942
  865MOL0     H16729   1.695   8.517   6.371 -3.3803  3.4939  1.8233
  865MOL0     H16730   1.523   8.496   6.331  0.7264  0.8639 -0.6522
  865MOL0     H16731   1.515   8.281   6.455 -0.3134  0.3079 -1.0351
  865MOL0     H16732   1.564   8.419   6.558 -0.1256  2.5331 -0.8999
  865MOL0     H16733   1.760   8.229   6.435  3.8098 -0.6183  1.1013
  865MOL0     H16734   1.704   8.248   6.609 -3.7781  0.4943 -1.1827
  865MOL0     H16735   2.062   8.519   6.577  0.9084  1.4130  2.0568
  865MOL0     H16736   2.258   8.444   6.721  0.4140 -3.0704  1.9543
  865MOL0     H16737   2.534   8.013   6.809 -0.1588 -0.3545  1.8250
  865MOL0     H16738   2.731   7.952   6.962 -3.9335 -0.5604  2.5007
  865MOL0     H16739   2.970   8.095   6.972 -0.9065  3.3099  0.2632
  865MOL0     H16740   3.028   8.177   7.106  0.7971 -0.2292 -0.0241
  865MOL0     H16741   3.141   7.951   7.107 -0.3334 -1.0236 -0.7851
  865MOL0     H16742   3.044   7.983   7.251 -1.6274  1.6378 -0.1267
  865MOL0     H16743   2.856   7.834   7.157 -1.6665  1.1126 -1.5634
  865MOL0     H16744   2.964   7.799   7.016  3.0042 -2.1673  0.9427
  865MOL0     H16745   2.940   7.638   7.232  2.3971 -1.0432  3.2050
  865MOL0     H16746   3.060   7.751   7.286 -1.1710  1.3434  1.5008
  865MOL0     H16747   3.208   7.684   7.107  0.6370 -1.1645 -1.5156
  865MOL0     H16748   3.086   7.592   7.020 -1.3779  0.1313  0.1237
  865MOL0     H16749   3.230   7.527   7.287  0.2573 -1.0404  0.5892
  865MOL0     H16750   3.082   7.443   7.255  2.4030 -0.6334  3.9813
  865MOL0     H16751   3.176   7.404   7.016  1.0695  1.0680 -1.7454
  865MOL0     H16752   3.266   7.312   7.158  1.7589  1.3024  0.5467
  865MOL0     H16753   3.371   7.551   7.013  0.8461  1.2250 -0.1397
  865MOL0     H16754   3.443   7.472   7.158  0.3817 -0.5149 -1.1503
  865MOL0     H16755   2.728   8.331   7.135 -1.2773  0.8199 -0.4383
  865MOL0     H16756   2.519   8.388   6.994 -2.5854 -0.6540 -1.5085
  865MOL0     H16757   2.099   8.044   6.679 -0.5051 -0.6637 -1.9910
  865MOL0     H16758   1.890   8.127   6.616 -1.1111  0.4667 -0.1308
  865MOL0     H16759   1.203   8.022   6.957  0.7548 -0.2310 -0.4112
  865MOL0     H16760   1.431   7.945   7.019  0.5992 -0.3240 -0.8188
  865MOL0     H16761   1.834   8.201   7.346  1.0361 -4.1449  3.4287
  865MOL0     H16762   2.053   8.192   7.385 -0.8876  2.8639  0.0930
  865MOL0     H16763   2.421   8.032   7.233  0.2095 -2.0721 -0.4679
  865MOL0     H16764   2.329   8.066   7.084 -4.1786  2.9200  1.0588
  865MOL0     H16765   2.227   7.829   7.144 -0.7427 -1.3671  1.6498
  865MOL0     H16766   2.339   7.817   7.274  2.2360 -0.7097 -0.9836
  865MOL0     H16767   2.528   7.807   7.111  0.6995 -3.4318  0.4063
  865MOL0     H16768   2.433   7.876   6.985  2.1598  0.4955  1.2989
  865MOL0     H16769   2.303   7.622   7.089 -0.1111  2.1950  0.5379
  865MOL0     H16770   2.283   7.711   6.944 -1.6626 -0.6156  0.6079
  865MOL0     H16771   2.662   7.491   6.918  1.0390  0.9039 -0.1254
  865MOL0     H16772   2.136   7.978   7.028  2.0963  1.3554  1.4114
  865MOL0     H16773   1.784   7.972   6.910 -0.7675  3.0822 -2.3218
  865MOL0     H16774   1.883   8.094   6.851  0.4875 -1.6974 -1.9207
  865MOL0     H16775   1.965   7.936   6.878  3.2647  1.3821  3.7256
  866MOL0     O16776   9.427  10.223   7.223 -0.0015 -0.0075  0.3277
  866MOL0     C16777   9.536  10.180   7.255  0.5632  0.2749 -0.1551
  866MOL0     O16778   9.604  10.080   7.184  0.1722 -0.1041 -0.2867
  866MOL0     C16779   9.536  10.017   7.084 -0.7409  0.2500 -0.3814
  866MOL0     C16780   9.550  10.038   6.946 -0.1527  0.2998 -0.2037
  866MOL0     C16781   9.477   9.977   6.847  0.2032 -0.2333 -0.5924
  866MOL0     C16782   9.386   9.879   6.885  0.5272  0.2581  0.6653
  866MOL0     O16783   9.311   9.821   6.781 -0.2739 -0.2859 -0.6018
  866MOL0     C16784   9.190   9.756   6.822  0.8913  0.5884 -0.3474
  866MOL0     C16785   9.112   9.753   6.687  0.1077  0.4316 -0.2083
  866MOL0     C16786   8.996   9.648   6.697  0.6124 -0.2295 -0.0968
  866MOL0     C16787   8.868   9.705   6.777 -1.0633  0.1780  0.5625
  866MOL0     C16788   8.780   9.588   6.823 -0.6674  0.7779 -0.6657
  866MOL0     C16789   8.651   9.635   6.902 -0.2185 -0.1220  0.0302
  866MOL0     C16790   8.567   9.509   6.959  0.3989 -0.1318 -0.0230
  866MOL0     C16791   8.423   9.556   6.988  0.8134 -0.8586 -0.6927
  866MOL0     N16792   8.330   9.460   7.032  0.2130  0.3028 -0.2287
  866MOL0     C16793   8.297   9.433   7.166 -0.4313  0.5582  0.0967
  866MOL0     C16794   8.227   9.317   7.156  0.1752  0.8249 -0.1805
  866MOL0     C16795   8.168   9.240   7.278  0.0311 -0.1608  0.1779
  866MOL0     C16796   8.021   9.239   7.297  0.1350  0.3625 -0.4393
  866MOL0     C16797   7.975   9.387   7.307  0.3711  0.5540  0.5476
  866MOL0     C16798   7.832   9.405   7.347  0.2767  0.3530 -0.2152
  866MOL0     O16799   7.743   9.312   7.281 -0.3121 -0.5833  0.0134
  866MOL0     C16800   7.613   9.318   7.342  0.5802  0.1948  0.7127
  866MOL0     C16801   7.595   9.267   7.469 -0.6759  0.2538  0.7319
  866MOL0     C16802   7.472   9.278   7.534 -0.4767 -0.8229  0.4227
  866MOL0     C16803   7.362   9.332   7.458  1.2053 -0.5626  0.6605
  866MOL0     C16804   7.228   9.342   7.519  0.5823  0.1552 -0.3789
  866MOL0     O16805   7.144   9.436   7.466 -0.4416  0.4492 -0.3158
  866MOL0     C16806   7.014   9.446   7.509 -0.0367  1.1287  0.4180
  866MOL0     C16807   6.929   9.338   7.483  0.3377  0.4934 -0.0139
  866MOL0     C16808   6.800   9.338   7.530  0.3491 -0.1547 -0.4228
  866MOL0     C16809   6.745   9.453   7.598  0.4213 -0.1843  0.0371
  866MOL0     O16810   6.619   9.452   7.660  0.3912  0.3135  0.1932
  866MOL0     C16811   6.522   9.346   7.623 -0.4250 -0.1712 -0.6673
  866MOL0     C16812   6.391   9.405   7.685  0.6766  0.2089 -0.3659
  866MOL0     C16813   6.278   9.299   7.674  0.1315  0.1464  1.1228
  866MOL0     C16814   6.142   9.353   7.725 -0.7530  0.0801 -0.3984
  866MOL0     C16815   6.030   9.267   7.687  0.4908  0.2472  1.2783
  866MOL0     C16816   6.027   9.138   7.773 -0.8424 -0.4117 -0.7822
  866MOL0     C16817   5.914   9.048   7.728  0.4087 -0.4576 -1.4650
  866MOL0     C16818   5.869   8.953   7.837 -0.6991 -0.0229 -0.3644
  866MOL0    Cl16819   5.725   8.849   7.784  0.1076  0.4199 -0.0748
  866MOL0     C16820   6.824   9.567   7.615 -0.7102  0.1731 -0.3895
  866MOL0     C16821   6.958   9.564   7.573  0.0100  0.7660 -0.0602
  866MOL0     O16822   7.210   9.278   7.625  0.3631  0.3415 -0.2123
  866MOL0     C16823   7.381   9.369   7.323  0.3436 -0.1473 -0.4274
  866MOL0     C16824   7.501   9.361   7.265  0.0371 -0.6391 -0.8079
  866MOL0     N16825   8.209   9.281   7.023 -0.4665 -0.2416 -0.1124
  866MOL0     N16826   8.273   9.372   6.953  0.6272  0.8711  0.4636
  866MOL0     C16827   9.357   9.858   7.019 -0.4122  0.0520  0.1170
  866MOL0     C16828   9.433   9.932   7.119  0.3169 -0.8940  0.9217
  866MOL0     C16829   9.597  10.228   7.376  0.0334 -0.1330  0.3087
  866MOL0     C16830   9.591  10.369   7.395  0.0118 -0.0448 -0.6555
  866MOL0     C16831   9.653  10.421   7.503 -0.4543  0.3798 -1.1275
  866MOL0     C16832   9.728  10.342   7.588 -0.5156  0.4266 -0.8745
  866MOL0     O16833   9.805  10.395   7.685 -0.6464 -0.4433  0.9118
  866MOL0     C16834   9.785  10.536   7.727  0.0747  0.0540  0.2877
  866MOL0     C16835   9.860  10.547   7.855  0.1712 -0.0036 -0.0221
  866MOL0     C16836  10.008  10.555   7.849 -0.0196  0.5893 -0.1371
  866MOL0     C16837  10.062  10.532   7.988  0.7571  1.0818  0.0444
  866MOL0     C16838  10.205  10.541   7.995 -0.5188 -0.0598  0.1490
  866MOL0     C16839  10.321  10.557   7.986 -0.1489 -0.8737  0.6867
  866MOL0     C16840   9.732  10.203   7.572 -0.4811 -0.5288  0.6575
  866MOL0     C16841   9.674  10.139   7.456 -0.0470 -0.5773 -0.4684
  866MOL0     C16842   9.685   9.992   7.446 -1.0894 -0.7257 -0.3574
  866MOL0     H16843   9.621  10.115   6.916 -1.3407  1.2166 -0.7825
  866MOL0     H16844   9.472  10.016   6.745 -1.1448  1.9158  0.2360
  866MOL0     H16845   9.203   9.656   6.864 -2.0325  0.2357 -0.1061
  866MOL0     H16846   9.127   9.819   6.885 -1.1964  0.5792 -2.2954
  866MOL0     H16847   9.166   9.716   6.599  0.0683  1.5963 -0.7366
  866MOL0     H16848   9.078   9.854   6.665 -1.1107 -0.2008 -1.3606
  866MOL0     H16849   9.033   9.558   6.748 -0.8263 -0.6933  0.1869
  866MOL0     H16850   8.958   9.624   6.598  0.2071  1.2065 -0.3013
  866MOL0     H16851   8.879   9.754   6.874 -2.0850  0.9299  0.3149
  866MOL0     H16852   8.816   9.776   6.712  0.7020 -0.1088 -1.2483
  866MOL0     H16853   8.753   9.522   6.740 -2.9902 -1.2780  1.5552
  866MOL0     H16854   8.836   9.525   6.892 -1.4395  1.0325  0.2048
  866MOL0     H16855   8.689   9.684   6.992  0.6824  1.2863 -1.0650
  866MOL0     H16856   8.582   9.696   6.844 -0.3442 -1.9827 -1.9063
  866MOL0     H16857   8.607   9.471   7.053  1.0562 -2.9652 -1.3494
  866MOL0     H16858   8.560   9.427   6.887  0.7983 -0.4166  0.2624
  866MOL0     H16859   8.426   9.634   7.064 -0.3702  0.6486 -2.1101
  866MOL0     H16860   8.395   9.607   6.895  0.5275 -3.2750 -2.0077
  866MOL0     H16861   8.309   9.493   7.256 -1.1522  3.2821 -1.5275
  866MOL0     H16862   8.196   9.138   7.252 -0.7327 -1.5697  4.1668
  866MOL0     H16863   8.213   9.271   7.373  2.0732 -1.9828 -0.1222
  866MOL0     H16864   7.970   9.186   7.216  2.8634 -0.2034 -1.9225
  866MOL0     H16865   8.001   9.180   7.387 -1.0962  1.0311 -0.2610
  866MOL0     H16866   7.981   9.432   7.207 -1.6414 -0.3533 -0.0498
  866MOL0     H16867   8.043   9.437   7.376  2.2542 -0.6863 -0.3433
  866MOL0     H16868   7.800   9.507   7.324 -1.6503 -0.9867 -4.5180
  866MOL0     H16869   7.831   9.378   7.453 -2.8281  0.0669 -0.2324
  866MOL0     H16870   7.677   9.222   7.523  0.1107 -1.3064 -1.5949
  866MOL0     H16871   7.457   9.252   7.639  1.6731  1.0555  1.2734
  866MOL0     H16872   6.975   9.251   7.436  1.4421 -0.1539  2.1152
  866MOL0     H16873   6.743   9.247   7.513  2.1179 -1.2255 -0.8560
  866MOL0     H16874   6.510   9.333   7.515  2.4181 -1.8843 -0.8722
  866MOL0     H16875   6.544   9.249   7.669  0.3562 -0.1251 -0.9241
  866MOL0     H16876   6.402   9.433   7.791 -0.2273  1.5151 -0.5973
  866MOL0     H16877   6.359   9.491   7.626 -0.2970 -0.8135 -1.3828
  866MOL0     H16878   6.256   9.273   7.570  0.2231  1.4054  0.7718
  866MOL0     H16879   6.301   9.201   7.718  2.8147  0.1654 -0.0505
  866MOL0     H16880   6.139   9.456   7.688  3.4189  1.2030  1.6641
  866MOL0     H16881   6.153   9.364   7.834  0.5114  0.8647 -0.5763
  866MOL0     H16882   6.029   9.255   7.578 -2.7058 -1.1583  1.3654
  866MOL0     H16883   5.934   9.316   7.706 -0.4710 -1.6972  1.6143
  866MOL0     H16884   6.123   9.085   7.765 -0.0534  1.1316 -2.0171
  866MOL0     H16885   6.004   9.168   7.875 -3.5756 -1.3383 -1.0337
  866MOL0     H16886   5.943   8.992   7.639 -0.2332 -3.1741 -0.0514
  866MOL0     H16887   5.829   9.111   7.701 -0.2230  0.2794  1.7597
  866MOL0     H16888   5.948   8.885   7.873 -2.7239 -2.1162  0.4066
  866MOL0     H16889   5.841   9.018   7.920 -0.0591  0.3023 -0.3976
  866MOL0     H16890   6.778   9.646   7.675 -0.3581 -0.5378  0.8638
  866MOL0     H16891   7.019   9.650   7.595  1.8864 -0.7686  1.0532
  866MOL0     H16892   7.301   9.414   7.266 -1.7247 -0.8643  1.7248
  866MOL0     H16893   7.525   9.390   7.163  1.7473 -1.2944 -0.6143
  866MOL0     H16894   9.283   9.785   7.051  0.9108 -0.6754  1.6544
  866MOL0     H16895   9.426   9.898   7.222  0.2932 -3.2799  0.2004
  866MOL0     H16896   9.534  10.434   7.330  1.6616  1.2231 -0.8934
  866MOL0     H16897   9.653  10.529   7.514 -0.9069  0.2464  0.5273
  866MOL0     H16898   9.678  10.554   7.743 -0.4756 -1.2378 -1.6735
  866MOL0     H16899   9.839  10.596   7.653  0.7953  1.5107  1.9027
  866MOL0     H16900   9.814  10.464   7.910 -4.1898  0.7881 -2.0172
  866MOL0     H16901   9.825  10.637   7.906  0.6136 -0.6727  1.5555
  866MOL0     H16902  10.032  10.652   7.804  0.0989 -0.1220 -1.6661
  866MOL0     H16903  10.049  10.473   7.789 -0.7298  0.4970 -0.5117
  866MOL0     H16904  10.010  10.593   8.063 -2.7867  0.6425 -1.8318
  866MOL0     H16905  10.043  10.425   8.005  0.0467  1.0674 -0.7772
  866MOL0     H16906  10.427  10.568   7.978 -0.1204 -1.6508 -0.2087
  866MOL0     H16907   9.776  10.133   7.643 -0.3302 -0.4693  0.6226
  866MOL0     H16908   9.720   9.956   7.543 -3.2876  3.4403  2.2580
  866MOL0     H16909   9.584   9.951   7.434 -0.6868 -1.4485 -1.4911
  866MOL0     H16910   9.754   9.969   7.364 -2.1950 -0.6435 -1.3391
  867MOL0     O16911   4.241   5.037   2.645 -0.0749 -0.0682 -0.2383
  867MOL0     C16912   4.351   5.069   2.598  0.3852 -0.6165 -0.9465
  867MOL0     O16913   4.474   5.024   2.649 -0.2425 -0.0483 -0.0943
  867MOL0     C16914   4.489   4.973   2.772  0.8577  0.2481  0.1987
  867MOL0     C16915   4.588   5.025   2.856 -0.3579 -0.1890  0.0186
  867MOL0     C16916   4.611   4.964   2.981  0.6608 -0.0685 -1.0021
  867MOL0     C16917   4.543   4.852   3.026  0.3701 -0.1045  0.3976
  867MOL0     O16918   4.587   4.790   3.145  0.7294 -0.1649 -0.3326
  867MOL0     C16919   4.611   4.644   3.140  0.1546  0.4587 -0.1077
  867MOL0     C16920   4.742   4.596   3.087  0.3570  0.9039 -0.0318
  867MOL0     C16921   4.868   4.636   3.165 -0.6918  0.3023  0.7246
  867MOL0     C16922   4.992   4.560   3.115 -0.1827  0.2833 -0.0119
  867MOL0     C16923   5.127   4.601   3.187  0.3615  0.3744  0.5783
  867MOL0     C16924   5.227   4.485   3.184  0.6555 -0.1029  0.1491
  867MOL0     C16925   5.367   4.514   3.230 -0.5224 -0.3080 -0.4398
  867MOL0     C16926   5.454   4.395   3.227 -0.4973  0.0862  0.3884
  867MOL0     N16927   5.581   4.427   3.295  0.3983 -0.1866  0.7816
  867MOL0     C16928   5.683   4.511   3.251  0.0870  0.1078  0.5380
  867MOL0     C16929   5.776   4.517   3.352  0.7456  0.0497  0.7651
  867MOL0     C16930   5.903   4.594   3.361  0.5333  0.3725 -0.2181
  867MOL0     C16931   6.028   4.512   3.350 -0.3453 -0.5102  0.0509
  867MOL0     C16932   6.148   4.600   3.388 -1.5181  0.8940 -1.0022
  867MOL0     C16933   6.278   4.518   3.358 -0.5206 -0.0320 -1.1100
  867MOL0     O16934   6.382   4.605   3.399 -0.0663 -0.0827 -0.7844
  867MOL0     C16935   6.511   4.574   3.357  0.0480  0.1980  0.5251
  867MOL0     C16936   6.597   4.681   3.344  0.0594  0.4986 -0.2112
  867MOL0     C16937   6.727   4.666   3.294  0.0528 -0.3721 -0.3668
  867MOL0     C16938   6.780   4.536   3.267 -1.0055  0.6197 -0.5645
  867MOL0     C16939   6.929   4.523   3.246  0.4449 -0.1494  0.5418
  867MOL0     O16940   7.008   4.623   3.300  0.2473 -0.1761  0.3416
  867MOL0     C16941   7.148   4.635   3.272  0.1694  0.9009 -0.6247
  867MOL0     C16942   7.236   4.685   3.369  0.0033 -0.2485 -0.6025
  867MOL0     C16943   7.370   4.696   3.348  0.9516  0.6894 -0.1430
  867MOL0     C16944   7.427   4.672   3.221 -0.6886 -0.4526 -0.0974
  867MOL0     O16945   7.559   4.713   3.198 -0.8514 -0.2871  0.8915
  867MOL0     C16946   7.565   4.832   3.107 -0.4864  0.5907 -0.4837
  867MOL0     C16947   7.712   4.887   3.122 -0.8893 -0.1017  0.0541
  867MOL0     C16948   7.831   4.802   3.068  0.7390  0.1352 -0.4999
  867MOL0     C16949   7.955   4.875   3.117  0.1383  0.1746 -0.0886
  867MOL0     C16950   8.086   4.799   3.092  0.3973 -0.4855 -0.6136
  867MOL0     C16951   8.168   4.861   2.970  1.2507 -0.3209 -0.6747
  867MOL0     C16952   8.296   4.793   2.952  0.4910  0.7298  0.6065
  867MOL0     C16953   8.288   4.643   2.913  0.4994  0.1262  0.2241
  867MOL0    Cl16954   8.457   4.597   2.863 -0.1405 -0.3223 -0.0289
  867MOL0     C16955   7.340   4.630   3.118  0.0603  0.5726  0.4932
  867MOL0     C16956   7.199   4.608   3.146 -0.1944 -0.0626  0.4647
  867MOL0     O16957   6.962   4.431   3.176 -0.0918  0.2865 -0.1763
  867MOL0     C16958   6.691   4.421   3.281 -0.0323 -0.3966  0.1147
  867MOL0     C16959   6.567   4.447   3.330  1.0998 -0.5553 -0.5006
  867MOL0     N16960   5.730   4.435   3.454 -0.0006  0.0362 -0.1589
  867MOL0     N16961   5.618   4.381   3.418 -0.0449  0.4476  0.4233
  867MOL0     C16962   4.440   4.807   2.947 -0.2706  0.4526  0.4236
  867MOL0     C16963   4.406   4.866   2.821 -0.5602 -0.4514 -1.0320
  867MOL0     C16964   4.332   5.183   2.501 -0.4403 -0.8054  0.5803
  867MOL0     C16965   4.219   5.260   2.508 -0.3401  0.1232  0.1159
  867MOL0     C16966   4.191   5.363   2.420 -0.3242 -0.5494  0.7069
  867MOL0     C16967   4.287   5.401   2.328  0.3712  0.1523  1.1688
  867MOL0     O16968   4.252   5.504   2.241  0.0590 -0.1593  0.0480
  867MOL0     C16969   4.349   5.569   2.153  0.1275  0.1914  0.4787
  867MOL0     C16970   4.448   5.660   2.225  0.8870 -0.0990  0.2397
  867MOL0     C16971   4.554   5.720   2.141  0.1210 -0.1413  0.5873
  867MOL0     C16972   4.654   5.621   2.081 -0.1127  0.2994 -0.0669
  867MOL0     C16973   4.718   5.547   2.186 -0.7859  0.4016 -0.1378
  867MOL0     C16974   4.758   5.466   2.266 -0.0863  0.2430  0.7027
  867MOL0     C16975   4.406   5.328   2.317 -0.1441  1.0308 -1.3636
  867MOL0     C16976   4.433   5.223   2.405 -0.2818  0.7811 -0.4297
  867MOL0     C16977   4.567   5.161   2.390 -0.1479 -0.1658  0.0944
  867MOL0     H16978   4.652   5.107   2.826 -0.6206  0.3884  0.9937
  867MOL0     H16979   4.680   5.009   3.052 -0.6765 -0.5988  0.6980
  867MOL0     H16980   4.597   4.589   3.233  2.9404 -0.1038  0.0577
  867MOL0     H16981   4.541   4.593   3.072  2.6413 -0.1579 -2.3425
  867MOL0     H16982   4.746   4.628   2.983  0.1756  0.8264 -0.0619
  867MOL0     H16983   4.738   4.487   3.083  0.2893  0.8964  0.2003
  867MOL0     H16984   4.858   4.623   3.274  0.1551 -0.9527  0.6679
  867MOL0     H16985   4.882   4.744   3.154  1.3965  0.7492  5.3147
  867MOL0     H16986   4.972   4.458   3.149  1.1257 -0.6467 -1.8184
  867MOL0     H16987   4.984   4.554   3.006 -0.6601 -0.5980  0.0638
  867MOL0     H16988   5.175   4.686   3.137  0.0187 -0.3466 -1.0090
  867MOL0     H16989   5.114   4.617   3.295  0.5614 -2.2893  1.0597
  867MOL0     H16990   5.185   4.402   3.240  1.0823 -0.4436 -0.0294
  867MOL0     H16991   5.242   4.450   3.081  3.3296  0.2619  0.3592
  867MOL0     H16992   5.359   4.559   3.329  1.2412  1.1439 -0.9044
  867MOL0     H16993   5.410   4.593   3.168 -0.8267 -0.3133 -0.6599
  867MOL0     H16994   5.409   4.315   3.286 -0.2653  0.7457  1.4919
  867MOL0     H16995   5.466   4.366   3.122 -2.4045 -0.1059  0.1911
  867MOL0     H16996   5.687   4.567   3.158 -0.2688 -1.0139 -0.1853
  867MOL0     H16997   5.902   4.666   3.279  2.5004  1.2364  0.4571
  867MOL0     H16998   5.912   4.636   3.461  2.7426 -1.6876  0.5493
  867MOL0     H16999   6.024   4.414   3.399 -0.5422 -0.1331  0.8160
  867MOL0     H17000   6.042   4.483   3.246 -0.7547  1.5177 -0.6087
  867MOL0     H17001   6.140   4.634   3.491 -0.3367 -2.1473  0.2346
  867MOL0     H17002   6.138   4.684   3.319 -0.8890 -0.4692 -2.8476
  867MOL0     H17003   6.287   4.505   3.250  0.6906 -1.0175 -0.9059
  867MOL0     H17004   6.280   4.422   3.410  0.1153  0.7019  0.2887
  867MOL0     H17005   6.573   4.782   3.376  1.0128  0.1396  1.8107
  867MOL0     H17006   6.795   4.750   3.288 -3.9086  3.3524  1.3004
  867MOL0     H17007   7.189   4.697   3.467  2.1641 -3.0502  0.9387
  867MOL0     H17008   7.441   4.720   3.426 -0.6988  0.0518  1.6266
  867MOL0     H17009   7.543   4.802   3.004  1.3941 -2.1281 -0.1931
  867MOL0     H17010   7.498   4.907   3.149 -2.9027 -1.2500 -0.8223
  867MOL0     H17011   7.709   4.979   3.063 -0.5172  0.8047  1.3929
  867MOL0     H17012   7.726   4.905   3.229  0.9677 -2.1055  0.2076
  867MOL0     H17013   7.852   4.700   3.104 -1.0261  0.2623  1.0657
  867MOL0     H17014   7.824   4.803   2.959  0.3231  0.6144 -0.4692
  867MOL0     H17015   7.944   4.891   3.225 -0.3379 -0.4528 -0.0364
  867MOL0     H17016   7.967   4.973   3.071 -2.6463  1.7544  2.2585
  867MOL0     H17017   8.062   4.694   3.070 -1.0426  0.2013 -2.5223
  867MOL0     H17018   8.153   4.803   3.179  1.4046  0.3762 -1.3996
  867MOL0     H17019   8.116   4.859   2.874  1.3486 -2.1876 -0.7242
  867MOL0     H17020   8.194   4.963   2.998  1.8175 -0.3837 -0.9558
  867MOL0     H17021   8.360   4.812   3.039 -0.0997 -0.4348  1.3289
  867MOL0     H17022   8.349   4.836   2.866 -2.9585 -1.4962 -2.9719
  867MOL0     H17023   8.251   4.576   2.991 -1.5792 -0.5596 -1.2591
  867MOL0     H17024   8.217   4.638   2.830 -1.1056 -0.6090  1.5864
  867MOL0     H17025   7.378   4.596   3.022 -1.7622 -1.8354  0.5229
  867MOL0     H17026   7.145   4.563   3.063 -0.4391 -1.2294  1.2430
  867MOL0     H17027   6.725   4.318   3.282  1.7592  0.0730  3.5927
  867MOL0     H17028   6.498   4.368   3.357 -0.2288  1.2440  1.7050
  867MOL0     H17029   4.386   4.722   2.987 -1.1294  0.7194 -0.1355
  867MOL0     H17030   4.323   4.824   2.764 -2.5528  1.0178  0.6559
  867MOL0     H17031   4.133   5.244   2.572 -1.2186  4.8446  0.5126
  867MOL0     H17032   4.092   5.408   2.417 -0.9528 -1.9080  0.1256
  867MOL0     H17033   4.295   5.629   2.079  2.6750  0.3444 -1.3833
  867MOL0     H17034   4.396   5.486   2.098  0.5848 -1.9673  3.8305
  867MOL0     H17035   4.488   5.612   2.314 -1.7947 -1.4724  0.7906
  867MOL0     H17036   4.385   5.742   2.260  1.8996 -0.9755  4.7379
  867MOL0     H17037   4.595   5.805   2.196 -2.9636  1.3496  0.8253
  867MOL0     H17038   4.512   5.767   2.051  1.3253 -1.3499 -0.6656
  867MOL0     H17039   4.594   5.559   2.014  0.3336  2.1012 -2.2461
  867MOL0     H17040   4.727   5.666   2.013  1.5699 -0.8040  0.9326
  867MOL0     H17041   4.786   5.400   2.346 -0.1186  0.4808  0.9112
  867MOL0     H17042   4.491   5.350   2.254  2.2426  1.4750  1.7454
  867MOL0     H17043   4.641   5.214   2.329  1.1286 -0.9998  0.8721
  867MOL0     H17044   4.618   5.142   2.485 -0.1868  1.3446  0.4452
  867MOL0     H17045   4.552   5.063   2.344  1.9362 -0.0594 -0.8952
  868MOL0     O17046   9.856   8.558   3.894 -0.0112  0.0119 -0.6170
  868MOL0     C17047   9.825   8.531   4.009  0.4190 -0.4955 -0.3858
  868MOL0     O17048   9.911   8.493   4.107  0.1172  0.2539 -0.2214
  868MOL0     C17049  10.043   8.506   4.080 -0.6069 -0.1725 -0.4302
  868MOL0     C17050  10.109   8.625   4.099  0.6351 -0.5358  0.4168
  868MOL0     C17051  10.240   8.638   4.064  0.7887 -0.6908  0.2123
  868MOL0     C17052  10.313   8.525   4.014  1.6081 -0.2256 -0.0631
  868MOL0     O17053  10.448   8.547   4.007 -0.3295  0.4155  1.0196
  868MOL0     C17054  10.527   8.447   3.945  0.0032 -0.0656 -0.1663
  868MOL0     C17055  10.669   8.492   3.963 -0.6209 -0.4516 -0.1876
  868MOL0     C17056  10.710   8.617   3.873 -0.8911  0.4485 -0.2252
  868MOL0     C17057  10.819   8.711   3.941 -0.7266 -0.3606 -0.0774
  868MOL0     C17058  10.946   8.640   3.939 -0.0514  0.0858  0.2729
  868MOL0     C17059  11.063   8.722   3.999 -0.8385 -0.3873 -0.6808
  868MOL0     C17060  11.190   8.644   3.981 -0.7296  0.3392  0.3438
  868MOL0     C17061  11.251   8.598   4.113 -0.5886  0.1233  0.1642
  868MOL0     N17062  11.393   8.552   4.092 -0.1627  0.0244  0.2988
  868MOL0     C17063  11.496   8.624   4.039 -0.4432 -0.4875 -0.0092
  868MOL0     C17064  11.589   8.537   3.999 -0.1941  0.0448 -0.6903
  868MOL0     C17065  11.711   8.563   3.922  0.3633  0.5956  0.3910
  868MOL0     C17066  11.838   8.605   4.005 -0.6749 -0.5661  1.3002
  868MOL0     C17067  11.884   8.508   4.101  0.6550  0.1160 -0.8123
  868MOL0     C17068  12.024   8.535   4.164  0.5204 -0.0782  0.2990
  868MOL0     O17069  12.080   8.411   4.215 -0.1855  0.1645 -0.2496
  868MOL0     C17070  12.216   8.410   4.236  0.2940 -0.2192  0.4244
  868MOL0     C17071  12.297   8.522   4.257 -0.8442 -0.4664 -0.2048
  868MOL0     C17072  12.439   8.498   4.271 -0.0813 -0.3138  0.7365
  868MOL0     C17073  12.501   8.369   4.277 -0.8137  0.9022 -0.3934
  868MOL0     C17074  12.649   8.349   4.286 -0.8108  0.1341 -0.1161
  868MOL0     O17075  12.729   8.468   4.277 -0.6497 -0.4401 -0.3338
  868MOL0     C17076  12.865   8.476   4.259  0.0424 -0.3042  0.0965
  868MOL0     C17077  12.942   8.377   4.202  0.8562  0.6957  0.7287
  868MOL0     C17078  13.075   8.402   4.161 -0.2678 -0.3720 -0.4986
  868MOL0     C17079  13.132   8.526   4.185 -0.5163  0.7183  0.0401
  868MOL0     O17080  13.257   8.568   4.143 -0.0092  0.1129 -0.3057
  868MOL0     C17081  13.315   8.516   4.027 -0.7203  0.1042  0.0501
  868MOL0     C17082  13.428   8.617   3.994  0.0310  0.4134 -0.3911
  868MOL0     C17083  13.531   8.640   4.090  0.3179 -0.0667 -0.5590
  868MOL0     C17084  13.613   8.763   4.051 -0.6849  0.2733  0.1264
  868MOL0     C17085  13.722   8.783   4.150 -0.5018 -0.6396  0.4969
  868MOL0     C17086  13.810   8.900   4.122  0.0162 -0.3369  0.3357
  868MOL0     C17087  13.892   8.915   4.255  0.3124  0.2312  0.5604
  868MOL0     C17088  13.987   9.039   4.242  0.1840  0.4420 -0.3365
  868MOL0    Cl17089  14.116   9.017   4.109  0.2241 -0.0413 -0.2099
  868MOL0     C17090  13.061   8.616   4.252 -0.1383  0.0061 -0.0051
  868MOL0     C17091  12.932   8.592   4.297  0.2131  0.0266  0.4064
  868MOL0     O17092  12.690   8.236   4.303 -0.2137 -0.6815  0.0142
  868MOL0     C17093  12.408   8.262   4.261 -0.7956  0.3332  0.0118
  868MOL0     C17094  12.272   8.291   4.237 -0.6190 -0.9720 -0.2872
  868MOL0     N17095  11.541   8.406   4.024 -0.2415 -0.0481  0.1325
  868MOL0     N17096  11.431   8.423   4.087  0.9990 -0.8369  0.2048
  868MOL0     C17097  10.248   8.396   4.000  0.6439 -0.1797  0.0860
  868MOL0     C17098  10.104   8.391   4.034 -1.0149  0.4518  0.5825
  868MOL0     C17099   9.687   8.568   4.046  0.4292 -0.5755  0.6541
  868MOL0     C17100   9.595   8.577   3.939 -0.2965 -0.4084 -0.6493
  868MOL0     C17101   9.473   8.629   3.961  0.7358 -0.2094  0.2878
  868MOL0     C17102   9.427   8.664   4.093  0.3209  0.2035  0.7251
  868MOL0     O17103   9.303   8.712   4.125  0.6309  0.1544  0.8565
  868MOL0     C17104   9.233   8.816   4.049 -0.7696  0.0869 -0.2622
  868MOL0     C17105   9.141   8.746   3.946  0.0994 -0.3774  0.6826
  868MOL0     C17106   9.077   8.843   3.837  0.5541 -0.0907  0.4141
  868MOL0     C17107   9.035   8.762   3.708  0.0440  1.3783 -1.1674
  868MOL0     C17108   8.944   8.843   3.614 -0.1721 -0.3048  0.9057
  868MOL0     C17109   8.856   8.881   3.534 -0.2216 -0.4382 -1.0158
  868MOL0     C17110   9.513   8.636   4.200  0.5920 -0.7585 -0.3422
  868MOL0     C17111   9.639   8.589   4.183 -0.2108  0.1549  0.5501
  868MOL0     C17112   9.716   8.572   4.314  0.2473 -0.3494 -0.3297
  868MOL0     H17113  10.057   8.708   4.146 -0.2856 -1.1832  0.5563
  868MOL0     H17114  10.295   8.731   4.068  0.2832 -0.4099  0.6605
  868MOL0     H17115  10.519   8.345   3.984 -2.2119  0.4767  1.0036
  868MOL0     H17116  10.518   8.439   3.836  1.3680 -4.0604 -0.1261
  868MOL0     H17117  10.736   8.406   3.961  0.2303  0.1417  1.0716
  868MOL0     H17118  10.690   8.525   4.065  0.1053  1.7326 -0.9949
  868MOL0     H17119  10.630   8.690   3.863 -0.6749  1.3856  3.4107
  868MOL0     H17120  10.735   8.589   3.770 -0.2131  1.2644 -0.2985
  868MOL0     H17121  10.830   8.803   3.882  0.4997 -0.1518  0.4508
  868MOL0     H17122  10.800   8.736   4.046  1.2661  1.0165  0.0220
  868MOL0     H17123  10.927   8.543   3.985 -1.4408  0.4890  0.6072
  868MOL0     H17124  10.980   8.614   3.838  0.4118  0.5818  0.2944
  868MOL0     H17125  11.057   8.824   3.961 -1.7186  0.8165  2.3489
  868MOL0     H17126  11.055   8.733   4.108  0.4863  0.4699 -0.6460
  868MOL0     H17127  11.263   8.705   3.927 -2.2996  2.2272  0.2534
  868MOL0     H17128  11.173   8.562   3.911 -1.3406  3.0845 -2.9780
  868MOL0     H17129  11.269   8.677   4.186 -0.2495  0.6904 -0.5214
  868MOL0     H17130  11.191   8.517   4.155 -0.3220 -1.0173 -1.5512
  868MOL0     H17131  11.495   8.732   4.028  1.2660 -0.3384  0.9322
  868MOL0     H17132  11.732   8.466   3.876  1.2841  0.4793  1.0383
  868MOL0     H17133  11.695   8.637   3.843 -2.2893  1.2718  1.4416
  868MOL0     H17134  11.917   8.616   3.930 -0.9504  1.2870  1.2472
  868MOL0     H17135  11.822   8.704   4.048  1.3180 -1.2324  3.8140
  868MOL0     H17136  11.887   8.410   4.053  0.8143 -2.0886  3.2373
  868MOL0     H17137  11.819   8.505   4.190  0.5573  1.4196 -0.8238
  868MOL0     H17138  12.014   8.610   4.243 -1.1049  1.5148 -1.3167
  868MOL0     H17139  12.088   8.585   4.091 -1.6957  1.8810 -0.4377
  868MOL0     H17140  12.260   8.623   4.272 -0.5173 -0.5228  1.0813
  868MOL0     H17141  12.497   8.590   4.269  1.3159 -1.1411 -1.9715
  868MOL0     H17142  12.887   8.293   4.161  0.4851  1.1145  0.3529
  868MOL0     H17143  13.134   8.337   4.097  0.7031 -0.3504  0.3453
  868MOL0     H17144  13.352   8.414   4.042 -0.6538 -0.0240 -0.8864
  868MOL0     H17145  13.232   8.517   3.955 -1.6240  1.4230  1.0626
  868MOL0     H17146  13.477   8.585   3.901 -1.4182 -3.4912 -0.0295
  868MOL0     H17147  13.379   8.709   3.963 -1.2438 -1.2916 -4.0600
  868MOL0     H17148  13.480   8.662   4.184  1.4386  1.4286 -0.2665
  868MOL0     H17149  13.601   8.556   4.100  2.8408  1.9517 -0.1878
  868MOL0     H17150  13.549   8.851   4.051  0.5929  1.2499 -1.2995
  868MOL0     H17151  13.665   8.740   3.958  2.2536 -1.1787  1.9666
  868MOL0     H17152  13.787   8.695   4.148  1.4732  0.5886  3.0976
  868MOL0     H17153  13.685   8.784   4.253  0.4042  0.6866  0.8319
  868MOL0     H17154  13.878   8.885   4.037 -1.7075 -1.9891 -0.8568
  868MOL0     H17155  13.743   8.979   4.088  0.3361 -1.5233 -3.5864
  868MOL0     H17156  13.955   8.828   4.277 -1.2592 -0.6589  1.7475
  868MOL0     H17157  13.821   8.928   4.337 -0.3023 -1.4835  0.3279
  868MOL0     H17158  13.919   9.124   4.227 -1.4418 -1.0449 -2.0786
  868MOL0     H17159  14.054   9.050   4.327 -1.5267  1.4557  0.9279
  868MOL0     H17160  13.105   8.713   4.272 -0.5300  0.1430  0.2040
  868MOL0     H17161  12.874   8.673   4.342 -2.2438 -0.4509 -1.6578
  868MOL0     H17162  12.431   8.156   4.266 -0.4658  0.4262  0.4648
  868MOL0     H17163  12.203   8.210   4.218 -1.5086 -1.4149  3.9235
  868MOL0     H17164  10.302   8.310   3.961  1.6912 -1.0387  3.1445
  868MOL0     H17165  10.041   8.303   4.026 -0.3350  0.0768 -0.9849
  868MOL0     H17166   9.628   8.563   3.836 -1.1485  1.1890 -1.1785
  868MOL0     H17167   9.422   8.655   3.869  1.3519 -2.8549 -0.9092
  868MOL0     H17168   9.306   8.876   3.993 -1.2625 -0.0699 -1.0806
  868MOL0     H17169   9.187   8.890   4.116  1.5971  0.9853  0.5001
  868MOL0     H17170   9.057   8.709   4.004 -0.4852 -0.6737 -0.3344
  868MOL0     H17171   9.191   8.662   3.897 -2.6089 -0.4997 -2.1360
  868MOL0     H17172   9.155   8.913   3.806  1.4544 -1.0995  0.3181
  868MOL0     H17173   8.996   8.893   3.891 -1.7550 -0.8802 -2.0494
  868MOL0     H17174   9.116   8.739   3.638  1.0822  2.1972 -0.2735
  868MOL0     H17175   8.992   8.667   3.739  1.8548  1.1654  0.9687
  868MOL0     H17176   8.780   8.906   3.463 -0.4381  0.1916 -0.5692
  868MOL0     H17177   9.479   8.667   4.298  0.4188 -0.0342 -0.6209
  868MOL0     H17178   9.771   8.478   4.318  0.8410  0.0323  1.8144
  868MOL0     H17179   9.796   8.646   4.322  1.5803 -1.7802 -0.0589
  868MOL0     H17180   9.648   8.593   4.398 -0.8362  2.5799 -1.7722
  869MOL0     O17181   1.598   0.207   3.903 -0.0466  0.3670 -0.4367
  869MOL0     C17182   1.517   0.295   3.934  0.0875 -0.9212 -0.4905
  869MOL0     O17183   1.545   0.397   4.026  0.3716  0.4593  0.0133
  869MOL0     C17184   1.661   0.385   4.101  0.1377  0.3998 -0.7991
  869MOL0     C17185   1.694   0.271   4.179 -0.4527  0.1519  0.2821
  869MOL0     C17186   1.806   0.273   4.266  0.1162  0.7122  0.3802
  869MOL0     C17187   1.884   0.385   4.273  0.0499 -0.5506  0.1071
  869MOL0     O17188   1.987   0.385   4.367  0.1109  0.3693  0.5333
  869MOL0     C17189   2.118   0.425   4.319  0.1427 -0.2871 -1.0863
  869MOL0     C17190   2.173   0.319   4.228 -0.6063  0.4791  0.3453
  869MOL0     C17191   2.327   0.326   4.204  0.5540 -0.2214 -0.1976
  869MOL0     C17192   2.408   0.219   4.274 -1.0039 -0.1130 -0.2043
  869MOL0     C17193   2.562   0.219   4.235  0.2077 -0.9413 -1.1420
  869MOL0     C17194   2.639   0.125   4.324 -0.0301  0.4566  0.1067
  869MOL0     C17195   2.791   0.134   4.310 -0.4777 -0.0982  0.3217
  869MOL0     C17196   2.843   0.131   4.165 -0.5069  0.4492  0.6816
  869MOL0     N17197   2.992   0.126   4.155  0.0170 -0.0719  0.3829
  869MOL0     C17198   3.087   0.217   4.202 -0.3413  0.3128 -0.3941
  869MOL0     C17199   3.207   0.179   4.148 -0.0165  0.7836  0.3632
  869MOL0     C17200   3.332   0.251   4.177  0.5533  0.1047  0.4029
  869MOL0     C17201   3.452   0.220   4.084  0.7041 -0.0325 -0.4522
  869MOL0     C17202   3.585   0.257   4.156 -0.1901 -0.3786  0.4939
  869MOL0     C17203   3.709   0.254   4.058 -0.5826 -0.3154 -0.3270
  869MOL0     O17204   3.820   0.300   4.138  0.1475  0.4974  0.7917
  869MOL0     C17205   3.936   0.332   4.091  0.2882 -0.9008  0.5412
  869MOL0     C17206   3.997   0.439   4.164  0.3677  0.3574 -0.2895
  869MOL0     C17207   4.130   0.484   4.133  0.8178  0.3712 -1.3355
  869MOL0     C17208   4.195   0.420   4.030 -0.9373  0.5588  0.1964
  869MOL0     C17209   4.341   0.455   4.008  0.4273 -0.0997  0.0853
  869MOL0     O17210   4.375   0.582   4.025  0.0147 -0.5255  0.1378
  869MOL0     C17211   4.483   0.621   3.946  1.1781 -0.1426 -0.7969
  869MOL0     C17212   4.532   0.751   3.986 -0.6017  0.6701 -0.2446
  869MOL0     C17213   4.639   0.817   3.907  0.9464 -0.1900 -0.6524
  869MOL0     C17214   4.697   0.749   3.797  0.0563  0.0377  0.5390
  869MOL0     O17215   4.801   0.792   3.716  0.1014 -0.5957  0.4583
  869MOL0     C17216   4.855   0.927   3.728 -0.0359  0.3829  0.1977
  869MOL0     C17217   4.974   0.945   3.630  0.3476 -0.5592 -1.4408
  869MOL0     C17218   5.097   0.862   3.660  0.4683 -0.8906 -0.4143
  869MOL0     C17219   5.083   0.712   3.608  0.0400 -0.4125  0.1531
  869MOL0     C17220   5.092   0.698   3.454 -0.4386  0.1553 -1.1686
  869MOL0     C17221   5.124   0.558   3.404 -0.7583 -0.4067 -0.1541
  869MOL0     C17222   5.182   0.550   3.266 -0.3305 -0.6760 -0.8316
  869MOL0     C17223   5.167   0.408   3.209  0.0539 -0.7387 -1.1076
  869MOL0    Cl17224   5.270   0.307   3.312 -0.3293  0.0507  0.0798
  869MOL0     C17225   4.634   0.632   3.755 -0.9565  0.9283  0.7554
  869MOL0     C17226   4.526   0.569   3.827  0.7722  0.5672 -0.2598
  869MOL0     O17227   4.414   0.361   3.978  0.0223 -0.3552 -0.0630
  869MOL0     C17228   4.135   0.323   3.950  0.7868  1.1301  0.2663
  869MOL0     C17229   3.998   0.290   3.974  0.2556  0.5453 -0.0329
  869MOL0     N17230   3.185   0.065   4.074 -0.2880  0.2035  0.5702
  869MOL0     N17231   3.054   0.044   4.067 -0.2624 -0.4897 -0.1688
  869MOL0     C17232   1.859   0.501   4.194  0.5896  0.1533  0.0451
  869MOL0     C17233   1.739   0.501   4.117 -0.4459  0.0626  0.5256
  869MOL0     C17234   1.386   0.312   3.887  0.7813 -0.0381  0.3565
  869MOL0     C17235   1.334   0.442   3.870 -0.4029 -0.5893 -0.2102
  869MOL0     C17236   1.206   0.458   3.810 -0.1117  0.5072 -0.1576
  869MOL0     C17237   1.131   0.348   3.768 -0.2159  0.2210 -0.0536
  869MOL0     O17238   1.002   0.376   3.725  0.0340  0.2738 -0.1459
  869MOL0     C17239   0.932   0.256   3.685  0.5636  0.2038  0.2002
  869MOL0     C17240   0.791   0.300   3.636 -0.2231  0.5384 -0.6427
  869MOL0     C17241   0.719   0.202   3.549  0.7905 -0.5692  0.0011
  869MOL0     C17242   0.687   0.076   3.621 -0.0569 -0.1835 -0.7298
  869MOL0     C17243   0.805  -0.013   3.631 -0.7109 -0.0440 -0.1946
  869MOL0     C17244   0.907  -0.081   3.639  0.5171  0.2440  0.5634
  869MOL0     C17245   1.185   0.219   3.788  0.8735 -0.0272  0.0875
  869MOL0     C17246   1.316   0.198   3.837  0.3024 -0.2405 -0.1225
  869MOL0     C17247   1.361   0.051   3.844  0.3998  0.5621 -1.1796
  869MOL0     H17248   1.617   0.194   4.181  0.1533 -0.4569  0.2744
  869MOL0     H17249   1.830   0.179   4.314 -2.4088 -0.7960 -1.0796
  869MOL0     H17250   2.109   0.516   4.258  2.7394 -0.0243 -1.1994
  869MOL0     H17251   2.183   0.450   4.404  1.4658  1.5733 -2.5649
  869MOL0     H17252   2.125   0.338   4.131  0.4518  0.8890 -0.1098
  869MOL0     H17253   2.143   0.224   4.273 -0.4020  0.6878  0.9353
  869MOL0     H17254   2.342   0.428   4.242 -1.3146 -0.2006  0.5630
  869MOL0     H17255   2.355   0.325   4.098  2.8526 -0.6459  0.3575
  869MOL0     H17256   2.395   0.237   4.381 -1.4170  1.2935 -0.4715
  869MOL0     H17257   2.367   0.118   4.257  1.1789 -1.1829  0.4872
  869MOL0     H17258   2.579   0.186   4.132  2.0554 -1.2296 -0.7754
  869MOL0     H17259   2.592   0.323   4.248 -1.5958 -0.4845 -0.2139
  869MOL0     H17260   2.604   0.146   4.425  1.5855  0.3323  0.7202
  869MOL0     H17261   2.606   0.022   4.305  1.3897  0.1838 -1.1016
  869MOL0     H17262   2.841   0.063   4.376 -0.1757 -0.3856 -0.2048
  869MOL0     H17263   2.816   0.236   4.342 -1.1967 -0.2585  1.4422
  869MOL0     H17264   2.810   0.040   4.115 -1.6508  1.2898 -0.1337
  869MOL0     H17265   2.803   0.221   4.118 -1.8795  0.4159  1.7276
  869MOL0     H17266   3.082   0.304   4.267  1.5430  0.0608  0.1658
  869MOL0     H17267   3.312   0.359   4.169  2.7493  0.7015  2.0446
  869MOL0     H17268   3.356   0.240   4.283 -2.3619  0.4119  1.1848
  869MOL0     H17269   3.456   0.111   4.077  5.3484 -0.1596  0.5220
  869MOL0     H17270   3.438   0.270   3.988 -0.3878  0.0439 -0.2583
  869MOL0     H17271   3.599   0.186   4.238  1.7302 -0.7622 -0.1156
  869MOL0     H17272   3.569   0.356   4.198 -0.2244 -0.9076  1.7667
  869MOL0     H17273   3.694   0.328   3.978 -1.6578  0.2096  0.3256
  869MOL0     H17274   3.733   0.156   4.016 -1.4260 -0.2609 -0.9564
  869MOL0     H17275   3.948   0.473   4.254 -2.4511 -1.3478 -1.0551
  869MOL0     H17276   4.182   0.550   4.201 -1.5778 -0.8694  1.9602
  869MOL0     H17277   4.492   0.807   4.070  1.8111  2.1943 -0.0112
  869MOL0     H17278   4.674   0.914   3.938  0.7370  0.0536 -1.1589
  869MOL0     H17279   4.768   0.986   3.699 -0.8283  1.6347  4.4472
  869MOL0     H17280   4.887   0.948   3.831 -1.5366  1.7598  0.4128
  869MOL0     H17281   4.940   0.936   3.527 -1.1055  1.1257 -1.1532
  869MOL0     H17282   5.012   1.047   3.645  0.8401 -0.5396 -2.7424
  869MOL0     H17283   5.187   0.903   3.612 -1.4141  0.8881 -2.6822
  869MOL0     H17284   5.115   0.861   3.768 -3.2713 -0.2956  0.3440
  869MOL0     H17285   4.994   0.664   3.650 -0.1275 -1.3452 -1.2123
  869MOL0     H17286   5.163   0.656   3.657 -0.9420  0.0277  2.3670
  869MOL0     H17287   5.161   0.775   3.417 -2.0015  0.7564 -2.9824
  869MOL0     H17288   4.996   0.722   3.408 -0.2585 -1.7897 -2.6838
  869MOL0     H17289   5.186   0.500   3.473 -1.2927 -0.2607  0.4587
  869MOL0     H17290   5.031   0.501   3.395 -0.9116 -0.3163  0.8023
  869MOL0     H17291   5.285   0.586   3.266  0.0552 -1.7232 -0.3209
  869MOL0     H17292   5.120   0.618   3.208 -2.4709  0.6285  2.6839
  869MOL0     H17293   5.063   0.374   3.203 -0.0581 -0.3606 -1.3347
  869MOL0     H17294   5.209   0.393   3.109  2.3200 -3.0012  0.0541
  869MOL0     H17295   4.680   0.571   3.678 -0.7231  1.7158  0.2597
  869MOL0     H17296   4.480   0.476   3.792  3.1430 -0.6704 -0.2738
  869MOL0     H17297   4.188   0.267   3.874 -1.2274 -1.7368  0.7810
  869MOL0     H17298   3.951   0.209   3.921  1.4120 -1.1423  1.4024
  869MOL0     H17299   1.921   0.590   4.196  0.4530  0.3663 -2.3322
  869MOL0     H17300   1.721   0.587   4.053 -1.8089  0.5112  1.4650
  869MOL0     H17301   1.389   0.532   3.898  1.1291  0.1540 -4.8216
  869MOL0     H17302   1.157   0.555   3.817 -0.1508  0.4743  0.0525
  869MOL0     H17303   0.911   0.192   3.771  1.4522 -2.3948 -1.4151
  869MOL0     H17304   0.992   0.208   3.607  1.6553  0.8846  0.6052
  869MOL0     H17305   0.798   0.397   3.586 -0.4101  0.2630 -1.2094
  869MOL0     H17306   0.733   0.322   3.725 -0.1514  1.8013 -0.8859
  869MOL0     H17307   0.773   0.188   3.455  0.9667 -0.6646  0.1156
  869MOL0     H17308   0.618   0.238   3.528  0.2470 -0.0888  2.9752
  869MOL0     H17309   0.651   0.093   3.722  4.3632 -0.5532  1.1167
  869MOL0     H17310   0.605   0.032   3.563 -3.4623  2.4085  1.7054
  869MOL0     H17311   0.987  -0.150   3.656  0.7972  0.9246  2.2330
  869MOL0     H17312   1.128   0.128   3.770  0.0681 -0.4027  3.7482
  869MOL0     H17313   1.462   0.027   3.808 -0.5456 -1.6547 -2.5621
  869MOL0     H17314   1.370   0.034   3.951  1.5221  1.9631 -1.0203
  869MOL0     H17315   1.300  -0.014   3.780  0.5446  1.6080 -2.4367
  870MOL0     O17316   8.056   1.249   8.004  0.4720  0.4288 -0.1194
  870MOL0     C17317   7.989   1.325   7.940  0.5061 -0.4292  0.1312
  870MOL0     O17318   7.854   1.347   7.953  0.0588 -0.0692 -0.1163
  870MOL0     C17319   7.780   1.261   8.036 -0.3957  0.6208  0.0434
  870MOL0     C17320   7.681   1.175   7.978 -1.2847 -0.1032 -0.0036
  870MOL0     C17321   7.598   1.104   8.073  0.4244  0.0421  0.8342
  870MOL0     C17322   7.615   1.109   8.218 -0.2890 -0.1109  0.4388
  870MOL0     O17323   7.535   1.022   8.295 -0.3588 -0.1889 -0.2217
  870MOL0     C17324   7.588   0.989   8.424 -0.8130 -0.3130  0.5578
  870MOL0     C17325   7.518   0.867   8.460 -0.0087  0.0763 -0.0085
  870MOL0     C17326   7.587   0.744   8.398  0.2184  0.2679 -0.6931
  870MOL0     C17327   7.523   0.616   8.417  0.2438  0.4228  0.8606
  870MOL0     C17328   7.593   0.504   8.343 -0.0835 -0.0737 -0.1595
  870MOL0     C17329   7.713   0.454   8.424 -0.2304 -0.4498  0.1489
  870MOL0     C17330   7.788   0.341   8.357 -0.4473 -0.0719 -0.0139
  870MOL0     C17331   7.888   0.270   8.461 -0.0060  0.6742  0.1668
  870MOL0     N17332   8.006   0.354   8.500  0.7760  0.7089 -0.2229
  870MOL0     C17333   8.111   0.364   8.418 -0.9871 -0.2901 -0.4561
  870MOL0     C17334   8.206   0.422   8.499 -0.5990  0.2420  0.3288
  870MOL0     C17335   8.343   0.468   8.454  0.0654 -0.0845 -0.2796
  870MOL0     C17336   8.360   0.619   8.431  0.8086 -0.1152 -0.4078
  870MOL0     C17337   8.363   0.702   8.557 -0.4716  0.6308 -0.1758
  870MOL0     C17338   8.389   0.852   8.525 -0.7363 -0.4038  0.1252
  870MOL0     O17339   8.369   0.937   8.644  0.3653 -0.0959  0.2210
  870MOL0     C17340   8.491   0.982   8.698  0.4166  0.1884 -0.4337
  870MOL0     C17341   8.620   0.935   8.665 -0.0880  0.5968  0.2695
  870MOL0     C17342   8.727   0.980   8.735  0.0683  0.6411 -0.1516
  870MOL0     C17343   8.721   1.099   8.799  0.6016  1.5692  0.0367
  870MOL0     C17344   8.837   1.165   8.860 -0.7266 -0.0276  0.6331
  870MOL0     O17345   8.804   1.286   8.905 -0.1505  0.7019  0.4422
  870MOL0     C17346   8.874   1.376   8.977  0.0471 -0.1524  0.5357
  870MOL0     C17347   9.010   1.377   9.023 -0.4286  0.2699 -0.4300
  870MOL0     C17348   9.063   1.484   9.093  0.0466 -0.5341  0.3260
  870MOL0     C17349   8.973   1.591   9.131  0.9418 -0.1210 -0.2656
  870MOL0     O17350   9.036   1.700   9.191  0.6605  0.1697  0.6231
  870MOL0     C17351   8.959   1.789   9.255  0.4402 -0.1384  0.7526
  870MOL0     C17352   9.056   1.859   9.347 -0.3892 -0.2311  0.3497
  870MOL0     C17353   8.982   1.934   9.460 -0.4643 -0.0345 -0.7453
  870MOL0     C17354   8.950   2.083   9.432 -0.6646 -0.4526  0.9167
  870MOL0     C17355   8.840   2.157   9.521  0.8328  0.3884  0.5063
  870MOL0     C17356   8.689   2.129   9.465  0.1982  1.1709 -0.6079
  870MOL0     C17357   8.589   2.216   9.542 -0.1565 -1.0819 -0.4075
  870MOL0     C17358   8.465   2.259   9.463 -0.1678 -0.3063 -0.5160
  870MOL0    Cl17359   8.356   2.132   9.433  0.1700  0.1605 -0.2997
  870MOL0     C17360   8.834   1.586   9.099  0.7460  0.6179 -0.3528
  870MOL0     C17361   8.792   1.480   9.018  0.0326 -0.5478 -0.0989
  870MOL0     O17362   8.949   1.117   8.854 -0.2210  1.0567  0.2927
  870MOL0     C17363   8.590   1.145   8.828 -0.1601  0.1428 -0.8753
  870MOL0     C17364   8.477   1.093   8.780 -0.1138 -0.5729  0.3160
  870MOL0     N17365   8.155   0.445   8.626 -0.5824 -0.3481  0.7597
  870MOL0     N17366   8.026   0.401   8.624 -0.8259 -0.4052 -0.0895
  870MOL0     C17367   7.714   1.184   8.263 -0.9154  0.0517  0.2912
  870MOL0     C17368   7.794   1.262   8.171 -0.5011 -0.1656  0.2731
  870MOL0     C17369   8.066   1.385   7.839 -0.0582  0.5820 -0.3944
  870MOL0     C17370   8.004   1.400   7.713  0.0296  0.2019 -0.6348
  870MOL0     C17371   8.067   1.428   7.598  0.0226  0.5160 -0.1799
  870MOL0     C17372   8.210   1.452   7.593 -0.0378 -0.4375  0.1124
  870MOL0     O17373   8.266   1.492   7.476 -0.2786  0.3116  0.5032
  870MOL0     C17374   8.404   1.485   7.473  1.1059  0.4445 -1.0843
  870MOL0     C17375   8.458   1.475   7.326 -0.8476  0.2840 -0.0390
  870MOL0     C17376   8.618   1.460   7.324 -0.7121  0.7274  0.0912
  870MOL0     C17377   8.695   1.553   7.419  0.0751  0.1633 -0.0805
  870MOL0     C17378   8.703   1.490   7.549 -0.0207  0.7189 -0.0006
  870MOL0     C17379   8.717   1.428   7.648 -0.6273 -0.7028  0.0908
  870MOL0     C17380   8.274   1.453   7.718 -0.4843 -0.2953  0.0866
  870MOL0     C17381   8.208   1.414   7.840 -0.4026 -1.2057 -0.8013
  870MOL0     C17382   8.294   1.428   7.975 -0.4961 -0.4082  1.3693
  870MOL0     H17383   7.672   1.174   7.870 -0.1572 -0.3807 -0.1027
  870MOL0     H17384   7.530   1.032   8.030  2.6282  0.1299 -3.3350
  870MOL0     H17385   7.698   0.989   8.427 -0.8178  0.8541  2.3472
  870MOL0     H17386   7.555   1.071   8.488 -1.6514 -0.1598 -0.0614
  870MOL0     H17387   7.411   0.866   8.434  0.2360  0.8004 -1.1559
  870MOL0     H17388   7.523   0.852   8.568 -0.1433 -0.1186 -0.0274
  870MOL0     H17389   7.685   0.754   8.445 -0.0472 -0.8597  0.1451
  870MOL0     H17390   7.599   0.762   8.291 -1.8947  2.9799 -0.5875
  870MOL0     H17391   7.514   0.580   8.520 -0.3890 -1.5929  0.1478
  870MOL0     H17392   7.425   0.633   8.374  0.2702 -2.5371 -0.5712
  870MOL0     H17393   7.521   0.422   8.338 -0.2171 -0.5479  4.8769
  870MOL0     H17394   7.622   0.546   8.246  2.3236  0.6462  0.7888
  870MOL0     H17395   7.792   0.529   8.437  0.1450 -0.7065 -0.5734
  870MOL0     H17396   7.665   0.422   8.517 -1.2386  0.3212 -0.0798
  870MOL0     H17397   7.838   0.369   8.263  0.5713  1.1024  0.8603
  870MOL0     H17398   7.714   0.263   8.337 -0.2903 -0.4020  0.6623
  870MOL0     H17399   7.838   0.244   8.554  0.5006 -0.7861  0.0546
  870MOL0     H17400   7.916   0.175   8.415 -1.2871  1.2938 -2.0482
  870MOL0     H17401   8.120   0.328   8.316  2.3842 -1.3055  0.0672
  870MOL0     H17402   8.403   0.419   8.532 -0.7286  0.1363  0.4870
  870MOL0     H17403   8.369   0.425   8.357  1.7424 -0.6442  0.3768
  870MOL0     H17404   8.459   0.638   8.387  1.1495  2.4241  1.2781
  870MOL0     H17405   8.292   0.654   8.353  0.9353  1.0484 -0.0056
  870MOL0     H17406   8.446   0.665   8.618  2.7483  1.6305 -3.6023
  870MOL0     H17407   8.272   0.691   8.617  0.1970  2.7564  1.3659
  870MOL0     H17408   8.307   0.882   8.459 -1.7370 -0.1579  1.4484
  870MOL0     H17409   8.479   0.877   8.467 -0.4763  0.3944  0.8588
  870MOL0     H17410   8.644   0.850   8.603 -0.8685 -0.1917  1.0197
  870MOL0     H17411   8.822   0.933   8.714 -0.0784  1.0248 -1.8107
  870MOL0     H17412   9.081   1.300   8.994 -0.4245  0.6259 -1.4133
  870MOL0     H17413   9.166   1.496   9.124  0.1258  1.8860 -0.6255
  870MOL0     H17414   8.923   1.861   9.180  4.8096 -0.2385 -1.7948
  870MOL0     H17415   8.869   1.749   9.303 -0.5550  0.6054 -0.4242
  870MOL0     H17416   9.134   1.794   9.389 -1.8197 -2.0947  0.2387
  870MOL0     H17417   9.110   1.939   9.295 -1.2082  0.5431  0.6555
  870MOL0     H17418   8.885   1.889   9.479 -0.3425 -0.0937 -0.2650
  870MOL0     H17419   9.047   1.926   9.547 -0.8420 -1.3692 -0.5705
  870MOL0     H17420   8.920   2.093   9.327  4.3943  2.9013 -0.5677
  870MOL0     H17421   9.042   2.141   9.443 -0.3937 -1.0980  2.2724
  870MOL0     H17422   8.861   2.263   9.504  1.1511  0.0788 -1.2011
  870MOL0     H17423   8.856   2.137   9.628  1.2221  0.3697  0.4460
  870MOL0     H17424   8.692   2.150   9.357 -2.0563 -1.5303 -1.2933
  870MOL0     H17425   8.659   2.026   9.482 -1.5689  1.7505  0.0115
  870MOL0     H17426   8.640   2.304   9.580 -0.0785 -1.2532 -0.1095
  870MOL0     H17427   8.550   2.158   9.626  0.5170  0.8014  1.2685
  870MOL0     H17428   8.404   2.324   9.527 -1.6887 -2.9101  0.8635
  870MOL0     H17429   8.490   2.306   9.368  1.1259  2.8339  1.2338
  870MOL0     H17430   8.763   1.656   9.141  1.6913  0.2869  1.9298
  870MOL0     H17431   8.689   1.492   8.986  0.1903  0.2320 -0.3512
  870MOL0     H17432   8.577   1.230   8.895  0.2001  0.3434 -1.0591
  870MOL0     H17433   8.374   1.116   8.807  0.6342  1.6022  1.5487
  870MOL0     H17434   7.728   1.198   8.370  1.0273  0.2666  0.0365
  870MOL0     H17435   7.865   1.334   8.210 -0.6544 -0.0785  0.3972
  870MOL0     H17436   7.897   1.384   7.709 -0.3534  1.9188  1.1535
  870MOL0     H17437   8.014   1.429   7.503 -0.9624  1.8879  0.3516
  870MOL0     H17438   8.444   1.393   7.515 -2.0976 -0.2573  0.7020
  870MOL0     H17439   8.449   1.567   7.530  2.0930 -1.5110  1.1373
  870MOL0     H17440   8.450   1.578   7.292  4.0593  2.4736  4.0574
  870MOL0     H17441   8.410   1.398   7.264  0.6680 -0.3789 -0.4566
  870MOL0     H17442   8.658   1.476   7.224  0.5169  1.2538  0.6439
  870MOL0     H17443   8.641   1.355   7.345 -1.4459  0.7248  0.9420
  870MOL0     H17444   8.796   1.571   7.382 -0.3375  0.1213 -1.2628
  870MOL0     H17445   8.653   1.654   7.417 -0.5286 -0.0723 -2.5874
  870MOL0     H17446   8.733   1.381   7.743  1.2465 -3.4806 -1.4571
  870MOL0     H17447   8.379   1.478   7.725 -0.9098  1.2293  1.7040
  870MOL0     H17448   8.361   1.343   7.988  0.1764  0.0546  1.0398
  870MOL0     H17449   8.341   1.527   7.966 -1.6857  0.1681  1.2808
  870MOL0     H17450   8.227   1.433   8.061 -2.3860  0.7362 -0.0995
  871MOL0     O17451   2.119   2.018   3.981 -0.3159 -0.2863  0.1808
  871MOL0     C17452   2.177   1.979   4.084  0.4187  0.8435 -0.4426
  871MOL0     O17453   2.223   1.847   4.103  0.8772  0.4290 -0.3846
  871MOL0     C17454   2.266   1.780   3.986 -0.7387 -0.4244 -1.1047
  871MOL0     C17455   2.332   1.853   3.888  0.1944  0.5204 -0.4478
  871MOL0     C17456   2.363   1.781   3.769 -0.3064  0.1785 -0.2896
  871MOL0     C17457   2.349   1.640   3.762 -0.0731  0.6382  0.1984
  871MOL0     O17458   2.387   1.572   3.653  0.0904 -0.0840  0.5856
  871MOL0     C17459   2.438   1.442   3.658  0.0711 -0.4375 -0.3697
  871MOL0     C17460   2.538   1.433   3.539  0.5038  0.9748  0.5638
  871MOL0     C17461   2.676   1.486   3.566  1.1636 -0.2239  0.2587
  871MOL0     C17462   2.692   1.639   3.522  0.7203  0.1382 -1.0079
  871MOL0     C17463   2.836   1.685   3.557  0.4760 -0.0809  0.0779
  871MOL0     C17464   2.869   1.826   3.502 -0.2076  0.4255  0.1293
  871MOL0     C17465   3.024   1.843   3.506  0.1629 -0.0362  0.1310
  871MOL0     C17466   3.056   1.993   3.511 -0.1237 -0.0559 -0.6039
  871MOL0     N17467   3.201   2.020   3.540  0.5012  0.1293  0.0393
  871MOL0     C17468   3.250   2.119   3.619  0.6374  0.1756 -0.7408
  871MOL0     C17469   3.380   2.085   3.634 -0.2163 -1.2195 -0.7198
  871MOL0     C17470   3.486   2.146   3.718  0.1298 -0.4380  0.1515
  871MOL0     C17471   3.615   2.067   3.713 -0.0731 -0.6399  0.1548
  871MOL0     C17472   3.723   2.135   3.815 -0.8459  0.7259  0.7997
  871MOL0     C17473   3.793   2.261   3.766 -0.5460 -0.0667  1.0856
  871MOL0     O17474   3.865   2.239   3.643 -0.0103  0.2687 -0.4460
  871MOL0     C17475   4.000   2.272   3.642 -0.2972 -0.3716 -1.1584
  871MOL0     C17476   4.053   2.331   3.527  0.9689  0.6886 -0.5316
  871MOL0     C17477   4.188   2.354   3.508  0.2295  1.3010 -1.2030
  871MOL0     C17478   4.274   2.340   3.614 -0.1090  0.4236  0.2860
  871MOL0     C17479   4.418   2.383   3.606  0.4855 -0.3218 -0.2781
  871MOL0     O17480   4.446   2.474   3.507 -0.4381 -0.3478 -0.1494
  871MOL0     C17481   4.576   2.500   3.471  0.1981 -0.3160  0.2637
  871MOL0     C17482   4.671   2.411   3.419  0.5713  0.7931  0.2796
  871MOL0     C17483   4.800   2.444   3.369 -0.4358 -0.0369 -0.1279
  871MOL0     C17484   4.844   2.579   3.370 -0.6202 -0.5448  0.0346
  871MOL0     O17485   4.967   2.614   3.327  0.2075  0.3436  0.6943
  871MOL0     C17486   5.069   2.550   3.400 -0.2961  0.3913  0.8652
  871MOL0     C17487   5.199   2.638   3.389  1.3228  0.2677  0.4046
  871MOL0     C17488   5.310   2.579   3.466 -0.0110 -0.0032 -0.4816
  871MOL0     C17489   5.432   2.665   3.478 -0.3943 -0.3566  0.5199
  871MOL0     C17490   5.529   2.614   3.587  0.7715  0.0452  0.6085
  871MOL0     C17491   5.674   2.667   3.578 -0.5969  0.2329  0.2474
  871MOL0     C17492   5.755   2.592   3.472 -0.1440  0.1506  0.4231
  871MOL0     C17493   5.890   2.660   3.468 -0.6765 -1.1785 -0.6418
  871MOL0    Cl17494   5.973   2.629   3.631 -0.8327  0.1611  0.3518
  871MOL0     C17495   4.749   2.673   3.414 -0.1146  0.4875 -0.1638
  871MOL0     C17496   4.621   2.635   3.462  0.5930 -0.8020 -0.0558
  871MOL0     O17497   4.495   2.333   3.687  0.4919  0.4911 -0.3003
  871MOL0     C17498   4.230   2.265   3.727 -0.0127 -1.0599 -0.4202
  871MOL0     C17499   4.095   2.234   3.739 -0.2085  0.1626 -0.7818
  871MOL0     N17500   3.405   1.961   3.570  0.3657 -0.1955  0.7426
  871MOL0     N17501   3.302   1.932   3.511  0.2428  0.1180  0.2775
  871MOL0     C17502   2.286   1.582   3.866 -0.1504  0.0981  0.0300
  871MOL0     C17503   2.243   1.643   3.981  0.2920 -0.0296 -0.9629
  871MOL0     C17504   2.172   2.072   4.204 -0.3180 -0.0943  1.2096
  871MOL0     C17505   2.141   2.012   4.322 -0.0244  0.2353 -0.3165
  871MOL0     C17506   2.123   2.093   4.436 -0.1833  0.9476  0.0720
  871MOL0     C17507   2.144   2.229   4.430  0.2843  0.1144 -0.4619
  871MOL0     O17508   2.144   2.303   4.544  0.1894  0.1569 -0.3111
  871MOL0     C17509   2.080   2.432   4.558  0.2742 -0.9491 -0.2955
  871MOL0     C17510   2.185   2.543   4.581 -0.6903 -0.5321 -1.6879
  871MOL0     C17511   2.239   2.543   4.727 -0.0860  0.6607 -0.8955
  871MOL0     C17512   2.377   2.472   4.745  0.1233 -0.1364 -1.2740
  871MOL0     C17513   2.427   2.481   4.893  0.1939  0.4267  0.1155
  871MOL0     C17514   2.466   2.472   5.008 -0.1544  0.8580  0.7457
  871MOL0     C17515   2.170   2.294   4.311 -0.0814  0.9292 -0.3669
  871MOL0     C17516   2.186   2.215   4.199  0.1264  0.3130  0.0750
  871MOL0     C17517   2.231   2.286   4.077  0.1551 -0.2650  0.2091
  871MOL0     H17518   2.356   1.958   3.900  0.2308  0.3548  1.2487
  871MOL0     H17519   2.416   1.842   3.696  3.8557 -0.7389  1.6284
  871MOL0     H17520   2.486   1.424   3.754 -0.0498  0.5472 -0.1133
  871MOL0     H17521   2.348   1.381   3.648 -1.1988  1.4242 -0.8405
  871MOL0     H17522   2.492   1.467   3.446 -0.9639  1.0825  1.2981
  871MOL0     H17523   2.555   1.327   3.516 -0.9585  1.2280 -2.0831
  871MOL0     H17524   2.747   1.427   3.507  3.0963  0.9231  1.3027
  871MOL0     H17525   2.711   1.477   3.669 -0.4416 -0.7108  0.7845
  871MOL0     H17526   2.673   1.656   3.415  0.3060  0.1179 -0.9396
  871MOL0     H17527   2.626   1.705   3.579  2.6397  1.9129 -0.7018
  871MOL0     H17528   2.831   1.684   3.666  1.1022  2.8088  0.2264
  871MOL0     H17529   2.907   1.617   3.511  2.0260  1.9011 -0.5984
  871MOL0     H17530   2.842   1.843   3.397 -3.9201  1.0030  1.0305
  871MOL0     H17531   2.818   1.905   3.557  3.1992  1.7586  1.6020
  871MOL0     H17532   3.070   1.792   3.420  0.1989 -1.0769  0.7444
  871MOL0     H17533   3.066   1.797   3.596  1.6242 -1.7432 -1.3496
  871MOL0     H17534   3.022   2.044   3.420  1.7860  1.6601 -0.4125
  871MOL0     H17535   2.999   2.034   3.594 -0.0206 -0.4327 -0.3456
  871MOL0     H17536   3.196   2.206   3.653 -3.6761 -1.8786 -1.7101
  871MOL0     H17537   3.508   2.248   3.686  2.6345 -1.5349 -1.9900
  871MOL0     H17538   3.452   2.142   3.822 -1.0142 -4.6248 -0.1882
  871MOL0     H17539   3.588   1.967   3.750 -0.8622 -0.9106 -1.1010
  871MOL0     H17540   3.662   2.053   3.616  1.3593 -2.1875  0.9976
  871MOL0     H17541   3.804   2.063   3.827 -1.0303 -0.1947 -2.5020
  871MOL0     H17542   3.683   2.155   3.915  0.0892  1.5785  1.0188
  871MOL0     H17543   3.855   2.301   3.847  1.0720 -2.9767  1.4269
  871MOL0     H17544   3.727   2.347   3.751  2.1131  2.2144  1.5899
  871MOL0     H17545   3.996   2.347   3.436  0.1392  0.2514 -0.1030
  871MOL0     H17546   4.229   2.404   3.421  2.7894  1.6444  0.1162
  871MOL0     H17547   4.654   2.304   3.422  2.8817  0.3208 -0.7304
  871MOL0     H17548   4.860   2.365   3.324 -0.9245 -0.1176 -0.6480
  871MOL0     H17549   5.038   2.553   3.505 -0.0112  0.1666  0.9573
  871MOL0     H17550   5.088   2.452   3.353  0.6918  0.8976  0.1733
  871MOL0     H17551   5.220   2.657   3.283  1.4017  0.2641  0.4197
  871MOL0     H17552   5.165   2.734   3.430  0.5703 -0.7292  2.2202
  871MOL0     H17553   5.273   2.565   3.568  1.6135  2.6472  0.5775
  871MOL0     H17554   5.345   2.484   3.426  1.1013 -0.8408  2.2969
  871MOL0     H17555   5.385   2.759   3.507 -0.4525 -0.6391  1.3868
  871MOL0     H17556   5.481   2.673   3.381 -0.5735  1.4703  0.5539
  871MOL0     H17557   5.518   2.506   3.592  1.4242 -0.1096 -0.7962
  871MOL0     H17558   5.483   2.641   3.683 -1.0545  1.6957 -0.6419
  871MOL0     H17559   5.683   2.775   3.560  1.4294 -0.2471 -2.1545
  871MOL0     H17560   5.715   2.649   3.678  0.9989 -0.1350 -0.4480
  871MOL0     H17561   5.706   2.609   3.376  2.8013 -4.6621 -2.3288
  871MOL0     H17562   5.766   2.484   3.484  1.4007  0.4248  1.9796
  871MOL0     H17563   5.956   2.633   3.385  3.6739 -1.6319  2.5986
  871MOL0     H17564   5.882   2.768   3.456 -2.6960 -0.4913  4.2600
  871MOL0     H17565   4.777   2.775   3.392 -1.9291  0.5079 -2.9173
  871MOL0     H17566   4.552   2.716   3.485 -1.0761 -2.0422 -0.5254
  871MOL0     H17567   4.297   2.245   3.810 -1.2118 -0.5188  0.7033
  871MOL0     H17568   4.066   2.176   3.826 -2.2451  2.2980  0.0636
  871MOL0     H17569   2.274   1.474   3.860  0.5172 -0.0223  0.6428
  871MOL0     H17570   2.190   1.606   4.068  0.8075  1.8168  0.1876
  871MOL0     H17571   2.137   1.904   4.338  1.1615  0.2138 -0.0652
  871MOL0     H17572   2.113   2.056   4.537 -0.2688  2.2774  0.5691
  871MOL0     H17573   1.994   2.421   4.625 -1.3179 -2.1923 -2.4220
  871MOL0     H17574   2.043   2.456   4.458 -0.5791  0.6795  0.3792
  871MOL0     H17575   2.138   2.641   4.571 -0.4515 -0.5313 -2.9921
  871MOL0     H17576   2.265   2.536   4.508  1.0741  1.3576 -0.0633
  871MOL0     H17577   2.176   2.488   4.797  1.3775 -1.4945 -1.2002
  871MOL0     H17578   2.252   2.646   4.762  4.2853 -0.1612  0.5595
  871MOL0     H17579   2.373   2.369   4.708  0.7080  0.1232 -2.0680
  871MOL0     H17580   2.455   2.522   4.686  0.2432  3.7017  1.7113
  871MOL0     H17581   2.511   2.470   5.105  0.7852 -0.4197  0.3054
  871MOL0     H17582   2.202   2.397   4.301 -0.5245  1.2787  1.4417
  871MOL0     H17583   2.184   2.384   4.070  0.4879 -0.1358 -0.2619
  871MOL0     H17584   2.340   2.286   4.087  0.0750  0.9212  1.3564
  871MOL0     H17585   2.209   2.236   3.982 -1.1511 -0.7432  0.7415
  872MOL0     O17586   9.533   2.527   8.301 -0.1178 -0.2707  0.5822
  872MOL0     C17587   9.585   2.607   8.222 -0.6526  0.0801  1.1833
  872MOL0     O17588   9.529   2.732   8.178 -0.4444  0.3645 -0.6902
  872MOL0     C17589   9.439   2.799   8.251 -0.4724 -0.1881  0.3684
  872MOL0     C17590   9.388   2.764   8.378 -0.0061 -0.4860  0.6592
  872MOL0     C17591   9.287   2.844   8.433  0.1634  0.9450 -0.1381
  872MOL0     C17592   9.239   2.953   8.360 -0.3422  0.5242 -0.1589
  872MOL0     O17593   9.163   3.049   8.430 -0.2351  0.1637  0.5385
  872MOL0     C17594   9.083   3.146   8.364 -0.3461 -0.2319 -0.5469
  872MOL0     C17595   8.947   3.177   8.431 -0.0828  0.0927 -0.0809
  872MOL0     C17596   8.856   3.059   8.440  0.6586 -0.0941 -0.2711
  872MOL0     C17597   8.747   3.094   8.539 -0.4479  0.3732 -0.7271
  872MOL0     C17598   8.619   3.016   8.535  0.6342  0.1305  0.6810
  872MOL0     C17599   8.639   2.865   8.517 -0.6181 -0.0470  1.1248
  872MOL0     C17600   8.502   2.808   8.478 -0.7610 -0.3678  0.2083
  872MOL0     C17601   8.491   2.667   8.432 -0.7085  0.3340 -0.0758
  872MOL0     N17602   8.506   2.568   8.541 -0.3431 -0.1373 -0.4162
  872MOL0     C17603   8.621   2.523   8.590 -0.0188  0.0357 -0.1133
  872MOL0     C17604   8.585   2.412   8.661  0.5742  0.0225  0.3437
  872MOL0     C17605   8.654   2.321   8.744 -0.2331  0.7546 -0.0401
  872MOL0     C17606   8.641   2.369   8.887  0.6503 -0.4137  0.4028
  872MOL0     C17607   8.760   2.364   8.987  0.0375 -0.1853 -0.2106
  872MOL0     C17608   8.811   2.217   9.008 -0.3065  0.4191 -0.0672
  872MOL0     O17609   8.922   2.188   9.085 -0.7531  0.3974 -0.6270
  872MOL0     C17610   9.045   2.227   9.037 -0.2574  0.6775 -0.2357
  872MOL0     C17611   9.079   2.235   8.899  0.1847 -0.4628  0.3761
  872MOL0     C17612   9.208   2.281   8.863 -0.1688  0.6544  0.1291
  872MOL0     C17613   9.311   2.304   8.958 -0.1047  0.8841  0.3982
  872MOL0     C17614   9.447   2.347   8.906  0.9052  0.5388 -1.1291
  872MOL0     O17615   9.543   2.327   8.989  0.7239  0.7786 -0.1283
  872MOL0     C17616   9.669   2.343   8.950 -0.9572  0.4327 -0.0098
  872MOL0     C17617   9.756   2.414   9.041  0.6215 -0.0454 -1.0823
  872MOL0     C17618   9.889   2.433   9.013  0.2002  0.2240  0.9524
  872MOL0     C17619   9.936   2.389   8.889 -0.2632  1.1903 -0.1982
  872MOL0     O17620  10.061   2.412   8.838 -0.5155  0.2962 -0.4276
  872MOL0     C17621  10.149   2.515   8.893  0.4602  0.0685 -0.2610
  872MOL0     C17622  10.107   2.651   8.850  0.1110  0.8644 -0.3769
  872MOL0     C17623  10.204   2.750   8.893 -0.6520 -0.1126 -0.8877
  872MOL0     C17624  10.158   2.895   8.868 -0.1131 -0.2395  0.8084
  872MOL0     C17625  10.170   2.942   8.719  0.8114  0.7851  0.0656
  872MOL0     C17626  10.169   3.090   8.697  0.7521 -0.2186 -0.5655
  872MOL0     C17627  10.028   3.155   8.723 -0.7871  1.2132 -0.7477
  872MOL0     C17628  10.047   3.295   8.794 -0.0776 -0.1217  0.0868
  872MOL0    Cl17629  10.098   3.301   8.971  0.9253 -0.0681 -0.2181
  872MOL0     C17630   9.860   2.311   8.802 -0.8728  0.2735 -0.6414
  872MOL0     C17631   9.732   2.281   8.833  0.3176  0.0086 -0.2582
  872MOL0     O17632   9.455   2.390   8.790 -0.3583 -0.1741  0.3400
  872MOL0     C17633   9.281   2.289   9.091  0.1712  0.2744  0.0248
  872MOL0     C17634   9.154   2.242   9.133 -0.4828  0.7889 -0.3353
  872MOL0     N17635   8.450   2.388   8.635  0.1970  0.1168  0.1301
  872MOL0     N17636   8.402   2.480   8.560 -0.1537 -0.5210 -0.0679
  872MOL0     C17637   9.304   2.999   8.246  0.8277  0.5990  0.1652
  872MOL0     C17638   9.398   2.920   8.189 -0.0677  0.1673 -0.5391
  872MOL0     C17639   9.703   2.563   8.147  0.0364  0.1482 -0.2197
  872MOL0     C17640   9.707   2.426   8.113  0.7647  0.0174  0.1030
  872MOL0     C17641   9.814   2.386   8.030  1.0973 -0.4178  1.3908
  872MOL0     C17642   9.903   2.470   7.968  0.1025 -0.4824  0.0352
  872MOL0     O17643   9.983   2.412   7.873 -0.0778 -0.1300  1.0655
  872MOL0     C17644  10.103   2.484   7.835 -0.6572  0.4509  0.2384
  872MOL0     C17645  10.207   2.488   7.946  0.2535 -0.8943  0.4907
  872MOL0     C17646  10.256   2.350   7.982  0.3905 -0.8522 -0.5573
  872MOL0     C17647  10.368   2.359   8.084  0.0825  0.5447  0.2841
  872MOL0     C17648  10.437   2.229   8.090 -1.1361 -0.1109 -0.1439
  872MOL0     C17649  10.523   2.138   8.095  0.1394 -0.7765 -0.0481
  872MOL0     C17650   9.902   2.607   8.012 -0.2811  0.4630  0.4533
  872MOL0     C17651   9.799   2.651   8.096 -0.2919  0.1242  0.1258
  872MOL0     C17652   9.811   2.796   8.152  0.5821 -0.3031  0.1960
  872MOL0     H17653   9.416   2.684   8.444 -1.8823 -0.2908  1.7643
  872MOL0     H17654   9.242   2.836   8.531  0.1787 -0.2824 -0.2238
  872MOL0     H17655   9.148   3.232   8.349 -1.3515  1.5393  3.7677
  872MOL0     H17656   9.051   3.109   8.266 -1.8550  2.4533 -1.1556
  872MOL0     H17657   8.900   3.249   8.364 -1.1082 -1.4570 -1.0794
  872MOL0     H17658   8.967   3.216   8.532 -0.5187  0.1257 -0.0022
  872MOL0     H17659   8.901   2.964   8.468  0.1021 -0.1183  0.5612
  872MOL0     H17660   8.791   3.045   8.353 -2.3533 -0.4862  1.8795
  872MOL0     H17661   8.797   3.079   8.635  1.3146  2.2103 -1.3034
  872MOL0     H17662   8.720   3.200   8.540  0.1324  0.5893 -3.0531
  872MOL0     H17663   8.561   3.043   8.624 -0.0078 -0.0884  0.3396
  872MOL0     H17664   8.566   3.046   8.444  1.6385  1.3991  0.4845
  872MOL0     H17665   8.704   2.841   8.432  0.0007  3.5715  0.4211
  872MOL0     H17666   8.680   2.813   8.604 -1.2100  1.5211  2.3821
  872MOL0     H17667   8.468   2.860   8.388  2.9698  1.3151 -0.4568
  872MOL0     H17668   8.439   2.830   8.565  0.6146  2.8365  0.5583
  872MOL0     H17669   8.390   2.660   8.392 -0.9475 -0.2574  0.6208
  872MOL0     H17670   8.556   2.655   8.345 -3.0313  1.2384 -2.0348
  872MOL0     H17671   8.720   2.565   8.576  0.3669 -0.8297 -0.0182
  872MOL0     H17672   8.609   2.222   8.730  1.7477 -0.0839 -0.7488
  872MOL0     H17673   8.758   2.313   8.713  0.6579  0.8244  2.7295
  872MOL0     H17674   8.621   2.477   8.878 -3.4755 -1.1784 -1.8323
  872MOL0     H17675   8.553   2.323   8.932  0.2825  1.1421  1.3559
  872MOL0     H17676   8.723   2.390   9.087  4.0726 -4.5737  2.9451
  872MOL0     H17677   8.837   2.439   8.968 -1.9461  2.0113 -0.0585
  872MOL0     H17678   8.827   2.176   8.908 -0.5712 -1.0107  0.4554
  872MOL0     H17679   8.734   2.153   9.052 -0.1037 -0.5761 -1.1125
  872MOL0     H17680   8.994   2.219   8.833 -1.2787 -0.9555  2.2810
  872MOL0     H17681   9.223   2.289   8.756 -2.0450 -0.4127 -0.2512
  872MOL0     H17682   9.728   2.466   9.132  3.9166 -0.8434  0.4947
  872MOL0     H17683   9.953   2.486   9.083  0.3199  0.4701  0.6615
  872MOL0     H17684  10.149   2.529   9.001 -1.9672  1.8866 -0.4206
  872MOL0     H17685  10.251   2.491   8.863  0.5453  0.6917 -0.4822
  872MOL0     H17686  10.081   2.645   8.744 -3.8540 -3.9099  0.4863
  872MOL0     H17687  10.012   2.672   8.901  0.6739 -0.6786  1.4174
  872MOL0     H17688  10.225   2.743   9.001  0.3882  1.5092 -0.9463
  872MOL0     H17689  10.297   2.724   8.840 -0.7246 -3.3751  0.3387
  872MOL0     H17690  10.223   2.958   8.930  0.8899  0.9481 -1.3432
  872MOL0     H17691  10.056   2.910   8.906 -0.9377 -0.5376 -1.1784
  872MOL0     H17692  10.079   2.911   8.667  1.0358  0.3984 -0.0925
  872MOL0     H17693  10.255   2.902   8.664  1.2607  3.5916 -1.4762
  872MOL0     H17694  10.239   3.144   8.762 -0.1894 -1.4622  1.5967
  872MOL0     H17695  10.195   3.110   8.593 -0.1929  1.4517 -0.5213
  872MOL0     H17696   9.973   3.093   8.794  0.7307  1.7685  0.9953
  872MOL0     H17697   9.977   3.171   8.628 -1.8325 -0.9904 -0.6134
  872MOL0     H17698  10.119   3.360   8.743  0.3812  0.1480  1.0358
  872MOL0     H17699   9.955   3.354   8.792 -1.9584 -2.9024  0.1163
  872MOL0     H17700   9.905   2.261   8.717 -1.0739 -1.4357  0.2124
  872MOL0     H17701   9.671   2.217   8.769  0.9819 -1.2344  0.3190
  872MOL0     H17702   9.362   2.308   9.161 -1.0811 -0.4569  1.7236
  872MOL0     H17703   9.140   2.204   9.234  0.1405 -1.1527 -0.9345
  872MOL0     H17704   9.276   3.095   8.204 -2.2112 -1.4559 -2.9739
  872MOL0     H17705   9.446   2.944   8.094  0.4609  0.4884 -0.1988
  872MOL0     H17706   9.631   2.356   8.146 -2.1907  2.4546 -0.9899
  872MOL0     H17707   9.815   2.284   7.992 -1.2030  0.4497 -1.3566
  872MOL0     H17708  10.086   2.589   7.808 -1.2939  0.4851  0.7552
  872MOL0     H17709  10.146   2.430   7.750 -0.2304  1.0301  0.0845
  872MOL0     H17710  10.157   2.528   8.035 -1.3309  2.6914 -1.7646
  872MOL0     H17711  10.289   2.555   7.915  0.0105 -0.3203  1.0521
  872MOL0     H17712  10.296   2.299   7.894 -0.6156 -1.7564 -0.5140
  872MOL0     H17713  10.176   2.289   8.024  0.2626 -1.5117 -1.7329
  872MOL0     H17714  10.427   2.446   8.054 -0.4991  1.5195  1.8417
  872MOL0     H17715  10.309   2.379   8.174 -1.7693  0.1132 -0.7598
  872MOL0     H17716  10.586   2.056   8.122  0.0621 -0.8969 -0.2325
  872MOL0     H17717   9.981   2.672   7.974 -0.3535 -0.0497 -0.6139
  872MOL0     H17718   9.729   2.856   8.111 -1.4717 -1.3720  2.4703
  872MOL0     H17719   9.811   2.801   8.262 -1.0267 -1.6079  0.2824
  872MOL0     H17720   9.891   2.859   8.113  0.6864  0.8467  2.1144
  873MOL0     O17721   5.463   7.384   1.795 -0.0095 -0.0416  0.2502
  873MOL0     C17722   5.437   7.297   1.712 -0.8201 -0.3679 -0.5962
  873MOL0     O17723   5.528   7.226   1.637  0.8162  0.2992 -0.4276
  873MOL0     C17724   5.657   7.204   1.674  0.7591  0.1717 -0.2663
  873MOL0     C17725   5.755   7.306   1.665  0.0780 -0.4384  0.4154
  873MOL0     C17726   5.882   7.277   1.711 -0.5722  0.5546 -0.7032
  873MOL0     C17727   5.918   7.149   1.765 -0.0683 -0.2005  0.9767
  873MOL0     O17728   6.047   7.137   1.810  0.3743 -0.1979 -0.0145
  873MOL0     C17729   6.057   7.078   1.937 -0.4955  0.5101 -0.2212
  873MOL0     C17730   6.210   7.066   1.980 -0.1576 -0.6235  0.0125
  873MOL0     C17731   6.298   6.994   1.872  0.5136 -0.1524  1.2067
  873MOL0     C17732   6.440   6.983   1.907 -0.3831  0.3065 -0.8866
  873MOL0     C17733   6.525   6.926   1.792  0.4283  0.6771 -0.3447
  873MOL0     C17734   6.671   6.940   1.816 -0.4018 -0.3463 -0.6910
  873MOL0     C17735   6.757   6.860   1.725 -1.2322 -0.8160  0.2865
  873MOL0     C17736   6.899   6.853   1.779 -0.3763  0.1284 -0.7281
  873MOL0     N17737   6.991   6.766   1.698  0.4136  0.1074  1.3505
  873MOL0     C17738   7.104   6.813   1.641  0.5568  1.3305 -1.0778
  873MOL0     C17739   7.167   6.714   1.582 -0.5872 -0.5065 -0.3988
  873MOL0     C17740   7.303   6.720   1.512 -0.5825  0.0775 -0.0781
  873MOL0     C17741   7.416   6.666   1.598 -0.4672 -0.4875 -0.7183
  873MOL0     C17742   7.553   6.659   1.541 -0.1375  0.7803  0.2203
  873MOL0     C17743   7.571   6.634   1.390  0.2908  0.1988  0.1645
  873MOL0     O17744   7.708   6.630   1.357 -0.6662  0.5765 -0.2403
  873MOL0     C17745   7.744   6.738   1.286 -0.0439  0.4632  0.0526
  873MOL0     C17746   7.711   6.736   1.150 -0.1314  0.6314 -0.6753
  873MOL0     C17747   7.766   6.828   1.065 -0.3599 -0.8000 -0.1220
  873MOL0     C17748   7.837   6.947   1.121  0.2699  0.7045 -0.8862
  873MOL0     C17749   7.879   7.052   1.031 -0.3573 -0.0658  0.4632
  873MOL0     O17750   7.839   7.037   0.895 -0.1727 -0.5059 -0.8694
  873MOL0     C17751   7.864   7.138   0.808 -0.7456 -0.1617 -0.8738
  873MOL0     C17752   7.991   7.207   0.783  0.2193 -0.2469  0.2412
  873MOL0     C17753   8.003   7.321   0.694 -0.0560  0.9973  0.7323
  873MOL0     C17754   7.883   7.361   0.631  0.0539  0.0883  0.4002
  873MOL0     O17755   7.890   7.460   0.533  0.6107 -0.3069 -0.6684
  873MOL0     C17756   7.780   7.479   0.444 -0.9772  0.2273 -0.0146
  873MOL0     C17757   7.833   7.554   0.320 -0.5361 -0.4131 -0.4102
  873MOL0     C17758   7.951   7.478   0.248 -0.7350 -0.5077  0.3870
  873MOL0     C17759   8.068   7.574   0.209  0.6755 -0.0048 -0.2417
  873MOL0     C17760   8.177   7.495   0.132 -0.2898 -0.1076  0.1861
  873MOL0     C17761   8.285   7.571   0.060  0.2998  0.1637 -0.4890
  873MOL0     C17762   8.387   7.631   0.155 -0.3869 -0.0489  0.7529
  873MOL0     C17763   8.455   7.528   0.249  0.4052 -0.6338 -0.0606
  873MOL0    Cl17764   8.505   7.374   0.168  0.0507 -0.1867 -0.6629
  873MOL0     C17765   7.762   7.290   0.658 -0.4396  0.1730 -0.1564
  873MOL0     C17766   7.755   7.177   0.736 -0.0399  0.4349  1.0143
  873MOL0     O17767   7.949   7.148   1.072  0.2772 -0.0166 -0.2119
  873MOL0     C17768   7.846   6.953   1.259 -0.2047 -0.2065  0.5598
  873MOL0     C17769   7.811   6.846   1.342  0.0378 -0.5178 -0.4186
  873MOL0     N17770   7.093   6.598   1.612  0.6190  0.8359  0.4197
  873MOL0     N17771   6.986   6.629   1.671 -0.8152 -0.2702  1.4936
  873MOL0     C17772   5.820   7.049   1.763  0.7859 -0.8795 -0.8003
  873MOL0     C17773   5.689   7.075   1.717  0.3664  0.5054  0.0448
  873MOL0     C17774   5.297   7.276   1.656  0.0064  0.2946 -0.6972
  873MOL0     C17775   5.275   7.141   1.624  0.0918  0.3241 -0.4651
  873MOL0     C17776   5.148   7.102   1.575  0.5674  0.0552  0.1202
  873MOL0     C17777   5.043   7.200   1.563  0.0830 -0.2538 -0.3948
  873MOL0     O17778   4.924   7.151   1.514  0.5665 -0.0954  0.2989
  873MOL0     C17779   4.798   7.212   1.554  0.7012 -0.2237 -1.1119
  873MOL0     C17780   4.753   7.179   1.697  0.0350 -0.0372  1.3335
  873MOL0     C17781   4.849   7.227   1.805  0.0180 -0.2336  0.3369
  873MOL0     C17782   4.797   7.190   1.947 -0.7164  0.3122 -0.4168
  873MOL0     C17783   4.668   7.236   1.995 -0.6693 -0.6563  0.8542
  873MOL0     C17784   4.567   7.278   2.037  0.2311  0.2305  0.2032
  873MOL0     C17785   5.062   7.331   1.595  0.4790 -1.0651  0.9311
  873MOL0     C17786   5.189   7.374   1.640  0.3039 -0.6028  0.2235
  873MOL0     C17787   5.202   7.514   1.669  0.1374  0.6298  0.2036
  873MOL0     H17788   5.721   7.400   1.622 -0.4600 -0.3381  1.0447
  873MOL0     H17789   5.951   7.359   1.695 -1.1620  0.6651 -3.0590
  873MOL0     H17790   6.009   7.136   2.016  2.3243 -2.2951  3.9424
  873MOL0     H17791   5.999   6.985   1.946 -2.9815  1.8878 -0.9372
  873MOL0     H17792   6.210   7.002   2.069  2.5635 -1.5525 -0.5740
  873MOL0     H17793   6.243   7.169   1.992  2.0121 -1.1720 -0.8730
  873MOL0     H17794   6.289   7.059   1.784 -0.3917  3.1385  3.5087
  873MOL0     H17795   6.254   6.897   1.846  3.6450 -1.5806  0.8211
  873MOL0     H17796   6.483   7.083   1.924  2.8777 -0.9406 -1.0707
  873MOL0     H17797   6.447   6.920   1.995  1.3840 -0.9637 -1.8704
  873MOL0     H17798   6.501   6.820   1.784 -1.6102  1.1350 -0.9855
  873MOL0     H17799   6.494   6.969   1.696  1.6004  0.2187 -0.9479
  873MOL0     H17800   6.702   7.045   1.819 -1.9516  0.1223  2.2011
  873MOL0     H17801   6.690   6.911   1.919 -0.2156  2.9837  0.3304
  873MOL0     H17802   6.753   6.898   1.622  0.8606  0.3849  0.5999
  873MOL0     H17803   6.717   6.758   1.723 -1.1734 -0.8707  1.4456
  873MOL0     H17804   6.937   6.955   1.786 -5.6269  2.3333 -0.2930
  873MOL0     H17805   6.890   6.818   1.882  1.0127  2.4153  0.2514
  873MOL0     H17806   7.144   6.912   1.659 -2.1856  2.3351  0.0773
  873MOL0     H17807   7.286   6.655   1.425 -1.9193  1.3941 -0.8444
  873MOL0     H17808   7.323   6.822   1.479 -0.5564 -0.8492 -3.2936
  873MOL0     H17809   7.426   6.729   1.687 -2.1883 -3.7552  2.0457
  873MOL0     H17810   7.395   6.566   1.637  3.4085 -1.5303 -0.9306
  873MOL0     H17811   7.601   6.579   1.598 -2.6922  0.2802  1.8185
  873MOL0     H17812   7.607   6.751   1.564  1.0742  0.6862 -1.9058
  873MOL0     H17813   7.504   6.688   1.322 -0.3515 -2.9441 -1.9605
  873MOL0     H17814   7.536   6.530   1.383  0.8813 -0.0731  1.1119
  873MOL0     H17815   7.655   6.652   1.110  0.3836 -0.3965  0.6938
  873MOL0     H17816   7.758   6.806   0.959 -1.0720  1.5813 -0.6205
  873MOL0     H17817   8.073   7.162   0.839 -0.0091 -1.2826 -0.2318
  873MOL0     H17818   8.103   7.363   0.681 -0.0961  1.2085  1.0889
  873MOL0     H17819   7.745   7.376   0.433  2.5524 -1.5694  3.0372
  873MOL0     H17820   7.696   7.520   0.499 -0.3125 -2.7731  3.6622
  873MOL0     H17821   7.755   7.579   0.248 -3.4371 -0.2784  2.5863
  873MOL0     H17822   7.879   7.648   0.351 -3.9452  1.0390  0.7131
  873MOL0     H17823   7.992   7.398   0.310 -1.8735 -1.8576 -0.5359
  873MOL0     H17824   7.911   7.439   0.154  2.2444 -1.3031 -0.6722
  873MOL0     H17825   8.111   7.609   0.304 -1.3727  2.4427 -0.1050
  873MOL0     H17826   8.044   7.661   0.147  2.0782  0.2255 -0.4989
  873MOL0     H17827   8.121   7.437   0.058  0.3321  0.2433 -0.5824
  873MOL0     H17828   8.219   7.433   0.211 -0.1876 -0.7374 -0.3497
  873MOL0     H17829   8.335   7.497  -0.004 -0.7432 -1.6671  0.7113
  873MOL0     H17830   8.239   7.645  -0.006 -0.5183  1.2378  1.2104
  873MOL0     H17831   8.345   7.714   0.212 -0.3176 -0.0007  0.7344
  873MOL0     H17832   8.466   7.672   0.090  0.3135  0.0428  1.6447
  873MOL0     H17833   8.537   7.573   0.304 -0.8155  1.7545 -0.0534
  873MOL0     H17834   8.381   7.506   0.327  1.1233 -1.4387  0.4070
  873MOL0     H17835   7.667   7.326   0.620 -0.6487 -1.4961 -1.3513
  873MOL0     H17836   7.664   7.119   0.741  0.4779 -0.9321 -2.3617
  873MOL0     H17837   7.893   7.044   1.293  1.6602  0.2344 -2.8245
  873MOL0     H17838   7.837   6.840   1.447  1.4667  3.4728 -0.3741
  873MOL0     H17839   5.840   6.946   1.794  2.5415 -0.5965 -0.9054
  873MOL0     H17840   5.621   6.990   1.712  2.1624 -1.0301  0.6310
  873MOL0     H17841   5.350   7.065   1.608 -0.1805 -0.0479 -0.0128
  873MOL0     H17842   5.144   6.999   1.541  1.3240 -0.5287  1.6979
  873MOL0     H17843   4.718   7.171   1.492 -0.9669  1.2958 -0.0699
  873MOL0     H17844   4.793   7.320   1.539 -2.2558 -0.1224  0.0379
  873MOL0     H17845   4.742   7.070   1.694 -0.3826  0.0207 -1.1168
  873MOL0     H17846   4.649   7.205   1.718  0.2602  1.4834  0.7124
  873MOL0     H17847   4.866   7.335   1.797 -1.0409 -0.1415 -1.0292
  873MOL0     H17848   4.944   7.171   1.801 -0.2888 -0.8266  1.1431
  873MOL0     H17849   4.801   7.081   1.944 -1.2953  0.3024 -1.2584
  873MOL0     H17850   4.871   7.224   2.020 -2.1840  1.3771  0.6540
  873MOL0     H17851   4.475   7.325   2.065 -0.5573 -1.0220 -0.2120
  873MOL0     H17852   4.980   7.400   1.578  1.1616 -0.4243  0.1511
  873MOL0     H17853   5.224   7.566   1.575  2.8249 -1.9539 -0.7459
  873MOL0     H17854   5.109   7.553   1.713 -1.2321 -1.8147 -0.3702
  873MOL0     H17855   5.288   7.547   1.727  1.5929 -1.4065 -0.6939
  874MOL0     O17856   8.771  10.242   5.896  1.0954  1.0535  0.3059
  874MOL0     C17857   8.758  10.119   5.920  0.2506 -0.2777  0.3841
  874MOL0     O17858   8.826  10.016   5.852 -0.0174 -0.1704 -0.6287
  874MOL0     C17859   8.868  10.062   5.728  0.6031 -0.3154 -0.4989
  874MOL0     C17860   8.805  10.031   5.612  0.0907 -0.8211  0.1964
  874MOL0     C17861   8.844  10.080   5.488 -0.1714 -0.6621 -0.3737
  874MOL0     C17862   8.954  10.169   5.469  0.8572  0.3584 -0.6293
  874MOL0     O17863   8.990  10.230   5.356 -0.1517  0.2285 -0.0057
  874MOL0     C17864   9.004  10.138   5.244 -0.3645 -0.2587  0.5544
  874MOL0     C17865   9.070  10.205   5.126 -0.1287 -0.4338 -1.4752
  874MOL0     C17866   9.196  10.288   5.158 -0.3264  0.5923 -0.3195
  874MOL0     C17867   9.318  10.203   5.189  0.6815 -0.2188  0.3564
  874MOL0     C17868   9.445  10.268   5.210  0.3975 -0.0416 -0.0227
  874MOL0     C17869   9.552  10.166   5.266  0.1822 -0.2681 -0.2548
  874MOL0     C17870   9.695  10.219   5.286 -0.2702  0.0339  0.4701
  874MOL0     C17871   9.771  10.213   5.150  0.0397  0.0647  0.5813
  874MOL0     N17872   9.912  10.258   5.178  0.8653 -0.1948  0.0926
  874MOL0     C17873  10.015  10.252   5.085  0.3050 -0.0780  0.3190
  874MOL0     C17874  10.126  10.296   5.156  0.0653  0.1306 -0.5362
  874MOL0     C17875  10.276  10.306   5.115 -0.8287 -0.5167 -0.6147
  874MOL0     C17876  10.293  10.392   4.983 -0.1160 -0.7134  0.7428
  874MOL0     C17877  10.411  10.496   4.993  0.3296 -0.1000  0.1034
  874MOL0     C17878  10.417  10.578   4.869 -0.5044 -0.6883 -0.1775
  874MOL0     O17879  10.521  10.688   4.882  1.2938 -0.6041 -0.4727
  874MOL0     C17880  10.642  10.684   4.821  0.7957 -0.0920  0.0740
  874MOL0     C17881  10.696  10.810   4.793 -0.3431  1.1451  0.3287
  874MOL0     C17882  10.797  10.826   4.716 -0.1768  0.0994  0.0578
  874MOL0     C17883  10.847  10.712   4.645 -0.1772 -1.0275  0.2154
  874MOL0     C17884  10.965  10.732   4.555 -0.3780 -0.4979  0.3724
  874MOL0     O17885  11.028  10.620   4.526  0.1824 -0.3673  0.3365
  874MOL0     C17886  11.165  10.623   4.489 -0.7365  0.0775 -0.2936
  874MOL0     C17887  11.214  10.533   4.391  0.3795 -1.2564  1.2029
  874MOL0     C17888  11.351  10.530   4.364  0.2241  0.0815 -1.1751
  874MOL0     C17889  11.444  10.609   4.436 -0.5115 -0.8392 -0.6168
  874MOL0     O17890  11.577  10.621   4.401 -0.0184  0.2978  0.2889
  874MOL0     C17891  11.634  10.521   4.333  0.2532 -0.2860  0.1663
  874MOL0     C17892  11.779  10.562   4.301 -0.1612  0.3537  0.3619
  874MOL0     C17893  11.858  10.584   4.431  0.0983 -0.2660 -0.0467
  874MOL0     C17894  12.003  10.554   4.407  0.2400 -0.0587  0.2807
  874MOL0     C17895  12.095  10.595   4.521  0.1566 -0.1922 -0.5384
  874MOL0     C17896  12.229  10.622   4.469  0.1083  0.0595  0.2910
  874MOL0     C17897  12.299  10.502   4.410 -0.0320  0.0640 -0.1083
  874MOL0     C17898  12.424  10.556   4.343 -0.6033 -0.2727  0.5963
  874MOL0    Cl17899  12.380  10.647   4.194  0.4128  0.2786 -0.2178
  874MOL0     C17900  11.393  10.696   4.534 -0.4331 -0.3203  0.3750
  874MOL0     C17901  11.253  10.702   4.568 -0.2500 -0.0608  0.9386
  874MOL0     O17902  10.995  10.841   4.515 -0.0784  0.1620 -0.3662
  874MOL0     C17903  10.797  10.581   4.679 -0.0989 -0.1668  0.0188
  874MOL0     C17904  10.696  10.570   4.776 -0.0743  0.9284 -0.0053
  874MOL0     N17905  10.092  10.314   5.286 -0.1389  1.2070  0.3601
  874MOL0     N17906   9.969  10.286   5.294  0.2398  0.2040 -0.4483
  874MOL0     C17907   9.021  10.190   5.589  0.8360 -0.2815  0.1440
  874MOL0     C17908   8.981  10.146   5.719  0.1419 -0.1829  0.5334
  874MOL0     C17909   8.661  10.083   6.030 -0.2552 -0.6840  0.2540
  874MOL0     C17910   8.617  10.185   6.114  0.4678  0.3693  0.8563
  874MOL0     C17911   8.517  10.167   6.211  0.0455  1.3747  0.4710
  874MOL0     C17912   8.465  10.043   6.240  0.2125 -0.0525  0.0701
  874MOL0     O17913   8.372  10.022   6.339 -0.2330 -0.1510  0.0699
  874MOL0     C17914   8.328  10.136   6.412 -0.5223 -0.1935  0.1580
  874MOL0     C17915   8.215  10.201   6.341 -0.1411  0.1394 -0.4157
  874MOL0     C17916   8.092  10.098   6.331  0.2607  0.0822 -0.8315
  874MOL0     C17917   7.979  10.163   6.244 -0.1339 -0.5295  0.0884
  874MOL0     C17918   7.858  10.076   6.262 -0.2087  0.6443 -0.0701
  874MOL0     C17919   7.752  10.027   6.256 -1.2001  0.5366 -0.1306
  874MOL0     C17920   8.498   9.940   6.156 -0.0818  0.7484 -0.4168
  874MOL0     C17921   8.598   9.956   6.054 -0.3283 -0.1821  0.3932
  874MOL0     C17922   8.649   9.831   5.992  0.2628 -0.0591 -0.1477
  874MOL0     H17923   8.720   9.964   5.612  0.4583 -1.3477 -1.5357
  874MOL0     H17924   8.772  10.072   5.407 -0.6794  0.5464 -0.0645
  874MOL0     H17925   9.071  10.058   5.278  0.1156  0.0097  0.2519
  874MOL0     H17926   8.905  10.099   5.220 -1.0670  1.7733 -0.0077
  874MOL0     H17927   8.982  10.264   5.100 -0.8061  0.3981  2.1071
  874MOL0     H17928   9.095  10.129   5.052  0.5688  0.8835 -2.6423
  874MOL0     H17929   9.189  10.369   5.231  1.9452 -0.0051  0.6516
  874MOL0     H17930   9.226  10.334   5.063  2.4482  2.0167  1.1361
  874MOL0     H17931   9.298  10.140   5.276 -0.2899  1.0061  1.0524
  874MOL0     H17932   9.320  10.124   5.113 -1.1232 -0.0269  0.0561
  874MOL0     H17933   9.486  10.305   5.115 -4.0480 -1.5862 -2.8968
  874MOL0     H17934   9.440  10.337   5.295  0.6447 -0.6520  0.4944
  874MOL0     H17935   9.516  10.134   5.365 -2.4678  1.4018 -0.5656
  874MOL0     H17936   9.547  10.083   5.195 -1.1844  0.2172 -0.7597
  874MOL0     H17937   9.738  10.160   5.368 -3.1838  1.0080  2.8864
  874MOL0     H17938   9.691  10.326   5.306 -0.6708  0.5358 -1.9873
  874MOL0     H17939   9.781  10.122   5.091 -2.4032  0.7798 -1.0957
  874MOL0     H17940   9.714  10.266   5.073 -0.2439 -2.8843 -1.4128
  874MOL0     H17941  10.006  10.215   4.983 -0.5681  2.8066 -0.7489
  874MOL0     H17942  10.324  10.345   5.205 -3.9876  0.3805  0.8317
  874MOL0     H17943  10.327  10.210   5.103 -0.7209 -0.7883  1.5974
  874MOL0     H17944  10.307  10.323   4.900 -0.1090  1.7424 -1.4148
  874MOL0     H17945  10.204  10.454   4.971  1.0984  1.0626  0.5063
  874MOL0     H17946  10.505  10.448   5.021 -0.7815 -0.9909  2.5972
  874MOL0     H17947  10.396  10.564   5.078  0.1841 -1.4160  1.1661
  874MOL0     H17948  10.324  10.627   4.842  1.0077  1.8557 -1.1690
  874MOL0     H17949  10.426  10.519   4.777 -1.6951  0.6651 -1.2309
  874MOL0     H17950  10.648  10.901   4.828 -0.4792  1.1951  0.0156
  874MOL0     H17951  10.840  10.925   4.707 -2.3973  1.0164 -0.9781
  874MOL0     H17952  11.139  10.473   4.341  1.8527 -1.0554 -1.3924
  874MOL0     H17953  11.381  10.465   4.283  1.6659  0.4825 -0.9836
  874MOL0     H17954  11.626  10.426   4.386 -1.5041 -0.5753 -0.5445
  874MOL0     H17955  11.578  10.510   4.239  1.2154 -0.2189 -0.4275
  874MOL0     H17956  11.830  10.489   4.238 -2.7293  0.0496 -1.5116
  874MOL0     H17957  11.780  10.652   4.238 -0.3084 -0.0790 -0.2685
  874MOL0     H17958  11.830  10.685   4.463 -2.2770 -1.5091  2.1968
  874MOL0     H17959  11.820  10.525   4.514 -0.5716  1.8042  1.2126
  874MOL0     H17960  12.033  10.613   4.320  0.0189  1.0641  0.9428
  874MOL0     H17961  12.019  10.449   4.381 -1.5019  0.0906 -1.7860
  874MOL0     H17962  12.098  10.525   4.604  0.8205  1.9755  1.3847
  874MOL0     H17963  12.065  10.693   4.561  0.1982 -0.4392  0.1125
  874MOL0     H17964  12.222  10.696   4.388  0.9210 -0.7376 -0.5208
  874MOL0     H17965  12.287  10.664   4.551 -0.3466 -0.0155  0.6532
  874MOL0     H17966  12.237  10.466   4.328  0.3922  1.1669 -0.9502
  874MOL0     H17967  12.324  10.432   4.490  2.6168 -0.3914 -1.2263
  874MOL0     H17968  12.477  10.622   4.412 -2.0453  0.0554  1.4263
  874MOL0     H17969  12.499  10.481   4.315  3.0298  3.7722 -1.6028
  874MOL0     H17970  11.455  10.769   4.583 -1.6593  0.1919  1.2261
  874MOL0     H17971  11.214  10.751   4.656 -1.7904 -1.7579  1.2721
  874MOL0     H17972  10.837  10.492   4.629  2.5180  1.4276 -0.9509
  874MOL0     H17973  10.644  10.479   4.805  0.9426  1.3772  3.6168
  874MOL0     H17974   9.104  10.260   5.586  0.1489  0.5233 -0.2123
  874MOL0     H17975   9.040  10.170   5.807  0.2341  0.0483  0.4095
  874MOL0     H17976   8.661  10.284   6.110  0.1729  0.4889  0.5300
  874MOL0     H17977   8.487  10.259   6.260 -3.5137  0.8511 -0.4540
  874MOL0     H17978   8.411  10.203   6.439  1.4466 -2.3808 -0.0901
  874MOL0     H17979   8.295  10.095   6.508 -0.2979  0.1115  0.3680
  874MOL0     H17980   8.244  10.215   6.237  0.6171  0.9753 -0.1070
  874MOL0     H17981   8.186  10.294   6.392  0.7527 -0.1630  0.6902
  874MOL0     H17982   8.055  10.058   6.427  2.6995 -2.3658 -0.7849
  874MOL0     H17983   8.124  10.013   6.271 -2.5009 -0.2008 -2.0626
  874MOL0     H17984   7.965  10.269   6.270  0.1490 -0.2338 -0.9365
  874MOL0     H17985   8.011  10.170   6.140  2.7197 -2.2013  0.7551
  874MOL0     H17986   7.656   9.979   6.260 -1.1170  0.4536  1.4513
  874MOL0     H17987   8.462   9.839   6.173 -0.6026  1.2979  2.1855
  874MOL0     H17988   8.627   9.834   5.884  0.9285  2.3811 -0.2756
  874MOL0     H17989   8.758   9.825   6.004  0.4253  2.2544 -0.0337
  874MOL0     H17990   8.605   9.744   6.040  1.7023 -0.8927 -0.2574
  875MOL0     O17991   6.851   4.797   6.625 -0.3346  0.0906  0.2859
  875MOL0     C17992   6.876   4.836   6.513 -0.0919  0.1419  0.2073
  875MOL0     O17993   6.784   4.888   6.426  0.9995 -0.6070 -0.2452
  875MOL0     C17994   6.649   4.873   6.426 -0.5336  1.0977 -0.5181
  875MOL0     C17995   6.587   4.771   6.506 -0.0193 -0.6114 -0.0896
  875MOL0     C17996   6.455   4.758   6.496  0.7087 -1.5294  1.2710
  875MOL0     C17997   6.376   4.842   6.422 -0.0619 -0.0401  0.3110
  875MOL0     O17998   6.244   4.828   6.411  0.0339 -0.1131 -0.2830
  875MOL0     C17999   6.194   4.727   6.317 -0.1802 -0.5049  0.3127
  875MOL0     C18000   6.044   4.732   6.294  0.4812 -0.2475 -0.2741
  875MOL0     C18001   5.977   4.865   6.243 -0.5736  0.2836  0.5765
  875MOL0     C18002   5.827   4.846   6.236  0.1003 -0.7538 -0.0914
  875MOL0     C18003   5.761   4.982   6.170  0.0506  0.0555  0.0038
  875MOL0     C18004   5.795   4.982   6.019 -0.2605 -0.0582  0.1217
  875MOL0     C18005   5.750   4.863   5.936 -0.2748  0.4296 -0.1281
  875MOL0     C18006   5.613   4.807   5.968  0.7368  0.7149  0.6631
  875MOL0     N18007   5.576   4.697   5.885  0.7170  0.4670 -0.6956
  875MOL0     C18008   5.579   4.563   5.914 -0.3016  0.6440  0.6545
  875MOL0     C18009   5.539   4.496   5.804  0.7073 -0.5542 -0.3015
  875MOL0     C18010   5.534   4.350   5.797  0.3627  0.2220 -0.3656
  875MOL0     C18011   5.677   4.294   5.787 -0.0250 -0.1422 -0.1837
  875MOL0     C18012   5.696   4.155   5.726  0.2545  0.3931 -0.9481
  875MOL0     C18013   5.822   4.122   5.661  0.3123 -0.7180 -0.5154
  875MOL0     O18014   5.934   4.164   5.744 -0.0822 -0.1899  0.0235
  875MOL0     C18015   6.063   4.129   5.708 -0.6177 -0.5104 -0.3549
  875MOL0     C18016   6.098   4.110   5.570 -0.5248 -0.9660  0.3311
  875MOL0     C18017   6.235   4.084   5.548  0.0780  0.3189  0.2723
  875MOL0     C18018   6.335   4.077   5.650  0.0742  0.8256 -0.2736
  875MOL0     C18019   6.483   4.076   5.623 -0.6229  0.4416  0.5491
  875MOL0     O18020   6.518   4.085   5.489  0.1726 -0.2884 -0.4970
  875MOL0     C18021   6.646   4.112   5.466  0.0145 -0.1666  0.3609
  875MOL0     C18022   6.707   4.037   5.370 -0.2780  1.2278 -0.3945
  875MOL0     C18023   6.837   4.059   5.330 -0.0392  0.3490  0.0102
  875MOL0     C18024   6.915   4.158   5.379 -0.9163 -0.0451  0.1161
  875MOL0     O18025   7.039   4.194   5.329 -0.3236 -0.0035 -0.7076
  875MOL0     C18026   7.080   4.150   5.196 -0.0554 -0.0921  0.2590
  875MOL0     C18027   7.010   4.226   5.081 -0.0173 -0.0481 -0.7772
  875MOL0     C18028   7.059   4.174   4.942  0.6881  0.2760  0.4591
  875MOL0     C18029   7.157   4.274   4.878  0.0615  0.2598  0.2782
  875MOL0     C18030   7.288   4.290   4.959 -0.1265 -0.0778  0.3332
  875MOL0     C18031   7.386   4.374   4.875 -0.4423  0.0817 -0.0718
  875MOL0     C18032   7.534   4.344   4.918  1.2634  1.0765  0.8692
  875MOL0     C18033   7.596   4.261   4.803  0.3542  0.5216 -0.0887
  875MOL0    Cl18034   7.632   4.359   4.664  0.3065  0.0324 -0.0768
  875MOL0     C18035   6.847   4.243   5.469 -0.6748  0.2142  0.2769
  875MOL0     C18036   6.718   4.229   5.510  0.0157 -0.1041 -0.6731
  875MOL0     O18037   6.560   4.057   5.719  0.0704 -0.0210  0.0045
  875MOL0     C18038   6.290   4.084   5.782 -0.1381 -0.5070 -0.8439
  875MOL0     C18039   6.155   4.110   5.808 -0.3743 -0.6881 -0.5353
  875MOL0     N18040   5.511   4.587   5.707 -0.2288  0.1775 -0.4600
  875MOL0     N18041   5.523   4.700   5.758 -0.3372 -0.3499 -0.3454
  875MOL0     C18042   6.436   4.941   6.348 -0.1774 -0.0175  0.1285
  875MOL0     C18043   6.574   4.955   6.339  0.2349 -0.6925 -0.2897
  875MOL0     C18044   7.014   4.838   6.456  0.6249 -0.9553  0.0510
  875MOL0     C18045   7.029   4.895   6.325  0.2045  0.7646 -0.2481
  875MOL0     C18046   7.151   4.898   6.266 -0.3858 -0.9410  0.4413
  875MOL0     C18047   7.267   4.847   6.333 -0.4677 -0.5167  0.2709
  875MOL0     O18048   7.387   4.844   6.278  0.0416  0.3164 -0.3046
  875MOL0     C18049   7.397   4.844   6.134 -0.2501 -0.7187 -1.1082
  875MOL0     C18050   7.546   4.810   6.106  0.3760 -0.2612  0.8466
  875MOL0     C18051   7.569   4.789   5.955  0.0574  0.3512 -0.0048
  875MOL0     C18052   7.712   4.746   5.929  0.1111 -0.5402  0.1201
  875MOL0     C18053   7.796   4.864   5.921  0.7936  1.0467  0.2322
  875MOL0     C18054   7.871   4.952   5.908  0.1025  0.0019  0.4500
  875MOL0     C18055   7.253   4.787   6.459  0.2744  0.1527 -0.3876
  875MOL0     C18056   7.129   4.782   6.530  0.5686  1.0535  0.4412
  875MOL0     C18057   7.128   4.717   6.665 -0.3251  0.1468 -0.1733
  875MOL0     H18058   6.648   4.695   6.553 -1.8117 -0.9122  1.8871
  875MOL0     H18059   6.405   4.687   6.562 -5.2280  1.1880  0.3857
  875MOL0     H18060   6.254   4.734   6.226 -0.0508 -0.8306  0.3708
  875MOL0     H18061   6.212   4.625   6.354  1.9757 -1.2778 -2.5016
  875MOL0     H18062   6.001   4.708   6.391  0.5917  0.5685 -0.0218
  875MOL0     H18063   6.014   4.645   6.234 -2.4074  0.5897 -0.2011
  875MOL0     H18064   6.016   4.884   6.143 -0.8459 -0.1852  0.3771
  875MOL0     H18065   6.012   4.940   6.314  0.0103  0.8829 -0.3293
  875MOL0     H18066   5.794   4.752   6.191 -0.3541  1.1249 -4.0762
  875MOL0     H18067   5.800   4.841   6.342  0.8143  0.2390  0.1490
  875MOL0     H18068   5.652   4.988   6.183 -0.4422 -3.5850 -1.0619
  875MOL0     H18069   5.812   5.066   6.217 -1.2198 -0.5508  2.6698
  875MOL0     H18070   5.741   5.067   5.977 -0.8289 -0.6593 -0.3762
  875MOL0     H18071   5.898   5.001   5.987 -1.0750  0.5276 -2.4037
  875MOL0     H18072   5.826   4.785   5.949 -1.7819 -0.7231  2.7093
  875MOL0     H18073   5.756   4.885   5.829 -2.3691  0.4856 -0.2793
  875MOL0     H18074   5.608   4.775   6.073  1.0082  0.3201  0.5562
  875MOL0     H18075   5.537   4.884   5.948  0.7732  0.8212  0.9285
  875MOL0     H18076   5.622   4.515   6.002  1.6953  0.5054 -0.3414
  875MOL0     H18077   5.477   4.309   5.881 -0.3562  1.6336 -0.1444
  875MOL0     H18078   5.473   4.314   5.714  2.1221  1.1590 -2.1457
  875MOL0     H18079   5.731   4.361   5.719  1.9127  2.0177  3.1751
  875MOL0     H18080   5.725   4.299   5.885  3.8155 -1.9461 -1.7610
  875MOL0     H18081   5.611   4.131   5.662  0.1871 -0.2453 -0.6277
  875MOL0     H18082   5.687   4.077   5.802 -3.1036  0.5381 -1.0588
  875MOL0     H18083   5.808   4.194   5.580 -4.3161  0.0317  0.6351
  875MOL0     H18084   5.829   4.022   5.617 -1.5521 -0.1376 -2.3333
  875MOL0     H18085   6.026   4.126   5.491 -2.2314 -2.5469  1.4917
  875MOL0     H18086   6.272   4.083   5.446 -1.3927 -0.1462 -0.2879
  875MOL0     H18087   6.643   3.954   5.341 -1.2329  1.7642  0.1396
  875MOL0     H18088   6.873   3.987   5.257 -1.1039  0.9499 -1.1419
  875MOL0     H18089   7.187   4.172   5.196  0.3615 -1.9610 -0.0192
  875MOL0     H18090   7.078   4.042   5.180  1.9304 -0.0113 -0.8989
  875MOL0     H18091   6.902   4.228   5.092  0.1239  1.3247  0.8044
  875MOL0     H18092   7.036   4.331   5.098 -2.1732  0.1122  2.3729
  875MOL0     H18093   7.119   4.083   4.957  0.2875 -0.1893 -0.6319
  875MOL0     H18094   6.974   4.157   4.875  0.5995  1.7883  0.1720
  875MOL0     H18095   7.117   4.376   4.871 -0.7353 -0.0245  0.6707
  875MOL0     H18096   7.183   4.242   4.777 -1.4620  0.8536 -0.3294
  875MOL0     H18097   7.341   4.197   4.981  3.1829  1.4464 -0.6230
  875MOL0     H18098   7.266   4.337   5.055 -0.2238 -1.0716  0.8140
  875MOL0     H18099   7.374   4.340   4.772  1.1663 -1.4919  0.2193
  875MOL0     H18100   7.364   4.481   4.865 -1.3874  0.0701  1.5281
  875MOL0     H18101   7.532   4.291   5.014 -1.3972 -3.1761 -1.2254
  875MOL0     H18102   7.599   4.429   4.938  2.0110  0.1695  2.4952
  875MOL0     H18103   7.687   4.220   4.848  0.1626 -0.8438 -0.8833
  875MOL0     H18104   7.526   4.181   4.776 -2.1472  1.7316  2.2929
  875MOL0     H18105   6.911   4.326   5.498 -0.2445  0.8963 -2.3591
  875MOL0     H18106   6.687   4.297   5.588  0.0574  1.5109 -2.0222
  875MOL0     H18107   6.350   4.076   5.872 -1.9503  1.7361  0.6980
  875MOL0     H18108   6.125   4.116   5.912 -0.0928 -2.9031 -0.2657
  875MOL0     H18109   6.372   5.010   6.294 -0.9570 -0.2045  0.7967
  875MOL0     H18110   6.616   5.032   6.275  0.7406 -1.0571 -0.3993
  875MOL0     H18111   6.945   4.938   6.271  0.1782 -0.5354 -1.2923
  875MOL0     H18112   7.162   4.938   6.166 -0.7472 -1.3617  0.2300
  875MOL0     H18113   7.371   4.937   6.083  1.4997  1.6338  1.9305
  875MOL0     H18114   7.329   4.770   6.090 -1.5739  0.0085 -0.3800
  875MOL0     H18115   7.579   4.720   6.160  0.1697 -0.1052  1.2325
  875MOL0     H18116   7.602   4.890   6.155 -2.2587  2.1303  0.2293
  875MOL0     H18117   7.548   4.884   5.904 -0.8923  0.6528  0.8996
  875MOL0     H18118   7.500   4.710   5.926  1.1554 -1.1934  1.4224
  875MOL0     H18119   7.757   4.665   5.986  1.5086  0.6597  0.7829
  875MOL0     H18120   7.713   4.695   5.832  0.4534  1.4540 -0.9836
  875MOL0     H18121   7.935   5.038   5.906  1.1304 -0.7065  1.6080
  875MOL0     H18122   7.331   4.746   6.523 -0.4850 -0.1505  0.3667
  875MOL0     H18123   7.215   4.651   6.666  2.1611  3.1978 -0.1227
  875MOL0     H18124   7.159   4.799   6.730 -0.9225 -1.4818  2.3012
  875MOL0     H18125   7.036   4.666   6.695  0.3368 -1.7301 -1.0974
  876MOL0     O18126   0.353   1.445   2.251  0.1956 -0.4328  0.4749
  876MOL0     C18127   0.291   1.343   2.282  0.5253 -0.1725 -0.4818
  876MOL0     O18128   0.331   1.219   2.249  0.6696  0.5889  0.0843
  876MOL0     C18129   0.464   1.202   2.239 -0.7006 -0.2100  0.0773
  876MOL0     C18130   0.512   1.145   2.124 -0.7346 -0.4845  0.9382
  876MOL0     C18131   0.652   1.121   2.103  0.0068 -0.0865 -0.1326
  876MOL0     C18132   0.746   1.140   2.210  0.0824  0.0468  0.6383
  876MOL0     O18133   0.879   1.097   2.183  0.6971  0.5545  0.4670
  876MOL0     C18134   0.965   1.099   2.295 -0.3616  0.0881 -0.0487
  876MOL0     C18135   0.942   0.973   2.381 -0.1937 -0.1628 -0.2659
  876MOL0     C18136   1.016   0.958   2.521  0.6743 -0.8008  0.3221
  876MOL0     C18137   1.032   0.803   2.557  0.2804  0.1381 -0.0316
  876MOL0     C18138   1.093   0.795   2.702  0.7353 -1.0227  0.6152
  876MOL0     C18139   1.211   0.702   2.709  0.6035  0.2566  0.5671
  876MOL0     C18140   1.161   0.548   2.715  0.0981  0.2906 -0.9973
  876MOL0     C18141   1.270   0.453   2.733 -0.5710  0.0641 -0.5318
  876MOL0     N18142   1.335   0.478   2.862 -0.0889 -0.2424  0.7822
  876MOL0     C18143   1.455   0.547   2.885  1.0316 -0.1574  0.6451
  876MOL0     C18144   1.476   0.540   3.015  0.1389  0.0289  0.0775
  876MOL0     C18145   1.586   0.620   3.076  0.3955  0.3707  0.1604
  876MOL0     C18146   1.518   0.715   3.175 -0.0054  0.2969  0.3193
  876MOL0     C18147   1.461   0.840   3.099 -0.0713  0.0854 -0.2364
  876MOL0     C18148   1.402   0.944   3.195 -0.4249 -0.4798  0.7061
  876MOL0     O18149   1.311   1.030   3.126 -0.4191 -0.4219 -0.2680
  876MOL0     C18150   1.192   0.985   3.098 -0.2765 -0.1230  0.3989
  876MOL0     C18151   1.096   1.076   3.045  0.2356 -0.1735 -0.3041
  876MOL0     C18152   0.967   1.049   3.001  1.0385 -0.4498  0.4801
  876MOL0     C18153   0.916   0.919   3.020  0.8975 -0.6237  1.0059
  876MOL0     C18154   0.789   0.883   2.958 -0.5308  0.9754  0.0231
  876MOL0     O18155   0.712   0.979   2.900 -0.3349 -0.9557 -0.5778
  876MOL0     C18156   0.585   0.944   2.854  0.2598  0.8029 -0.2962
  876MOL0     C18157   0.550   0.978   2.722  0.6783  0.0545  0.2078
  876MOL0     C18158   0.416   0.959   2.677  0.0363  0.3100  0.0190
  876MOL0     C18159   0.317   0.908   2.759 -0.3692 -0.1198 -0.7264
  876MOL0     O18160   0.180   0.891   2.721 -0.1937  0.7841 -0.8840
  876MOL0     C18161   0.127   0.972   2.625  0.0485 -0.3644  0.4408
  876MOL0     C18162  -0.026   0.982   2.661  0.2420 -0.1493  0.1219
  876MOL0     C18163  -0.104   1.049   2.550 -0.3166 -0.3305 -0.2236
  876MOL0     C18164  -0.256   1.040   2.578 -0.8167  0.6153  0.0022
  876MOL0     C18165  -0.325   1.117   2.462  0.0969 -0.2732 -0.2362
  876MOL0     C18166  -0.478   1.132   2.483 -0.0308  0.0721 -0.0916
  876MOL0     C18167  -0.548   1.223   2.380 -0.2174  0.2301 -1.1923
  876MOL0     C18168  -0.698   1.197   2.375  0.7241 -0.1733  0.1871
  876MOL0    Cl18169  -0.774   1.320   2.268 -0.0505 -0.1469  0.6499
  876MOL0     C18170   0.362   0.857   2.883  0.3926  0.6061 -0.9640
  876MOL0     C18171   0.491   0.867   2.928 -0.7758  0.6745  0.2933
  876MOL0     O18172   0.767   0.762   2.955 -0.4703 -0.0749  0.1725
  876MOL0     C18173   1.003   0.826   3.080 -0.5058  0.3393  0.5913
  876MOL0     C18174   1.138   0.852   3.115 -1.3184 -0.4644 -0.4153
  876MOL0     N18175   1.376   0.458   3.066 -0.3727 -0.3498 -0.1846
  876MOL0     N18176   1.292   0.428   2.978 -0.4831 -0.6457  0.1738
  876MOL0     C18177   0.690   1.195   2.329  0.0958 -0.1050  0.0382
  876MOL0     C18178   0.553   1.220   2.345  0.7128  0.0161 -0.0860
  876MOL0     C18179   0.158   1.368   2.317  0.1517 -0.1989 -0.6077
  876MOL0     C18180   0.136   1.495   2.377  0.2359  0.9999  0.0111
  876MOL0     C18181   0.002   1.540   2.406 -0.5172  0.0230  0.0176
  876MOL0     C18182  -0.104   1.470   2.350  0.5407 -0.7156 -0.0709
  876MOL0     O18183  -0.234   1.521   2.320 -0.1792 -0.3865 -0.5988
  876MOL0     C18184  -0.249   1.665   2.302 -0.4011  0.9777  0.6609
  876MOL0     C18185  -0.195   1.697   2.159 -0.0911 -0.5848 -0.9228
  876MOL0     C18186  -0.267   1.617   2.053  0.7089  0.3456 -0.2111
  876MOL0     C18187  -0.195   1.606   1.915 -0.0240 -0.5856  0.0829
  876MOL0     C18188  -0.294   1.588   1.806 -0.2082 -0.5190 -0.2672
  876MOL0     C18189  -0.371   1.585   1.710 -0.6644 -0.2177 -0.3862
  876MOL0     C18190  -0.078   1.350   2.285 -1.5401 -0.1450 -0.2864
  876MOL0     C18191   0.051   1.287   2.283 -0.0353 -0.0271 -0.0247
  876MOL0     C18192   0.065   1.152   2.219  0.3624 -0.4834  0.5400
  876MOL0     H18193   0.434   1.118   2.054 -0.2803  2.2259 -0.7801
  876MOL0     H18194   0.680   1.067   2.013 -1.2341  0.8869 -1.1436
  876MOL0     H18195   1.068   1.089   2.259 -0.8494 -2.4786 -0.9430
  876MOL0     H18196   0.955   1.178   2.370  2.3806 -0.5666  1.1468
  876MOL0     H18197   0.971   0.885   2.323 -0.1821 -0.1268 -0.3155
  876MOL0     H18198   0.835   0.974   2.406 -0.2345 -2.5762 -0.1349
  876MOL0     H18199   0.949   1.009   2.591 -1.1414  1.4172 -2.7606
  876MOL0     H18200   1.110   1.014   2.522 -1.0625  2.5141 -1.9579
  876MOL0     H18201   0.932   0.760   2.562  0.0226  0.5574 -1.1830
  876MOL0     H18202   1.082   0.749   2.476 -0.1251  1.3824 -1.1600
  876MOL0     H18203   1.135   0.894   2.724  1.1260  0.6395 -5.7653
  876MOL0     H18204   1.024   0.763   2.781  0.5733 -1.5633  0.2633
  876MOL0     H18205   1.288   0.723   2.634 -1.3166  0.2737 -1.5121
  876MOL0     H18206   1.258   0.723   2.806  2.3185 -0.6482 -0.0233
  876MOL0     H18207   1.115   0.537   2.616 -0.9663 -0.4806 -0.4282
  876MOL0     H18208   1.086   0.547   2.794  0.8416  3.7547 -0.0618
  876MOL0     H18209   1.236   0.349   2.723  2.7862 -0.9414 -4.7502
  876MOL0     H18210   1.344   0.464   2.654 -0.6550 -0.9505 -0.7723
  876MOL0     H18211   1.517   0.591   2.808  1.1801 -2.1496 -0.4512
  876MOL0     H18212   1.643   0.541   3.125  0.4642 -1.2396 -2.3790
  876MOL0     H18213   1.645   0.679   3.005  1.6095  1.4916  2.0135
  876MOL0     H18214   1.439   0.673   3.239 -0.1463  2.8626  1.9517
  876MOL0     H18215   1.600   0.742   3.241  0.9956 -2.0296  0.1448
  876MOL0     H18216   1.384   0.796   3.035 -0.1758  0.8727 -0.6653
  876MOL0     H18217   1.537   0.879   3.030 -0.5246  0.0131 -0.7842
  876MOL0     H18218   1.486   1.000   3.239 -0.3945  1.5177 -1.6891
  876MOL0     H18219   1.341   0.901   3.275 -2.3082  2.0512  0.7535
  876MOL0     H18220   1.133   1.178   3.033 -0.6501  0.1366 -0.4923
  876MOL0     H18221   0.903   1.126   2.959  2.7908  0.8978  0.1699
  876MOL0     H18222   0.622   1.036   2.666 -0.1574  1.1593  0.2509
  876MOL0     H18223   0.387   0.995   2.579 -1.6189 -0.3842  0.2220
  876MOL0     H18224   0.179   1.068   2.625  2.4736 -1.5872 -0.7275
  876MOL0     H18225   0.154   0.923   2.531  3.4246  1.3026  0.4088
  876MOL0     H18226  -0.075   0.884   2.670 -1.0551  0.4979  0.2391
  876MOL0     H18227  -0.039   1.036   2.755 -0.2280 -0.6228  0.3368
  876MOL0     H18228  -0.080   1.156   2.544 -0.7292 -0.1761  0.6586
  876MOL0     H18229  -0.073   1.001   2.457 -0.0390 -1.0199  0.2114
  876MOL0     H18230  -0.273   1.072   2.681  1.2634  1.7929  0.0373
  876MOL0     H18231  -0.290   0.936   2.577 -1.2032  0.7343  0.6078
  876MOL0     H18232  -0.301   1.075   2.364 -2.3707  1.5090 -1.7247
  876MOL0     H18233  -0.285   1.219   2.459 -0.0089 -0.2558 -1.5887
  876MOL0     H18234  -0.533   1.038   2.494 -0.5252  0.4886  1.2191
  876MOL0     H18235  -0.489   1.181   2.581  0.8613 -0.7292  0.4242
  876MOL0     H18236  -0.499   1.201   2.285  2.3613 -2.0615  0.5027
  876MOL0     H18237  -0.520   1.324   2.411  1.1437 -0.8830  1.5689
  876MOL0     H18238  -0.720   1.100   2.330 -1.5144 -0.0139  0.8045
  876MOL0     H18239  -0.742   1.200   2.475  0.8186  0.1262  0.2190
  876MOL0     H18240   0.298   0.796   2.946  2.5246 -1.5949 -0.7728
  876MOL0     H18241   0.518   0.834   3.028  4.6892  4.6931  0.6488
  876MOL0     H18242   0.968   0.724   3.095  1.5382 -0.4375  0.3120
  876MOL0     H18243   1.198   0.773   3.160 -3.0178 -1.5648  0.0065
  876MOL0     H18244   0.751   1.209   2.418  1.6093  3.5036 -1.3742
  876MOL0     H18245   0.513   1.280   2.427  1.0265  3.5720 -2.2929
  876MOL0     H18246   0.224   1.551   2.406  0.8789  0.7512 -1.3789
  876MOL0     H18247  -0.013   1.631   2.464 -1.5615 -0.5158  0.6388
  876MOL0     H18248  -0.193   1.716   2.381  0.9691  1.9663 -0.8869
  876MOL0     H18249  -0.356   1.686   2.300 -0.5698  1.3253 -5.1001
  876MOL0     H18250  -0.089   1.669   2.158  0.7709  2.1538  1.2205
  876MOL0     H18251  -0.208   1.803   2.137  0.4165 -0.0203  1.1925
  876MOL0     H18252  -0.374   1.639   2.047  0.8043  0.8347 -0.1439
  876MOL0     H18253  -0.264   1.511   2.082 -3.7241 -0.1343 -0.8324
  876MOL0     H18254  -0.152   1.706   1.906 -2.6513  0.8376  2.2641
  876MOL0     H18255  -0.128   1.520   1.905 -2.0751 -2.1335 -1.2895
  876MOL0     H18256  -0.444   1.581   1.632 -0.5082 -3.8024 -0.5237
  876MOL0     H18257  -0.163   1.304   2.237 -0.5825 -0.3707 -1.8503
  876MOL0     H18258  -0.033   1.104   2.210 -0.3187  0.9767 -0.1230
  876MOL0     H18259   0.099   1.153   2.115  0.8501 -2.3456  0.6552
  876MOL0     H18260   0.134   1.101   2.286  3.3087  1.2116 -1.0187
  877MOL0     O18261   0.100  10.415   4.851  0.1288  0.4150  0.2708
  877MOL0     C18262   0.131  10.527   4.891 -0.9979  0.3877  0.2904
  877MOL0     O18263   0.262  10.568   4.899 -0.0357 -0.2599 -0.3097
  877MOL0     C18264   0.352  10.474   4.872 -0.3066 -0.0886 -0.5613
  877MOL0     C18265   0.393  10.401   4.976  1.2085 -0.6936 -0.6051
  877MOL0     C18266   0.497  10.305   4.962  0.2870 -0.6165  0.1132
  877MOL0     C18267   0.545  10.286   4.826  1.0626  0.9542 -0.4290
  877MOL0     O18268   0.652  10.202   4.824 -0.1140  0.4759  0.0513
  877MOL0     C18269   0.768  10.251   4.759 -0.4262 -0.1595 -0.3352
  877MOL0     C18270   0.889  10.177   4.814  0.1759  1.2274 -0.8142
  877MOL0     C18271   1.014  10.245   4.770  0.3099 -0.2366 -0.4540
  877MOL0     C18272   1.134  10.172   4.832  0.0248 -0.7069 -0.3682
  877MOL0     C18273   1.270  10.229   4.799 -0.1749  0.4125 -0.8739
  877MOL0     C18274   1.379  10.180   4.894  0.0364 -0.1893 -0.2887
  877MOL0     C18275   1.511  10.184   4.824  0.6030  0.7124 -0.3174
  877MOL0     C18276   1.560  10.324   4.807  0.3407 -1.2701 -0.2491
  877MOL0     N18277   1.699  10.335   4.755 -0.5590 -0.4277 -0.4239
  877MOL0     C18278   1.766  10.443   4.703 -0.2855 -0.3694  0.2900
  877MOL0     C18279   1.889  10.397   4.670 -0.0224 -0.6750 -1.7620
  877MOL0     C18280   1.997  10.485   4.613  0.6656 -0.1763  0.0511
  877MOL0     C18281   2.138  10.434   4.644  0.4989  0.0299  0.3180
  877MOL0     C18282   2.241  10.543   4.600 -0.5390  0.0485  0.4321
  877MOL0     C18283   2.265  10.562   4.451 -0.3422 -0.8275 -0.1199
  877MOL0     O18284   2.363  10.471   4.406  0.1856  0.5157 -0.5103
  877MOL0     C18285   2.497  10.508   4.419 -0.5647  0.0928  0.0864
  877MOL0     C18286   2.593  10.438   4.349 -0.9055  0.1747 -0.2606
  877MOL0     C18287   2.721  10.477   4.341 -0.0914  0.8182 -0.6090
  877MOL0     C18288   2.771  10.591   4.422  0.4216  0.5951  0.2874
  877MOL0     C18289   2.910  10.638   4.416 -0.3687  0.5111  0.1187
  877MOL0     O18290   2.999  10.597   4.326 -0.2741  0.3125 -0.1041
  877MOL0     C18291   3.132  10.632   4.324 -0.4776  0.3811  0.4095
  877MOL0     C18292   3.197  10.739   4.387  0.3721  0.2423 -0.0213
  877MOL0     C18293   3.326  10.773   4.363  0.4129 -0.1872 -0.0757
  877MOL0     C18294   3.403  10.708   4.262 -0.4158 -0.2178  0.1924
  877MOL0     O18295   3.536  10.740   4.235  0.4771 -0.8292  0.5116
  877MOL0     C18296   3.608  10.797   4.340 -1.2327  0.1911  0.2190
  877MOL0     C18297   3.756  10.774   4.304 -0.1644 -0.3198  0.7872
  877MOL0     C18298   3.810  10.874   4.196 -0.4962 -0.3326 -0.3365
  877MOL0     C18299   3.962  10.839   4.175  0.3498 -0.4137 -0.0944
  877MOL0     C18300   4.024  10.963   4.095 -0.1015 -0.0789  0.3588
  877MOL0     C18301   4.163  10.925   4.049  0.7243  0.2891 -0.4386
  877MOL0     C18302   4.248  11.044   3.990  0.8303  0.1019 -1.2995
  877MOL0     C18303   4.386  11.009   3.936  0.2371 -0.0298  0.7048
  877MOL0    Cl18304   4.339  10.908   3.782  0.4635 -0.7960 -0.1845
  877MOL0     C18305   3.337  10.601   4.194  0.1407  0.1520  0.1873
  877MOL0     C18306   3.205  10.568   4.224 -0.8868  0.6825 -0.6119
  877MOL0     O18307   2.942  10.689   4.522  0.0065  0.5581  0.3725
  877MOL0     C18308   2.677  10.646   4.512 -0.3506  0.0898 -0.0905
  877MOL0     C18309   2.547  10.610   4.502  0.3636  0.6370 -0.6840
  877MOL0     N18310   1.888  10.264   4.689  0.9433  1.0517  0.0150
  877MOL0     N18311   1.772  10.222   4.729 -0.8928  0.6694  0.1217
  877MOL0     C18312   0.498  10.358   4.721  0.6322  0.0805 -1.0124
  877MOL0     C18313   0.391  10.448   4.740 -0.3384 -0.8455 -0.0804
  877MOL0     C18314   0.026  10.622   4.912  1.3258 -0.5707 -1.4547
  877MOL0     C18315  -0.109  10.578   4.881 -0.9274 -0.1209 -1.1663
  877MOL0     C18316  -0.220  10.664   4.904 -0.2703  0.6064 -0.2122
  877MOL0     C18317  -0.196  10.792   4.953 -0.2073  0.0903  0.2154
  877MOL0     O18318  -0.299  10.869   4.992 -0.1047 -0.4522 -0.6855
  877MOL0     C18319  -0.374  10.821   5.101 -0.3151  0.5814 -0.7303
  877MOL0     C18320  -0.280  10.816   5.230  0.6083  0.4841  0.1169
  877MOL0     C18321  -0.233  10.960   5.270 -0.4332  1.1045  0.8771
  877MOL0     C18322  -0.140  10.956   5.384 -0.0154  0.7425 -0.7362
  877MOL0     C18323  -0.019  10.883   5.359 -0.5185  0.5528 -0.3885
  877MOL0     C18324   0.078  10.818   5.328  0.6421  0.6762  0.1168
  877MOL0     C18325  -0.068  10.838   4.960  0.5044 -0.1945 -0.0341
  877MOL0     C18326   0.043  10.760   4.947  0.0595 -0.2119 -0.4868
  877MOL0     C18327   0.168  10.824   4.979 -0.1173 -0.6406  0.5327
  877MOL0     H18328   0.335  10.401   5.068  2.2704  1.3067  0.1331
  877MOL0     H18329   0.524  10.239   5.044  2.5656 -0.0399 -0.1049
  877MOL0     H18330   0.758  10.226   4.653 -1.8736 -1.0991 -0.0076
  877MOL0     H18331   0.769  10.360   4.760 -4.1710  0.0054 -1.2249
  877MOL0     H18332   0.888  10.073   4.777 -0.5010  0.0440  2.2494
  877MOL0     H18333   0.885  10.172   4.923 -0.0504 -2.0785 -0.8773
  877MOL0     H18334   1.009  10.344   4.816 -0.7106 -1.2788  1.8053
  877MOL0     H18335   1.021  10.240   4.661 -1.1601  0.5825 -0.6046
  877MOL0     H18336   1.125  10.175   4.941 -1.4747 -0.1902 -0.4824
  877MOL0     H18337   1.133  10.066   4.805 -0.5856 -0.6471 -0.6069
  877MOL0     H18338   1.283  10.224   4.691  0.5014  0.8075 -0.8194
  877MOL0     H18339   1.262  10.336   4.821  0.8570  0.2147  0.6437
  877MOL0     H18340   1.377  10.242   4.984 -2.3647  0.7362 -0.8765
  877MOL0     H18341   1.352  10.076   4.913 -1.2145  0.4866  2.1065
  877MOL0     H18342   1.486  10.129   4.733 -3.1510  0.0833  0.8959
  877MOL0     H18343   1.586  10.125   4.877  0.8860 -0.1243 -1.6069
  877MOL0     H18344   1.487  10.388   4.756 -1.2783 -0.0841  3.2666
  877MOL0     H18345   1.547  10.374   4.903 -1.0670  0.4193 -1.2498
  877MOL0     H18346   1.728  10.545   4.704  0.0976 -0.2170  1.5520
  877MOL0     H18347   1.982  10.480   4.504 -1.8210 -2.1060  0.3993
  877MOL0     H18348   1.983  10.590   4.642 -0.6893  0.2124 -1.7726
  877MOL0     H18349   2.147  10.416   4.752 -0.9109 -0.5557  0.3608
  877MOL0     H18350   2.152  10.334   4.601 -0.2244  0.4257 -0.8479
  877MOL0     H18351   2.332  10.504   4.648  1.1514  1.6817 -1.3010
  877MOL0     H18352   2.214  10.635   4.651  0.7063  0.4597  0.3941
  877MOL0     H18353   2.297  10.666   4.447 -0.6564 -0.6436  1.3533
  877MOL0     H18354   2.167  10.550   4.405 -1.3713  2.7536  0.8490
  877MOL0     H18355   2.562  10.360   4.281  0.2089 -0.0019 -0.5745
  877MOL0     H18356   2.782  10.432   4.263 -0.2683 -2.9023  1.2104
  877MOL0     H18357   3.145  10.795   4.464 -3.1001 -1.2543 -1.0896
  877MOL0     H18358   3.364  10.857   4.420 -2.0744  0.3626  0.8775
  877MOL0     H18359   3.599  10.906   4.345  0.9659  0.3803  1.0406
  877MOL0     H18360   3.578  10.738   4.428  1.7167  0.1137  1.2988
  877MOL0     H18361   3.819  10.760   4.392  1.7300 -0.2391 -0.4881
  877MOL0     H18362   3.751  10.672   4.263  0.0811 -1.1115  2.6314
  877MOL0     H18363   3.756  10.878   4.101 -2.8420  2.2220  0.9253
  877MOL0     H18364   3.798  10.972   4.243 -1.5318 -1.8424  2.8682
  877MOL0     H18365   3.976  10.743   4.125  1.1072 -0.2502 -0.1998
  877MOL0     H18366   4.015  10.840   4.270  1.9918  0.4794 -0.9898
  877MOL0     H18367   4.022  11.060   4.146 -3.0043  0.3348 -0.3314
  877MOL0     H18368   3.957  10.978   4.010 -2.4440  0.4274  2.1623
  877MOL0     H18369   4.216  10.884   4.135 -1.0083 -1.1558 -0.0085
  877MOL0     H18370   4.153  10.842   3.978  1.0277 -2.5660  2.6166
  877MOL0     H18371   4.269  11.111   4.074 -0.2211  0.1580 -1.0727
  877MOL0     H18372   4.188  11.095   3.915  0.4801  1.6891 -0.0019
  877MOL0     H18373   4.433  11.105   3.912  1.0745 -0.5928  0.0170
  877MOL0     H18374   4.458  10.963   4.004  0.9483  0.0829  0.0391
  877MOL0     H18375   3.387  10.548   4.114  0.3820  0.7052 -0.0325
  877MOL0     H18376   3.145  10.497   4.167  0.2499  0.0355 -1.0510
  877MOL0     H18377   2.697  10.728   4.581 -3.5854 -0.7148  2.0679
  877MOL0     H18378   2.494  10.654   4.586  1.9325 -1.4021  1.5017
  877MOL0     H18379   0.540  10.342   4.623 -0.5883  2.1741 -1.9388
  877MOL0     H18380   0.357  10.492   4.647  1.3024  0.2903 -0.1930
  877MOL0     H18381  -0.132  10.481   4.839 -0.3728 -1.3471  1.1615
  877MOL0     H18382  -0.322  10.625   4.899  0.3295 -1.1246  0.4560
  877MOL0     H18383  -0.422  10.724   5.084  0.2995  0.3785 -1.3708
  877MOL0     H18384  -0.461  10.881   5.129  0.6464  1.8643 -0.3704
  877MOL0     H18385  -0.198  10.746   5.215  1.0070  0.7560  0.9816
  877MOL0     H18386  -0.336  10.771   5.312 -1.5810  0.0714 -1.4993
  877MOL0     H18387  -0.320  11.023   5.294 -2.9140 -1.6099 -0.3948
  877MOL0     H18388  -0.172  11.012   5.196  0.2873  1.1618  1.5046
  877MOL0     H18389  -0.125  11.061   5.411 -2.4117  0.6100  1.4305
  877MOL0     H18390  -0.184  10.906   5.471  0.3332 -0.8839 -1.4551
  877MOL0     H18391   0.152  10.749   5.294  0.0979 -0.0412  0.3447
  877MOL0     H18392  -0.071  10.947   4.959  0.9005 -0.1600 -1.8849
  877MOL0     H18393   0.237  10.808   4.895 -1.5723 -1.6820 -0.5195
  877MOL0     H18394   0.156  10.930   5.003 -0.3734 -0.6032  0.2517
  877MOL0     H18395   0.219  10.769   5.058  3.3811 -2.0604 -2.4230
  878MOL0     O18396   0.625   1.577   6.488 -0.9922 -0.2331 -0.0724
  878MOL0     C18397   0.678   1.675   6.444 -0.1064 -0.9784 -0.3859
  878MOL0     O18398   0.804   1.707   6.473 -0.0037  0.0529  0.2804
  878MOL0     C18399   0.888   1.653   6.565  0.4078  0.0613 -0.5073
  878MOL0     C18400   0.875   1.536   6.638 -0.2416 -0.3306 -0.0929
  878MOL0     C18401   0.986   1.485   6.707  0.7126 -0.4786 -0.2534
  878MOL0     C18402   1.100   1.556   6.729 -1.1970 -1.1428  0.6653
  878MOL0     O18403   1.211   1.505   6.806 -0.1713  0.3751 -0.5051
  878MOL0     C18404   1.345   1.545   6.793  0.1121 -0.1365 -0.2445
  878MOL0     C18405   1.428   1.458   6.895 -0.7315 -0.2770  0.4544
  878MOL0     C18406   1.568   1.516   6.884  0.2107 -0.6643 -0.0161
  878MOL0     C18407   1.662   1.441   6.978  0.3618 -0.3185 -0.4976
  878MOL0     C18408   1.805   1.502   6.963  0.0075 -0.3792 -0.0314
  878MOL0     C18409   1.898   1.433   7.051 -0.1007  0.0518 -0.2554
  878MOL0     C18410   2.017   1.511   7.097 -0.3699 -0.5585 -0.2748
  878MOL0     C18411   2.119   1.530   6.983 -0.8236  0.0289  0.4548
  878MOL0     N18412   2.238   1.595   7.043 -0.4698 -0.2839 -0.5253
  878MOL0     C18413   2.312   1.565   7.158  0.2133  0.5669  0.0452
  878MOL0     C18414   2.414   1.648   7.147 -0.2498  0.1454  0.6605
  878MOL0     C18415   2.526   1.647   7.253  0.4566  0.4822  0.0114
  878MOL0     C18416   2.555   1.504   7.308 -0.3010 -0.5910  0.4692
  878MOL0     C18417   2.612   1.413   7.208 -0.3244 -0.2471  0.0763
  878MOL0     C18418   2.677   1.290   7.275 -0.2794  0.3887 -0.2067
  878MOL0     O18419   2.739   1.223   7.157 -0.0770  0.8883 -0.3909
  878MOL0     C18420   2.872   1.230   7.148  0.4828 -0.1388  0.3423
  878MOL0     C18421   2.923   1.304   7.043  0.0176  0.2962  1.1069
  878MOL0     C18422   3.060   1.317   7.028  0.0310  0.3662 -0.0984
  878MOL0     C18423   3.149   1.240   7.103  0.6647 -0.1080 -0.8742
  878MOL0     C18424   3.302   1.242   7.072 -0.4244 -0.2781 -0.3857
  878MOL0     O18425   3.346   1.309   6.965 -0.1520  0.1422 -0.0452
  878MOL0     C18426   3.481   1.321   6.946 -0.6992 -1.0036  0.1186
  878MOL0     C18427   3.537   1.453   6.914  0.3421  0.4293 -0.7245
  878MOL0     C18428   3.665   1.465   6.861  0.0123  0.5656 -0.0758
  878MOL0     C18429   3.745   1.352   6.850 -0.7115 -0.7532  0.5471
  878MOL0     O18430   3.873   1.363   6.799  0.8761  0.1259 -0.7303
  878MOL0     C18431   3.966   1.414   6.896  0.4974  0.7612 -0.0562
  878MOL0     C18432   4.065   1.301   6.941 -0.8087 -0.2930 -0.4169
  878MOL0     C18433   4.158   1.275   6.817 -0.3207 -0.4363  0.4723
  878MOL0     C18434   4.276   1.374   6.795 -0.8829 -0.6819 -0.5084
  878MOL0     C18435   4.373   1.402   6.910 -0.2323  0.1041 -0.1176
  878MOL0     C18436   4.482   1.506   6.876 -0.2346  0.0681 -0.0005
  878MOL0     C18437   4.585   1.517   6.987  0.3138  1.0957  0.4660
  878MOL0     C18438   4.666   1.647   6.973  0.6831 -0.3511 -0.8067
  878MOL0    Cl18439   4.728   1.659   6.810 -0.0664 -0.0425  0.1687
  878MOL0     C18440   3.696   1.230   6.881 -0.8920 -0.0866  0.4141
  878MOL0     C18441   3.574   1.216   6.933 -0.3478  1.2093  0.9673
  878MOL0     O18442   3.365   1.174   7.151  0.1776  0.6783 -0.6597
  878MOL0     C18443   3.098   1.153   7.206  0.2008  0.3018  0.1671
  878MOL0     C18444   2.954   1.148   7.229  0.0630  0.3587 -0.8113
  878MOL0     N18445   2.413   1.729   7.034 -0.0337  1.0532  0.7373
  878MOL0     N18446   2.309   1.684   6.969  0.2022  0.3073  0.1093
  878MOL0     C18447   1.105   1.690   6.675  0.3911 -0.6117  0.4214
  878MOL0     C18448   0.999   1.731   6.587 -0.2515  0.0035 -0.4150
  878MOL0     C18449   0.605   1.758   6.349  0.0518  0.2732  0.4515
  878MOL0     C18450   0.512   1.691   6.264  0.2373 -0.9048 -0.6107
  878MOL0     C18451   0.443   1.764   6.171  0.6465  0.2623  0.4369
  878MOL0     C18452   0.444   1.899   6.160  0.3240 -0.0705 -0.0173
  878MOL0     O18453   0.370   1.959   6.055 -0.2908  0.3119 -0.1706
  878MOL0     C18454   0.377   2.108   6.044 -0.5618  0.3781 -0.8818
  878MOL0     C18455   0.286   2.160   6.152 -0.4069 -0.1237 -0.4565
  878MOL0     C18456   0.278   2.318   6.139  0.2835  0.1692 -0.2135
  878MOL0     C18457   0.407   2.389   6.161  0.0154 -0.7407  0.0554
  878MOL0     C18458   0.390   2.530   6.143 -0.4912 -0.0400  1.5114
  878MOL0     C18459   0.386   2.649   6.116 -0.3460  0.3181 -0.3759
  878MOL0     C18460   0.529   1.964   6.251 -0.3472 -0.5504  1.0337
  878MOL0     C18461   0.616   1.898   6.339  0.0243 -0.4105  0.1908
  878MOL0     C18462   0.683   1.984   6.435 -0.0364 -0.6222  0.1870
  878MOL0     H18463   0.785   1.475   6.633 -3.1853  3.5239  1.4199
  878MOL0     H18464   0.977   1.391   6.760  0.5814 -0.0090  0.5815
  878MOL0     H18465   1.384   1.538   6.691  2.2591  0.1706  0.5190
  878MOL0     H18466   1.348   1.650   6.824 -0.8630  0.2298 -1.2747
  878MOL0     H18467   1.427   1.352   6.870 -0.8368  0.2788 -2.2679
  878MOL0     H18468   1.390   1.464   6.997 -0.0287 -0.2724  0.7212
  878MOL0     H18469   1.570   1.622   6.911 -0.4217 -0.6336 -0.0749
  878MOL0     H18470   1.600   1.494   6.782  0.5255  4.5949 -1.3386
  878MOL0     H18471   1.635   1.443   7.084 -0.3980  1.1227 -0.6970
  878MOL0     H18472   1.653   1.336   6.949  1.4092 -1.0314  1.5184
  878MOL0     H18473   1.841   1.493   6.860 -0.0823 -1.2980  0.0128
  878MOL0     H18474   1.794   1.603   7.003 -1.5101 -1.2479  1.9040
  878MOL0     H18475   1.853   1.418   7.149  0.5803 -2.7312 -0.2834
  878MOL0     H18476   1.923   1.336   7.007  0.4972  1.5122 -3.3966
  878MOL0     H18477   2.068   1.454   7.176 -1.4382 -0.4088  0.5419
  878MOL0     H18478   1.976   1.603   7.138 -0.0047 -0.5251  0.0205
  878MOL0     H18479   2.151   1.430   6.953 -0.2996  0.1456  0.6221
  878MOL0     H18480   2.074   1.593   6.906 -1.8070 -0.2025  0.8178
  878MOL0     H18481   2.281   1.494   7.234  1.4987 -0.4326 -0.3373
  878MOL0     H18482   2.612   1.705   7.219  0.5049  0.4594  0.0929
  878MOL0     H18483   2.485   1.705   7.337  1.7472  2.1365 -0.4521
  878MOL0     H18484   2.621   1.510   7.395  0.5241 -1.5795 -0.0733
  878MOL0     H18485   2.456   1.464   7.333 -0.8038  1.0175  1.1740
  878MOL0     H18486   2.690   1.450   7.141 -0.1291  0.3455  0.6154
  878MOL0     H18487   2.529   1.371   7.151  0.5685  0.0295 -1.4814
  878MOL0     H18488   2.601   1.227   7.322 -0.9041  0.0990 -1.5313
  878MOL0     H18489   2.753   1.321   7.347  0.1024  1.0648 -0.8840
  878MOL0     H18490   2.872   1.354   6.962  0.2366 -0.0235  0.7731
  878MOL0     H18491   3.100   1.384   6.953 -2.9904  1.1819 -1.1126
  878MOL0     H18492   3.469   1.537   6.919  0.3536  0.3897  2.3212
  878MOL0     H18493   3.698   1.562   6.827 -0.2846  1.0136  0.8766
  878MOL0     H18494   4.020   1.496   6.848 -0.9026  1.8549  0.1678
  878MOL0     H18495   3.919   1.456   6.985 -0.4739 -2.7324  1.2267
  878MOL0     H18496   4.123   1.345   7.023 -1.0678 -0.2337 -0.2658
  878MOL0     H18497   4.014   1.213   6.981  0.8661 -1.6163 -1.0638
  878MOL0     H18498   4.210   1.179   6.829 -0.0420 -0.3994 -0.3795
  878MOL0     H18499   4.105   1.263   6.722  2.1694  0.1860 -1.0615
  878MOL0     H18500   4.230   1.473   6.782  1.0209  0.2772 -0.3224
  878MOL0     H18501   4.321   1.366   6.695 -0.1334 -0.3994 -0.1985
  878MOL0     H18502   4.404   1.304   6.947 -1.3721 -0.9238 -1.7568
  878MOL0     H18503   4.319   1.447   6.993  1.5812 -0.4075  1.4210
  878MOL0     H18504   4.540   1.479   6.787 -0.4331 -1.0172  0.1811
  878MOL0     H18505   4.433   1.602   6.857  1.4859  1.0235  0.1537
  878MOL0     H18506   4.653   1.432   6.976  1.8733  2.5421 -1.9284
  878MOL0     H18507   4.528   1.514   7.081 -0.3627 -0.1195  0.0475
  878MOL0     H18508   4.599   1.730   7.001  2.8808  0.1933  3.9610
  878MOL0     H18509   4.748   1.648   7.045  2.0893 -0.6710 -2.3471
  878MOL0     H18510   3.757   1.141   6.866  1.2543  1.4242 -0.3082
  878MOL0     H18511   3.531   1.120   6.961 -0.9621 -0.0743 -3.5083
  878MOL0     H18512   3.171   1.096   7.264  1.9678  2.4294  0.1880
  878MOL0     H18513   2.910   1.082   7.303  0.6328  0.3314 -0.4929
  878MOL0     H18514   1.196   1.750   6.667  0.6503 -1.1154 -0.5646
  878MOL0     H18515   1.022   1.819   6.528 -2.3889  1.5969  0.9832
  878MOL0     H18516   0.488   1.586   6.280  0.3066 -0.7183  0.7749
  878MOL0     H18517   0.389   1.724   6.086  1.0912 -0.4098  0.4609
  878MOL0     H18518   0.350   2.141   5.943  0.6461 -0.8668 -1.6443
  878MOL0     H18519   0.483   2.130   6.054  0.2573 -3.0233 -0.8894
  878MOL0     H18520   0.328   2.127   6.248 -0.3661 -0.8924 -0.7297
  878MOL0     H18521   0.186   2.115   6.148 -1.5383  1.8376  2.3917
  878MOL0     H18522   0.197   2.348   6.206 -2.5340 -3.8349 -1.4253
  878MOL0     H18523   0.247   2.342   6.036 -0.1103 -1.9428 -0.6312
  878MOL0     H18524   0.433   2.370   6.265 -2.7788 -1.6212  0.6702
  878MOL0     H18525   0.491   2.351   6.101 -0.4991 -2.8186  0.5498
  878MOL0     H18526   0.390   2.755   6.102  0.7376  0.4839  0.9629
  878MOL0     H18527   0.551   2.070   6.254  1.9038 -0.9408  0.3843
  878MOL0     H18528   0.725   1.931   6.521  0.8381 -0.3471 -0.0695
  878MOL0     H18529   0.768   2.033   6.387 -0.3442  0.9239  1.1528
  878MOL0     H18530   0.624   2.071   6.466 -2.5530 -1.3732 -2.0766
  879MOL0     O18531   9.760   2.427   1.027  0.1769 -0.2571  0.1437
  879MOL0     C18532   9.652   2.401   1.082 -0.8848  0.5452 -0.4126
  879MOL0     O18533   9.631   2.399   1.214 -0.2048  0.0924  0.1681
  879MOL0     C18534   9.747   2.424   1.285  0.8688 -1.3500  1.1401
  879MOL0     C18535   9.813   2.321   1.358  1.1926  0.3182 -0.0664
  879MOL0     C18536   9.924   2.339   1.433  0.4640  0.6017  0.1037
  879MOL0     C18537   9.971   2.470   1.442  0.2741  0.1021 -0.6739
  879MOL0     O18538  10.067   2.498   1.537 -0.8159 -0.2356 -0.0755
  879MOL0     C18539  10.194   2.429   1.527 -0.2969 -0.7145  1.1047
  879MOL0     C18540  10.316   2.519   1.551 -0.3592  0.5527 -0.0610
  879MOL0     C18541  10.357   2.592   1.426 -0.4973  0.3146  0.5664
  879MOL0     C18542  10.448   2.711   1.448  0.0639 -0.1505 -1.1144
  879MOL0     C18543  10.504   2.754   1.319  0.6974  0.4062 -0.2794
  879MOL0     C18544  10.531   2.903   1.305 -0.5688  0.1301  0.0061
  879MOL0     C18545  10.657   2.922   1.385 -1.0653 -0.0676  1.1965
  879MOL0     C18546  10.683   3.076   1.380  0.6105 -1.4324 -0.0148
  879MOL0     N18547  10.802   3.109   1.452 -0.3113 -0.7540 -0.2027
  879MOL0     C18548  10.820   3.070   1.590 -0.2639 -0.4900  0.7330
  879MOL0     C18549  10.951   3.105   1.613  0.5408  0.4385  0.5231
  879MOL0     C18550  11.007   3.094   1.750  0.7800  0.1789 -0.9529
  879MOL0     C18551  11.062   3.220   1.813 -0.0580  0.4261 -0.2916
  879MOL0     C18552  11.205   3.254   1.756 -0.3640  0.6131  0.7535
  879MOL0     C18553  11.292   3.331   1.853 -0.0783 -0.6259 -0.0226
  879MOL0     O18554  11.338   3.251   1.965 -0.2118  0.2471 -0.1753
  879MOL0     C18555  11.446   3.168   1.940 -0.4154 -0.2836  0.6844
  879MOL0     C18556  11.583   3.200   1.968  0.8185 -0.1393 -1.1929
  879MOL0     C18557  11.689   3.116   1.947  0.5757  0.5132 -0.6842
  879MOL0     C18558  11.670   2.990   1.886 -0.3139 -0.1724 -0.0300
  879MOL0     C18559  11.775   2.888   1.872 -0.6361 -0.5475 -0.2547
  879MOL0     O18560  11.895   2.908   1.934  0.2050 -0.3224  0.3144
  879MOL0     C18561  11.996   2.812   1.933 -0.5013  0.7279  0.7057
  879MOL0     C18562  11.991   2.672   1.911  0.1981 -0.3198 -0.0919
  879MOL0     C18563  12.100   2.587   1.901 -0.2714  0.6096 -0.5370
  879MOL0     C18564  12.231   2.639   1.909 -0.2694  0.2841  0.0780
  879MOL0     O18565  12.342   2.558   1.905 -0.2641  0.2502  0.0972
  879MOL0     C18566  12.338   2.417   1.918  0.6882 -0.0380 -0.1533
  879MOL0     C18567  12.472   2.363   1.870 -0.9862 -0.0842 -0.0707
  879MOL0     C18568  12.598   2.404   1.961 -0.6214  0.3909  0.6964
  879MOL0     C18569  12.721   2.351   1.895 -0.1481  0.3781  0.8274
  879MOL0     C18570  12.854   2.398   1.962 -0.4217 -0.7375  0.0294
  879MOL0     C18571  12.877   2.547   1.974  0.1620  0.5403 -0.1917
  879MOL0     C18572  13.007   2.585   2.043  0.3945  0.2535 -0.2669
  879MOL0     C18573  13.023   2.734   2.049 -0.6897 -0.1004 -0.5686
  879MOL0    Cl18574  12.902   2.802   2.162  0.1955 -0.2416 -0.1746
  879MOL0     C18575  12.236   2.770   1.939  0.4148 -0.3644  0.5077
  879MOL0     C18576  12.120   2.855   1.953 -1.4489  1.4264 -0.4799
  879MOL0     O18577  11.748   2.791   1.802  0.0492  0.4603 -0.1082
  879MOL0     C18578  11.536   2.959   1.839  0.4584 -0.6659  0.3433
  879MOL0     C18579  11.432   3.047   1.871 -0.6511 -0.7059 -0.3094
  879MOL0     N18580  11.004   3.172   1.503  0.2561  0.6768  0.3903
  879MOL0     N18581  10.909   3.179   1.409 -0.2658 -0.1016 -0.1240
  879MOL0     C18582   9.911   2.577   1.368  0.8375 -0.6342 -0.0579
  879MOL0     C18583   9.796   2.558   1.299 -0.7095  0.0752  0.2680
  879MOL0     C18584   9.538   2.387   0.999  0.0131 -0.0965  0.6694
  879MOL0     C18585   9.426   2.467   1.035 -0.5068 -0.1641 -1.1073
  879MOL0     C18586   9.309   2.464   0.966  0.6026  0.1506  0.6678
  879MOL0     C18587   9.287   2.387   0.852 -0.5196 -0.6209 -0.4822
  879MOL0     O18588   9.178   2.376   0.773 -0.1256 -0.3644  0.5572
  879MOL0     C18589   9.048   2.422   0.812  0.0963 -0.5616 -0.4683
  879MOL0     C18590   8.949   2.346   0.729 -0.8935 -0.0811  0.0003
  879MOL0     C18591   8.814   2.405   0.710  1.4264 -0.2787 -0.4736
  879MOL0     C18592   8.735   2.297   0.653 -0.2350 -0.0068  1.3560
  879MOL0     C18593   8.607   2.341   0.595  0.8007 -0.1259 -0.1997
  879MOL0     C18594   8.506   2.361   0.534  0.7115 -0.4606  0.2316
  879MOL0     C18595   9.400   2.318   0.815 -0.1010  0.8964  0.8855
  879MOL0     C18596   9.520   2.305   0.885  0.3587 -0.0679 -0.2224
  879MOL0     C18597   9.616   2.201   0.837 -0.4707 -0.2205  0.6058
  879MOL0     H18598   9.767   2.223   1.356 -1.6429  1.5409 -0.1648
  879MOL0     H18599   9.956   2.262   1.501 -0.2171  1.0622  0.9664
  879MOL0     H18600  10.181   2.348   1.599  1.1129 -2.8392 -0.8925
  879MOL0     H18601  10.204   2.382   1.429 -1.9086  0.1252  0.4878
  879MOL0     H18602  10.393   2.447   1.582 -1.1099 -0.1913  0.1117
  879MOL0     H18603  10.303   2.590   1.633 -0.8874  1.5689 -1.0058
  879MOL0     H18604  10.267   2.623   1.371 -0.1103 -3.2460 -2.4582
  879MOL0     H18605  10.407   2.522   1.358  0.4548  1.8194 -0.3574
  879MOL0     H18606  10.392   2.792   1.495 -0.9883 -0.3685 -1.9695
  879MOL0     H18607  10.526   2.688   1.521 -1.6998  0.9988  1.2631
  879MOL0     H18608  10.585   2.686   1.294  1.1296  1.6169 -2.4614
  879MOL0     H18609  10.426   2.732   1.246 -0.3217  0.9257  0.6180
  879MOL0     H18610  10.542   2.925   1.199 -2.7898 -2.3796 -0.8589
  879MOL0     H18611  10.444   2.955   1.347 -1.0797 -1.4047  0.9340
  879MOL0     H18612  10.743   2.881   1.332  0.2138  2.4183  1.2102
  879MOL0     H18613  10.653   2.891   1.490  0.3088 -0.0929  1.2639
  879MOL0     H18614  10.683   3.110   1.276 -3.5126 -0.4759  0.1025
  879MOL0     H18615  10.601   3.135   1.424 -0.8919 -1.8160 -2.1806
  879MOL0     H18616  10.742   3.026   1.651  0.2880 -1.2935  0.8685
  879MOL0     H18617  10.926   3.063   1.816  1.9984 -0.7612  0.1646
  879MOL0     H18618  11.078   3.011   1.755 -1.1931 -1.8647 -3.7561
  879MOL0     H18619  10.994   3.301   1.783 -0.2439  0.4028  0.0657
  879MOL0     H18620  11.052   3.217   1.922  1.5422  2.3163 -0.0333
  879MOL0     H18621  11.196   3.303   1.658  0.3117 -1.6546 -0.5053
  879MOL0     H18622  11.257   3.161   1.733 -1.2416  0.5998 -1.4436
  879MOL0     H18623  11.227   3.409   1.891  0.2320 -0.6401  0.5417
  879MOL0     H18624  11.375   3.374   1.795 -0.9484 -1.0032 -1.6224
  879MOL0     H18625  11.598   3.293   2.020 -2.5239 -0.3005  0.3065
  879MOL0     H18626  11.790   3.149   1.970  1.7037 -1.4683 -2.4432
  879MOL0     H18627  11.894   2.625   1.921  0.4789 -0.6475  1.3196
  879MOL0     H18628  12.088   2.479   1.890  2.2146  0.0361  1.3070
  879MOL0     H18629  12.315   2.379   2.018  2.7414 -1.4860 -0.1701
  879MOL0     H18630  12.263   2.375   1.851  0.2539 -2.7147  1.8339
  879MOL0     H18631  12.462   2.254   1.863  0.2547 -0.3786  1.9617
  879MOL0     H18632  12.489   2.397   1.768  2.1892 -1.2935 -0.0423
  879MOL0     H18633  12.602   2.511   1.985  0.0249  1.0275 -1.9813
  879MOL0     H18634  12.598   2.354   2.059  0.2875  0.5242  0.7747
  879MOL0     H18635  12.717   2.377   1.789  2.5748  1.6006  0.9189
  879MOL0     H18636  12.711   2.243   1.896  0.1480  0.2438 -2.0683
  879MOL0     H18637  12.937   2.354   1.905  1.2813  1.9206  0.2609
  879MOL0     H18638  12.861   2.359   2.064 -1.7732  1.4358  1.0087
  879MOL0     H18639  12.880   2.591   1.874  0.1734  0.8125 -0.0740
  879MOL0     H18640  12.795   2.586   2.036 -1.4019 -2.8005  0.0440
  879MOL0     H18641  13.093   2.555   1.983  1.9949  1.0622  1.4895
  879MOL0     H18642  13.021   2.545   2.144  0.1204  1.8644  0.4383
  879MOL0     H18643  13.124   2.751   2.086 -1.1755 -0.8846  1.2331
  879MOL0     H18644  13.028   2.780   1.950  2.2698  0.0886 -0.4076
  879MOL0     H18645  12.329   2.827   1.938  1.1341 -1.4847 -0.9096
  879MOL0     H18646  12.125   2.961   1.979  0.2780  1.0855  0.7439
  879MOL0     H18647  11.518   2.867   1.785 -0.1464 -0.0168 -0.6054
  879MOL0     H18648  11.334   3.002   1.861  0.0105 -2.2225 -0.1794
  879MOL0     H18649   9.961   2.672   1.383 -0.0717  0.0611 -1.2270
  879MOL0     H18650   9.748   2.636   1.240 -1.3263 -0.8534 -0.4947
  879MOL0     H18651   9.426   2.536   1.119 -3.0478 -3.0800  1.5835
  879MOL0     H18652   9.230   2.527   1.007  0.2698 -0.5511  1.1190
  879MOL0     H18653   9.051   2.529   0.789  1.3782 -0.5788 -0.4358
  879MOL0     H18654   9.026   2.411   0.919  0.2411 -0.2417 -0.4061
  879MOL0     H18655   8.948   2.241   0.757  1.8273 -0.5125 -1.2248
  879MOL0     H18656   8.989   2.338   0.627 -2.4946  1.0298 -0.7691
  879MOL0     H18657   8.821   2.502   0.659  2.6496 -0.3026 -0.3726
  879MOL0     H18658   8.769   2.416   0.809  3.0123 -0.5553  0.3035
  879MOL0     H18659   8.789   2.242   0.576  0.1225 -0.5778  2.0036
  879MOL0     H18660   8.721   2.220   0.729  0.9881 -2.7446 -0.9977
  879MOL0     H18661   8.414   2.370   0.480  0.1135 -1.0620  1.1287
  879MOL0     H18662   9.391   2.258   0.725  1.2246  0.4425  1.0393
  879MOL0     H18663   9.584   2.097   0.848  2.3463 -1.6567 -2.8041
  879MOL0     H18664   9.623   2.223   0.730 -0.4655  2.3169  1.0583
  879MOL0     H18665   9.713   2.218   0.883 -0.6188 -0.3717  0.9793
  880MOL0     O18666  10.621   8.260   9.776  0.4039  0.7098  0.0115
  880MOL0     C18667  10.588   8.313   9.672  0.6087  0.8228 -0.2630
  880MOL0     O18668  10.662   8.385   9.588  0.0461  0.0635 -0.2499
  880MOL0     C18669  10.793   8.375   9.625  0.2229  0.1319 -0.8337
  880MOL0     C18670  10.880   8.277   9.571 -0.1191 -0.8720 -0.4992
  880MOL0     C18671  11.013   8.271   9.619 -0.2270 -0.1043 -0.1754
  880MOL0     C18672  11.063   8.363   9.711 -0.6420  0.1163 -0.0362
  880MOL0     O18673  11.193   8.353   9.763  0.2353 -0.5782 -0.3077
  880MOL0     C18674  11.265   8.239   9.755  0.6828  0.4059  0.5194
  880MOL0     C18675  11.367   8.264   9.870  0.1393 -0.6867 -0.0957
  880MOL0     C18676  11.468   8.381   9.851 -0.1325 -0.3184  1.0466
  880MOL0     C18677  11.572   8.363   9.967  0.6626 -0.6111 -0.5954
  880MOL0     C18678  11.677   8.480   9.966 -0.1403 -0.5505 -0.5301
  880MOL0     C18679  11.770   8.456  10.090 -0.1290  0.1044 -0.3398
  880MOL0     C18680  11.902   8.529  10.095 -0.3236  0.7670 -0.3661
  880MOL0     C18681  11.975   8.522  10.225 -0.6215  0.2645 -0.1444
  880MOL0     N18682  12.108   8.586  10.213  0.0552  0.2569 -0.0332
  880MOL0     C18683  12.203   8.547  10.117 -0.2077  0.9888 -0.4322
  880MOL0     C18684  12.297   8.643  10.127  0.0923 -0.5281  0.0199
  880MOL0     C18685  12.427   8.671  10.053  0.6098 -0.1120 -0.5442
  880MOL0     C18686  12.514   8.548  10.023  0.6927 -0.4350 -1.0172
  880MOL0     C18687  12.652   8.595   9.962  0.1390 -0.0590  0.2022
  880MOL0     C18688  12.643   8.637   9.811  0.6149  0.4723  0.3320
  880MOL0     O18689  12.746   8.585   9.734 -0.1072 -1.2861 -0.1921
  880MOL0     C18690  12.871   8.647   9.746  0.0075 -0.0141 -0.4962
  880MOL0     C18691  12.901   8.765   9.812 -0.2255 -0.8600 -0.3191
  880MOL0     C18692  13.033   8.796   9.833  0.2096 -0.5515  0.2752
  880MOL0     C18693  13.138   8.725   9.780  1.2540  0.1077  0.1432
  880MOL0     C18694  13.276   8.756   9.808 -0.0284  0.7320 -0.4237
  880MOL0     O18695  13.297   8.880   9.865 -0.2107  0.1973 -0.2269
  880MOL0     C18696  13.420   8.944   9.901  0.5107 -0.1518  0.1614
  880MOL0     C18697  13.540   8.903   9.849 -0.1597 -0.3488 -0.3763
  880MOL0     C18698  13.656   8.966   9.888 -0.6625 -0.4848 -0.0891
  880MOL0     C18699  13.647   9.078   9.982 -0.5694 -0.1549 -0.4889
  880MOL0     O18700  13.770   9.142  10.022  0.1689  0.6540 -0.5418
  880MOL0     C18701  13.801   9.163  10.162  0.6017 -0.9376  0.1022
  880MOL0     C18702  13.938   9.231  10.177  0.3600 -0.8729 -0.0072
  880MOL0     C18703  13.933   9.385  10.166 -0.0081  0.2085 -0.8637
  880MOL0     C18704  14.077   9.446  10.160  0.2106  0.4455  0.0690
  880MOL0     C18705  14.088   9.576  10.234  0.9387 -0.6910 -0.4849
  880MOL0     C18706  14.236   9.612  10.237 -0.2616 -0.5593  0.4533
  880MOL0     C18707  14.254   9.759  10.288 -0.3221  0.5967  0.5227
  880MOL0     C18708  14.399   9.799  10.269  0.0610 -0.5575 -0.6639
  880MOL0    Cl18709  14.437   9.824  10.095 -0.5226  0.1911  0.0580
  880MOL0     C18710  13.523   9.114  10.034  0.1013 -0.2810 -0.3177
  880MOL0     C18711  13.407   9.054   9.990 -0.3017  0.6924 -0.0954
  880MOL0     O18712  13.363   8.667   9.800  0.3872 -0.1640  0.1457
  880MOL0     C18713  13.108   8.621   9.691 -0.1655 -0.7143 -0.0099
  880MOL0     C18714  12.973   8.575   9.680 -0.0008 -0.0372 -0.4663
  880MOL0     N18715  12.265   8.729  10.231 -0.2152  0.2185 -0.0130
  880MOL0     N18716  12.147   8.698  10.276 -0.0853 -0.4260 -0.2441
  880MOL0     C18717  10.977   8.463   9.758 -0.6864  0.8230 -1.5796
  880MOL0     C18718  10.843   8.465   9.712 -0.2136 -1.0261  0.2345
  880MOL0     C18719  10.453   8.266   9.626 -0.0446  0.2120 -0.9837
  880MOL0     C18720  10.436   8.253   9.485  0.3914  0.1375 -0.1624
  880MOL0     C18721  10.315   8.192   9.432  0.1685 -0.7211  1.2950
  880MOL0     C18722  10.214   8.175   9.516 -0.5458  0.0031  0.1419
  880MOL0     O18723  10.094   8.128   9.459  0.0915 -0.2209  0.0426
  880MOL0     C18724   9.987   8.219   9.464  0.6018 -0.6347 -0.8529
  880MOL0     C18725   9.851   8.142   9.465  0.4666  0.1670  0.9370
  880MOL0     C18726   9.826   8.069   9.594  0.2044  0.7156  0.6810
  880MOL0     C18727   9.799   8.162   9.713  0.1768  0.9510 -0.2466
  880MOL0     C18728   9.862   8.109   9.835  0.0734 -0.2956  0.0047
  880MOL0     C18729   9.900   8.069   9.939 -0.4117 -0.0176  0.6256
  880MOL0     C18730  10.220   8.201   9.653 -0.0907 -0.0201 -0.7838
  880MOL0     C18731  10.341   8.247   9.714  0.6335  0.4736  0.2748
  880MOL0     C18732  10.337   8.259   9.869 -0.4585  0.3724  0.5112
  880MOL0     H18733  10.841   8.200   9.505  1.5036 -0.4246 -2.0815
  880MOL0     H18734  11.075   8.192   9.579  0.6928  0.4589  0.1117
  880MOL0     H18735  11.203   8.150   9.774  3.2017 -1.6955 -0.4597
  880MOL0     H18736  11.313   8.229   9.657 -1.4972 -0.8669 -0.5149
  880MOL0     H18737  11.416   8.168   9.892 -1.3706 -1.2003  1.2662
  880MOL0     H18738  11.314   8.289   9.963 -2.4135  0.2423 -1.7011
  880MOL0     H18739  11.420   8.480   9.855  2.0175  0.8265  0.3082
  880MOL0     H18740  11.521   8.373   9.756  0.4232 -0.3023  1.3551
  880MOL0     H18741  11.528   8.350  10.066  0.6572 -0.5248 -0.5866
  880MOL0     H18742  11.625   8.272   9.938  0.5555 -0.5114 -1.1179
  880MOL0     H18743  11.731   8.480   9.871 -2.6253  0.1674 -2.0185
  880MOL0     H18744  11.626   8.575   9.988 -0.7375 -1.6532  3.9317
  880MOL0     H18745  11.701   8.479  10.171  0.3426  0.8675 -0.1374
  880MOL0     H18746  11.796   8.350  10.095  1.1158  0.2501 -2.4078
  880MOL0     H18747  11.885   8.633  10.069  1.1754  1.2167  0.3611
  880MOL0     H18748  11.963   8.479  10.019  0.3352 -3.0836  2.3698
  880MOL0     H18749  11.923   8.583  10.300 -0.6458  3.1089 -2.3126
  880MOL0     H18750  11.987   8.417  10.253 -0.5140 -0.6941 -3.3836
  880MOL0     H18751  12.208   8.459  10.054  3.5260  0.9763 -0.3697
  880MOL0     H18752  12.403   8.725   9.961  1.3846 -2.6514 -2.3607
  880MOL0     H18753  12.491   8.733  10.116  2.0052 -1.5665 -0.4673
  880MOL0     H18754  12.527   8.491  10.115  0.0091 -1.3550 -1.4791
  880MOL0     H18755  12.452   8.492   9.952 -0.4285 -0.1458 -0.2735
  880MOL0     H18756  12.722   8.512   9.976 -0.3121 -0.3043  1.0588
  880MOL0     H18757  12.702   8.675  10.017 -0.1989 -0.5683  1.2744
  880MOL0     H18758  12.642   8.747   9.804  1.4415  0.6240  2.0632
  880MOL0     H18759  12.542   8.615   9.775  0.7821  0.7963 -0.3514
  880MOL0     H18760  12.835   8.847   9.839  2.6543  1.8955 -1.0111
  880MOL0     H18761  13.053   8.884   9.893 -0.1973 -2.6117  3.7099
  880MOL0     H18762  13.534   8.821   9.778 -0.9716  0.2583 -1.0229
  880MOL0     H18763  13.755   8.943   9.851  0.0244  3.4459 -1.0861
  880MOL0     H18764  13.726   9.223  10.215  0.2002 -0.9268 -0.4725
  880MOL0     H18765  13.805   9.062  10.205 -1.4149 -1.7097 -1.3411
  880MOL0     H18766  13.972   9.200  10.276 -1.0416 -1.1147  0.4253
  880MOL0     H18767  14.007   9.204  10.096  1.2283 -0.3029  0.5233
  880MOL0     H18768  13.883   9.416  10.073 -3.2734 -1.1905  0.2710
  880MOL0     H18769  13.871   9.424  10.247  2.7974 -0.3885  1.7167
  880MOL0     H18770  14.093   9.464  10.054 -0.1707 -1.3680 -0.3149
  880MOL0     H18771  14.150   9.374  10.198  0.4560  1.0282  0.7243
  880MOL0     H18772  14.058   9.560  10.338 -0.4447  1.6269 -0.4668
  880MOL0     H18773  14.026   9.659  10.200 -1.3650 -2.4288 -0.7751
  880MOL0     H18774  14.296   9.546  10.300  1.6899  0.2308 -0.4939
  880MOL0     H18775  14.279   9.606  10.137 -1.1480  1.0384 -0.0656
  880MOL0     H18776  14.225   9.756  10.393  0.1290  1.5766  0.6834
  880MOL0     H18777  14.188   9.828  10.234 -1.6458 -2.8515 -2.7123
  880MOL0     H18778  14.426   9.890  10.323 -3.9690  0.7823 -0.6073
  880MOL0     H18779  14.467   9.719  10.300  3.1413  2.5937  1.4972
  880MOL0     H18780  13.502   9.191  10.109 -1.1805 -2.1686  1.3684
  880MOL0     H18781  13.309   9.077  10.031 -0.4780  0.0124 -0.1262
  880MOL0     H18782  13.193   8.578   9.639  0.2740 -0.4068  0.4484
  880MOL0     H18783  12.950   8.495   9.610  0.4773 -1.6325  1.1291
  880MOL0     H18784  11.008   8.529   9.839 -1.4395 -2.4746  1.6593
  880MOL0     H18785  10.777   8.537   9.760 -0.3821 -0.3540 -0.9692
  880MOL0     H18786  10.517   8.275   9.416 -1.6394 -1.1524 -3.1976
  880MOL0     H18787  10.310   8.164   9.328  3.2315  3.0141 -0.0774
  880MOL0     H18788   9.995   8.277   9.371  3.2775 -1.6555 -1.3631
  880MOL0     H18789   9.992   8.294   9.543 -1.4179  1.8945 -2.9725
  880MOL0     H18790   9.850   8.056   9.397 -0.8156 -0.7254  2.0245
  880MOL0     H18791   9.764   8.205   9.442 -0.2809 -1.2867 -0.4690
  880MOL0     H18792   9.899   7.989   9.607 -1.3744 -1.0005 -0.3656
  880MOL0     H18793   9.732   8.013   9.585  0.8218 -0.2540 -0.0845
  880MOL0     H18794   9.845   8.261   9.697  0.9298  1.3906  3.6605
  880MOL0     H18795   9.695   8.173   9.744  0.4122  3.0252 -0.0550
  880MOL0     H18796   9.931   8.044  10.038 -1.7795  0.1795  1.1261
  880MOL0     H18797  10.138   8.166   9.716 -0.8805  0.9845 -1.2255
  880MOL0     H18798  10.332   8.157   9.907 -3.7133 -0.3008 -1.3998
  880MOL0     H18799  10.429   8.302   9.911  0.9404 -1.3326 -0.6459
  880MOL0     H18800  10.243   8.304   9.899 -1.6828 -1.3342 -0.5731
  881MOL0     O18801   4.473   6.817   5.370 -0.1070  0.1569 -0.8089
  881MOL0     C18802   4.487   6.776   5.487  0.5591 -0.5491 -0.4531
  881MOL0     O18803   4.600   6.786   5.564  0.2678  0.3454  0.2173
  881MOL0     C18804   4.714   6.829   5.501 -0.3018  0.1848 -0.9581
  881MOL0     C18805   4.792   6.921   5.568 -0.4720 -0.3300 -0.5601
  881MOL0     C18806   4.909   6.971   5.519 -0.6107 -0.1729 -0.1716
  881MOL0     C18807   4.952   6.934   5.389  0.2095  0.0831  0.4701
  881MOL0     O18808   5.074   6.996   5.348 -0.2630  0.0897 -0.5710
  881MOL0     C18809   5.150   6.915   5.254  0.8810 -1.0219 -0.7058
  881MOL0     C18810   5.268   6.995   5.210  0.4304 -0.6584  0.6424
  881MOL0     C18811   5.368   7.018   5.325 -0.2174 -0.0534  0.4557
  881MOL0     C18812   5.451   7.148   5.301 -0.1640 -0.3410 -0.6649
  881MOL0     C18813   5.544   7.160   5.180 -0.2194  0.6770 -0.4227
  881MOL0     C18814   5.642   7.039   5.171  0.0646 -0.3889  0.4356
  881MOL0     C18815   5.739   7.041   5.046 -0.5176  0.5229  0.2873
  881MOL0     C18816   5.852   7.142   5.052 -0.3441 -0.2735  0.0620
  881MOL0     N18817   5.929   7.158   4.924 -0.5022 -0.8989 -0.5815
  881MOL0     C18818   5.988   7.068   4.846 -0.3240  0.6736  0.8671
  881MOL0     C18819   6.029   7.130   4.733  0.9210 -0.8864  0.0860
  881MOL0     C18820   6.103   7.062   4.617 -0.3666 -0.1431 -0.5500
  881MOL0     C18821   6.038   7.079   4.484  0.1654 -0.4124 -0.0636
  881MOL0     C18822   6.093   6.984   4.378 -0.4319  0.7328  0.1420
  881MOL0     C18823   6.248   6.998   4.344  0.4741  0.6761 -0.1001
  881MOL0     O18824   6.276   7.140   4.329  0.2762  1.3743 -0.2568
  881MOL0     C18825   6.400   7.175   4.306 -0.1569 -0.9381 -0.2738
  881MOL0     C18826   6.512   7.095   4.270 -0.1885  1.5958 -0.0628
  881MOL0     C18827   6.639   7.143   4.239 -0.5466 -0.4088  0.7202
  881MOL0     C18828   6.659   7.283   4.250 -1.1601 -0.7043 -0.0951
  881MOL0     C18829   6.791   7.332   4.204  0.9334 -0.6099  0.2048
  881MOL0     O18830   6.810   7.464   4.178  0.1120  0.0046 -1.2954
  881MOL0     C18831   6.934   7.498   4.142 -0.4133  0.7002  1.0228
  881MOL0     C18832   7.046   7.471   4.218 -0.7617 -0.8515  0.1361
  881MOL0     C18833   7.173   7.505   4.178  0.3187  0.1524  0.1662
  881MOL0     C18834   7.199   7.558   4.056 -0.3944  0.1619 -0.2841
  881MOL0     O18835   7.320   7.601   4.022 -0.0352  0.3805  0.3700
  881MOL0     C18836   7.427   7.500   4.022  0.2873 -0.6164 -0.5781
  881MOL0     C18837   7.551   7.574   4.075 -0.2324  0.3454 -0.2186
  881MOL0     C18838   7.547   7.600   4.222  0.0265 -0.0755 -0.5162
  881MOL0     C18839   7.647   7.694   4.284 -0.1709  0.1266 -0.4034
  881MOL0     C18840   7.599   7.733   4.420  0.5377  0.6523  0.9237
  881MOL0     C18841   7.702   7.830   4.478 -0.1790 -0.0836 -0.1046
  881MOL0     C18842   7.843   7.790   4.483  0.1004 -0.3952 -0.3871
  881MOL0     C18843   7.919   7.876   4.584  0.2928  0.3912  0.4258
  881MOL0    Cl18844   7.850   7.858   4.750  0.0477 -0.5513  0.6550
  881MOL0     C18845   7.089   7.577   3.977  0.5129 -0.0956 -0.8408
  881MOL0     C18846   6.955   7.555   4.017 -0.8335 -0.4191  0.1643
  881MOL0     O18847   6.868   7.242   4.185 -0.0171 -0.0213  0.1266
  881MOL0     C18848   6.558   7.364   4.291  0.6684 -0.0698 -0.2085
  881MOL0     C18849   6.427   7.317   4.314  0.0543  0.1439 -0.0534
  881MOL0     N18850   5.988   7.259   4.744 -0.0179 -1.2927 -0.4663
  881MOL0     N18851   5.935   7.275   4.859  1.0555 -0.1849  0.0665
  881MOL0     C18852   4.870   6.842   5.315 -0.3463 -0.8067 -0.1974
  881MOL0     C18853   4.762   6.790   5.379 -0.7027  0.2955  0.0624
  881MOL0     C18854   4.367   6.695   5.549 -0.0480 -0.1229  0.0065
  881MOL0     C18855   4.363   6.677   5.686  1.0700  0.2937  0.6228
  881MOL0     C18856   4.264   6.613   5.758 -0.3299  0.7526  0.5177
  881MOL0     C18857   4.170   6.540   5.680  0.7439  0.2123 -0.0455
  881MOL0     O18858   4.073   6.450   5.724 -0.2295 -0.2481 -0.6504
  881MOL0     C18859   4.044   6.467   5.863  0.5140 -0.1100  1.4424
  881MOL0     C18860   3.925   6.380   5.897 -0.4956  0.6185 -0.3403
  881MOL0     C18861   3.796   6.441   5.845  0.3985  0.0503  0.1928
  881MOL0     C18862   3.679   6.339   5.850 -0.4469 -0.4820  0.2698
  881MOL0     C18863   3.558   6.402   5.809 -0.2121 -0.4664 -0.0204
  881MOL0     C18864   3.455   6.449   5.766  0.2909  0.3617 -0.1167
  881MOL0     C18865   4.176   6.550   5.543  1.0750 -0.7637 -0.8292
  881MOL0     C18866   4.267   6.633   5.473 -1.0057 -0.5393  0.3182
  881MOL0     C18867   4.266   6.617   5.331  0.2366 -0.5612 -0.2252
  881MOL0     H18868   4.764   6.949   5.669  0.1774  0.4053 -0.5780
  881MOL0     H18869   4.974   7.033   5.579 -0.6833  0.2356 -0.5085
  881MOL0     H18870   5.173   6.817   5.297  0.7509 -0.3116  1.0723
  881MOL0     H18871   5.081   6.901   5.171 -2.6893  0.2288  1.7993
  881MOL0     H18872   5.224   7.089   5.174  0.1213 -1.1126 -0.2092
  881MOL0     H18873   5.325   6.943   5.132  2.7801 -0.2772  2.0409
  881MOL0     H18874   5.424   6.924   5.331 -2.3843 -1.3034  3.1105
  881MOL0     H18875   5.316   7.022   5.421 -0.6116 -0.7591  0.2785
  881MOL0     H18876   5.370   7.221   5.291  2.2420  2.6831  0.6552
  881MOL0     H18877   5.512   7.163   5.390 -0.1815 -1.0772 -0.5211
  881MOL0     H18878   5.481   7.171   5.092 -1.1551 -0.4834  0.0774
  881MOL0     H18879   5.609   7.247   5.196 -0.4592  0.3336  3.3322
  881MOL0     H18880   5.708   7.038   5.258  2.2119  1.2673 -1.0619
  881MOL0     H18881   5.585   6.946   5.164 -3.0681  1.2548  2.1065
  881MOL0     H18882   5.686   7.068   4.954  3.5168  1.8225 -1.9022
  881MOL0     H18883   5.766   6.935   5.039 -0.0905  0.5649  1.1312
  881MOL0     H18884   5.810   7.242   5.065  2.2294  0.7780  0.9400
  881MOL0     H18885   5.924   7.119   5.131 -0.4067  1.9294  0.8401
  881MOL0     H18886   6.000   6.960   4.857 -1.2798  0.5141  0.4503
  881MOL0     H18887   6.199   7.113   4.616 -0.6826  0.4656 -0.2332
  881MOL0     H18888   6.099   6.955   4.640 -1.0250  0.0151  0.1043
  881MOL0     H18889   5.930   7.065   4.496  0.3828 -1.9718  0.2613
  881MOL0     H18890   6.053   7.181   4.447 -1.3595 -0.0442  0.2684
  881MOL0     H18891   6.051   6.995   4.278 -1.9054 -4.9435 -0.1797
  881MOL0     H18892   6.067   6.883   4.412 -0.6602  0.8986  0.4716
  881MOL0     H18893   6.268   6.942   4.253  1.1588 -1.1616  1.1201
  881MOL0     H18894   6.304   6.958   4.429  1.9184  1.3274 -0.7241
  881MOL0     H18895   6.494   6.992   4.239  1.7788  1.4936 -1.0249
  881MOL0     H18896   6.712   7.075   4.197 -0.4585 -0.0110  0.2231
  881MOL0     H18897   7.035   7.422   4.314 -0.0743  0.5192  0.9369
  881MOL0     H18898   7.247   7.483   4.254 -0.1130  0.4148  0.6763
  881MOL0     H18899   7.412   7.424   4.099  3.0227 -2.2000 -1.4577
  881MOL0     H18900   7.449   7.456   3.924  0.4443  0.0273 -0.8382
  881MOL0     H18901   7.636   7.510   4.050 -1.6367 -0.7376 -2.5885
  881MOL0     H18902   7.572   7.665   4.018  1.3016  0.6170  0.7332
  881MOL0     H18903   7.448   7.626   4.260  0.4848  0.6265  0.2393
  881MOL0     H18904   7.571   7.506   4.273 -0.4504  0.5027  0.7998
  881MOL0     H18905   7.667   7.786   4.228 -0.1916  0.3400 -0.0565
  881MOL0     H18906   7.740   7.638   4.294 -0.3039  0.0302  0.2934
  881MOL0     H18907   7.577   7.646   4.483 -0.7408  0.9312  0.9045
  881MOL0     H18908   7.507   7.788   4.395  0.9207  0.7747 -0.2750
  881MOL0     H18909   7.717   7.924   4.423 -0.0375  0.8367  1.4311
  881MOL0     H18910   7.670   7.857   4.579 -0.2704 -2.5257  0.5754
  881MOL0     H18911   7.894   7.787   4.387 -0.3530 -0.9006 -0.6177
  881MOL0     H18912   7.840   7.692   4.531 -0.9617 -0.1323  0.1305
  881MOL0     H18913   8.024   7.848   4.596  0.2577 -0.7480 -1.3749
  881MOL0     H18914   7.922   7.983   4.565  1.7781  0.5716  1.4896
  881MOL0     H18915   7.112   7.607   3.875 -1.0739 -0.3978 -1.3110
  881MOL0     H18916   6.863   7.562   3.960 -0.5059 -1.5276 -0.5281
  881MOL0     H18917   6.577   7.471   4.289 -0.9675  0.5908  4.9340
  881MOL0     H18918   6.357   7.399   4.320  1.3682  1.2724  0.2689
  881MOL0     H18919   4.883   6.811   5.212 -1.1451 -2.4577  0.1735
  881MOL0     H18920   4.707   6.717   5.320  1.0493 -0.2172 -0.9910
  881MOL0     H18921   4.434   6.738   5.742  1.0144  1.6526 -0.7236
  881MOL0     H18922   4.262   6.613   5.866  0.7940  0.0574  0.5511
  881MOL0     H18923   4.024   6.573   5.884 -2.3643 -0.0928 -0.6730
  881MOL0     H18924   4.129   6.430   5.920  0.3923 -2.4352  0.2522
  881MOL0     H18925   3.916   6.378   6.006  0.8212  0.7194 -0.2171
  881MOL0     H18926   3.953   6.280   5.865  1.7662  1.2420 -0.4564
  881MOL0     H18927   3.817   6.458   5.739 -1.9234 -0.5434 -0.4333
  881MOL0     H18928   3.764   6.531   5.898 -0.7685  0.5848 -1.3370
  881MOL0     H18929   3.716   6.249   5.800  2.0861  0.7149 -0.1638
  881MOL0     H18930   3.675   6.304   5.953  0.9044  4.4219  2.2702
  881MOL0     H18931   3.357   6.482   5.739 -0.3651  1.7445  3.3708
  881MOL0     H18932   4.095   6.498   5.495  2.1994 -1.8117 -1.6413
  881MOL0     H18933   4.252   6.712   5.280  1.6317  0.3484  1.0246
  881MOL0     H18934   4.357   6.569   5.294  0.4381  0.8717 -1.6546
  881MOL0     H18935   4.193   6.539   5.305  1.0066 -1.8172  1.1850
  882MOL0     O18936   2.422   4.643   2.059 -0.4008  0.5446  0.0841
  882MOL0     C18937   2.511   4.623   2.141 -0.1115 -0.3757  0.9661
  882MOL0     O18938   2.515   4.526   2.233  0.2852 -0.0225  0.2757
  882MOL0     C18939   2.416   4.430   2.237  0.8034 -1.1090 -0.0353
  882MOL0     C18940   2.349   4.377   2.120 -0.2091  0.8662 -0.1044
  882MOL0     C18941   2.243   4.288   2.135 -0.3254 -0.4426  0.4531
  882MOL0     C18942   2.185   4.264   2.254 -0.2977 -1.0747  0.2476
  882MOL0     O18943   2.078   4.179   2.274 -0.0627 -0.1555  0.3433
  882MOL0     C18944   2.030   4.106   2.165  0.1065  0.4818 -0.6167
  882MOL0     C18945   1.920   4.008   2.222 -0.3133  0.3670 -0.2841
  882MOL0     C18946   1.821   4.087   2.312  0.0322  0.2130 -0.4886
  882MOL0     C18947   1.709   4.006   2.359  0.2001  1.2967  0.0776
  882MOL0     C18948   1.615   4.075   2.473  0.0624 -0.5874 -0.5569
  882MOL0     C18949   1.538   4.193   2.422  0.2567 -0.4942  0.3593
  882MOL0     C18950   1.509   4.296   2.535 -0.2533 -0.2913 -0.1680
  882MOL0     C18951   1.624   4.397   2.560 -1.3796  0.3520  0.5670
  882MOL0     N18952   1.676   4.460   2.438  0.0356  0.3567  0.3193
  882MOL0     C18953   1.794   4.431   2.389  0.2871 -0.2619  0.3654
  882MOL0     C18954   1.806   4.516   2.281 -0.2620  0.0576 -0.0913
  882MOL0     C18955   1.929   4.526   2.186  0.1046  0.3421  0.8692
  882MOL0     C18956   2.009   4.655   2.205  0.2653 -0.5528  0.1598
  882MOL0     C18957   2.089   4.657   2.321  0.3009 -0.7908 -0.3689
  882MOL0     C18958   2.191   4.780   2.319 -0.8158 -1.0327  0.0225
  882MOL0     O18959   2.237   4.823   2.454  0.1408  0.3437  0.7663
  882MOL0     C18960   2.373   4.839   2.463 -0.3330  0.2196  0.2760
  882MOL0     C18961   2.430   4.949   2.411 -0.1976 -0.2631  0.4881
  882MOL0     C18962   2.569   4.964   2.416  0.7131 -0.3236 -0.5705
  882MOL0     C18963   2.652   4.872   2.463  0.0568  0.4927  0.7135
  882MOL0     C18964   2.802   4.896   2.447  0.7222 -0.7220 -0.1496
  882MOL0     O18965   2.874   4.787   2.459  0.2731 -0.3370 -0.4965
  882MOL0     C18966   3.011   4.785   2.447  0.1409  0.6894 -0.0490
  882MOL0     C18967   3.095   4.870   2.518 -0.8618  0.3921 -0.1670
  882MOL0     C18968   3.234   4.850   2.506  0.3139 -0.6701  0.1309
  882MOL0     C18969   3.283   4.756   2.427 -0.4762  0.3111 -0.3396
  882MOL0     O18970   3.415   4.734   2.391 -0.6823 -0.6846 -0.7239
  882MOL0     C18971   3.521   4.818   2.453  0.4336  0.1859  0.5670
  882MOL0     C18972   3.560   4.742   2.580 -0.2086  0.6407 -0.2585
  882MOL0     C18973   3.627   4.821   2.695 -0.8005 -0.5965  0.0782
  882MOL0     C18974   3.693   4.724   2.796 -0.0294  0.2747  0.1288
  882MOL0     C18975   3.767   4.787   2.921  1.1576 -0.6724 -0.1630
  882MOL0     C18976   3.858   4.692   2.994  0.3320  0.2440 -0.6360
  882MOL0     C18977   3.945   4.776   3.090 -0.6043 -0.4997  0.0763
  882MOL0     C18978   4.043   4.682   3.170  0.0804 -0.1255  0.2012
  882MOL0    Cl18979   4.144   4.581   3.061 -0.0240  0.1514  0.1748
  882MOL0     C18980   3.200   4.678   2.352  0.1914  0.9678  0.6723
  882MOL0     C18981   3.067   4.685   2.364  0.0045  0.5975 -1.2584
  882MOL0     O18982   2.850   5.007   2.424  0.0249  0.2823 -0.7025
  882MOL0     C18983   2.596   4.760   2.517 -0.3779  0.2850  0.1287
  882MOL0     C18984   2.457   4.739   2.510  0.6362 -0.7173 -0.2711
  882MOL0     N18985   1.685   4.577   2.262 -0.1274  0.3117  0.1810
  882MOL0     N18986   1.610   4.551   2.361  0.2633 -0.0467 -0.6683
  882MOL0     C18987   2.247   4.314   2.370  0.2453  0.1682  0.2402
  882MOL0     C18988   2.367   4.393   2.367  0.2369  0.3779  1.2653
  882MOL0     C18989   2.643   4.693   2.114 -0.5781  0.2504 -0.8058
  882MOL0     C18990   2.768   4.617   2.114  0.1676 -0.6467  0.8648
  882MOL0     C18991   2.886   4.685   2.072  0.0157  0.9684  0.1444
  882MOL0     C18992   2.883   4.818   2.033  0.4314  0.3619  1.2476
  882MOL0     O18993   2.991   4.888   1.996  0.2587 -0.0108 -0.5262
  882MOL0     C18994   3.105   4.879   2.091 -0.5287 -0.2382  0.2378
  882MOL0     C18995   3.203   4.989   2.047  0.7982 -0.7309 -0.1784
  882MOL0     C18996   3.138   5.128   2.033 -0.4363  0.6892  0.3231
  882MOL0     C18997   3.073   5.185   2.161 -0.2317  0.1548 -0.4821
  882MOL0     C18998   3.038   5.322   2.146 -0.6340 -0.6963  0.1549
  882MOL0     C18999   3.015   5.444   2.122  0.3541 -0.9038 -0.1338
  882MOL0     C19000   2.763   4.886   2.034 -0.0273  0.4506  0.8176
  882MOL0     C19001   2.647   4.830   2.077 -0.1528  0.7001 -0.0948
  882MOL0     C19002   2.524   4.917   2.080 -0.4065  0.1231 -0.7166
  882MOL0     H19003   2.375   4.395   2.016 -0.1098  1.9061  0.0874
  882MOL0     H19004   2.203   4.237   2.048 -0.2968  1.1534 -0.5438
  882MOL0     H19005   1.992   4.168   2.083 -0.1261  0.3577 -0.6060
  882MOL0     H19006   2.112   4.042   2.131  0.7355  0.7089  0.4123
  882MOL0     H19007   1.967   3.926   2.277 -2.3207 -0.8313 -0.2720
  882MOL0     H19008   1.867   3.959   2.140  0.3955  0.1493 -0.6287
  882MOL0     H19009   1.786   4.173   2.254 -1.9111  0.1645  0.5410
  882MOL0     H19010   1.869   4.118   2.405 -0.1462 -0.7709 -0.0600
  882MOL0     H19011   1.648   3.977   2.273  0.8115  0.3514 -0.0514
  882MOL0     H19012   1.753   3.916   2.403  0.8551  2.5365  2.1147
  882MOL0     H19013   1.537   4.007   2.510 -1.4762  1.3861 -0.0316
  882MOL0     H19014   1.658   4.113   2.566 -2.7091  1.1105  0.1527
  882MOL0     H19015   1.588   4.240   2.336  1.3658 -1.0081  0.7048
  882MOL0     H19016   1.443   4.160   2.379 -0.0514  0.9023 -0.0848
  882MOL0     H19017   1.483   4.239   2.625  0.9939 -1.2007 -0.3531
  882MOL0     H19018   1.423   4.358   2.511 -1.3407 -1.6665  0.0218
  882MOL0     H19019   1.596   4.480   2.626 -0.9450  0.0767  1.1085
  882MOL0     H19020   1.705   4.337   2.603 -2.9793 -1.6813  0.9250
  882MOL0     H19021   1.873   4.367   2.426 -0.8159 -1.9347 -0.0702
  882MOL0     H19022   1.994   4.437   2.188  0.6237  0.7048  0.4436
  882MOL0     H19023   1.888   4.508   2.087 -3.0416 -1.6060  2.3794
  882MOL0     H19024   2.063   4.672   2.112 -1.1704  1.1872 -0.4227
  882MOL0     H19025   1.933   4.734   2.208 -0.9079 -1.6619  0.8299
  882MOL0     H19026   2.144   4.562   2.330  0.6605 -0.5507  0.0581
  882MOL0     H19027   2.021   4.681   2.403 -2.6317  0.3809 -2.9720
  882MOL0     H19028   2.144   4.870   2.279  1.9565  0.1842 -0.7056
  882MOL0     H19029   2.276   4.758   2.253 -0.2837 -0.7209  0.5981
  882MOL0     H19030   2.376   5.033   2.370 -0.0764  0.4288  1.7132
  882MOL0     H19031   2.605   5.054   2.367  0.3802  0.7135  1.0159
  882MOL0     H19032   3.059   4.934   2.598 -2.4266 -1.6535  0.8579
  882MOL0     H19033   3.299   4.918   2.560 -0.5945  1.7069 -1.5866
  882MOL0     H19034   3.608   4.820   2.387  0.3152 -3.2333  0.1483
  882MOL0     H19035   3.493   4.920   2.480 -3.6976 -0.5810 -0.0984
  882MOL0     H19036   3.477   4.695   2.633  0.3436  0.9172  0.8713
  882MOL0     H19037   3.630   4.662   2.553  2.2974  1.9698  1.7717
  882MOL0     H19038   3.695   4.894   2.651 -1.4169  1.1125  1.8492
  882MOL0     H19039   3.558   4.886   2.749  0.4020  0.3015  0.5836
  882MOL0     H19040   3.770   4.674   2.736  0.9521 -0.4391  1.9188
  882MOL0     H19041   3.624   4.644   2.825 -0.5907 -0.1965 -2.2801
  882MOL0     H19042   3.696   4.833   2.992  1.3821  2.0743 -1.5761
  882MOL0     H19043   3.830   4.865   2.878 -2.3932  2.3542 -0.3996
  882MOL0     H19044   3.806   4.613   3.049 -2.2690  1.1018 -1.7117
  882MOL0     H19045   3.914   4.633   2.922 -0.1848  1.0307 -1.7126
  882MOL0     H19046   3.880   4.829   3.160 -1.2366 -0.6061 -0.4236
  882MOL0     H19047   4.002   4.843   3.025  0.1625 -0.7302  0.4863
  882MOL0     H19048   4.106   4.738   3.240  0.1511  0.2072 -0.1251
  882MOL0     H19049   3.977   4.614   3.225 -1.8782  2.0619  0.7151
  882MOL0     H19050   3.246   4.610   2.281 -1.4077 -2.5568  2.7151
  882MOL0     H19051   3.007   4.615   2.306 -1.8609  1.1232 -0.0455
  882MOL0     H19052   2.651   4.669   2.538 -0.9423 -0.2376 -0.5826
  882MOL0     H19053   2.427   4.636   2.531  0.0148 -0.0748  2.4395
  882MOL0     H19054   2.208   4.274   2.463  0.9563 -2.1033 -0.3860
  882MOL0     H19055   2.420   4.440   2.449  1.5471 -0.4959  0.9424
  882MOL0     H19056   2.784   4.514   2.145  1.2514 -0.5545  0.6691
  882MOL0     H19057   2.980   4.629   2.073  0.3698  1.5656  0.6341
  882MOL0     H19058   3.162   4.787   2.082  0.7689  0.6409 -0.9974
  882MOL0     H19059   3.073   4.903   2.193 -1.2101  0.5075 -0.1408
  882MOL0     H19060   3.263   4.954   1.962 -1.8194 -0.1918 -2.3861
  882MOL0     H19061   3.280   5.001   2.123 -1.5821  0.9882  2.1286
  882MOL0     H19062   3.069   5.128   1.948  1.0781 -0.7041 -0.9699
  882MOL0     H19063   3.210   5.199   1.994 -1.8528  0.1670 -3.6710
  882MOL0     H19064   2.984   5.126   2.185 -0.0712 -0.3631 -1.1124
  882MOL0     H19065   3.147   5.183   2.242  4.0849 -2.2762 -4.0097
  882MOL0     H19066   2.989   5.546   2.107  1.6692 -0.5357 -0.0495
  882MOL0     H19067   2.765   4.993   2.014  2.1639  0.3759  0.3335
  882MOL0     H19068   2.468   4.895   1.989  0.5218  1.2929 -1.6012
  882MOL0     H19069   2.469   4.906   2.174  1.4958 -0.1910  0.4299
  882MOL0     H19070   2.546   5.024   2.074  1.1766 -0.1661 -0.6688
  883MOL0     O19071   0.953   9.595   7.375 -0.1246 -0.0959 -0.4138
  883MOL0     C19072   0.903   9.515   7.454  0.3701  0.2623  0.1335
  883MOL0     O19073   0.983   9.432   7.538  0.6356 -0.5067  0.8253
  883MOL0     C19074   1.118   9.451   7.526  0.1660  0.5012 -0.1617
  883MOL0     C19075   1.186   9.410   7.407  0.5011  0.3411  0.0687
  883MOL0     C19076   1.324   9.414   7.392 -0.6906  0.0534 -0.3318
  883MOL0     C19077   1.402   9.473   7.485  0.2568  0.7124  0.3166
  883MOL0     O19078   1.534   9.450   7.467  0.2740 -0.6231  0.4572
  883MOL0     C19079   1.601   9.391   7.586  0.3933  0.2728  0.8303
  883MOL0     C19080   1.701   9.284   7.547 -0.0999  0.5273 -0.0580
  883MOL0     C19081   1.830   9.359   7.516  0.5717 -0.6880  0.6749
  883MOL0     C19082   1.925   9.262   7.445 -0.0270  0.1384  0.6841
  883MOL0     C19083   2.026   9.353   7.369  0.1137  0.1609 -0.5372
  883MOL0     C19084   2.141   9.267   7.325  0.0925 -0.1240 -0.0080
  883MOL0     C19085   2.237   9.338   7.241 -0.6435 -0.0066  0.0095
  883MOL0     C19086   2.187   9.380   7.104 -0.0397  0.7157  1.7313
  883MOL0     N19087   2.128   9.272   7.009 -0.4150 -0.6106 -1.2708
  883MOL0     C19088   2.016   9.289   6.932 -0.0870  1.0479 -0.8170
  883MOL0     C19089   2.025   9.183   6.847 -0.6605 -0.9332 -1.5418
  883MOL0     C19090   1.934   9.166   6.730  0.3069 -0.4720 -0.3458
  883MOL0     C19091   1.937   9.281   6.634  0.2961  0.6883  0.4301
  883MOL0     C19092   1.879   9.253   6.494 -0.0314 -0.0175  0.1033
  883MOL0     C19093   1.732   9.202   6.505  0.5715  0.3398  0.8896
  883MOL0     O19094   1.657   9.265   6.606 -0.0327 -0.3812  0.0454
  883MOL0     C19095   1.519   9.276   6.586  0.7715  0.5921 -0.0210
  883MOL0     C19096   1.431   9.169   6.598 -0.3212 -0.4419 -0.5776
  883MOL0     C19097   1.289   9.182   6.594 -0.0287 -0.6589 -0.0143
  883MOL0     C19098   1.239   9.312   6.570 -0.1887  0.5719 -0.0088
  883MOL0     C19099   1.087   9.327   6.563 -0.3286  0.8944  0.8070
  883MOL0     O19100   1.005   9.220   6.606 -0.0874  0.3978  0.5575
  883MOL0     C19101   0.866   9.211   6.597 -1.1201  0.6055 -0.8230
  883MOL0     C19102   0.779   9.268   6.504  0.6188  0.1541  0.3840
  883MOL0     C19103   0.644   9.232   6.505  0.2012  0.9601  0.4395
  883MOL0     C19104   0.597   9.156   6.609 -0.1977  0.4296  0.0374
  883MOL0     O19105   0.464   9.123   6.604  0.1440  0.0543  0.5829
  883MOL0     C19106   0.368   9.231   6.630 -0.4498  0.4097 -0.8363
  883MOL0     C19107   0.230   9.175   6.617 -0.4970 -0.0731  0.8692
  883MOL0     C19108   0.143   9.274   6.545 -0.4570 -0.0411  0.1624
  883MOL0     C19109   0.011   9.208   6.533  0.1105 -1.0372  0.2762
  883MOL0     C19110  -0.103   9.290   6.453 -0.1420 -1.0112 -1.1258
  883MOL0     C19111  -0.072   9.265   6.305  0.1899  0.2947  0.6937
  883MOL0     C19112  -0.191   9.301   6.211 -0.3090  0.7427 -0.1989
  883MOL0     C19113  -0.204   9.450   6.191 -0.8642 -0.7171  0.1875
  883MOL0    Cl19114  -0.080   9.504   6.077 -0.0066 -0.4332  0.0654
  883MOL0     C19115   0.676   9.096   6.701 -0.2752  0.6304  0.0330
  883MOL0     C19116   0.814   9.132   6.697  0.3152  0.0259 -0.3283
  883MOL0     O19117   1.044   9.426   6.503 -0.1159 -0.0842 -0.0746
  883MOL0     C19118   1.326   9.415   6.551  0.2035 -0.1858 -0.0113
  883MOL0     C19119   1.457   9.393   6.566 -0.2358 -1.0976 -1.4207
  883MOL0     N19120   2.143   9.111   6.874  0.3789 -0.0036  0.9135
  883MOL0     N19121   2.205   9.178   6.956  0.0609 -0.1431 -0.4587
  883MOL0     C19122   1.337   9.514   7.604 -0.0226  0.2280 -1.0685
  883MOL0     C19123   1.198   9.508   7.624  0.7837  0.1677  0.2705
  883MOL0     C19124   0.756   9.513   7.477 -0.5533 -0.4791  0.2513
  883MOL0     C19125   0.705   9.476   7.606 -0.8056  0.4338 -0.6160
  883MOL0     C19126   0.569   9.486   7.629 -0.6095  0.0669 -0.1051
  883MOL0     C19127   0.487   9.521   7.529  0.5692 -0.0737 -0.4241
  883MOL0     O19128   0.351   9.538   7.553  0.0141 -0.0630 -0.2685
  883MOL0     C19129   0.294   9.424   7.614 -0.0694 -0.7827  0.4193
  883MOL0     C19130   0.251   9.311   7.519 -0.6427 -0.5006 -0.4875
  883MOL0     C19131   0.199   9.353   7.378 -0.3512  0.0207 -0.7017
  883MOL0     C19132   0.080   9.445   7.382 -0.1887 -0.2170 -0.0293
  883MOL0     C19133  -0.034   9.399   7.464  1.2071 -0.3120  0.2648
  883MOL0     C19134  -0.127   9.361   7.535 -0.0329  0.4729  0.2805
  883MOL0     C19135   0.535   9.558   7.405  0.2548  0.4890 -0.4591
  883MOL0     C19136   0.668   9.552   7.371 -0.0455 -0.3328  0.9930
  883MOL0     C19137   0.702   9.577   7.230 -0.4036 -0.3539  0.2588
  883MOL0     H19138   1.119   9.385   7.326  0.5154  0.7511 -0.0728
  883MOL0     H19139   1.367   9.375   7.300  1.0130  0.4259  0.2572
  883MOL0     H19140   1.645   9.473   7.643 -0.4665  1.3958 -0.0769
  883MOL0     H19141   1.525   9.348   7.652 -0.4688  0.6416  0.1124
  883MOL0     H19142   1.659   9.231   7.462 -0.6332  1.3781 -0.3398
  883MOL0     H19143   1.716   9.211   7.627  1.6257  0.0039 -0.8017
  883MOL0     H19144   1.867   9.401   7.610 -0.6246 -0.1752  0.9420
  883MOL0     H19145   1.817   9.450   7.458  1.7583 -0.4296  0.8014
  883MOL0     H19146   1.969   9.196   7.520 -0.3303  1.4122  2.0236
  883MOL0     H19147   1.869   9.208   7.368 -0.0158  2.2535 -0.9018
  883MOL0     H19148   1.971   9.403   7.289 -1.8356  1.9958  1.7786
  883MOL0     H19149   2.068   9.429   7.437 -0.0696 -0.5260  0.3673
  883MOL0     H19150   2.197   9.246   7.417 -1.2850 -0.6828  0.7355
  883MOL0     H19151   2.101   9.174   7.284 -0.2358  0.0217 -0.0223
  883MOL0     H19152   2.324   9.273   7.226 -0.2171  0.6843 -0.5077
  883MOL0     H19153   2.280   9.422   7.296  0.7499 -2.3930  2.8747
  883MOL0     H19154   2.110   9.457   7.109 -0.7528 -0.0037  2.1474
  883MOL0     H19155   2.262   9.437   7.049 -1.0855  0.6788  0.2083
  883MOL0     H19156   1.945   9.371   6.935  0.8769  1.9039  1.9574
  883MOL0     H19157   1.971   9.081   6.672  1.5084  0.1581 -0.5473
  883MOL0     H19158   1.832   9.153   6.766  0.6059  1.1479  1.2098
  883MOL0     H19159   1.862   9.351   6.672 -2.2670 -0.3622 -2.3352
  883MOL0     H19160   2.037   9.325   6.620 -0.0908  1.6187  0.4974
  883MOL0     H19161   1.945   9.186   6.438  1.7910  1.8516 -0.1124
  883MOL0     H19162   1.879   9.341   6.430  0.6574  0.3567  0.6055
  883MOL0     H19163   1.725   9.093   6.512  0.7700  0.1370 -1.3169
  883MOL0     H19164   1.687   9.227   6.408  0.5571  1.6201  1.2075
  883MOL0     H19165   1.479   9.074   6.618  0.8821  0.7727  3.0596
  883MOL0     H19166   1.229   9.092   6.605 -1.0671  0.1793  1.5484
  883MOL0     H19167   0.811   9.330   6.420 -4.2956  2.2809 -0.2950
  883MOL0     H19168   0.581   9.270   6.425 -1.7549 -0.7636  1.0641
  883MOL0     H19169   0.374   9.266   6.733 -2.2802  0.8139 -0.8217
  883MOL0     H19170   0.390   9.317   6.566  0.0564  1.2122  0.3812
  883MOL0     H19171   0.241   9.080   6.563  3.8109  0.9728 -0.4932
  883MOL0     H19172   0.184   9.154   6.714  0.6329 -1.6605  1.1012
  883MOL0     H19173   0.141   9.365   6.606 -0.4621 -0.5383  0.9205
  883MOL0     H19174   0.179   9.301   6.445 -2.3697  1.4959 -0.1872
  883MOL0     H19175  -0.028   9.190   6.633 -1.8086  1.3729  0.0448
  883MOL0     H19176   0.029   9.113   6.483 -0.7741 -0.5967 -0.9279
  883MOL0     H19177  -0.103   9.398   6.475  1.3130 -1.7213  3.3755
  883MOL0     H19178  -0.206   9.262   6.477 -1.5199  1.8554 -3.0434
  883MOL0     H19179   0.014   9.331   6.290  2.1791 -2.0520  1.1047
  883MOL0     H19180  -0.049   9.159   6.292 -2.0131 -0.3848  1.7906
  883MOL0     H19181  -0.286   9.255   6.242  1.3921 -2.9758  0.0549
  883MOL0     H19182  -0.173   9.250   6.116 -1.6435 -0.7206  0.2783
  883MOL0     H19183  -0.301   9.478   6.150 -1.4671 -0.4961  1.7053
  883MOL0     H19184  -0.182   9.499   6.286 -0.1979  0.2186 -0.4347
  883MOL0     H19185   0.636   9.034   6.781  0.9697 -1.5594 -0.9443
  883MOL0     H19186   0.871   9.092   6.780 -1.0963 -4.6683 -1.3621
  883MOL0     H19187   1.294   9.517   6.534 -0.1420 -0.3476 -0.3391
  883MOL0     H19188   1.511   9.485   6.548 -2.7322  0.5342 -0.9572
  883MOL0     H19189   1.409   9.543   7.679  2.3960 -2.5392 -2.1076
  883MOL0     H19190   1.145   9.541   7.713 -0.4609 -0.9651 -0.0161
  883MOL0     H19191   0.777   9.459   7.686 -3.1228  3.4378  2.4203
  883MOL0     H19192   0.545   9.466   7.733  0.0764 -0.5535 -0.0593
  883MOL0     H19193   0.201   9.459   7.660  0.0521 -1.9502  1.6146
  883MOL0     H19194   0.352   9.397   7.702  2.3256  1.1070 -0.4829
  883MOL0     H19195   0.170   9.263   7.573  0.4269 -1.7948  0.0198
  883MOL0     H19196   0.343   9.253   7.504  0.9190  1.8367 -0.5860
  883MOL0     H19197   0.172   9.259   7.329  1.7686 -0.8838 -0.2374
  883MOL0     H19198   0.279   9.409   7.328  1.4101 -0.4378  1.4481
  883MOL0     H19199   0.123   9.538   7.420 -0.8124  0.3287 -0.6183
  883MOL0     H19200   0.046   9.468   7.281 -0.3823  2.2366  0.5425
  883MOL0     H19201  -0.200   9.330   7.606 -1.2041  0.4525 -0.8879
  883MOL0     H19202   0.466   9.600   7.333 -0.9946 -0.1058  0.3542
  883MOL0     H19203   0.761   9.669   7.217 -0.3732 -0.0992  1.9886
  883MOL0     H19204   0.760   9.493   7.189 -2.0163 -0.5089 -1.9367
  883MOL0     H19205   0.616   9.595   7.165 -3.0018 -0.4648  3.4662
  884MOL0     O19206   4.008   7.249   7.820 -0.1715 -0.2933  0.3500
  884MOL0     C19207   3.924   7.276   7.907 -0.4438 -0.2474  0.5548
  884MOL0     O19208   3.834   7.368   7.897  0.1101 -0.4365 -0.2790
  884MOL0     C19209   3.842   7.447   7.783 -0.3249 -0.3308  0.5341
  884MOL0     C19210   3.870   7.587   7.810 -0.0705 -0.0624  0.2080
  884MOL0     C19211   3.899   7.680   7.708 -0.2105 -0.3373 -0.8033
  884MOL0     C19212   3.861   7.649   7.574 -0.1481  0.3335  0.4173
  884MOL0     O19213   3.874   7.745   7.474 -0.0050  0.0081 -0.2571
  884MOL0     C19214   4.009   7.770   7.431 -0.1418  0.2601 -0.4023
  884MOL0     C19215   4.033   7.704   7.295  0.5498 -0.0889  0.3434
  884MOL0     C19216   4.166   7.724   7.231 -0.6995 -0.4179  0.0122
  884MOL0     C19217   4.193   7.875   7.197 -0.2188  0.1154 -1.1393
  884MOL0     C19218   4.312   7.891   7.106  0.5619  0.4082  0.7442
  884MOL0     C19219   4.379   8.024   7.124  0.4028  0.0397 -0.3119
  884MOL0     C19220   4.523   8.014   7.056 -0.2919 -0.0224 -0.3001
  884MOL0     C19221   4.596   8.150   7.061  0.4788 -0.1327  0.8032
  884MOL0     N19222   4.739   8.151   7.030  0.2078  0.2367  0.9024
  884MOL0     C19223   4.839   8.175   7.125 -0.1865  0.1456  0.3202
  884MOL0     C19224   4.943   8.218   7.057 -0.5172 -0.3344  0.5160
  884MOL0     C19225   5.080   8.253   7.112 -0.0206 -0.8610 -1.0652
  884MOL0     C19226   5.196   8.198   7.027 -0.9242  0.3608 -0.1927
  884MOL0     C19227   5.203   8.043   7.032  1.2577  0.1922 -0.0521
  884MOL0     C19228   5.327   7.970   7.013  0.3648 -0.2240  0.4069
  884MOL0     O19229   5.390   8.017   6.888 -0.2971  0.2965 -0.2042
  884MOL0     C19230   5.530   8.018   6.896 -0.2625 -0.2731  0.5133
  884MOL0     C19231   5.597   7.908   6.943 -1.2155 -0.4062 -0.0702
  884MOL0     C19232   5.733   7.909   6.959 -0.1070  1.0201 -0.3912
  884MOL0     C19233   5.815   8.020   6.925 -0.3705  0.8575  0.2902
  884MOL0     C19234   5.966   8.011   6.927 -0.0823 -0.0991 -0.2921
  884MOL0     O19235   6.019   7.892   6.975  0.6698 -0.4719 -0.6156
  884MOL0     C19236   6.153   7.870   6.995  0.6693  0.3826 -0.0239
  884MOL0     C19237   6.186   7.768   7.082 -0.0295  0.2964 -0.6053
  884MOL0     C19238   6.320   7.735   7.107  0.6709 -0.9818  0.6461
  884MOL0     C19239   6.430   7.795   7.039 -0.3384 -0.5109  0.5401
  884MOL0     O19240   6.566   7.763   7.050 -0.6591 -0.2002 -0.3361
  884MOL0     C19241   6.588   7.633   7.114  0.2608 -0.1485  0.2619
  884MOL0     C19242   6.723   7.570   7.086 -0.3780 -0.4756  0.3972
  884MOL0     C19243   6.824   7.676   7.140 -0.0318 -0.3978  0.1162
  884MOL0     C19244   6.965   7.616   7.129 -0.5805  0.0393  0.2110
  884MOL0     C19245   7.076   7.720   7.155  0.2935  0.6625 -0.0109
  884MOL0     C19246   7.218   7.657   7.171  0.3826  0.0529  0.4753
  884MOL0     C19247   7.313   7.752   7.241 -0.1936 -0.3151  0.2365
  884MOL0     C19248   7.439   7.686   7.274 -0.6954 -0.1693 -0.6971
  884MOL0    Cl19249   7.510   7.629   7.117 -0.1834 -0.0899  0.0515
  884MOL0     C19250   6.400   7.892   6.945  0.3187  0.2177  0.9754
  884MOL0     C19251   6.262   7.932   6.922  0.8520 -0.1943  0.1268
  884MOL0     O19252   6.022   8.122   6.910  0.4040 -0.2185 -0.0440
  884MOL0     C19253   5.743   8.129   6.873  0.5427 -0.5231  0.5097
  884MOL0     C19254   5.600   8.137   6.874  0.1983 -0.1081 -0.0648
  884MOL0     N19255   4.915   8.203   6.922  0.2353 -1.1066  0.4052
  884MOL0     N19256   4.793   8.165   6.906  0.5625 -1.1923 -0.1669
  884MOL0     C19257   3.807   7.513   7.550  0.1143  0.2253  0.5023
  884MOL0     C19258   3.806   7.416   7.648  0.4103  0.2203 -0.3601
  884MOL0     C19259   3.902   7.180   8.018 -0.2613  0.2684 -0.1570
  884MOL0     C19260   3.772   7.149   8.068 -0.0424  0.4761  0.1636
  884MOL0     C19261   3.750   7.051   8.155 -0.0757  0.1955 -0.7022
  884MOL0     C19262   3.861   6.974   8.217 -0.0709  0.4405 -0.8465
  884MOL0     O19263   3.820   6.879   8.314 -0.9229  0.1817  1.0211
  884MOL0     C19264   3.926   6.794   8.370 -0.4604  0.3818 -0.2318
  884MOL0     C19265   3.885   6.677   8.456  0.3375  0.0703  0.1141
  884MOL0     C19266   3.858   6.540   8.381  0.9821 -0.2536  1.1781
  884MOL0     C19267   3.737   6.538   8.278 -0.1955  0.0476 -0.3957
  884MOL0     C19268   3.712   6.401   8.229 -0.2514  0.1883  0.8796
  884MOL0     C19269   3.694   6.291   8.188 -0.8573 -0.2043  1.0365
  884MOL0     C19270   3.985   7.007   8.171  0.0468 -0.3182 -0.1590
  884MOL0     C19271   4.007   7.105   8.073  0.1649  0.4270  0.6091
  884MOL0     C19272   4.155   7.127   8.044 -0.3684 -0.7402 -0.3407
  884MOL0     H19273   3.900   7.601   7.914 -0.6401 -0.2634  0.4018
  884MOL0     H19274   3.935   7.779   7.732 -0.7378 -0.7159  1.8521
  884MOL0     H19275   4.021   7.878   7.421  2.1290 -0.0047 -1.1566
  884MOL0     H19276   4.078   7.722   7.502 -0.7492 -3.9011 -2.3625
  884MOL0     H19277   3.956   7.748   7.231  1.1992 -1.1901 -1.2616
  884MOL0     H19278   4.002   7.600   7.308 -0.0548  0.1788  1.1832
  884MOL0     H19279   4.175   7.665   7.139 -2.8681 -2.0713  0.7728
  884MOL0     H19280   4.235   7.690   7.309  3.5330 -0.2823 -3.2958
  884MOL0     H19281   4.109   7.927   7.151 -0.6031  1.0096  0.4991
  884MOL0     H19282   4.215   7.926   7.291  0.4094  0.1782 -1.3179
  884MOL0     H19283   4.385   7.812   7.121 -0.4594 -0.9634 -1.0671
  884MOL0     H19284   4.270   7.878   7.006 -1.2893 -0.2430  1.5651
  884MOL0     H19285   4.319   8.108   7.088  0.5600  0.5603  0.6198
  884MOL0     H19286   4.396   8.038   7.231  1.8606 -0.6028 -0.4373
  884MOL0     H19287   4.505   7.981   6.954  1.2472  0.6632 -0.8312
  884MOL0     H19288   4.588   7.940   7.104 -0.3844 -0.3710 -0.7124
  884MOL0     H19289   4.540   8.216   6.993 -2.6080 -3.8195 -0.6226
  884MOL0     H19290   4.582   8.185   7.163  0.8054 -2.2094  1.6102
  884MOL0     H19291   4.835   8.155   7.231 -1.7705 -2.8398 -0.2095
  884MOL0     H19292   5.090   8.361   7.122  0.3167 -0.9250 -0.6653
  884MOL0     H19293   5.092   8.221   7.216 -4.3161  0.1666 -0.0494
  884MOL0     H19294   5.189   8.228   6.922 -1.8231 -0.5185 -0.3984
  884MOL0     H19295   5.291   8.247   7.050  1.3703 -3.8323  0.2690
  884MOL0     H19296   5.135   8.003   6.956 -0.0296 -1.6833  1.9480
  884MOL0     H19297   5.173   8.010   7.132  0.4178  2.9753  0.7059
  884MOL0     H19298   5.299   7.867   6.989  2.4496 -0.3263 -2.0647
  884MOL0     H19299   5.392   7.979   7.101  0.0002 -0.9827  0.7613
  884MOL0     H19300   5.537   7.820   6.962 -0.3105 -1.3393 -1.4167
  884MOL0     H19301   5.773   7.819   7.006 -0.1160 -0.0166 -2.2552
  884MOL0     H19302   6.104   7.724   7.137 -1.3504  1.5122 -1.5192
  884MOL0     H19303   6.336   7.650   7.173  0.9658 -1.9040 -0.5825
  884MOL0     H19304   6.568   7.642   7.221  1.7915 -0.7131  0.6184
  884MOL0     H19305   6.511   7.566   7.075 -0.0686  0.6544 -0.5233
  884MOL0     H19306   6.730   7.476   7.143 -0.2033 -0.4172  0.4741
  884MOL0     H19307   6.740   7.554   6.979  1.4251  7.3023 -1.0904
  884MOL0     H19308   6.833   7.773   7.090  0.7333  0.3266  1.5996
  884MOL0     H19309   6.808   7.699   7.245  0.9717  3.0568 -0.3548
  884MOL0     H19310   6.972   7.566   7.032  0.5857 -2.7814  1.6412
  884MOL0     H19311   6.979   7.538   7.204 -1.7614 -1.3289 -0.9366
  884MOL0     H19312   7.044   7.772   7.246 -0.9217 -1.5364  0.9091
  884MOL0     H19313   7.066   7.791   7.072 -1.2246  1.8002  1.0956
  884MOL0     H19314   7.191   7.574   7.237 -4.1148  0.1347 -0.9056
  884MOL0     H19315   7.246   7.624   7.071 -0.0885 -3.5795  1.4155
  884MOL0     H19316   7.275   7.788   7.337  1.3432  1.8257  0.1202
  884MOL0     H19317   7.341   7.837   7.179  0.2392  0.4494  1.4477
  884MOL0     H19318   7.503   7.766   7.312 -1.3634 -0.2244  0.6075
  884MOL0     H19319   7.419   7.603   7.343 -1.5001 -0.2145 -0.9820
  884MOL0     H19320   6.479   7.935   6.883 -0.9881 -0.9011 -1.5896
  884MOL0     H19321   6.242   8.010   6.850 -1.5477 -0.4046  0.4885
  884MOL0     H19322   5.794   8.221   6.843 -3.0293  1.3705 -0.2964
  884MOL0     H19323   5.544   8.229   6.863  0.1812 -0.0656  0.3570
  884MOL0     H19324   3.777   7.481   7.450 -3.9664  0.3524  1.5246
  884MOL0     H19325   3.772   7.315   7.628  1.7804 -0.0955 -1.2776
  884MOL0     H19326   3.680   7.194   8.032  0.8285  2.8113  0.7229
  884MOL0     H19327   3.650   7.027   8.190 -0.1772  1.2071 -0.2595
  884MOL0     H19328   3.980   6.859   8.439 -0.0922 -1.1641  0.9893
  884MOL0     H19329   3.992   6.750   8.295  2.1605  0.6864  1.7694
  884MOL0     H19330   3.800   6.722   8.507  1.2438  3.2921 -0.9255
  884MOL0     H19331   3.951   6.648   8.538 -1.1321  4.2770  3.1362
  884MOL0     H19332   3.852   6.455   8.449  0.2646 -0.0735  1.3400
  884MOL0     H19333   3.940   6.520   8.311  0.1552 -0.6049  0.2803
  884MOL0     H19334   3.646   6.578   8.321  1.3238  0.0610  3.1024
  884MOL0     H19335   3.780   6.598   8.197  1.3844 -1.3637 -0.6644
  884MOL0     H19336   3.676   6.189   8.161  0.0801 -1.0537  3.3118
  884MOL0     H19337   4.072   6.957   8.213  0.2547  0.0415 -0.1552
  884MOL0     H19338   4.166   7.225   7.997 -2.0105  0.1730  1.0596
  884MOL0     H19339   4.215   7.121   8.136  0.8927 -1.5478 -1.1870
  884MOL0     H19340   4.190   7.037   7.993  1.3826 -1.9387  2.7021
  885MOL0     O19341  11.305  10.943   7.571 -0.3509 -0.3253  0.2694
  885MOL0     C19342  11.385  11.031   7.603  1.0087  0.5618 -0.0385
  885MOL0     O19343  11.346  11.149   7.657  0.2674 -0.3372 -0.0570
  885MOL0     C19344  11.215  11.189   7.680  0.3001 -0.7573  0.5207
  885MOL0     C19345  11.204  11.310   7.749 -0.1303  0.3049 -0.8776
  885MOL0     C19346  11.072  11.355   7.776 -0.1261 -0.0318  0.1259
  885MOL0     C19347  10.955  11.290   7.740  0.5878 -0.7402 -0.1398
  885MOL0     O19348  10.831  11.341   7.783 -0.0175 -1.0597 -0.0202
  885MOL0     C19349  10.826  11.489   7.767 -0.1944 -0.4409 -0.0843
  885MOL0     C19350  10.676  11.524   7.789  0.1072  0.3493 -0.0094
  885MOL0     C19351  10.654  11.677   7.778 -0.2632  0.7444 -0.4920
  885MOL0     C19352  10.508  11.706   7.787  0.5726 -0.4329  0.7562
  885MOL0     C19353  10.472  11.852   7.740 -0.0430  0.2930  0.0543
  885MOL0     C19354  10.468  11.947   7.857 -0.2460 -0.0504 -0.2391
  885MOL0     C19355  10.456  12.096   7.809  0.3173  0.6701  0.4645
  885MOL0     C19356  10.586  12.142   7.748 -0.3217  0.4071  0.7103
  885MOL0     N19357  10.699  12.164   7.842  0.4234  0.2506  0.2960
  885MOL0     C19358  10.781  12.069   7.872  0.0778 -0.6815 -0.6244
  885MOL0     C19359  10.869  12.135   7.956 -0.2480  1.0851  0.1671
  885MOL0     C19360  10.984  12.070   8.030 -0.3486  0.1181 -0.4419
  885MOL0     C19361  11.083  11.998   7.939 -0.6966  0.0070  0.1181
  885MOL0     C19362  11.047  11.852   7.914 -0.7413  0.3929  0.1422
  885MOL0     C19363  11.162  11.779   7.839 -0.0525  0.1962  0.3970
  885MOL0     O19364  11.239  11.693   7.921 -0.4203 -0.1083 -0.3842
  885MOL0     C19365  11.373  11.671   7.878  0.4524 -0.1917 -0.6344
  885MOL0     C19366  11.443  11.585   7.968  0.3983 -0.1042  0.0001
  885MOL0     C19367  11.577  11.554   7.940 -0.4776 -0.1480 -0.1916
  885MOL0     C19368  11.646  11.597   7.829 -0.3277  0.3623  0.3162
  885MOL0     C19369  11.786  11.551   7.804  0.2743  0.6113 -0.2151
  885MOL0     O19370  11.836  11.563   7.679  0.0026 -0.2049  0.0986
  885MOL0     C19371  11.973  11.537   7.661 -0.1008  0.0588  0.0223
  885MOL0     C19372  12.085  11.561   7.738  0.1043 -0.2328 -0.1194
  885MOL0     C19373  12.212  11.512   7.709 -0.4865 -0.6855  0.4060
  885MOL0     C19374  12.235  11.450   7.589  0.1940  0.2982 -0.6388
  885MOL0     O19375  12.370  11.404   7.571 -0.1690  0.7799  1.0453
  885MOL0     C19376  12.396  11.324   7.451  0.3842  0.7646  0.8627
  885MOL0     C19377  12.538  11.284   7.468 -0.0631 -0.1125  0.1711
  885MOL0     C19378  12.619  11.309   7.342  0.3412  1.1439 -0.7874
  885MOL0     C19379  12.766  11.268   7.374 -0.2929  0.7870  0.4617
  885MOL0     C19380  12.856  11.289   7.251  0.4663  0.5702  0.2140
  885MOL0     C19381  12.838  11.178   7.142  0.8049 -0.3934  0.3671
  885MOL0     C19382  12.934  11.206   7.029  0.2229  0.7697 -0.1074
  885MOL0     C19383  12.914  11.117   6.912 -0.1899  0.1522 -0.0415
  885MOL0    Cl19384  12.762  11.164   6.825 -0.0690 -0.1186  0.0820
  885MOL0     C19385  12.124  11.427   7.503  0.2937  0.1009 -0.2095
  885MOL0     C19386  11.991  11.466   7.541 -0.1191  0.1200 -0.6364
  885MOL0     O19387  11.839  11.486   7.892  0.5003  0.5253 -0.0942
  885MOL0     C19388  11.569  11.668   7.740 -0.7059  0.4786  0.9127
  885MOL0     C19389  11.438  11.713   7.764  0.2834  0.2919  0.3984
  885MOL0     N19390  10.839  12.269   7.964  0.2882  0.5429 -0.9774
  885MOL0     N19391  10.735  12.287   7.890 -0.2519  0.0412 -0.2931
  885MOL0     C19392  10.968  11.175   7.672 -0.5623  0.0097  0.3295
  885MOL0     C19393  11.093  11.126   7.638  0.1113  0.0004 -1.4125
  885MOL0     C19394  11.523  11.004   7.577  0.2992  0.0602  0.0137
  885MOL0     C19395  11.555  10.875   7.528  1.4176  0.1727  0.1232
  885MOL0     C19396  11.683  10.833   7.504 -0.5468 -0.0291 -0.0367
  885MOL0     C19397  11.783  10.924   7.522 -0.1074 -0.6232 -0.3047
  885MOL0     O19398  11.908  10.881   7.477  0.3206  0.3936 -0.4777
  885MOL0     C19399  11.967  10.972   7.378  0.3141  0.3363 -1.0093
  885MOL0     C19400  12.126  10.960   7.377  0.4218  0.4611  0.4609
  885MOL0     C19401  12.177  10.815   7.364  0.2625 -0.5933 -0.3869
  885MOL0     C19402  12.321  10.817   7.325  0.1463  0.1224 -0.2466
  885MOL0     C19403  12.367  10.685   7.286 -0.0270 -0.1693 -0.3778
  885MOL0     C19404  12.396  10.566   7.279  0.5054  0.1909 -0.0678
  885MOL0     C19405  11.761  11.047   7.583 -0.8559 -0.5179  0.1053
  885MOL0     C19406  11.631  11.092   7.607  1.1924 -0.0265  1.1861
  885MOL0     C19407  11.605  11.233   7.642  0.7460  0.1627  0.1489
  885MOL0     H19408  11.296  11.354   7.787  0.7422  0.6699 -3.2525
  885MOL0     H19409  11.066  11.443   7.839  1.9638 -0.7405  1.4120
  885MOL0     H19410  10.891  11.547   7.833 -0.5136  2.1848 -1.8863
  885MOL0     H19411  10.855  11.520   7.666 -0.4578  2.7766  0.7099
  885MOL0     H19412  10.637  11.480   7.882  0.4455 -0.2675 -0.1489
  885MOL0     H19413  10.619  11.483   7.706 -2.8109  0.7620  1.6759
  885MOL0     H19414  10.699  11.711   7.684 -0.3292  1.2949 -0.3230
  885MOL0     H19415  10.715  11.726   7.854  0.8362 -0.0354 -0.8360
  885MOL0     H19416  10.463  11.636   7.716  1.6103  1.1734 -1.5940
  885MOL0     H19417  10.469  11.683   7.887 -1.6171 -0.9337 -0.1420
  885MOL0     H19418  10.548  11.883   7.667  1.2255  1.2749  1.7226
  885MOL0     H19419  10.378  11.853   7.685  0.8704  1.3863 -1.5930
  885MOL0     H19420  10.381  11.917   7.916  1.9231 -0.9095  2.7544
  885MOL0     H19421  10.556  11.933   7.919 -0.5955 -0.3566  0.1944
  885MOL0     H19422  10.418  12.155   7.893 -3.9474  1.5179 -1.7896
  885MOL0     H19423  10.379  12.091   7.732  0.4344  1.0798  0.3216
  885MOL0     H19424  10.619  12.076   7.668 -1.6063  1.2766 -0.6041
  885MOL0     H19425  10.560  12.235   7.696  2.3681  0.0789 -1.4034
  885MOL0     H19426  10.790  11.962   7.857  2.7413 -0.5881 -0.2500
  885MOL0     H19427  11.035  12.155   8.078 -2.4122  0.7496  0.7768
  885MOL0     H19428  10.944  12.012   8.114  1.5809  1.5680  1.6232
  885MOL0     H19429  11.093  12.043   7.840  1.2231 -0.3350  0.1246
  885MOL0     H19430  11.178  11.997   7.992 -0.2036  0.1216 -0.7439
  885MOL0     H19431  10.964  11.843   7.844  0.7123 -2.8703 -1.3252
  885MOL0     H19432  11.017  11.806   8.009  1.5869 -0.7811  0.3830
  885MOL0     H19433  11.215  11.855   7.779  0.1425 -1.6737 -1.9450
  885MOL0     H19434  11.107  11.715   7.770  0.9472 -0.5780  0.2969
  885MOL0     H19435  11.392  11.542   8.054  1.3387  2.2936  1.8942
  885MOL0     H19436  11.629  11.485   8.006  0.7191  0.3839 -0.5474
  885MOL0     H19437  12.062  11.607   7.833 -1.8228 -0.8783 -0.2229
  885MOL0     H19438  12.296  11.522   7.776  0.4876 -2.4358 -0.4864
  885MOL0     H19439  12.336  11.233   7.451 -0.0467  1.0428  0.8904
  885MOL0     H19440  12.362  11.373   7.359 -4.4608  2.2573  3.1092
  885MOL0     H19441  12.584  11.337   7.551  1.0854  0.1925 -0.6281
  885MOL0     H19442  12.541  11.176   7.486  2.0029 -0.4164 -1.5382
  885MOL0     H19443  12.588  11.261   7.249  1.9330 -0.2026 -0.6628
  885MOL0     H19444  12.607  11.417   7.331 -0.8124  1.0199 -0.8798
  885MOL0     H19445  12.766  11.163   7.404  3.2204  0.7838  0.8610
  885MOL0     H19446  12.808  11.332   7.453  1.3990  2.3721 -1.5959
  885MOL0     H19447  12.959  11.299   7.284  0.8604 -0.2762 -0.7053
  885MOL0     H19448  12.828  11.380   7.197 -2.1424 -1.1063 -1.5147
  885MOL0     H19449  12.859  11.083   7.191 -0.8736 -1.9965 -1.8647
  885MOL0     H19450  12.733  11.176   7.113  0.5803  0.2588  1.0947
  885MOL0     H19451  13.040  11.202   7.057 -0.1391 -0.9386  1.2379
  885MOL0     H19452  12.912  11.305   6.989 -1.3340  0.2366 -0.6323
  885MOL0     H19453  12.999  11.140   6.847 -0.3047  2.2859  0.4886
  885MOL0     H19454  12.916  11.010   6.931  1.5542 -0.2048 -1.9118
  885MOL0     H19455  12.138  11.388   7.402 -0.7505 -0.4499 -0.1541
  885MOL0     H19456  11.895  11.441   7.496 -2.6491  0.3716  4.0126
  885MOL0     H19457  11.615  11.699   7.646  0.1410  0.2717  1.2492
  885MOL0     H19458  11.388  11.766   7.683 -1.4606 -2.4902 -0.4850
  885MOL0     H19459  10.883  11.130   7.624  0.1522 -0.8585 -0.1507
  885MOL0     H19460  11.096  11.051   7.560  1.7062 -0.6241 -0.7986
  885MOL0     H19461  11.474  10.804   7.515  0.5383  0.9731  1.0177
  885MOL0     H19462  11.690  10.733   7.464 -0.9284 -0.1879  0.2884
  885MOL0     H19463  11.946  11.073   7.416 -1.8405  0.2068 -1.6852
  885MOL0     H19464  11.919  10.951   7.283  0.9242 -0.9425 -1.0457
  885MOL0     H19465  12.164  11.027   7.454  0.3801  3.4358 -1.9223
  885MOL0     H19466  12.149  11.017   7.286 -1.2946 -0.7722 -0.8330
  885MOL0     H19467  12.112  10.774   7.287  1.1073  0.4634 -1.7005
  885MOL0     H19468  12.170  10.761   7.459  2.2334 -2.9453 -1.4642
  885MOL0     H19469  12.339  10.889   7.244 -1.2557  2.8788  1.7329
  885MOL0     H19470  12.383  10.846   7.411  0.5438 -1.4217  0.0193
  885MOL0     H19471  12.426  10.463   7.275 -0.2195 -0.0078 -0.4865
  885MOL0     H19472  11.853  11.097   7.612 -1.4145 -0.5647  2.1218
  885MOL0     H19473  11.689  11.300   7.625  0.6589  0.4623  0.8268
  885MOL0     H19474  11.527  11.270   7.575 -0.7103  3.1015  3.1701
  885MOL0     H19475  11.577  11.247   7.747  1.8359  1.4864  0.2790
  886MOL0     O19476   3.055   7.850   2.592  0.2649 -0.0257  0.0235
  886MOL0     C19477   3.010   7.946   2.537  0.5734  0.1430  0.5572
  886MOL0     O19478   3.072   8.037   2.458 -0.1612  0.4567 -0.4731
  886MOL0     C19479   3.196   8.010   2.416  0.4380  0.3096  0.8961
  886MOL0     C19480   3.224   8.042   2.282 -0.4133 -0.5736 -0.9875
  886MOL0     C19481   3.346   8.027   2.231  0.7378  0.7879  0.0084
  886MOL0     C19482   3.450   7.979   2.314 -0.6794  0.2722  0.5421
  886MOL0     O19483   3.579   7.954   2.267  0.5659 -0.1351 -0.4097
  886MOL0     C19484   3.641   8.056   2.197  0.3363 -0.0823 -0.4276
  886MOL0     C19485   3.785   8.023   2.188 -0.2512 -0.3949 -0.3358
  886MOL0     C19486   3.869   8.148   2.147  0.7060 -0.1044  0.0968
  886MOL0     C19487   4.014   8.098   2.150  0.3619  0.0127  0.0580
  886MOL0     C19488   4.093   8.166   2.043  0.5268  0.0693  0.1127
  886MOL0     C19489   4.243   8.139   2.060  0.1481 -0.0436  0.0320
  886MOL0     C19490   4.312   8.034   1.976 -0.1807 -0.2111  0.4400
  886MOL0     C19491   4.301   8.070   1.828 -0.0527 -0.1202  0.4991
  886MOL0     N19492   4.408   8.002   1.759  0.1021 -0.3767  0.5304
  886MOL0     C19493   4.544   8.035   1.773 -0.3369 -1.1123 -0.3161
  886MOL0     C19494   4.603   7.968   1.669  0.0028 -0.1683  0.0818
  886MOL0     C19495   4.749   7.974   1.642 -0.3815 -0.8160 -0.3895
  886MOL0     C19496   4.784   7.898   1.511 -0.3992  0.4417  0.2339
  886MOL0     C19497   4.933   7.877   1.513 -0.1072 -0.2514 -0.2001
  886MOL0     C19498   4.988   7.797   1.396 -0.3583  0.2547 -0.2938
  886MOL0     O19499   4.985   7.869   1.276  0.4142  0.8514 -0.3479
  886MOL0     C19500   5.108   7.888   1.223  0.4217 -0.4986  0.5193
  886MOL0     C19501   5.188   7.984   1.280 -0.3586 -0.1011  0.2000
  886MOL0     C19502   5.318   7.989   1.237  0.4649 -0.2804 -0.3594
  886MOL0     C19503   5.370   7.901   1.139 -0.6745  0.6428 -0.9261
  886MOL0     C19504   5.506   7.910   1.091 -0.3972  0.2199 -0.3600
  886MOL0     O19505   5.540   7.836   0.981 -0.1329  0.8188 -0.5284
  886MOL0     C19506   5.675   7.820   0.947 -0.0309 -0.0680 -0.5096
  886MOL0     C19507   5.717   7.838   0.815 -0.3300  0.1183 -0.4235
  886MOL0     C19508   5.856   7.828   0.792  0.4891 -0.3101  0.3799
  886MOL0     C19509   5.954   7.770   0.884  0.8659 -0.3809  0.2395
  886MOL0     O19510   6.085   7.753   0.847 -0.3137  0.0162  0.2191
  886MOL0     C19511   6.182   7.717   0.948  0.7424 -0.3067  0.8831
  886MOL0     C19512   6.323   7.753   0.920 -0.9378 -0.1203  0.8889
  886MOL0     C19513   6.440   7.688   1.010  0.4542  0.4916 -0.2480
  886MOL0     C19514   6.575   7.774   1.002 -0.6829 -0.3943 -0.6838
  886MOL0     C19515   6.617   7.770   0.849  0.3327 -0.3323 -1.0164
  886MOL0     C19516   6.763   7.825   0.837  0.6341 -0.3628  0.1574
  886MOL0     C19517   6.867   7.725   0.885 -0.3452  0.4331  0.1342
  886MOL0     C19518   7.007   7.777   0.872  0.8296  0.4425 -0.4822
  886MOL0    Cl19519   7.063   7.892   0.994  0.2397 -0.1218 -0.0607
  886MOL0     C19520   5.903   7.732   1.009 -0.0556 -0.1458  0.3659
  886MOL0     C19521   5.764   7.759   1.041 -0.2963  0.1692 -0.4341
  886MOL0     O19522   5.580   7.988   1.149  0.1881 -0.2838  0.0190
  886MOL0     C19523   5.283   7.808   1.084 -0.0925 -0.9708  0.1123
  886MOL0     C19524   5.155   7.804   1.128 -0.4778 -1.0470  0.8577
  886MOL0     N19525   4.504   7.894   1.603  0.0737  0.1055 -0.0169
  886MOL0     N19526   4.391   7.919   1.651  0.0320  0.0615 -0.3352
  886MOL0     C19527   3.431   7.939   2.445 -0.0363 -0.4795 -0.1805
  886MOL0     C19528   3.303   7.958   2.504  0.8036 -0.1936  0.1099
  886MOL0     C19529   2.864   7.965   2.539 -0.3959 -0.3175 -0.1548
  886MOL0     C19530   2.810   7.971   2.669 -0.4325  0.1493  0.4361
  886MOL0     C19531   2.670   7.988   2.697 -1.2003 -0.6405  0.3007
  886MOL0     C19532   2.587   8.002   2.590 -0.1994  0.3521  0.6276
  886MOL0     O19533   2.456   8.013   2.626 -0.0506 -0.2893 -0.1613
  886MOL0     C19534   2.356   8.040   2.528 -0.5886  0.4836  0.0420
  886MOL0     C19535   2.227   8.047   2.601  0.5612  0.9008  0.3652
  886MOL0     C19536   2.191   8.189   2.661 -0.0984  0.0088  0.5987
  886MOL0     C19537   2.062   8.185   2.744 -0.9399 -0.2689  1.2866
  886MOL0     C19538   1.997   8.323   2.736 -0.0900 -0.2256  0.0564
  886MOL0     C19539   1.938   8.426   2.705 -0.4207  0.0294 -0.4072
  886MOL0     C19540   2.648   8.003   2.462  0.8820 -0.3154 -0.7126
  886MOL0     C19541   2.778   7.986   2.427 -0.4321 -0.2694 -0.5866
  886MOL0     C19542   2.819   8.002   2.284  0.5386 -0.5346 -0.4001
  886MOL0     H19543   3.159   8.088   2.208  0.8668 -0.1341 -1.8692
  886MOL0     H19544   3.372   8.052   2.129  0.7781 -1.8988 -0.7069
  886MOL0     H19545   3.620   8.080   2.093  3.0666 -2.0042 -1.5460
  886MOL0     H19546   3.626   8.151   2.250 -1.1332  0.2736 -1.4113
  886MOL0     H19547   3.797   7.946   2.112  1.6256 -0.0564 -0.4297
  886MOL0     H19548   3.828   7.982   2.280  1.1140  1.0835 -0.2748
  886MOL0     H19549   3.850   8.223   2.224  0.3101 -0.6909  0.5807
  886MOL0     H19550   3.837   8.171   2.046 -0.2110 -0.1772  0.3664
  886MOL0     H19551   4.049   8.137   2.247  0.6431  0.8328 -0.3627
  886MOL0     H19552   4.016   7.990   2.133  0.2622 -0.2194  1.3957
  886MOL0     H19553   4.062   8.127   1.945  0.5494 -0.5315  0.3362
  886MOL0     H19554   4.081   8.274   2.046  1.4038  0.1532  2.1320
  886MOL0     H19555   4.297   8.230   2.031 -0.4255  0.0302 -0.8775
  886MOL0     H19556   4.262   8.112   2.164 -0.0461  0.5700  0.2315
  886MOL0     H19557   4.267   7.935   1.987 -1.4784  0.4428  1.2452
  886MOL0     H19558   4.417   8.031   2.004  0.2234  0.4224 -0.9113
  886MOL0     H19559   4.203   8.042   1.786  0.9341 -0.1727 -1.9321
  886MOL0     H19560   4.311   8.178   1.812  0.7362 -0.5596 -2.5659
  886MOL0     H19561   4.579   8.102   1.850  1.6838 -1.0704 -1.2149
  886MOL0     H19562   4.787   8.075   1.657 -1.5402 -0.4358  0.0731
  886MOL0     H19563   4.785   7.913   1.726  0.6695 -0.4533 -0.5696
  886MOL0     H19564   4.732   7.803   1.493  0.8147  0.1668 -2.1747
  886MOL0     H19565   4.753   7.961   1.427 -0.2475 -0.8295 -0.8162
  886MOL0     H19566   4.958   7.820   1.603  0.0577 -0.8441 -0.6138
  886MOL0     H19567   4.986   7.972   1.519  1.5617 -1.0487 -1.4111
  886MOL0     H19568   4.918   7.713   1.389 -0.5682  0.3299  0.7274
  886MOL0     H19569   5.088   7.758   1.415 -0.5004 -0.3804 -0.8086
  886MOL0     H19570   5.149   8.052   1.355 -0.2049  1.3785 -1.0155
  886MOL0     H19571   5.369   8.076   1.277 -2.4523  1.5999 -0.4517
  886MOL0     H19572   5.650   7.866   0.734 -0.9049  3.3223  0.9770
  886MOL0     H19573   5.908   7.863   0.704  2.1237  0.4475  1.6022
  886MOL0     H19574   6.162   7.777   1.037 -0.5712  1.7487 -0.6911
  886MOL0     H19575   6.168   7.611   0.971 -0.5187 -0.3143  0.2023
  886MOL0     H19576   6.345   7.734   0.815  0.0031  1.6166  0.7404
  886MOL0     H19577   6.328   7.860   0.941 -0.8643  0.1812 -0.5452
  886MOL0     H19578   6.416   7.688   1.116 -0.2392 -1.6439 -0.3592
  886MOL0     H19579   6.452   7.583   0.983  1.8334  0.6107 -0.1615
  886MOL0     H19580   6.650   7.733   1.071  1.6154  2.7141 -1.0893
  886MOL0     H19581   6.545   7.876   1.028  4.0068  0.6072  2.1003
  886MOL0     H19582   6.547   7.833   0.794  0.6936 -1.1623 -2.4789
  886MOL0     H19583   6.605   7.666   0.818 -2.3216 -0.1423 -0.8532
  886MOL0     H19584   6.796   7.858   0.738 -0.1347  1.8914  0.6106
  886MOL0     H19585   6.765   7.919   0.893 -0.3740 -1.2689  1.7840
  886MOL0     H19586   6.858   7.633   0.827  1.4206 -0.3662  1.0696
  886MOL0     H19587   6.856   7.707   0.992 -0.7484  1.3740  0.2636
  886MOL0     H19588   7.074   7.690   0.869 -1.8199 -1.7328 -0.1766
  886MOL0     H19589   7.017   7.807   0.767 -0.7193  1.0169 -0.4914
  886MOL0     H19590   5.966   7.673   1.075 -0.5314  0.4161  1.3365
  886MOL0     H19591   5.735   7.714   1.135 -1.1568 -1.0817 -1.2743
  886MOL0     H19592   5.320   7.735   1.013  3.0044 -0.1204  0.7139
  886MOL0     H19593   5.100   7.715   1.099  1.1368 -1.4935 -1.0820
  886MOL0     H19594   3.516   7.891   2.492  0.7338 -0.0638 -1.0939
  886MOL0     H19595   3.282   7.943   2.609  0.5768  2.4558  0.5128
  886MOL0     H19596   2.887   7.960   2.744 -0.5390  0.3388  0.5709
  886MOL0     H19597   2.625   7.985   2.795 -3.2010 -2.9167 -0.5936
  886MOL0     H19598   2.353   7.961   2.452 -2.5245 -0.3066  0.8708
  886MOL0     H19599   2.388   8.130   2.474  0.3764 -1.4796 -2.8589
  886MOL0     H19600   2.246   7.964   2.669 -0.9699 -0.8270 -1.1735
  886MOL0     H19601   2.139   8.005   2.551 -0.5864  0.2949  2.7717
  886MOL0     H19602   2.181   8.269   2.587 -2.4484 -2.1712 -1.6762
  886MOL0     H19603   2.270   8.208   2.734 -1.1244 -1.1879  2.0992
  886MOL0     H19604   1.997   8.106   2.705  0.4035 -1.0821  0.6224
  886MOL0     H19605   2.073   8.152   2.847  0.9331 -1.0352  0.8863
  886MOL0     H19606   1.880   8.514   2.687  2.5770  1.7613 -2.6195
  886MOL0     H19607   2.591   8.023   2.373 -0.4728 -0.6445  0.0536
  886MOL0     H19608   2.908   7.942   2.264  1.3933  0.9046 -1.1296
  886MOL0     H19609   2.741   7.966   2.217 -0.8697 -0.1384  0.9612
  886MOL0     H19610   2.843   8.107   2.263 -0.5987  0.5277  2.9204
  887MOL0     O19611  10.090   9.892  11.230 -0.2934  1.7773  0.0391
  887MOL0     C19612  10.021   9.988  11.205 -0.1763  0.1529 -0.0825
  887MOL0     O19613  10.065  10.114  11.185  0.2323 -0.0595 -0.0672
  887MOL0     C19614  10.193  10.113  11.123 -0.2374 -0.2014 -0.0960
  887MOL0     C19615  10.208  10.148  10.994 -0.3758 -1.0735  0.4364
  887MOL0     C19616  10.325  10.149  10.922 -0.3518 -0.1621  0.2137
  887MOL0     C19617  10.445  10.120  10.992 -1.0216 -0.2184 -0.3064
  887MOL0     O19618  10.563  10.126  10.914 -0.1150  0.7821  0.1709
  887MOL0     C19619  10.688  10.187  10.956  0.0787  0.6477 -0.1861
  887MOL0     C19620  10.782  10.178  10.838  0.3060 -0.1224 -0.0499
  887MOL0     C19621  10.927  10.182  10.880  0.8301  0.2778 -0.5050
  887MOL0     C19622  11.008  10.168  10.754  0.5386  0.3034  0.4077
  887MOL0     C19623  11.156  10.151  10.772  0.2675 -0.2746 -0.4969
  887MOL0     C19624  11.225  10.106  10.651  0.6021  0.3830  0.2208
  887MOL0     C19625  11.371  10.053  10.660  0.4315 -0.2335 -0.5707
  887MOL0     C19626  11.462  10.158  10.726  1.1677  1.2222 -1.0298
  887MOL0     N19627  11.603  10.115  10.719 -0.4899  1.2407  0.1408
  887MOL0     C19628  11.669  10.029  10.806  0.1644  0.6140 -0.9334
  887MOL0     C19629  11.799  10.036  10.777 -0.8198  0.7607  0.2971
  887MOL0     C19630  11.909   9.964  10.852 -0.5033 -0.4861 -0.0824
  887MOL0     C19631  12.041   9.949  10.763  0.4664 -0.4410 -0.4769
  887MOL0     C19632  12.168   9.933  10.850 -0.9972 -0.4352  0.2312
  887MOL0     C19633  12.295   9.908  10.766  0.1676  0.4777  0.3649
  887MOL0     O19634  12.406   9.923  10.851  0.0782 -0.1890  0.2464
  887MOL0     C19635  12.528   9.893  10.802  0.6424 -0.1798  0.2310
  887MOL0     C19636  12.556   9.822  10.680  0.0493  0.1679  0.0774
  887MOL0     C19637  12.690   9.798  10.637 -0.3178 -0.2773  0.6673
  887MOL0     C19638  12.800   9.840  10.720 -0.1237  0.6561  0.0884
  887MOL0     C19639  12.944   9.809  10.676  0.4046  0.3841 -0.6358
  887MOL0     O19640  13.035   9.816  10.782  0.6315  0.2389 -0.0639
  887MOL0     C19641  13.169   9.787  10.764 -0.5134 -0.0105 -0.6533
  887MOL0     C19642  13.212   9.656  10.744 -0.9286 -0.2861 -1.3252
  887MOL0     C19643  13.345   9.629  10.749  0.2584 -0.1913 -0.4768
  887MOL0     C19644  13.436   9.734  10.767  0.6424 -0.2703 -0.3950
  887MOL0     O19645  13.573   9.715  10.762  0.2967  0.2526 -1.1348
  887MOL0     C19646  13.662   9.720  10.880  0.8899  0.9562  0.3400
  887MOL0     C19647  13.630   9.589  10.962 -0.5138 -0.8532 -0.0134
  887MOL0     C19648  13.704   9.562  11.096  0.5834  0.7857  0.2039
  887MOL0     C19649  13.853   9.559  11.069  0.8699  0.4983  0.5794
  887MOL0     C19650  13.935   9.499  11.182  0.1129  0.1831  0.1104
  887MOL0     C19651  13.918   9.352  11.221  1.0328  0.7571 -0.4917
  887MOL0     C19652  14.039   9.294  11.296 -0.1908  1.0326 -0.2498
  887MOL0     C19653  14.021   9.147  11.342 -0.3912 -0.0443  0.7010
  887MOL0    Cl19654  13.918   9.136  11.484  0.1176  0.3705 -0.7439
  887MOL0     C19655  13.389   9.867  10.792 -0.3165  0.3733  0.6128
  887MOL0     C19656  13.255   9.894  10.782  0.4308  0.4304  0.1936
  887MOL0     O19657  12.974   9.771  10.565  0.0686  0.2062 -0.1885
  887MOL0     C19658  12.770   9.905  10.840  0.3712  0.6558 -0.1541
  887MOL0     C19659  12.636   9.934  10.873  0.1162  0.7298 -0.4407
  887MOL0     N19660  11.814  10.133  10.680 -0.3159 -0.8821 -0.0153
  887MOL0     N19661  11.694  10.167  10.636 -0.0392 -0.1517 -1.0578
  887MOL0     C19662  10.446  10.109  11.136 -0.0841 -0.1316 -0.3326
  887MOL0     C19663  10.317  10.101  11.198  0.7200 -0.1566 -0.6496
  887MOL0     C19664   9.871   9.970  11.209 -0.0636  0.5707  0.1037
  887MOL0     C19665   9.792  10.086  11.204  0.1777 -0.2197  1.3196
  887MOL0     C19666   9.658  10.090  11.187 -0.4269  0.2908  0.3308
  887MOL0     C19667   9.587   9.972  11.160  0.4926 -0.0321 -0.1875
  887MOL0     O19668   9.451   9.989  11.135  0.6779  0.1163  0.3659
  887MOL0     C19669   9.396   9.888  11.051  0.2012 -0.8305 -0.8101
  887MOL0     C19670   9.452   9.886  10.912  0.2486 -0.0545 -0.6358
  887MOL0     C19671   9.445  10.022  10.839  0.9332  0.4623  0.0172
  887MOL0     C19672   9.496   9.997  10.696 -0.1833 -0.3328 -1.1018
  887MOL0     C19673   9.393   9.933  10.615 -0.5937  0.4268  0.0528
  887MOL0     C19674   9.304   9.880  10.552  0.3232 -0.0721 -0.2335
  887MOL0     C19675   9.655   9.846  11.173  0.2202  0.4663  0.1343
  887MOL0     C19676   9.795   9.847  11.202 -0.9322  0.3443 -0.5327
  887MOL0     C19677   9.855   9.710  11.230 -0.1262 -0.1950  0.0518
  887MOL0     H19678  10.106  10.154  10.957 -0.4575 -3.9008 -0.0308
  887MOL0     H19679  10.321  10.165  10.815  0.2195 -0.9862  0.0591
  887MOL0     H19680  10.660  10.285  10.997  0.2303  0.5391  0.1851
  887MOL0     H19681  10.721  10.121  11.037  0.9296  0.8110 -0.3888
  887MOL0     H19682  10.756  10.258  10.768 -0.0693 -1.2623 -1.2529
  887MOL0     H19683  10.774  10.090  10.773  3.5154  0.6037 -1.6455
  887MOL0     H19684  10.945  10.097  10.947 -3.4857  0.4175  1.1524
  887MOL0     H19685  10.961  10.271  10.934 -2.1477 -0.1345  2.4032
  887MOL0     H19686  10.976  10.073  10.710  0.9238 -0.3499  1.5204
  887MOL0     H19687  10.999  10.254  10.687  0.2951  0.0577  0.1203
  887MOL0     H19688  11.200  10.244  10.809  1.0052 -0.7403 -0.1946
  887MOL0     H19689  11.156  10.074  10.849 -0.9624 -1.6319 -1.7769
  887MOL0     H19690  11.156  10.032  10.608  1.0943  1.2735 -2.3014
  887MOL0     H19691  11.228  10.179  10.569 -2.1074 -1.9655 -2.2190
  887MOL0     H19692  11.400  10.022  10.559 -1.0053  1.4797 -1.5577
  887MOL0     H19693  11.379   9.962  10.719  3.7960 -1.1304 -2.1261
  887MOL0     H19694  11.457  10.240  10.653 -0.4174  1.1144 -1.0703
  887MOL0     H19695  11.433  10.177  10.830 -0.6002 -3.2455 -0.4678
  887MOL0     H19696  11.628   9.972  10.888  1.2719 -0.8670 -1.3749
  887MOL0     H19697  11.928  10.017  10.946 -0.4883 -0.1468 -0.2755
  887MOL0     H19698  11.875   9.865  10.884 -0.2855 -0.3534  0.5687
  887MOL0     H19699  12.032   9.864  10.694  0.8073 -1.1327  0.3192
  887MOL0     H19700  12.061  10.039  10.704 -2.2822  1.1729  0.8238
  887MOL0     H19701  12.157   9.853  10.924 -1.3296 -2.2104 -1.6653
  887MOL0     H19702  12.190  10.025  10.905  3.0924 -1.2370  0.2518
  887MOL0     H19703  12.300   9.977  10.681 -2.8364 -4.4970 -4.5263
  887MOL0     H19704  12.292   9.805  10.728  1.6604 -0.6645  3.1008
  887MOL0     H19705  12.484   9.796  10.604  0.8579  1.3817 -1.1668
  887MOL0     H19706  12.709   9.758  10.538  2.3193  1.4170  0.3956
  887MOL0     H19707  13.133   9.588  10.713  1.0611 -2.9594 -0.9539
  887MOL0     H19708  13.384   9.528  10.739  0.4991  0.0761 -2.5260
  887MOL0     H19709  13.766   9.710  10.848 -0.0284 -1.2080 -2.4640
  887MOL0     H19710  13.655   9.816  10.932 -0.0222  1.4609 -0.6611
  887MOL0     H19711  13.523   9.582  10.984 -0.0916 -2.1009  1.8547
  887MOL0     H19712  13.660   9.506  10.897 -0.0209  0.9923 -2.2844
  887MOL0     H19713  13.679   9.650  11.157  0.3359 -0.3671  1.8401
  887MOL0     H19714  13.667   9.474  11.150 -0.7055  0.2140 -1.5414
  887MOL0     H19715  13.889   9.662  11.058  0.7354  0.4267 -0.7260
  887MOL0     H19716  13.882   9.510  10.975  2.1613  1.9927  0.1615
  887MOL0     H19717  13.908   9.565  11.266 -0.2399  1.0202 -0.6447
  887MOL0     H19718  14.041   9.520  11.162 -0.2640  1.5134 -0.6000
  887MOL0     H19719  13.824   9.346  11.278  0.8453  5.5728  0.1151
  887MOL0     H19720  13.906   9.298  11.127 -2.1931 -1.2512  0.9160
  887MOL0     H19721  14.059   9.364  11.378  0.7544 -0.1501  0.5646
  887MOL0     H19722  14.127   9.299  11.233 -0.6329  1.5861 -0.8280
  887MOL0     H19723  13.988   9.081  11.262  2.3219  0.6676 -1.1389
  887MOL0     H19724  14.112   9.099  11.378  1.5669  2.7903 -0.1028
  887MOL0     H19725  13.458   9.942  10.829  1.1879 -0.5303 -0.2533
  887MOL0     H19726  13.203   9.989  10.776 -1.0191 -0.4299 -2.9161
  887MOL0     H19727  12.851   9.934  10.906  0.4338  1.9734 -0.7799
  887MOL0     H19728  12.628   9.979  10.971 -1.9355  0.0814 -0.2593
  887MOL0     H19729  10.539  10.106  11.192  0.2487 -1.8997 -0.9234
  887MOL0     H19730  10.299  10.082  11.303 -1.4605 -1.3916 -1.1782
  887MOL0     H19731   9.849  10.178  11.205 -2.0644  1.4514 -3.0921
  887MOL0     H19732   9.601  10.182  11.191 -0.9172 -0.0391  1.8854
  887MOL0     H19733   9.287   9.904  11.055  0.2846 -0.4354 -0.0511
  887MOL0     H19734   9.413   9.785  11.083 -1.1851 -2.2832 -4.2037
  887MOL0     H19735   9.417   9.800  10.855  2.4394 -1.6157  0.2409
  887MOL0     H19736   9.560   9.876  10.922  0.1875  0.1675  0.4135
  887MOL0     H19737   9.496  10.102  10.894  4.8341  0.1894 -2.8058
  887MOL0     H19738   9.338  10.040  10.824  0.1958 -2.9321  0.3037
  887MOL0     H19739   9.525  10.097  10.661 -1.0290 -0.3246 -1.7979
  887MOL0     H19740   9.585   9.933  10.695  3.1692  3.7310  1.5980
  887MOL0     H19741   9.224   9.828  10.503  0.2749 -2.4625  2.1055
  887MOL0     H19742   9.610   9.748  11.165 -1.8850  1.4607 -1.0922
  887MOL0     H19743   9.787   9.625  11.223  0.1249 -0.3676 -0.3717
  887MOL0     H19744   9.943   9.690  11.167  0.8976 -0.4054  1.4880
  887MOL0     H19745   9.906   9.712  11.327  2.7081  1.5298 -1.3419
  888MOL0     O19746   2.925   6.605   9.241 -0.5426  1.1075 -0.7838
  888MOL0     C19747   2.835   6.613   9.329 -0.5823  0.5842 -0.4425
  888MOL0     O19748   2.852   6.571   9.467  0.3541 -0.1994 -0.0054
  888MOL0     C19749   2.972   6.510   9.491 -0.4810  0.3174 -0.0489
  888MOL0     C19750   3.069   6.578   9.572 -0.1111 -0.1953 -0.0583
  888MOL0     C19751   3.186   6.513   9.602 -0.2659 -0.2356  0.2308
  888MOL0     C19752   3.216   6.385   9.562 -0.1806  0.5817  0.3172
  888MOL0     O19753   3.320   6.307   9.593 -0.5509 -0.0013 -0.2208
  888MOL0     C19754   3.419   6.285   9.494  0.3117 -1.0311  0.0280
  888MOL0     C19755   3.512   6.408   9.471  0.0639 -0.1203  0.2211
  888MOL0     C19756   3.627   6.362   9.370  0.9314  0.3617 -0.4879
  888MOL0     C19757   3.646   6.451   9.245  0.5432 -0.6218  0.5559
  888MOL0     C19758   3.739   6.383   9.153  0.0340  0.2357 -0.1446
  888MOL0     C19759   3.708   6.235   9.118  0.0511 -0.0784  0.3893
  888MOL0     C19760   3.826   6.159   9.042  0.5311  0.2114 -0.3803
  888MOL0     C19761   3.788   6.024   8.999  0.3724  0.4669  0.8538
  888MOL0     N19762   3.892   5.968   8.913 -0.1446  0.1505 -0.0223
  888MOL0     C19763   3.989   5.873   8.950 -0.2995 -1.0935 -0.8472
  888MOL0     C19764   4.086   5.876   8.859 -0.3230  1.1999  0.0916
  888MOL0     C19765   4.214   5.791   8.856  0.4719 -0.6516  0.7005
  888MOL0     C19766   4.308   5.845   8.753 -0.9552 -0.0431 -0.3386
  888MOL0     C19767   4.432   5.744   8.734  0.2283 -0.3165 -0.0242
  888MOL0     C19768   4.511   5.780   8.616 -0.2130 -0.5652  1.2364
  888MOL0     O19769   4.648   5.728   8.624  0.2044 -0.0012  0.1134
  888MOL0     C19770   4.748   5.794   8.561 -0.8437 -0.5618 -0.2397
  888MOL0     C19771   4.871   5.734   8.583  0.0900  0.8276  0.1365
  888MOL0     C19772   4.986   5.789   8.520 -0.7709 -0.6984 -0.5688
  888MOL0     C19773   4.985   5.912   8.456  0.0011  0.2873  0.2152
  888MOL0     C19774   5.100   5.971   8.377  0.2601 -0.5772  0.3025
  888MOL0     O19775   5.076   6.101   8.321 -0.0006  0.5570  0.4865
  888MOL0     C19776   5.186   6.170   8.270  0.1875  0.1059  0.3300
  888MOL0     C19777   5.299   6.109   8.202 -0.5230  0.0698  0.2000
  888MOL0     C19778   5.406   6.184   8.156 -0.4882 -0.3960  0.5183
  888MOL0     C19779   5.418   6.319   8.206 -0.2857  0.1891  0.0335
  888MOL0     O19780   5.535   6.393   8.196  0.4669 -0.2879  0.0057
  888MOL0     C19781   5.660   6.328   8.212 -0.4945 -0.1855  0.6848
  888MOL0     C19782   5.752   6.321   8.080  0.5122 -0.4525 -1.6794
  888MOL0     C19783   5.707   6.233   7.963 -0.2570 -0.5259  0.1466
  888MOL0     C19784   5.800   6.250   7.842 -0.2466  0.0507  0.7563
  888MOL0     C19785   5.780   6.160   7.708 -0.6073 -0.3387 -0.6170
  888MOL0     C19786   5.680   6.224   7.608 -0.2532  0.2031  0.5032
  888MOL0     C19787   5.678   6.137   7.479  0.0109  0.0069  0.7674
  888MOL0     C19788   5.629   6.231   7.368 -0.6629 -0.1183  0.1448
  888MOL0    Cl19789   5.556   6.142   7.233 -0.0791 -0.0925 -0.2654
  888MOL0     C19790   5.310   6.376   8.268  0.6390 -0.9216  1.0396
  888MOL0     C19791   5.192   6.309   8.299  0.1604 -0.4255 -0.5024
  888MOL0     O19792   5.202   5.905   8.379 -0.7449 -1.3462  0.3110
  888MOL0     C19793   4.865   5.984   8.457 -0.1779  0.1761 -0.1239
  888MOL0     C19794   4.747   5.922   8.496  0.2039 -0.4894 -0.1471
  888MOL0     N19795   4.048   5.962   8.763 -0.1214 -0.0425 -0.3039
  888MOL0     N19796   3.939   6.025   8.796 -0.3950  0.1205  0.8848
  888MOL0     C19797   3.122   6.316   9.486 -0.0124  0.4409 -0.5089
  888MOL0     C19798   3.003   6.380   9.455  0.2123  0.5124  0.7208
  888MOL0     C19799   2.695   6.657   9.289 -0.4640  0.2578  0.0474
  888MOL0     C19800   2.680   6.691   9.155 -0.2352  0.5331  0.0771
  888MOL0     C19801   2.558   6.734   9.104 -0.2978  0.6692 -0.2407
  888MOL0     C19802   2.449   6.734   9.185 -0.6978  0.5704  0.4456
  888MOL0     O19803   2.333   6.766   9.111 -0.3628 -0.6051  0.4576
  888MOL0     C19804   2.221   6.816   9.191 -0.4309  0.2476 -0.5992
  888MOL0     C19805   2.110   6.880   9.107  0.4065 -0.5340 -0.3320
  888MOL0     C19806   2.045   6.768   9.033 -0.0867  0.6758 -0.4412
  888MOL0     C19807   1.941   6.683   9.124 -0.8021 -0.1823  0.4666
  888MOL0     C19808   1.823   6.763   9.164  0.4465  0.8690  0.1649
  888MOL0     C19809   1.722   6.820   9.199  0.4324 -0.5261  0.0433
  888MOL0     C19810   2.461   6.705   9.321  0.6759 -0.0300  0.1349
  888MOL0     C19811   2.583   6.666   9.375 -0.6104 -0.3809 -1.2277
  888MOL0     C19812   2.574   6.629   9.530 -0.1134  0.7654 -0.3417
  888MOL0     H19813   3.053   6.676   9.617 -0.6542  0.8820 -2.4476
  888MOL0     H19814   3.258   6.575   9.655 -0.0081  0.4424 -0.8820
  888MOL0     H19815   3.485   6.204   9.527 -0.2062 -1.2798  0.4671
  888MOL0     H19816   3.375   6.254   9.399 -0.1328 -0.2576 -0.0275
  888MOL0     H19817   3.547   6.434   9.571  0.1715 -2.2998  0.7989
  888MOL0     H19818   3.467   6.503   9.443  3.7992  1.8243  0.1608
  888MOL0     H19819   3.594   6.261   9.345 -3.2498  1.4589 -0.2228
  888MOL0     H19820   3.723   6.358   9.423  1.1613  3.6846 -0.4518
  888MOL0     H19821   3.545   6.475   9.210 -0.7483 -2.8898  2.4341
  888MOL0     H19822   3.698   6.543   9.270 -0.0186 -0.4687  1.1771
  888MOL0     H19823   3.745   6.445   9.063  0.4806 -0.5734 -0.6867
  888MOL0     H19824   3.834   6.379   9.206  0.6923 -2.4243 -1.3620
  888MOL0     H19825   3.675   6.169   9.199 -0.6743  0.6854  0.7336
  888MOL0     H19826   3.629   6.254   9.045 -0.6468  0.3510  1.2472
  888MOL0     H19827   3.914   6.152   9.108 -0.7334  2.9818  1.7927
  888MOL0     H19828   3.858   6.220   8.957 -0.2970  0.5177 -0.4771
  888MOL0     H19829   3.752   5.967   9.085  0.5083 -0.4134  0.3370
  888MOL0     H19830   3.704   6.041   8.932 -1.0410 -0.2460  2.3754
  888MOL0     H19831   3.986   5.816   9.042  1.1360  2.1769  1.4060
  888MOL0     H19832   4.249   5.795   8.960  0.5809 -1.2836  0.6913
  888MOL0     H19833   4.194   5.688   8.826 -2.7317 -0.1061  0.6421
  888MOL0     H19834   4.258   5.862   8.657 -1.4214  3.1578  0.3525
  888MOL0     H19835   4.339   5.945   8.785  2.1588 -0.6479 -1.1139
  888MOL0     H19836   4.401   5.641   8.714  0.7504 -0.2048 -1.5568
  888MOL0     H19837   4.489   5.749   8.827 -0.8752 -1.9101  0.8022
  888MOL0     H19838   4.502   5.883   8.581 -0.6307 -0.8987  0.3247
  888MOL0     H19839   4.474   5.716   8.535  3.0635 -0.2880 -0.6510
  888MOL0     H19840   4.871   5.647   8.648  0.0330  0.9388  0.2873
  888MOL0     H19841   5.074   5.724   8.524 -0.4898 -0.3778 -1.3841
  888MOL0     H19842   5.295   6.005   8.172  1.1847  0.1928 -0.5356
  888MOL0     H19843   5.490   6.145   8.099 -0.1705  0.9156  0.0389
  888MOL0     H19844   5.715   6.388   8.285  0.4841  0.7520 -0.7801
  888MOL0     H19845   5.645   6.224   8.245 -2.3425 -0.6301 -1.2886
  888MOL0     H19846   5.773   6.422   8.044  0.1524  0.6705  1.0217
  888MOL0     H19847   5.853   6.289   8.108  1.3036  1.4345 -2.1863
  888MOL0     H19848   5.709   6.126   7.981 -1.1177 -0.9774 -2.0546
  888MOL0     H19849   5.604   6.261   7.938 -0.7112 -0.4096  1.9832
  888MOL0     H19850   5.898   6.221   7.881  0.3078  0.8381 -0.0058
  888MOL0     H19851   5.798   6.359   7.826 -4.0184 -0.1309 -1.1770
  888MOL0     H19852   5.755   6.059   7.742  0.3071 -0.9512 -1.7126
  888MOL0     H19853   5.880   6.149   7.664 -1.5429 -2.2160 -2.4421
  888MOL0     H19854   5.583   6.219   7.658 -0.2789  1.0260  0.5629
  888MOL0     H19855   5.710   6.327   7.584 -0.2685 -0.0075 -0.4878
  888MOL0     H19856   5.634   6.037   7.481 -2.2136  0.9042 -0.1932
  888MOL0     H19857   5.787   6.131   7.466  0.4909 -0.1537  4.0161
  888MOL0     H19858   5.558   6.306   7.404  1.2668  1.0706  1.6942
  888MOL0     H19859   5.712   6.287   7.324  0.3559 -0.5320  1.4487
  888MOL0     H19860   5.323   6.481   8.294 -0.8312  0.7346 -3.8788
  888MOL0     H19861   5.111   6.359   8.353  0.3096  0.9860 -1.5302
  888MOL0     H19862   4.854   6.081   8.410  2.5722  0.3970 -0.4413
  888MOL0     H19863   4.652   5.968   8.468  0.3128 -0.7823 -1.0069
  888MOL0     H19864   3.142   6.211   9.466  1.3517  0.3885  0.8991
  888MOL0     H19865   2.922   6.320   9.414 -0.8082  1.5801  1.1087
  888MOL0     H19866   2.766   6.673   9.090  2.0329 -2.6605  3.5025
  888MOL0     H19867   2.547   6.754   8.998  1.3390  0.5035 -0.4647
  888MOL0     H19868   2.257   6.895   9.258  0.4367  0.1582 -0.9589
  888MOL0     H19869   2.193   6.732   9.255  0.2497  0.1950 -0.3651
  888MOL0     H19870   2.141   6.959   9.039 -3.2086  2.1435  0.8197
  888MOL0     H19871   2.049   6.933   9.182  1.3297  0.6424 -0.3933
  888MOL0     H19872   2.126   6.705   8.993  0.5638  2.0233 -1.3332
  888MOL0     H19873   1.983   6.810   8.953 -1.3142  1.1208  0.7186
  888MOL0     H19874   1.911   6.593   9.070  2.6135 -1.1274 -0.0578
  888MOL0     H19875   2.007   6.660   9.208  1.5083 -2.9866 -1.8672
  888MOL0     H19876   1.632   6.874   9.218  0.5993  1.5593 -3.9146
  888MOL0     H19877   2.371   6.704   9.381  0.4881 -1.0804 -0.1438
  888MOL0     H19878   2.606   6.719   9.583  1.9131  0.6011 -1.1989
  888MOL0     H19879   2.470   6.603   9.554  0.4299 -0.3921  0.8537
  888MOL0     H19880   2.637   6.543   9.553  0.3581  0.8376 -1.3095
  889MOL0     O19881   7.303   1.775   8.118  0.0529  0.7472  0.1773
  889MOL0     C19882   7.225   1.867   8.083  0.9884  0.3060 -0.3384
  889MOL0     O19883   7.230   1.986   8.137 -0.2945  0.3811 -0.0141
  889MOL0     C19884   7.310   2.005   8.249  1.2080 -0.3431  0.5636
  889MOL0     C19885   7.436   2.075   8.245 -0.4637 -0.7445 -0.2666
  889MOL0     C19886   7.498   2.104   8.370  0.3295  0.3900 -0.0708
  889MOL0     C19887   7.436   2.066   8.495 -1.2102  0.2830  1.3209
  889MOL0     O19888   7.478   2.101   8.617  0.2023  0.3625 -0.7422
  889MOL0     C19889   7.389   2.194   8.687 -0.6906  0.7470  0.4236
  889MOL0     C19890   7.455   2.231   8.829  0.3509  0.2701  0.0665
  889MOL0     C19891   7.348   2.265   8.935 -0.4096 -0.3300 -0.1906
  889MOL0     C19892   7.280   2.399   8.923 -0.0182 -0.0836 -0.5204
  889MOL0     C19893   7.163   2.395   9.025 -0.5578 -0.0426  0.3379
  889MOL0     C19894   7.099   2.535   9.042  0.3211 -0.5261  0.1751
  889MOL0     C19895   6.967   2.543   9.119  0.0003 -0.1679 -0.5588
  889MOL0     C19896   7.018   2.515   9.267  0.4840 -0.1806  0.6730
  889MOL0     N19897   6.939   2.581   9.379 -0.4804  0.4466  0.0462
  889MOL0     C19898   6.809   2.543   9.398 -0.9789 -0.2737 -0.2266
  889MOL0     C19899   6.764   2.639   9.490 -0.5115  0.1452  0.5894
  889MOL0     C19900   6.625   2.642   9.550 -0.7633 -0.7203 -0.2773
  889MOL0     C19901   6.636   2.574   9.684 -0.3219  0.6465  0.4812
  889MOL0     C19902   6.525   2.594   9.787  0.0539  0.0782  0.1264
  889MOL0     C19903   6.376   2.571   9.737  0.3579 -0.1263  0.0539
  889MOL0     O19904   6.374   2.480   9.627  0.8146  0.2737  0.5089
  889MOL0     C19905   6.290   2.493   9.528  0.5166 -0.3943  0.3133
  889MOL0     C19906   6.325   2.466   9.392  0.9299 -0.5231 -0.0517
  889MOL0     C19907   6.232   2.494   9.289  0.8722 -1.0231  0.9160
  889MOL0     C19908   6.107   2.556   9.314  0.2939  0.5621  0.1774
  889MOL0     C19909   6.021   2.598   9.199 -0.5011 -0.1661 -0.5987
  889MOL0     O19910   6.049   2.538   9.082  0.1034 -0.3717 -0.6575
  889MOL0     C19911   5.978   2.573   8.977  0.9127  1.0130 -0.7094
  889MOL0     C19912   6.045   2.610   8.858  0.1543  0.1408 -0.1223
  889MOL0     C19913   5.977   2.654   8.743 -0.4808  0.5254  0.2422
  889MOL0     C19914   5.839   2.660   8.753 -0.5271  0.0204  0.5345
  889MOL0     O19915   5.760   2.695   8.644 -0.3706 -0.0844 -0.0065
  889MOL0     C19916   5.818   2.780   8.550 -1.0725 -0.4277  0.0728
  889MOL0     C19917   5.719   2.820   8.440 -0.2276 -0.2686  0.3149
  889MOL0     C19918   5.599   2.891   8.500 -0.3350 -0.2515  1.0442
  889MOL0     C19919   5.502   2.932   8.393  0.0039 -0.2209 -0.2130
  889MOL0     C19920   5.383   3.020   8.421 -0.2138 -0.0685 -0.2015
  889MOL0     C19921   5.286   3.057   8.314  0.3424 -0.2506 -0.4307
  889MOL0     C19922   5.169   3.153   8.360 -0.6158 -0.4972  1.1076
  889MOL0     C19923   5.076   3.079   8.455 -0.1786 -0.4416  0.8690
  889MOL0    Cl19924   4.930   3.019   8.380  0.2559  0.0580 -0.0606
  889MOL0     C19925   5.768   2.622   8.866 -1.3389  0.0813  0.6941
  889MOL0     C19926   5.840   2.573   8.976  0.6657 -0.1190  0.5863
  889MOL0     O19927   5.924   2.667   9.228 -0.3145 -0.2814  0.4426
  889MOL0     C19928   6.070   2.572   9.446 -0.1137  0.0595  0.2802
  889MOL0     C19929   6.155   2.530   9.548 -0.2650  0.1601 -0.0896
  889MOL0     N19930   6.865   2.734   9.518 -0.0801 -0.1918  0.2962
  889MOL0     N19931   6.978   2.689   9.455  0.4303 -0.0166  0.0380
  889MOL0     C19932   7.320   1.988   8.492 -0.3431  0.1330 -0.1534
  889MOL0     C19933   7.252   1.957   8.366  0.0404  0.3963  0.2472
  889MOL0     C19934   7.139   1.827   7.965 -0.1698 -0.0943 -1.5967
  889MOL0     C19935   7.083   1.703   7.977  0.2549  0.2635 -0.1709
  889MOL0     C19936   7.003   1.648   7.875  0.0725 -0.3487  0.7800
  889MOL0     C19937   6.974   1.718   7.752 -0.7716 -0.2135  0.4888
  889MOL0     O19938   6.895   1.680   7.645 -0.0171 -0.0397 -0.1022
  889MOL0     C19939   6.877   1.535   7.630  0.2439 -0.5295  0.4913
  889MOL0     C19940   7.002   1.463   7.568  0.6121 -0.5345 -0.5203
  889MOL0     C19941   6.990   1.306   7.525  0.4361 -0.1414  0.2474
  889MOL0     C19942   6.917   1.210   7.632  0.0839  0.1246 -0.2273
  889MOL0     C19943   6.973   1.231   7.766  0.0686 -0.0115  0.1506
  889MOL0     C19944   7.010   1.239   7.879 -0.0539 -0.1198 -0.0816
  889MOL0     C19945   7.036   1.844   7.749  0.5636 -0.7496  0.1146
  889MOL0     C19946   7.126   1.894   7.841 -0.6277 -0.9084 -0.3046
  889MOL0     C19947   7.220   2.011   7.805  0.6114 -0.0674 -0.4548
  889MOL0     H19948   7.475   2.104   8.148 -1.4130  0.2406 -0.3825
  889MOL0     H19949   7.586   2.168   8.368 -0.1000  0.9811 -0.7392
  889MOL0     H19950   7.371   2.287   8.633 -2.5788  0.3676  0.3349
  889MOL0     H19951   7.294   2.146   8.714  1.3292 -3.2994  1.0404
  889MOL0     H19952   7.537   2.302   8.814  0.8583 -0.1570  0.7921
  889MOL0     H19953   7.506   2.141   8.864  0.5504  0.3423 -0.0345
  889MOL0     H19954   7.392   2.253   9.034  0.8166 -1.2572 -0.8248
  889MOL0     H19955   7.270   2.188   8.928  1.6798 -2.6707  0.7866
  889MOL0     H19956   7.357   2.473   8.948  0.7592 -0.5948 -1.3495
  889MOL0     H19957   7.242   2.431   8.826  2.4241 -0.9355 -1.8654
  889MOL0     H19958   7.091   2.321   8.989 -1.1661 -0.5030  2.3376
  889MOL0     H19959   7.193   2.355   9.123 -1.3004 -1.1768  0.1162
  889MOL0     H19960   7.177   2.598   9.086  1.0533 -1.6934  0.6002
  889MOL0     H19961   7.086   2.567   8.938  1.1422 -2.5260 -0.5884
  889MOL0     H19962   6.907   2.462   9.078 -1.0184  0.2917 -0.0205
  889MOL0     H19963   6.919   2.642   9.115  1.6254  0.6551 -0.5948
  889MOL0     H19964   7.026   2.406   9.273 -0.0362 -0.3723 -1.3555
  889MOL0     H19965   7.122   2.549   9.270  0.6284 -0.6613  1.4659
  889MOL0     H19966   6.756   2.456   9.361  2.7609 -2.5698 -0.6048
  889MOL0     H19967   6.602   2.748   9.561  0.4812 -0.4619 -0.0535
  889MOL0     H19968   6.557   2.591   9.480 -0.1521 -1.8053 -0.0934
  889MOL0     H19969   6.644   2.466   9.676  1.2616  0.6773  1.1914
  889MOL0     H19970   6.735   2.603   9.722  0.9113 -0.3699 -1.7812
  889MOL0     H19971   6.532   2.692   9.836 -0.4695 -0.3985  1.1718
  889MOL0     H19972   6.540   2.521   9.867 -0.0590 -0.3181 -0.2077
  889MOL0     H19973   6.335   2.667   9.702 -0.0475 -0.3299 -0.0426
  889MOL0     H19974   6.303   2.535   9.810  1.4106  1.6658  2.0977
  889MOL0     H19975   6.422   2.434   9.357  1.7586  1.8773 -0.1644
  889MOL0     H19976   6.258   2.472   9.186 -3.0427  1.0554 -0.7156
  889MOL0     H19977   6.152   2.608   8.840  0.1233  2.2759 -0.7739
  889MOL0     H19978   6.030   2.697   8.659  0.3058 -1.9882 -0.6430
  889MOL0     H19979   5.877   2.860   8.595  0.8446 -2.8344  2.1331
  889MOL0     H19980   5.891   2.717   8.497 -1.3217  0.5846 -1.5682
  889MOL0     H19981   5.770   2.885   8.369  0.1602  3.0178  3.3142
  889MOL0     H19982   5.677   2.737   8.382 -2.4206  0.6045  0.5288
  889MOL0     H19983   5.546   2.837   8.578  0.7002  1.7509  3.2723
  889MOL0     H19984   5.631   2.978   8.559 -2.0479  1.2735 -0.1564
  889MOL0     H19985   5.462   2.838   8.352  1.0094 -2.1763  2.9385
  889MOL0     H19986   5.551   2.979   8.308  2.3852 -1.3969  0.4216
  889MOL0     H19987   5.422   3.108   8.473 -0.2070 -2.2323  3.8824
  889MOL0     H19988   5.327   2.967   8.499 -0.8264  1.5578  0.5227
  889MOL0     H19989   5.338   3.095   8.225 -2.0496  1.1746 -1.3241
  889MOL0     H19990   5.242   2.968   8.268 -0.1736 -0.0600 -0.3200
  889MOL0     H19991   5.118   3.183   8.268  0.6122 -3.5373 -0.7307
  889MOL0     H19992   5.212   3.240   8.410 -1.9561 -0.5349  2.3740
  889MOL0     H19993   5.118   2.986   8.496 -1.8356 -2.2340 -1.2050
  889MOL0     H19994   5.053   3.143   8.540 -1.5005 -2.8169  2.4193
  889MOL0     H19995   5.660   2.634   8.865 -1.1657  2.2026  1.1418
  889MOL0     H19996   5.773   2.550   9.059  1.7334 -0.2062  1.4503
  889MOL0     H19997   5.976   2.619   9.475 -0.3678 -0.8117  0.9274
  889MOL0     H19998   6.101   2.537   9.642 -1.5624 -1.2067 -0.7023
  889MOL0     H19999   7.266   1.957   8.581  0.7395 -1.3080  0.0450
  889MOL0     H20000   7.152   1.913   8.367 -1.1307  2.7964 -1.2299
  889MOL0     H20001   7.105   1.646   8.067  2.5019 -0.8748 -1.3633
  889MOL0     H20002   6.963   1.548   7.892  2.0122 -1.3652 -0.3421
  889MOL0     H20003   6.793   1.515   7.563 -1.7594  1.1397  2.3301
  889MOL0     H20004   6.835   1.492   7.721 -2.1203  0.4943 -0.0406
  889MOL0     H20005   7.068   1.469   7.655 -0.6179  2.8994  0.3575
  889MOL0     H20006   7.033   1.517   7.479  3.4696 -1.0311  0.0872
  889MOL0     H20007   7.088   1.258   7.515  0.4116 -0.0928 -0.2811
  889MOL0     H20008   6.947   1.298   7.424 -1.1857 -0.1673  0.9141
  889MOL0     H20009   6.809   1.229   7.625 -0.4744 -1.2885  2.9480
  889MOL0     H20010   6.939   1.111   7.591 -2.5597 -0.7161  0.1722
  889MOL0     H20011   7.046   1.250   7.980 -1.3526  1.9256  0.2098
  889MOL0     H20012   7.033   1.908   7.661 -0.1080  2.0205  2.0314
  889MOL0     H20013   7.207   2.086   7.883 -3.6801 -1.9689  0.9907
  889MOL0     H20014   7.321   1.969   7.809  1.4736  1.7699 -1.6592
  889MOL0     H20015   7.204   2.058   7.708 -0.5930 -0.0591 -0.2733
  890MOL0     O20016   9.240   9.105   2.359  0.0009 -0.5476  0.1760
  890MOL0     C20017   9.241   9.125   2.482 -0.6924  1.4308 -0.4937
  890MOL0     O20018   9.130   9.163   2.548 -0.8023  0.3705  0.5581
  890MOL0     C20019   9.055   9.272   2.493  0.3080  0.1418 -1.0633
  890MOL0     C20020   8.914   9.258   2.492  0.5661  0.0529 -0.3983
  890MOL0     C20021   8.838   9.361   2.454  0.2385 -0.3252 -0.4863
  890MOL0     C20022   8.900   9.479   2.405  0.0703 -0.8416  0.3800
  890MOL0     O20023   8.834   9.590   2.368 -0.3683  0.4823 -0.7785
  890MOL0     C20024   8.692   9.589   2.350  0.5959  0.5904 -0.6850
  890MOL0     C20025   8.625   9.607   2.489  0.2914 -0.0651 -0.4752
  890MOL0     C20026   8.478   9.629   2.501 -0.7462 -0.2561 -0.1982
  890MOL0     C20027   8.401   9.512   2.455  0.2603  0.1055 -0.0224
  890MOL0     C20028   8.251   9.538   2.465 -0.3957  0.2967 -0.9019
  890MOL0     C20029   8.178   9.418   2.422 -0.2085 -0.4399  0.5978
  890MOL0     C20030   8.032   9.455   2.427  0.5086  0.5402 -0.5512
  890MOL0     C20031   7.950   9.323   2.426 -0.3943  0.1978 -1.2018
  890MOL0     N20032   7.810   9.345   2.450  0.0453 -0.0051 -0.3565
  890MOL0     C20033   7.713   9.376   2.359 -0.1064  0.5512  0.2474
  890MOL0     C20034   7.593   9.338   2.413 -0.1270 -1.1232  1.0089
  890MOL0     C20035   7.455   9.355   2.366  0.6223 -0.3637 -0.2579
  890MOL0     C20036   7.416   9.500   2.324  0.0634 -0.5020  0.2935
  890MOL0     C20037   7.445   9.618   2.421  0.4132  1.1757 -1.0466
  890MOL0     C20038   7.578   9.683   2.396 -0.5274 -0.6669 -0.0625
  890MOL0     O20039   7.574   9.740   2.262 -0.6215  0.2113 -0.0425
  890MOL0     C20040   7.690   9.796   2.219 -0.7788  0.0273  0.1857
  890MOL0     C20041   7.799   9.853   2.298  0.0487 -0.7557 -0.4950
  890MOL0     C20042   7.898   9.930   2.240 -0.2308 -0.5878  0.1360
  890MOL0     C20043   7.894   9.957   2.104 -0.1425 -0.2230 -0.4635
  890MOL0     C20044   7.996  10.046   2.039 -0.0721  0.2140  0.6006
  890MOL0     O20045   8.110  10.065   2.113  0.2169  0.7399  0.1800
  890MOL0     C20046   8.207  10.156   2.086  0.4885 -0.6043  0.2929
  890MOL0     C20047   8.348  10.127   2.082  0.7614 -0.2347  0.3794
  890MOL0     C20048   8.439  10.227   2.051  0.2370  0.3713 -0.3846
  890MOL0     C20049   8.398  10.358   2.007  0.3663  0.2990  0.2494
  890MOL0     O20050   8.494  10.429   1.952 -0.5833 -0.1549  0.0638
  890MOL0     C20051   8.472  10.566   1.936  0.6034 -0.8607  0.1548
  890MOL0     C20052   8.608  10.641   1.950  0.0836 -0.9938 -1.0105
  890MOL0     C20053   8.612  10.789   1.882 -0.0642  1.2291  0.6517
  890MOL0     C20054   8.503  10.880   1.943  0.2904  0.7707  0.3587
  890MOL0     C20055   8.509  11.010   1.848  0.4134  0.5466 -1.4831
  890MOL0     C20056   8.486  11.014   1.691  0.1843  0.6385 -0.3087
  890MOL0     C20057   8.346  10.979   1.661 -0.0745 -0.5163  0.5086
  890MOL0     C20058   8.324  10.945   1.510 -0.6110  0.0437 -0.2294
  890MOL0    Cl20059   8.293  11.102   1.423  0.0131  0.1969  0.0929
  890MOL0     C20060   8.260  10.380   2.019 -0.3708  0.3124  0.4610
  890MOL0     C20061   8.165  10.290   2.067 -0.2678  0.7885 -0.1298
  890MOL0     O20062   7.976  10.099   1.931 -0.1314 -0.6050 -0.2842
  890MOL0     C20063   7.789   9.908   2.032 -0.6989 -0.3389  0.2577
  890MOL0     C20064   7.692   9.825   2.080 -1.0864  0.0066 -1.2771
  890MOL0     N20065   7.625   9.298   2.539  0.3138  1.4936 -0.4671
  890MOL0     N20066   7.749   9.307   2.566 -0.3982  0.1260  0.8027
  890MOL0     C20067   9.039   9.492   2.404  0.3417  0.6692 -0.3483
  890MOL0     C20068   9.114   9.386   2.437  0.6566  0.9947 -0.1020
  890MOL0     C20069   9.360   9.073   2.566  1.0913  0.2045  0.3055
  890MOL0     C20070   9.334   9.092   2.711 -0.1195  0.8264 -0.4017
  890MOL0     C20071   9.443   9.066   2.798 -0.6199 -0.5088 -0.3031
  890MOL0     C20072   9.563   9.010   2.760  0.7031  0.8126 -0.5891
  890MOL0     O20073   9.678   9.009   2.842 -0.2058 -0.2786  0.4519
  890MOL0     C20074   9.703   8.898   2.935  0.1860 -0.6805  0.0017
  890MOL0     C20075   9.777   8.789   2.857  0.5449 -1.1810 -0.1212
  890MOL0     C20076   9.911   8.839   2.807  0.1695 -0.0853  0.4413
  890MOL0     C20077  10.032   8.792   2.897  0.7092  0.1022 -0.0321
  890MOL0     C20078  10.065   8.658   2.868  0.4032  0.3354  0.2838
  890MOL0     C20079  10.070   8.541   2.821  0.2352 -0.3919 -0.0888
  890MOL0     C20080   9.583   8.980   2.621  0.2482  0.1499 -0.4913
  890MOL0     C20081   9.488   9.018   2.523 -0.0436  0.1531  0.1643
  890MOL0     C20082   9.532   8.998   2.374  0.3498 -1.0026  0.1025
  890MOL0     H20083   8.859   9.173   2.530  1.2568 -1.0550 -1.7991
  890MOL0     H20084   8.733   9.337   2.461  1.1778 -5.6522 -0.2542
  890MOL0     H20085   8.673   9.679   2.290  0.0074  1.3825  0.6468
  890MOL0     H20086   8.655   9.499   2.300  1.4063  0.5539 -1.2355
  890MOL0     H20087   8.654   9.703   2.534 -5.2076  0.1654  3.7350
  890MOL0     H20088   8.662   9.531   2.558 -2.7202  1.3030  2.9874
  890MOL0     H20089   8.445   9.722   2.453 -3.8632 -0.5285  1.1657
  890MOL0     H20090   8.453   9.640   2.607  0.6093 -1.5805  0.3023
  890MOL0     H20091   8.426   9.497   2.350 -3.5193 -1.1743 -0.8991
  890MOL0     H20092   8.432   9.417   2.498  0.5041 -1.3216 -3.0616
  890MOL0     H20093   8.222   9.545   2.570  1.0241  0.1876 -0.4856
  890MOL0     H20094   8.219   9.628   2.411  1.1448  0.3730 -1.7512
  890MOL0     H20095   8.203   9.392   2.319 -2.2045 -2.3601  0.5292
  890MOL0     H20096   8.193   9.336   2.494 -0.4760 -0.0101  1.1503
  890MOL0     H20097   8.004   9.520   2.343 -2.4377  1.8499  1.2876
  890MOL0     H20098   8.002   9.506   2.520  0.3820 -0.2810 -0.1373
  890MOL0     H20099   7.967   9.277   2.328 -0.3435 -1.7914 -0.3041
  890MOL0     H20100   7.984   9.250   2.500 -1.8084  0.5017 -0.2113
  890MOL0     H20101   7.727   9.394   2.252  0.0146 -1.0714 -0.0462
  890MOL0     H20102   7.433   9.294   2.278  0.0611  1.8091 -1.7091
  890MOL0     H20103   7.398   9.334   2.457  0.8936 -0.7567 -0.1768
  890MOL0     H20104   7.455   9.524   2.225  0.0125  3.1218  1.0366
  890MOL0     H20105   7.309   9.494   2.302 -0.0820  4.8333 -1.7674
  890MOL0     H20106   7.443   9.585   2.526  3.9490 -0.2117 -1.2874
  890MOL0     H20107   7.369   9.696   2.408 -0.3573  0.8487  1.0415
  890MOL0     H20108   7.658   9.609   2.404 -0.1322 -0.0830  2.0557
  890MOL0     H20109   7.591   9.768   2.463 -2.9564  0.3168 -0.7516
  890MOL0     H20110   7.813   9.840   2.405 -4.5487  3.4231  1.0292
  890MOL0     H20111   7.972   9.986   2.295 -1.1456  1.6200 -0.7508
  890MOL0     H20112   8.396  10.034   2.110 -0.4448 -1.3825 -1.2110
  890MOL0     H20113   8.542  10.204   2.027  0.1383  2.5124 -3.4627
  890MOL0     H20114   8.422  10.583   1.840 -2.1477 -1.9455  1.2882
  890MOL0     H20115   8.401  10.608   2.008  0.0469  0.4227 -1.0989
  890MOL0     H20116   8.634  10.646   2.056  2.4942 -2.1636 -1.4699
  890MOL0     H20117   8.685  10.583   1.899  0.6360  0.7992 -2.3447
  890MOL0     H20118   8.711  10.834   1.895 -0.6152  3.2091 -1.3680
  890MOL0     H20119   8.608  10.768   1.775 -0.5939  0.4873  0.8113
  890MOL0     H20120   8.515  10.896   2.051  1.1985  3.2598 -0.0517
  890MOL0     H20121   8.407  10.836   1.917  0.3164  0.4889  0.7230
  890MOL0     H20122   8.609  11.054   1.854  0.6784 -0.0070 -1.7382
  890MOL0     H20123   8.444  11.088   1.887  0.1294 -0.0993 -0.6311
  890MOL0     H20124   8.515  11.106   1.639  1.6875 -0.1624 -0.9550
  890MOL0     H20125   8.548  10.935   1.648  1.9682  1.1701  1.1802
  890MOL0     H20126   8.274  11.057   1.689  1.5390  0.8648  0.9918
  890MOL0     H20127   8.321  10.885   1.711  1.0487 -1.5000 -0.7216
  890MOL0     H20128   8.416  10.896   1.475  0.3306  2.5524 -1.4969
  890MOL0     H20129   8.244  10.871   1.499  0.1818 -1.7032  3.8487
  890MOL0     H20130   8.208  10.474   2.003 -2.7528 -0.0086  4.9128
  890MOL0     H20131   8.058  10.303   2.079 -0.2958  0.3387  0.1618
  890MOL0     H20132   7.788   9.937   1.927 -3.8891 -1.5307 -0.1609
  890MOL0     H20133   7.613   9.786   2.017 -2.0677  0.3088 -0.2600
  890MOL0     H20134   9.074   9.586   2.362 -1.6135  2.1147  1.0033
  890MOL0     H20135   9.223   9.388   2.444  0.6574  1.4959 -0.2412
  890MOL0     H20136   9.241   9.119   2.760 -0.6853 -0.8751 -0.4598
  890MOL0     H20137   9.418   9.076   2.903 -3.5807  1.3304 -1.0805
  890MOL0     H20138   9.609   8.869   2.981  0.2315  2.2308  2.2250
  890MOL0     H20139   9.760   8.939   3.020  0.7720 -3.8871  1.2887
  890MOL0     H20140   9.705   8.754   2.782  0.7876 -3.3531  0.5737
  890MOL0     H20141   9.798   8.708   2.928  0.3607  0.9323  2.5023
  890MOL0     H20142   9.911   8.947   2.789  0.2354 -0.0064  0.8896
  890MOL0     H20143   9.918   8.793   2.708  2.0360 -0.8224  0.8692
  890MOL0     H20144  10.120   8.848   2.862  1.6331 -1.3816 -0.1980
  890MOL0     H20145  10.013   8.803   3.004  3.3239 -0.2071  0.5333
  890MOL0     H20146  10.074   8.441   2.782 -1.5753 -0.5861  0.1309
  890MOL0     H20147   9.680   8.940   2.592 -1.2476 -2.8998 -1.7146
  890MOL0     H20148   9.516   8.896   2.338  2.5448 -0.8239 -1.6568
  890MOL0     H20149   9.480   9.062   2.302 -0.2927  0.0952  1.5104
  890MOL0     H20150   9.641   9.012   2.376  0.5932 -2.1548 -1.9596
  891MOL0     O20151   9.402   2.833   2.497 -0.1945  0.0603  0.2490
  891MOL0     C20152   9.343   2.723   2.507 -0.7462 -0.1625 -0.7976
  891MOL0     O20153   9.404   2.607   2.560 -0.0659 -0.0358  0.5173
  891MOL0     C20154   9.534   2.599   2.542 -0.8534  0.7886  0.3383
  891MOL0     C20155   9.618   2.689   2.609 -0.3673  1.2716  0.7870
  891MOL0     C20156   9.753   2.664   2.625 -0.7307 -0.6345 -0.0730
  891MOL0     C20157   9.810   2.555   2.560 -0.1773  0.6604 -0.2172
  891MOL0     O20158   9.938   2.514   2.567 -0.4334 -0.5648 -0.4564
  891MOL0     C20159  10.027   2.629   2.563  0.0534  0.0740 -0.1506
  891MOL0     C20160  10.173   2.588   2.592 -0.3745  0.0485  0.8549
  891MOL0     C20161  10.183   2.513   2.728 -0.3975 -0.7629  0.2623
  891MOL0     C20162  10.334   2.457   2.726 -0.1529 -0.2092  0.1300
  891MOL0     C20163  10.359   2.338   2.825  0.2641  0.0495  0.7488
  891MOL0     C20164  10.334   2.378   2.973 -0.3384 -0.8147  0.1382
  891MOL0     C20165  10.361   2.258   3.065 -0.6347 -0.7153  0.9759
  891MOL0     C20166  10.516   2.241   3.083 -0.4239  0.0151 -0.1942
  891MOL0     N20167  10.552   2.105   3.135  0.3928  0.8467 -0.1340
  891MOL0     C20168  10.569   2.066   3.261  0.4837 -0.4327  0.6550
  891MOL0     C20169  10.620   1.938   3.255 -0.3976 -0.4629 -0.2866
  891MOL0     C20170  10.688   1.878   3.372 -0.0523 -0.4601 -0.4271
  891MOL0     C20171  10.842   1.904   3.376  0.2030 -0.2935  0.6102
  891MOL0     C20172  10.868   2.055   3.411 -0.5344 -0.3441  0.4492
  891MOL0     C20173  11.026   2.094   3.420  0.1882  0.4896  0.3408
  891MOL0     O20174  11.040   2.226   3.362 -0.0686 -0.4659 -0.6912
  891MOL0     C20175  11.168   2.275   3.345 -0.4320  0.0336 -0.5657
  891MOL0     C20176  11.286   2.214   3.397  0.1667  1.0206  0.0893
  891MOL0     C20177  11.417   2.255   3.361 -0.7599  0.0015 -0.0808
  891MOL0     C20178  11.424   2.380   3.296 -0.0900  0.1955  0.7980
  891MOL0     C20179  11.556   2.450   3.284  0.8558 -0.7586 -0.2551
  891MOL0     O20180  11.664   2.374   3.319  0.3882  0.5077  0.1962
  891MOL0     C20181  11.792   2.421   3.322 -0.8738 -0.0615  0.8101
  891MOL0     C20182  11.886   2.322   3.330  0.1510  0.0239  1.1827
  891MOL0     C20183  12.021   2.351   3.357 -0.5446  0.4270 -0.4295
  891MOL0     C20184  12.063   2.482   3.377 -0.8549 -1.0840 -0.5454
  891MOL0     O20185  12.192   2.518   3.423  0.5362  0.5304  0.2869
  891MOL0     C20186  12.282   2.408   3.441  0.9426 -0.3278  0.5273
  891MOL0     C20187  12.415   2.450   3.502 -0.6327 -0.3136  0.0485
  891MOL0     C20188  12.497   2.550   3.417  0.0065 -0.1847  0.4272
  891MOL0     C20189  12.635   2.485   3.407  1.2018  0.9418  0.3508
  891MOL0     C20190  12.710   2.483   3.539 -0.4973 -0.4319  0.1011
  891MOL0     C20191  12.773   2.614   3.564  0.4144 -0.3376 -0.2229
  891MOL0     C20192  12.799   2.625   3.719 -0.2879  0.7405  1.0449
  891MOL0     C20193  12.884   2.740   3.764  0.0902 -0.1173 -0.0560
  891MOL0    Cl20194  13.042   2.739   3.695  0.1775  0.2529 -0.0586
  891MOL0     C20195  11.966   2.587   3.361  0.2959  1.0876  0.4744
  891MOL0     C20196  11.832   2.557   3.346  0.3493  0.7390 -0.0304
  891MOL0     O20197  11.566   2.567   3.232  0.4814 -0.2578  0.2213
  891MOL0     C20198  11.308   2.445   3.248  0.0512 -0.3365  0.1987
  891MOL0     C20199  11.185   2.389   3.266  0.1320  0.0068  0.0372
  891MOL0     N20200  10.616   1.897   3.124 -0.7709  0.1496  0.5279
  891MOL0     N20201  10.575   1.998   3.053  0.6265  0.7207  0.7567
  891MOL0     C20202   9.728   2.453   2.492 -0.4317 -0.2686  0.7921
  891MOL0     C20203   9.589   2.483   2.479  0.2762 -0.0524  0.3735
  891MOL0     C20204   9.196   2.703   2.488 -0.1094  0.0267 -0.3487
  891MOL0     C20205   9.129   2.602   2.558  0.3534  0.1670  0.7001
  891MOL0     C20206   8.989   2.584   2.553 -1.2254 -0.3707  0.2471
  891MOL0     C20207   8.914   2.671   2.485  0.7384 -0.1104 -0.4763
  891MOL0     O20208   8.775   2.661   2.463 -0.1197 -0.5668  0.1153
  891MOL0     C20209   8.708   2.582   2.557 -0.6634 -0.3137 -0.3130
  891MOL0     C20210   8.555   2.598   2.554 -0.6161  0.4701  0.0854
  891MOL0     C20211   8.509   2.752   2.524  0.1897 -0.6982  0.1531
  891MOL0     C20212   8.362   2.779   2.521  0.0466 -0.1636 -0.2238
  891MOL0     C20213   8.317   2.778   2.662 -0.3244 -0.2977  0.0814
  891MOL0     C20214   8.274   2.774   2.778 -0.1051  0.0634  0.3376
  891MOL0     C20215   8.977   2.776   2.413  0.7785 -0.4922 -0.2578
  891MOL0     C20216   9.115   2.802   2.419 -0.3970  0.3643  0.5015
  891MOL0     C20217   9.176   2.911   2.334  0.0027 -0.6328  0.3879
  891MOL0     H20218   9.576   2.777   2.658 -0.6366  1.2673  0.5653
  891MOL0     H20219   9.810   2.730   2.689 -0.7509 -2.3537  1.8000
  891MOL0     H20220  10.016   2.678   2.466  2.9428 -0.7559 -0.9771
  891MOL0     H20221  10.004   2.705   2.638  0.8928 -0.7172  0.9439
  891MOL0     H20222  10.238   2.675   2.583 -1.2334  0.4969 -1.7232
  891MOL0     H20223  10.207   2.525   2.509  0.8097 -0.3196  1.5956
  891MOL0     H20224  10.110   2.432   2.723 -1.0912 -0.0971 -0.8199
  891MOL0     H20225  10.173   2.584   2.810  0.3416  0.2603 -0.4990
  891MOL0     H20226  10.369   2.435   2.625 -0.3431 -1.4202  0.3157
  891MOL0     H20227  10.399   2.541   2.754 -0.5381  0.0210  0.3403
  891MOL0     H20228  10.285   2.268   2.786  0.3644  0.0310  0.5910
  891MOL0     H20229  10.460   2.298   2.810  0.4146  0.7177 -0.1481
  891MOL0     H20230  10.399   2.463   2.998 -0.8952 -0.1336 -0.7013
  891MOL0     H20231  10.228   2.402   2.976 -0.6156 -1.1713 -3.3484
  891MOL0     H20232  10.332   2.164   3.016  1.6321 -0.7283 -0.5186
  891MOL0     H20233  10.297   2.272   3.152 -1.9711  2.0617 -0.3292
  891MOL0     H20234  10.573   2.263   2.992  0.9045 -0.1049  0.5730
  891MOL0     H20235  10.560   2.309   3.157 -1.1344  1.4023 -0.9983
  891MOL0     H20236  10.556   2.129   3.348 -1.0507  1.1375 -0.6342
  891MOL0     H20237  10.649   1.916   3.467 -1.1966 -1.2046 -0.5849
  891MOL0     H20238  10.663   1.772   3.357  0.9516 -0.7403 -0.2227
  891MOL0     H20239  10.889   1.837   3.449  0.6753  0.0092  0.5924
  891MOL0     H20240  10.887   1.888   3.277 -1.0075 -3.1541  0.4151
  891MOL0     H20241  10.816   2.091   3.501  0.7601  0.0513  1.0640
  891MOL0     H20242  10.829   2.120   3.332  0.3957  0.0995  0.3465
  891MOL0     H20243  11.091   2.016   3.379 -2.6417 -0.2981 -3.2975
  891MOL0     H20244  11.036   2.116   3.526 -0.8090  2.9434  0.0028
  891MOL0     H20245  11.285   2.118   3.448  1.1846  1.9872  2.0483
  891MOL0     H20246  11.509   2.202   3.382  0.7496  1.7811 -1.7700
  891MOL0     H20247  11.857   2.218   3.331  1.8009 -0.4561  1.5628
  891MOL0     H20248  12.090   2.269   3.373 -1.8724 -0.8509 -1.0666
  891MOL0     H20249  12.229   2.342   3.511 -1.0518  1.3111  0.6744
  891MOL0     H20250  12.315   2.370   3.344  3.2595  0.4759  0.9321
  891MOL0     H20251  12.406   2.497   3.601 -1.0347  2.0934 -1.0746
  891MOL0     H20252  12.481   2.363   3.513  0.2605  0.3073 -0.3286
  891MOL0     H20253  12.443   2.542   3.322  2.4402 -3.9100 -0.8397
  891MOL0     H20254  12.495   2.657   3.441  0.7460 -0.2341  0.7252
  891MOL0     H20255  12.704   2.528   3.334 -0.1901  0.5015 -1.2784
  891MOL0     H20256  12.612   2.387   3.363 -1.8327  2.5886 -2.0920
  891MOL0     H20257  12.798   2.420   3.524  0.4572  1.0008 -0.6527
  891MOL0     H20258  12.644   2.449   3.620 -2.2160  3.6373  0.6755
  891MOL0     H20259  12.865   2.613   3.505  0.6504  1.1615  0.0779
  891MOL0     H20260  12.718   2.700   3.523  2.3683  0.4149 -1.3729
  891MOL0     H20261  12.853   2.534   3.747 -3.0585 -2.0889 -1.9411
  891MOL0     H20262  12.700   2.627   3.765 -0.1632  2.7310  1.2974
  891MOL0     H20263  12.828   2.829   3.735  1.6028  0.7727 -0.3357
  891MOL0     H20264  12.890   2.727   3.873  0.7276 -2.5898 -0.3220
  891MOL0     H20265  11.991   2.687   3.394  1.6961  0.2874  2.0598
  891MOL0     H20266  11.762   2.638   3.365  0.6308  0.8146  0.7342
  891MOL0     H20267  11.309   2.542   3.200 -2.4950 -0.5431 -0.3654
  891MOL0     H20268  11.090   2.434   3.240  0.5431  1.6709  1.2422
  891MOL0     H20269   9.777   2.371   2.441 -0.6846  0.8699 -1.3751
  891MOL0     H20270   9.531   2.420   2.412  1.1818  0.1326 -0.6148
  891MOL0     H20271   9.192   2.530   2.609  1.3002  0.3948 -0.1275
  891MOL0     H20272   8.959   2.496   2.609 -2.9279  1.0187  1.6349
  891MOL0     H20273   8.725   2.626   2.656 -2.6528 -0.7123  0.2494
  891MOL0     H20274   8.744   2.478   2.554  0.0267 -0.1236  0.7006
  891MOL0     H20275   8.516   2.563   2.650 -0.4786 -2.7925 -0.9492
  891MOL0     H20276   8.524   2.533   2.472 -0.0142  1.3374 -0.8626
  891MOL0     H20277   8.550   2.781   2.426 -1.4623  2.6470  0.3146
  891MOL0     H20278   8.563   2.821   2.589 -1.2720  0.1630  0.4955
  891MOL0     H20279   8.331   2.879   2.490 -0.2528 -0.8275 -2.2214
  891MOL0     H20280   8.300   2.706   2.469  1.1039 -2.3029  1.3575
  891MOL0     H20281   8.230   2.774   2.876 -0.5942 -3.0452  0.2333
  891MOL0     H20282   8.912   2.840   2.354  1.8527 -1.1290 -2.2327
  891MOL0     H20283   9.094   2.969   2.291  1.2839  1.1192  0.2486
  891MOL0     H20284   9.231   2.980   2.398 -1.0518 -0.0758  0.7144
  891MOL0     H20285   9.239   2.875   2.252  0.2564 -0.1675  0.3745
  892MOL0     O20286   8.429  11.127   9.587  0.0641 -0.2546 -0.9239
  892MOL0     C20287   8.388  11.098   9.475  0.7270  0.4284 -0.3195
  892MOL0     O20288   8.461  11.073   9.365 -0.0458 -0.0315  0.2426
  892MOL0     C20289   8.598  11.099   9.380  0.1792  0.1325  0.6086
  892MOL0     C20290   8.683  10.996   9.351  0.0523  0.3693  0.9655
  892MOL0     C20291   8.823  11.015   9.364  0.1313 -0.6797  0.7475
  892MOL0     C20292   8.873  11.132   9.415  0.4938  0.4364 -1.0062
  892MOL0     O20293   9.009  11.136   9.430  0.3227  0.2068 -0.1478
  892MOL0     C20294   9.064  11.238   9.517 -0.0672  0.2971 -0.3220
  892MOL0     C20295   9.214  11.215   9.518 -0.1564  0.0832  0.6572
  892MOL0     C20296   9.296  11.311   9.606 -0.7053  0.3114 -0.7124
  892MOL0     C20297   9.425  11.247   9.650  0.2151  0.2961 -0.3606
  892MOL0     C20298   9.527  11.340   9.714  0.3479  0.2007 -0.2228
  892MOL0     C20299   9.476  11.410   9.835 -0.5543 -0.1925 -0.2276
  892MOL0     C20300   9.573  11.503   9.915  1.2001 -0.0414  0.7361
  892MOL0     C20301   9.673  11.422   9.999 -0.6121  0.2525  0.5840
  892MOL0     N20302   9.772  11.523  10.048  0.6200  0.7063 -0.5519
  892MOL0     C20303   9.742  11.608  10.149 -0.5522 -0.1252 -0.3702
  892MOL0     C20304   9.858  11.677  10.176 -0.5467  0.5683  0.0490
  892MOL0     C20305   9.871  11.785  10.282  0.5280  1.0677  0.8947
  892MOL0     C20306  10.008  11.837  10.300 -1.2019 -0.1451 -0.8874
  892MOL0     C20307  10.113  11.734  10.350 -0.2328  0.1499  0.6087
  892MOL0     C20308  10.251  11.802  10.359 -0.3982  0.0711  0.5628
  892MOL0     O20309  10.355  11.711  10.315  0.1024 -0.2641 -0.1603
  892MOL0     C20310  10.489  11.735  10.325  0.1110 -0.1993 -0.9621
  892MOL0     C20311  10.571  11.625  10.299  0.1963  0.7663  0.0336
  892MOL0     C20312  10.713  11.638  10.312  0.2691 -0.2290  0.0501
  892MOL0     C20313  10.763  11.761  10.356 -0.5659 -0.3008  0.2310
  892MOL0     C20314  10.910  11.788  10.358  1.5655 -0.2279  0.3047
  892MOL0     O20315  10.991  11.684  10.396 -0.2637  0.1984  0.2711
  892MOL0     C20316  11.125  11.716  10.407 -0.2309 -0.2687 -0.3421
  892MOL0     C20317  11.167  11.808  10.503  0.3109  0.1779 -0.2155
  892MOL0     C20318  11.299  11.837  10.523  0.2738 -0.2324 -0.0892
  892MOL0     C20319  11.394  11.782  10.452 -0.2857  0.7024 -0.7280
  892MOL0     O20320  11.526  11.806  10.493 -0.1993 -0.4398 -0.1091
  892MOL0     C20321  11.614  11.837  10.376 -0.5563  0.3653 -0.5815
  892MOL0     C20322  11.720  11.716  10.367  0.2404 -0.3786  0.0278
  892MOL0     C20323  11.806  11.737  10.239  0.3217  0.8391 -0.1910
  892MOL0     C20324  11.888  11.609  10.230  0.1191 -0.1816  0.2561
  892MOL0     C20325  11.814  11.488  10.201  0.2176  0.7214 -0.0423
  892MOL0     C20326  11.895  11.363  10.156 -0.8500 -0.3499  0.4115
  892MOL0     C20327  11.913  11.351  10.004 -0.3363  0.1371  0.2120
  892MOL0     C20328  12.009  11.243   9.954 -0.3977  0.1278 -1.4411
  892MOL0    Cl20329  12.184  11.294   9.966 -0.3216 -0.2749  0.3484
  892MOL0     C20330  11.363  11.686  10.345  0.2178 -0.3987 -0.4109
  892MOL0     C20331  11.228  11.671  10.320  0.6656  0.1547  0.2580
  892MOL0     O20332  10.942  11.899  10.309  0.1039 -0.1292 -0.2275
  892MOL0     C20333  10.683  11.861  10.391  0.1139  0.6215 -1.0900
  892MOL0     C20334  10.542  11.851  10.376  0.4193  0.2405  0.7671
  892MOL0     N20335   9.955  11.620  10.093  1.2845 -0.2168 -0.7951
  892MOL0     N20336   9.901  11.531  10.018 -0.6740  0.1704  0.8860
  892MOL0     C20337   8.782  11.230   9.434  0.3908 -0.1454 -0.4679
  892MOL0     C20338   8.645  11.219   9.408 -1.0094 -0.0016 -0.7983
  892MOL0     C20339   8.238  11.056   9.458 -1.0476 -0.4403  0.3820
  892MOL0     C20340   8.205  11.013   9.329 -0.6273 -0.0610  0.1017
  892MOL0     C20341   8.074  10.987   9.288 -0.0472 -0.3104 -0.3696
  892MOL0     C20342   7.973  11.000   9.386  0.3726  0.2544 -0.5989
  892MOL0     O20343   7.838  10.991   9.364  0.4586  1.0545  0.4792
  892MOL0     C20344   7.786  10.973   9.233 -0.4313 -0.0664 -0.4364
  892MOL0     C20345   7.635  10.947   9.233 -0.3870 -0.0641 -0.4642
  892MOL0     C20346   7.555  11.055   9.304 -0.0646  0.0557  0.9204
  892MOL0     C20347   7.408  11.026   9.282  0.8295 -0.9423  1.6011
  892MOL0     C20348   7.350  10.921   9.365 -0.3669 -0.1153  0.4377
  892MOL0     C20349   7.307  10.857   9.451  0.1191 -0.3076 -0.3774
  892MOL0     C20350   8.006  11.023   9.527 -0.5412 -0.5392  0.2992
  892MOL0     C20351   8.134  11.058   9.561 -0.6702 -0.4354  0.3033
  892MOL0     C20352   8.160  11.108   9.697 -0.8457 -0.2006 -0.3358
  892MOL0     H20353   8.660  10.891   9.337  2.9962 -0.5994  2.5451
  892MOL0     H20354   8.891  10.933   9.345  0.3806 -0.2516 -0.3193
  892MOL0     H20355   9.044  11.332   9.464 -3.0209 -0.2085 -0.2538
  892MOL0     H20356   9.020  11.248   9.616 -1.3226  1.9993 -0.9904
  892MOL0     H20357   9.251  11.218   9.415 -2.4995  0.4853 -0.2229
  892MOL0     H20358   9.217  11.115   9.563 -3.3248 -0.5301 -0.2480
  892MOL0     H20359   9.241  11.334   9.698  0.6993 -2.3895  0.9237
  892MOL0     H20360   9.310  11.403   9.549 -0.4886  0.9130  0.2691
  892MOL0     H20361   9.406  11.167   9.722  0.6517  1.4487  1.0894
  892MOL0     H20362   9.465  11.212   9.554  0.1149  1.5818 -0.8935
  892MOL0     H20363   9.609  11.281   9.756 -1.2042 -0.1135  2.6571
  892MOL0     H20364   9.565  11.406   9.636 -0.9878  3.1049  1.4024
  892MOL0     H20365   9.390  11.472   9.809 -0.4808  0.6438  1.4250
  892MOL0     H20366   9.438  11.338   9.908 -2.6918  2.2165  1.1894
  892MOL0     H20367   9.512  11.579   9.965 -0.4820 -0.9989  0.1918
  892MOL0     H20368   9.640  11.554   9.844  5.0912 -3.3373  1.6223
  892MOL0     H20369   9.628  11.361  10.079  1.5688  0.6697  2.2301
  892MOL0     H20370   9.745  11.361   9.944  1.4320  3.3998 -0.5393
  892MOL0     H20371   9.649  11.628  10.202  1.4043 -0.8401  3.6673
  892MOL0     H20372   9.798  11.859  10.251 -0.0821  0.3486  0.5735
  892MOL0     H20373   9.835  11.753  10.381 -1.2503  1.6264  0.4463
  892MOL0     H20374  10.034  11.894  10.210  0.8093  2.1227  1.0187
  892MOL0     H20375  10.009  11.913  10.378  0.4976 -2.2621  1.3086
  892MOL0     H20376  10.109  11.656  10.273 -1.3270  0.4894  0.3043
  892MOL0     H20377  10.105  11.685  10.447  2.8219  0.3182  1.0419
  892MOL0     H20378  10.273  11.837  10.460  0.8906  0.0490  0.3089
  892MOL0     H20379  10.258  11.888  10.292  1.3495  0.4403  1.1693
  892MOL0     H20380  10.535  11.529  10.263  3.0198  0.3574 -2.0147
  892MOL0     H20381  10.776  11.551  10.297 -0.3091 -0.8529  1.1339
  892MOL0     H20382  11.085  11.847  10.562  0.0863  0.1934 -0.5345
  892MOL0     H20383  11.329  11.915  10.592 -1.2691 -0.0113  0.3541
  892MOL0     H20384  11.552  11.850  10.287 -1.2571 -1.0485 -0.3335
  892MOL0     H20385  11.663  11.932  10.398  1.3476 -0.1610 -2.2195
  892MOL0     H20386  11.785  11.711  10.455 -0.0544 -0.0452  0.2683
  892MOL0     H20387  11.656  11.628  10.355  1.4023 -1.2586  0.0304
  892MOL0     H20388  11.738  11.738  10.153  1.2556 -1.6852 -1.0445
  892MOL0     H20389  11.877  11.820  10.242  1.7891 -0.3606 -0.3389
  892MOL0     H20390  11.948  11.602  10.321  0.6902  2.0942  0.1072
  892MOL0     H20391  11.959  11.619  10.147 -0.5700 -0.0540 -0.3279
  892MOL0     H20392  11.729  11.511  10.136 -0.8892 -1.0780  0.6752
  892MOL0     H20393  11.769  11.452  10.295  1.5997  2.2673  1.2742
  892MOL0     H20394  11.996  11.368  10.198  0.1421 -0.5948 -1.7856
  892MOL0     H20395  11.864  11.267  10.197 -0.9737  0.1249  1.4763
  892MOL0     H20396  11.934  11.445   9.952 -2.7805  0.6033 -0.0641
  892MOL0     H20397  11.817  11.324   9.959  0.9778  1.3181 -3.7182
  892MOL0     H20398  11.993  11.154  10.015  0.8396 -0.5159 -2.0317
  892MOL0     H20399  11.989  11.223   9.848 -0.1616  3.0271 -2.1210
  892MOL0     H20400  11.438  11.652  10.275 -2.7853 -0.2800 -3.9900
  892MOL0     H20401  11.205  11.598  10.244  2.9853  1.3353 -1.7555
  892MOL0     H20402  10.716  11.955  10.433 -2.1441  0.6027  0.9335
  892MOL0     H20403  10.490  11.942  10.403  0.0493  1.0632 -2.3011
  892MOL0     H20404   8.812  11.326   9.475  0.4457  0.9346 -2.8812
  892MOL0     H20405   8.587  11.301   9.447 -1.4828 -0.6832 -0.0482
  892MOL0     H20406   8.279  11.003   9.251  1.9064  1.4044  2.1759
  892MOL0     H20407   8.050  10.972   9.183  0.6775 -3.0141 -0.2269
  892MOL0     H20408   7.837  10.895   9.175 -0.3372 -1.2442  1.1531
  892MOL0     H20409   7.820  11.063   9.181 -0.3981 -1.2493 -2.5948
  892MOL0     H20410   7.615  10.847   9.272  2.1912 -1.0993 -1.5687
  892MOL0     H20411   7.616  10.953   9.125  0.5836  2.2508 -0.5656
  892MOL0     H20412   7.577  11.151   9.256 -2.5234  0.0455 -0.3676
  892MOL0     H20413   7.595  11.061   9.406  0.8958  2.3128  0.4919
  892MOL0     H20414   7.352  11.120   9.296  2.3603  0.5289 -1.1757
  892MOL0     H20415   7.393  10.998   9.178  0.9202  0.7138  1.1096
  892MOL0     H20416   7.280  10.803   9.540  2.3385  3.6616  3.0419
  892MOL0     H20417   7.931  11.025   9.606 -0.2243 -1.6611  0.6441
  892MOL0     H20418   8.074  11.099   9.763 -1.2824 -0.1573 -0.8851
  892MOL0     H20419   8.245  11.057   9.743 -0.2593  0.1499 -1.0054
  892MOL0     H20420   8.179  11.215   9.697  1.5271 -0.5592  0.0085
  893MOL0     O20421   1.315   4.593   4.405 -0.1571 -0.2245  0.4567
  893MOL0     C20422   1.316   4.712   4.424  0.4340 -0.6138  0.0745
  893MOL0     O20423   1.412   4.799   4.425 -0.3763 -0.1495 -0.1564
  893MOL0     C20424   1.532   4.771   4.367  1.2740  1.1651  0.0002
  893MOL0     C20425   1.532   4.751   4.224  0.2308 -0.1616 -0.5445
  893MOL0     C20426   1.651   4.717   4.159  0.1546 -0.2427  0.1723
  893MOL0     C20427   1.770   4.701   4.235 -0.2902  0.3853  0.0816
  893MOL0     O20428   1.883   4.673   4.159 -0.4048 -0.3289  0.2229
  893MOL0     C20429   2.005   4.652   4.228 -0.3649  1.2683 -0.7313
  893MOL0     C20430   2.103   4.655   4.116 -0.6210 -0.7308 -0.4112
  893MOL0     C20431   2.248   4.641   4.184 -0.0641 -0.2821  0.0486
  893MOL0     C20432   2.354   4.604   4.082 -0.0203 -0.4226  0.4588
  893MOL0     C20433   2.476   4.553   4.148  0.1498 -0.1248 -0.4857
  893MOL0     C20434   2.539   4.468   4.036  0.9316 -0.0295  0.2067
  893MOL0     C20435   2.670   4.401   4.086  0.0744  0.3992  0.4929
  893MOL0     C20436   2.731   4.304   3.981 -0.1702 -0.5424 -0.2195
  893MOL0     N20437   2.841   4.364   3.900 -1.2451  0.6546  0.8445
  893MOL0     C20438   2.838   4.481   3.840 -0.2309 -0.3980 -0.0608
  893MOL0     C20439   2.963   4.498   3.785  0.2196 -0.6995  0.9621
  893MOL0     C20440   3.012   4.614   3.708 -0.1297  0.2956  0.5469
  893MOL0     C20441   3.159   4.651   3.727 -0.1492 -0.6662  0.1845
  893MOL0     C20442   3.196   4.732   3.597  1.8754  0.0950  0.7548
  893MOL0     C20443   3.333   4.784   3.602 -0.5175 -0.4997  0.2759
  893MOL0     O20444   3.373   4.826   3.469 -1.3780  0.7844 -0.4630
  893MOL0     C20445   3.479   4.916   3.454 -0.0188 -0.7005 -0.8553
  893MOL0     C20446   3.493   4.959   3.328 -0.0780 -0.3926  0.6251
  893MOL0     C20447   3.595   5.048   3.294 -0.8310 -0.5168 -0.3687
  893MOL0     C20448   3.679   5.114   3.394  0.1325  0.0683 -0.2422
  893MOL0     C20449   3.780   5.211   3.366 -0.1103  0.4198 -0.0080
  893MOL0     O20450   3.837   5.281   3.474  0.3129 -0.3814  0.4978
  893MOL0     C20451   3.956   5.339   3.448  0.4689 -0.6909 -1.0278
  893MOL0     C20452   4.079   5.274   3.431 -0.1082  0.2229 -0.7829
  893MOL0     C20453   4.198   5.351   3.424 -0.0099  0.1951 -0.9860
  893MOL0     C20454   4.196   5.492   3.442  0.5198 -0.3344 -0.1342
  893MOL0     O20455   4.313   5.566   3.443  0.1087  0.6045 -0.4913
  893MOL0     C20456   4.430   5.510   3.502 -0.5592 -0.5002  0.4782
  893MOL0     C20457   4.540   5.606   3.484  0.8242 -0.3321  0.0428
  893MOL0     C20458   4.680   5.564   3.547 -0.8577  0.2418  0.7326
  893MOL0     C20459   4.780   5.672   3.532  0.0216 -0.6769 -0.0844
  893MOL0     C20460   4.818   5.726   3.384  0.4019  0.0422 -0.1153
  893MOL0     C20461   4.905   5.620   3.325 -0.3019 -0.2165  0.1809
  893MOL0     C20462   5.053   5.618   3.377  0.2581  0.4334  0.2790
  893MOL0     C20463   5.112   5.762   3.379  0.4064 -0.4453 -0.5763
  893MOL0    Cl20464   5.279   5.729   3.452  0.0081 -0.1580  0.4915
  893MOL0     C20465   4.077   5.564   3.460 -0.2127  0.4046  0.1027
  893MOL0     C20466   3.957   5.487   3.455  0.0282 -0.2378  0.6556
  893MOL0     O20467   3.828   5.198   3.258 -0.0540  0.6408 -0.0313
  893MOL0     C20468   3.651   5.056   3.527  0.4783  0.2070  0.2610
  893MOL0     C20469   3.553   4.966   3.556 -0.1258 -0.0050 -0.0760
  893MOL0     N20470   3.040   4.395   3.820 -0.0118  0.1056  0.3257
  893MOL0     N20471   2.968   4.322   3.899 -0.7646  0.5285 -0.2912
  893MOL0     C20472   1.762   4.710   4.377 -0.5681 -0.2898  0.4366
  893MOL0     C20473   1.648   4.745   4.443  0.3001 -0.0423  0.2089
  893MOL0     C20474   1.188   4.755   4.490 -0.6625  0.1842 -0.1567
  893MOL0     C20475   1.195   4.845   4.593  0.3921 -0.3869 -0.6932
  893MOL0     C20476   1.093   4.866   4.682 -0.2002 -0.1288  0.0613
  893MOL0     C20477   0.964   4.819   4.659 -0.7646 -0.1688  0.0639
  893MOL0     O20478   0.879   4.836   4.758  0.3754  0.6190 -0.0894
  893MOL0     C20479   0.740   4.790   4.744 -0.4729  1.0767  0.0261
  893MOL0     C20480   0.658   4.877   4.647  0.1257 -1.0465 -0.0733
  893MOL0     C20481   0.536   4.804   4.587  0.6607  0.5977  0.5922
  893MOL0     C20482   0.570   4.678   4.504 -0.3368 -0.5632  0.4382
  893MOL0     C20483   0.613   4.722   4.373  0.9219 -0.3385  0.2133
  893MOL0     C20484   0.655   4.749   4.265  0.8766  0.1116 -0.4973
  893MOL0     C20485   0.948   4.740   4.547 -0.1973  0.6829  0.9784
  893MOL0     C20486   1.058   4.708   4.459  0.1148 -0.0134  0.5699
  893MOL0     C20487   1.028   4.623   4.341 -0.0832 -0.2154 -0.0661
  893MOL0     H20488   1.441   4.753   4.165  0.0905  0.4955 -0.3116
  893MOL0     H20489   1.653   4.697   4.052  1.5651  1.2806 -0.1111
  893MOL0     H20490   2.019   4.736   4.298  2.0574  1.7553 -1.7132
  893MOL0     H20491   2.007   4.549   4.264  0.2463  0.9050 -1.7464
  893MOL0     H20492   2.097   4.751   4.064 -4.1649 -1.7419 -2.2896
  893MOL0     H20493   2.078   4.585   4.035  2.2364  0.4272 -2.4479
  893MOL0     H20494   2.242   4.562   4.260  1.6945  1.5186  2.1649
  893MOL0     H20495   2.266   4.736   4.233  0.3229  0.3261 -1.2233
  893MOL0     H20496   2.305   4.531   4.016  0.1732  0.8486 -1.1644
  893MOL0     H20497   2.391   4.696   4.035  3.9731 -0.6041  2.8317
  893MOL0     H20498   2.549   4.627   4.181  0.6607 -1.2092  0.9172
  893MOL0     H20499   2.457   4.495   4.239  2.5815 -0.3371 -0.0298
  893MOL0     H20500   2.468   4.393   4.001  0.6833 -0.6052  1.8717
  893MOL0     H20501   2.559   4.536   3.953  2.7324  1.3711  1.6793
  893MOL0     H20502   2.643   4.344   4.175  0.6430 -2.1146 -0.8201
  893MOL0     H20503   2.746   4.474   4.116 -1.0329  1.7527  0.1108
  893MOL0     H20504   2.774   4.214   4.026  1.5138 -0.0261 -0.7294
  893MOL0     H20505   2.651   4.260   3.921  0.7365  0.4452 -2.2299
  893MOL0     H20506   2.750   4.543   3.823 -0.2411 -0.6156 -0.8437
  893MOL0     H20507   2.991   4.584   3.605  1.1010 -0.4707  0.4893
  893MOL0     H20508   2.959   4.709   3.719  0.2094  0.5151  0.2919
  893MOL0     H20509   3.172   4.707   3.820 -2.7363 -2.5479  1.8073
  893MOL0     H20510   3.224   4.563   3.726 -4.5051 -4.2386 -0.1013
  893MOL0     H20511   3.124   4.814   3.594 -0.6517 -2.0085 -1.0501
  893MOL0     H20512   3.184   4.673   3.506 -2.8057  3.5101 -1.2548
  893MOL0     H20513   3.407   4.713   3.640  1.7040  1.6312  0.2181
  893MOL0     H20514   3.336   4.875   3.663  1.8133 -0.3136 -0.0145
  893MOL0     H20515   3.442   4.908   3.246  1.6654 -0.6147 -0.3619
  893MOL0     H20516   3.599   5.066   3.187  0.2153 -3.0027 -0.8150
  893MOL0     H20517   4.087   5.166   3.420 -1.0661  0.0974 -0.3607
  893MOL0     H20518   4.294   5.309   3.397  0.8027  0.2779  1.5177
  893MOL0     H20519   4.410   5.487   3.608 -0.5311  0.2110  0.6463
  893MOL0     H20520   4.468   5.432   3.436 -0.4155  0.5846 -0.7626
  893MOL0     H20521   4.560   5.620   3.377 -0.8662 -0.6492 -0.3471
  893MOL0     H20522   4.516   5.700   3.533  0.3833  0.7252 -2.0767
  893MOL0     H20523   4.669   5.542   3.653  0.8943 -1.9816  0.5105
  893MOL0     H20524   4.722   5.483   3.487 -2.0584  0.9847 -1.2080
  893MOL0     H20525   4.876   5.653   3.580  1.7418  1.9796 -2.2007
  893MOL0     H20526   4.741   5.752   3.594  1.4114  0.4567 -0.6339
  893MOL0     H20527   4.859   5.827   3.375 -1.7330  1.0345  0.6115
  893MOL0     H20528   4.732   5.721   3.316  1.4543 -3.4382 -1.4171
  893MOL0     H20529   4.862   5.520   3.338 -0.1046 -0.1789  1.2725
  893MOL0     H20530   4.905   5.640   3.218 -3.1638  2.7478  0.5788
  893MOL0     H20531   5.118   5.550   3.322  2.0571  0.8530  1.7830
  893MOL0     H20532   5.047   5.586   3.482  2.3544 -2.4625 -0.3808
  893MOL0     H20533   5.116   5.814   3.283  1.5940  0.3644 -0.1214
  893MOL0     H20534   5.055   5.823   3.450  2.0029 -0.7527  1.0433
  893MOL0     H20535   4.082   5.672   3.454  1.5784  0.2856 -2.3786
  893MOL0     H20536   3.863   5.539   3.473 -0.0841 -0.8964  2.1266
  893MOL0     H20537   3.715   5.103   3.601 -1.5302 -1.2781  3.0888
  893MOL0     H20538   3.529   4.926   3.654 -1.6275 -0.0328 -0.4344
  893MOL0     H20539   1.847   4.689   4.442 -1.1778  0.2753  1.4434
  893MOL0     H20540   1.639   4.753   4.551 -0.8187  1.2309  0.0503
  893MOL0     H20541   1.288   4.897   4.614  1.0412 -1.1076 -1.6824
  893MOL0     H20542   1.108   4.921   4.774  1.7326  0.4473 -0.5672
  893MOL0     H20543   0.698   4.803   4.844 -0.8725  0.6203 -0.0820
  893MOL0     H20544   0.740   4.685   4.712  1.4938  0.6297  1.3138
  893MOL0     H20545   0.724   4.897   4.562 -1.5654 -0.4499 -1.2848
  893MOL0     H20546   0.630   4.973   4.690  2.0831 -0.8715  0.9302
  893MOL0     H20547   0.471   4.874   4.534 -1.4079 -0.5457  1.5078
  893MOL0     H20548   0.483   4.788   4.682  1.5256  2.0379  1.3644
  893MOL0     H20549   0.646   4.614   4.549  1.2223  1.1932  0.4255
  893MOL0     H20550   0.479   4.617   4.493 -0.0096 -1.2870  1.6177
  893MOL0     H20551   0.707   4.775   4.176 -1.5518  1.9123 -1.4689
  893MOL0     H20552   0.857   4.688   4.519  0.7818 -0.3500 -0.3967
  893MOL0     H20553   0.938   4.665   4.294  0.5623 -0.4172 -1.5401
  893MOL0     H20554   1.104   4.620   4.262 -1.3346  2.4736 -1.5447
  893MOL0     H20555   1.005   4.523   4.378 -1.7911  0.0285 -0.3410
  894MOL0     O20556   9.722   8.153   5.331 -0.8991  0.1177 -0.5974
  894MOL0     C20557   9.644   8.067   5.363  0.4666  0.6005  0.0293
  894MOL0     O20558   9.677   7.944   5.428  0.0854 -0.4645  0.7116
  894MOL0     C20559   9.805   7.940   5.473 -0.9228 -0.0271  0.4898
  894MOL0     C20560   9.910   7.903   5.390 -0.6030 -0.1992 -0.3136
  894MOL0     C20561  10.045   7.907   5.444  0.2005  0.4690  0.3501
  894MOL0     C20562  10.066   7.933   5.576 -0.0471 -0.1321  0.1998
  894MOL0     O20563  10.195   7.926   5.632 -0.1997  0.1972 -0.1960
  894MOL0     C20564  10.311   7.883   5.545  0.7859  1.1102  0.1311
  894MOL0     C20565  10.442   7.862   5.629  0.7820 -0.1471 -0.5855
  894MOL0     C20566  10.574   7.886   5.556  0.3871 -0.1025 -0.0397
  894MOL0     C20567  10.688   7.823   5.648  0.3209  0.3648  0.1354
  894MOL0     C20568  10.814   7.780   5.567  0.5141 -0.3484 -0.1066
  894MOL0     C20569  10.918   7.702   5.646 -0.6360 -0.3107  0.4457
  894MOL0     C20570  11.035   7.671   5.547  0.4670 -0.4308  0.0154
  894MOL0     C20571  11.160   7.618   5.623  0.1898  0.5568 -0.3663
  894MOL0     N20572  11.263   7.552   5.538  0.0202  0.2993 -0.0548
  894MOL0     C20573  11.310   7.602   5.423 -0.1832 -0.4231  0.2314
  894MOL0     C20574  11.403   7.516   5.379  1.2409 -0.6019 -0.3083
  894MOL0     C20575  11.479   7.517   5.242  0.3505 -0.3616 -0.1754
  894MOL0     C20576  11.622   7.571   5.256 -0.1688 -0.5701  0.1489
  894MOL0     C20577  11.734   7.456   5.281 -0.7247 -0.5738 -0.2799
  894MOL0     C20578  11.883   7.531   5.281  0.5617  0.2297  0.2456
  894MOL0     O20579  11.917   7.555   5.141  0.0594  0.1367 -0.1471
  894MOL0     C20580  12.050   7.585   5.106 -0.0468  0.2301  0.1781
  894MOL0     C20581  12.156   7.570   5.193 -0.4694  0.4160  0.2327
  894MOL0     C20582  12.289   7.581   5.142  0.4854  0.2770 -0.2164
  894MOL0     C20583  12.323   7.602   5.009 -0.2505 -0.2624 -0.0349
  894MOL0     C20584  12.459   7.602   4.950 -0.6802 -0.5049  0.2031
  894MOL0     O20585  12.556   7.610   5.046  0.2053  0.6404 -0.3636
  894MOL0     C20586  12.690   7.613   5.012 -0.0312 -0.3406 -0.7108
  894MOL0     C20587  12.770   7.524   5.084  0.4430  0.1166  0.3644
  894MOL0     C20588  12.903   7.502   5.045 -0.4012  0.1407  0.6461
  894MOL0     C20589  12.959   7.578   4.942  0.3769  0.1969 -0.0392
  894MOL0     O20590  13.095   7.601   4.926 -0.7012  0.5312  0.1227
  894MOL0     C20591  13.188   7.492   4.912  0.0691 -0.1253 -0.2097
  894MOL0     C20592  13.265   7.500   4.782  0.2518 -0.2443  0.8393
  894MOL0     C20593  13.360   7.387   4.749 -0.1959 -0.0693  0.0870
  894MOL0     C20594  13.472   7.368   4.852 -0.5464 -0.3089  0.6607
  894MOL0     C20595  13.557   7.247   4.800  0.8190 -0.1999 -1.1246
  894MOL0     C20596  13.645   7.273   4.676 -1.2974  0.2750  0.4018
  894MOL0     C20597  13.574   7.243   4.544  1.2816  0.5752 -0.0303
  894MOL0     C20598  13.667   7.181   4.442  0.0700  0.2371 -0.1232
  894MOL0    Cl20599  13.806   7.295   4.412  0.0862 -0.6625 -0.3878
  894MOL0     C20600  12.877   7.668   4.876  0.4004  0.4285  0.1301
  894MOL0     C20601  12.748   7.695   4.910 -0.1167  0.7951 -0.3126
  894MOL0     O20602  12.467   7.621   4.831 -0.1249 -0.1467 -0.3684
  894MOL0     C20603  12.210   7.621   4.923  0.9455 -0.2366  0.4682
  894MOL0     C20604  12.080   7.611   4.973 -0.7106  1.2967 -0.1007
  894MOL0     N20605  11.413   7.416   5.472 -0.3401  0.3461 -0.0876
  894MOL0     N20606  11.333   7.439   5.567  0.4295  0.7217 -0.3454
  894MOL0     C20607   9.959   7.967   5.660 -0.2865  0.3505 -0.0422
  894MOL0     C20608   9.831   7.983   5.603 -0.1347  0.3294  0.1741
  894MOL0     C20609   9.509   8.083   5.327 -0.2717  1.3895  0.4692
  894MOL0     C20610   9.471   8.106   5.196  0.1383 -0.1597  0.2549
  894MOL0     C20611   9.338   8.133   5.159  0.5284  0.0265 -0.4994
  894MOL0     C20612   9.234   8.133   5.258 -0.0841 -0.8685  0.0637
  894MOL0     O20613   9.099   8.169   5.249 -0.4413 -0.5401  0.8527
  894MOL0     C20614   9.044   8.186   5.113  0.3365  0.3640 -0.1510
  894MOL0     C20615   9.024   8.049   5.044  0.9840  1.1379  0.5842
  894MOL0     C20616   8.936   8.068   4.919  0.0158 -0.7080 -0.3974
  894MOL0     C20617   8.814   7.973   4.907  0.1023 -0.9651  0.9619
  894MOL0     C20618   8.850   7.839   4.915 -0.4954  0.2322 -0.1552
  894MOL0     C20619   8.887   7.720   4.919 -0.1179 -0.3076 -0.3478
  894MOL0     C20620   9.267   8.098   5.386  0.5581 -0.0705  0.5743
  894MOL0     C20621   9.399   8.068   5.426  0.2950 -0.2007 -0.6650
  894MOL0     C20622   9.438   8.036   5.571  0.0941 -0.0581  0.6540
  894MOL0     H20623   9.878   7.875   5.291  1.4762  1.4898 -1.5528
  894MOL0     H20624  10.127   7.879   5.379 -1.2120 -0.7043 -0.9930
  894MOL0     H20625  10.289   7.790   5.492  0.1830  0.7051  1.0766
  894MOL0     H20626  10.324   7.966   5.475  0.9631  0.8778 -0.1130
  894MOL0     H20627  10.442   7.757   5.659 -0.3518 -0.3083 -1.0861
  894MOL0     H20628  10.446   7.924   5.719 -1.5502  0.2635 -0.6900
  894MOL0     H20629  10.596   7.992   5.540 -0.7999  0.3851  1.3460
  894MOL0     H20630  10.571   7.826   5.464  0.3846  0.4089 -0.3769
  894MOL0     H20631  10.706   7.912   5.710 -0.8715  0.5644  0.2087
  894MOL0     H20632  10.655   7.743   5.714  0.5955  0.4946  0.4340
  894MOL0     H20633  10.784   7.727   5.476 -3.2447 -1.6495  1.6932
  894MOL0     H20634  10.863   7.868   5.525  1.3716 -0.9800 -0.4712
  894MOL0     H20635  10.953   7.751   5.737  1.2239  0.7893 -0.7758
  894MOL0     H20636  10.883   7.603   5.674  0.9049 -1.8604 -2.6280
  894MOL0     H20637  11.071   7.762   5.496  2.9566 -0.7758  1.0345
  894MOL0     H20638  11.008   7.590   5.479  0.2682 -2.0834  1.9899
  894MOL0     H20639  11.206   7.702   5.676 -0.5206  2.1684 -2.1860
  894MOL0     H20640  11.121   7.543   5.692 -0.8406  0.2536 -1.2618
  894MOL0     H20641  11.281   7.693   5.371  0.3259 -1.2446 -1.5779
  894MOL0     H20642  11.476   7.419   5.193  0.8962 -1.6534  2.2069
  894MOL0     H20643  11.428   7.589   5.177  0.2787 -1.3643 -1.2465
  894MOL0     H20644  11.649   7.612   5.159  1.0245 -3.5015 -0.8682
  894MOL0     H20645  11.626   7.645   5.337 -0.1690 -1.0393  0.5854
  894MOL0     H20646  11.739   7.374   5.209  2.5242 -0.2434 -0.5830
  894MOL0     H20647  11.724   7.419   5.383 -1.0273  1.0873  0.3228
  894MOL0     H20648  11.954   7.459   5.323  1.0085  0.3248 -0.3328
  894MOL0     H20649  11.873   7.620   5.343 -1.2571  0.5821 -0.4733
  894MOL0     H20650  12.147   7.542   5.298 -0.3772 -3.3087 -0.6011
  894MOL0     H20651  12.369   7.562   5.213  1.1031  2.3953 -0.2909
  894MOL0     H20652  12.730   7.472   5.170  1.5253  2.0684  2.1358
  894MOL0     H20653  12.960   7.435   5.109 -0.2623 -1.6492 -1.2602
  894MOL0     H20654  13.253   7.491   5.000 -0.3295 -0.6845  0.0915
  894MOL0     H20655  13.130   7.399   4.917 -1.2272  0.6863  3.3008
  894MOL0     H20656  13.193   7.501   4.699  0.8716  3.7259  0.1551
  894MOL0     H20657  13.306   7.601   4.768  0.6475 -0.7827 -2.8011
  894MOL0     H20658  13.310   7.292   4.730  1.3652 -0.8450 -0.3112
  894MOL0     H20659  13.400   7.416   4.651  0.8230 -0.1685  0.4616
  894MOL0     H20660  13.429   7.333   4.947 -1.7753  0.4490  0.4065
  894MOL0     H20661  13.531   7.460   4.856  0.0961 -0.7059  0.5084
  894MOL0     H20662  13.481   7.168   4.792  1.1206 -1.1717  3.1611
  894MOL0     H20663  13.620   7.213   4.882  0.3357  0.3474 -0.5193
  894MOL0     H20664  13.694   7.371   4.674  2.0096 -1.2287 -1.3348
  894MOL0     H20665  13.725   7.200   4.694 -3.2658 -2.0337  0.4058
  894MOL0     H20666  13.530   7.336   4.505  0.3983  0.6610  1.1232
  894MOL0     H20667  13.505   7.158   4.551  2.9672 -1.0895 -2.0666
  894MOL0     H20668  13.708   7.088   4.481 -0.5550 -0.2779 -0.6723
  894MOL0     H20669  13.612   7.142   4.356 -0.6519 -0.8879  0.8231
  894MOL0     H20670  12.917   7.740   4.805 -0.6679  1.6834  0.7706
  894MOL0     H20671  12.691   7.769   4.855 -3.7003 -1.9719 -0.6929
  894MOL0     H20672  12.218   7.639   4.817 -0.3850  0.0160  0.3897
  894MOL0     H20673  12.000   7.614   4.901 -1.4527 -1.1633  0.5289
  894MOL0     H20674   9.989   7.993   5.762  4.8289  1.5924 -1.5466
  894MOL0     H20675   9.741   8.022   5.651 -0.6675  1.9827 -2.0122
  894MOL0     H20676   9.565   8.095   5.143  0.8660  1.0141  1.2515
  894MOL0     H20677   9.308   8.166   5.060 -0.1678 -1.2616 -0.7424
  894MOL0     H20678   9.110   8.249   5.052  1.1072 -1.1310 -0.8986
  894MOL0     H20679   8.942   8.226   5.117 -1.3592 -3.3124 -1.8190
  894MOL0     H20680   8.975   7.973   5.106 -0.7338 -0.0108 -1.9942
  894MOL0     H20681   9.118   7.999   5.017  0.3622 -1.2018  2.4603
  894MOL0     H20682   8.997   8.045   4.831  1.9713 -1.2341  1.0111
  894MOL0     H20683   8.894   8.169   4.915  0.5109 -0.2338  2.9249
  894MOL0     H20684   8.746   7.994   4.990  1.3471  0.9509  1.5694
  894MOL0     H20685   8.764   7.986   4.811 -1.0183 -1.3228  1.4874
  894MOL0     H20686   8.928   7.622   4.935  2.6980  0.9679  0.8343
  894MOL0     H20687   9.187   8.079   5.457 -0.1252 -0.9666 -0.4027
  894MOL0     H20688   9.515   8.107   5.602 -0.8274  0.5799  1.5285
  894MOL0     H20689   9.349   8.042   5.633  0.6347  0.8350  1.3727
  894MOL0     H20690   9.487   7.938   5.571  0.9769  0.3658  0.0673
  895MOL0     O20691   7.976   1.140   2.192  0.1973 -0.2642 -0.2047
  895MOL0     C20692   7.918   1.234   2.251 -0.2570  0.3684 -0.2811
  895MOL0     O20693   7.982   1.310   2.346 -0.1799  0.0430 -0.9632
  895MOL0     C20694   8.091   1.271   2.409 -0.0783  0.3646 -1.2332
  895MOL0     C20695   8.199   1.354   2.427 -0.8516  0.6008  0.5306
  895MOL0     C20696   8.310   1.317   2.507 -0.1253  0.5816  1.2501
  895MOL0     C20697   8.311   1.192   2.572 -0.5039 -1.1979  0.7216
  895MOL0     O20698   8.417   1.154   2.648  0.3199 -0.1186  0.4272
  895MOL0     C20699   8.391   1.083   2.777  0.4653 -0.2248  0.4622
  895MOL0     C20700   8.520   1.063   2.854 -0.2658  0.1791 -0.9540
  895MOL0     C20701   8.561   1.188   2.936  0.2032  0.1968 -0.1703
  895MOL0     C20702   8.711   1.190   2.956  0.2973 -0.5008  0.0959
  895MOL0     C20703   8.745   1.323   3.023 -0.6399  0.2117 -0.1057
  895MOL0     C20704   8.684   1.350   3.164 -0.4629 -0.1469 -0.1489
  895MOL0     C20705   8.750   1.466   3.236  0.1058 -0.1213 -0.3220
  895MOL0     C20706   8.895   1.461   3.257  0.0787  0.2289 -0.7071
  895MOL0     N20707   8.937   1.332   3.306  0.1260 -0.5300 -0.3707
  895MOL0     C20708   8.939   1.300   3.441 -0.4098 -0.1382  1.1650
  895MOL0     C20709   8.969   1.169   3.459  0.4456 -0.6318  0.6216
  895MOL0     C20710   8.984   1.108   3.592 -1.2859 -0.0175 -0.2753
  895MOL0     C20711   9.118   1.144   3.663  0.2974 -0.7695  0.6169
  895MOL0     C20712   9.115   1.285   3.731 -0.4997  0.4645  0.7814
  895MOL0     C20713   9.242   1.327   3.810 -0.3606  0.5235 -0.2297
  895MOL0     O20714   9.303   1.211   3.869  0.3712 -0.4910 -0.2463
  895MOL0     C20715   9.428   1.234   3.915 -0.2572 -0.0683  0.8229
  895MOL0     C20716   9.501   1.356   3.932  0.3308 -0.2347 -0.7839
  895MOL0     C20717   9.628   1.360   3.982 -0.7014 -0.0058 -1.1987
  895MOL0     C20718   9.689   1.243   4.038 -1.1591 -0.0413 -0.0518
  895MOL0     C20719   9.811   1.243   4.124 -0.0168 -0.0634  0.0462
  895MOL0     O20720   9.880   1.365   4.119 -0.0625  0.1092 -0.5203
  895MOL0     C20721   9.973   1.376   4.223 -0.1353  0.1610  0.5094
  895MOL0     C20722   9.974   1.473   4.323  0.6183 -0.4282 -0.6003
  895MOL0     C20723  10.064   1.467   4.432 -0.0034  0.0930 -0.6070
  895MOL0     C20724  10.164   1.370   4.438  0.5191  0.9759  0.3491
  895MOL0     O20725  10.262   1.367   4.527 -0.3101  0.0772 -0.7031
  895MOL0     C20726  10.260   1.449   4.651  0.9108 -0.4878 -0.3391
  895MOL0     C20727  10.404   1.453   4.697 -0.3279  0.2481  1.1738
  895MOL0     C20728  10.430   1.550   4.816  0.3162 -0.1108 -0.2106
  895MOL0     C20729  10.584   1.563   4.842  0.1236 -0.7752 -0.0343
  895MOL0     C20730  10.630   1.639   4.966 -0.2294  0.5086 -0.5204
  895MOL0     C20731  10.576   1.780   4.976  0.0938  0.7145  0.1560
  895MOL0     C20732  10.581   1.825   5.124  0.1779 -0.2508  0.3461
  895MOL0     C20733  10.572   1.972   5.159 -0.0944  1.0938  0.2464
  895MOL0    Cl20734  10.438   2.055   5.098  0.0939 -0.0283  0.1024
  895MOL0     C20735  10.164   1.284   4.331  0.4460 -0.3959  0.4662
  895MOL0     C20736  10.071   1.284   4.228 -0.3210  0.2784  0.1012
  895MOL0     O20737   9.825   1.153   4.207 -0.3968 -0.0871  0.3040
  895MOL0     C20738   9.620   1.121   4.019 -0.8107  0.6583 -0.1251
  895MOL0     C20739   9.492   1.124   3.965 -0.4737 -0.0024 -0.0596
  895MOL0     N20740   8.976   1.116   3.328  0.2448 -0.8861 -0.2543
  895MOL0     N20741   8.954   1.209   3.240 -1.2224 -0.8100 -0.6184
  895MOL0     C20742   8.200   1.105   2.555 -0.3647  0.2992 -0.2954
  895MOL0     C20743   8.096   1.146   2.464 -1.0387  0.6890 -0.4315
  895MOL0     C20744   7.789   1.277   2.191 -0.0507 -0.6696  0.3835
  895MOL0     C20745   7.747   1.401   2.227 -0.0219  0.0625 -0.4689
  895MOL0     C20746   7.633   1.459   2.192  0.1285  0.3972 -0.3908
  895MOL0     C20747   7.536   1.395   2.112  0.1392  0.8135 -0.6004
  895MOL0     O20748   7.409   1.447   2.086 -0.1106 -0.0097  0.1918
  895MOL0     C20749   7.313   1.373   2.011  0.7411 -0.0499 -0.4785
  895MOL0     C20750   7.174   1.423   2.043  0.9189 -0.8055 -0.3393
  895MOL0     C20751   7.167   1.573   2.044  0.4016  0.2767 -0.6929
  895MOL0     C20752   7.019   1.619   2.060  0.5774 -0.3241  0.3194
  895MOL0     C20753   7.019   1.764   2.048 -0.5739 -0.2705  0.4857
  895MOL0     C20754   7.032   1.885   2.029 -0.4882 -0.2657 -0.0110
  895MOL0     C20755   7.583   1.263   2.066  0.2548 -0.2344 -0.0077
  895MOL0     C20756   7.706   1.198   2.106 -0.2048  0.1216  0.3928
  895MOL0     C20757   7.721   1.054   2.085 -0.2716  0.4301 -0.3971
  895MOL0     H20758   8.191   1.452   2.381  2.7513  0.9351  0.3538
  895MOL0     H20759   8.390   1.389   2.525  1.1862 -0.7178  0.7960
  895MOL0     H20760   8.320   1.144   2.832  0.9108 -1.3567  2.3860
  895MOL0     H20761   8.337   0.990   2.758 -0.4819  0.3279  0.4007
  895MOL0     H20762   8.601   1.034   2.786  0.7349  1.7954 -0.4886
  895MOL0     H20763   8.495   0.982   2.923  0.3781 -0.3921 -1.3814
  895MOL0     H20764   8.508   1.181   3.032  1.4859 -3.7914  0.4553
  895MOL0     H20765   8.523   1.277   2.885  1.0012  0.4352 -0.3501
  895MOL0     H20766   8.743   1.098   3.006 -2.1366 -2.1998 -1.2377
  895MOL0     H20767   8.760   1.190   2.858 -0.1314 -1.4046 -0.1287
  895MOL0     H20768   8.854   1.324   3.020 -0.5606 -2.6078 -0.7695
  895MOL0     H20769   8.715   1.413   2.968  1.2868  0.0411 -1.5290
  895MOL0     H20770   8.577   1.369   3.159 -0.1966  1.3819 -0.6320
  895MOL0     H20771   8.688   1.263   3.230  0.4649  1.4986  2.0873
  895MOL0     H20772   8.706   1.462   3.336  1.7922 -2.0333  0.4140
  895MOL0     H20773   8.720   1.557   3.183  2.0939 -1.4465 -4.0894
  895MOL0     H20774   8.942   1.483   3.161 -2.9425 -1.7339 -2.8104
  895MOL0     H20775   8.919   1.540   3.329 -0.8234  0.6191 -0.8237
  895MOL0     H20776   8.920   1.375   3.517  1.2226  2.1297 -0.5301
  895MOL0     H20777   8.906   1.161   3.646 -0.1884  1.4796 -0.0774
  895MOL0     H20778   8.975   0.999   3.593 -3.4046  0.0882 -1.4289
  895MOL0     H20779   9.159   1.065   3.727  0.1075  0.1317  1.8838
  895MOL0     H20780   9.187   1.160   3.580  0.8750  1.6175  1.4655
  895MOL0     H20781   9.027   1.288   3.795 -0.0472  1.1092  1.3973
  895MOL0     H20782   9.104   1.360   3.652  2.8636 -0.0655 -0.3819
  895MOL0     H20783   9.215   1.399   3.887  1.4737  0.9082  0.1100
  895MOL0     H20784   9.312   1.382   3.746 -2.9865  0.2537 -3.6130
  895MOL0     H20785   9.454   1.448   3.896 -0.0461 -0.5112 -1.0120
  895MOL0     H20786   9.665   1.457   4.014 -0.2144 -0.9161  1.1270
  895MOL0     H20787   9.904   1.556   4.322  0.5474 -0.4198  1.5782
  895MOL0     H20788  10.058   1.540   4.512  0.4196  0.3718 -0.8287
  895MOL0     H20789  10.229   1.550   4.623 -2.5696 -1.4744 -0.5311
  895MOL0     H20790  10.186   1.418   4.725  1.5353  1.5109  1.2477
  895MOL0     H20791  10.434   1.352   4.725 -3.3573 -1.1009 -0.0589
  895MOL0     H20792  10.471   1.470   4.612 -0.6179  1.1404  1.1067
  895MOL0     H20793  10.399   1.649   4.781  0.5595 -0.3101 -1.0211
  895MOL0     H20794  10.377   1.525   4.908  0.4744  4.6325  1.4124
  895MOL0     H20795  10.636   1.615   4.761 -0.8480  2.2528  1.1621
  895MOL0     H20796  10.632   1.465   4.835  1.7679  0.0239 -0.2351
  895MOL0     H20797  10.739   1.646   4.979 -0.3475  2.3667 -0.2347
  895MOL0     H20798  10.592   1.575   5.046 -0.4516  0.9130 -0.2975
  895MOL0     H20799  10.634   1.847   4.912 -1.5408  0.2588 -1.9468
  895MOL0     H20800  10.472   1.791   4.942 -0.6864 -3.3706  0.7014
  895MOL0     H20801  10.677   1.791   5.162 -0.3395 -0.2803  1.6734
  895MOL0     H20802  10.493   1.779   5.170 -0.9206 -0.5482 -1.8814
  895MOL0     H20803  10.566   1.979   5.268 -2.4991 -2.0009  0.4396
  895MOL0     H20804  10.666   2.005   5.114 -0.2730  0.3338 -0.6947
  895MOL0     H20805  10.249   1.217   4.338 -1.0927 -2.6103 -0.6357
  895MOL0     H20806  10.083   1.222   4.139  1.3887 -0.3606  0.7415
  895MOL0     H20807   9.661   1.029   4.060 -1.0314 -0.4530 -2.2401
  895MOL0     H20808   9.448   1.027   3.949  2.9046 -1.6155 -0.5270
  895MOL0     H20809   8.200   1.003   2.592 -1.2534  0.7283  0.9448
  895MOL0     H20810   8.019   1.073   2.440 -0.9475  0.4235  0.0857
  895MOL0     H20811   7.800   1.458   2.303 -1.6524 -0.5744  1.2255
  895MOL0     H20812   7.608   1.554   2.239  0.6465  0.7527 -0.8085
  895MOL0     H20813   7.318   1.266   2.029  0.1798 -0.2750 -1.5759
  895MOL0     H20814   7.331   1.387   1.904  2.6329 -1.5779 -0.4000
  895MOL0     H20815   7.160   1.388   2.145  0.7583  0.0364 -0.0590
  895MOL0     H20816   7.096   1.380   1.980  0.8721  0.9301 -1.5397
  895MOL0     H20817   7.200   1.616   1.949 -0.5653  0.3875 -0.9955
  895MOL0     H20818   7.229   1.615   2.124  0.6677 -1.4414  0.0393
  895MOL0     H20819   6.959   1.571   1.982 -0.9688 -0.7867  1.7293
  895MOL0     H20820   6.981   1.599   2.160 -0.4807 -2.1650 -0.3973
  895MOL0     H20821   7.042   1.990   2.015  0.8841 -0.4407 -0.4349
  895MOL0     H20822   7.530   1.193   2.002  3.0658 -2.1827 -0.4028
  895MOL0     H20823   7.780   1.036   1.995  0.8901  0.8156  0.2646
  895MOL0     H20824   7.774   1.005   2.168 -1.3374  2.7675  1.8000
  895MOL0     H20825   7.629   0.998   2.068  0.5920 -0.8500 -1.0359
  896MOL0     O20826   1.719   6.394   9.963 -0.1531 -0.2839 -0.2121
  896MOL0     C20827   1.663   6.501   9.970  0.9980  0.5263 -0.6047
  896MOL0     O20828   1.728   6.608   9.994 -0.3272  0.2106 -0.0758
  896MOL0     C20829   1.859   6.598  10.043  0.3874 -0.1806 -0.3668
  896MOL0     C20830   1.895   6.630  10.172 -0.1160  0.2781 -0.5645
  896MOL0     C20831   2.025   6.629  10.218 -0.2863  0.7549 -0.2835
  896MOL0     C20832   2.129   6.593  10.128 -0.0889  0.1507  0.1572
  896MOL0     O20833   2.259   6.564  10.163  0.7871 -0.3797 -0.0115
  896MOL0     C20834   2.272   6.540  10.306  0.1959 -0.4121 -0.0110
  896MOL0     C20835   2.413   6.487  10.310 -0.0189 -0.2557  0.3177
  896MOL0     C20836   2.515   6.602  10.311  0.3374 -0.0555 -0.2507
  896MOL0     C20837   2.656   6.536  10.328  0.9294  0.0142 -0.4681
  896MOL0     C20838   2.753   6.653  10.298 -0.3337 -0.1842  0.2604
  896MOL0     C20839   2.900   6.608  10.279  0.2318 -0.0288 -0.1051
  896MOL0     C20840   2.961   6.539  10.405 -0.2045  0.1889 -0.4614
  896MOL0     C20841   3.103   6.507  10.383  0.5866  0.4779 -0.5154
  896MOL0     N20842   3.194   6.623  10.362  0.0779  0.4294 -0.1293
  896MOL0     C20843   3.189   6.750  10.411 -0.6568  0.4323 -0.9472
  896MOL0     C20844   3.298   6.808  10.367  0.0404  0.6663 -0.6220
  896MOL0     C20845   3.339   6.948  10.407  0.0339 -0.1013 -0.3691
  896MOL0     C20846   3.471   6.940  10.481  0.9790 -0.4310 -0.0330
  896MOL0     C20847   3.518   7.086  10.533 -0.4644  0.9476  0.7872
  896MOL0     C20848   3.678   7.074  10.547 -0.0287 -0.8745 -0.1105
  896MOL0     O20849   3.738   7.041  10.418 -0.2962  0.1188  0.3143
  896MOL0     C20850   3.881   7.034  10.411 -0.5585 -0.2166  0.0553
  896MOL0     C20851   3.937   6.999  10.290 -0.7396 -0.2355 -0.2690
  896MOL0     C20852   4.082   6.995  10.274  0.6432 -0.4360 -0.3924
  896MOL0     C20853   4.164   7.035  10.380  0.4635 -0.3567 -0.2882
  896MOL0     C20854   4.315   7.022  10.381  0.0373  0.9427 -0.8436
  896MOL0     O20855   4.378   7.063  10.492 -0.1825  0.8818  0.0644
  896MOL0     C20856   4.512   7.031  10.514  0.1911  0.2189 -0.2224
  896MOL0     C20857   4.607   7.049  10.417 -0.2579 -0.0336 -0.2019
  896MOL0     C20858   4.738   7.016  10.441 -0.1575  0.3480  0.3609
  896MOL0     C20859   4.775   6.969  10.570 -0.8215 -0.3688  0.5851
  896MOL0     O20860   4.906   6.948  10.607  0.3142 -0.2009  0.2559
  896MOL0     C20861   5.003   6.915  10.503  0.6324  0.4132 -0.5962
  896MOL0     C20862   5.109   6.839  10.587  0.0655 -0.2583 -0.4301
  896MOL0     C20863   5.235   6.818  10.512  0.1374 -0.2464  0.7628
  896MOL0     C20864   5.359   6.833  10.594  0.0504 -0.1090 -0.7667
  896MOL0     C20865   5.485   6.825  10.498 -0.2200  1.0566  0.0531
  896MOL0     C20866   5.622   6.879  10.564 -0.6366 -0.0933 -1.0960
  896MOL0     C20867   5.643   6.810  10.699  0.5136 -0.6887 -0.8171
  896MOL0     C20868   5.794   6.781  10.719  0.5892  0.1094  1.0411
  896MOL0    Cl20869   5.898   6.923  10.700 -0.1509 -0.1025 -0.3151
  896MOL0     C20870   4.678   6.953  10.670 -0.0891 -0.2288  0.1701
  896MOL0     C20871   4.549   6.991  10.641 -0.0464  0.2245  0.3146
  896MOL0     O20872   4.368   6.965  10.286 -0.3583  0.1720 -0.3879
  896MOL0     C20873   4.095   7.078  10.497 -1.2524 -0.8448  0.5714
  896MOL0     C20874   3.959   7.081  10.517  0.0306 -0.0631 -0.1420
  896MOL0     N20875   3.372   6.712  10.294  0.3195  0.0354 -0.6900
  896MOL0     N20876   3.305   6.605  10.282  0.7139 -0.2163  0.6493
  896MOL0     C20877   2.092   6.556   9.997 -0.4970 -0.9311 -0.1024
  896MOL0     C20878   1.961   6.559   9.957 -0.3844 -0.9749  0.2349
  896MOL0     C20879   1.518   6.495   9.940 -0.1713  0.9262 -0.7457
  896MOL0     C20880   1.464   6.370   9.910 -0.9119  0.0360 -0.4124
  896MOL0     C20881   1.329   6.354   9.871 -0.1764 -0.6483 -0.0236
  896MOL0     C20882   1.245   6.460   9.854 -0.5552  0.1882 -0.3169
  896MOL0     O20883   1.114   6.460   9.816  0.9496 -0.2404  0.0043
  896MOL0     C20884   1.059   6.352   9.734  0.5574  0.5691  0.8150
  896MOL0     C20885   1.011   6.238   9.823 -0.5788 -0.4330  0.4858
  896MOL0     C20886   0.878   6.282   9.893  0.3560  0.6797  0.0639
  896MOL0     C20887   0.808   6.163   9.953 -0.0656  0.0295  0.1744
  896MOL0     C20888   0.689   6.216  10.022 -1.2877  0.1950 -0.1176
  896MOL0     C20889   0.602   6.264  10.093 -0.3672  0.2793 -1.2536
  896MOL0     C20890   1.299   6.579   9.900  0.0317  0.3484  0.8674
  896MOL0     C20891   1.430   6.604   9.940  0.8298 -0.1335 -0.0061
  896MOL0     C20892   1.462   6.747   9.980 -0.4765  0.4504  0.1405
  896MOL0     H20893   1.819   6.671  10.239 -0.2653 -0.5901 -0.1934
  896MOL0     H20894   2.047   6.647  10.323  1.1201 -0.7309 -0.2645
  896MOL0     H20895   2.273   6.632  10.365 -0.3800 -0.5837  0.2732
  896MOL0     H20896   2.200   6.469  10.348  0.8518  0.0115  1.9307
  896MOL0     H20897   2.419   6.419  10.225  1.2421 -1.5093  1.3512
  896MOL0     H20898   2.423   6.425  10.400  1.8992  1.2698  1.2252
  896MOL0     H20899   2.499   6.676  10.390  1.7359  1.0862 -0.9893
  896MOL0     H20900   2.507   6.655  10.215  1.2273  0.8492  0.1563
  896MOL0     H20901   2.673   6.498  10.429 -2.4363  2.1887  1.1049
  896MOL0     H20902   2.672   6.449  10.264  0.6114 -1.1263  0.9464
  896MOL0     H20903   2.718   6.705  10.209  0.1406  2.9368  1.7836
  896MOL0     H20904   2.736   6.730  10.373 -1.5739 -1.6612  1.5608
  896MOL0     H20905   2.904   6.546  10.190  0.9485  2.0238 -1.5796
  896MOL0     H20906   2.964   6.692  10.249  1.2486 -1.1743 -1.2839
  896MOL0     H20907   2.914   6.442  10.422  2.4563 -1.0404  0.4402
  896MOL0     H20908   2.941   6.594  10.497  0.4790  1.1571 -0.8833
  896MOL0     H20909   3.139   6.427  10.448 -1.6231 -0.4802 -0.4032
  896MOL0     H20910   3.096   6.464  10.282 -2.6264  0.9653 -0.5992
  896MOL0     H20911   3.109   6.789  10.473 -1.5910 -1.0905 -1.1594
  896MOL0     H20912   3.349   7.015  10.322  0.5838  3.1894  2.0937
  896MOL0     H20913   3.264   6.997  10.470  0.8639  0.1642  0.4383
  896MOL0     H20914   3.458   6.870  10.564 -1.0329 -1.2620 -0.9940
  896MOL0     H20915   3.542   6.900  10.408 -0.4962 -0.7783 -1.3235
  896MOL0     H20916   3.474   7.106  10.631 -1.2882  0.1961  0.5817
  896MOL0     H20917   3.488   7.159  10.457  0.0534  0.7341  0.3751
  896MOL0     H20918   3.703   6.992  10.615 -0.1003 -1.7989 -1.1791
  896MOL0     H20919   3.715   7.168  10.589  0.3856 -0.6118 -1.0400
  896MOL0     H20920   3.879   6.961  10.206  0.4852 -1.6442 -0.5151
  896MOL0     H20921   4.127   6.958  10.182  2.0170  2.3170 -0.9167
  896MOL0     H20922   4.579   7.078  10.316  2.0519  1.0492 -0.5957
  896MOL0     H20923   4.812   7.021  10.362  1.0943 -2.9268  1.1888
  896MOL0     H20924   4.959   6.844  10.433 -1.8707  1.1163  0.1941
  896MOL0     H20925   5.046   7.005  10.458 -1.1901  2.2837  1.1982
  896MOL0     H20926   5.123   6.904  10.674  0.4472  0.9635 -1.3860
  896MOL0     H20927   5.068   6.739  10.605  2.9201 -1.5755 -0.7381
  896MOL0     H20928   5.248   6.721  10.465  0.8088  0.2542 -0.1104
  896MOL0     H20929   5.242   6.893  10.433 -0.4763 -0.4112  0.5534
  896MOL0     H20930   5.369   6.760  10.674 -2.2392  1.5573  1.1849
  896MOL0     H20931   5.370   6.926  10.650 -2.0434  0.6270 -1.5063
  896MOL0     H20932   5.467   6.889  10.411 -0.1094  1.3909  0.2746
  896MOL0     H20933   5.498   6.721  10.466  2.5452  0.5230  2.4775
  896MOL0     H20934   5.705   6.851  10.498  0.6189 -0.8568  0.7449
  896MOL0     H20935   5.614   6.985  10.586  0.9446 -0.2059  0.1477
  896MOL0     H20936   5.582   6.722  10.720  0.0311 -0.2268 -0.2489
  896MOL0     H20937   5.614   6.877  10.780  0.1182 -1.9915  0.1614
  896MOL0     H20938   5.813   6.744  10.820 -1.2395  0.8388  1.7157
  896MOL0     H20939   5.822   6.700  10.652 -4.1979 -2.2571  1.4344
  896MOL0     H20940   4.694   6.921  10.772 -0.7678 -3.3903 -0.6173
  896MOL0     H20941   4.488   6.982  10.730  0.0136 -0.6436  0.2764
  896MOL0     H20942   4.158   7.103  10.582  0.6451 -2.4308 -0.2739
  896MOL0     H20943   3.912   7.108  10.611  0.7083 -1.2579  0.5581
  896MOL0     H20944   2.175   6.539   9.929  2.3787 -0.1170  2.9244
  896MOL0     H20945   1.942   6.537   9.853  1.0763  0.4214 -0.3626
  896MOL0     H20946   1.532   6.286   9.902  3.4535  3.0563  1.0093
  896MOL0     H20947   1.298   6.258   9.831 -0.8413 -0.9162  1.0997
  896MOL0     H20948   1.133   6.313   9.664 -1.6966 -0.0155 -1.3751
  896MOL0     H20949   0.980   6.400   9.676  1.0726  0.5310  0.0671
  896MOL0     H20950   1.083   6.220   9.904 -0.0090 -3.2585 -0.5495
  896MOL0     H20951   1.005   6.147   9.764 -2.5991  0.6957 -1.1934
  896MOL0     H20952   0.815   6.314   9.810 -0.0203 -0.9161 -0.3021
  896MOL0     H20953   0.898   6.359   9.967  0.4925  0.0674  0.6795
  896MOL0     H20954   0.774   6.090   9.880 -1.7963  0.2256  0.7352
  896MOL0     H20955   0.872   6.122  10.032 -0.8078 -1.1734  0.1727
  896MOL0     H20956   0.526   6.326  10.136  1.2752  1.3538  0.2655
  896MOL0     H20957   1.224   6.657   9.899  1.4511  1.7649  1.6795
  896MOL0     H20958   1.397   6.811   9.920  0.4170  0.4081 -0.9089
  896MOL0     H20959   1.463   6.759  10.088 -1.2936  2.0236  0.0017
  896MOL0     H20960   1.562   6.779   9.949 -1.3117  3.2927  0.1675
  897MOL0     O20961   6.225  10.818   2.601 -0.1372 -0.1613  0.1363
  897MOL0     C20962   6.147  10.903   2.644 -0.2188 -0.2185  0.0125
  897MOL0     O20963   6.159  10.966   2.763  0.6409 -0.4795  0.6298
  897MOL0     C20964   6.252  10.924   2.851 -0.8764  0.4221  0.7529
  897MOL0     C20965   6.224  10.859   2.979 -0.2604 -0.3907 -0.2094
  897MOL0     C20966   6.325  10.815   3.075 -0.0299  0.0982  0.8379
  897MOL0     C20967   6.457  10.831   3.048 -0.7439 -0.5402 -0.4048
  897MOL0     O20968   6.563  10.775   3.114  0.3362 -0.1602 -0.1145
  897MOL0     C20969   6.697  10.826   3.105 -0.3596  0.5037  0.0503
  897MOL0     C20970   6.705  10.960   3.188 -1.0284  0.2573 -0.3545
  897MOL0     C20971   6.849  11.024   3.168 -0.6017 -0.9445  1.0958
  897MOL0     C20972   6.956  10.938   3.232  0.1548 -0.8215 -0.1757
  897MOL0     C20973   7.080  11.027   3.256 -0.0428  0.1998  0.2139
  897MOL0     C20974   7.222  10.961   3.253  0.1372 -0.8639 -1.0076
  897MOL0     C20975   7.245  10.882   3.382 -0.0914 -0.5399 -0.3201
  897MOL0     C20976   7.394  10.823   3.371  0.2161 -0.2425  0.5090
  897MOL0     N20977   7.503  10.919   3.372  0.3817  0.2576 -0.6242
  897MOL0     C20978   7.557  10.991   3.477  0.8259 -0.3500  0.6676
  897MOL0     C20979   7.668  11.048   3.426 -0.3509  0.4036  0.1970
  897MOL0     C20980   7.774  11.122   3.497 -0.1794 -0.8737  0.1332
  897MOL0     C20981   7.714  11.249   3.569 -0.4525  0.0469 -0.3247
  897MOL0     C20982   7.810  11.289   3.675 -0.4514 -0.2943  0.9134
  897MOL0     C20983   7.758  11.420   3.749 -0.0022 -0.2532 -0.3841
  897MOL0     O20984   7.798  11.526   3.670 -0.7684  0.0612  0.1522
  897MOL0     C20985   7.926  11.571   3.684 -0.3887 -0.1190 -0.3575
  897MOL0     C20986   7.987  11.634   3.574  0.8699  1.2226  0.3473
  897MOL0     C20987   8.121  11.676   3.582 -0.1514 -0.0501 -0.8095
  897MOL0     C20988   8.205  11.658   3.700  1.1119  0.0493  1.3295
  897MOL0     C20989   8.347  11.706   3.703  0.0092  0.2189 -0.0173
  897MOL0     O20990   8.417  11.654   3.801 -0.1890 -0.2915 -0.3657
  897MOL0     C20991   8.552  11.674   3.808 -0.3896 -0.5417  0.5987
  897MOL0     C20992   8.641  11.708   3.697  1.1156 -0.7472  0.3492
  897MOL0     C20993   8.776  11.720   3.711 -0.1581  0.2610 -0.5526
  897MOL0     C20994   8.839  11.721   3.842  0.3764 -0.7454 -0.0364
  897MOL0     O20995   8.973  11.718   3.865  0.1208 -0.1265 -0.7379
  897MOL0     C20996   9.057  11.757   3.758 -0.4272  0.4336 -0.5698
  897MOL0     C20997   9.203  11.713   3.787 -0.5149 -0.1353  1.2373
  897MOL0     C20998   9.293  11.804   3.872 -0.1255 -0.4398 -0.2030
  897MOL0     C20999   9.422  11.731   3.871  0.3650  0.0622  1.0258
  897MOL0     C21000   9.516  11.809   3.966  0.0778  0.2185  0.4923
  897MOL0     C21001   9.648  11.751   3.991 -0.4700 -0.1498  0.0605
  897MOL0     C21002   9.750  11.859   4.011 -0.2461  0.1117 -0.2516
  897MOL0     C21003   9.867  11.809   4.092  0.0992  0.1003  0.5320
  897MOL0    Cl21004   9.961  11.691   3.989  0.4236  0.0931 -0.6629
  897MOL0     C21005   8.753  11.691   3.952 -0.1553 -0.6043  0.5079
  897MOL0     C21006   8.610  11.663   3.932 -0.2280 -0.3810 -0.2648
  897MOL0     O21007   8.388  11.783   3.616 -0.3234 -1.0303  0.5244
  897MOL0     C21008   8.140  11.597   3.811 -0.2575  0.2614 -0.1782
  897MOL0     C21009   8.011  11.561   3.803  0.7517 -0.0566 -0.3275
  897MOL0     N21010   7.675  11.029   3.290  0.0163  0.4063 -0.5735
  897MOL0     N21011   7.573  10.949   3.260  0.4017 -1.1121  0.5722
  897MOL0     C21012   6.484  10.897   2.922 -0.2444  0.1128  0.1804
  897MOL0     C21013   6.390  10.941   2.821 -0.9790  0.5712 -0.6158
  897MOL0     C21014   6.015  10.921   2.563 -0.2129  0.0381  0.0562
  897MOL0     C21015   5.936  11.027   2.607  0.5741 -0.4969 -0.7569
  897MOL0     C21016   5.811  11.059   2.560 -0.1278 -0.2799 -0.2419
  897MOL0     C21017   5.746  10.980   2.462 -0.0750  0.8265 -0.2667
  897MOL0     O21018   5.626  11.011   2.401 -0.1676  0.6525  0.0592
  897MOL0     C21019   5.565  11.134   2.439 -0.3944 -0.6231 -0.0882
  897MOL0     C21020   5.433  11.133   2.372  0.1231 -0.7460 -0.8103
  897MOL0     C21021   5.324  11.044   2.446 -0.3257  0.1970  0.1991
  897MOL0     C21022   5.176  11.047   2.409  0.5479 -0.1452  0.0388
  897MOL0     C21023   5.114  11.178   2.441 -0.3172 -0.1697 -0.1413
  897MOL0     C21024   5.043  11.272   2.454 -1.7613  0.3937  0.0492
  897MOL0     C21025   5.819  10.862   2.427  0.2089 -0.2021 -0.6176
  897MOL0     C21026   5.942  10.830   2.480 -0.4790  0.2313  0.4027
  897MOL0     C21027   6.003  10.698   2.455 -0.3511 -0.0845 -0.3264
  897MOL0     H21028   6.122  10.833   3.007 -0.5341  0.3016 -0.5330
  897MOL0     H21029   6.289  10.753   3.157 -0.2975 -1.0294 -0.0994
  897MOL0     H21030   6.760  10.754   3.159  1.7372  2.4600  0.3793
  897MOL0     H21031   6.740  10.841   3.006  0.4667  0.9113  0.4602
  897MOL0     H21032   6.685  10.937   3.294 -0.3298 -2.5888 -0.7441
  897MOL0     H21033   6.640  11.042   3.157  1.8638  4.0666  2.6441
  897MOL0     H21034   6.845  11.125   3.210 -3.5865 -0.7755  0.6613
  897MOL0     H21035   6.874  11.034   3.063  0.3257 -0.5887  1.3427
  897MOL0     H21036   6.916  10.894   3.324  0.3108 -1.0669 -0.2255
  897MOL0     H21037   6.985  10.857   3.165 -0.6234 -1.9288  0.7696
  897MOL0     H21038   7.074  11.108   3.182 -3.3746  1.3757  1.5959
  897MOL0     H21039   7.065  11.070   3.355 -3.1740 -0.6382  0.1827
  897MOL0     H21040   7.222  10.896   3.164 -2.7629 -4.3574  1.2788
  897MOL0     H21041   7.294  11.041   3.233 -0.8014 -0.5167 -3.3057
  897MOL0     H21042   7.171  10.801   3.383  0.4765 -1.0680  0.5449
  897MOL0     H21043   7.235  10.939   3.475 -1.8776  2.3874 -2.1849
  897MOL0     H21044   7.415  10.753   3.452  2.1040  1.1099  1.2551
  897MOL0     H21045   7.404  10.773   3.275 -2.3491  0.5539 -0.2699
  897MOL0     H21046   7.516  10.994   3.578 -1.0253 -0.2391 -0.0385
  897MOL0     H21047   7.820  11.055   3.570 -0.9661 -1.3385  0.2102
  897MOL0     H21048   7.851  11.165   3.432  0.0646 -1.8882 -0.2705
  897MOL0     H21049   7.694  11.333   3.502 -1.4547 -0.0056 -0.1057
  897MOL0     H21050   7.619  11.214   3.610 -0.7147 -0.0207 -0.9830
  897MOL0     H21051   7.897  11.322   3.617 -0.3285  0.1917  1.3716
  897MOL0     H21052   7.827  11.203   3.741 -3.0613 -1.4024  0.2520
  897MOL0     H21053   7.786  11.429   3.854  1.8656  4.8886 -1.0535
  897MOL0     H21054   7.649  11.418   3.749 -0.1022  2.1219 -0.5862
  897MOL0     H21055   7.926  11.653   3.486 -0.6882 -0.9020  0.8907
  897MOL0     H21056   8.158  11.724   3.492  1.2344  2.2519  0.8804
  897MOL0     H21057   8.610  11.725   3.594  3.9058  1.9600 -0.2142
  897MOL0     H21058   8.828  11.738   3.617 -1.5585  1.3598 -1.1577
  897MOL0     H21059   9.030  11.701   3.668 -1.4119  0.3161 -0.2076
  897MOL0     H21060   9.054  11.864   3.737 -1.2790  1.1644  2.7376
  897MOL0     H21061   9.202  11.611   3.828 -0.2868 -1.4227 -1.6530
  897MOL0     H21062   9.252  11.711   3.689  1.0275 -0.3353  1.9856
  897MOL0     H21063   9.315  11.900   3.825  0.5081  0.0180  0.9825
  897MOL0     H21064   9.241  11.822   3.967  1.7275  2.2398  0.4231
  897MOL0     H21065   9.473  11.734   3.775  0.9987  2.0146  1.3745
  897MOL0     H21066   9.419  11.629   3.911 -0.0352  0.4685  2.0730
  897MOL0     H21067   9.458  11.810   4.058 -4.2071  2.4374 -1.8949
  897MOL0     H21068   9.529  11.916   3.951  2.7779  0.0611  1.2606
  897MOL0     H21069   9.631  11.684   4.076  0.7264 -1.5957 -0.8013
  897MOL0     H21070   9.687  11.685   3.913 -0.5396 -0.5739  0.3810
  897MOL0     H21071   9.701  11.933   4.075 -2.5122 -0.3467 -1.3581
  897MOL0     H21072   9.784  11.910   3.920 -2.7626 -1.0564 -1.9626
  897MOL0     H21073   9.929  11.896   4.116 -2.4019  2.0009  0.4416
  897MOL0     H21074   9.831  11.763   4.184 -2.8112 -0.5111 -0.7946
  897MOL0     H21075   8.802  11.694   4.049  2.5493 -0.5379 -0.7627
  897MOL0     H21076   8.561  11.656   4.028 -1.5226 -0.9347 -0.9339
  897MOL0     H21077   8.194  11.574   3.902  0.2215  0.6866 -0.3466
  897MOL0     H21078   7.966  11.513   3.889  2.4948 -1.5622 -0.2045
  897MOL0     H21079   6.585  10.915   2.885 -0.1142 -1.4082 -0.2715
  897MOL0     H21080   6.417  10.989   2.728  1.4466 -0.3512 -0.4645
  897MOL0     H21081   5.972  11.105   2.672 -1.0123  0.9351 -1.5246
  897MOL0     H21082   5.762  11.146   2.601  0.6075  0.4253 -0.8231
  897MOL0     H21083   5.613  11.211   2.378 -0.3006 -1.9393 -1.7187
  897MOL0     H21084   5.550  11.148   2.547  0.3435 -1.9899  0.2161
  897MOL0     H21085   5.441  11.100   2.269 -1.4720  0.1617 -1.2538
  897MOL0     H21086   5.389  11.233   2.374 -1.3897 -1.3962 -0.2600
  897MOL0     H21087   5.333  11.065   2.553  2.4471 -0.7068  0.2259
  897MOL0     H21088   5.356  10.939   2.437 -3.8779 -0.8624 -2.0268
  897MOL0     H21089   5.156  11.029   2.303  2.1191 -1.4233 -0.0633
  897MOL0     H21090   5.132  10.963   2.464  2.0132  0.1897  1.8108
  897MOL0     H21091   4.981  11.360   2.450 -0.8452  1.0708  0.4332
  897MOL0     H21092   5.782  10.796   2.349  1.4491  1.3254 -2.6111
  897MOL0     H21093   5.935  10.635   2.398 -1.2670  1.0736 -0.5614
  897MOL0     H21094   6.092  10.711   2.392  0.1979  0.0082  0.4625
  897MOL0     H21095   6.042  10.643   2.541 -0.4880 -2.0714 -1.4728
  898MOL0     O21096   5.079   4.614   2.337  0.4688  0.2422  0.4664
  898MOL0     C21097   5.000   4.543   2.277  0.3653 -0.2797  0.0187
  898MOL0     O21098   4.942   4.431   2.330 -0.0096 -0.4717  0.6758
  898MOL0     C21099   4.998   4.384   2.444 -0.1772 -0.4798 -0.2770
  898MOL0     C21100   4.932   4.397   2.564  0.4802 -0.3178  0.2865
  898MOL0     C21101   4.996   4.344   2.681  0.1139 -0.3748 -0.0605
  898MOL0     C21102   5.112   4.270   2.671 -0.1013  0.9804 -0.0738
  898MOL0     O21103   5.177   4.209   2.779  0.0717  0.2963  0.2294
  898MOL0     C21104   5.114   4.189   2.905  0.0632 -0.0174 -0.1371
  898MOL0     C21105   5.179   4.073   2.986 -0.1225 -0.4714 -0.8785
  898MOL0     C21106   5.337   4.092   3.003  0.0300 -0.4605 -0.3870
  898MOL0     C21107   5.411   3.970   3.061  0.2055  0.9072 -0.5605
  898MOL0     C21108   5.566   3.972   3.048 -0.3486 -0.4222 -0.4743
  898MOL0     C21109   5.637   4.082   3.121 -0.5953  0.5501 -0.5306
  898MOL0     C21110   5.784   4.053   3.115 -0.1130  0.9084  0.0827
  898MOL0     C21111   5.858   4.167   3.193  0.7093  0.0890 -0.8547
  898MOL0     N21112   5.994   4.180   3.155  0.1563  0.1216  0.3528
  898MOL0     C21113   6.043   4.252   3.045  0.1273 -0.3296  0.6812
  898MOL0     C21114   6.178   4.221   3.032  0.2782  0.1350  0.0469
  898MOL0     C21115   6.286   4.277   2.934  0.2440 -0.0474 -0.9685
  898MOL0     C21116   6.423   4.278   2.995  0.2777 -0.2495  0.2677
  898MOL0     C21117   6.538   4.342   2.916 -0.4453 -0.1443  0.0803
  898MOL0     C21118   6.570   4.265   2.784  0.2898 -0.0103  0.6485
  898MOL0     O21119   6.654   4.327   2.690  0.6070 -0.1288  0.2417
  898MOL0     C21120   6.763   4.401   2.735  0.1842  0.0985  0.4134
  898MOL0     C21121   6.742   4.542   2.736  0.1726  0.4712 -0.4395
  898MOL0     C21122   6.858   4.619   2.734  1.0181 -0.0795  0.4876
  898MOL0     C21123   6.988   4.565   2.768  0.0292 -0.0335 -1.1369
  898MOL0     C21124   7.109   4.649   2.759  0.0034 -0.3801 -0.1290
  898MOL0     O21125   7.099   4.793   2.735  0.4847 -0.6420  0.3495
  898MOL0     C21126   7.221   4.865   2.734  0.1605  0.3678  0.9034
  898MOL0     C21127   7.279   4.893   2.608 -1.1344  0.3689  0.4766
  898MOL0     C21128   7.406   4.958   2.586  0.0295 -0.0980 -0.2722
  898MOL0     C21129   7.472   4.990   2.708  0.4375  0.6191 -0.2058
  898MOL0     O21130   7.595   5.040   2.717 -0.0825 -0.2364  0.0272
  898MOL0     C21131   7.694   4.972   2.636  0.6710 -0.0085  0.3099
  898MOL0     C21132   7.706   4.820   2.675 -0.0880  0.7426 -0.4268
  898MOL0     C21133   7.808   4.741   2.586 -0.2690 -0.1890 -0.6442
  898MOL0     C21134   7.947   4.795   2.610 -0.0753  0.2858  0.1170
  898MOL0     C21135   8.027   4.761   2.480  0.3958  0.1604 -0.6076
  898MOL0     C21136   8.164   4.836   2.483  0.3402 -0.8071  0.3503
  898MOL0     C21137   8.266   4.796   2.370  1.0592  0.2522  0.5269
  898MOL0     C21138   8.411   4.786   2.409  0.1425  0.0103 -0.3445
  898MOL0    Cl21139   8.516   4.821   2.266  0.1583  0.2522  0.0907
  898MOL0     C21140   7.402   4.979   2.830 -0.0559 -0.3429  0.0208
  898MOL0     C21141   7.280   4.920   2.849  0.1887 -0.7604  0.5298
  898MOL0     O21142   7.214   4.585   2.763 -0.2741 -0.6239 -0.0142
  898MOL0     C21143   7.000   4.420   2.798  0.2800  0.0542 -0.0065
  898MOL0     C21144   6.890   4.339   2.774  0.5638  0.2940 -0.0940
  898MOL0     N21145   6.205   4.145   3.143  0.0617 -0.4670  0.1687
  898MOL0     N21146   6.097   4.112   3.216 -0.4605 -0.1133  0.2680
  898MOL0     C21147   5.182   4.262   2.558  0.2045 -0.0822  1.0649
  898MOL0     C21148   5.122   4.312   2.445 -0.6887 -0.3521  0.0241
  898MOL0     C21149   4.964   4.581   2.143  0.1170  1.2992  0.0674
  898MOL0     C21150   4.830   4.568   2.102 -0.4971  0.7249 -0.1259
  898MOL0     C21151   4.793   4.609   1.975  0.5956  0.0852 -0.2129
  898MOL0     C21152   4.893   4.666   1.887 -0.5717 -1.0727  0.0672
  898MOL0     O21153   4.872   4.711   1.761  0.4594  0.1472 -0.6708
  898MOL0     C21154   4.780   4.813   1.735  1.2840 -0.3652 -0.0236
  898MOL0     C21155   4.764   4.823   1.583 -0.1383 -0.3288 -0.6091
  898MOL0     C21156   4.903   4.847   1.519 -0.6362  0.1242 -0.5169
  898MOL0     C21157   4.920   4.816   1.370  0.3000 -0.4178 -0.4334
  898MOL0     C21158   5.060   4.791   1.326 -0.2951  0.4290  0.0175
  898MOL0     C21159   5.181   4.793   1.292  0.4829  0.4081 -0.5158
  898MOL0     C21160   5.021   4.675   1.934 -0.6384 -0.7237  0.1303
  898MOL0     C21161   5.062   4.644   2.057  0.5278  0.4164 -0.1024
  898MOL0     C21162   5.207   4.651   2.083  0.3034 -0.0076 -0.2857
  898MOL0     H21163   4.834   4.444   2.564  0.1075 -0.9538 -2.4250
  898MOL0     H21164   4.945   4.358   2.776  0.1403 -2.2939  0.2744
  898MOL0     H21165   5.113   4.284   2.959  0.8018  0.3207 -0.6870
  898MOL0     H21166   5.014   4.157   2.873  0.6402 -1.6155 -0.4483
  898MOL0     H21167   5.152   3.975   2.946 -1.3368 -0.3993 -0.2626
  898MOL0     H21168   5.133   4.066   3.085  0.7064 -2.9126 -0.6194
  898MOL0     H21169   5.353   4.178   3.068  0.1095  1.4343 -2.7694
  898MOL0     H21170   5.387   4.119   2.909  0.1723 -2.6546 -1.0152
  898MOL0     H21171   5.374   3.961   3.164 -0.0252 -0.9582 -0.7720
  898MOL0     H21172   5.368   3.883   3.011 -0.4647  2.1226 -2.2334
  898MOL0     H21173   5.596   3.869   3.070 -0.1008 -0.2993 -0.2265
  898MOL0     H21174   5.586   3.992   2.942 -2.0308  0.0169 -0.7359
  898MOL0     H21175   5.608   4.175   3.072 -1.8254  1.7688  2.3070
  898MOL0     H21176   5.598   4.088   3.223 -1.9849  0.0593 -1.0218
  898MOL0     H21177   5.815   4.052   3.010  0.0763 -0.4730  0.1298
  898MOL0     H21178   5.804   3.952   3.151 -1.1573 -0.6086 -3.1912
  898MOL0     H21179   5.813   4.265   3.179  0.4389 -0.1558 -1.7575
  898MOL0     H21180   5.844   4.146   3.299  0.1680 -1.1352 -1.1577
  898MOL0     H21181   5.976   4.312   2.984  0.6746  1.3397  1.6616
  898MOL0     H21182   6.288   4.224   2.839 -0.8386 -3.8683  0.9221
  898MOL0     H21183   6.260   4.382   2.917  2.5027  0.7064 -0.2532
  898MOL0     H21184   6.416   4.318   3.096  0.6176  0.5628 -0.0243
  898MOL0     H21185   6.445   4.172   3.014  0.7300 -0.5404 -1.6204
  898MOL0     H21186   6.616   4.342   2.992 -1.0414 -0.1874  0.7056
  898MOL0     H21187   6.525   4.447   2.886 -2.3161  0.0302  1.3197
  898MOL0     H21188   6.479   4.243   2.728  1.7333 -0.4891 -1.6436
  898MOL0     H21189   6.623   4.175   2.815  2.5061  0.5400 -1.2831
  898MOL0     H21190   6.646   4.592   2.730 -0.2221 -0.0874  0.8183
  898MOL0     H21191   6.854   4.727   2.720  0.3923  0.1148  1.9249
  898MOL0     H21192   7.238   4.852   2.516  5.5892  1.5337 -3.7258
  898MOL0     H21193   7.455   4.974   2.491  4.9076  2.5817  2.3216
  898MOL0     H21194   7.656   4.976   2.534  1.6452  0.0452 -0.0538
  898MOL0     H21195   7.781   5.038   2.640  0.8431 -0.2568  0.6233
  898MOL0     H21196   7.724   4.815   2.783  1.4114 -1.0470 -0.7010
  898MOL0     H21197   7.608   4.775   2.657  0.0386 -1.1041  2.7252
  898MOL0     H21198   7.799   4.636   2.612 -3.5736  0.7681  3.1915
  898MOL0     H21199   7.792   4.756   2.479  0.2627  3.5197 -0.3463
  898MOL0     H21200   7.997   4.757   2.700  0.9150  0.4386 -0.3636
  898MOL0     H21201   7.934   4.901   2.634  0.5009  0.6526 -1.1239
  898MOL0     H21202   7.972   4.788   2.390 -0.7062  3.1991  0.8367
  898MOL0     H21203   8.034   4.653   2.468  1.1229  0.1764 -0.3855
  898MOL0     H21204   8.150   4.942   2.503 -0.3056 -1.0034  0.9712
  898MOL0     H21205   8.212   4.802   2.575  2.0901  1.3853  0.3193
  898MOL0     H21206   8.243   4.879   2.302 -0.7541  3.9462  5.1142
  898MOL0     H21207   8.243   4.699   2.323 -2.4808 -0.2519  2.9320
  898MOL0     H21208   8.437   4.860   2.485 -0.5284 -0.2655  0.1593
  898MOL0     H21209   8.430   4.685   2.447 -1.0368 -0.2374 -0.3888
  898MOL0     H21210   7.442   5.011   2.927  0.2225 -2.8451  0.7930
  898MOL0     H21211   7.228   4.902   2.943  0.0456  1.0456  0.8316
  898MOL0     H21212   7.100   4.381   2.815  0.8697  1.1968 -0.7252
  898MOL0     H21213   6.896   4.232   2.764 -0.2432  0.1423  0.9087
  898MOL0     H21214   5.279   4.213   2.551  0.6570  0.7322  1.5715
  898MOL0     H21215   5.158   4.294   2.344  0.7776  0.3470  0.4017
  898MOL0     H21216   4.749   4.548   2.171  0.0126 -2.3198 -0.2562
  898MOL0     H21217   4.688   4.605   1.947 -0.1602  2.0674  2.0046
  898MOL0     H21218   4.825   4.905   1.773  0.8753 -0.2142  0.1079
  898MOL0     H21219   4.679   4.801   1.776  0.8553  3.1979  0.2905
  898MOL0     H21220   4.693   4.901   1.554  1.9131  0.9634 -2.4960
  898MOL0     H21221   4.716   4.738   1.534 -2.6508 -2.4500  4.8077
  898MOL0     H21222   4.978   4.787   1.572 -2.1475 -3.1505 -1.7924
  898MOL0     H21223   4.946   4.946   1.536 -1.0551  0.3341 -0.6910
  898MOL0     H21224   4.867   4.722   1.349 -0.5122  0.0950 -0.7313
  898MOL0     H21225   4.875   4.898   1.313  1.1309 -0.8536 -1.7664
  898MOL0     H21226   5.281   4.796   1.254 -0.7418  0.6797 -4.1014
  898MOL0     H21227   5.095   4.717   1.865  1.6443 -3.5196  0.6964
  898MOL0     H21228   5.234   4.756   2.100 -2.1801  0.8444 -1.0022
  898MOL0     H21229   5.239   4.602   2.175  2.0814  1.7154  0.0905
  898MOL0     H21230   5.252   4.598   1.999 -1.3101 -4.9080  1.5720
  899MOL0     O21231   3.991   1.234   7.257 -1.2228 -0.1360 -0.2542
  899MOL0     C21232   3.972   1.262   7.373 -0.8290  0.7294 -1.5148
  899MOL0     O21233   4.053   1.341   7.456  0.0204 -0.3286  0.4014
  899MOL0     C21234   4.173   1.387   7.410 -0.0723 -0.4006 -0.2593
  899MOL0     C21235   4.179   1.471   7.299  1.0767  0.7458 -0.1747
  899MOL0     C21236   4.304   1.522   7.263  0.3256 -0.4836 -0.7345
  899MOL0     C21237   4.417   1.480   7.343  0.1025  0.8730 -0.7108
  899MOL0     O21238   4.547   1.527   7.321  1.0280 -0.5591 -0.3482
  899MOL0     C21239   4.630   1.585   7.423 -0.1928  0.4544 -0.3326
  899MOL0     C21240   4.770   1.630   7.377  0.2836 -0.0480 -0.2241
  899MOL0     C21241   4.832   1.515   7.292  0.0243  0.8604  0.0666
  899MOL0     C21242   4.974   1.543   7.247 -0.6328  0.1124  0.3821
  899MOL0     C21243   5.070   1.428   7.211 -1.2640  0.6212 -0.0384
  899MOL0     C21244   5.220   1.470   7.229 -0.6008  0.2157  0.0996
  899MOL0     C21245   5.313   1.379   7.141 -0.3569  0.1641 -0.0907
  899MOL0     C21246   5.450   1.349   7.193  0.8810  0.4071  0.6809
  899MOL0     N21247   5.537   1.467   7.210 -0.1568  0.7791 -0.0281
  899MOL0     C21248   5.659   1.485   7.152 -0.0056  0.2406 -0.0622
  899MOL0     C21249   5.715   1.593   7.216 -0.0106  0.2645 -0.0415
  899MOL0     C21250   5.859   1.631   7.214  0.2821  0.4935 -0.3702
  899MOL0     C21251   5.929   1.573   7.341 -0.1891 -1.3085 -0.1172
  899MOL0     C21252   6.068   1.631   7.370 -0.5993  0.2292 -0.8032
  899MOL0     C21253   6.125   1.565   7.488  0.4592  0.2118 -0.4088
  899MOL0     O21254   6.256   1.610   7.518  0.0258  0.8244 -0.2391
  899MOL0     C21255   6.331   1.544   7.611 -0.1502  0.4098  0.0739
  899MOL0     C21256   6.438   1.622   7.656  0.3420 -0.2073  0.3422
  899MOL0     C21257   6.534   1.564   7.741 -0.4265  0.4074  0.3684
  899MOL0     C21258   6.521   1.436   7.791  0.2847 -0.3954 -0.2218
  899MOL0     C21259   6.628   1.379   7.875 -0.1256  0.6224  0.9139
  899MOL0     O21260   6.617   1.239   7.890  0.2286 -0.5459 -0.4263
  899MOL0     C21261   6.691   1.172   7.983 -0.0030 -0.4963 -0.0669
  899MOL0     C21262   6.722   1.044   7.933  0.0088  0.1985 -0.6387
  899MOL0     C21263   6.790   0.968   8.024  0.2547 -0.1277 -0.6302
  899MOL0     C21264   6.836   1.012   8.149  0.1812 -0.3889  0.3276
  899MOL0     O21265   6.902   0.930   8.231  0.1291 -0.3866 -0.2487
  899MOL0     C21266   7.018   0.845   8.185  0.0774 -0.4678 -0.0410
  899MOL0     C21267   7.010   0.717   8.264 -0.3771 -0.0544  0.4843
  899MOL0     C21268   6.880   0.644   8.215  0.1430  1.1823  1.0237
  899MOL0     C21269   6.884   0.507   8.285 -0.5313 -0.9813  0.6493
  899MOL0     C21270   6.767   0.418   8.246  0.4623 -0.0588  0.3763
  899MOL0     C21271   6.754   0.403   8.087 -0.3636  0.6534  0.2324
  899MOL0     C21272   6.634   0.310   8.054  0.5942  0.0584  0.1286
  899MOL0     C21273   6.619   0.305   7.905 -0.8161 -0.5616 -0.3452
  899MOL0    Cl21274   6.631   0.459   7.823 -0.1319  0.0155 -0.0814
  899MOL0     C21275   6.798   1.138   8.197  0.1960 -0.0453  0.0250
  899MOL0     C21276   6.732   1.219   8.109  0.4916  0.7096  1.7732
  899MOL0     O21277   6.713   1.449   7.929  0.1885  0.0544  0.3705
  899MOL0     C21278   6.410   1.363   7.754 -0.4544 -0.3838  0.6362
  899MOL0     C21279   6.312   1.418   7.667 -0.8460  0.2445 -0.1917
  899MOL0     N21280   5.615   1.642   7.299 -0.2509  0.0197  0.0999
  899MOL0     N21281   5.521   1.559   7.303  0.7494 -0.0061 -0.6634
  899MOL0     C21282   4.404   1.389   7.443 -0.2930 -0.3188  0.7570
  899MOL0     C21283   4.279   1.348   7.484 -0.3479  0.3744 -0.1331
  899MOL0     C21284   3.856   1.196   7.441 -0.2297  0.3946  0.5780
  899MOL0     C21285   3.859   1.127   7.557  0.7989  0.5647 -0.4359
  899MOL0     C21286   3.757   1.049   7.598 -0.2640  0.2080  0.1963
  899MOL0     C21287   3.633   1.042   7.536  0.1148  0.1150  0.5498
  899MOL0     O21288   3.537   0.944   7.559  0.4400  0.4819 -0.1134
  899MOL0     C21289   3.406   0.974   7.506  0.1806  0.1297 -0.2184
  899MOL0     C21290   3.303   0.893   7.588  0.0956 -0.9345 -0.3011
  899MOL0     C21291   3.160   0.907   7.536 -0.0564 -0.6468  0.0546
  899MOL0     C21292   3.091   1.033   7.590  0.0536  0.2151  0.0844
  899MOL0     C21293   2.945   1.045   7.582 -0.1224  1.2653  0.4899
  899MOL0     C21294   2.822   1.046   7.577 -0.5978 -0.0239  0.2462
  899MOL0     C21295   3.621   1.141   7.433  0.1944  0.1827 -1.0160
  899MOL0     C21296   3.725   1.210   7.385 -0.3298 -0.3223  0.6410
  899MOL0     C21297   3.704   1.281   7.251 -0.5857  1.1299  0.6372
  899MOL0     H21298   4.094   1.486   7.234  1.3890  0.4912 -0.6463
  899MOL0     H21299   4.320   1.593   7.183  1.3529 -0.0436 -0.1764
  899MOL0     H21300   4.572   1.670   7.458  0.4752  0.4327  0.9131
  899MOL0     H21301   4.662   1.506   7.492 -2.5855  0.1566  0.5351
  899MOL0     H21302   4.834   1.652   7.462 -0.0648 -0.2930  0.1057
  899MOL0     H21303   4.756   1.723   7.321 -4.4726 -0.3582  0.0723
  899MOL0     H21304   4.764   1.499   7.208 -1.5100  0.1971  1.3699
  899MOL0     H21305   4.834   1.423   7.351  0.0685  0.2935 -0.8204
  899MOL0     H21306   4.979   1.607   7.158 -1.1594 -0.8718 -0.3870
  899MOL0     H21307   5.021   1.602   7.325  0.7587 -2.0341  1.2563
  899MOL0     H21308   5.053   1.347   7.282 -0.2847 -0.6597 -1.2146
  899MOL0     H21309   5.051   1.393   7.109 -0.7150  0.0250  0.0585
  899MOL0     H21310   5.239   1.573   7.198  0.1815 -0.2246 -0.9398
  899MOL0     H21311   5.256   1.458   7.332 -0.6309 -0.2298  0.0603
  899MOL0     H21312   5.335   1.415   7.040 -1.2651  0.7428 -0.0846
  899MOL0     H21313   5.263   1.283   7.124 -1.0735  0.4451  0.3945
  899MOL0     H21314   5.440   1.311   7.296  1.4463  1.1934  1.0370
  899MOL0     H21315   5.486   1.273   7.124  0.6262  0.8558  0.0459
  899MOL0     H21316   5.713   1.418   7.087  0.8623 -3.3641  3.9577
  899MOL0     H21317   5.925   1.588   7.139  0.3618 -1.6366  0.8565
  899MOL0     H21318   5.856   1.741   7.209 -3.1078  0.4739 -1.7174
  899MOL0     H21319   5.867   1.603   7.426  1.0244 -0.2646  0.4444
  899MOL0     H21320   5.940   1.464   7.342  2.6026 -1.1011  0.1515
  899MOL0     H21321   6.067   1.738   7.395  1.6024  0.6310 -2.1303
  899MOL0     H21322   6.143   1.623   7.291 -0.5368  2.6128 -1.0830
  899MOL0     H21323   6.147   1.462   7.458  4.0889  1.4136 -2.5514
  899MOL0     H21324   6.051   1.563   7.569  0.0623  2.8076 -0.6075
  899MOL0     H21325   6.451   1.722   7.615 -4.4829  0.3444 -0.5424
  899MOL0     H21326   6.623   1.625   7.751 -0.9677  1.3898 -0.5502
  899MOL0     H21327   6.690   1.009   7.835 -0.6466 -0.2643 -0.2723
  899MOL0     H21328   6.821   0.870   7.989  0.1602  0.0114 -1.1129
  899MOL0     H21329   7.024   0.813   8.080  1.9741 -1.2884  0.2797
  899MOL0     H21330   7.110   0.903   8.195 -0.6580  0.9011 -0.9193
  899MOL0     H21331   7.109   0.673   8.245  1.3977  3.5867  0.3083
  899MOL0     H21332   7.009   0.749   8.369 -0.8268  2.8290 -0.3166
  899MOL0     H21333   6.785   0.690   8.243 -0.0055  0.8611  1.0464
  899MOL0     H21334   6.874   0.631   8.107 -2.0603 -1.1388  1.3178
  899MOL0     H21335   6.878   0.522   8.393 -3.9442 -1.6971  0.6461
  899MOL0     H21336   6.980   0.464   8.254 -1.1809 -1.6575 -0.4811
  899MOL0     H21337   6.672   0.456   8.284  0.2762 -0.6057  0.4568
  899MOL0     H21338   6.779   0.321   8.295 -1.8854 -1.8509 -2.3192
  899MOL0     H21339   6.734   0.503   8.048 -1.0821  0.2198 -0.5354
  899MOL0     H21340   6.845   0.360   8.043 -0.4003 -1.4054  1.9840
  899MOL0     H21341   6.537   0.337   8.097  0.6190 -1.2786  1.1135
  899MOL0     H21342   6.659   0.209   8.091 -1.7515 -0.6836 -0.1681
  899MOL0     H21343   6.697   0.237   7.868  1.3480  0.9601  1.1105
  899MOL0     H21344   6.519   0.272   7.877 -1.2573 -2.3284  2.8144
  899MOL0     H21345   6.838   1.170   8.292  0.0982  1.8078 -0.5273
  899MOL0     H21346   6.706   1.318   8.145 -2.0544  1.0374 -0.5968
  899MOL0     H21347   6.393   1.260   7.785  1.1782  0.3808  4.7930
  899MOL0     H21348   6.223   1.361   7.641 -0.7678 -0.3861  0.8568
  899MOL0     H21349   4.498   1.346   7.475  0.7200 -0.3127 -1.9584
  899MOL0     H21350   4.275   1.264   7.553  0.5340  1.0083  0.7128
  899MOL0     H21351   3.956   1.118   7.605  1.7988  0.4286 -2.3998
  899MOL0     H21352   3.785   0.981   7.678 -0.0757  1.4729  1.2374
  899MOL0     H21353   3.401   0.932   7.405 -0.2128  0.0252 -0.1570
  899MOL0     H21354   3.374   1.079   7.505  0.9201  0.3642 -1.2299
  899MOL0     H21355   3.314   0.922   7.693  0.5057 -5.0708  0.9540
  899MOL0     H21356   3.334   0.789   7.593  2.5959 -0.2221  0.1035
  899MOL0     H21357   3.103   0.822   7.573 -0.7105 -0.7789 -1.2122
  899MOL0     H21358   3.149   0.903   7.427 -1.6301  3.0805 -0.0823
  899MOL0     H21359   3.119   1.046   7.695 -1.1314  1.1749  0.3055
  899MOL0     H21360   3.128   1.120   7.535 -0.7436 -0.4174 -1.4995
  899MOL0     H21361   2.715   1.044   7.565 -0.7205 -0.7284  1.2904
  899MOL0     H21362   3.525   1.145   7.381  0.2558  0.6351 -1.0947
  899MOL0     H21363   3.722   1.207   7.172 -0.6940 -0.4061  2.0025
  899MOL0     H21364   3.608   1.328   7.231 -0.4975  0.2277 -2.5110
  899MOL0     H21365   3.787   1.349   7.233  1.0952 -0.5835  1.4968
  900MOL0     O21366   3.654   1.417   2.159 -0.0477  0.1482 -0.5820
  900MOL0     C21367   3.554   1.378   2.226  0.3010  0.5459 -0.7127
  900MOL0     O21368   3.537   1.252   2.280  0.5632  0.1771 -0.1226
  900MOL0     C21369   3.632   1.156   2.237 -0.7170 -0.5320  0.9180
  900MOL0     C21370   3.708   1.083   2.329 -0.9774  0.3054 -0.6167
  900MOL0     C21371   3.800   0.987   2.283 -0.0673 -0.8362 -0.1464
  900MOL0     C21372   3.844   0.981   2.145  0.7223 -0.3347  0.2597
  900MOL0     O21373   3.938   0.892   2.126 -0.3385  0.6146  0.2481
  900MOL0     C21374   3.996   0.883   1.991 -0.1419  1.6107  0.1391
  900MOL0     C21375   4.108   0.774   2.001 -0.2649 -0.4864 -0.9803
  900MOL0     C21376   4.145   0.722   1.860 -0.6557  0.5737  0.3397
  900MOL0     C21377   4.294   0.751   1.833  1.4251 -0.0415 -1.0775
  900MOL0     C21378   4.356   0.679   1.717 -0.3526  0.7488 -0.2346
  900MOL0     C21379   4.407   0.531   1.745  0.5080 -0.6533  0.3425
  900MOL0     C21380   4.489   0.477   1.630 -1.0287 -1.5024 -0.8051
  900MOL0     C21381   4.628   0.548   1.623 -0.3927 -0.1026  0.3732
  900MOL0     N21382   4.710   0.482   1.525 -0.3889 -0.3929  0.4495
  900MOL0     C21383   4.786   0.374   1.566 -0.3967  0.8377 -0.7204
  900MOL0     C21384   4.885   0.364   1.476 -0.1458  0.7941  1.0331
  900MOL0     C21385   4.999   0.267   1.475 -0.0078  0.5923  0.9528
  900MOL0     C21386   5.139   0.324   1.476 -1.0059 -0.1449  0.4085
  900MOL0     C21387   5.243   0.238   1.422 -0.0383  0.9078 -0.1353
  900MOL0     C21388   5.385   0.287   1.438 -0.1763  0.9024 -0.4014
  900MOL0     O21389   5.414   0.365   1.324  0.1860 -0.8097 -0.2950
  900MOL0     C21390   5.541   0.395   1.289 -0.2139  0.1250  0.5655
  900MOL0     C21391   5.575   0.427   1.158  0.5785 -0.8066 -0.3952
  900MOL0     C21392   5.696   0.477   1.117 -0.0723  0.4677  0.1079
  900MOL0     C21393   5.802   0.494   1.215 -0.3751  0.3556  0.0229
  900MOL0     C21394   5.936   0.548   1.170 -0.0077 -0.1004  0.1162
  900MOL0     O21395   6.025   0.583   1.264 -0.2407 -0.6355  0.6328
  900MOL0     C21396   6.155   0.631   1.235  0.2704 -0.6391  0.1141
  900MOL0     C21397   6.224   0.610   1.114 -0.2552 -0.4031 -0.4101
  900MOL0     C21398   6.350   0.658   1.091  0.2668 -0.7248 -0.6239
  900MOL0     C21399   6.411   0.739   1.198 -0.1817  0.5060 -0.1369
  900MOL0     O21400   6.535   0.787   1.190 -0.3623  0.6908 -0.8687
  900MOL0     C21401   6.600   0.779   1.066  0.2414 -1.2002 -0.5905
  900MOL0     C21402   6.747   0.813   1.080 -0.0269 -0.0721 -0.7715
  900MOL0     C21403   6.816   0.699   1.145 -0.8200  0.1032  0.6129
  900MOL0     C21404   6.964   0.737   1.168  0.6538 -0.1414  0.0323
  900MOL0     C21405   7.036   0.746   1.038 -0.0171 -0.0922 -0.1639
  900MOL0     C21406   7.194   0.762   1.066 -0.3743  0.5165  0.3421
  900MOL0     C21407   7.266   0.787   0.943 -0.3178 -0.6967 -0.2162
  900MOL0     C21408   7.298   0.652   0.872  0.3958  0.1474  0.3637
  900MOL0    Cl21409   7.421   0.572   0.979  0.8031 -0.0680 -0.1497
  900MOL0     C21410   6.340   0.766   1.314  0.1426  0.5746 -0.0936
  900MOL0     C21411   6.212   0.715   1.333  0.4669  0.9606  0.0922
  900MOL0     O21412   5.949   0.558   1.044  0.5489 -0.0858 -0.2812
  900MOL0     C21413   5.773   0.458   1.352  0.1300  0.5104  0.5977
  900MOL0     C21414   5.648   0.403   1.380  0.6269  0.1125 -0.3609
  900MOL0     N21415   4.874   0.458   1.378  0.7890  0.1648  0.2812
  900MOL0     N21416   4.762   0.529   1.412  0.0469  0.6738  0.1177
  900MOL0     C21417   3.765   1.044   2.053  0.7819  0.6990 -0.3577
  900MOL0     C21418   3.662   1.127   2.097 -0.5219 -0.9810 -0.1382
  900MOL0     C21419   3.453   1.481   2.276 -0.5402 -0.1953  0.3331
  900MOL0     C21420   3.371   1.445   2.390  0.5973 -0.0782  0.8698
  900MOL0     C21421   3.292   1.540   2.452  0.0640 -0.4435  0.2508
  900MOL0     C21422   3.300   1.673   2.405  0.4379 -0.4497 -0.7267
  900MOL0     O21423   3.244   1.790   2.455 -0.2394  1.0117 -0.2698
  900MOL0     C21424   3.125   1.771   2.534 -0.1199 -0.2973 -0.3001
  900MOL0     C21425   2.999   1.786   2.449 -0.2817 -0.4899 -0.1241
  900MOL0     C21426   2.871   1.745   2.530  0.0416 -0.0195  0.0235
  900MOL0     C21427   2.737   1.751   2.453 -0.0349 -0.6629 -0.3282
  900MOL0     C21428   2.715   1.878   2.376  1.0334  0.6338 -0.4122
  900MOL0     C21429   2.694   1.988   2.326  0.0044  0.6033  0.4581
  900MOL0     C21430   3.382   1.710   2.299  0.3611 -0.0117 -0.2656
  900MOL0     C21431   3.450   1.613   2.228 -0.5360 -0.4155  0.0088
  900MOL0     C21432   3.516   1.664   2.109  0.7432 -0.6488  0.5704
  900MOL0     H21433   3.696   1.098   2.436  0.8337 -2.4866  0.0877
  900MOL0     H21434   3.842   0.923   2.361 -1.0622 -0.1247  1.0040
  900MOL0     H21435   3.920   0.857   1.916  0.4258  2.1102 -0.6158
  900MOL0     H21436   4.050   0.974   1.964 -2.1729  3.6058  2.2971
  900MOL0     H21437   4.067   0.691   2.061  0.6779 -0.1932  0.0970
  900MOL0     H21438   4.192   0.813   2.059  0.4214 -3.1714 -0.0091
  900MOL0     H21439   4.095   0.759   1.770  2.0091  0.4316 -1.3094
  900MOL0     H21440   4.124   0.615   1.864  2.1570 -0.1388 -1.0458
  900MOL0     H21441   4.302   0.859   1.813 -3.1738  1.0942  1.6856
  900MOL0     H21442   4.355   0.738   1.923  3.0236 -1.6009 -2.3295
  900MOL0     H21443   4.287   0.687   1.633  0.1252  0.8727 -0.6167
  900MOL0     H21444   4.446   0.734   1.686  2.7303 -4.1285 -0.9399
  900MOL0     H21445   4.471   0.529   1.833  4.2484  2.2865 -1.9987
  900MOL0     H21446   4.315   0.475   1.768 -1.3319  1.8927 -0.3086
  900MOL0     H21447   4.451   0.499   1.529  3.9807  0.3010 -2.5987
  900MOL0     H21448   4.500   0.369   1.644 -1.3905 -1.2690  1.6516
  900MOL0     H21449   4.621   0.652   1.589  0.0948 -0.4103 -0.7287
  900MOL0     H21450   4.682   0.547   1.718  0.5259  2.6771 -0.0348
  900MOL0     H21451   4.768   0.326   1.662 -0.7680  2.8425  0.2829
  900MOL0     H21452   4.990   0.203   1.563 -0.5042 -1.1617 -0.3213
  900MOL0     H21453   4.989   0.195   1.393 -0.9221 -1.1587  2.5138
  900MOL0     H21454   5.133   0.418   1.420 -2.1115  0.5488  1.6256
  900MOL0     H21455   5.162   0.360   1.576 -2.0031 -1.3967  1.1111
  900MOL0     H21456   5.221   0.225   1.315  0.9051 -0.9267 -0.1631
  900MOL0     H21457   5.245   0.135   1.460 -1.2328  0.6827 -0.6462
  900MOL0     H21458   5.455   0.202   1.442  1.1667  2.0109  2.4040
  900MOL0     H21459   5.389   0.335   1.536 -2.5119 -1.6922  1.1030
  900MOL0     H21460   5.485   0.424   1.099 -0.7554 -0.8374  1.5255
  900MOL0     H21461   5.702   0.517   1.016  3.3473  1.2028  0.4502
  900MOL0     H21462   6.187   0.546   1.035  1.5136  0.1860 -1.8080
  900MOL0     H21463   6.409   0.624   1.007  2.4961 -2.0806  1.3618
  900MOL0     H21464   6.594   0.687   1.007 -1.8586 -0.3979 -1.7519
  900MOL0     H21465   6.553   0.856   1.005 -0.4347 -2.5978 -1.9220
  900MOL0     H21466   6.796   0.850   0.990  2.6373 -1.1955  0.1120
  900MOL0     H21467   6.746   0.901   1.145  0.1917 -2.0950  2.1410
  900MOL0     H21468   6.777   0.691   1.247 -0.4215  1.7100  0.9346
  900MOL0     H21469   6.808   0.600   1.101  0.0687 -0.3150  1.3604
  900MOL0     H21470   7.018   0.661   1.226  1.9334 -0.3254 -1.3418
  900MOL0     H21471   6.970   0.832   1.221 -1.2526 -0.3648  0.7351
  900MOL0     H21472   7.007   0.823   0.966  0.8117 -0.1777 -0.6036
  900MOL0     H21473   7.020   0.655   0.980  1.2893 -2.0316  2.3062
  900MOL0     H21474   7.197   0.846   1.136 -3.5479  0.6522  0.4486
  900MOL0     H21475   7.226   0.672   1.120 -1.1292  0.6150  0.9631
  900MOL0     H21476   7.360   0.838   0.967 -0.3606 -1.1920  1.0991
  900MOL0     H21477   7.204   0.847   0.876  0.5024 -1.4106 -1.6577
  900MOL0     H21478   7.207   0.592   0.866  0.3175 -0.4018  4.3935
  900MOL0     H21479   7.338   0.662   0.771 -1.4754 -2.1091 -0.7002
  900MOL0     H21480   6.388   0.831   1.387 -0.4050 -1.0369  1.7835
  900MOL0     H21481   6.163   0.746   1.425 -1.4118 -1.8360  0.1629
  900MOL0     H21482   5.849   0.467   1.429  2.9954  2.9481 -2.2387
  900MOL0     H21483   5.639   0.373   1.484  1.2552  1.4448  0.1014
  900MOL0     H21484   3.770   1.034   1.945  2.8352 -0.0081 -0.2286
  900MOL0     H21485   3.615   1.186   2.019  1.6877 -0.0919 -0.8823
  900MOL0     H21486   3.373   1.343   2.427 -2.4772  0.0183  1.4935
  900MOL0     H21487   3.227   1.514   2.535 -0.7002 -2.1231 -0.8252
  900MOL0     H21488   3.125   1.850   2.610  3.2273  2.8115 -3.2110
  900MOL0     H21489   3.129   1.678   2.592  3.0243 -0.0875 -0.0483
  900MOL0     H21490   3.004   1.709   2.371 -0.4636 -0.5437 -0.0827
  900MOL0     H21491   2.997   1.886   2.406  1.1186  0.9863  2.9340
  900MOL0     H21492   2.875   1.809   2.619  2.7079  0.3101 -0.2658
  900MOL0     H21493   2.888   1.644   2.568 -0.2049  0.0014  0.1942
  900MOL0     H21494   2.747   1.664   2.387  4.1570 -1.3908  0.9341
  900MOL0     H21495   2.655   1.732   2.523 -0.8840  3.6309  0.1208
  900MOL0     H21496   2.661   2.083   2.288 -0.7268  0.0998 -0.1926
  900MOL0     H21497   3.386   1.811   2.260 -1.1067  0.9337  1.8200
  900MOL0     H21498   3.618   1.698   2.131  0.0723  0.9009  1.4549
  900MOL0     H21499   3.506   1.596   2.025 -0.4298  0.0818  0.0932
  900MOL0     H21500   3.459   1.748   2.068 -1.0565 -3.0731 -2.3314
  901MOL0     O21501  10.095   3.969   0.068 -0.4762  0.2381  0.2050
  901MOL0     C21502   9.993   3.981   0.137  0.4504 -0.1951  0.1700
  901MOL0     O21503   9.988   3.970   0.269 -0.0614 -0.1669 -0.2308
  901MOL0     C21504  10.109   3.931   0.326 -0.3320  0.3257 -1.2931
  901MOL0     C21505  10.151   3.799   0.337 -0.2734  0.5658  0.5422
  901MOL0     C21506  10.270   3.762   0.409  0.7422 -0.1670 -0.7233
  901MOL0     C21507  10.355   3.865   0.467  0.4743  1.0736 -0.4916
  901MOL0     O21508  10.470   3.826   0.533 -0.0430 -0.4703  0.3052
  901MOL0     C21509  10.584   3.891   0.483  0.6644 -0.2189 -0.1942
  901MOL0     C21510  10.671   3.809   0.384 -0.5747 -0.4504 -1.2132
  901MOL0     C21511  10.813   3.864   0.360  0.1917 -0.3391 -0.0549
  901MOL0     C21512  10.904   3.908   0.486 -0.1661 -0.0589 -0.9237
  901MOL0     C21513  11.043   3.951   0.446  0.6998 -0.6808  0.4615
  901MOL0     C21514  11.104   3.836   0.360  0.4335 -0.4254  0.3228
  901MOL0     C21515  11.257   3.841   0.340 -0.3670  0.2606 -0.2649
  901MOL0     C21516  11.315   3.966   0.263  0.1127 -0.9689 -0.3343
  901MOL0     N21517  11.281   3.947   0.123  0.1757 -0.1898 -0.4016
  901MOL0     C21518  11.183   4.014   0.053 -0.0406  0.4278  0.0896
  901MOL0     C21519  11.206   3.990  -0.080 -0.3491  0.5478 -1.0353
  901MOL0     C21520  11.123   4.050  -0.185 -1.1159  0.2099 -0.0806
  901MOL0     C21521  11.023   3.956  -0.232 -0.9628 -0.5049 -0.5170
  901MOL0     C21522  10.962   4.007  -0.356 -0.5774 -0.3119  0.6336
  901MOL0     C21523  10.851   3.924  -0.410 -0.7061 -0.1054 -0.3142
  901MOL0     O21524  10.739   3.915  -0.324  0.0547  0.1064 -0.7875
  901MOL0     C21525  10.610   3.910  -0.379 -0.0948 -0.0838 -0.3387
  901MOL0     C21526  10.509   3.915  -0.278  0.9159  1.8673  0.6425
  901MOL0     C21527  10.371   3.900  -0.310  0.2163 -0.0256  0.5266
  901MOL0     C21528  10.332   3.884  -0.446  0.3039  0.1430 -0.6806
  901MOL0     C21529  10.190   3.894  -0.495 -0.1692 -0.9653 -0.1965
  901MOL0     O21530  10.166   3.854  -0.621 -0.3334  0.0741 -0.3983
  901MOL0     C21531  10.035   3.848  -0.654  0.3390  0.0815 -0.5437
  901MOL0     C21532   9.956   3.751  -0.595 -1.4599  0.2073  0.4152
  901MOL0     C21533   9.817   3.763  -0.616 -0.3917  0.0007  0.1059
  901MOL0     C21534   9.763   3.877  -0.671  0.0441 -0.1669 -0.0245
  901MOL0     O21535   9.630   3.901  -0.684  0.6138  1.0233 -0.5043
  901MOL0     C21536   9.547   3.783  -0.692  0.4592 -0.5348  0.0653
  901MOL0     C21537   9.423   3.818  -0.768 -0.3727 -0.0553  0.0506
  901MOL0     C21538   9.306   3.720  -0.754 -0.5370  0.1013 -0.3580
  901MOL0     C21539   9.175   3.795  -0.794 -0.8159 -0.2177  0.0063
  901MOL0     C21540   9.076   3.690  -0.837  1.1408  0.2466  0.5759
  901MOL0     C21541   9.044   3.583  -0.731 -0.4169 -0.4220 -0.3612
  901MOL0     C21542   8.922   3.487  -0.759 -0.3158 -0.7246  0.2303
  901MOL0     C21543   8.783   3.554  -0.754 -0.2633  0.3479  0.2201
  901MOL0    Cl21544   8.791   3.670  -0.630 -0.5936 -0.4916 -0.4048
  901MOL0     C21545   9.842   3.977  -0.722 -0.2327  0.7767 -0.1149
  901MOL0     C21546   9.981   3.959  -0.722  0.3667  0.3134 -0.3351
  901MOL0     O21547  10.114   3.934  -0.403  0.5929 -0.2239  0.1889
  901MOL0     C21548  10.429   3.880  -0.540  0.2018 -0.3612  0.0924
  901MOL0     C21549  10.572   3.894  -0.509 -0.2312  0.6370 -0.0595
  901MOL0     N21550  11.314   3.909  -0.084 -0.2589 -0.5266 -0.1058
  901MOL0     N21551  11.361   3.883   0.035 -0.1026 -0.1298 -0.4275
  901MOL0     C21552  10.299   3.990   0.462  0.0215 -1.5972 -0.2471
  901MOL0     C21553  10.184   4.026   0.392 -0.7238 -0.9676 -0.8509
  901MOL0     C21554   9.864   3.977   0.064 -0.7689 -0.1025  0.5361
  901MOL0     C21555   9.860   4.000  -0.074  0.1668 -1.3787 -0.0091
  901MOL0     C21556   9.748   3.978  -0.155 -0.1455 -0.4546 -0.2382
  901MOL0     C21557   9.627   3.948  -0.092  0.2436  0.6611  0.0400
  901MOL0     O21558   9.512   3.912  -0.158  1.1797 -0.4355  0.5921
  901MOL0     C21559   9.498   3.901  -0.297  0.2382  0.1808 -0.0462
  901MOL0     C21560   9.365   3.832  -0.327  0.1287 -0.4653 -0.4929
  901MOL0     C21561   9.254   3.912  -0.273  0.3828 -0.2505  0.1173
  901MOL0     C21562   9.110   3.874  -0.321  0.2182  0.3376  1.0656
  901MOL0     C21563   9.017   3.971  -0.258 -0.6207  0.6175  0.5745
  901MOL0     C21564   8.950   4.067  -0.225 -0.0593  0.2616  0.5666
  901MOL0     C21565   9.625   3.945   0.045 -0.7482  0.1342 -0.0355
  901MOL0     C21566   9.741   3.958   0.123  0.3402 -0.5484  0.7781
  901MOL0     C21567   9.715   3.972   0.273  0.4790  0.2796  0.4382
  901MOL0     H21568  10.092   3.719   0.295 -2.0167  1.5461  1.0128
  901MOL0     H21569  10.290   3.655   0.409  0.2836 -0.2832  0.6772
  901MOL0     H21570  10.557   3.985   0.434  2.3474  0.6626  0.4859
  901MOL0     H21571  10.642   3.918   0.572  0.1249  2.8026 -0.6568
  901MOL0     H21572  10.612   3.798   0.292  1.3352  0.5568 -2.6221
  901MOL0     H21573  10.679   3.713   0.437  1.2279  0.2161 -0.1930
  901MOL0     H21574  10.803   3.943   0.284  0.0795 -0.3781 -0.0804
  901MOL0     H21575  10.853   3.779   0.303  1.4256 -0.7188  1.3198
  901MOL0     H21576  10.850   3.992   0.532 -0.2672 -0.3806 -0.4448
  901MOL0     H21577  10.909   3.826   0.558 -0.2870 -1.0117 -1.9687
  901MOL0     H21578  11.040   4.047   0.395 -0.7924 -1.0933 -0.3136
  901MOL0     H21579  11.112   3.958   0.530  1.2686 -0.3110 -0.0342
  901MOL0     H21580  11.075   3.739   0.401  0.1896 -1.0652 -1.2605
  901MOL0     H21581  11.060   3.840   0.260 -0.2918  1.1331  0.6831
  901MOL0     H21582  11.276   3.758   0.272 -1.7914  0.2193 -0.6307
  901MOL0     H21583  11.310   3.824   0.435 -0.1395  3.6497  0.3521
  901MOL0     H21584  11.267   4.056   0.301 -1.5249 -2.0975  0.3814
  901MOL0     H21585  11.421   3.975   0.290 -0.1301 -0.0022  0.3434
  901MOL0     H21586  11.099   4.064   0.100  1.6364 -0.1603  4.0665
  901MOL0     H21587  11.076   4.142  -0.148  2.6793  2.3959 -0.1263
  901MOL0     H21588  11.194   4.064  -0.267 -1.3137 -1.2587 -0.5223
  901MOL0     H21589  11.065   3.858  -0.257 -1.9165 -1.2874  0.8329
  901MOL0     H21590  10.947   3.950  -0.154 -0.4428 -0.5559 -0.0058
  901MOL0     H21591  11.041   3.995  -0.432 -3.2365  0.8003 -2.5511
  901MOL0     H21592  10.947   4.115  -0.351 -0.3983 -0.3412  2.2343
  901MOL0     H21593  10.879   3.819  -0.420 -3.2905 -0.8464 -0.6052
  901MOL0     H21594  10.832   3.963  -0.510  2.2470 -2.2069 -1.8524
  901MOL0     H21595  10.545   3.935  -0.177  0.7446 -1.0670  1.3564
  901MOL0     H21596  10.314   3.900  -0.217  1.9223  0.4456  1.6277
  901MOL0     H21597  10.003   3.671  -0.539  0.8261  2.2008  1.4788
  901MOL0     H21598   9.749   3.685  -0.585  1.2492 -1.5816 -0.1494
  901MOL0     H21599   9.601   3.710  -0.753  2.8970  2.2365 -1.4024
  901MOL0     H21600   9.533   3.749  -0.589  2.0257  1.7314  1.1300
  901MOL0     H21601   9.394   3.915  -0.724  1.1162  0.0618  0.8299
  901MOL0     H21602   9.444   3.826  -0.875  0.1155  1.4850  0.2278
  901MOL0     H21603   9.325   3.627  -0.808 -1.3544 -0.1473 -0.2262
  901MOL0     H21604   9.288   3.696  -0.649 -1.6678  0.5971 -0.4233
  901MOL0     H21605   9.196   3.863  -0.878 -1.0944 -1.7141 -1.3170
  901MOL0     H21606   9.143   3.849  -0.704 -1.0231 -1.6603  0.8232
  901MOL0     H21607   9.101   3.628  -0.924 -1.0418  0.0257  0.0372
  901MOL0     H21608   8.978   3.731  -0.864  0.1822 -0.3362  2.9897
  901MOL0     H21609   9.133   3.519  -0.732 -1.7271 -2.3837 -2.9482
  901MOL0     H21610   9.043   3.626  -0.631  0.0140 -1.4809  0.1215
  901MOL0     H21611   8.934   3.414  -0.678  0.6385  0.1417  0.9042
  901MOL0     H21612   8.932   3.434  -0.854 -1.2155 -0.4937  0.0033
  901MOL0     H21613   8.778   3.611  -0.847  3.3238  0.1530 -0.2173
  901MOL0     H21614   8.702   3.480  -0.750 -1.4482  1.3228 -2.9341
  901MOL0     H21615   9.788   4.048  -0.784 -0.0960 -1.4623 -3.0242
  901MOL0     H21616  10.052   4.031  -0.761  0.5217  1.5343  2.0430
  901MOL0     H21617  10.411   3.883  -0.647  1.7670  1.2321 -0.1758
  901MOL0     H21618  10.634   3.901  -0.598  0.5088  0.4513  0.4399
  901MOL0     H21619  10.344   4.075   0.514 -2.3957 -1.0792  1.1547
  901MOL0     H21620  10.167   4.133   0.391  1.9401 -0.4591 -0.3878
  901MOL0     H21621   9.952   4.009  -0.130  1.1103 -1.4764  1.4629
  901MOL0     H21622   9.766   3.982  -0.262  2.3257  1.5893  0.1549
  901MOL0     H21623   9.582   3.845  -0.341  1.6712  2.7650 -0.8244
  901MOL0     H21624   9.513   4.002  -0.336  1.1546  0.2890  0.5445
  901MOL0     H21625   9.376   3.734  -0.280  0.1142  0.5537  1.7710
  901MOL0     H21626   9.353   3.836  -0.435  1.1460  2.3016 -0.5689
  901MOL0     H21627   9.269   4.015  -0.306 -1.1482 -0.7864 -2.5424
  901MOL0     H21628   9.244   3.893  -0.166 -1.6076 -0.4895 -0.0756
  901MOL0     H21629   9.099   3.873  -0.430  1.1824  0.9815  0.9499
  901MOL0     H21630   9.085   3.775  -0.282  1.9348 -1.0736 -1.0975
  901MOL0     H21631   8.911   4.161  -0.194  1.7215  1.7652 -1.4495
  901MOL0     H21632   9.530   3.925   0.092 -0.4450  1.4724  1.1984
  901MOL0     H21633   9.751   4.061   0.324  2.3882 -0.1834 -0.0198
  901MOL0     H21634   9.609   3.958   0.297  1.1942 -0.6266  3.4985
  901MOL0     H21635   9.765   3.884   0.315 -0.6984 -0.9895 -0.7233
  902MOL0     O21636   0.259   2.670   0.035  0.5647 -0.3510  0.2984
  902MOL0     C21637   0.284   2.551   0.021 -0.2300  0.0859 -0.4957
  902MOL0     O21638   0.405   2.506  -0.015  0.4701  0.0426 -0.0059
  902MOL0     C21639   0.509   2.596  -0.008 -1.5108  0.6958 -0.4003
  902MOL0     C21640   0.577   2.632  -0.122 -0.2259  0.2641 -0.2879
  902MOL0     C21641   0.685   2.726  -0.115 -0.2263 -0.2409  0.3918
  902MOL0     C21642   0.727   2.781   0.004 -0.1641  0.3829  0.2014
  902MOL0     O21643   0.846   2.853   0.011  0.0254  0.6994  0.0204
  902MOL0     C21644   0.868   2.951   0.114  0.5492  0.2973 -0.0166
  902MOL0     C21645   1.001   3.023   0.083  0.3833 -0.1879 -0.3891
  902MOL0     C21646   0.991   3.123  -0.037  0.7397 -0.9866  0.6093
  902MOL0     C21647   1.096   3.228  -0.039 -0.2221 -0.2362  0.2506
  902MOL0     C21648   1.077   3.327  -0.164 -0.5243 -0.1548  0.1174
  902MOL0     C21649   1.177   3.437  -0.177  0.3838 -0.5772 -0.6808
  902MOL0     C21650   1.182   3.531  -0.041 -0.1118  0.0975  0.0903
  902MOL0     C21651   1.270   3.658  -0.050  0.7131  0.2322 -0.2012
  902MOL0     N21652   1.195   3.772  -0.111 -1.0996  0.3574  0.1845
  902MOL0     C21653   1.213   3.816  -0.241 -0.1010 -0.7555 -0.1897
  902MOL0     C21654   1.149   3.937  -0.238 -0.4623  0.2952 -0.9139
  902MOL0     C21655   1.119   4.022  -0.361  0.6967  1.1834  0.0437
  902MOL0     C21656   1.223   4.029  -0.477  0.3587  0.5055  0.4958
  902MOL0     C21657   1.229   4.168  -0.541 -0.6933 -0.5149  0.0891
  902MOL0     C21658   1.330   4.160  -0.664 -0.6627 -0.4648  0.5772
  902MOL0     O21659   1.472   4.144  -0.621  0.6079  0.1234 -0.2363
  902MOL0     C21660   1.551   4.074  -0.711 -0.6299  0.9378  0.5378
  902MOL0     C21661   1.514   4.001  -0.825 -1.0918  0.1863 -0.1786
  902MOL0     C21662   1.610   3.940  -0.907 -0.6964 -0.1400 -0.2075
  902MOL0     C21663   1.743   3.953  -0.878 -0.2842 -0.7628 -0.5427
  902MOL0     C21664   1.841   3.905  -0.972  0.0523  0.3296 -0.5789
  902MOL0     O21665   1.971   3.943  -0.942 -0.7159  0.2402 -0.1773
  902MOL0     C21666   2.048   3.945  -1.055  0.7993 -0.5390  0.1128
  902MOL0     C21667   2.090   3.826  -1.119  0.0575 -0.4601 -0.2395
  902MOL0     C21668   2.163   3.833  -1.235 -0.0895  0.8028 -0.0556
  902MOL0     C21669   2.196   3.960  -1.293 -0.1574  0.4371 -0.6024
  902MOL0     O21670   2.254   3.970  -1.416  0.1426 -0.2947 -0.1839
  902MOL0     C21671   2.232   3.867  -1.513  0.1436 -0.2342  0.3564
  902MOL0     C21672   2.283   3.917  -1.649 -0.1693  0.3810  0.9793
  902MOL0     C21673   2.272   3.825  -1.768 -0.5547 -0.6316 -0.4423
  902MOL0     C21674   2.124   3.819  -1.821 -0.5220 -0.3793 -0.3431
  902MOL0     C21675   2.112   3.710  -1.936 -0.1360 -0.6664 -0.4907
  902MOL0     C21676   1.974   3.726  -2.001 -0.7235 -0.2013  0.4777
  902MOL0     C21677   1.862   3.694  -1.906  0.3234 -0.2417  0.8233
  902MOL0     C21678   1.729   3.674  -1.982  0.5045  0.0050 -0.4288
  902MOL0    Cl21679   1.606   3.641  -1.869  0.0835  0.3595  0.5045
  902MOL0     C21680   2.160   4.079  -1.224  0.0068 -0.2812  0.2085
  902MOL0     C21681   2.090   4.073  -1.105  0.5419  0.4912  0.1208
  902MOL0     O21682   1.807   3.840  -1.073  0.7034 -0.4952 -0.7259
  902MOL0     C21683   1.781   4.011  -0.755 -0.5530 -0.5370 -0.1433
  902MOL0     C21684   1.683   4.066  -0.670  0.3671 -0.2401 -0.2165
  902MOL0     N21685   1.109   3.966  -0.106 -0.5771  0.0266  0.2234
  902MOL0     N21686   1.148   3.866  -0.035  0.4914 -1.2666 -0.0884
  902MOL0     C21687   0.656   2.743   0.121  0.5855  0.3868 -0.0932
  902MOL0     C21688   0.550   2.654   0.116 -0.2420  0.1043  0.3298
  902MOL0     C21689   0.175   2.454   0.038 -0.1995  0.4394  0.2711
  902MOL0     C21690   0.198   2.317   0.023 -1.0636 -0.2667 -0.6785
  902MOL0     C21691   0.099   2.218   0.027 -1.2523  0.0856  1.0544
  902MOL0     C21692  -0.027   2.257   0.061  0.4406  0.0389 -0.5321
  902MOL0     O21693  -0.124   2.162   0.066  0.8190  0.0290 -0.4252
  902MOL0     C21694  -0.267   2.184   0.073 -0.2929 -0.6980  0.0897
  902MOL0     C21695  -0.342   2.062   0.093  0.3536 -0.4413  0.6362
  902MOL0     C21696  -0.493   2.087   0.056  0.0425 -0.7330 -0.1095
  902MOL0     C21697  -0.562   2.176   0.165 -0.5428 -0.2030 -1.2322
  902MOL0     C21698  -0.701   2.181   0.121 -0.2890  0.2404 -1.3481
  902MOL0     C21699  -0.815   2.191   0.082  1.0057 -0.3564  0.6870
  902MOL0     C21700  -0.055   2.390   0.099  0.3874  0.5789 -0.5032
  902MOL0     C21701   0.048   2.484   0.090  1.1593 -0.1716  0.0667
  902MOL0     C21702  -0.008   2.620   0.121 -0.3408 -0.2137  0.0989
  902MOL0     H21703   0.538   2.577  -0.208  0.2039 -0.0496 -0.2865
  902MOL0     H21704   0.742   2.746  -0.205 -4.4948  0.7473 -2.3734
  902MOL0     H21705   0.780   3.013   0.129  1.5775  2.3224 -1.7485
  902MOL0     H21706   0.882   2.894   0.206 -2.5148  0.2457  0.5007
  902MOL0     H21707   1.079   2.950   0.064  0.1753 -0.1799 -1.2877
  902MOL0     H21708   1.018   3.087   0.171 -0.8036  0.2487 -0.4506
  902MOL0     H21709   0.892   3.166  -0.023 -0.1813 -2.6959 -0.2859
  902MOL0     H21710   0.998   3.071  -0.133  0.0848  2.0665 -1.2216
  902MOL0     H21711   1.105   3.277   0.059  0.5295 -3.4188  1.9152
  902MOL0     H21712   1.191   3.176  -0.054  0.2549 -0.0396  2.2397
  902MOL0     H21713   1.079   3.263  -0.252 -1.6638 -1.3843  0.9494
  902MOL0     H21714   0.978   3.371  -0.151 -0.0298  0.4759  2.1481
  902MOL0     H21715   1.282   3.406  -0.185  1.0060  1.4001 -0.6581
  902MOL0     H21716   1.144   3.502  -0.259 -1.2633 -1.7860 -1.0297
  902MOL0     H21717   1.219   3.471   0.043 -1.0076  2.2664  2.1515
  902MOL0     H21718   1.082   3.568  -0.019  0.6842  0.5420  3.5585
  902MOL0     H21719   1.298   3.700   0.047 -1.5057  2.1528 -0.3070
  902MOL0     H21720   1.356   3.632  -0.113 -1.4361 -2.6125 -2.2623
  902MOL0     H21721   1.264   3.776  -0.328 -0.6007 -0.6936 -0.5162
  902MOL0     H21722   1.024   3.998  -0.410  1.4714  3.3356 -2.7584
  902MOL0     H21723   1.111   4.127  -0.330 -0.3640  0.7621  1.3198
  902MOL0     H21724   1.321   4.015  -0.430  0.5415  0.8360  0.2217
  902MOL0     H21725   1.198   3.947  -0.544  0.0149 -0.7551  2.1025
  902MOL0     H21726   1.265   4.236  -0.463  0.1326  0.5117 -1.1434
  902MOL0     H21727   1.132   4.205  -0.576 -0.5071  1.1895  1.2682
  902MOL0     H21728   1.318   4.253  -0.720 -2.6971 -1.9539 -1.6527
  902MOL0     H21729   1.302   4.069  -0.717 -2.9730 -0.5529  1.8213
  902MOL0     H21730   1.411   3.980  -0.852 -0.6212 -0.0525 -1.9271
  902MOL0     H21731   1.575   3.877  -0.989 -2.8479 -0.7281  1.1023
  902MOL0     H21732   2.070   3.732  -1.070  0.0451  0.3404  1.3476
  902MOL0     H21733   2.200   3.744  -1.285 -0.9235  0.6354 -0.3993
  902MOL0     H21734   2.295   3.782  -1.483 -0.6483 -1.6012 -1.6359
  902MOL0     H21735   2.128   3.835  -1.508  0.4204 -1.2361 -0.0258
  902MOL0     H21736   2.234   4.012  -1.674 -1.9570 -0.9727 -0.9702
  902MOL0     H21737   2.387   3.950  -1.641  0.4408 -1.7231  3.0102
  902MOL0     H21738   2.347   3.849  -1.843  0.8599 -1.3822  0.6643
  902MOL0     H21739   2.294   3.728  -1.720 -0.9542  0.4885  2.1861
  902MOL0     H21740   2.099   3.917  -1.864 -0.3842 -0.3713 -0.4063
  902MOL0     H21741   2.056   3.798  -1.738 -0.1708 -0.0674  0.0309
  902MOL0     H21742   2.132   3.609  -1.899 -2.5573 -1.9413 -2.3541
  902MOL0     H21743   2.190   3.730  -2.010 -0.1286 -0.6727 -0.4845
  902MOL0     H21744   1.962   3.819  -2.056  4.0267 -0.1755 -0.8806
  902MOL0     H21745   1.978   3.644  -2.073 -0.6017 -0.9781  1.3354
  902MOL0     H21746   1.849   3.777  -1.836  1.2876  0.5042  0.1332
  902MOL0     H21747   1.884   3.604  -1.848 -1.2097 -1.4949 -0.4325
  902MOL0     H21748   1.707   3.772  -2.027  0.9604  0.0265 -0.6133
  902MOL0     H21749   1.728   3.595  -2.057 -1.4910 -0.2042 -0.2439
  902MOL0     H21750   2.169   4.171  -1.281 -0.6657 -0.8044 -0.7817
  902MOL0     H21751   2.064   4.157  -1.041 -2.0491 -0.6699  0.7305
  902MOL0     H21752   1.881   4.005  -0.714 -1.1000 -2.5145  1.0446
  902MOL0     H21753   1.719   4.121  -0.583 -0.4491 -1.8098  1.1760
  902MOL0     H21754   0.688   2.789   0.213 -0.2874  1.3275 -0.2477
  902MOL0     H21755   0.484   2.625   0.197 -3.9475 -1.3692 -2.8909
  902MOL0     H21756   0.296   2.279  -0.005  0.0230  1.9780 -0.1391
  902MOL0     H21757   0.119   2.113   0.009  0.5290  0.7025 -0.9936
  902MOL0     H21758  -0.303   2.224  -0.022  1.0418 -0.1873 -0.2285
  902MOL0     H21759  -0.290   2.256   0.153 -0.4565 -0.0329 -0.5443
  902MOL0     H21760  -0.326   2.028   0.196 -0.2888  2.3594  1.7403
  902MOL0     H21761  -0.307   1.984   0.025  1.4323  0.9108 -0.4110
  902MOL0     H21762  -0.546   1.992   0.052  1.0718 -1.2756 -1.7629
  902MOL0     H21763  -0.502   2.130  -0.044  0.7144 -3.5436 -1.4668
  902MOL0     H21764  -0.550   2.144   0.269 -1.0980  2.1353 -0.3879
  902MOL0     H21765  -0.515   2.274   0.150  1.5597 -1.4150 -3.1995
  902MOL0     H21766  -0.912   2.204   0.039  1.1820 -1.6877 -0.1366
  902MOL0     H21767  -0.158   2.411   0.127 -0.4847 -0.7393 -2.4566
  902MOL0     H21768  -0.028   2.671   0.026 -0.0282 -0.9130 -0.3532
  902MOL0     H21769  -0.099   2.616   0.181  0.6180 -1.3873  1.5319
  902MOL0     H21770   0.066   2.677   0.178  0.6438 -1.6706  0.3428
  903MOL0     O21771   8.506   0.690   7.568  0.0331  0.6329 -0.2990
  903MOL0     C21772   8.402   0.670   7.633  1.5315  0.0036 -0.4718
  903MOL0     O21773   8.395   0.662   7.762  0.0052 -0.0721  0.3584
  903MOL0     C21774   8.510   0.670   7.853  0.1600 -0.5561  0.9125
  903MOL0     C21775   8.647   0.710   7.825 -0.0760  0.5481 -0.0528
  903MOL0     C21776   8.736   0.728   7.924  0.0046  0.2141 -0.1924
  903MOL0     C21777   8.689   0.720   8.056  0.4288 -0.3351  0.2369
  903MOL0     O21778   8.779   0.751   8.149 -0.1564  0.1302  0.6697
  903MOL0     C21779   8.760   0.726   8.291 -0.1698  0.6661  0.6486
  903MOL0     C21780   8.877   0.756   8.381  0.2079 -1.7378  0.0210
  903MOL0     C21781   8.950   0.883   8.338  0.3289  0.5340  0.7062
  903MOL0     C21782   9.046   0.929   8.449  0.2908  0.2917  0.0266
  903MOL0     C21783   9.160   0.818   8.468  0.3728 -0.1125 -0.3711
  903MOL0     C21784   9.224   0.834   8.606 -0.5030  0.0983  0.4113
  903MOL0     C21785   9.333   0.734   8.630 -0.1276 -0.2415 -0.0862
  903MOL0     C21786   9.463   0.766   8.554  0.1349  0.3609  0.6500
  903MOL0     N21787   9.577   0.673   8.583  0.1176  0.5631  0.0776
  903MOL0     C21788   9.707   0.712   8.600 -0.0948 -0.4355  0.0563
  903MOL0     C21789   9.773   0.603   8.637  0.4903 -0.1357  0.6672
  903MOL0     C21790   9.922   0.588   8.643  0.5289  0.5991  0.2596
  903MOL0     C21791   9.990   0.553   8.507 -0.3352 -0.2016 -0.2313
  903MOL0     C21792   9.949   0.415   8.459 -0.4635 -0.8192  0.1248
  903MOL0     C21793  10.007   0.388   8.317  0.0344  0.3876 -0.7523
  903MOL0     O21794  10.124   0.305   8.329  0.0092  0.0843  0.4833
  903MOL0     C21795  10.172   0.239   8.220  0.0681 -0.0537 -0.2805
  903MOL0     C21796  10.248   0.120   8.247 -0.1505 -0.5364 -0.4700
  903MOL0     C21797  10.316   0.061   8.136 -0.1577 -0.3272  0.4418
  903MOL0     C21798  10.294   0.107   7.997  0.2537  0.6598 -0.2736
  903MOL0     C21799  10.346   0.029   7.872  0.3718  0.9767 -0.5194
  903MOL0     O21800  10.381  -0.103   7.896 -0.7004  0.5968 -0.0522
  903MOL0     C21801  10.403  -0.193   7.791 -0.3553  0.0166  1.0640
  903MOL0     C21802  10.300  -0.243   7.712 -0.0064 -0.3701  1.1494
  903MOL0     C21803  10.324  -0.333   7.599 -1.1031  0.1471 -0.3169
  903MOL0     C21804  10.461  -0.360   7.566  0.7936 -0.1604  0.2632
  903MOL0     O21805  10.488  -0.438   7.458  0.5779  0.4555  0.6061
  903MOL0     C21806  10.403  -0.427   7.339 -1.1655  0.3555 -0.3421
  903MOL0     C21807  10.379  -0.288   7.281  1.3255 -0.7742  0.2725
  903MOL0     C21808  10.306  -0.307   7.150 -0.4071  0.4545  0.4942
  903MOL0     C21809  10.281  -0.177   7.078 -0.2603 -0.3884  0.6154
  903MOL0     C21810  10.209  -0.205   6.951  0.4639  0.7707  1.1831
  903MOL0     C21811  10.179  -0.080   6.869 -0.7907  0.0313  0.0209
  903MOL0     C21812  10.103  -0.116   6.741 -0.2739  0.8283 -0.3878
  903MOL0     C21813  10.099  -0.002   6.642 -0.1184  0.1657  0.3851
  903MOL0    Cl21814  10.256   0.043   6.578 -0.3113  0.1775  0.1357
  903MOL0     C21815  10.566  -0.322   7.649 -0.2783 -0.0894 -1.1005
  903MOL0     C21816  10.533  -0.238   7.757 -0.2411  0.6141 -1.1108
  903MOL0     O21817  10.341   0.083   7.763  0.0183  0.6653 -0.0925
  903MOL0     C21818  10.211   0.219   7.976 -0.3993  0.5070 -0.3291
  903MOL0     C21819  10.156   0.281   8.082  0.5406 -0.2311  0.0795
  903MOL0     N21820   9.683   0.502   8.656  0.5053 -0.6717  0.4277
  903MOL0     N21821   9.573   0.541   8.607 -0.1187  0.1459  0.1877
  903MOL0     C21822   8.560   0.687   8.078 -0.1633  0.5591 -0.3786
  903MOL0     C21823   8.464   0.661   7.982 -0.3441  0.1113  0.0440
  903MOL0     C21824   8.277   0.658   7.548  0.0138 -0.6178  0.1845
  903MOL0     C21825   8.293   0.654   7.403 -0.1769 -0.5240 -0.0544
  903MOL0     C21826   8.172   0.668   7.323  0.2695  0.2208 -0.0841
  903MOL0     C21827   8.043   0.677   7.366 -0.2494 -0.8592  0.3197
  903MOL0     O21828   7.929   0.708   7.288 -0.4623 -0.1864 -0.4372
  903MOL0     C21829   7.817   0.628   7.302  0.1454  0.4159 -0.0073
  903MOL0     C21830   7.835   0.491   7.225  0.1878 -0.1749 -0.0030
  903MOL0     C21831   7.875   0.508   7.081  0.1389  0.3492  0.5466
  903MOL0     C21832   7.883   0.363   7.016  0.6248  0.8950 -1.1285
  903MOL0     C21833   8.005   0.294   7.040 -0.5436  0.7452  0.0955
  903MOL0     C21834   8.103   0.220   7.062  0.7116 -0.0770  0.7589
  903MOL0     C21835   8.034   0.666   7.506 -0.3100  0.1448 -0.4521
  903MOL0     C21836   8.141   0.666   7.592  0.3857  0.8171  1.1113
  903MOL0     C21837   8.107   0.665   7.739 -0.0863  0.2374  0.2561
  903MOL0     H21838   8.688   0.717   7.724  0.5145 -0.1613  0.1313
  903MOL0     H21839   8.833   0.750   7.881  1.2056 -0.1584  2.1787
  903MOL0     H21840   8.672   0.778   8.329 -1.1472 -1.5436  1.5762
  903MOL0     H21841   8.739   0.619   8.298 -0.8533  0.6831 -0.7437
  903MOL0     H21842   8.950   0.676   8.368  1.2328 -0.5799 -1.7042
  903MOL0     H21843   8.843   0.768   8.484  0.7981  3.2861 -0.1379
  903MOL0     H21844   8.874   0.961   8.343  1.1704  1.5221 -0.9067
  903MOL0     H21845   9.011   0.885   8.247  2.8260 -1.4559  2.1903
  903MOL0     H21846   9.087   1.028   8.426  2.5045 -0.0908  1.9669
  903MOL0     H21847   8.991   0.933   8.543 -3.4010  2.6505 -1.9617
  903MOL0     H21848   9.127   0.713   8.475  1.2056 -0.4528 -1.2808
  903MOL0     H21849   9.238   0.829   8.392  1.4581 -0.0829  0.7204
  903MOL0     H21850   9.260   0.936   8.622  1.6490 -0.3477 -1.2261
  903MOL0     H21851   9.139   0.833   8.676 -2.1834  1.0259 -1.5230
  903MOL0     H21852   9.300   0.634   8.602  1.0622 -0.5369 -0.5228
  903MOL0     H21853   9.360   0.730   8.736  0.3601  0.1941 -0.1876
  903MOL0     H21854   9.438   0.760   8.448  3.1876  1.7610 -0.2630
  903MOL0     H21855   9.482   0.867   8.592  1.0580 -0.3532  2.2024
  903MOL0     H21856   9.741   0.810   8.570 -0.0937 -0.3935  0.1927
  903MOL0     H21857   9.966   0.682   8.677 -0.4261  1.1207  0.0870
  903MOL0     H21858   9.940   0.500   8.705  1.7427 -1.1550 -2.3748
  903MOL0     H21859   9.959   0.627   8.432 -0.4276 -1.4475 -1.4683
  903MOL0     H21860  10.098   0.553   8.520 -0.5428 -0.8957  1.9369
  903MOL0     H21861   9.841   0.403   8.456 -0.3455 -1.8462 -2.7328
  903MOL0     H21862   9.982   0.336   8.527  0.1492  1.4139  2.6084
  903MOL0     H21863  10.035   0.486   8.279 -2.1392  1.3170 -0.1483
  903MOL0     H21864   9.932   0.334   8.258 -1.3963 -0.1440  1.4087
  903MOL0     H21865  10.270   0.085   8.347 -0.1444 -2.1290 -1.0053
  903MOL0     H21866  10.371  -0.032   8.145  1.0967  0.4288  0.7559
  903MOL0     H21867  10.197  -0.225   7.741 -0.2766 -0.8761  0.5213
  903MOL0     H21868  10.245  -0.387   7.547  0.9660 -2.7425 -0.7327
  903MOL0     H21869  10.463  -0.488   7.271 -1.1872 -0.0809  0.0224
  903MOL0     H21870  10.309  -0.478   7.360 -1.1907  0.5635  0.0700
  903MOL0     H21871  10.323  -0.222   7.347  0.9110 -0.2900 -0.5505
  903MOL0     H21872  10.475  -0.240   7.261  1.1153 -0.0457  0.9451
  903MOL0     H21873  10.376  -0.370   7.093  0.8443 -3.0478  5.2462
  903MOL0     H21874  10.213  -0.359   7.174  0.6287 -1.3566  0.7393
  903MOL0     H21875  10.376  -0.135   7.045  0.0597 -1.3084  0.3262
  903MOL0     H21876  10.221  -0.105   7.136 -0.2437  0.6457 -0.6116
  903MOL0     H21877  10.112  -0.253   6.962  0.4957 -0.1557 -1.7858
  903MOL0     H21878  10.269  -0.269   6.886  3.6071  2.0806  2.5676
  903MOL0     H21879  10.124  -0.009   6.932 -3.1928 -2.1098  0.5093
  903MOL0     H21880  10.268  -0.023   6.841 -0.4854 -0.0837  0.7182
  903MOL0     H21881   9.997  -0.130   6.764  0.1948 -2.4586  0.2132
  903MOL0     H21882  10.141  -0.203   6.688 -0.7212 -0.0165  0.6316
  903MOL0     H21883  10.039  -0.030   6.555 -0.5464  3.0824 -0.3473
  903MOL0     H21884  10.060   0.090   6.686  2.1275  1.9445 -1.0980
  903MOL0     H21885  10.669  -0.340   7.620 -0.2139  0.5717 -1.2966
  903MOL0     H21886  10.601  -0.194   7.829 -2.7321  2.3000  0.3872
  903MOL0     H21887  10.200   0.262   7.877 -2.3551 -0.9355 -0.7839
  903MOL0     H21888  10.101   0.374   8.066  0.3184 -0.3849 -0.0475
  903MOL0     H21889   8.530   0.693   8.183 -1.3555 -1.4160 -0.5549
  903MOL0     H21890   8.362   0.636   8.008 -0.1104 -3.1618 -1.7608
  903MOL0     H21891   8.394   0.651   7.362  0.0015  1.5113  0.1299
  903MOL0     H21892   8.184   0.679   7.216 -1.1244 -0.5219 -0.3358
  903MOL0     H21893   7.733   0.679   7.254  0.0919  0.1226 -0.2329
  903MOL0     H21894   7.785   0.601   7.403  1.3312 -0.7010  0.1030
  903MOL0     H21895   7.732   0.456   7.218 -1.0749  3.4157 -2.4902
  903MOL0     H21896   7.900   0.416   7.271 -3.7405 -3.5137  0.6919
  903MOL0     H21897   7.974   0.555   7.083 -0.1054  1.1005 -1.9577
  903MOL0     H21898   7.804   0.568   7.024  0.0522  1.0844  1.3968
  903MOL0     H21899   7.802   0.303   7.058  3.2557 -0.9601  1.7443
  903MOL0     H21900   7.881   0.377   6.908  1.2369  2.0313 -1.0043
  903MOL0     H21901   8.188   0.158   7.084  0.2163 -2.0053 -2.1259
  903MOL0     H21902   7.937   0.679   7.554 -0.3454  2.7872 -1.1076
  903MOL0     H21903   8.140   0.577   7.795 -0.1293  0.3406  0.4446
  903MOL0     H21904   8.141   0.757   7.789 -3.4173  0.6079  2.0851
  903MOL0     H21905   8.000   0.673   7.759  0.0177 -0.9918  1.4222
  904MOL0     O21906  10.681  11.003   1.389 -0.3435  0.6718 -0.1940
  904MOL0     C21907  10.642  10.965   1.507  0.0447 -0.5321 -0.1233
  904MOL0     O21908  10.719  10.941   1.614 -0.5748  0.1477 -0.0237
  904MOL0     C21909  10.850  10.942   1.581 -0.6158  1.0791 -0.1341
  904MOL0     C21910  10.905  10.814   1.574 -0.3850  0.0236  0.4660
  904MOL0     C21911  11.049  10.805   1.559  0.4133  0.0107 -0.1985
  904MOL0     C21912  11.128  10.919   1.570 -0.1518  0.1091 -0.3331
  904MOL0     O21913  11.269  10.921   1.563 -0.1681 -0.0493  0.6202
  904MOL0     C21914  11.332  10.836   1.467  0.7538 -0.6662 -0.5764
  904MOL0     C21915  11.466  10.901   1.418  0.2770 -0.4751 -0.4653
  904MOL0     C21916  11.447  11.041   1.358 -0.6060 -0.7286 -0.1164
  904MOL0     C21917  11.588  11.096   1.313  0.1830 -0.1736 -0.0074
  904MOL0     C21918  11.623  11.029   1.180 -0.7984  0.0613  0.5427
  904MOL0     C21919  11.748  11.086   1.116  0.5437  0.6938 -0.8145
  904MOL0     C21920  11.775  11.031   0.969 -1.0116 -0.7468 -1.2609
  904MOL0     C21921  11.784  10.880   0.956 -0.5052  0.1191  0.1453
  904MOL0     N21922  11.813  10.845   0.813 -0.1206  0.6433  0.0165
  904MOL0     C21923  11.937  10.860   0.748 -0.0351 -0.4149 -0.4750
  904MOL0     C21924  11.915  10.863   0.610  0.6389 -0.1029  0.1073
  904MOL0     C21925  12.003  10.884   0.486  0.3672  0.6433  1.0197
  904MOL0     C21926  12.145  10.938   0.522 -0.0731 -0.2269  0.4543
  904MOL0     C21927  12.220  10.998   0.402 -0.2772 -0.0052  0.1136
  904MOL0     C21928  12.370  11.020   0.429 -0.0046  0.2316 -0.1514
  904MOL0     O21929  12.389  11.117   0.535  0.5740 -0.6406  0.1468
  904MOL0     C21930  12.516  11.164   0.566  0.5630  0.7552  0.7305
  904MOL0     C21931  12.635  11.127   0.492 -0.2613  1.0365 -0.3028
  904MOL0     C21932  12.757  11.175   0.529 -0.2459  0.6490 -0.4512
  904MOL0     C21933  12.763  11.262   0.647  0.1697 -0.3431  0.6698
  904MOL0     C21934  12.896  11.324   0.677  0.0051  0.4032  0.6040
  904MOL0     O21935  12.991  11.335   0.583  0.0776 -0.0211 -0.0040
  904MOL0     C21936  13.097  11.416   0.611  0.3079  0.4267 -0.3038
  904MOL0     C21937  13.209  11.364   0.676  0.2072  0.1041  0.3555
  904MOL0     C21938  13.336  11.424   0.676 -0.2395 -0.3992 -0.2715
  904MOL0     C21939  13.342  11.541   0.598  0.6595  0.9363 -0.0177
  904MOL0     O21940  13.451  11.618   0.580 -0.1966 -0.2802  0.2666
  904MOL0     C21941  13.575  11.588   0.646  0.4992 -0.3672  0.2210
  904MOL0     C21942  13.681  11.690   0.605  0.1528  0.2959  0.4350
  904MOL0     C21943  13.814  11.657   0.662 -0.4891 -0.3659  0.1750
  904MOL0     C21944  13.893  11.552   0.584 -1.2194  0.5648  0.1410
  904MOL0     C21945  14.035  11.504   0.635  0.4403 -0.3261 -0.3784
  904MOL0     C21946  14.143  11.614   0.625 -0.7386  0.0033 -0.8726
  904MOL0     C21947  14.285  11.554   0.621 -0.0647 -0.5122 -1.1643
  904MOL0     C21948  14.389  11.627   0.535  0.1682  0.5364  0.3625
  904MOL0    Cl21949  14.409  11.789   0.599 -0.5423 -0.0607 -0.1108
  904MOL0     C21950  13.233  11.595   0.536  0.6278 -0.2823 -0.6395
  904MOL0     C21951  13.108  11.533   0.538 -0.1389 -0.1780 -0.3976
  904MOL0     O21952  12.906  11.366   0.791  0.7519  0.1647  0.1263
  904MOL0     C21953  12.651  11.295   0.731 -0.1075 -0.1959 -0.4200
  904MOL0     C21954  12.531  11.249   0.680 -0.2605  0.4904 -0.7502
  904MOL0     N21955  11.786  10.825   0.603  0.2038 -0.4424 -0.0700
  904MOL0     N21956  11.724  10.825   0.716 -0.7872 -0.3124  0.2255
  904MOL0     C21957  11.075  11.045   1.579  0.6119 -0.3073 -0.4786
  904MOL0     C21958  10.933  11.050   1.580 -0.1493 -0.7352 -0.7628
  904MOL0     C21959  10.497  10.937   1.519  0.0665  0.0717  0.6366
  904MOL0     C21960  10.422  10.905   1.407  0.0920 -0.1710  0.3411
  904MOL0     C21961  10.280  10.886   1.407 -0.3273 -0.6421  0.3261
  904MOL0     C21962  10.209  10.914   1.526 -0.5226  0.8590  0.6669
  904MOL0     O21963  10.072  10.915   1.515 -0.0774  0.7691 -0.1440
  904MOL0     C21964   9.993  10.851   1.622  0.3970 -0.0011  0.3494
  904MOL0     C21965   9.841  10.851   1.594  0.7257  0.3060 -0.0500
  904MOL0     C21966   9.785  10.990   1.644  0.4659 -0.3446  0.6738
  904MOL0     C21967   9.626  11.001   1.663 -0.3869 -0.3367 -0.1802
  904MOL0     C21968   9.546  11.028   1.542 -0.5399 -0.3423  0.7208
  904MOL0     C21969   9.473  11.040   1.442 -0.0184 -0.4552  0.6246
  904MOL0     C21970  10.282  10.941   1.647  0.3758  0.5802  0.7461
  904MOL0     C21971  10.425  10.955   1.642 -0.1704  0.1135  0.5062
  904MOL0     C21972  10.493  11.022   1.761 -1.1381  0.0763 -0.2886
  904MOL0     H21973  10.837  10.730   1.568  0.3733 -0.5159 -1.1083
  904MOL0     H21974  11.105  10.713   1.544  0.6802  0.3431 -1.2927
  904MOL0     H21975  11.344  10.738   1.513 -2.9328 -0.4091  1.3419
  904MOL0     H21976  11.267  10.803   1.385 -0.5185 -1.9920  0.9014
  904MOL0     H21977  11.516  10.838   1.345 -1.5577 -1.5851 -0.8238
  904MOL0     H21978  11.547  10.914   1.491  1.5541 -1.4811 -1.6529
  904MOL0     H21979  11.415  11.113   1.434  1.0694  1.2758 -1.2185
  904MOL0     H21980  11.379  11.050   1.274 -1.9384  0.7426  1.0693
  904MOL0     H21981  11.571  11.203   1.299  1.9696  0.2727  1.0087
  904MOL0     H21982  11.657  11.094   1.397 -1.9534  1.8867  1.9315
  904MOL0     H21983  11.646  10.922   1.172  0.8916  0.5074 -1.8094
  904MOL0     H21984  11.541  11.053   1.112 -0.0690 -0.1574 -0.4489
  904MOL0     H21985  11.745  11.195   1.111  0.3478  0.6551 -1.6382
  904MOL0     H21986  11.838  11.054   1.170  0.7240 -1.3851 -2.1868
  904MOL0     H21987  11.870  11.082   0.950 -2.8077  4.5208  1.7881
  904MOL0     H21988  11.696  11.075   0.907  0.9383  3.3400 -1.1701
  904MOL0     H21989  11.857  10.834   1.023  0.0533 -0.0304 -0.5572
  904MOL0     H21990  11.688  10.838   0.988 -0.2768  0.3043  1.0979
  904MOL0     H21991  12.033  10.872   0.796  0.3972 -0.8413 -1.2161
  904MOL0     H21992  11.986  10.791   0.431  0.2040  0.9136  0.6107
  904MOL0     H21993  11.956  10.959   0.422  2.5038  1.1743 -0.0062
  904MOL0     H21994  12.128  11.014   0.599  1.0674  0.8819 -0.3658
  904MOL0     H21995  12.203  10.855   0.565 -0.3319 -0.1934  0.8802
  904MOL0     H21996  12.172  11.094   0.378  0.3090  0.6535  1.4514
  904MOL0     H21997  12.208  10.929   0.319 -1.3973 -0.3202  0.5209
  904MOL0     H21998  12.411  11.054   0.333 -1.4889  2.2856 -0.1180
  904MOL0     H21999  12.411  10.924   0.462 -0.4506  1.0048  2.9859
  904MOL0     H22000  12.625  11.076   0.397  0.4963  0.2616  0.0216
  904MOL0     H22001  12.843  11.139   0.474 -0.9975  2.3832 -2.9266
  904MOL0     H22002  13.196  11.275   0.737 -0.9283  1.4921  2.2293
  904MOL0     H22003  13.406  11.377   0.744 -1.3957 -0.9791  0.5397
  904MOL0     H22004  13.557  11.592   0.754  0.4604 -0.6175  0.2243
  904MOL0     H22005  13.605  11.487   0.619  2.0272  0.2120 -0.3456
  904MOL0     H22006  13.694  11.711   0.499 -0.9070  0.0599  0.2485
  904MOL0     H22007  13.651  11.785   0.651 -0.7708  0.4447 -0.4401
  904MOL0     H22008  13.875  11.747   0.653 -0.7086 -0.4124 -2.4773
  904MOL0     H22009  13.811  11.627   0.767 -1.2426 -0.5883  0.1002
  904MOL0     H22010  13.902  11.581   0.479  0.4764 -1.1338 -0.2323
  904MOL0     H22011  13.829  11.463   0.578 -0.1576 -0.1416 -1.2967
  904MOL0     H22012  14.062  11.423   0.567  2.4522 -0.6222  0.6856
  904MOL0     H22013  14.010  11.461   0.733 -2.9193  4.2075  1.1018
  904MOL0     H22014  14.138  11.671   0.531  0.9908 -0.6567 -1.4153
  904MOL0     H22015  14.122  11.676   0.713 -0.3682 -1.2639  0.1350
  904MOL0     H22016  14.277  11.447   0.603 -1.1485 -0.8164  0.8494
  904MOL0     H22017  14.324  11.561   0.723  2.6247 -0.6731 -2.1006
  904MOL0     H22018  14.486  11.579   0.518  0.5891  2.1870 -2.4663
  904MOL0     H22019  14.350  11.633   0.433 -1.3715 -0.8740  0.8283
  904MOL0     H22020  13.253  11.686   0.480 -0.0109  2.6635  3.4714
  904MOL0     H22021  13.027  11.571   0.475 -0.6166  2.0977  1.4467
  904MOL0     H22022  12.663  11.349   0.825 -2.3167 -2.6864  1.4738
  904MOL0     H22023  12.446  11.282   0.738 -0.3375 -0.2370 -0.4348
  904MOL0     H22024  11.134  11.134   1.560 -1.2227  0.4448 -3.2294
  904MOL0     H22025  10.898  11.151   1.599  2.6093  0.9621 -3.6513
  904MOL0     H22026  10.466  10.881   1.311 -0.8601 -2.7415  0.4781
  904MOL0     H22027  10.215  10.858   1.326 -1.4410  1.7113  0.3376
  904MOL0     H22028  10.009  10.901   1.718  0.7049 -0.8193  0.7289
  904MOL0     H22029  10.027  10.747   1.619 -0.7147 -0.3642 -0.1339
  904MOL0     H22030   9.792  10.770   1.648 -0.6983 -0.5639 -2.5030
  904MOL0     H22031   9.826  10.839   1.486  1.6170 -0.9829 -0.0619
  904MOL0     H22032   9.831  11.066   1.580  0.3982 -1.1673 -0.3765
  904MOL0     H22033   9.830  11.012   1.741 -1.5639  1.1988  1.3586
  904MOL0     H22034   9.577  10.919   1.716 -2.4121  0.7564 -0.2827
  904MOL0     H22035   9.614  11.086   1.730 -1.5161 -0.7730  0.1983
  904MOL0     H22036   9.401  11.060   1.365  1.2967  0.6164 -0.3886
  904MOL0     H22037  10.235  10.963   1.743  2.3007  0.1547  1.8419
  904MOL0     H22038  10.424  11.072   1.829 -0.5428 -1.1240  1.2830
  904MOL0     H22039  10.550  10.943   1.812 -1.7590 -0.1581  0.0487
  904MOL0     H22040  10.565  11.097   1.726 -0.0422  0.7732  3.0414
  905MOL0     O22041   6.376  10.772   3.888 -0.5160 -0.5191 -0.0456
  905MOL0     C22042   6.355  10.710   3.996 -0.0992  0.1536  0.3209
  905MOL0     O22043   6.445  10.645   4.068 -0.9525  0.1251 -0.7404
  905MOL0     C22044   6.574  10.675   4.044  0.2728  1.1450 -0.5230
  905MOL0     C22045   6.655  10.570   3.999  0.4811  0.4417 -0.2388
  905MOL0     C22046   6.787  10.603   3.967 -0.1305  0.4859 -0.8294
  905MOL0     C22047   6.844  10.725   4.006 -0.1717  0.0864  0.1354
  905MOL0     O22048   6.981  10.745   3.995 -0.0208 -0.0734  0.0412
  905MOL0     C22049   7.047  10.783   4.110  0.0455 -0.8850  0.0311
  905MOL0     C22050   7.169  10.692   4.129 -0.3308 -0.5696  0.2225
  905MOL0     C22051   7.252  10.757   4.243  0.6041 -0.2486  0.4443
  905MOL0     C22052   7.364  10.857   4.207  0.2309 -0.1562 -0.4430
  905MOL0     C22053   7.442  10.912   4.329  0.0024 -0.4983  0.5945
  905MOL0     C22054   7.531  11.025   4.274  0.6472  0.6658 -0.0877
  905MOL0     C22055   7.616  11.087   4.385  0.2630  0.3359 -0.0517
  905MOL0     C22056   7.677  11.226   4.337 -0.3148  0.6934  0.4982
  905MOL0     N22057   7.792  11.228   4.252 -0.4185  0.5993 -0.2670
  905MOL0     C22058   7.900  11.150   4.279  0.7875  0.2944 -0.7887
  905MOL0     C22059   7.962  11.146   4.161  0.1347  0.4464  0.4420
  905MOL0     C22060   8.072  11.048   4.113  0.3976  0.3547 -1.5143
  905MOL0     C22061   8.209  11.101   4.146  0.0167  0.0900 -0.1693
  905MOL0     C22062   8.249  11.070   4.287  0.9501  0.0632 -0.2329
  905MOL0     C22063   8.395  11.084   4.301 -0.8102 -0.3033  0.2221
  905MOL0     O22064   8.475  10.975   4.253 -0.1634  0.4205  0.4173
  905MOL0     C22065   8.608  10.964   4.283 -0.3093  0.0351  0.2309
  905MOL0     C22066   8.670  10.850   4.229 -0.0970  0.2157  0.0486
  905MOL0     C22067   8.809  10.832   4.226 -0.5485 -0.0262 -0.0995
  905MOL0     C22068   8.892  10.936   4.280 -0.4568  0.4520  0.6369
  905MOL0     C22069   9.041  10.925   4.274  0.3273  0.0675 -0.2672
  905MOL0     O22070   9.111  11.021   4.325 -0.2727  0.0274 -1.2335
  905MOL0     C22071   9.246  11.035   4.299  0.4624  0.2607 -0.6452
  905MOL0     C22072   9.332  10.976   4.207 -0.8150  0.5566  0.2212
  905MOL0     C22073   9.468  11.011   4.207  0.2274  1.2465  0.4052
  905MOL0     C22074   9.523  11.113   4.284  0.3474  0.3283  0.1228
  905MOL0     O22075   9.660  11.131   4.286  0.2831  0.3683 -0.2676
  905MOL0     C22076   9.710  11.264   4.309  0.4476  0.6222  0.1096
  905MOL0     C22077   9.862  11.267   4.298 -0.6400 -0.5847 -0.3369
  905MOL0     C22078   9.922  11.399   4.351 -0.3947  0.5963  0.7578
  905MOL0     C22079  10.069  11.418   4.311  0.4810  0.1082  0.2236
  905MOL0     C22080  10.121  11.548   4.350  0.7102 -0.4179 -0.0549
  905MOL0     C22081  10.245  11.594   4.285 -0.7006  0.2976  0.4276
  905MOL0     C22082  10.271  11.727   4.337 -0.8086 -0.2393 -0.5518
  905MOL0     C22083  10.390  11.785   4.271  0.8765  0.5610 -0.5713
  905MOL0    Cl22084  10.344  11.813   4.079  0.2036 -0.1507 -0.0684
  905MOL0     C22085   9.426  11.175   4.369  0.3682  0.2103 -0.4184
  905MOL0     C22086   9.290  11.138   4.380  0.9612  0.5467  0.7594
  905MOL0     O22087   9.086  10.823   4.216  0.1631 -0.8701 -0.0594
  905MOL0     C22088   8.827  11.049   4.343 -0.2165 -0.1226  1.1971
  905MOL0     C22089   8.690  11.063   4.334 -0.8627  0.1856  0.1292
  905MOL0     N22090   7.891  11.220   4.063  0.2780 -0.0506 -0.4304
  905MOL0     N22091   7.783  11.269   4.123 -1.0975  0.1488 -0.5095
  905MOL0     C22092   6.765  10.823   4.055  0.3854 -0.6924 -0.5404
  905MOL0     C22093   6.633  10.797   4.072  0.3467  0.8365  0.0161
  905MOL0     C22094   6.218  10.685   4.036 -0.2600 -0.5778  0.2972
  905MOL0     C22095   6.129  10.645   3.930  0.2403  0.1390  0.3681
  905MOL0     C22096   5.995  10.632   3.952  0.4307  0.0185 -0.2819
  905MOL0     C22097   5.953  10.663   4.075 -0.6653  0.1044  0.0276
  905MOL0     O22098   5.821  10.648   4.099 -0.6180 -0.4279 -0.1997
  905MOL0     C22099   5.746  10.772   4.097  0.2902 -1.2651  0.2794
  905MOL0     C22100   5.651  10.768   3.980 -0.0975  0.1207  0.2280
  905MOL0     C22101   5.569  10.631   3.970  0.0175  0.4832  0.0397
  905MOL0     C22102   5.447  10.647   3.888 -0.3023 -0.2908  0.3845
  905MOL0     C22103   5.337  10.723   3.952 -0.3273  0.1356 -1.2010
  905MOL0     C22104   5.266  10.803   4.007 -0.3604 -0.2385 -0.2321
  905MOL0     C22105   6.037  10.697   4.182  1.0123  0.6187 -0.1738
  905MOL0     C22106   6.169  10.712   4.165  0.7102 -0.7288 -0.0150
  905MOL0     C22107   6.258  10.757   4.278 -0.0763 -0.1947 -0.2151
  905MOL0     H22108   6.628  10.468   3.973  5.8294 -1.2531 -0.3123
  905MOL0     H22109   6.850  10.526   3.923 -1.0714  0.6792 -2.5494
  905MOL0     H22110   7.080  10.887   4.103 -1.0789 -0.5561 -0.6579
  905MOL0     H22111   6.990  10.772   4.203  3.0516  0.1998  2.1598
  905MOL0     H22112   7.222  10.683   4.034  2.2459  2.2446  1.2276
  905MOL0     H22113   7.141  10.589   4.153  0.6078 -1.0447 -0.6756
  905MOL0     H22114   7.299  10.669   4.287  2.4549  0.5380  0.1250
  905MOL0     H22115   7.188  10.802   4.319 -1.0738 -0.7432 -0.6262
  905MOL0     H22116   7.432  10.790   4.153 -3.3318 -1.6727 -3.5257
  905MOL0     H22117   7.328  10.937   4.141  0.2036  0.3092  0.1275
  905MOL0     H22118   7.378  10.942   4.412 -0.5445 -0.5720  0.2031
  905MOL0     H22119   7.518  10.840   4.362  2.7121  1.2282 -1.3908
  905MOL0     H22120   7.599  10.986   4.197  0.9986 -1.7111  1.3578
  905MOL0     H22121   7.460  11.103   4.245  3.3436  2.9451 -1.0710
  905MOL0     H22122   7.684  11.015   4.432 -1.5220 -0.1094  2.0011
  905MOL0     H22123   7.549  11.118   4.466 -2.1456  1.0565 -2.1742
  905MOL0     H22124   7.603  11.276   4.275 -0.5842  1.7767  1.6377
  905MOL0     H22125   7.683  11.293   4.424 -1.5776  1.0155  0.3523
  905MOL0     H22126   7.924  11.102   4.374 -0.8154 -1.6174 -1.2913
  905MOL0     H22127   8.054  10.960   4.175  0.7837  0.1603 -1.6787
  905MOL0     H22128   8.055  11.025   4.008  1.2229  1.6161 -1.9544
  905MOL0     H22129   8.274  11.066   4.065  0.2109  2.0762 -0.9295
  905MOL0     H22130   8.213  11.210   4.152 -0.8479  0.0932  0.6708
  905MOL0     H22131   8.221  10.969   4.316  3.1439 -0.2386  1.1175
  905MOL0     H22132   8.202  11.136   4.361  0.0100 -0.8682  0.0268
  905MOL0     H22133   8.412  11.094   4.409  1.9189 -0.3250 -0.1225
  905MOL0     H22134   8.432  11.177   4.257 -1.6411  0.3776  0.9375
  905MOL0     H22135   8.607  10.781   4.174 -1.2706  1.6930 -0.5416
  905MOL0     H22136   8.848  10.758   4.157  0.8134  1.6950 -1.2626
  905MOL0     H22137   9.294  10.897   4.144  1.8160 -1.8585  1.4740
  905MOL0     H22138   9.538  10.957   4.144  0.2897  1.4385  0.3115
  905MOL0     H22139   9.658  11.330   4.239  1.7744 -0.2311 -1.7357
  905MOL0     H22140   9.677  11.296   4.409 -0.0712  0.6949 -0.0847
  905MOL0     H22141   9.888  11.178   4.357  0.1201 -1.4732 -1.9579
  905MOL0     H22142   9.885  11.244   4.194 -1.8595  0.0114 -0.7522
  905MOL0     H22143   9.865  11.473   4.293 -3.4360 -2.2080 -0.1833
  905MOL0     H22144   9.910  11.418   4.458  0.5403 -1.5000  1.2833
  905MOL0     H22145  10.077  11.401   4.203 -3.6069  0.9865 -0.3826
  905MOL0     H22146  10.125  11.335   4.354 -1.8307 -1.5218  0.3365
  905MOL0     H22147  10.128  11.558   4.459 -1.7465  1.4957  0.0250
  905MOL0     H22148  10.035  11.609   4.320 -0.6522 -0.8251  2.6866
  905MOL0     H22149  10.327  11.533   4.323  0.1622  0.8777 -0.4336
  905MOL0     H22150  10.246  11.585   4.176 -0.5665  0.5482  0.4074
  905MOL0     H22151  10.283  11.722   4.445 -3.6129 -4.4676 -0.2447
  905MOL0     H22152  10.186  11.789   4.308 -1.1331  1.0745  2.7876
  905MOL0     H22153  10.406  11.882   4.320 -0.7779  0.8687 -0.6079
  905MOL0     H22154  10.480  11.724   4.284  0.2579 -0.1924  0.2321
  905MOL0     H22155   9.457  11.237   4.453  0.6681 -0.0419 -0.3416
  905MOL0     H22156   9.226  11.186   4.453 -1.1042  2.1789 -1.9086
  905MOL0     H22157   8.892  11.118   4.397 -0.1555 -0.2352  1.2690
  905MOL0     H22158   8.652  11.155   4.376 -0.6948  0.9520 -1.3213
  905MOL0     H22159   6.818  10.917   4.067  1.6641 -1.2048 -1.8968
  905MOL0     H22160   6.568  10.874   4.112 -1.4000 -0.5858  0.0302
  905MOL0     H22161   6.170  10.622   3.832 -3.2301  1.5747 -1.5748
  905MOL0     H22162   5.939  10.577   3.877 -0.0071  0.5603 -0.3545
  905MOL0     H22163   5.813  10.855   4.073 -0.5475 -0.4171  0.8224
  905MOL0     H22164   5.679  10.793   4.181  1.3943  0.4017  0.7908
  905MOL0     H22165   5.716  10.777   3.893  0.7948 -1.5018  0.6965
  905MOL0     H22166   5.593  10.861   3.982 -0.1804  0.1061 -1.0686
  905MOL0     H22167   5.531  10.578   4.058 -0.2235 -0.6843 -0.7496
  905MOL0     H22168   5.639  10.564   3.919 -1.1853 -0.0238 -0.9800
  905MOL0     H22169   5.469  10.702   3.796 -2.1656 -0.4950 -0.2236
  905MOL0     H22170   5.405  10.547   3.870  1.5684 -0.4085 -5.1005
  905MOL0     H22171   5.194  10.856   4.065  0.7978  0.3953  0.6720
  905MOL0     H22172   5.997  10.713   4.282 -0.3266 -0.9116 -0.4168
  905MOL0     H22173   6.328  10.834   4.246 -1.1121  0.3040 -1.3493
  905MOL0     H22174   6.189  10.794   4.355 -2.0207 -1.4326 -1.2774
  905MOL0     H22175   6.307  10.669   4.321  0.8881 -0.1006 -1.0865
  906MOL0     O22176  10.490   5.094  10.173  0.0629 -0.3525 -0.1842
  906MOL0     C22177  10.420   5.156  10.251 -1.2298 -0.4119 -0.6076
  906MOL0     O22178  10.461   5.207  10.369 -0.8714 -0.2333 -0.1159
  906MOL0     C22179  10.598   5.209  10.405  0.2068  0.0996  0.1746
  906MOL0     C22180  10.665   5.324  10.371 -0.6041 -0.7400 -0.0535
  906MOL0     C22181  10.792   5.341  10.434 -0.1005  0.3702 -0.0757
  906MOL0     C22182  10.843   5.245  10.524 -0.7083  0.4214  0.0896
  906MOL0     O22183  10.965   5.282  10.584 -0.3394  0.2561  0.2703
  906MOL0     C22184  11.066   5.184  10.558 -0.4779  0.5612 -0.4726
  906MOL0     C22185  11.201   5.232  10.619 -0.4741 -0.0955  0.6917
  906MOL0     C22186  11.286   5.313  10.520  0.3100 -1.6974 -0.9407
  906MOL0     C22187  11.417   5.355  10.583 -0.1949  0.6304  0.1376
  906MOL0     C22188  11.504   5.439  10.483 -0.1859 -0.0284  0.2171
  906MOL0     C22189  11.640   5.486  10.539 -0.6050  0.8767 -0.4480
  906MOL0     C22190  11.737   5.540  10.428 -0.4527  0.7395  0.5551
  906MOL0     C22191  11.700   5.680  10.389  0.1914 -0.3912  0.5479
  906MOL0     N22192  11.779   5.748  10.286  0.5105 -0.6980 -0.3009
  906MOL0     C22193  11.848   5.697  10.181 -0.6223 -0.3282 -0.3967
  906MOL0     C22194  11.915   5.800  10.127  0.4662 -0.9430  0.3520
  906MOL0     C22195  12.009   5.789  10.018 -0.2921  0.5606 -0.3189
  906MOL0     C22196  12.151   5.808  10.075  0.4707 -0.9579 -0.2756
  906MOL0     C22197  12.255   5.821   9.968  0.5342  0.0486  0.0847
  906MOL0     C22198  12.388   5.858  10.026  0.1826  1.0942 -0.6280
  906MOL0     O22199  12.467   5.914   9.922 -0.3847 -1.2459  0.7283
  906MOL0     C22200  12.602   5.934   9.947 -0.2288 -0.5833 -0.6920
  906MOL0     C22201  12.662   5.936  10.075 -0.2460  1.0410 -1.4669
  906MOL0     C22202  12.801   5.948  10.090 -0.6888 -0.5147 -0.3027
  906MOL0     C22203  12.888   5.984   9.986  1.0038  0.4766  0.4181
  906MOL0     C22204  13.018   6.041  10.010 -0.1578 -0.9505  0.0904
  906MOL0     O22205  13.061   6.038  10.143 -0.5287 -0.3185  1.0252
  906MOL0     C22206  13.201   6.060  10.147  0.5240 -0.2794  0.2032
  906MOL0     C22207  13.278   5.946  10.172  0.4912 -0.4674  0.3642
  906MOL0     C22208  13.410   5.949  10.198  0.4345  0.5576 -0.2394
  906MOL0     C22209  13.477   6.075  10.194  0.2941 -0.2072  0.2506
  906MOL0     O22210  13.620   6.078  10.213 -0.0192 -0.2930  0.0696
  906MOL0     C22211  13.700   5.973  10.178 -0.4331  0.7180 -0.0239
  906MOL0     C22212  13.845   6.011  10.175  0.3331 -0.8658 -0.3104
  906MOL0     C22213  13.900   6.091  10.294  0.7020 -0.5597 -0.3591
  906MOL0     C22214  13.919   6.004  10.417  0.1344  0.4666  0.4676
  906MOL0     C22215  14.000   6.066  10.528 -0.7653  0.1340  0.0927
  906MOL0     C22216  14.142   6.079  10.478 -0.3872  0.2589 -0.0010
  906MOL0     C22217  14.220   6.133  10.592 -1.0723  0.6558  0.4200
  906MOL0     C22218  14.376   6.109  10.575 -0.4231  1.1007  0.0552
  906MOL0    Cl22219  14.454   6.185  10.721  0.0406 -0.4173  0.8389
  906MOL0     C22220  13.402   6.191  10.173 -0.5473  0.0456 -0.0423
  906MOL0     C22221  13.264   6.183  10.157 -0.2836 -0.2974 -0.3697
  906MOL0     O22222  13.092   6.065   9.912  0.4072  0.4873  0.0296
  906MOL0     C22223  12.823   5.997   9.855 -0.1396  0.6687  0.0304
  906MOL0     C22224  12.683   5.970   9.846  0.3109 -0.0452  1.1219
  906MOL0     N22225  11.872   5.919  10.188  0.6347  0.0677  0.0856
  906MOL0     N22226  11.799   5.883  10.294  0.6914  0.0866  0.0656
  906MOL0     C22227  10.771   5.127  10.552 -0.2248  0.5417 -0.6084
  906MOL0     C22228  10.645   5.107  10.496 -0.0963 -0.3019  1.4372
  906MOL0     C22229  10.286   5.172  10.213 -0.4067  0.2155  0.6173
  906MOL0     C22230  10.247   5.275  10.127 -0.0805 -0.6960 -0.1745
  906MOL0     C22231  10.110   5.288  10.099  0.2254 -0.3310 -0.2464
  906MOL0     C22232  10.018   5.201  10.148 -0.7874  0.7841  0.4558
  906MOL0     O22233   9.883   5.222  10.143 -0.1843 -0.1896  0.6653
  906MOL0     C22234   9.843   5.358  10.109 -0.6071  0.4808 -0.4659
  906MOL0     C22235   9.699   5.386  10.163 -0.0998 -0.3921 -0.1352
  906MOL0     C22236   9.650   5.525  10.138  0.1087 -0.4652  0.0331
  906MOL0     C22237   9.675   5.583   9.999  0.4590  0.1835 -0.6080
  906MOL0     C22238   9.582   5.504   9.911 -0.2812 -0.3696  0.5488
  906MOL0     C22239   9.512   5.450   9.828  1.0698  0.0376  1.0386
  906MOL0     C22240  10.053   5.105  10.236 -0.0455 -0.7397 -0.2449
  906MOL0     C22241  10.190   5.091  10.274 -0.2599  0.3188  0.3482
  906MOL0     C22242  10.209   4.995  10.389 -0.0056  0.9020 -1.3606
  906MOL0     H22243  10.622   5.407  10.317 -0.1114 -0.5149 -0.1067
  906MOL0     H22244  10.839   5.438  10.419 -0.0318 -0.0549 -3.3457
  906MOL0     H22245  11.038   5.088  10.601  0.8430 -0.9836 -2.8347
  906MOL0     H22246  11.076   5.172  10.450 -0.8744  0.9670 -0.5585
  906MOL0     H22247  11.264   5.147  10.647  1.2967  1.5934  2.1283
  906MOL0     H22248  11.181   5.279  10.716 -0.7263 -0.9291  1.0511
  906MOL0     H22249  11.229   5.404  10.504  0.1345 -1.2634  1.7097
  906MOL0     H22250  11.310   5.253  10.431  0.6980  0.2246 -2.1880
  906MOL0     H22251  11.391   5.410  10.674 -1.6692  2.5485 -1.3489
  906MOL0     H22252  11.476   5.273  10.625 -0.5062  1.8880  3.3050
  906MOL0     H22253  11.528   5.377  10.396 -1.3802  0.5341 -0.5398
  906MOL0     H22254  11.454   5.527  10.441  2.6929  1.5371 -0.1767
  906MOL0     H22255  11.624   5.562  10.616 -1.2387  1.9827 -1.6348
  906MOL0     H22256  11.684   5.395  10.580 -0.9714  0.1829 -1.5466
  906MOL0     H22257  11.731   5.481  10.336 -0.1431  0.7066  0.5542
  906MOL0     H22258  11.838   5.524  10.466  0.8393  0.3009 -2.7561
  906MOL0     H22259  11.596   5.677  10.355 -0.5574  1.3603  2.4204
  906MOL0     H22260  11.687   5.744  10.477 -0.7086  2.3270 -1.4182
  906MOL0     H22261  11.852   5.596  10.142  2.8278  0.1343 -1.6210
  906MOL0     H22262  12.001   5.696   9.960  0.7384 -0.6631  1.3823
  906MOL0     H22263  11.977   5.863   9.944 -1.8341 -0.6559 -0.9210
  906MOL0     H22264  12.146   5.886  10.151 -1.6611 -2.3304  1.1306
  906MOL0     H22265  12.189   5.723  10.134  1.9831  1.6709  2.8647
  906MOL0     H22266  12.224   5.908   9.910  1.2771  0.7171  0.6805
  906MOL0     H22267  12.258   5.726   9.914  0.0542 -0.8274  1.5438
  906MOL0     H22268  12.420   5.761  10.065 -1.5874  0.0973 -1.5537
  906MOL0     H22269  12.369   5.926  10.110 -3.4445  0.3705 -0.7137
  906MOL0     H22270  12.604   5.899  10.159  1.3648 -0.4870 -0.9883
  906MOL0     H22271  12.833   5.943  10.193 -2.2038  0.0743  0.2268
  906MOL0     H22272  13.229   5.850  10.166  0.7399 -0.6383  0.9283
  906MOL0     H22273  13.467   5.856  10.191 -1.7794 -0.8245 -0.9187
  906MOL0     H22274  13.690   5.893  10.252 -0.1529 -1.0127 -1.7725
  906MOL0     H22275  13.668   5.938  10.080  3.1420 -0.0390 -1.0794
  906MOL0     H22276  13.908   5.926  10.149  1.7631  0.3818 -1.1012
  906MOL0     H22277  13.859   6.068  10.083  0.1283  0.6898  0.5821
  906MOL0     H22278  13.995   6.142  10.274  0.8388 -0.0284  1.4625
  906MOL0     H22279  13.828   6.172  10.307 -0.1498 -0.6252 -3.7337
  906MOL0     H22280  13.985   5.924  10.382  2.2072  2.8632 -1.4572
  906MOL0     H22281  13.823   5.966  10.452  0.7102  0.6197  2.3147
  906MOL0     H22282  13.986   5.990  10.605 -1.5169 -0.3000 -0.4537
  906MOL0     H22283  13.964   6.165  10.559 -0.1340  0.2274  0.5368
  906MOL0     H22284  14.181   5.981  10.447  0.8160  0.5108  0.6426
  906MOL0     H22285  14.152   6.157  10.403 -1.3100  1.1974  0.8246
  906MOL0     H22286  14.196   6.082  10.685 -0.5297 -1.6919 -0.6329
  906MOL0     H22287  14.196   6.240  10.599  0.7562  1.0128  1.8296
  906MOL0     H22288  14.394   6.001  10.568  0.5053  1.1776  1.0389
  906MOL0     H22289  14.417   6.146  10.481 -0.3329  0.1191 -0.3088
  906MOL0     H22290  13.457   6.284  10.183  1.1064 -0.6548 -1.8188
  906MOL0     H22291  13.222   6.283  10.148  0.9138  0.4918  2.0099
  906MOL0     H22292  12.880   6.022   9.767  1.2878  0.7991  0.9606
  906MOL0     H22293  12.641   5.979   9.746  1.4780 -0.7625  0.5492
  906MOL0     H22294  10.815   5.060  10.625 -1.7166  0.2579  0.0663
  906MOL0     H22295  10.571   5.034  10.527 -2.9902  1.4267 -0.9311
  906MOL0     H22296  10.322   5.342  10.087 -0.6914  0.4498  0.5729
  906MOL0     H22297  10.072   5.370  10.038 -0.1814 -0.6900 -0.4834
  906MOL0     H22298   9.841   5.362  10.000 -0.1835 -0.6787 -0.5295
  906MOL0     H22299   9.909   5.432  10.155  1.5048 -0.6512 -1.5074
  906MOL0     H22300   9.693   5.360  10.269 -0.8872  0.9101  0.1528
  906MOL0     H22301   9.634   5.326  10.098  1.4412 -0.1698 -1.9769
  906MOL0     H22302   9.700   5.589  10.212  1.3784  0.5448 -1.6260
  906MOL0     H22303   9.545   5.543  10.162  0.1157  0.0847 -0.3253
  906MOL0     H22304   9.642   5.687  10.009  2.4712  0.6751  1.9370
  906MOL0     H22305   9.776   5.575   9.958  1.0674  0.3249  0.8098
  906MOL0     H22306   9.436   5.397   9.775  0.5071  2.7920 -1.1744
  906MOL0     H22307   9.967   5.053  10.276 -0.6436  0.9692  0.8104
  906MOL0     H22308  10.308   4.993  10.434 -1.2081  2.4856  1.6870
  906MOL0     H22309  10.138   5.016  10.470 -0.4652  3.0287 -2.2486
  906MOL0     H22310  10.194   4.889  10.366 -1.7386  0.7342  0.2376
  907MOL0     O22311  10.360   4.664   6.555 -0.6502  0.5216 -0.1903
  907MOL0     C22312  10.283   4.573   6.530  0.4104 -0.4259 -0.2199
  907MOL0     O22313  10.325   4.441   6.502  0.6152 -0.0467 -0.2997
  907MOL0     C22314  10.452   4.396   6.522 -0.3595  1.4998 -0.0472
  907MOL0     C22315  10.538   4.363   6.409  0.9095 -0.4438 -0.0055
  907MOL0     C22316  10.666   4.332   6.429 -0.6502  0.1988  0.4835
  907MOL0     C22317  10.722   4.315   6.556 -0.7898 -0.3810  0.3209
  907MOL0     O22318  10.854   4.293   6.575 -0.1841 -0.1840  0.1356
  907MOL0     C22319  10.894   4.178   6.655 -0.1851 -0.0093  0.2144
  907MOL0     C22320  11.018   4.103   6.604 -0.6173  0.3864  0.3725
  907MOL0     C22321  11.026   3.955   6.642  0.2476 -0.2333  0.0910
  907MOL0     C22322  11.044   3.933   6.792  0.0667 -0.6042  0.2998
  907MOL0     C22323  11.059   3.781   6.826  0.3939 -0.2228  0.2889
  907MOL0     C22324  10.938   3.692   6.782  1.1880 -0.8754 -0.1008
  907MOL0     C22325  10.960   3.547   6.793  0.0102  0.0053  0.3546
  907MOL0     C22326  10.841   3.473   6.746  0.0547 -0.2326  0.7302
  907MOL0     N22327  10.714   3.478   6.825 -1.1261 -0.0303  0.5178
  907MOL0     C22328  10.699   3.417   6.944 -0.2193 -0.1373 -0.0208
  907MOL0     C22329  10.573   3.441   6.980 -0.4654 -0.5558  0.1971
  907MOL0     C22330  10.532   3.423   7.124 -0.8596  0.2581 -0.0223
  907MOL0     C22331  10.627   3.494   7.223  0.4991  0.0597  0.3334
  907MOL0     C22332  10.559   3.492   7.359 -0.0222  0.4219 -0.9430
  907MOL0     C22333  10.632   3.560   7.468 -0.4825 -0.4735 -0.8350
  907MOL0     O22334  10.569   3.568   7.596  0.4827  0.1042 -0.6233
  907MOL0     C22335  10.646   3.637   7.692  0.3633  0.5026  0.2455
  907MOL0     C22336  10.750   3.726   7.671  0.2815 -0.0383  0.3909
  907MOL0     C22337  10.819   3.794   7.774 -0.0340 -0.4944 -0.4075
  907MOL0     C22338  10.784   3.761   7.914  0.7587 -0.0055  0.8869
  907MOL0     C22339  10.876   3.797   8.026  0.0663  0.4096 -0.1737
  907MOL0     O22340  10.972   3.897   8.005  0.5956 -0.1576  0.1345
  907MOL0     C22341  11.040   3.967   8.101 -0.0077 -0.8673  0.0268
  907MOL0     C22342  11.181   3.974   8.096  0.1252 -0.3213 -0.3755
  907MOL0     C22343  11.250   4.052   8.191 -0.7308  0.4730  0.2609
  907MOL0     C22344  11.182   4.130   8.292  0.4702  0.8819  0.2675
  907MOL0     O22345  11.236   4.203   8.392  0.4632  0.8314 -0.4488
  907MOL0     C22346  11.371   4.204   8.410 -1.1048  0.1673 -0.5326
  907MOL0     C22347  11.406   4.235   8.559 -0.0236  0.3457  0.0633
  907MOL0     C22348  11.552   4.263   8.592  0.8113  0.0908  0.0139
  907MOL0     C22349  11.602   4.403   8.538  0.3670  0.4529 -0.1878
  907MOL0     C22350  11.732   4.431   8.608  0.1004  0.3042 -0.1646
  907MOL0     C22351  11.861   4.361   8.558  1.1635 -0.4100  0.2242
  907MOL0     C22352  11.895   4.421   8.420 -0.2156  1.4596  0.3260
  907MOL0     C22353  11.910   4.571   8.405 -0.1284  0.4299  0.5705
  907MOL0    Cl22354  12.038   4.623   8.516 -0.4179  0.1618 -0.4732
  907MOL0     C22355  11.041   4.123   8.289 -0.6342  0.6161  0.1124
  907MOL0     C22356  10.969   4.038   8.199 -0.4251 -0.1620 -0.4861
  907MOL0     O22357  10.855   3.753   8.138 -0.0362  0.0096  0.5447
  907MOL0     C22358  10.678   3.670   7.928  0.6440  0.2260 -1.3265
  907MOL0     C22359  10.604   3.618   7.819 -0.1169  0.1014 -1.0204
  907MOL0     N22360  10.525   3.538   6.890  0.4545  0.0714 -0.0509
  907MOL0     N22361  10.606   3.555   6.795 -0.9717 -0.2996 -0.6853
  907MOL0     C22362  10.646   4.347   6.667  0.9974 -0.0355  0.2577
  907MOL0     C22363  10.509   4.383   6.645  0.4215 -0.1426 -0.0443
  907MOL0     C22364  10.136   4.586   6.531  0.8316 -0.1672 -0.0777
  907MOL0     C22365  10.053   4.496   6.452 -0.5089 -0.1336  0.1253
  907MOL0     C22366   9.917   4.507   6.447 -0.5180 -0.4070  0.6700
  907MOL0     C22367   9.847   4.613   6.513 -0.6821  0.1011  0.0060
  907MOL0     O22368   9.719   4.650   6.504  0.1300  0.0542 -0.2085
  907MOL0     C22369   9.626   4.543   6.465  1.2702 -0.3080  0.0835
  907MOL0     C22370   9.478   4.585   6.492 -0.5232  0.4156 -0.3125
  907MOL0     C22371   9.452   4.596   6.653 -0.0140  0.3325 -0.4201
  907MOL0     C22372   9.310   4.647   6.671  1.1343  0.0027 -0.6850
  907MOL0     C22373   9.202   4.541   6.666  0.2826 -0.5262 -0.2955
  907MOL0     C22374   9.112   4.460   6.657 -0.8636  0.2317 -0.0089
  907MOL0     C22375   9.924   4.694   6.596 -0.6147  0.2539 -0.5482
  907MOL0     C22376  10.069   4.687   6.606  0.8539  0.2783 -0.1933
  907MOL0     C22377  10.135   4.807   6.677 -0.2659 -0.6954 -1.0261
  907MOL0     H22378  10.484   4.364   6.314 -2.1685 -1.9928  1.5903
  907MOL0     H22379  10.738   4.323   6.348 -1.6743  2.8037 -0.8377
  907MOL0     H22380  10.911   4.212   6.758  1.6745 -1.8847  0.5892
  907MOL0     H22381  10.810   4.108   6.663 -0.6941  0.4769 -0.7431
  907MOL0     H22382  11.112   4.152   6.632 -1.5784  1.3590  2.0494
  907MOL0     H22383  11.013   4.102   6.495  0.3189  0.5538  0.3151
  907MOL0     H22384  11.102   3.897   6.588  2.3234  1.0447  1.4996
  907MOL0     H22385  10.937   3.909   6.599 -1.1491  2.6223 -0.2823
  907MOL0     H22386  11.141   3.975   6.819  0.5369 -0.7165 -1.1426
  907MOL0     H22387  10.974   3.991   6.853  0.4682 -0.1543  0.3433
  907MOL0     H22388  11.147   3.741   6.775 -0.9877 -2.5179 -0.4370
  907MOL0     H22389  11.066   3.775   6.935  1.4389 -2.1865  0.1673
  907MOL0     H22390  10.853   3.722   6.845  1.7506  0.2152  0.1523
  907MOL0     H22391  10.908   3.720   6.681 -1.2961 -1.7766  0.3120
  907MOL0     H22392  10.988   3.515   6.894  3.2628 -1.0453 -0.7667
  907MOL0     H22393  11.047   3.524   6.731  0.9643  1.5889  1.0461
  907MOL0     H22394  10.823   3.509   6.644  2.3312 -3.5981 -1.0998
  907MOL0     H22395  10.877   3.370   6.739  1.8410  0.4312 -0.6172
  907MOL0     H22396  10.775   3.366   7.002  2.2775  3.1854 -0.0482
  907MOL0     H22397  10.425   3.446   7.126 -0.4090  2.9914 -1.8413
  907MOL0     H22398  10.552   3.316   7.136  1.8075  0.4804 -1.6224
  907MOL0     H22399  10.721   3.438   7.230 -0.4322 -1.6715 -0.3628
  907MOL0     H22400  10.642   3.598   7.193 -0.1755 -0.3659 -1.5751
  907MOL0     H22401  10.540   3.385   7.371  0.2246  0.2548 -1.9500
  907MOL0     H22402  10.460   3.540   7.356 -0.9429 -1.3821 -3.9967
  907MOL0     H22403  10.662   3.655   7.425  0.2477 -1.0688 -1.6806
  907MOL0     H22404  10.729   3.510   7.475  0.6311  1.1133 -3.5331
  907MOL0     H22405  10.796   3.751   7.576 -1.1630 -0.0164 -0.3159
  907MOL0     H22406  10.902   3.863   7.758 -1.2422  0.5507 -2.6050
  907MOL0     H22407  11.237   3.926   8.016 -1.0490  0.1085 -1.5008
  907MOL0     H22408  11.359   4.055   8.192 -0.6093  1.9356 -3.2346
  907MOL0     H22409  11.418   4.106   8.398  1.9544  1.0193  2.8684
  907MOL0     H22410  11.432   4.279   8.358 -1.6410  0.0583 -1.3442
  907MOL0     H22411  11.344   4.319   8.592 -2.1113 -0.8978 -0.4335
  907MOL0     H22412  11.376   4.147   8.617  0.1169  0.5295  0.4154
  907MOL0     H22413  11.557   4.255   8.701  1.2114 -1.0329 -0.0665
  907MOL0     H22414  11.609   4.175   8.560 -1.6836 -1.1441 -1.3896
  907MOL0     H22415  11.526   4.476   8.568  1.3685  1.3301  0.2903
  907MOL0     H22416  11.612   4.409   8.429  0.7102 -0.5631 -0.2242
  907MOL0     H22417  11.717   4.408   8.714 -0.9349  3.0482  0.3610
  907MOL0     H22418  11.747   4.539   8.604  2.8156  0.0063 -0.1664
  907MOL0     H22419  11.950   4.381   8.618 -0.7334  2.4683  2.3300
  907MOL0     H22420  11.837   4.255   8.566 -1.6988  0.2571  1.7301
  907MOL0     H22421  11.822   4.386   8.346  2.3993  1.0236 -2.2270
  907MOL0     H22422  11.982   4.361   8.394  0.0397  0.2438  3.5519
  907MOL0     H22423  11.937   4.599   8.303 -0.3595  2.4219  1.0311
  907MOL0     H22424  11.811   4.611   8.428 -0.6616  0.1630 -1.0952
  907MOL0     H22425  10.990   4.181   8.366 -0.6686  0.5112  0.1695
  907MOL0     H22426  10.863   4.041   8.218 -0.1406 -1.1332  1.5491
  907MOL0     H22427  10.658   3.628   8.026 -1.7792  1.8254 -1.0508
  907MOL0     H22428  10.531   3.541   7.845 -1.5811  1.9249  0.5957
  907MOL0     H22429  10.686   4.342   6.768 -0.7840 -0.7583  0.9661
  907MOL0     H22430  10.438   4.404   6.725  0.3919 -2.6073  0.6278
  907MOL0     H22431  10.111   4.429   6.389 -2.3601  1.6545 -3.8385
  907MOL0     H22432   9.856   4.436   6.392  0.9141  1.2578 -3.4333
  907MOL0     H22433   9.641   4.448   6.516 -3.6428 -1.0191  0.6211
  907MOL0     H22434   9.637   4.526   6.357 -1.8660  0.4368 -0.4545
  907MOL0     H22435   9.423   4.506   6.442 -0.5859  0.9241 -1.0596
  907MOL0     H22436   9.447   4.677   6.441 -1.2337 -0.6411 -1.8370
  907MOL0     H22437   9.524   4.671   6.687  1.3649 -0.5254 -1.3150
  907MOL0     H22438   9.471   4.504   6.709  0.5546  1.5812  1.5660
  907MOL0     H22439   9.300   4.691   6.771 -1.7381 -0.7604 -0.5388
  907MOL0     H22440   9.282   4.726   6.601  0.2582  1.6297  1.3809
  907MOL0     H22441   9.033   4.388   6.653 -0.0147 -0.7617  0.8420
  907MOL0     H22442   9.855   4.761   6.646 -1.5547 -1.3278  0.3571
  907MOL0     H22443  10.081   4.844   6.764  1.7840  2.9670 -1.1222
  907MOL0     H22444  10.236   4.779   6.706  0.2153 -2.3421 -3.9612
  907MOL0     H22445  10.148   4.892   6.609  1.1196 -1.8824 -2.3129
  908MOL0     O22446  10.666   7.131   1.999  0.2996 -0.3418 -0.1629
  908MOL0     C22447  10.598   7.044   2.047  0.8364 -0.1955 -0.3229
  908MOL0     O22448  10.637   6.934   2.106 -0.8801 -0.1022 -0.3244
  908MOL0     C22449  10.768   6.901   2.127  0.4558  0.3829 -0.8820
  908MOL0     C22450  10.788   6.869   2.260  0.2705 -0.3734  0.0080
  908MOL0     C22451  10.916   6.809   2.301  0.6076 -0.8870 -0.1598
  908MOL0     C22452  11.017   6.774   2.203  0.1848 -0.5709 -1.3411
  908MOL0     O22453  11.127   6.703   2.240  0.2794 -0.3819  0.7309
  908MOL0     C22454  11.220   6.684   2.133 -0.5517  0.2030  0.6201
  908MOL0     C22455  11.356   6.634   2.197 -1.0145 -0.3528 -0.5813
  908MOL0     C22456  11.421   6.732   2.293  0.4110 -0.0307  0.3062
  908MOL0     C22457  11.551   6.661   2.345  0.3541 -0.1087 -0.6018
  908MOL0     C22458  11.648   6.746   2.423 -0.1173 -0.2035  0.4131
  908MOL0     C22459  11.771   6.667   2.446 -0.0283  0.1105  0.7202
  908MOL0     C22460  11.866   6.744   2.541  0.3067  0.2703 -0.4954
  908MOL0     C22461  11.954   6.848   2.487 -0.2844 -0.8691 -0.0350
  908MOL0     N22462  12.081   6.791   2.431  0.2650 -0.1111 -0.3356
  908MOL0     C22463  12.179   6.712   2.489 -0.1727  0.5985  0.3594
  908MOL0     C22464  12.255   6.674   2.384 -0.6877  0.1982 -0.0486
  908MOL0     C22465  12.373   6.579   2.395 -0.1161  0.3236  1.3878
  908MOL0     C22466  12.503   6.650   2.388  0.5961  0.0852 -0.1740
  908MOL0     C22467  12.613   6.555   2.451  0.5819  0.2414 -0.3731
  908MOL0     C22468  12.764   6.602   2.440  0.5406 -0.4739 -0.5509
  908MOL0     O22469  12.844   6.486   2.439  0.3762 -0.2797  0.6408
  908MOL0     C22470  12.987   6.481   2.445  0.0790 -0.8033 -0.5154
  908MOL0     C22471  13.044   6.366   2.484 -0.2674 -0.8853 -0.5588
  908MOL0     C22472  13.186   6.374   2.508  0.3994  0.7740  0.3581
  908MOL0     C22473  13.263   6.480   2.478  0.2694  0.3044 -0.7806
  908MOL0     C22474  13.407   6.463   2.490  0.2426 -0.6315 -0.7847
  908MOL0     O22475  13.460   6.344   2.538 -0.2558  0.3128  0.8647
  908MOL0     C22476  13.596   6.325   2.540  0.2468 -0.1143  0.4226
  908MOL0     C22477  13.687   6.406   2.597  0.9068 -0.5242 -0.3001
  908MOL0     C22478  13.822   6.385   2.586  0.3983  0.7519  0.5284
  908MOL0     C22479  13.867   6.268   2.517 -0.7454 -0.7563 -0.3952
  908MOL0     O22480  14.001   6.239   2.500  0.0945  0.3559  0.1691
  908MOL0     C22481  14.094   6.275   2.599 -0.3535 -0.3921 -0.0958
  908MOL0     C22482  14.243   6.228   2.570  0.1102 -0.1711  0.3526
  908MOL0     C22483  14.347   6.259   2.672  0.2976 -0.0563 -0.3730
  908MOL0     C22484  14.307   6.222   2.817  0.0864  0.2199  0.2070
  908MOL0     C22485  14.424   6.256   2.910 -0.0627 -0.9263  0.1154
  908MOL0     C22486  14.439   6.404   2.947  0.0279 -0.2719  0.0370
  908MOL0     C22487  14.549   6.418   3.046 -0.1616 -0.7062  0.5611
  908MOL0     C22488  14.614   6.557   3.026  0.4178  0.6911  0.4502
  908MOL0    Cl22489  14.503   6.694   3.070  0.4814 -0.2048 -0.4995
  908MOL0     C22490  13.767   6.193   2.453  0.0522 -0.3017  0.1566
  908MOL0     C22491  13.637   6.225   2.456  0.8385  0.4521 -0.3409
  908MOL0     O22492  13.473   6.559   2.463  0.2888 -0.0251  0.4885
  908MOL0     C22493  13.196   6.597   2.428  0.0387  0.2348  0.3991
  908MOL0     C22494  13.064   6.600   2.421  0.3207  0.0540  0.2006
  908MOL0     N22495  12.207   6.734   2.269  1.0883  0.2993  0.6607
  908MOL0     N22496  12.104   6.807   2.302 -0.0407  0.3706 -0.4147
  908MOL0     C22497  10.987   6.819   2.070  0.2487 -0.6865  0.4744
  908MOL0     C22498  10.865   6.871   2.029  0.5282 -0.3230 -0.2664
  908MOL0     C22499  10.451   7.060   2.050 -0.4626  0.0100 -0.4353
  908MOL0     C22500  10.377   7.005   2.164  0.5278 -0.1481  1.1427
  908MOL0     C22501  10.237   7.016   2.169  0.1977 -1.1546 -0.3725
  908MOL0     C22502  10.164   7.086   2.072  0.6972  0.2545  0.7891
  908MOL0     O22503  10.025   7.086   2.094  0.5675 -0.3384  0.0016
  908MOL0     C22504   9.942   7.189   2.029  0.6869 -0.0858 -0.3956
  908MOL0     C22505   9.800   7.195   2.103 -0.4722  0.0822  0.7614
  908MOL0     C22506   9.671   7.225   2.022  0.1115 -0.1464 -0.0095
  908MOL0     C22507   9.551   7.203   2.122  0.2579 -0.1143  0.8010
  908MOL0     C22508   9.425   7.192   2.044  0.0318  0.7084 -0.8302
  908MOL0     C22509   9.324   7.176   1.982 -0.1930  0.3923 -0.4433
  908MOL0     C22510  10.233   7.154   1.971  0.3402  0.5833  0.2126
  908MOL0     C22511  10.368   7.136   1.957  0.1500 -1.0599  0.4355
  908MOL0     C22512  10.437   7.209   1.842  1.0118 -0.8222  0.3160
  908MOL0     H22513  10.704   6.874   2.328  1.4030 -0.3759  1.4568
  908MOL0     H22514  10.943   6.771   2.399  0.6511  0.2539  0.2856
  908MOL0     H22515  11.177   6.614   2.060  1.2255  0.6419 -0.9299
  908MOL0     H22516  11.243   6.779   2.085 -1.4721  1.7454  3.0834
  908MOL0     H22517  11.429   6.612   2.119  0.2541 -1.4006  0.8346
  908MOL0     H22518  11.332   6.537   2.242 -2.1188 -0.6134 -1.6691
  908MOL0     H22519  11.350   6.764   2.369 -2.0087 -0.2779 -1.7442
  908MOL0     H22520  11.440   6.823   2.236  0.6684 -0.1129  0.2599
  908MOL0     H22521  11.519   6.583   2.415  2.3509  0.8484  1.5184
  908MOL0     H22522  11.611   6.596   2.282 -0.1695 -1.7169  0.5014
  908MOL0     H22523  11.662   6.844   2.375 -2.4146 -1.0985 -2.3631
  908MOL0     H22524  11.616   6.774   2.524  0.0973  2.3957 -0.1560
  908MOL0     H22525  11.752   6.567   2.486 -2.8488  1.3506  2.8091
  908MOL0     H22526  11.822   6.663   2.349  1.6283  0.5308  1.5418
  908MOL0     H22527  11.941   6.676   2.583  2.7639  2.8660 -0.4110
  908MOL0     H22528  11.824   6.781   2.634  0.7550  1.2974 -0.6844
  908MOL0     H22529  11.893   6.899   2.412 -0.6968 -2.8307 -1.1261
  908MOL0     H22530  11.980   6.917   2.568 -2.3874 -3.5421  3.2094
  908MOL0     H22531  12.191   6.676   2.591 -1.0837 -0.9281 -0.0384
  908MOL0     H22532  12.371   6.541   2.498 -0.7356  3.0792  2.4981
  908MOL0     H22533  12.360   6.496   2.326 -0.9949  0.2997  1.5690
  908MOL0     H22534  12.525   6.681   2.286 -1.1919 -1.4181 -1.0825
  908MOL0     H22535  12.495   6.741   2.448 -1.8160 -0.1113 -0.0758
  908MOL0     H22536  12.614   6.457   2.401 -2.2183  0.3773 -0.8721
  908MOL0     H22537  12.593   6.539   2.557 -0.2057 -0.9148 -0.6735
  908MOL0     H22538  12.793   6.658   2.530 -0.1394  1.5127 -1.5177
  908MOL0     H22539  12.772   6.669   2.355 -0.8854 -1.0991 -1.2079
  908MOL0     H22540  12.980   6.285   2.517 -0.5845  0.2292  1.7304
  908MOL0     H22541  13.217   6.285   2.561 -0.9605  0.6923  1.0661
  908MOL0     H22542  13.640   6.486   2.653 -0.6254 -3.0135  2.1988
  908MOL0     H22543  13.889   6.462   2.621  1.5061 -0.2759  0.7074
  908MOL0     H22544  14.089   6.384   2.612  0.0432 -0.4969  1.1398
  908MOL0     H22545  14.069   6.223   2.692 -1.0040 -3.2986 -1.7729
  908MOL0     H22546  14.233   6.119   2.570 -0.2817 -0.1355  0.3951
  908MOL0     H22547  14.269   6.258   2.468 -1.7102  0.3745  0.0055
  908MOL0     H22548  14.443   6.216   2.643  0.3872  0.7343 -1.3138
  908MOL0     H22549  14.356   6.368   2.666 -1.7494  0.0867 -1.6817
  908MOL0     H22550  14.306   6.114   2.831 -0.0901  0.1063 -0.6416
  908MOL0     H22551  14.214   6.261   2.859 -1.1050 -0.7529 -1.4141
  908MOL0     H22552  14.517   6.232   2.858 -0.7764 -0.7406 -1.2971
  908MOL0     H22553  14.419   6.195   3.000 -3.9220  0.9789  1.4371
  908MOL0     H22554  14.464   6.461   2.858 -0.0498  0.6530  0.6016
  908MOL0     H22555  14.347   6.454   2.980  1.2994  3.9101 -2.0445
  908MOL0     H22556  14.629   6.343   3.037  0.9282  0.2248  2.0173
  908MOL0     H22557  14.509   6.409   3.147 -1.2607 -0.0307  0.2051
  908MOL0     H22558  14.704   6.567   3.087 -0.0072 -0.6072  1.3601
  908MOL0     H22559  14.649   6.565   2.923 -1.0530 -0.8440 -0.2182
  908MOL0     H22560  13.804   6.109   2.395  0.9439 -1.2540  2.0295
  908MOL0     H22561  13.559   6.173   2.401  0.5028 -0.3975  0.8871
  908MOL0     H22562  13.255   6.685   2.407 -1.5545  1.3283  0.3373
  908MOL0     H22563  13.023   6.689   2.375  1.2356  1.0002  1.1554
  908MOL0     H22564  11.050   6.796   1.985 -0.4768 -0.6978 -0.0730
  908MOL0     H22565  10.844   6.885   1.924 -1.3754  1.3790  0.2773
  908MOL0     H22566  10.419   6.953   2.249 -0.2714  0.4806  1.9485
  908MOL0     H22567  10.179   6.973   2.250  0.8142 -0.7000  0.3173
  908MOL0     H22568   9.932   7.169   1.922  1.8642  0.5839 -0.6493
  908MOL0     H22569   9.980   7.292   2.028 -1.8145  0.9860  1.8802
  908MOL0     H22570   9.818   7.273   2.177  2.3203 -1.2464  1.6340
  908MOL0     H22571   9.781   7.102   2.159 -1.3702 -0.6196 -0.6250
  908MOL0     H22572   9.671   7.160   1.934  0.7785  1.3981 -1.1895
  908MOL0     H22573   9.656   7.330   1.994  1.3847  0.2757  0.7762
  908MOL0     H22574   9.565   7.114   2.184  1.3149  0.3428  1.2523
  908MOL0     H22575   9.529   7.275   2.201 -1.0790 -2.5077  2.7604
  908MOL0     H22576   9.236   7.148   1.928  0.2966  0.2416 -1.1890
  908MOL0     H22577  10.163   7.206   1.905  0.3542 -0.8689 -1.0154
  908MOL0     H22578  10.504   7.143   1.785  0.0703  0.7223 -2.7568
  908MOL0     H22579  10.373   7.254   1.767  3.3284 -0.8071 -1.7788
  908MOL0     H22580  10.498   7.289   1.886 -0.2070  0.6852 -0.6655
  909MOL0     O22581   8.917   8.933   4.202  0.2027  0.2672 -0.4066
  909MOL0     C22582   8.832   8.969   4.285 -0.4033  0.7514  0.3955
  909MOL0     O22583   8.859   9.006   4.416 -0.2431  1.0020  0.4774
  909MOL0     C22584   8.978   8.973   4.459 -0.0463  0.1793 -0.5379
  909MOL0     C22585   9.051   9.076   4.520  0.1442 -0.0111  0.7257
  909MOL0     C22586   9.166   9.054   4.590 -0.1989 -0.9584  0.0836
  909MOL0     C22587   9.226   8.925   4.585  1.1403  0.5486 -0.9017
  909MOL0     O22588   9.349   8.903   4.632  0.6442  0.0836 -0.8357
  909MOL0     C22589   9.408   8.991   4.730 -0.6066  0.2680  0.0746
  909MOL0     C22590   9.535   8.951   4.804 -0.3064  0.3321  0.3007
  909MOL0     C22591   9.655   8.949   4.706  0.1976 -0.4031 -0.2517
  909MOL0     C22592   9.779   8.919   4.796 -0.0392  0.3545  0.1715
  909MOL0     C22593   9.907   8.918   4.705  0.3621 -0.1393  1.1658
  909MOL0     C22594  10.032   8.938   4.787  0.0831  0.5720  0.3297
  909MOL0     C22595  10.038   9.069   4.870  0.2738  0.9458 -1.2423
  909MOL0     C22596  10.159   9.065   4.963 -0.0579 -0.2919 -0.1158
  909MOL0     N22597  10.281   9.083   4.890 -0.2864 -0.6051 -0.6242
  909MOL0     C22598  10.338   9.203   4.867  0.3728 -0.1311  0.1606
  909MOL0     C22599  10.458   9.173   4.813 -0.3302  0.0507 -0.3204
  909MOL0     C22600  10.551   9.279   4.773  0.9623 -0.5868  0.0006
  909MOL0     C22601  10.691   9.240   4.780 -0.4390 -0.0936  0.2456
  909MOL0     C22602  10.771   9.356   4.714 -0.3299 -0.2359 -0.4764
  909MOL0     C22603  10.911   9.335   4.770  1.0424 -0.2138 -0.0791
  909MOL0     O22604  10.980   9.233   4.703 -0.2074  0.0564  0.1369
  909MOL0     C22605  11.116   9.234   4.702 -0.1599 -0.2629  0.0541
  909MOL0     C22606  11.182   9.132   4.627 -0.0636  0.1088 -0.1004
  909MOL0     C22607  11.321   9.120   4.615  0.2059 -0.3553 -0.1996
  909MOL0     C22608  11.407   9.218   4.675  0.3569 -0.3680  0.4702
  909MOL0     C22609  11.555   9.202   4.676 -0.3003 -0.5090  0.2987
  909MOL0     O22610  11.621   9.314   4.723 -0.0994  0.1033 -0.4971
  909MOL0     C22611  11.761   9.315   4.724 -0.8352  0.1172  0.1089
  909MOL0     C22612  11.823   9.398   4.811  0.1159 -0.0858 -0.0885
  909MOL0     C22613  11.960   9.395   4.836 -0.4461  0.3270 -0.1439
  909MOL0     C22614  12.046   9.334   4.747 -0.8171 -0.8085 -0.7534
  909MOL0     O22615  12.178   9.360   4.774  0.5201 -0.0897  0.4281
  909MOL0     C22616  12.286   9.268   4.748  0.8888  0.3697  0.0621
  909MOL0     C22617  12.398   9.297   4.850  0.3294 -0.5763 -0.3126
  909MOL0     C22618  12.509   9.199   4.837 -0.1631 -1.1953 -0.2341
  909MOL0     C22619  12.638   9.235   4.914  0.4225 -0.1019 -0.0230
  909MOL0     C22620  12.747   9.160   4.842 -0.0866  0.0642  0.1268
  909MOL0     C22621  12.882   9.174   4.905  0.3560  0.3175 -0.5013
  909MOL0     C22622  12.955   9.307   4.883 -1.0788 -0.4665  0.3315
  909MOL0     C22623  13.084   9.303   4.952 -0.7934 -0.0659  0.5565
  909MOL0    Cl22624  13.209   9.226   4.847 -0.3641  0.4722 -0.1370
  909MOL0     C22625  11.990   9.265   4.646  0.4412 -0.2393 -0.2286
  909MOL0     C22626  11.846   9.251   4.629 -0.4506 -0.3176  0.1007
  909MOL0     O22627  11.605   9.093   4.646  0.2016 -0.2136  0.4081
  909MOL0     C22628  11.334   9.323   4.745 -0.5436  0.8344 -0.9104
  909MOL0     C22629  11.196   9.327   4.762 -0.6062 -0.3585  0.3563
  909MOL0     N22630  10.468   9.029   4.811 -0.0011  0.3530  0.4648
  909MOL0     N22631  10.358   8.978   4.849 -0.2706 -0.5599 -0.0714
  909MOL0     C22632   9.145   8.817   4.534 -0.0583 -0.1523  0.0626
  909MOL0     C22633   9.025   8.840   4.467 -0.1498  0.4589  0.1333
  909MOL0     C22634   8.692   8.987   4.237  0.2969  0.4363 -0.5678
  909MOL0     C22635   8.599   9.060   4.317 -0.1472  1.1300 -0.8686
  909MOL0     C22636   8.472   9.092   4.266 -0.3368  0.5532 -0.3001
  909MOL0     C22637   8.420   9.050   4.146 -0.5171  0.4972  0.3526
  909MOL0     O22638   8.300   9.103   4.106  0.1690 -0.5441 -0.2503
  909MOL0     C22639   8.235   9.046   3.985  0.2244 -0.4441  0.0407
  909MOL0     C22640   8.285   9.119   3.859  0.2322  0.8275 -0.1770
  909MOL0     C22641   8.283   9.010   3.750 -0.6079  0.0076  0.3996
  909MOL0     C22642   8.312   9.056   3.611  1.0215  0.3872  0.3880
  909MOL0     C22643   8.313   8.940   3.526 -0.6016  0.7847 -0.1575
  909MOL0     C22644   8.315   8.852   3.446 -0.0304 -0.2372  0.2614
  909MOL0     C22645   8.518   8.973   4.068  0.8356  0.2483  0.1810
  909MOL0     C22646   8.647   8.941   4.106 -1.1809 -0.8542  0.8833
  909MOL0     C22647   8.734   8.874   4.006 -0.6992  0.4975 -0.4087
  909MOL0     H22648   9.004   9.173   4.530 -0.4157 -0.3555  1.4815
  909MOL0     H22649   9.214   9.142   4.632 -1.3563 -1.3360  2.4054
  909MOL0     H22650   9.432   9.079   4.670  1.0862 -0.4344 -0.3217
  909MOL0     H22651   9.332   9.009   4.807 -2.0232  0.3373 -1.2909
  909MOL0     H22652   9.520   8.856   4.857  0.3254  0.2031  0.2588
  909MOL0     H22653   9.556   9.024   4.883 -0.4685  1.2770 -0.5151
  909MOL0     H22654   9.668   9.048   4.662  2.1532  0.0516  1.2427
  909MOL0     H22655   9.631   8.875   4.629 -3.1935 -1.2519  1.4276
  909MOL0     H22656   9.780   8.989   4.880 -1.1439  0.3426  0.2149
  909MOL0     H22657   9.770   8.820   4.843  0.5849  0.0716 -0.2889
  909MOL0     H22658   9.898   8.823   4.653 -4.2112  1.4518 -1.4939
  909MOL0     H22659   9.898   9.001   4.634 -1.6372 -1.7940 -0.6416
  909MOL0     H22660  10.041   8.853   4.856 -2.1140 -0.9171 -1.1039
  909MOL0     H22661  10.120   8.940   4.721 -0.3162 -0.6820 -0.2649
  909MOL0     H22662   9.948   9.085   4.931 -0.3767  0.1113 -1.9502
  909MOL0     H22663  10.057   9.155   4.806  2.9438  0.8497 -0.6883
  909MOL0     H22664  10.154   9.148   5.033  0.1861 -1.3583  1.1925
  909MOL0     H22665  10.158   8.970   5.018 -1.0621 -1.6394 -2.3015
  909MOL0     H22666  10.299   9.303   4.881  4.7639  1.6551  1.5939
  909MOL0     H22667  10.530   9.297   4.667 -0.5046 -0.6748  0.2606
  909MOL0     H22668  10.534   9.368   4.834  0.1461 -1.1513  0.6170
  909MOL0     H22669  10.713   9.221   4.885  0.0685  2.6577  0.7139
  909MOL0     H22670  10.698   9.154   4.712 -0.3941  0.2907 -0.2466
  909MOL0     H22671  10.729   9.455   4.735  0.2688  0.5998 -2.9651
  909MOL0     H22672  10.777   9.335   4.607 -0.7785 -2.2956 -0.1419
  909MOL0     H22673  10.906   9.327   4.879 -0.8269  1.0872 -0.0094
  909MOL0     H22674  10.951   9.433   4.741 -0.5477  0.2443 -0.8721
  909MOL0     H22675  11.123   9.049   4.590  1.4364 -0.1268 -2.1778
  909MOL0     H22676  11.380   9.034   4.584  1.2750 -0.5418  2.1270
  909MOL0     H22677  11.754   9.446   4.879 -1.0720 -0.9881 -0.6175
  909MOL0     H22678  12.005   9.445   4.921  0.3728 -2.5455  1.2185
  909MOL0     H22679  12.237   9.171   4.756 -0.5690  1.0124 -0.7130
  909MOL0     H22680  12.316   9.275   4.643 -0.5340  0.3386 -0.3601
  909MOL0     H22681  12.431   9.402   4.843  0.9260 -0.5833  1.7970
  909MOL0     H22682  12.366   9.295   4.954  3.4620 -3.4312  0.7600
  909MOL0     H22683  12.467   9.102   4.868  0.6666 -2.0294 -1.5910
  909MOL0     H22684  12.531   9.181   4.731  1.2170  0.3155 -0.2342
  909MOL0     H22685  12.634   9.209   5.021 -0.6139  1.0651  0.2483
  909MOL0     H22686  12.657   9.342   4.909 -1.2799  0.2112 -0.1092
  909MOL0     H22687  12.746   9.203   4.741 -0.7053  3.6667  1.5142
  909MOL0     H22688  12.723   9.054   4.846 -3.3102  0.6952  3.1348
  909MOL0     H22689  12.882   9.144   5.010 -0.2712 -0.4254 -0.6998
  909MOL0     H22690  12.949   9.095   4.869  1.7473  0.1745  2.1893
  909MOL0     H22691  12.904   9.390   4.932 -1.1965 -0.2462 -0.1572
  909MOL0     H22692  12.966   9.338   4.779  0.2908 -1.2181  0.2280
  909MOL0     H22693  13.116   9.407   4.961  1.0969 -0.3138 -1.9910
  909MOL0     H22694  13.066   9.244   5.042  0.7204  0.9098  1.5374
  909MOL0     H22695  12.048   9.220   4.567 -0.4273 -0.0660 -0.9830
  909MOL0     H22696  11.808   9.203   4.540  0.3206  2.8162 -2.0761
  909MOL0     H22697  11.391   9.390   4.808  0.5576 -1.8287  1.1517
  909MOL0     H22698  11.161   9.404   4.831  1.0161  0.4818  0.2871
  909MOL0     H22699   9.183   8.717   4.553  0.5830  0.6912  4.1625
  909MOL0     H22700   8.965   8.756   4.434  0.9885  0.8072 -3.1978
  909MOL0     H22701   8.641   9.090   4.413  0.3450 -1.3173 -0.2552
  909MOL0     H22702   8.421   9.148   4.343  0.9536  2.7574 -0.9686
  909MOL0     H22703   8.129   9.072   3.991  1.0058  3.4847 -0.7498
  909MOL0     H22704   8.254   8.938   3.976  0.6487 -0.2321 -1.9743
  909MOL0     H22705   8.387   9.159   3.865  0.1498  0.7726  2.6085
  909MOL0     H22706   8.219   9.200   3.828 -2.0843  0.1352  2.5223
  909MOL0     H22707   8.186   8.960   3.746 -0.6726 -0.2084  3.2494
  909MOL0     H22708   8.356   8.934   3.780 -0.4492  0.5940  1.5296
  909MOL0     H22709   8.244   9.134   3.575  0.8963  0.3804  0.6052
  909MOL0     H22710   8.414   9.095   3.602  0.9494  1.2262  2.6156
  909MOL0     H22711   8.327   8.779   3.368 -2.3483  0.3091 -0.6969
  909MOL0     H22712   8.492   8.923   3.975 -0.0166 -0.2672  0.6791
  909MOL0     H22713   8.788   8.791   4.053  0.6325  0.7396 -1.4538
  909MOL0     H22714   8.677   8.847   3.917  1.1771  3.2908 -2.6309
  909MOL0     H22715   8.816   8.942   3.982  0.2667  1.1752  3.9456
  910MOL0     O22716   6.171   8.686   5.295 -1.0419 -0.4965  0.2400
  910MOL0     C22717   6.197   8.806   5.271  0.5826  0.4204 -0.3633
  910MOL0     O22718   6.105   8.893   5.220  0.0022  0.4754 -0.1581
  910MOL0     C22719   5.979   8.848   5.185 -0.2553 -0.6525  0.7400
  910MOL0     C22720   5.952   8.821   5.053  0.6624  0.8196  0.3950
  910MOL0     C22721   5.817   8.795   5.004 -0.2680 -0.4646 -0.9797
  910MOL0     C22722   5.717   8.785   5.100 -0.4851  0.9457  0.4206
  910MOL0     O22723   5.588   8.745   5.069  0.7627  0.5120 -0.2867
  910MOL0     C22724   5.553   8.713   4.934  0.6302  0.3037 -0.0410
  910MOL0     C22725   5.408   8.680   4.949 -0.4093 -0.7707 -0.5739
  910MOL0     C22726   5.336   8.623   4.833  0.6731  0.6607  0.2750
  910MOL0     C22727   5.182   8.621   4.860  0.7926 -0.6894 -0.4157
  910MOL0     C22728   5.107   8.554   4.737 -0.4986 -0.1251  0.2401
  910MOL0     C22729   4.954   8.579   4.731  0.3475  0.5855  0.1594
  910MOL0     C22730   4.889   8.527   4.602  0.4944  0.8449  0.0916
  910MOL0     C22731   4.743   8.482   4.624  0.4022  0.4354  0.6320
  910MOL0     N22732   4.666   8.602   4.656 -0.9249 -0.2569  0.2164
  910MOL0     C22733   4.630   8.719   4.582  0.2890 -0.5723 -0.4976
  910MOL0     C22734   4.559   8.802   4.666  1.6044  0.4847  0.5799
  910MOL0     C22735   4.501   8.937   4.637 -0.9002  0.4496  0.1697
  910MOL0     C22736   4.456   9.029   4.744  0.0092 -0.4509 -0.3537
  910MOL0     C22737   4.565   9.130   4.801  0.0424 -0.9677 -0.4151
  910MOL0     C22738   4.707   9.065   4.806 -0.0949  0.0146 -0.0260
  910MOL0     O22739   4.796   9.129   4.896 -0.5548 -0.1052 -0.5098
  910MOL0     C22740   4.928   9.117   4.891 -0.3169 -0.3339 -0.0269
  910MOL0     C22741   5.010   9.217   4.934 -0.4946 -0.7758 -0.1209
  910MOL0     C22742   5.151   9.211   4.920 -0.5832 -0.5765  0.1547
  910MOL0     C22743   5.214   9.094   4.865  0.8553  0.4241  0.7709
  910MOL0     C22744   5.357   9.081   4.832  0.2505 -0.0340  0.1777
  910MOL0     O22745   5.443   9.174   4.872  0.3861  0.1886 -0.0053
  910MOL0     C22746   5.577   9.153   4.842 -0.4297 -0.7354 -0.6735
  910MOL0     C22747   5.669   9.171   4.949  0.5468 -0.1502  0.0914
  910MOL0     C22748   5.802   9.142   4.919  0.0720  0.2243 -0.1419
  910MOL0     C22749   5.850   9.099   4.799  0.0251 -1.6815  0.3293
  910MOL0     O22750   5.983   9.077   4.762 -0.1555 -0.1271  0.2973
  910MOL0     C22751   6.081   9.100   4.867  0.8388  0.2050  0.0733
  910MOL0     C22752   6.220   9.064   4.824 -0.8365 -0.4262  1.3151
  910MOL0     C22753   6.326   9.078   4.929 -0.2931 -0.6658 -0.0891
  910MOL0     C22754   6.469   9.108   4.882 -0.2638  0.8548  1.2082
  910MOL0     C22755   6.535   8.993   4.805  0.4126  0.6699 -0.2716
  910MOL0     C22756   6.674   9.028   4.758  0.1857  0.1434 -0.9062
  910MOL0     C22757   6.710   8.923   4.649 -0.8643 -0.4750 -0.0633
  910MOL0     C22758   6.832   8.980   4.574 -0.5237 -0.0061 -0.2622
  910MOL0    Cl22759   6.983   8.943   4.658 -0.1052 -0.0674 -0.3825
  910MOL0     C22760   5.756   9.098   4.694 -0.0466  0.2460  0.4370
  910MOL0     C22761   5.625   9.128   4.721 -0.4193 -0.1386 -0.2081
  910MOL0     O22762   5.387   8.986   4.761 -0.1199  0.9965  0.7625
  910MOL0     C22763   5.120   8.991   4.830 -0.9656 -0.5420 -0.8692
  910MOL0     C22764   4.986   9.006   4.847 -0.2831  0.6618 -0.4132
  910MOL0     N22765   4.548   8.737   4.786  0.5349  0.1439  0.0034
  910MOL0     N22766   4.604   8.617   4.773  0.0520 -0.1195 -0.0981
  910MOL0     C22767   5.742   8.808   5.235  0.0389 -0.5682 -0.1722
  910MOL0     C22768   5.872   8.846   5.278  0.4037 -0.6129  0.0335
  910MOL0     C22769   6.334   8.869   5.292 -1.2738  0.3133  0.3209
  910MOL0     C22770   6.449   8.789   5.290  0.5477  0.2742 -0.8619
  910MOL0     C22771   6.573   8.847   5.277 -0.1797 -0.1062 -0.4307
  910MOL0     C22772   6.594   8.983   5.273  0.5724  0.6994 -0.3230
  910MOL0     O22773   6.719   9.024   5.240 -0.5413 -0.0315  1.2234
  910MOL0     C22774   6.751   9.164   5.240 -0.6854  0.3071  0.4239
  910MOL0     C22775   6.756   9.226   5.373  1.0686 -0.2435 -0.0916
  910MOL0     C22776   6.877   9.201   5.468 -0.4301 -0.2824 -0.2028
  910MOL0     C22777   6.839   9.229   5.611  0.0894 -0.2633 -0.2403
  910MOL0     C22778   6.930   9.161   5.711  0.1328 -0.3062  0.5481
  910MOL0     C22779   7.020   9.106   5.778 -0.6080 -0.1945  0.1367
  910MOL0     C22780   6.483   9.065   5.283 -0.0029 -0.1614 -0.4589
  910MOL0     C22781   6.355   9.011   5.300  0.6804 -0.1121 -0.0689
  910MOL0     C22782   6.244   9.112   5.300 -0.4588  0.6156  0.8646
  910MOL0     H22783   6.034   8.819   4.981  0.6542  2.4258  0.3063
  910MOL0     H22784   5.805   8.777   4.898  2.5719 -3.2349 -0.9666
  910MOL0     H22785   5.572   8.797   4.866  1.3515 -0.0018 -0.2181
  910MOL0     H22786   5.598   8.621   4.898  4.0937  1.6773  0.3774
  910MOL0     H22787   5.355   8.771   4.981 -1.3571 -1.3201 -0.5258
  910MOL0     H22788   5.401   8.599   5.023  0.0466 -0.7935 -0.5566
  910MOL0     H22789   5.365   8.519   4.815 -0.8931  0.2632 -0.0611
  910MOL0     H22790   5.359   8.682   4.743  1.6357 -0.3077 -0.1391
  910MOL0     H22791   5.165   8.565   4.952 -1.7812 -1.3250 -1.1884
  910MOL0     H22792   5.138   8.721   4.870 -1.8124 -1.8443  0.4683
  910MOL0     H22793   5.161   8.583   4.646  2.0285 -3.2136  0.6053
  910MOL0     H22794   5.121   8.447   4.749  0.8284  0.0975  0.9113
  910MOL0     H22795   4.927   8.517   4.817  3.3100 -2.4676 -0.8955
  910MOL0     H22796   4.942   8.685   4.756  3.4753  1.3281 -0.9662
  910MOL0     H22797   4.945   8.438   4.573  1.6808  1.8642 -0.8314
  910MOL0     H22798   4.898   8.599   4.520  0.2515 -0.2034 -0.8744
  910MOL0     H22799   4.707   8.435   4.532 -0.8771 -0.5475  1.5953
  910MOL0     H22800   4.733   8.414   4.709 -1.9930 -2.8109 -1.9764
  910MOL0     H22801   4.668   8.741   4.483  0.2410  1.2056 -0.1419
  910MOL0     H22802   4.575   8.989   4.576 -0.5272 -0.5017 -0.2202
  910MOL0     H22803   4.418   8.930   4.566  0.2526 -0.8155 -1.1373
  910MOL0     H22804   4.379   9.097   4.708 -1.1075 -0.4508  1.8429
  910MOL0     H22805   4.399   8.982   4.825  0.5989 -0.4815  0.0467
  910MOL0     H22806   4.532   9.158   4.901  1.0937  1.5149 -0.6920
  910MOL0     H22807   4.571   9.222   4.742 -1.8070 -0.8911 -0.5423
  910MOL0     H22808   4.746   9.054   4.704 -2.3176  2.3699 -1.2680
  910MOL0     H22809   4.694   8.963   4.843 -0.3595 -0.7180 -2.0097
  910MOL0     H22810   4.956   9.300   4.978  0.3120 -0.3679  0.1099
  910MOL0     H22811   5.211   9.294   4.955 -1.4602  0.5430 -0.8966
  910MOL0     H22812   5.642   9.211   5.046 -0.8649 -1.8190  0.4323
  910MOL0     H22813   5.870   9.177   4.996 -0.8442  0.2645  0.6709
  910MOL0     H22814   6.069   9.203   4.901 -0.7223 -0.2985  1.1538
  910MOL0     H22815   6.058   9.031   4.948 -1.5710  0.4837 -0.3100
  910MOL0     H22816   6.221   8.963   4.782  2.2147 -0.2033  0.6106
  910MOL0     H22817   6.252   9.124   4.738 -0.9737 -1.3821  0.5756
  910MOL0     H22818   6.285   9.160   4.989  3.0771  0.3080  1.0628
  910MOL0     H22819   6.328   8.985   4.987 -1.5150 -0.4368  0.3467
  910MOL0     H22820   6.526   9.133   4.971 -1.1494  0.1868  1.9808
  910MOL0     H22821   6.462   9.192   4.812  0.4809  0.4610  0.6434
  910MOL0     H22822   6.474   8.955   4.723  0.4230 -0.8655  0.4106
  910MOL0     H22823   6.538   8.910   4.876  2.9944  0.9087  0.0056
  910MOL0     H22824   6.668   9.128   4.715 -0.2143  1.5704  2.2673
  910MOL0     H22825   6.747   9.045   4.837  0.0193 -0.0245 -0.7139
  910MOL0     H22826   6.629   8.909   4.577 -0.9183 -1.9339  0.2514
  910MOL0     H22827   6.735   8.828   4.699  1.5489  0.8938  1.5214
  910MOL0     H22828   6.849   8.933   4.476 -1.1411  1.0640 -0.9040
  910MOL0     H22829   6.814   9.086   4.557 -2.9080 -0.2561  0.2918
  910MOL0     H22830   5.796   9.070   4.597  0.7402  1.9578  0.2250
  910MOL0     H22831   5.558   9.111   4.636 -0.1494  1.4655 -0.7795
  910MOL0     H22832   5.161   8.904   4.780 -0.2005 -1.1900  0.8261
  910MOL0     H22833   4.925   8.916   4.838 -0.7321  0.9404 -0.2030
  910MOL0     H22834   5.661   8.790   5.306 -0.3951  0.7641 -0.3161
  910MOL0     H22835   5.888   8.871   5.382 -1.1772  0.4129  0.0622
  910MOL0     H22836   6.440   8.681   5.285  1.6064  0.1773 -0.9411
  910MOL0     H22837   6.652   8.773   5.266  0.4031  0.5787 -0.9457
  910MOL0     H22838   6.691   9.222   5.170  1.1451  1.5427 -0.2127
  910MOL0     H22839   6.857   9.161   5.210 -0.5975 -0.8208  0.8032
  910MOL0     H22840   6.668   9.181   5.419 -0.1822  2.1900  0.0203
  910MOL0     H22841   6.755   9.334   5.357  0.6601  0.0578  1.7203
  910MOL0     H22842   6.964   9.257   5.432  1.0141 -1.9205  0.6146
  910MOL0     H22843   6.905   9.096   5.458 -0.0849  0.0215 -3.4696
  910MOL0     H22844   6.832   9.337   5.627 -1.1743  0.5266 -4.7291
  910MOL0     H22845   6.737   9.204   5.640  0.2252  0.8644  1.3427
  910MOL0     H22846   7.100   9.066   5.837 -1.0173 -0.2728  0.6477
  910MOL0     H22847   6.494   9.173   5.280 -1.9859  0.2238  2.2308
  910MOL0     H22848   6.273   9.218   5.296 -0.2217  0.5307 -2.0072
  910MOL0     H22849   6.186   9.115   5.207 -0.9136  4.4353  1.0885
  910MOL0     H22850   6.172   9.103   5.382 -1.7423  2.1168 -0.0436
  911MOL0     O22851   2.882   3.898   3.346  0.2584  0.2427  0.6027
  911MOL0     C22852   2.864   3.884   3.467  0.3806 -0.5239 -0.7126
  911MOL0     O22853   2.968   3.874   3.560 -0.0504  0.3111  0.2350
  911MOL0     C22854   3.101   3.854   3.526 -0.4448  0.6924  0.3580
  911MOL0     C22855   3.149   3.765   3.424 -0.0030 -0.4530 -0.2812
  911MOL0     C22856   3.286   3.772   3.398 -0.2365  0.3157  0.2131
  911MOL0     C22857   3.377   3.847   3.475  0.2697  0.8299 -0.2908
  911MOL0     O22858   3.508   3.843   3.440  0.2801 -0.0907  0.2777
  911MOL0     C22859   3.563   3.968   3.394 -0.1290  0.5003 -1.0569
  911MOL0     C22860   3.539   3.990   3.246  0.2531 -0.2713 -1.0429
  911MOL0     C22861   3.410   4.074   3.233 -0.2082  0.1019 -0.2672
  911MOL0     C22862   3.369   4.128   3.088  0.0760  0.6709 -0.4824
  911MOL0     C22863   3.468   4.233   3.017 -0.1307  0.2299  0.1167
  911MOL0     C22864   3.494   4.362   3.082 -0.5633 -0.8546 -0.3661
  911MOL0     C22865   3.385   4.469   3.070  0.2485 -0.6383 -0.3273
  911MOL0     C22866   3.415   4.602   3.134 -0.2491  0.0479  0.3835
  911MOL0     N22867   3.324   4.708   3.082 -0.0095 -0.1477  0.3216
  911MOL0     C22868   3.186   4.709   3.089  0.3641  0.0008 -0.0508
  911MOL0     C22869   3.153   4.808   2.996  0.5483 -0.5349 -1.1544
  911MOL0     C22870   3.019   4.848   2.941 -0.1863 -0.1909  0.0733
  911MOL0     C22871   2.933   4.731   2.914  0.6283 -0.3425  0.1805
  911MOL0     C22872   2.788   4.781   2.881  0.4003  0.5665 -0.4082
  911MOL0     C22873   2.690   4.665   2.860  0.2644  0.3023 -0.2061
  911MOL0     O22874   2.724   4.581   2.750  0.0973  0.0281 -1.0809
  911MOL0     C22875   2.640   4.473   2.723  0.0618  0.1967 -0.1235
  911MOL0     C22876   2.664   4.397   2.611 -0.4358  0.4875 -0.6105
  911MOL0     C22877   2.601   4.270   2.589 -0.3864  0.1622  0.6055
  911MOL0     C22878   2.493   4.234   2.675  0.3001 -0.4648 -0.2359
  911MOL0     C22879   2.425   4.106   2.655 -0.6797  1.1267 -0.0078
  911MOL0     O22880   2.460   4.018   2.546 -0.7048 -0.6162  0.3309
  911MOL0     C22881   2.375   3.914   2.515  0.5285 -0.1717 -0.6133
  911MOL0     C22882   2.433   3.804   2.461  0.3055  0.5314 -0.8798
  911MOL0     C22883   2.354   3.691   2.421  0.1659 -0.3343 -0.6580
  911MOL0     C22884   2.217   3.703   2.419  0.0541  0.0077  0.8682
  911MOL0     O22885   2.147   3.600   2.353 -0.0571  0.4935 -0.5692
  911MOL0     C22886   2.012   3.559   2.366  0.1557  0.3074 -0.2411
  911MOL0     C22887   1.994   3.473   2.487  0.3794  0.5632  0.1369
  911MOL0     C22888   1.865   3.405   2.478 -0.6578  0.9324 -0.3077
  911MOL0     C22889   1.854   3.278   2.564 -0.2901 -0.1673 -0.7371
  911MOL0     C22890   1.714   3.231   2.572 -0.3232  0.8115 -0.2806
  911MOL0     C22891   1.649   3.198   2.436  0.6789  0.6338  0.0452
  911MOL0     C22892   1.501   3.162   2.448  0.1396  0.1174  0.3079
  911MOL0     C22893   1.434   3.160   2.312  0.3500 -0.0876 -0.1339
  911MOL0    Cl22894   1.449   3.302   2.213 -0.2442  0.2302  0.5006
  911MOL0     C22895   2.148   3.815   2.465 -0.6468  1.1195 -0.6499
  911MOL0     C22896   2.234   3.922   2.510  0.2494  1.0537 -0.3500
  911MOL0     O22897   2.335   4.080   2.737  0.5801 -1.0741 -0.2009
  911MOL0     C22898   2.462   4.317   2.784  0.1251 -0.7729  0.0302
  911MOL0     C22899   2.536   4.439   2.804 -0.1436  0.3355  0.2077
  911MOL0     N22900   3.267   4.872   2.950 -0.5323  1.1225 -0.4313
  911MOL0     N22901   3.367   4.805   3.005 -0.5034 -0.3879  0.0990
  911MOL0     C22902   3.323   3.929   3.579 -0.8353  0.2511 -0.2523
  911MOL0     C22903   3.189   3.927   3.603 -0.1510 -0.1599  0.2076
  911MOL0     C22904   2.724   3.898   3.518  0.5944  0.6199  0.3207
  911MOL0     C22905   2.617   3.857   3.427  0.5395  0.1187  0.1039
  911MOL0     C22906   2.479   3.862   3.460  0.4123 -0.1481 -0.4240
  911MOL0     C22907   2.448   3.900   3.591 -0.3297  0.0443  0.8011
  911MOL0     O22908   2.316   3.883   3.637 -0.4014  0.3094  0.0077
  911MOL0     C22909   2.239   3.773   3.603 -0.1443 -0.0228  0.6279
  911MOL0     C22910   2.117   3.747   3.691 -0.6407 -0.4255  0.5296
  911MOL0     C22911   1.992   3.821   3.639  0.3923  0.2903  0.6647
  911MOL0     C22912   1.915   3.748   3.533  0.3289  0.7733  0.4047
  911MOL0     C22913   1.836   3.644   3.594  0.8676  0.3930  0.7402
  911MOL0     C22914   1.751   3.564   3.640 -0.2337 -0.2437  0.1301
  911MOL0     C22915   2.547   3.956   3.671  0.7611  0.3483 -0.0023
  911MOL0     C22916   2.681   3.959   3.637  0.2645 -0.2259  0.2866
  911MOL0     C22917   2.773   4.045   3.723  0.3481 -0.4849  0.0159
  911MOL0     H22918   3.085   3.705   3.360  0.3222 -0.3630 -0.6967
  911MOL0     H22919   3.318   3.720   3.308 -1.1523  2.0056 -1.1421
  911MOL0     H22920   3.528   4.053   3.454 -0.3944  0.5228 -1.2447
  911MOL0     H22921   3.671   3.953   3.407 -0.0185  0.0364 -2.4004
  911MOL0     H22922   3.541   3.908   3.174  0.9476  0.6798 -2.1515
  911MOL0     H22923   3.613   4.066   3.218 -0.3754  2.2597  3.2784
  911MOL0     H22924   3.419   4.161   3.298  0.0004  0.3810 -0.6697
  911MOL0     H22925   3.328   4.008   3.262 -0.5099  0.1815 -0.9103
  911MOL0     H22926   3.353   4.032   3.037  1.2939 -1.3925  2.7104
  911MOL0     H22927   3.272   4.175   3.106  0.2235  0.0946  2.1237
  911MOL0     H22928   3.559   4.175   3.000  0.7837  1.7109 -0.2615
  911MOL0     H22929   3.436   4.255   2.915  1.6331 -0.0621 -0.5400
  911MOL0     H22930   3.516   4.347   3.188 -0.4397  1.2634 -0.0578
  911MOL0     H22931   3.585   4.402   3.036 -0.2233  0.6985  1.5012
  911MOL0     H22932   3.290   4.432   3.109 -0.5048  0.7267 -0.8315
  911MOL0     H22933   3.366   4.475   2.963 -1.2507 -1.7162 -0.1464
  911MOL0     H22934   3.421   4.595   3.243 -1.2184 -0.3897  0.4201
  911MOL0     H22935   3.511   4.631   3.090 -0.5572  2.5373  1.1864
  911MOL0     H22936   3.117   4.641   3.138 -0.7823  1.1924  0.0303
  911MOL0     H22937   2.968   4.922   3.004 -1.4060  0.6958 -1.8780
  911MOL0     H22938   3.040   4.902   2.849 -1.3895 -1.3057 -0.8900
  911MOL0     H22939   2.970   4.680   2.825 -1.4321  0.3870 -1.1630
  911MOL0     H22940   2.931   4.658   2.995  2.5149  0.9808  1.5120
  911MOL0     H22941   2.784   4.850   2.796 -3.6397  2.4245  1.0055
  911MOL0     H22942   2.743   4.838   2.963 -2.1315 -1.0074 -0.5743
  911MOL0     H22943   2.598   4.718   2.834  0.7990  2.9796  2.6874
  911MOL0     H22944   2.666   4.610   2.952 -0.9890  0.3487 -0.4854
  911MOL0     H22945   2.740   4.427   2.539  3.3116 -1.8353  2.0557
  911MOL0     H22946   2.623   4.210   2.502  1.2494  0.7427  0.5889
  911MOL0     H22947   2.539   3.802   2.440  0.6117 -0.2152  0.5511
  911MOL0     H22948   2.387   3.595   2.381  0.8754 -1.1579  1.7601
  911MOL0     H22949   1.943   3.644   2.368  0.1138  0.3438 -1.7402
  911MOL0     H22950   1.985   3.508   2.273  2.0847  1.5587 -1.5924
  911MOL0     H22951   2.068   3.394   2.468 -1.1400 -0.7807 -0.3972
  911MOL0     H22952   2.005   3.528   2.581  2.5817  0.9030 -0.2532
  911MOL0     H22953   1.787   3.474   2.512 -3.1236 -2.1536  0.7462
  911MOL0     H22954   1.860   3.371   2.375  2.5739 -1.6261  0.2032
  911MOL0     H22955   1.873   3.296   2.671  0.1708  0.4105 -0.9154
  911MOL0     H22956   1.918   3.203   2.518  2.1301  1.4652 -0.2052
  911MOL0     H22957   1.663   3.311   2.626  2.8251  1.9738  1.2518
  911MOL0     H22958   1.705   3.144   2.637 -1.2935 -0.2530 -1.7678
  911MOL0     H22959   1.657   3.284   2.369 -0.6435 -0.9392 -2.2917
  911MOL0     H22960   1.695   3.112   2.385 -2.5954 -1.2775  0.0182
  911MOL0     H22961   1.446   3.233   2.510 -1.0332 -0.7482  0.2946
  911MOL0     H22962   1.482   3.065   2.496 -1.0817 -0.5846 -1.4679
  911MOL0     H22963   1.490   3.083   2.258  0.9736  2.4551 -3.4778
  911MOL0     H22964   1.329   3.139   2.334 -0.2834  2.0059 -0.8855
  911MOL0     H22965   2.040   3.813   2.472 -0.5430  1.1994  1.7637
  911MOL0     H22966   2.172   4.004   2.547 -0.5625  1.2880 -2.1057
  911MOL0     H22967   2.384   4.292   2.855 -0.9875  1.0990 -0.4660
  911MOL0     H22968   2.514   4.491   2.897  1.8229  1.7970 -0.0745
  911MOL0     H22969   3.393   3.988   3.637 -0.3166  0.6073 -1.2088
  911MOL0     H22970   3.154   3.989   3.685 -0.3391  3.2196 -2.1949
  911MOL0     H22971   2.638   3.842   3.322  0.4529  0.9900 -0.0512
  911MOL0     H22972   2.400   3.842   3.389  0.1873  1.3928 -0.6504
  911MOL0     H22973   2.291   3.677   3.590  2.7297  1.6276 -1.2174
  911MOL0     H22974   2.198   3.792   3.503 -1.4252  0.8452  1.3035
  911MOL0     H22975   2.140   3.778   3.794 -1.1337  1.4370  0.1249
  911MOL0     H22976   2.095   3.640   3.694 -1.7192 -0.2292  0.0692
  911MOL0     H22977   2.018   3.925   3.614  1.7206 -0.1344  0.1767
  911MOL0     H22978   1.929   3.826   3.729 -1.6690  0.4970 -0.7303
  911MOL0     H22979   1.838   3.811   3.489 -1.5577 -1.1884  0.7330
  911MOL0     H22980   1.976   3.710   3.450  0.1929  1.8106 -0.1841
  911MOL0     H22981   1.692   3.487   3.685  1.6283 -0.3304  2.6889
  911MOL0     H22982   2.515   4.020   3.753 -2.4142  4.2506 -3.7858
  911MOL0     H22983   2.744   4.148   3.702  0.5385 -0.6484 -1.0925
  911MOL0     H22984   2.750   4.017   3.826  0.2515  1.2529  0.4989
  911MOL0     H22985   2.882   4.041   3.710  0.4921 -1.5376  1.2468
  912MOL0     O22986   4.742   5.422   2.730 -0.0885 -0.5002 -0.1316
  912MOL0     C22987   4.736   5.526   2.666  0.6587  0.3773  0.6904
  912MOL0     O22988   4.837   5.578   2.582 -0.1029  0.9817 -0.7591
  912MOL0     C22989   4.968   5.546   2.600  0.6634 -0.2613 -0.1354
  912MOL0     C22990   5.055   5.643   2.647 -0.1809  0.5799 -0.5964
  912MOL0     C22991   5.187   5.605   2.648  0.6201  0.0607 -0.5792
  912MOL0     C22992   5.227   5.468   2.623  0.3776  0.4699 -0.1485
  912MOL0     O22993   5.355   5.433   2.649  0.3772  1.0485 -0.3981
  912MOL0     C22994   5.426   5.415   2.529  0.6537  0.4233  0.6369
  912MOL0     C22995   5.571   5.413   2.567 -0.3823 -0.7797  0.5118
  912MOL0     C22996   5.645   5.550   2.545  0.2210 -0.0686  1.1987
  912MOL0     C22997   5.789   5.547   2.588  0.5731 -0.3933 -0.2236
  912MOL0     C22998   5.863   5.683   2.545  0.3663 -0.2564  0.0278
  912MOL0     C22999   5.985   5.681   2.631  0.2535  0.2294  0.1576
  912MOL0     C23000   6.071   5.809   2.611  0.5208  0.2804  0.6343
  912MOL0     C23001   6.177   5.819   2.724 -0.8517  0.5060  0.0773
  912MOL0     N23002   6.261   5.938   2.737 -0.4499 -0.9470  0.7075
  912MOL0     C23003   6.317   6.012   2.631 -0.0319 -0.1663 -0.9555
  912MOL0     C23004   6.376   6.118   2.687 -0.9713 -0.5438  0.4271
  912MOL0     C23005   6.427   6.248   2.610  0.1741 -0.2041 -0.0986
  912MOL0     C23006   6.587   6.240   2.620  0.6307 -0.7935  0.8587
  912MOL0     C23007   6.668   6.372   2.606  0.2463  0.4391 -0.0490
  912MOL0     C23008   6.813   6.344   2.564  0.3226 -1.5551 -0.5430
  912MOL0     O23009   6.890   6.290   2.672  0.4418  0.2426 -0.0434
  912MOL0     C23010   7.023   6.280   2.664  0.5140 -0.8490  0.5198
  912MOL0     C23011   7.080   6.316   2.543  0.0577 -0.9698  0.2238
  912MOL0     C23012   7.222   6.314   2.535 -0.2581 -0.3591  0.3503
  912MOL0     C23013   7.296   6.278   2.648  0.2431 -0.5532  0.5148
  912MOL0     C23014   7.443   6.271   2.641 -0.3000  0.2587  0.0431
  912MOL0     O23015   7.499   6.302   2.520  0.1513 -0.3136  0.0181
  912MOL0     C23016   7.630   6.336   2.497 -1.2757  0.3301  0.4722
  912MOL0     C23017   7.660   6.419   2.394 -0.0940 -0.3257 -0.0227
  912MOL0     C23018   7.796   6.423   2.347 -0.2308  1.0442 -0.2454
  912MOL0     C23019   7.901   6.365   2.415 -0.0912 -0.2027  0.4683
  912MOL0     O23020   8.031   6.385   2.383  0.5205  0.8122  0.6742
  912MOL0     C23021   8.061   6.352   2.245 -0.1770  0.7911 -0.2849
  912MOL0     C23022   8.208   6.347   2.223 -0.6520 -0.1494 -0.2024
  912MOL0     C23023   8.256   6.494   2.231  0.5114  0.1916  0.2004
  912MOL0     C23024   8.406   6.520   2.230 -0.2409  0.6438  0.1531
  912MOL0     C23025   8.471   6.464   2.101  0.0220 -0.2417  0.6076
  912MOL0     C23026   8.596   6.530   2.078 -0.9131 -0.4241 -0.4464
  912MOL0     C23027   8.709   6.463   2.162  0.0175  0.7090  0.9190
  912MOL0     C23028   8.843   6.479   2.100 -0.4291  0.7960 -0.2166
  912MOL0    Cl23029   8.884   6.645   2.126 -0.2605  0.2256 -0.1225
  912MOL0     C23030   7.863   6.273   2.516  0.0048  0.0208  0.7827
  912MOL0     C23031   7.730   6.255   2.554  1.0466  0.0315 -0.5622
  912MOL0     O23032   7.501   6.234   2.746  0.1068 -0.0441  0.4012
  912MOL0     C23033   7.227   6.248   2.762  0.2851  0.0135  0.0206
  912MOL0     C23034   7.089   6.244   2.775  0.7447  0.6978 -0.3581
  912MOL0     N23035   6.350   6.105   2.824 -0.5800 -0.7697  0.2482
  912MOL0     N23036   6.272   6.012   2.853  0.1359 -0.1389  0.1285
  912MOL0     C23037   5.134   5.375   2.582  0.0839 -0.8301  0.5622
  912MOL0     C23038   5.012   5.419   2.556  0.1247  0.0339  0.2940
  912MOL0     C23039   4.599   5.586   2.649  0.2770 -0.3363  0.5965
  912MOL0     C23040   4.480   5.514   2.646 -0.0815  0.7081  0.1651
  912MOL0     C23041   4.356   5.571   2.659  0.3050  0.2103 -0.6572
  912MOL0     C23042   4.345   5.703   2.661 -0.1643 -0.2744  0.6653
  912MOL0     O23043   4.225   5.764   2.666 -0.5080 -0.2421 -0.9358
  912MOL0     C23044   4.104   5.688   2.672  0.2050  0.5377 -0.7398
  912MOL0     C23045   3.991   5.787   2.686 -0.2230  0.3680  0.2174
  912MOL0     C23046   3.863   5.708   2.683  0.0261  0.3559 -0.2322
  912MOL0     C23047   3.751   5.809   2.727  0.1250 -0.4261 -0.0072
  912MOL0     C23048   3.626   5.729   2.738  0.5132 -0.3050  0.2767
  912MOL0     C23049   3.524   5.668   2.767  0.4940  0.7896 -0.2926
  912MOL0     C23050   4.460   5.784   2.656 -0.8107  0.4530  0.0096
  912MOL0     C23051   4.590   5.730   2.640  0.0948 -0.2220  0.2117
  912MOL0     C23052   4.702   5.819   2.616  0.1175  0.8177  0.3144
  912MOL0     H23053   5.030   5.733   2.702 -0.8606  1.0746 -1.6810
  912MOL0     H23054   5.265   5.666   2.693 -0.1515  2.8894 -2.8042
  912MOL0     H23055   5.399   5.317   2.487 -1.3475  1.5809 -0.9169
  912MOL0     H23056   5.401   5.498   2.462 -0.7216 -0.1004  0.4731
  912MOL0     H23057   5.625   5.336   2.510 -0.2183 -0.0992 -0.2777
  912MOL0     H23058   5.568   5.399   2.675 -0.5953  2.6053  1.0530
  912MOL0     H23059   5.583   5.626   2.594 -3.2927 -1.0857 -1.2559
  912MOL0     H23060   5.635   5.583   2.441  0.0278 -2.8050  0.2734
  912MOL0     H23061   5.779   5.547   2.697 -0.1184 -1.3002 -0.2738
  912MOL0     H23062   5.839   5.458   2.551  0.6050 -0.6473  0.4096
  912MOL0     H23063   5.881   5.696   2.438  1.4335  0.6199  0.2947
  912MOL0     H23064   5.807   5.773   2.572 -0.8207  0.1484 -3.3011
  912MOL0     H23065   5.963   5.674   2.738  2.5920 -2.5626  0.5919
  912MOL0     H23066   6.053   5.598   2.609  0.2019  0.4281 -0.8184
  912MOL0     H23067   6.010   5.900   2.610  1.8798  1.2402  1.8473
  912MOL0     H23068   6.119   5.814   2.512  0.3150  0.5302  0.5454
  912MOL0     H23069   6.119   5.801   2.815 -0.6723 -0.5325  0.0044
  912MOL0     H23070   6.243   5.731   2.722  0.6059  1.5344  0.9393
  912MOL0     H23071   6.288   5.994   2.528 -4.3935 -1.4445  0.2801
  912MOL0     H23072   6.403   6.241   2.504 -0.6134  4.6621 -0.4561
  912MOL0     H23073   6.392   6.339   2.659 -1.7582 -0.4785 -0.9030
  912MOL0     H23074   6.614   6.216   2.723  0.8457  0.5994  1.1493
  912MOL0     H23075   6.624   6.168   2.547 -0.3932  0.8617 -1.4085
  912MOL0     H23076   6.672   6.413   2.708  2.3153 -1.7354  0.8450
  912MOL0     H23077   6.630   6.439   2.529  2.4316  0.0804 -1.5285
  912MOL0     H23078   6.854   6.439   2.529  2.0937 -1.0790  2.5071
  912MOL0     H23079   6.799   6.284   2.473 -3.1487 -0.7615 -0.6921
  912MOL0     H23080   7.019   6.333   2.455 -0.3151 -3.4987 -0.0778
  912MOL0     H23081   7.264   6.345   2.440  1.4354 -2.2812  0.3952
  912MOL0     H23082   7.583   6.467   2.335  0.3892 -0.3946 -0.7351
  912MOL0     H23083   7.828   6.493   2.271  2.1267  1.3848  0.9551
  912MOL0     H23084   8.033   6.249   2.222 -0.3054  0.5704  0.8144
  912MOL0     H23085   8.018   6.422   2.172  0.5921  0.8029 -0.7450
  912MOL0     H23086   8.254   6.297   2.308  2.1091  1.7201 -0.4752
  912MOL0     H23087   8.235   6.292   2.133  0.6378  0.5497 -0.2722
  912MOL0     H23088   8.230   6.548   2.139  2.8441  1.7211  0.3692
  912MOL0     H23089   8.217   6.552   2.315 -1.4224 -1.1579  0.3124
  912MOL0     H23090   8.451   6.475   2.319  1.5232 -2.2152 -1.9905
  912MOL0     H23091   8.428   6.627   2.226 -4.2587  1.5798 -2.0919
  912MOL0     H23092   8.395   6.468   2.022 -2.1143 -0.7528  2.5147
  912MOL0     H23093   8.490   6.357   2.118 -0.6349 -1.1568 -3.4242
  912MOL0     H23094   8.625   6.505   1.976  0.8604 -3.7257  0.7142
  912MOL0     H23095   8.593   6.639   2.090  1.4418 -0.1298 -1.8511
  912MOL0     H23096   8.698   6.355   2.174  0.0006  0.7171  0.9807
  912MOL0     H23097   8.711   6.511   2.261  1.0865 -1.5434  2.0612
  912MOL0     H23098   8.915   6.417   2.155  0.7720  2.2995  0.0089
  912MOL0     H23099   8.832   6.453   1.994 -1.1953 -1.1126  0.2962
  912MOL0     H23100   7.939   6.208   2.559  0.6841  0.4692  0.2771
  912MOL0     H23101   7.707   6.170   2.617 -0.4484 -1.0870 -2.4893
  912MOL0     H23102   7.281   6.240   2.856 -0.4716  1.1052  0.5691
  912MOL0     H23103   7.029   6.215   2.860 -2.2306  4.3326 -0.9844
  912MOL0     H23104   5.162   5.273   2.555 -0.5159 -1.1242  1.0411
  912MOL0     H23105   4.946   5.350   2.503  1.0305  0.0990 -0.9687
  912MOL0     H23106   4.496   5.407   2.640 -0.5037  0.3905  3.1798
  912MOL0     H23107   4.276   5.499   2.640  0.5209  0.4564 -2.7224
  912MOL0     H23108   4.120   5.619   2.756  2.0017  0.2942 -1.2451
  912MOL0     H23109   4.079   5.629   2.583  1.4863 -0.1371 -0.6747
  912MOL0     H23110   3.980   5.851   2.599 -4.3839  0.8039  0.8865
  912MOL0     H23111   3.997   5.832   2.786 -1.9692  2.0839 -0.4077
  912MOL0     H23112   3.857   5.619   2.747  0.1384 -0.0443 -0.7673
  912MOL0     H23113   3.843   5.670   2.582 -3.0148 -0.2329  0.4810
  912MOL0     H23114   3.769   5.855   2.824 -1.2352  2.1565 -0.8992
  912MOL0     H23115   3.738   5.891   2.656  0.5106 -2.3979 -2.5420
  912MOL0     H23116   3.438   5.608   2.790 -0.0514  2.5808  2.9977
  912MOL0     H23117   4.452   5.893   2.656  2.5204  0.8100 -0.3685
  912MOL0     H23118   4.670   5.923   2.610 -0.0363  0.7061 -1.2606
  912MOL0     H23119   4.776   5.811   2.696  1.4995  1.8158 -0.8157
  912MOL0     H23120   4.755   5.795   2.524  5.1665  0.0490  3.0657
  913MOL0     O23121  10.381   5.016   1.792  0.2222  0.0291  0.1879
  913MOL0     C23122  10.323   5.021   1.910  0.2166 -0.1559  0.8114
  913MOL0     O23123  10.374   5.074   2.016 -0.3703 -0.1538  0.2781
  913MOL0     C23124  10.504   5.128   2.005  1.0213 -0.0757 -0.6323
  913MOL0     C23125  10.515   5.264   2.004 -0.6975 -0.1139 -0.5988
  913MOL0     C23126  10.639   5.329   2.040  0.1860 -0.1963  0.7128
  913MOL0     C23127  10.756   5.249   2.046  0.3003  0.2335 -0.0051
  913MOL0     O23128  10.877   5.304   2.083  0.3753 -0.5507  0.8179
  913MOL0     C23129  10.864   5.399   2.192  0.2885 -1.2283  0.0635
  913MOL0     C23130  10.987   5.403   2.279  0.0739  0.6254 -0.5070
  913MOL0     C23131  11.103   5.474   2.204  0.1819 -0.2048 -0.2581
  913MOL0     C23132  11.228   5.497   2.292 -0.4701 -0.4988  0.1377
  913MOL0     C23133  11.339   5.565   2.208  0.7157 -0.4892  0.1849
  913MOL0     C23134  11.484   5.567   2.269  0.2069  0.1450  0.4079
  913MOL0     C23135  11.579   5.624   2.159 -0.2689  0.2954 -0.4069
  913MOL0     C23136  11.726   5.652   2.209 -0.2837 -0.2120 -0.1476
  913MOL0     N23137  11.740   5.752   2.305  0.2284 -0.2270 -0.0367
  913MOL0     C23138  11.694   5.731   2.435  0.0850  0.4215 -0.0847
  913MOL0     C23139  11.718   5.847   2.497  0.5835 -0.4308 -0.7537
  913MOL0     C23140  11.676   5.876   2.641 -0.0244  0.4474  0.3436
  913MOL0     C23141  11.515   5.861   2.658 -0.4195  0.5165 -1.2007
  913MOL0     C23142  11.452   5.909   2.791 -0.3751 -0.0903 -0.4084
  913MOL0     C23143  11.482   6.049   2.819 -0.9755 -0.2554 -0.0873
  913MOL0     O23144  11.416   6.095   2.936 -0.1192 -0.1547 -0.3022
  913MOL0     C23145  11.290   6.141   2.922  0.4658 -0.6743 -0.2557
  913MOL0     C23146  11.245   6.208   3.032 -0.1009 -0.1188 -0.1073
  913MOL0     C23147  11.105   6.256   3.033  0.1827 -0.9496  0.0026
  913MOL0     C23148  11.018   6.243   2.927 -0.3943  0.4825  0.7263
  913MOL0     C23149  10.875   6.268   2.939  0.5632  0.2194 -1.0066
  913MOL0     O23150  10.798   6.282   2.828 -0.0322  0.3256 -0.5708
  913MOL0     C23151  10.681   6.360   2.824  0.7063 -0.8673 -0.1667
  913MOL0     C23152  10.565   6.321   2.891  0.4658 -0.6829  0.4550
  913MOL0     C23153  10.443   6.396   2.864 -0.5009  0.1944 -0.5909
  913MOL0     C23154  10.444   6.513   2.792  1.1042 -1.1915  0.3817
  913MOL0     O23155  10.324   6.583   2.771 -0.4420  0.6016  0.1794
  913MOL0     C23156  10.244   6.581   2.887  0.1811 -0.3270 -0.1691
  913MOL0     C23157  10.138   6.696   2.892 -0.0813 -0.3923 -0.2777
  913MOL0     C23158  10.032   6.681   2.785  0.0164 -0.1482  0.3277
  913MOL0     C23159   9.921   6.782   2.803  0.6876  0.9280 -0.3843
  913MOL0     C23160   9.817   6.764   2.700 -0.0565  0.4581 -0.2553
  913MOL0     C23161   9.687   6.855   2.718 -0.0917  0.2240  0.6355
  913MOL0     C23162   9.589   6.861   2.592 -0.8450  0.4884  0.2894
  913MOL0     C23163   9.574   7.009   2.552 -1.1307  0.7807  0.3207
  913MOL0    Cl23164   9.469   7.093   2.680  0.3418  0.0828  0.0990
  913MOL0     C23165  10.559   6.555   2.733 -0.5211 -0.3070 -0.3911
  913MOL0     C23166  10.678   6.481   2.753  0.3260  0.5607  0.3279
  913MOL0     O23167  10.830   6.281   3.058 -0.1413 -0.2935  0.3395
  913MOL0     C23168  11.077   6.189   2.813 -0.0170  0.0274 -0.2135
  913MOL0     C23169  11.211   6.150   2.809  0.0473  0.5285 -0.2465
  913MOL0     N23170  11.786   5.938   2.412 -0.1368 -0.3907 -0.9073
  913MOL0     N23171  11.807   5.874   2.301 -0.7544  0.0442  0.1660
  913MOL0     C23172  10.746   5.107   2.036  0.9970 -0.3585  0.6433
  913MOL0     C23173  10.618   5.052   2.012  0.2841 -0.0703  0.6154
  913MOL0     C23174  10.198   4.948   1.935  0.0043  0.6850  0.8196
  913MOL0     C23175  10.128   4.981   2.052  0.4792  0.9081 -0.4097
  913MOL0     C23176  10.020   4.910   2.105 -0.4211 -0.4346  0.0761
  913MOL0     C23177   9.974   4.798   2.039 -0.5445  0.2196  0.0393
  913MOL0     O23178   9.876   4.717   2.081 -0.4969  0.1091  0.0311
  913MOL0     C23179   9.800   4.759   2.193  0.3871 -0.0599 -1.0180
  913MOL0     C23180   9.678   4.663   2.200 -0.0890 -0.7631 -0.6335
  913MOL0     C23181   9.723   4.527   2.245  0.5265 -0.1162 -0.0186
  913MOL0     C23182   9.613   4.422   2.244  1.1255 -0.4230  0.2227
  913MOL0     C23183   9.673   4.314   2.308 -0.0867  0.1675 -0.5062
  913MOL0     C23184   9.717   4.225   2.378  0.2011  0.0308  0.5044
  913MOL0     C23185  10.044   4.751   1.918 -0.7175 -0.8971 -0.6469
  913MOL0     C23186  10.161   4.830   1.864  0.3525  0.1338 -0.7681
  913MOL0     C23187  10.228   4.772   1.737  0.4543 -0.0145 -0.7804
  913MOL0     H23188  10.420   5.317   2.000  0.8336  3.2731  2.2754
  913MOL0     H23189  10.634   5.434   2.068 -0.9781 -0.3049  0.9752
  913MOL0     H23190  10.844   5.502   2.161  1.9674 -1.6008 -2.4696
  913MOL0     H23191  10.785   5.360   2.257 -0.6686 -1.9989 -1.5024
  913MOL0     H23192  11.023   5.302   2.302 -2.1584 -0.2413 -0.5393
  913MOL0     H23193  10.974   5.456   2.374 -0.0062  1.6818 -1.0924
  913MOL0     H23194  11.068   5.571   2.168  0.4414  0.7377  1.8740
  913MOL0     H23195  11.131   5.414   2.117  1.4299 -0.0864  0.0515
  913MOL0     H23196  11.203   5.556   2.381  0.8218 -0.3996  0.4557
  913MOL0     H23197  11.259   5.396   2.323  2.0135 -0.2861 -1.4121
  913MOL0     H23198  11.340   5.511   2.113  0.4847 -1.8208  0.9047
  913MOL0     H23199  11.305   5.664   2.177 -0.0337  0.7254  4.2675
  913MOL0     H23200  11.483   5.618   2.366  4.6086 -1.4725  1.5303
  913MOL0     H23201  11.503   5.464   2.300 -2.6334  0.4248  3.7913
  913MOL0     H23202  11.540   5.715   2.112 -0.0312  0.2303 -0.7380
  913MOL0     H23203  11.578   5.558   2.072  2.4387  1.0687 -1.1385
  913MOL0     H23204  11.762   5.554   2.244  0.5616 -0.5601 -1.8898
  913MOL0     H23205  11.795   5.680   2.129  3.4321 -3.8265  1.4288
  913MOL0     H23206  11.648   5.648   2.487 -0.0962  0.4955 -0.1244
  913MOL0     H23207  11.725   5.801   2.703 -1.9112 -1.2468 -0.1318
  913MOL0     H23208  11.711   5.978   2.661 -0.9484  0.4045  2.3753
  913MOL0     H23209  11.463   5.919   2.581 -4.3616  0.6749  1.2632
  913MOL0     H23210  11.481   5.759   2.638  1.0775  0.2097 -2.2784
  913MOL0     H23211  11.482   5.852   2.879 -2.8612  0.4898  0.9146
  913MOL0     H23212  11.345   5.889   2.777 -0.2822 -0.8389 -0.1300
  913MOL0     H23213  11.467   6.113   2.731  2.6706 -1.1103 -1.5381
  913MOL0     H23214  11.589   6.067   2.837 -0.9552 -0.7512  0.3027
  913MOL0     H23215  11.297   6.215   3.127  1.0620  1.4418 -0.8232
  913MOL0     H23216  11.079   6.299   3.130  2.8321 -0.5220  0.6064
  913MOL0     H23217  10.558   6.233   2.953 -3.0573 -0.3022  0.8428
  913MOL0     H23218  10.351   6.363   2.910  0.6728 -0.0096  1.7561
  913MOL0     H23219  10.180   6.493   2.895 -1.3484  0.8865  2.3105
  913MOL0     H23220  10.305   6.592   2.978 -1.0953 -0.6386  0.7581
  913MOL0     H23221  10.089   6.686   2.990 -0.5103 -2.7928 -0.6920
  913MOL0     H23222  10.193   6.789   2.877 -1.2048  0.0734 -1.6966
  913MOL0     H23223  10.084   6.707   2.692 -0.7709  0.6666  0.1103
  913MOL0     H23224   9.997   6.578   2.776 -1.8865  0.4041  1.0338
  913MOL0     H23225   9.968   6.880   2.790  2.9917 -0.2085 -0.9718
  913MOL0     H23226   9.890   6.778   2.909  1.2932 -1.0723 -0.2508
  913MOL0     H23227   9.776   6.663   2.698  1.7687 -0.3264 -1.1298
  913MOL0     H23228   9.860   6.783   2.601 -4.4981  2.8190 -1.9952
  913MOL0     H23229   9.626   6.813   2.799  0.3940 -1.9227 -0.0272
  913MOL0     H23230   9.711   6.957   2.749 -1.0577  0.0255  2.1579
  913MOL0     H23231   9.491   6.822   2.622 -0.9746  2.7604  3.2877
  913MOL0     H23232   9.630   6.805   2.507  2.3970  2.2202  0.5436
  913MOL0     H23233   9.673   7.054   2.545  0.4834 -2.6200 -1.3197
  913MOL0     H23234   9.540   7.009   2.448 -0.0059 -1.0031 -0.0964
  913MOL0     H23235  10.564   6.648   2.677  2.5827 -1.3511 -2.1435
  913MOL0     H23236  10.770   6.517   2.708  0.7211  0.1924  0.8245
  913MOL0     H23237  11.009   6.169   2.731  2.1519  2.1168 -2.6594
  913MOL0     H23238  11.243   6.114   2.712 -1.4631  0.6103 -0.8157
  913MOL0     H23239  10.828   5.041   2.063 -1.0423 -2.4522  2.1222
  913MOL0     H23240  10.600   4.947   2.033 -1.7627 -0.1904 -1.4226
  913MOL0     H23241  10.155   5.072   2.103  1.8655  0.5359 -0.4414
  913MOL0     H23242   9.978   4.939   2.201 -0.2215  0.4324 -0.0905
  913MOL0     H23243   9.767   4.862   2.173  1.9242  0.8471  0.7543
  913MOL0     H23244   9.855   4.745   2.287  1.3036 -1.6862 -1.7626
  913MOL0     H23245   9.629   4.647   2.103 -0.4723 -1.6895 -0.3041
  913MOL0     H23246   9.605   4.713   2.264  1.5666  1.5341 -0.4363
  913MOL0     H23247   9.757   4.537   2.348  1.2243  2.9028 -0.4348
  913MOL0     H23248   9.811   4.501   2.184  0.6060  0.1526 -0.0176
  913MOL0     H23249   9.520   4.458   2.289  0.1150 -2.4548 -0.1396
  913MOL0     H23250   9.590   4.393   2.141  0.0010 -1.8767  0.8397
  913MOL0     H23251   9.749   4.143   2.439 -0.5973 -1.0408 -0.4753
  913MOL0     H23252  10.009   4.657   1.876  0.1021 -1.7558  0.5269
  913MOL0     H23253  10.337   4.776   1.745  0.3733 -1.0887  1.6852
  913MOL0     H23254  10.209   4.665   1.722  0.3156  0.2188 -2.4374
  913MOL0     H23255  10.188   4.827   1.651 -2.5519 -1.5668 -0.5093
  914MOL0     O23256   7.142   0.145   0.688 -0.9042 -0.0552  0.0746
  914MOL0     C23257   7.155   0.240   0.767 -1.0008 -0.3311  1.1244
  914MOL0     O23258   7.273   0.315   0.780 -0.1776  0.4795 -0.1331
  914MOL0     C23259   7.371   0.319   0.681  0.1709  0.6633 -0.3199
  914MOL0     C23260   7.501   0.364   0.718 -0.3159  0.2333  0.4494
  914MOL0     C23261   7.614   0.385   0.633 -0.2041 -0.7055 -0.0640
  914MOL0     C23262   7.582   0.378   0.497 -0.4095 -0.1223  0.6951
  914MOL0     O23263   7.684   0.388   0.400  0.1085  0.3928  0.4608
  914MOL0     C23264   7.822   0.366   0.431 -0.0312 -0.1908  0.2486
  914MOL0     C23265   7.907   0.375   0.306 -0.1268 -0.3130 -0.5435
  914MOL0     C23266   8.041   0.307   0.344  0.6278 -0.1445 -0.2502
  914MOL0     C23267   8.152   0.359   0.251 -0.7773  0.1047 -0.6247
  914MOL0     C23268   8.294   0.297   0.285  0.3344  0.3626  1.0106
  914MOL0     C23269   8.399   0.353   0.189  1.3153  0.1141 -0.1480
  914MOL0     C23270   8.536   0.303   0.224  0.1467 -0.1082  0.6626
  914MOL0     C23271   8.645   0.355   0.133  0.5751  0.0274  0.2331
  914MOL0     N23272   8.768   0.364   0.209 -0.2975  0.3664 -0.0021
  914MOL0     C23273   8.849   0.264   0.264  0.6154 -0.5305 -0.2632
  914MOL0     C23274   8.949   0.326   0.340 -0.1813  0.0203  0.8580
  914MOL0     C23275   9.055   0.259   0.421 -0.9683  0.6323 -0.3235
  914MOL0     C23276   9.202   0.288   0.361 -0.1703 -0.0785 -0.3137
  914MOL0     C23277   9.253   0.431   0.383 -0.6166 -0.0055  0.0594
  914MOL0     C23278   9.402   0.444   0.352 -1.0837  0.5323 -0.4258
  914MOL0     O23279   9.455   0.573   0.384 -0.0080  0.1022  0.5971
  914MOL0     C23280   9.572   0.605   0.319  0.9810 -0.2792 -0.3503
  914MOL0     C23281   9.623   0.729   0.365 -0.5764 -0.0646 -0.8715
  914MOL0     C23282   9.740   0.785   0.315 -0.9240  0.1026 -0.4598
  914MOL0     C23283   9.820   0.701   0.228 -0.0741  0.0632  0.1497
  914MOL0     C23284   9.953   0.749   0.173  0.8150 -0.2859  1.2649
  914MOL0     O23285  10.035   0.650   0.141  0.3136  0.2516 -0.4990
  914MOL0     C23286  10.157   0.674   0.072  0.2152 -0.7149 -0.6070
  914MOL0     C23287  10.221   0.552   0.052  0.0115 -1.0456 -0.1011
  914MOL0     C23288  10.341   0.545  -0.017 -0.8955 -0.4641 -0.3715
  914MOL0     C23289  10.400   0.666  -0.056  0.2302  0.3333  0.1514
  914MOL0     O23290  10.521   0.654  -0.114  0.5936 -0.5107  0.4676
  914MOL0     C23291  10.614   0.755  -0.075  0.2299  0.5664 -0.7418
  914MOL0     C23292  10.757   0.706  -0.095 -0.0889  0.2701 -0.4218
  914MOL0     C23293  10.856   0.832  -0.082  0.3190 -0.1023 -0.2997
  914MOL0     C23294  11.002   0.777  -0.075 -0.3148 -0.6646  1.3268
  914MOL0     C23295  11.099   0.896  -0.073 -0.3166  0.1784  0.0084
  914MOL0     C23296  11.239   0.838  -0.114 -0.3810 -0.0125  0.2379
  914MOL0     C23297  11.344   0.950  -0.136  0.7210 -0.3322 -0.3529
  914MOL0     C23298  11.492   0.903  -0.158  0.0020 -0.7480  0.4080
  914MOL0    Cl23299  11.551   0.837  -0.004 -0.2770  0.3577 -0.1418
  914MOL0     C23300  10.343   0.792  -0.032  0.6144 -1.0028  0.3151
  914MOL0     C23301  10.219   0.797   0.040  1.1338  0.2375 -0.7475
  914MOL0     O23302   9.980   0.864   0.193  0.3648 -0.2325  0.1376
  914MOL0     C23303   9.782   0.569   0.201  0.3278 -0.5106  0.0222
  914MOL0     C23304   9.661   0.527   0.251 -0.1530 -0.8950  0.1656
  914MOL0     N23305   8.924   0.460   0.342 -0.9147  0.0288  0.2233
  914MOL0     N23306   8.823   0.475   0.260  0.8149 -0.1645 -0.4632
  914MOL0     C23307   7.451   0.346   0.458  0.4985 -0.4852 -0.0686
  914MOL0     C23308   7.349   0.310   0.546 -0.5994 -0.5832 -0.2698
  914MOL0     C23309   7.056   0.261   0.882 -0.0009  0.4343  0.4739
  914MOL0     C23310   7.094   0.342   0.986  0.2955 -0.0552 -0.1653
  914MOL0     C23311   7.005   0.373   1.087 -0.2570 -0.3473  0.0554
  914MOL0     C23312   6.876   0.314   1.089  0.2868 -0.0851  0.3125
  914MOL0     O23313   6.805   0.343   1.198 -0.3475  0.6125  0.1944
  914MOL0     C23314   6.665   0.332   1.194  0.2985  0.4002 -0.0118
  914MOL0     C23315   6.606   0.408   1.317 -0.1270  0.8700  0.0277
  914MOL0     C23316   6.457   0.404   1.343  1.3132  0.3048 -0.2839
  914MOL0     C23317   6.412   0.271   1.404  0.1639  0.1200 -0.4137
  914MOL0     C23318   6.269   0.280   1.417  0.4596  0.7732 -0.5818
  914MOL0     C23319   6.149   0.276   1.439 -0.7474 -0.4843 -0.2444
  914MOL0     C23320   6.838   0.246   0.972 -0.1166  0.2600  0.3341
  914MOL0     C23321   6.928   0.209   0.874 -0.2176  0.2782  0.6033
  914MOL0     C23322   6.860   0.116   0.764 -0.5748  0.0219  0.0920
  914MOL0     H23323   7.521   0.366   0.825  2.1595 -1.9494  0.1471
  914MOL0     H23324   7.701   0.435   0.675 -0.6447  0.5080 -0.5723
  914MOL0     H23325   7.859   0.448   0.493  2.5445  1.3785 -3.0141
  914MOL0     H23326   7.839   0.268   0.478 -1.7302 -0.9119 -0.5417
  914MOL0     H23327   7.924   0.478   0.273  1.0140 -0.8585 -1.7246
  914MOL0     H23328   7.858   0.319   0.226 -0.8423  0.9332 -1.0161
  914MOL0     H23329   8.017   0.201   0.337 -0.6310  0.0426  0.7938
  914MOL0     H23330   8.071   0.331   0.447 -0.2987 -0.9319  0.2186
  914MOL0     H23331   8.132   0.347   0.145  0.4158  0.5761 -0.9229
  914MOL0     H23332   8.158   0.466   0.273  1.5608 -0.2434  0.8617
  914MOL0     H23333   8.319   0.327   0.387  2.8214  0.3479  0.4667
  914MOL0     H23334   8.288   0.188   0.288 -4.0006  0.3613 -0.0504
  914MOL0     H23335   8.372   0.320   0.088  3.0779  2.6582 -1.5668
  914MOL0     H23336   8.389   0.462   0.194 -2.1966  0.0175 -2.2002
  914MOL0     H23337   8.546   0.195   0.243 -1.3361 -0.0609  1.9297
  914MOL0     H23338   8.547   0.338   0.327 -1.7056  2.3276  0.1122
  914MOL0     H23339   8.654   0.296   0.041 -1.0093  0.6199 -0.3418
  914MOL0     H23340   8.617   0.453   0.094  1.5722 -0.2371 -1.1985
  914MOL0     H23341   8.842   0.157   0.245 -1.0592 -0.5274  0.1865
  914MOL0     H23342   9.042   0.307   0.519  4.2866  0.4080  0.7417
  914MOL0     H23343   9.041   0.150   0.421  1.1772  0.3139 -0.1985
  914MOL0     H23344   9.273   0.223   0.413 -0.1552  0.1567 -0.0346
  914MOL0     H23345   9.199   0.266   0.254  2.1062  0.9007 -0.6358
  914MOL0     H23346   9.243   0.455   0.489 -0.1417 -0.0929  0.1265
  914MOL0     H23347   9.187   0.494   0.323  0.9969 -0.0155 -1.8292
  914MOL0     H23348   9.430   0.417   0.250  2.9005 -1.4076  0.9859
  914MOL0     H23349   9.456   0.374   0.416 -2.5422 -0.0183  0.2607
  914MOL0     H23350   9.569   0.786   0.440  1.5183 -0.9223  1.4493
  914MOL0     H23351   9.770   0.887   0.335  3.0073 -1.0336  0.3149
  914MOL0     H23352  10.178   0.459   0.087 -2.3079  0.8551  2.4739
  914MOL0     H23353  10.395   0.451  -0.030 -2.4202 -1.2977 -0.8457
  914MOL0     H23354  10.601   0.843  -0.137 -0.1487  0.1148 -1.3125
  914MOL0     H23355  10.599   0.786   0.029  1.4869 -1.3008  0.0741
  914MOL0     H23356  10.779   0.636  -0.014  4.3731  1.1746 -0.6011
  914MOL0     H23357  10.766   0.654  -0.191  3.4790  1.5214 -0.9223
  914MOL0     H23358  10.860   0.884  -0.178  4.8850 -1.0919 -0.9172
  914MOL0     H23359  10.834   0.894   0.005 -0.5357 -0.8160 -0.0039
  914MOL0     H23360  11.016   0.711  -0.160 -0.4439  0.9863 -0.0351
  914MOL0     H23361  11.029   0.711   0.007  5.1313 -0.3499  0.1408
  914MOL0     H23362  11.111   0.935   0.029  0.0709 -0.6373  0.2734
  914MOL0     H23363  11.071   0.972  -0.147 -0.6048  0.1922  0.1277
  914MOL0     H23364  11.279   0.774  -0.035  1.8813  0.7758 -0.2111
  914MOL0     H23365  11.232   0.781  -0.207  1.6100 -0.4147  0.2852
  914MOL0     H23366  11.344   1.022  -0.054  0.9944  0.8923 -1.4015
  914MOL0     H23367  11.308   1.014  -0.217 -2.0855  1.4530  2.0775
  914MOL0     H23368  11.503   0.829  -0.238  0.4488  0.6747 -0.8992
  914MOL0     H23369  11.551   0.989  -0.189 -0.2332  0.1591  2.3538
  914MOL0     H23370  10.388   0.887  -0.059  0.3360 -0.1042  2.7436
  914MOL0     H23371  10.169   0.890   0.065  1.2194 -0.4585  2.4719
  914MOL0     H23372   9.845   0.505   0.140  3.1508  2.7714 -0.8201
  914MOL0     H23373   9.631   0.433   0.205 -3.5076  1.0842 -2.0732
  914MOL0     H23374   7.434   0.358   0.352  1.5878  0.8042 -0.1303
  914MOL0     H23375   7.253   0.287   0.501 -2.7011  2.2587  2.4449
  914MOL0     H23376   7.196   0.378   0.990  0.4629 -0.6330  1.2756
  914MOL0     H23377   7.031   0.422   1.180  2.3179 -1.4801  0.0119
  914MOL0     H23378   6.626   0.230   1.203  1.2533 -0.2812 -2.6066
  914MOL0     H23379   6.616   0.385   1.112  0.9872  1.1431  0.0480
  914MOL0     H23380   6.629   0.514   1.303 -0.4353  1.0787  1.0095
  914MOL0     H23381   6.668   0.387   1.405  0.3649  3.1114  0.2689
  914MOL0     H23382   6.404   0.424   1.250  2.1150  0.8403 -0.6333
  914MOL0     H23383   6.435   0.471   1.426 -1.7419 -2.6638  1.5365
  914MOL0     H23384   6.438   0.193   1.332  0.2767  0.9642 -1.3116
  914MOL0     H23385   6.455   0.250   1.502 -1.2279  1.3884  0.5033
  914MOL0     H23386   6.044   0.275   1.459 -0.6612 -1.2816  0.2077
  914MOL0     H23387   6.735   0.211   0.979 -0.8475  2.0131 -1.0216
  914MOL0     H23388   6.832   0.184   0.683  0.5120 -0.4187 -0.6805
  914MOL0     H23389   6.927   0.040   0.722  2.4779  2.3386  0.4392
  914MOL0     H23390   6.771   0.060   0.795 -0.3071 -0.7524 -0.4891
  915MOL0     O23391   6.454   8.295   3.079  0.2455 -0.1451  0.5434
  915MOL0     C23392   6.391   8.189   3.072 -0.3825  0.0021  0.2978
  915MOL0     O23393   6.449   8.067   3.085 -0.2103  0.6595 -0.4552
  915MOL0     C23394   6.582   8.068   3.114  0.6866  0.2754  0.4561
  915MOL0     C23395   6.688   8.036   3.027  0.4274  0.6935 -0.0898
  915MOL0     C23396   6.821   8.048   3.059  0.6513  0.6620 -1.0012
  915MOL0     C23397   6.852   8.082   3.191  0.5646 -0.4634  0.5794
  915MOL0     O23398   6.992   8.079   3.222  0.4089  0.6671 -0.6506
  915MOL0     C23399   7.038   8.186   3.302 -0.3191  0.4255 -0.0139
  915MOL0     C23400   7.176   8.154   3.359  0.1073  0.2719  0.1279
  915MOL0     C23401   7.223   8.279   3.434 -0.5233 -0.0857 -0.0816
  915MOL0     C23402   7.362   8.258   3.495 -0.0975  0.4287  0.6555
  915MOL0     C23403   7.403   8.369   3.587  0.0017 -0.1764 -0.5148
  915MOL0     C23404   7.533   8.338   3.663  0.4074 -0.9112 -0.6748
  915MOL0     C23405   7.653   8.315   3.569  0.7441  0.1886  0.7098
  915MOL0     C23406   7.768   8.228   3.627 -0.2345 -1.2123 -0.2615
  915MOL0     N23407   7.802   8.249   3.767  0.5258  0.8338  0.8189
  915MOL0     C23408   7.748   8.158   3.858 -0.0035 -0.0621 -0.3345
  915MOL0     C23409   7.819   8.181   3.970  0.3196 -0.6742 -0.5229
  915MOL0     C23410   7.788   8.135   4.109 -0.2976 -0.3570 -0.2091
  915MOL0     C23411   7.894   8.045   4.183  0.6185  0.4974  0.3130
  915MOL0     C23412   8.033   8.091   4.219 -0.4848 -0.8854  0.0217
  915MOL0     C23413   8.034   8.215   4.317 -0.1942 -0.2107 -0.0749
  915MOL0     O23414   8.152   8.205   4.400  0.2739 -0.6932  0.1677
  915MOL0     C23415   8.184   8.315   4.472 -0.0438  0.1956  0.4918
  915MOL0     C23416   8.313   8.303   4.529 -0.8000 -0.2060 -0.1930
  915MOL0     C23417   8.354   8.405   4.620 -0.6138 -0.3820  0.3244
  915MOL0     C23418   8.273   8.508   4.661  0.2737 -0.3316 -0.9554
  915MOL0     C23419   8.311   8.585   4.789 -1.1412  0.6337  0.0061
  915MOL0     O23420   8.223   8.639   4.867 -0.1616  0.2765  0.3109
  915MOL0     C23421   8.262   8.728   4.967 -0.3341 -0.3365  0.3040
  915MOL0     C23422   8.261   8.682   5.100 -0.3073 -0.3189 -0.2689
  915MOL0     C23423   8.331   8.762   5.196 -0.0971 -0.2403  0.7576
  915MOL0     C23424   8.386   8.886   5.159  0.4590  0.0525  0.4750
  915MOL0     O23425   8.462   8.969   5.239  0.0425  0.3857  0.1416
  915MOL0     C23426   8.429   8.970   5.376 -0.0678 -0.0484 -0.7371
  915MOL0     C23427   8.506   9.078   5.445  0.4809  0.0566  0.5239
  915MOL0     C23428   8.647   9.021   5.472 -0.1110  0.5363 -0.1522
  915MOL0     C23429   8.740   9.125   5.535 -0.5911  0.6118  0.6474
  915MOL0     C23430   8.889   9.108   5.483  0.0291  0.4604 -0.4463
  915MOL0     C23431   8.987   9.219   5.534  0.4146 -0.0490  0.3416
  915MOL0     C23432   9.118   9.203   5.477 -0.2226  0.1267  0.2600
  915MOL0     C23433   9.219   9.286   5.546  0.3851 -0.0952 -0.3664
  915MOL0    Cl23434   9.347   9.350   5.442  0.1453  0.3258  0.2935
  915MOL0     C23435   8.387   8.918   5.025  0.0553 -0.2424 -0.5741
  915MOL0     C23436   8.317   8.845   4.929 -0.0550  0.3316  0.0770
  915MOL0     O23437   8.433   8.570   4.819 -0.7901 -0.5521 -1.0394
  915MOL0     C23438   8.144   8.520   4.611  0.0011  0.2221 -0.6164
  915MOL0     C23439   8.101   8.424   4.512  0.7183  0.1326 -0.1994
  915MOL0     N23440   7.905   8.282   3.942  0.8441  0.5754  0.0589
  915MOL0     N23441   7.902   8.319   3.823  0.4842  1.0528 -0.7288
  915MOL0     C23442   6.757   8.129   3.274  0.5321  0.8202  0.3814
  915MOL0     C23443   6.625   8.117   3.239  0.0901  0.6561  0.3500
  915MOL0     C23444   6.246   8.198   3.038  0.1744  0.0948  0.4668
  915MOL0     C23445   6.191   8.083   2.987  1.1906  0.3767 -0.2601
  915MOL0     C23446   6.050   8.079   2.951  0.4433  1.1373 -0.3198
  915MOL0     C23447   5.974   8.193   2.956 -0.2999 -0.0352 -0.2153
  915MOL0     O23448   5.841   8.206   2.937  0.2613  0.0951 -0.3822
  915MOL0     C23449   5.765   8.087   2.928 -0.1427 -0.2681 -0.0534
  915MOL0     C23450   5.635   8.121   2.872 -0.4707  0.5425 -0.0788
  915MOL0     C23451   5.571   8.244   2.933 -0.1292  0.3783  0.2242
  915MOL0     C23452   5.415   8.244   2.928 -0.7241 -0.3966  0.4704
  915MOL0     C23453   5.347   8.348   2.993 -0.4073  0.1778 -0.0657
  915MOL0     C23454   5.290   8.440   3.052 -0.0186  0.8674  0.9749
  915MOL0     C23455   6.037   8.311   3.000  0.2871  0.0213 -0.1394
  915MOL0     C23456   6.168   8.320   3.039  0.0741 -0.8154 -0.0109
  915MOL0     C23457   6.212   8.453   3.097 -0.5712 -0.3222  0.1818
  915MOL0     H23458   6.676   8.008   2.923 -1.3083  2.7350 -0.4935
  915MOL0     H23459   6.895   8.004   2.993 -0.1009  0.8666 -2.0062
  915MOL0     H23460   7.041   8.278   3.243  1.4339  1.5016  1.6379
  915MOL0     H23461   6.975   8.196   3.391 -1.9785  1.5962 -1.2585
  915MOL0     H23462   7.246   8.114   3.285 -0.0894  2.0453 -1.0806
  915MOL0     H23463   7.166   8.073   3.432 -1.1192  1.2627  1.0945
  915MOL0     H23464   7.153   8.322   3.507 -0.5373 -0.0052 -0.1416
  915MOL0     H23465   7.233   8.359   3.360 -0.5512  0.5902  0.6339
  915MOL0     H23466   7.373   8.166   3.553  2.1961 -0.2339 -0.6741
  915MOL0     H23467   7.434   8.241   3.414  1.2351  1.7307  1.5348
  915MOL0     H23468   7.416   8.462   3.532  0.5301  0.0125 -0.0859
  915MOL0     H23469   7.320   8.381   3.657 -1.4929 -1.4572 -2.0002
  915MOL0     H23470   7.550   8.422   3.731 -0.2694  1.7258 -3.5206
  915MOL0     H23471   7.522   8.249   3.725  0.0585 -0.0052  0.5898
  915MOL0     H23472   7.695   8.409   3.533  1.8437 -0.5632 -0.0505
  915MOL0     H23473   7.615   8.256   3.485 -1.8608 -0.0593  1.9392
  915MOL0     H23474   7.749   8.121   3.610 -0.4447 -1.0097 -1.3430
  915MOL0     H23475   7.857   8.249   3.568  0.1547  0.1921  0.7923
  915MOL0     H23476   7.664   8.090   3.849 -2.5191  2.7868 -0.2829
  915MOL0     H23477   7.773   8.220   4.177 -2.9036 -1.0316  0.1530
  915MOL0     H23478   7.700   8.072   4.097  0.8721 -1.7453 -2.1115
  915MOL0     H23479   7.854   7.997   4.273  2.9086 -0.2046  1.0262
  915MOL0     H23480   7.917   7.966   4.112  0.4448  1.5604 -0.9709
  915MOL0     H23481   8.095   8.116   4.133 -0.5825 -1.4279 -0.2112
  915MOL0     H23482   8.085   8.005   4.262 -1.8804  0.3599  4.9295
  915MOL0     H23483   7.951   8.200   4.387 -0.0426 -0.2129  0.1027
  915MOL0     H23484   8.036   8.312   4.266  1.2567  0.0251  0.3997
  915MOL0     H23485   8.372   8.217   4.499 -1.8406 -0.6978 -0.9258
  915MOL0     H23486   8.455   8.379   4.652 -0.7570 -1.0580  0.2417
  915MOL0     H23487   8.218   8.586   5.126  1.2203 -0.9216  0.1457
  915MOL0     H23488   8.353   8.717   5.293  2.0000  1.8066  1.3098
  915MOL0     H23489   8.324   8.986   5.402  0.0913  1.6813 -1.0705
  915MOL0     H23490   8.468   8.876   5.416  0.1238  0.6152  0.6788
  915MOL0     H23491   8.521   9.168   5.384  3.6317 -1.5405 -1.3483
  915MOL0     H23492   8.450   9.104   5.535  0.0820  2.4380 -0.3129
  915MOL0     H23493   8.649   8.939   5.544 -1.1459  1.1714  0.6295
  915MOL0     H23494   8.680   8.980   5.376 -2.5274  1.7343 -1.5919
  915MOL0     H23495   8.743   9.114   5.644 -3.1412 -1.6253  0.6142
  915MOL0     H23496   8.703   9.226   5.515 -3.9784 -0.9494 -2.2067
  915MOL0     H23497   8.883   9.090   5.376 -1.9506 -2.9387  0.0832
  915MOL0     H23498   8.927   9.017   5.531  1.0223  1.9182  1.7131
  915MOL0     H23499   8.952   9.318   5.500  0.8791 -0.7651 -2.5021
  915MOL0     H23500   8.983   9.229   5.643 -0.6813  2.1261  0.1725
  915MOL0     H23501   9.104   9.234   5.373  0.0963  2.3316  0.8277
  915MOL0     H23502   9.150   9.098   5.477 -1.6386 -0.3564 -1.4886
  915MOL0     H23503   9.178   9.373   5.598 -0.8939 -1.5512  1.1632
  915MOL0     H23504   9.258   9.237   5.635  1.0121 -0.1300 -0.6505
  915MOL0     H23505   8.450   9.003   5.000 -0.2826  0.7337  1.6930
  915MOL0     H23506   8.308   8.882   4.827 -1.7093 -1.2730 -0.4015
  915MOL0     H23507   8.069   8.586   4.655  0.5229 -1.5986  3.5227
  915MOL0     H23508   8.000   8.430   4.472 -0.3188  0.4357  2.2890
  915MOL0     H23509   6.783   8.160   3.374  3.9639 -1.8181  0.5070
  915MOL0     H23510   6.559   8.155   3.316 -0.4298 -0.8507  0.6714
  915MOL0     H23511   6.244   7.989   2.993  0.2961 -0.2064 -1.1332
  915MOL0     H23512   5.997   7.991   2.916 -3.8655  3.3001  0.0637
  915MOL0     H23513   5.749   8.043   3.027 -2.2939  0.2005 -0.1451
  915MOL0     H23514   5.805   8.012   2.858  2.7466  0.7107  0.4105
  915MOL0     H23515   5.564   8.040   2.889 -1.5146  0.9251 -2.2910
  915MOL0     H23516   5.635   8.129   2.763 -1.4796  1.4553 -0.0308
  915MOL0     H23517   5.611   8.333   2.884 -1.2330  2.2266  2.4646
  915MOL0     H23518   5.604   8.261   3.036 -1.7974  1.7700  0.5926
  915MOL0     H23519   5.383   8.237   2.823 -0.6306  0.6011  0.3690
  915MOL0     H23520   5.385   8.158   2.989  0.3439 -2.6008 -1.8984
  915MOL0     H23521   5.232   8.516   3.101 -0.4977 -1.1519  3.7794
  915MOL0     H23522   5.973   8.398   3.010 -1.3594 -1.0755 -0.6989
  915MOL0     H23523   6.257   8.510   3.016  0.3772 -0.3701  0.6597
  915MOL0     H23524   6.139   8.524   3.137 -0.6617 -1.6224  2.5593
  915MOL0     H23525   6.278   8.428   3.181 -1.5013 -0.7267  0.8142
  916MOL0     O23526  10.831   6.212   6.560  0.5562 -0.5454 -0.2678
  916MOL0     C23527  10.769   6.138   6.481  0.5711 -0.3239 -0.4029
  916MOL0     O23528  10.811   6.017   6.435  0.3626 -0.2509 -0.6047
  916MOL0     C23529  10.946   5.986   6.442 -0.1769 -0.1054  0.3731
  916MOL0     C23530  11.042   6.056   6.366 -0.1895 -0.0392  0.7881
  916MOL0     C23531  11.174   6.017   6.371 -0.7687  0.2804  0.1385
  916MOL0     C23532  11.213   5.906   6.457  0.0553  0.2625  0.4357
  916MOL0     O23533  11.340   5.861   6.479 -0.2119  0.6031  0.1543
  916MOL0     C23534  11.445   5.904   6.394  0.3134  0.7055 -0.4452
  916MOL0     C23535  11.530   5.783   6.381 -0.3900  0.1580 -0.2992
  916MOL0     C23536  11.587   5.726   6.516 -0.0816  0.9058  0.1877
  916MOL0     C23537  11.649   5.837   6.607 -0.3295  0.2534  0.3653
  916MOL0     C23538  11.745   5.782   6.718  0.2493 -0.2680 -0.3092
  916MOL0     C23539  11.816   5.882   6.798 -0.1676  0.1603 -0.8032
  916MOL0     C23540  11.722   5.955   6.895  0.3989  0.4486  0.1673
  916MOL0     C23541  11.796   6.088   6.949  0.3262 -0.2065 -0.8922
  916MOL0     N23542  11.714   6.154   7.051 -0.2786  0.3557  0.8844
  916MOL0     C23543  11.615   6.243   7.016  0.3095 -0.5977  0.0404
  916MOL0     C23544  11.561   6.279   7.133  0.6171  0.0249 -0.4097
  916MOL0     C23545  11.436   6.364   7.164 -0.1895 -0.0468 -0.0635
  916MOL0     C23546  11.441   6.514   7.129  0.4271 -0.1166  0.0748
  916MOL0     C23547  11.525   6.575   7.239  0.7748 -0.1473  0.4973
  916MOL0     C23548  11.577   6.715   7.197  0.3741  0.3881 -0.3919
  916MOL0     O23549  11.474   6.799   7.145  0.2606  0.2898 -0.5429
  916MOL0     C23550  11.504   6.932   7.124 -0.1404 -0.3564  0.6681
  916MOL0     C23551  11.400   7.016   7.086  0.3100 -0.4917 -0.5568
  916MOL0     C23552  11.425   7.152   7.066  0.7476  0.7417 -0.1935
  916MOL0     C23553  11.560   7.209   7.076  0.3019 -0.1618 -0.3061
  916MOL0     C23554  11.588   7.353   7.044 -0.1108 -0.0290  0.0860
  916MOL0     O23555  11.714   7.396   7.054 -0.1210  0.1188 -0.9361
  916MOL0     C23556  11.740   7.512   6.995  0.1344 -0.3255  0.8871
  916MOL0     C23557  11.749   7.626   7.075 -0.3790  0.5069 -0.3232
  916MOL0     C23558  11.744   7.747   7.019 -0.7931 -0.9068  0.2995
  916MOL0     C23559  11.726   7.769   6.878 -0.4344 -0.4091 -0.0089
  916MOL0     O23560  11.702   7.896   6.830 -0.0212  0.5051  0.0073
  916MOL0     C23561  11.665   7.929   6.694 -0.1721  0.0826 -0.4900
  916MOL0     C23562  11.611   8.070   6.698  0.1218 -1.4126 -0.0045
  916MOL0     C23563  11.575   8.124   6.556 -0.4605  0.3197 -0.6239
  916MOL0     C23564  11.473   8.247   6.563 -0.3818 -0.2112  0.1181
  916MOL0     C23565  11.548   8.386   6.556  0.0175 -0.0395  0.3760
  916MOL0     C23566  11.620   8.434   6.424  0.1338 -0.1513  0.3090
  916MOL0     C23567  11.527   8.439   6.302  0.3639  0.4855 -0.0923
  916MOL0     C23568  11.603   8.518   6.191 -0.0700  0.8412  0.0925
  916MOL0    Cl23569  11.496   8.547   6.062 -0.1286 -0.1353 -0.1650
  916MOL0     C23570  11.737   7.658   6.788  0.0978  0.3408 -0.2124
  916MOL0     C23571  11.735   7.531   6.847 -0.6649 -0.7510  0.2428
  916MOL0     O23572  11.496   7.413   6.991 -0.2661 -0.1073  0.2050
  916MOL0     C23573  11.660   7.122   7.113  0.0421  0.5524  0.0245
  916MOL0     C23574  11.635   6.988   7.131  0.1938 -0.6787  0.5029
  916MOL0     N23575  11.634   6.222   7.239  0.2008 -0.0975  0.0761
  916MOL0     N23576  11.726   6.141   7.189  0.3411  0.0956  0.5829
  916MOL0     C23577  11.111   5.835   6.529 -0.1275  0.1393  0.7252
  916MOL0     C23578  10.981   5.880   6.528 -0.2392  0.3497  0.2593
  916MOL0     C23579  10.639   6.183   6.414 -0.3141 -0.5884 -0.0459
  916MOL0     C23580  10.527   6.092   6.407 -0.1292 -1.1971  0.5218
  916MOL0     C23581  10.406   6.144   6.358  1.1004  0.8314  0.0086
  916MOL0     C23582  10.388   6.273   6.305 -1.0681 -0.6707  0.6589
  916MOL0     O23583  10.271   6.317   6.259  0.5214  0.5807 -0.1349
  916MOL0     C23584  10.193   6.384   6.359  0.9643 -0.3791  0.6137
  916MOL0     C23585  10.227   6.531   6.383  0.4376  0.6132 -0.0506
  916MOL0     C23586  10.198   6.614   6.269  0.7550  0.8077  0.8561
  916MOL0     C23587  10.257   6.751   6.276 -0.2597  0.9806  0.1222
  916MOL0     C23588  10.399   6.758   6.250  0.3961  0.5019  1.1650
  916MOL0     C23589  10.516   6.754   6.216  0.7899  0.3193 -0.1457
  916MOL0     C23590  10.502   6.348   6.292 -0.0050 -0.3215 -0.4353
  916MOL0     C23591  10.626   6.315   6.358 -0.3977  0.2919  0.1430
  916MOL0     C23592  10.740   6.412   6.352 -0.0690  0.2168  0.1782
  916MOL0     H23593  11.008   6.139   6.305  2.8385  1.1817  0.5898
  916MOL0     H23594  11.252   6.083   6.334  2.9017 -3.9664 -0.6361
  916MOL0     H23595  11.415   5.925   6.291 -0.4924  0.2099 -0.3237
  916MOL0     H23596  11.504   5.984   6.440  0.9128 -1.9760  4.0802
  916MOL0     H23597  11.620   5.821   6.332  0.1777 -1.5109 -0.6115
  916MOL0     H23598  11.498   5.704   6.312  0.5180  0.0637 -0.6191
  916MOL0     H23599  11.660   5.647   6.495 -2.0515 -1.2368  1.0042
  916MOL0     H23600  11.501   5.682   6.567  0.6428 -0.6145  0.1590
  916MOL0     H23601  11.697   5.912   6.543 -0.1683 -0.3238 -0.2095
  916MOL0     H23602  11.570   5.894   6.656  1.5258  2.1847  1.2427
  916MOL0     H23603  11.691   5.712   6.783  1.7052  0.0144  1.2730
  916MOL0     H23604  11.822   5.721   6.671  1.6295 -0.6168  2.2276
  916MOL0     H23605  11.904   5.848   6.853 -0.0643  1.4219 -0.1420
  916MOL0     H23606  11.865   5.954   6.730 -2.3845  3.9011  1.2059
  916MOL0     H23607  11.689   5.886   6.973  2.8336  1.9083  2.6743
  916MOL0     H23608  11.627   5.978   6.847 -0.2760  0.7820  1.6000
  916MOL0     H23609  11.889   6.059   6.998 -0.0134 -1.0216 -0.7225
  916MOL0     H23610  11.819   6.157   6.867 -0.2397  1.3284  0.1935
  916MOL0     H23611  11.593   6.279   6.916  2.0853 -1.9168 -0.9096
  916MOL0     H23612  11.354   6.325   7.103 -1.3772 -0.7950  1.9100
  916MOL0     H23613  11.402   6.352   7.268  1.4138  1.5823  0.6997
  916MOL0     H23614  11.490   6.527   7.032 -1.0811  1.1587 -0.5691
  916MOL0     H23615  11.341   6.558   7.124 -0.3776 -1.8257  0.3926
  916MOL0     H23616  11.605   6.507   7.268  0.7516 -0.4755 -0.1828
  916MOL0     H23617  11.450   6.585   7.318 -1.9190  2.2560 -2.0908
  916MOL0     H23618  11.658   6.704   7.124  0.8733 -0.3494  0.2520
  916MOL0     H23619  11.616   6.757   7.290 -0.6926 -0.6091  0.5495
  916MOL0     H23620  11.300   6.979   7.065 -0.4671  1.0914  0.1984
  916MOL0     H23621  11.345   7.215   7.030  2.0820  1.8353 -1.3844
  916MOL0     H23622  11.772   7.613   7.180 -0.4375  0.3189 -0.3328
  916MOL0     H23623  11.745   7.835   7.082 -1.7015 -0.0289 -0.8498
  916MOL0     H23624  11.759   7.929   6.639  1.0056 -2.8911  1.3156
  916MOL0     H23625  11.597   7.851   6.659  1.6528 -1.2219 -1.2734
  916MOL0     H23626  11.519   8.059   6.756  0.3896  0.3002  0.8046
  916MOL0     H23627  11.680   8.143   6.740 -2.2699  1.8008 -1.2286
  916MOL0     H23628  11.675   8.148   6.519  1.1335 -3.5937  0.6173
  916MOL0     H23629  11.535   8.048   6.489 -0.0861  0.2030 -0.7203
  916MOL0     H23630  11.426   8.243   6.662 -0.5774  0.2733  0.0476
  916MOL0     H23631  11.399   8.259   6.484 -2.4077  1.0972  2.0950
  916MOL0     H23632  11.627   8.382   6.631 -1.2214 -0.1534  1.7190
  916MOL0     H23633  11.472   8.462   6.576 -0.7566 -0.2018 -1.6841
  916MOL0     H23634  11.676   8.528   6.433 -1.7146  1.1187 -0.7265
  916MOL0     H23635  11.692   8.353   6.410  0.5250  0.2014  0.2465
  916MOL0     H23636  11.424   8.475   6.307  0.3258  0.3972 -0.2250
  916MOL0     H23637  11.525   8.341   6.253  3.5300  1.9569 -3.6858
  916MOL0     H23638  11.644   8.616   6.219  2.3385  0.1199 -0.6408
  916MOL0     H23639  11.685   8.453   6.157 -0.0915 -0.2350  1.9673
  916MOL0     H23640  11.734   7.666   6.680  2.5656 -0.6027 -0.4213
  916MOL0     H23641  11.729   7.446   6.779  2.2585 -1.9920  1.3682
  916MOL0     H23642  11.766   7.146   7.114  0.8203 -2.2141 -2.5407
  916MOL0     H23643  11.719   6.927   7.162  0.2347 -0.6392  0.4713
  916MOL0     H23644  11.127   5.747   6.591 -2.2462 -0.6306  0.2544
  916MOL0     H23645  10.896   5.838   6.581  0.5788 -0.7304  0.7454
  916MOL0     H23646  10.539   5.993   6.448 -1.1312 -1.5519 -0.0074
  916MOL0     H23647  10.322   6.076   6.366  1.6019  0.2890  0.7944
  916MOL0     H23648  10.191   6.335   6.456  3.2498  0.4773  1.1709
  916MOL0     H23649  10.087   6.374   6.336  0.9239  2.6705 -1.1469
  916MOL0     H23650  10.334   6.529   6.408  0.4779 -0.6994 -0.2556
  916MOL0     H23651  10.179   6.572   6.472  3.1302  0.6305  1.5093
  916MOL0     H23652  10.090   6.618   6.253  1.0036 -0.0662 -1.4349
  916MOL0     H23653  10.242   6.574   6.177 -0.5352  1.5043 -0.1087
  916MOL0     H23654  10.203   6.819   6.210 -0.2424  1.9964  1.1225
  916MOL0     H23655  10.246   6.795   6.375  0.3333  0.6645  0.3328
  916MOL0     H23656  10.618   6.735   6.188  1.8851 -0.4055  3.7003
  916MOL0     H23657  10.489   6.448   6.254 -1.1639 -0.1701  0.3116
  916MOL0     H23658  10.764   6.452   6.451 -1.3237  3.8301 -0.8365
  916MOL0     H23659  10.829   6.359   6.316  2.7060  2.0016  3.7407
  916MOL0     H23660  10.726   6.500   6.288  1.2129  0.8127  0.6778
  917MOL0     O23661   7.027   3.694   9.809  0.0405  0.0882  0.0465
  917MOL0     C23662   7.036   3.796   9.877 -0.1414 -0.0458  0.3253
  917MOL0     O23663   7.120   3.905   9.852  0.5863  0.4555  0.2822
  917MOL0     C23664   7.217   3.896   9.750 -0.8291 -0.2188 -1.1121
  917MOL0     C23665   7.336   3.957   9.780 -0.2443 -0.2752  0.5099
  917MOL0     C23666   7.442   3.962   9.682 -0.5690  0.8127 -0.2331
  917MOL0     C23667   7.431   3.905   9.555 -0.0115 -0.5395 -0.5219
  917MOL0     O23668   7.518   3.921   9.453 -0.2131  0.5366 -0.1246
  917MOL0     C23669   7.636   4.001   9.479  0.5587 -0.2119 -0.3324
  917MOL0     C23670   7.706   4.020   9.341 -0.5011 -0.0176 -0.2301
  917MOL0     C23671   7.779   3.899   9.294 -0.1245  0.1306 -0.1527
  917MOL0     C23672   7.886   3.938   9.190  0.2405 -0.1427  0.1196
  917MOL0     C23673   7.909   3.826   9.100  0.3282  0.1745 -1.0947
  917MOL0     C23674   8.034   3.833   9.009  0.0982  0.9707 -0.4390
  917MOL0     C23675   8.168   3.862   9.088  0.3098 -0.6409 -0.0261
  917MOL0     C23676   8.295   3.831   9.010 -0.1651  0.2477  0.0947
  917MOL0     N23677   8.300   3.914   8.889  0.1093  0.1665  0.0279
  917MOL0     C23678   8.421   3.972   8.847  0.5868 -0.2552  0.1291
  917MOL0     C23679   8.407   3.976   8.712 -0.5363 -0.4380 -0.3002
  917MOL0     C23680   8.505   4.041   8.619 -0.4869 -0.5892 -0.0471
  917MOL0     C23681   8.617   3.951   8.584 -0.3691 -0.1542  0.2433
  917MOL0     C23682   8.724   3.944   8.693  0.9670 -0.2174  0.0669
  917MOL0     C23683   8.849   4.012   8.640  0.1215  1.1170  0.2923
  917MOL0     O23684   8.945   4.010   8.746 -0.1050  0.5869  0.2838
  917MOL0     C23685   9.075   4.042   8.710  0.1397  0.2553 -0.1971
  917MOL0     C23686   9.167   4.047   8.814 -0.1968  0.7979 -0.5660
  917MOL0     C23687   9.301   4.060   8.796 -1.1686 -0.2296 -0.2978
  917MOL0     C23688   9.353   4.070   8.665  0.1216 -0.0728 -0.4308
  917MOL0     C23689   9.502   4.043   8.643  0.3192 -0.5707  0.4510
  917MOL0     O23690   9.544   3.988   8.530  0.3781  0.6796  0.6166
  917MOL0     C23691   9.673   3.937   8.533  0.0567 -0.8771  0.1581
  917MOL0     C23692   9.765   3.998   8.452 -0.2259 -0.1812 -0.0960
  917MOL0     C23693   9.900   3.955   8.451  0.8587  0.0840  0.5500
  917MOL0     C23694   9.929   3.841   8.513 -0.6225 -0.5287 -0.3374
  917MOL0     O23695  10.053   3.781   8.519  0.3269  0.2598  0.1956
  917MOL0     C23696  10.163   3.839   8.445  0.8762 -0.2754 -0.1029
  917MOL0     C23697  10.285   3.757   8.463 -0.5992  0.6498 -0.4904
  917MOL0     C23698  10.295   3.631   8.368  0.7941 -0.8046 -0.8398
  917MOL0     C23699  10.423   3.569   8.387  0.4513 -0.7254  0.1390
  917MOL0     C23700  10.451   3.469   8.273 -0.2651 -0.1011 -0.0736
  917MOL0     C23701  10.340   3.374   8.243  0.1230  0.9721 -0.0964
  917MOL0     C23702  10.369   3.273   8.124 -0.2750 -0.5131 -0.3140
  917MOL0     C23703  10.412   3.336   7.991  0.1525 -0.7850 -0.1553
  917MOL0    Cl23704  10.287   3.459   7.939 -0.1529  0.2287  0.1953
  917MOL0     C23705   9.835   3.780   8.598 -0.3464 -0.1078 -1.0574
  917MOL0     C23706   9.706   3.824   8.608  0.0272  0.0202  0.6941
  917MOL0     O23707   9.575   4.080   8.738  1.0196  0.0362  0.0762
  917MOL0     C23708   9.263   4.074   8.556  0.2874 -0.6780  0.2471
  917MOL0     C23709   9.125   4.057   8.583  0.6951  0.2052  0.0347
  917MOL0     N23710   8.289   3.906   8.679 -0.2465 -0.8920 -0.2320
  917MOL0     N23711   8.228   3.863   8.782  0.6511  0.3722 -0.3901
  917MOL0     C23712   7.310   3.842   9.529 -0.3387  0.8260 -0.0250
  917MOL0     C23713   7.204   3.839   9.620 -0.5409  0.2116  0.8125
  917MOL0     C23714   6.955   3.817   9.989 -0.2557 -0.0319 -0.3430
  917MOL0     C23715   6.998   3.907  10.097  0.0703  0.1385  0.0002
  917MOL0     C23716   6.926   3.922  10.210  0.3130  0.1779  0.7963
  917MOL0     C23717   6.815   3.848  10.242  0.0144  0.2534 -0.3126
  917MOL0     O23718   6.744   3.865  10.362 -0.4544  0.0179  0.0955
  917MOL0     C23719   6.600   3.862  10.355 -0.0773  0.6432 -0.4875
  917MOL0     C23720   6.533   3.904  10.485 -0.7398 -0.6759  0.8981
  917MOL0     C23721   6.388   3.906  10.471  0.6524 -0.4724 -1.1131
  917MOL0     C23722   6.331   3.909  10.613  0.7006 -0.7909  0.8980
  917MOL0     C23723   6.184   3.928  10.633 -0.8010 -0.5326  0.1783
  917MOL0     C23724   6.065   3.946  10.661  0.6777  0.2558  0.5809
  917MOL0     C23725   6.774   3.745  10.143  0.2772  0.5972  0.1923
  917MOL0     C23726   6.844   3.738  10.018  0.2763  0.4061 -0.4321
  917MOL0     C23727   6.767   3.643   9.909  0.2485  0.1125  0.1547
  917MOL0     H23728   7.343   4.003   9.879  0.9213  0.3380  0.1554
  917MOL0     H23729   7.539   4.003   9.709 -1.9534  2.6454  2.3887
  917MOL0     H23730   7.610   4.103   9.507  2.8196  0.2504  0.3343
  917MOL0     H23731   7.703   3.958   9.555  1.0580  0.5646 -0.3158
  917MOL0     H23732   7.778   4.097   9.367 -0.9340  0.2840  0.0850
  917MOL0     H23733   7.636   4.066   9.270 -0.3001  1.1308  0.2943
  917MOL0     H23734   7.705   3.825   9.262  0.5810  0.0856 -1.8052
  917MOL0     H23735   7.822   3.850   9.382 -1.0609  0.0223  0.2577
  917MOL0     H23736   7.841   4.013   9.125  1.7900  0.7428  0.0293
  917MOL0     H23737   7.974   3.981   9.239  0.0275  1.3141 -0.7281
  917MOL0     H23738   7.921   3.737   9.162 -1.2992  0.6527 -0.0364
  917MOL0     H23739   7.816   3.816   9.043  0.3326  0.3534 -1.1347
  917MOL0     H23740   8.047   3.735   8.964 -0.8157  0.2682  0.7573
  917MOL0     H23741   8.016   3.911   8.935 -0.0391  0.8513 -0.5317
  917MOL0     H23742   8.167   3.794   9.174 -0.9552 -2.9912 -1.7854
  917MOL0     H23743   8.162   3.966   9.122 -2.6114 -0.6640 -0.1875
  917MOL0     H23744   8.384   3.857   9.067 -1.9621  2.3519  2.1312
  917MOL0     H23745   8.295   3.725   8.980 -1.5353  0.2484  0.0253
  917MOL0     H23746   8.503   4.018   8.902  0.1332  3.2796 -1.8980
  917MOL0     H23747   8.460   4.076   8.525 -3.1378 -2.4439  0.4147
  917MOL0     H23748   8.541   4.138   8.655 -0.1179  0.2837 -2.5335
  917MOL0     H23749   8.581   3.853   8.551  0.3148 -0.6820  1.0414
  917MOL0     H23750   8.675   3.978   8.495  1.2774 -2.3915  0.5429
  917MOL0     H23751   8.757   3.849   8.735 -0.3474  0.0838  1.8902
  917MOL0     H23752   8.681   3.995   8.779  0.9281 -0.0117 -0.0730
  917MOL0     H23753   8.826   4.117   8.621  0.5027  0.6555 -3.2451
  917MOL0     H23754   8.873   3.966   8.544 -0.6094  1.2657  0.0359
  917MOL0     H23755   9.134   4.033   8.916  1.9220 -4.0022 -0.2557
  917MOL0     H23756   9.376   4.056   8.874 -1.2116 -1.7288 -0.3050
  917MOL0     H23757   9.736   4.083   8.392 -0.4245 -0.3237 -0.2058
  917MOL0     H23758   9.967   4.012   8.387  1.4173  2.8707  3.3955
  917MOL0     H23759  10.135   3.867   8.343  0.2488  2.3254  0.7086
  917MOL0     H23760  10.184   3.935   8.493  0.4924  0.5184 -1.4670
  917MOL0     H23761  10.377   3.814   8.453  0.5805 -0.3803  2.9940
  917MOL0     H23762  10.291   3.713   8.563 -0.6014 -0.7187 -1.0698
  917MOL0     H23763  10.224   3.554   8.400  1.4604 -1.4818 -0.9482
  917MOL0     H23764  10.276   3.661   8.265 -2.5894  0.2864 -0.0098
  917MOL0     H23765  10.435   3.514   8.480 -0.2005 -0.7484  0.2168
  917MOL0     H23766  10.495   3.651   8.390  0.0046 -0.3522  2.6076
  917MOL0     H23767  10.531   3.404   8.309  0.2162  1.7305  2.4276
  917MOL0     H23768  10.462   3.534   8.185  0.5266  0.1928  0.2307
  917MOL0     H23769  10.329   3.314   8.334 -0.9014  1.5287  0.1587
  917MOL0     H23770  10.250   3.429   8.217 -1.6015 -1.6522 -0.0662
  917MOL0     H23771  10.289   3.200   8.110 -1.1473  0.6370 -1.6428
  917MOL0     H23772  10.455   3.215   8.159 -0.3881 -0.7832 -0.4830
  917MOL0     H23773  10.507   3.389   8.005 -0.0543 -0.0683 -1.2967
  917MOL0     H23774  10.419   3.263   7.910 -0.5445 -0.3471 -0.6265
  917MOL0     H23775   9.881   3.702   8.657  1.4518  1.9928  0.4738
  917MOL0     H23776   9.639   3.767   8.671 -0.7720 -1.0201 -1.0313
  917MOL0     H23777   9.288   4.075   8.450 -0.8821  3.6253 -0.1626
  917MOL0     H23778   9.056   4.035   8.502 -0.0026  1.2192  0.3327
  917MOL0     H23779   7.294   3.805   9.429  0.6100  2.2087 -0.7087
  917MOL0     H23780   7.120   3.777   9.592 -0.8184  1.1729 -0.5525
  917MOL0     H23781   7.080   3.976  10.081  0.8239 -0.9614 -1.0470
  917MOL0     H23782   6.952   3.991  10.290 -0.9254  0.6750  0.7920
  917MOL0     H23783   6.560   3.764  10.331  1.5363 -0.4100  0.8771
  917MOL0     H23784   6.570   3.933  10.278  0.1143 -0.3207 -1.4734
  917MOL0     H23785   6.571   4.002  10.512 -0.7539 -0.2942 -0.3748
  917MOL0     H23786   6.567   3.841  10.568  1.5903  2.8585  2.8754
  917MOL0     H23787   6.354   3.816  10.419 -2.8577 -1.4960  2.5041
  917MOL0     H23788   6.348   3.987  10.410 -1.9191 -1.1236 -0.3812
  917MOL0     H23789   6.365   3.826  10.674  1.1758 -2.5180 -1.5569
  917MOL0     H23790   6.388   3.989  10.662  3.1382 -2.0763  0.3291
  917MOL0     H23791   5.961   3.960  10.682  0.4154  0.3298 -0.7280
  917MOL0     H23792   6.693   3.675  10.160  0.4663  0.4045  0.3180
  917MOL0     H23793   6.826   3.553   9.891  0.3209 -0.0482  1.1260
  917MOL0     H23794   6.668   3.607   9.940  0.1409  1.8394  2.0376
  917MOL0     H23795   6.746   3.694   9.815  0.2188 -0.2569 -0.0418
  918MOL0     O23796  11.279   1.543   4.980  0.0889 -0.4583 -0.3354
  918MOL0     C23797  11.170   1.541   4.927  0.0990 -0.3395 -0.3080
  918MOL0     O23798  11.050   1.571   4.986 -0.2055 -0.2857 -0.3463
  918MOL0     C23799  11.048   1.611   5.118 -0.3210 -0.1226 -0.0457
  918MOL0     C23800  10.981   1.731   5.142  0.5395 -0.4257  0.4087
  918MOL0     C23801  10.971   1.783   5.267  0.0232 -0.0690 -0.4732
  918MOL0     C23802  11.025   1.715   5.384  0.4084 -0.1085  0.0735
  918MOL0     O23803  11.032   1.766   5.514  0.1189  0.1280  1.1589
  918MOL0     C23804  10.916   1.834   5.547  0.0251 -0.4172 -0.5819
  918MOL0     C23805  10.931   1.879   5.692  0.0580 -0.0674  0.5904
  918MOL0     C23806  10.896   1.775   5.794 -0.1150 -0.1196  0.3034
  918MOL0     C23807  10.997   1.663   5.795  0.8620 -0.3520 -0.1102
  918MOL0     C23808  10.975   1.553   5.904 -0.3093  0.0900 -0.8506
  918MOL0     C23809  11.100   1.464   5.931 -0.2261 -0.2251 -0.5838
  918MOL0     C23810  11.050   1.346   6.022  0.4917  0.5123 -0.2715
  918MOL0     C23811  11.160   1.260   6.072  0.2729 -0.3503 -0.6619
  918MOL0     N23812  11.231   1.333   6.177 -0.2993  0.2044 -0.8483
  918MOL0     C23813  11.226   1.293   6.316  0.7323  0.9392  1.1685
  918MOL0     C23814  11.345   1.341   6.358 -0.5140 -0.0720 -0.3188
  918MOL0     C23815  11.399   1.323   6.497  0.9112  0.0068 -0.2603
  918MOL0     C23816  11.404   1.170   6.525 -0.1132  0.3325  0.3050
  918MOL0     C23817  11.445   1.149   6.677 -0.1357  0.6541  0.0168
  918MOL0     C23818  11.597   1.162   6.696  0.0190 -0.9487 -0.3484
  918MOL0     O23819  11.667   1.071   6.618  0.4099  0.2305  0.2679
  918MOL0     C23820  11.796   1.042   6.639  0.4783 -0.8921 -0.3089
  918MOL0     C23821  11.883   1.127   6.715  0.2581  0.6318  0.8040
  918MOL0     C23822  12.017   1.097   6.722  0.0529 -1.0002  0.1493
  918MOL0     C23823  12.068   0.985   6.662 -0.0275 -0.1297 -0.0362
  918MOL0     C23824  12.208   0.981   6.647 -0.5725  0.8714 -0.4498
  918MOL0     O23825  12.282   1.084   6.698  0.9320  0.1987  0.3115
  918MOL0     C23826  12.417   1.080   6.704  0.8425 -0.2786  0.3556
  918MOL0     C23827  12.482   0.989   6.790 -0.2985  0.5799  0.2020
  918MOL0     C23828  12.622   0.987   6.796 -0.8509  0.3311  0.3833
  918MOL0     C23829  12.702   1.079   6.711  0.2373  0.9722  0.2283
  918MOL0     O23830  12.831   1.066   6.734 -0.5935  0.6398 -0.9558
  918MOL0     C23831  12.916   1.128   6.640  0.1067 -0.5756  1.2994
  918MOL0     C23832  13.062   1.090   6.666  0.4619 -0.3131  0.2115
  918MOL0     C23833  13.157   1.150   6.552  0.4664  0.2219 -0.1070
  918MOL0     C23834  13.301   1.099   6.576 -0.6093  0.2070  0.0677
  918MOL0     C23835  13.390   1.117   6.455 -0.6092  0.6307  0.2047
  918MOL0     C23836  13.529   1.056   6.460 -0.6096 -0.1907 -1.1025
  918MOL0     C23837  13.622   1.128   6.554 -0.1138  0.6787 -0.0505
  918MOL0     C23838  13.749   1.047   6.571 -0.1294 -0.7942 -0.3000
  918MOL0    Cl23839  13.854   1.141   6.688 -0.0486 -0.1817  0.2373
  918MOL0     C23840  12.628   1.169   6.628 -0.6667  0.7989 -0.5833
  918MOL0     C23841  12.489   1.176   6.628  0.3869  0.4072  0.1640
  918MOL0     O23842  12.262   0.885   6.595 -0.1851  0.3775 -0.3686
  918MOL0     C23843  11.982   0.895   6.593  0.3402  0.6200  0.2165
  918MOL0     C23844  11.843   0.921   6.586  0.1898 -0.0643 -0.4468
  918MOL0     N23845  11.404   1.418   6.257  0.2902 -0.7223 -0.6295
  918MOL0     N23846  11.334   1.415   6.150  0.0909 -0.7175 -0.0085
  918MOL0     C23847  11.100   1.605   5.358  0.2578  0.4761  0.1150
  918MOL0     C23848  11.114   1.551   5.227 -0.1540 -0.6006 -0.0632
  918MOL0     C23849  11.163   1.496   4.790  0.2364 -0.0142  0.4231
  918MOL0     C23850  11.037   1.464   4.742  0.4504  0.0860  0.1870
  918MOL0     C23851  11.005   1.409   4.617  0.0613  0.2807  0.5421
  918MOL0     C23852  11.109   1.395   4.522  0.1977 -0.3444 -0.6199
  918MOL0     O23853  11.092   1.365   4.382  0.2229 -0.3359  0.6295
  918MOL0     C23854  10.988   1.431   4.312 -0.3524 -1.8604  0.0270
  918MOL0     C23855  11.011   1.583   4.287  0.0418  0.3571 -0.4332
  918MOL0     C23856  10.903   1.649   4.189  0.4754  0.3267  0.5539
  918MOL0     C23857  10.925   1.800   4.162  0.2463 -0.6051 -0.4238
  918MOL0     C23858  11.055   1.851   4.110  0.5737 -0.4171 -0.5692
  918MOL0     C23859  11.172   1.881   4.082 -0.2746 -0.3127  0.0029
  918MOL0     C23860  11.236   1.416   4.567 -0.8614  0.0277 -0.9736
  918MOL0     C23861  11.269   1.469   4.695  0.8904 -0.6453  0.4460
  918MOL0     C23862  11.420   1.491   4.722 -0.5995 -0.2577 -0.5386
  918MOL0     H23863  10.925   1.778   5.062  2.9004 -1.9415 -2.3235
  918MOL0     H23864  10.925   1.881   5.276  0.3274  0.1683 -1.3877
  918MOL0     H23865  10.906   1.927   5.491  0.5868 -0.9071 -1.5181
  918MOL0     H23866  10.824   1.776   5.533 -1.4914  1.1644  1.9841
  918MOL0     H23867  10.882   1.973   5.717  0.9145  0.3427  0.7841
  918MOL0     H23868  11.032   1.911   5.720 -0.4238  0.5272  1.7339
  918MOL0     H23869  10.800   1.734   5.763  0.0449  0.0534 -0.4355
  918MOL0     H23870  10.895   1.813   5.897  0.0703 -1.2052  0.7203
  918MOL0     H23871  11.007   1.612   5.699 -0.9009 -1.5957  0.3150
  918MOL0     H23872  11.091   1.716   5.813  1.0769  0.4339 -3.1189
  918MOL0     H23873  10.950   1.606   5.997 -2.4157 -0.6218 -0.9709
  918MOL0     H23874  10.884   1.497   5.881  0.4048 -1.6365  0.3250
  918MOL0     H23875  11.145   1.431   5.836  1.0916 -0.8352  0.2210
  918MOL0     H23876  11.170   1.517   5.996 -1.8182 -1.4776  2.3099
  918MOL0     H23877  10.976   1.281   5.975 -2.0431  1.6066  1.9530
  918MOL0     H23878  11.003   1.376   6.116  0.7866  0.3741 -0.0794
  918MOL0     H23879  11.122   1.166   6.114 -0.9980 -0.7910 -2.6490
  918MOL0     H23880  11.236   1.238   5.997  0.6425 -0.1414 -0.3543
  918MOL0     H23881  11.172   1.215   6.368  1.1678 -2.1642 -2.6036
  918MOL0     H23882  11.493   1.376   6.511  0.4312  0.5330  1.1798
  918MOL0     H23883  11.331   1.371   6.569  0.2085  0.3081 -1.1020
  918MOL0     H23884  11.311   1.117   6.508 -0.8565  1.5020  0.5891
  918MOL0     H23885  11.477   1.119   6.462 -3.0380 -0.9362 -2.2832
  918MOL0     H23886  11.411   1.049   6.706 -0.2118  1.1415  1.7124
  918MOL0     H23887  11.384   1.213   6.741  2.1477  4.4004 -1.1804
  918MOL0     H23888  11.614   1.161   6.804 -0.6064  0.6539 -0.2158
  918MOL0     H23889  11.626   1.264   6.668  1.2982 -1.3290 -0.5008
  918MOL0     H23890  11.854   1.221   6.762 -1.7699  0.8258 -0.7095
  918MOL0     H23891  12.068   1.185   6.759 -1.7069  1.4945 -2.8846
  918MOL0     H23892  12.428   0.921   6.856  0.7246 -1.9248 -1.4186
  918MOL0     H23893  12.680   0.936   6.873 -2.7112  1.5853  2.7439
  918MOL0     H23894  12.891   1.092   6.540  1.9746 -0.5313  0.7780
  918MOL0     H23895  12.908   1.236   6.625 -2.2519 -0.8871 -0.4226
  918MOL0     H23896  13.082   1.133   6.764 -0.9530  3.3920 -0.9050
  918MOL0     H23897  13.066   0.981   6.667  1.2373 -0.2939 -0.0101
  918MOL0     H23898  13.126   1.122   6.451 -2.7655  1.0098  0.5814
  918MOL0     H23899  13.150   1.259   6.562 -0.8828  0.1380  0.0461
  918MOL0     H23900  13.294   0.993   6.602 -1.1732  0.5211  1.2779
  918MOL0     H23901  13.353   1.161   6.650  1.4245 -0.9242 -0.3431
  918MOL0     H23902  13.394   1.224   6.431 -1.2748  0.9507  1.4241
  918MOL0     H23903  13.343   1.061   6.373  0.9612 -0.7488  0.1847
  918MOL0     H23904  13.521   0.952   6.492 -2.8168  0.9781  2.7040
  918MOL0     H23905  13.572   1.054   6.359 -0.2319  1.9802 -1.0348
  918MOL0     H23906  13.586   1.140   6.657  0.6146  0.3579  0.2498
  918MOL0     H23907  13.647   1.224   6.507 -3.7174  1.1984 -1.1464
  918MOL0     H23908  13.717   0.947   6.602  1.2028 -0.9694  0.6300
  918MOL0     H23909  13.806   1.051   6.478  0.5256  0.6159  0.1261
  918MOL0     H23910  12.677   1.249   6.574  0.1895 -0.1404 -1.2286
  918MOL0     H23911  12.441   1.250   6.565 -0.3569 -1.0366 -1.0367
  918MOL0     H23912  12.025   0.805   6.551 -0.3569 -0.0178  0.8221
  918MOL0     H23913  11.783   0.858   6.521 -0.5459  1.3523 -1.2021
  918MOL0     H23914  11.154   1.545   5.431  1.3608 -0.4328 -1.3813
  918MOL0     H23915  11.165   1.459   5.203 -2.6480 -1.6786 -1.7366
  918MOL0     H23916  10.952   1.468   4.809  0.8026 -1.3035  0.7487
  918MOL0     H23917  10.903   1.400   4.581  0.6137  0.4999 -1.2012
  918MOL0     H23918  10.896   1.411   4.368 -0.7052 -0.5660 -0.0616
  918MOL0     H23919  10.979   1.392   4.210  0.8998  1.4321 -1.4838
  918MOL0     H23920  11.110   1.595   4.241  1.6714  1.2252  2.9528
  918MOL0     H23921  11.025   1.627   4.387  1.6263  2.3257 -1.4528
  918MOL0     H23922  10.800   1.638   4.223  1.0322  1.5787  2.8871
  918MOL0     H23923  10.906   1.585   4.100 -4.4112  0.9317 -0.2998
  918MOL0     H23924  10.839   1.823   4.098 -0.5048  0.9099  1.0604
  918MOL0     H23925  10.906   1.854   4.255  0.1103 -1.1023 -0.1579
  918MOL0     H23926  11.264   1.920   4.044 -1.3934  3.1388  0.4761
  918MOL0     H23927  11.315   1.406   4.494  0.0485  1.0190 -0.1650
  918MOL0     H23928  11.483   1.510   4.635  0.8100  2.9243  1.0249
  918MOL0     H23929  11.430   1.588   4.770 -0.7110  1.2416 -3.3660
  918MOL0     H23930  11.461   1.407   4.780 -0.4515  0.7005  0.7888
  919MOL0     O23931   0.717   7.296   9.347 -0.0414  0.0216 -0.5757
  919MOL0     C23932   0.653   7.188   9.365  0.9902 -0.1203 -0.2831
  919MOL0     O23933   0.707   7.065   9.353 -0.1415 -0.1043 -0.2970
  919MOL0     C23934   0.840   7.041   9.324  0.0368  0.6346 -0.2946
  919MOL0     C23935   0.878   6.953   9.222 -0.0227  0.4315  0.1192
  919MOL0     C23936   1.015   6.916   9.216 -0.7402  0.8186 -0.0320
  919MOL0     C23937   1.121   6.961   9.303  0.1291 -0.3600  0.5691
  919MOL0     O23938   1.254   6.927   9.286 -0.7031 -0.6125  0.4087
  919MOL0     C23939   1.280   6.792   9.288  0.0574 -0.3022 -0.0505
  919MOL0     C23940   1.298   6.730   9.420  0.3831  0.1298 -0.2652
  919MOL0     C23941   1.433   6.784   9.483 -0.4046  0.2924  0.2038
  919MOL0     C23942   1.492   6.696   9.607  0.1519 -0.8041  0.5700
  919MOL0     C23943   1.651   6.718   9.614  0.3130 -0.3199 -0.2002
  919MOL0     C23944   1.674   6.860   9.666  0.1840 -0.9963  0.1283
  919MOL0     C23945   1.821   6.877   9.688 -0.8406  0.5156 -0.6595
  919MOL0     C23946   1.896   6.919   9.559  0.8532  0.3404  0.0256
  919MOL0     N23947   2.039   6.901   9.565 -0.4467  0.7100  0.1620
  919MOL0     C23948   2.121   6.943   9.670 -0.0599 -0.2492  0.5476
  919MOL0     C23949   2.202   6.835   9.696  1.2912 -0.7728  0.5882
  919MOL0     C23950   2.289   6.809   9.809  0.3429 -1.1156 -0.5909
  919MOL0     C23951   2.372   6.931   9.859 -0.1121 -1.0258 -0.2671
  919MOL0     C23952   2.494   6.893   9.941  0.5106  0.5933 -0.1961
  919MOL0     C23953   2.574   7.016   9.987 -0.0800  0.8960 -0.1489
  919MOL0     O23954   2.661   6.978  10.093  0.0442 -0.0357 -0.2353
  919MOL0     C23955   2.779   7.057  10.086  0.4544 -0.2503 -0.4880
  919MOL0     C23956   2.883   7.019  10.173  0.0835  0.6228  0.5148
  919MOL0     C23957   3.000   7.085  10.173 -0.3839  0.3055 -0.3054
  919MOL0     C23958   3.023   7.204  10.099  0.6860  0.0317 -0.1500
  919MOL0     C23959   3.162   7.260  10.078  0.0707  0.4558  0.7020
  919MOL0     O23960   3.173   7.371  10.000 -0.0519  0.1007 -0.1810
  919MOL0     C23961   3.300   7.414   9.967 -0.0034  0.0475  0.3581
  919MOL0     C23962   3.381   7.326   9.892  0.1548 -0.0902 -0.4390
  919MOL0     C23963   3.509   7.368   9.848 -0.1368 -0.1687  0.1359
  919MOL0     C23964   3.544   7.503   9.857 -0.4053  0.4394 -0.1611
  919MOL0     O23965   3.656   7.566   9.807 -0.0043  0.2475 -0.6377
  919MOL0     C23966   3.745   7.481   9.740 -0.9979 -0.4837 -0.1318
  919MOL0     C23967   3.854   7.577   9.696  0.1009 -0.3006  0.2953
  919MOL0     C23968   3.986   7.512   9.673 -0.3483 -0.1145  0.0235
  919MOL0     C23969   4.090   7.627   9.652  0.7946  0.5823 -0.4083
  919MOL0     C23970   4.233   7.586   9.621 -0.3133  0.2347  0.4801
  919MOL0     C23971   4.301   7.504   9.728 -0.0536 -0.8292 -0.0597
  919MOL0     C23972   4.455   7.502   9.698 -0.0986 -0.0398 -0.1926
  919MOL0     C23973   4.477   7.374   9.614 -0.6008  0.2075  0.8188
  919MOL0    Cl23974   4.653   7.348   9.584 -0.2291 -0.0414  0.6672
  919MOL0     C23975   3.463   7.588   9.928 -0.0090 -0.0804  0.6664
  919MOL0     C23976   3.339   7.546   9.971 -0.5094 -0.6917 -0.1853
  919MOL0     O23977   3.252   7.192  10.133 -0.7824  0.2152  0.0996
  919MOL0     C23978   2.919   7.257  10.030  0.4666 -0.4073  0.1187
  919MOL0     C23979   2.796   7.188  10.024 -0.5864  0.1188  0.3417
  919MOL0     N23980   2.192   6.757   9.585  0.2188  0.5116 -0.7177
  919MOL0     N23981   2.095   6.783   9.505  0.7544 -0.7282  0.0764
  919MOL0     C23982   1.079   7.051   9.401 -0.0976 -0.0289  0.6852
  919MOL0     C23983   0.938   7.089   9.412 -0.3366 -0.1144 -1.1070
  919MOL0     C23984   0.502   7.209   9.368 -0.2285 -0.1557 -0.2698
  919MOL0     C23985   0.423   7.106   9.310  1.2036  0.2507 -0.0965
  919MOL0     C23986   0.284   7.105   9.331  0.3604  0.6623 -0.1762
  919MOL0     C23987   0.219   7.217   9.382 -0.0791  0.2180 -0.5340
  919MOL0     O23988   0.087   7.220   9.406  0.5188 -0.0979  0.3327
  919MOL0     C23989  -0.002   7.116   9.379  0.2657 -0.2691 -0.3830
  919MOL0     C23990  -0.148   7.156   9.398 -0.6802 -0.1680 -0.6410
  919MOL0     C23991  -0.235   7.048   9.447  0.6901  0.3061  0.5697
  919MOL0     C23992  -0.263   6.947   9.333  0.1620  0.1096 -0.4597
  919MOL0     C23993  -0.353   6.847   9.387 -1.6286  1.2661 -0.6084
  919MOL0     C23994  -0.432   6.764   9.430  0.4484  0.7595  0.7545
  919MOL0     C23995   0.297   7.322   9.433 -0.1026 -0.3110 -0.0995
  919MOL0     C23996   0.436   7.313   9.428  0.1816 -0.3531  0.0741
  919MOL0     C23997   0.507   7.417   9.511 -0.5946  0.2347  0.0043
  919MOL0     H23998   0.809   6.905   9.153  0.8904 -0.2445 -0.3544
  919MOL0     H23999   1.042   6.846   9.137 -1.0721  0.1334  0.4495
  919MOL0     H24000   1.192   6.740   9.250  0.1651  0.7771 -1.9051
  919MOL0     H24001   1.372   6.759   9.238  0.0748  2.3318 -1.9397
  919MOL0     H24002   1.299   6.621   9.412  0.5355 -0.2590  3.3635
  919MOL0     H24003   1.209   6.752   9.480 -0.4958 -2.3857 -0.5329
  919MOL0     H24004   1.429   6.889   9.510 -0.4268  0.2285  0.4467
  919MOL0     H24005   1.509   6.789   9.404  0.1578  1.9153  0.8083
  919MOL0     H24006   1.450   6.738   9.699 -0.2975  0.7915 -0.3382
  919MOL0     H24007   1.464   6.594   9.578 -1.2184  0.1076 -1.5351
  919MOL0     H24008   1.701   6.653   9.686  3.7871  2.9280  0.6587
  919MOL0     H24009   1.690   6.695   9.515  1.7655  1.4288 -0.0987
  919MOL0     H24010   1.635   6.936   9.598 -1.1318 -1.0960  0.7351
  919MOL0     H24011   1.615   6.862   9.758  2.0015  0.1212  1.3099
  919MOL0     H24012   1.871   6.790   9.731  1.2387  1.6213 -0.6761
  919MOL0     H24013   1.839   6.959   9.759  1.8262  2.1573 -3.0301
  919MOL0     H24014   1.857   6.863   9.472  1.0207 -0.9543  0.7538
  919MOL0     H24015   1.876   7.026   9.547 -2.2640 -0.0005  1.1893
  919MOL0     H24016   2.098   7.034   9.726 -0.8247 -0.8756  1.2781
  919MOL0     H24017   2.215   6.789   9.887  0.8866 -1.2553 -0.0973
  919MOL0     H24018   2.356   6.724   9.797  1.3948 -0.2292 -1.2341
  919MOL0     H24019   2.405   6.992   9.774 -0.7556 -1.1375 -0.6004
  919MOL0     H24020   2.313   6.998   9.922  1.6772  0.3293  0.0668
  919MOL0     H24021   2.554   6.829   9.876 -0.4898  0.1163 -0.6734
  919MOL0     H24022   2.441   6.851  10.027 -0.7804  4.9214  1.4053
  919MOL0     H24023   2.506   7.094  10.021  0.5400  0.2663  2.7960
  919MOL0     H24024   2.631   7.043   9.898 -1.9837 -2.6011 -2.6669
  919MOL0     H24025   2.886   6.924  10.225 -2.0493  0.1182 -0.2017
  919MOL0     H24026   3.084   7.039  10.223  0.1595 -0.2736 -1.6959
  919MOL0     H24027   3.345   7.224   9.878 -0.7779  0.3461 -1.3127
  919MOL0     H24028   3.579   7.307   9.792  1.1475  2.0383 -0.8034
  919MOL0     H24029   3.791   7.411   9.810  2.7632 -0.4844 -2.3367
  919MOL0     H24030   3.705   7.434   9.650  2.8273  1.0695 -2.9174
  919MOL0     H24031   3.822   7.636   9.610 -0.1885 -0.1664  0.4935
  919MOL0     H24032   3.869   7.649   9.777  3.4476 -1.2428  0.6659
  919MOL0     H24033   4.027   7.444   9.749  3.8613  1.5344 -0.5089
  919MOL0     H24034   3.978   7.453   9.581  0.7303  0.0395 -0.1795
  919MOL0     H24035   4.083   7.693   9.739  1.6293 -0.8433  0.7957
  919MOL0     H24036   4.054   7.689   9.569  0.2942 -0.6550 -1.1365
  919MOL0     H24037   4.285   7.681   9.604 -0.4753  0.3553  0.6558
  919MOL0     H24038   4.239   7.531   9.527 -1.5190  0.4518  0.2584
  919MOL0     H24039   4.280   7.567   9.815  0.5504 -1.6691  0.7184
  919MOL0     H24040   4.274   7.399   9.745  2.2253 -1.4337  0.2098
  919MOL0     H24041   4.505   7.494   9.795  3.1493 -0.5534 -1.7621
  919MOL0     H24042   4.491   7.591   9.644 -0.8698 -0.0539 -0.7508
  919MOL0     H24043   4.443   7.288   9.672 -1.1266  1.6707  2.7770
  919MOL0     H24044   4.434   7.387   9.514  0.6835  1.9397  0.4480
  919MOL0     H24045   3.492   7.693   9.937 -0.2917  0.8735 -5.3847
  919MOL0     H24046   3.274   7.615  10.025 -0.8636 -0.2652 -1.1288
  919MOL0     H24047   2.933   7.350   9.976  1.7872  0.1636  1.3731
  919MOL0     H24048   2.707   7.233   9.981 -0.8183 -2.2247 -1.8539
  919MOL0     H24049   1.157   7.076   9.472  0.1350  2.0526 -0.2380
  919MOL0     H24050   0.896   7.156   9.486  2.2984  1.4983 -0.9458
  919MOL0     H24051   0.464   7.022   9.255  3.2729  2.0815 -1.5470
  919MOL0     H24052   0.224   7.023   9.294  0.9457 -0.4388  1.2099
  919MOL0     H24053   0.024   7.036   9.449 -0.9608 -1.9213 -1.7547
  919MOL0     H24054   0.015   7.074   9.280  1.3992 -2.0726  0.5086
  919MOL0     H24055  -0.187   7.211   9.312 -0.1288 -0.6988 -1.2339
  919MOL0     H24056  -0.153   7.225   9.483  0.0241 -0.3202 -0.4725
  919MOL0     H24057  -0.335   7.085   9.470  0.5183  1.8148 -2.1315
  919MOL0     H24058  -0.185   6.993   9.527 -0.3607 -1.4157  0.0748
  919MOL0     H24059  -0.316   6.998   9.251 -0.1180  1.7628  0.6909
  919MOL0     H24060  -0.166   6.906   9.303  2.1462  1.5268  3.3469
  919MOL0     H24061  -0.506   6.693   9.462 -1.1973  0.8801 -2.4722
  919MOL0     H24062   0.244   7.403   9.480 -1.2975 -0.6656 -0.8121
  919MOL0     H24063   0.446   7.498   9.550  1.6296  1.7122  0.6518
  919MOL0     H24064   0.562   7.381   9.599  2.4889  5.1142  0.4659
  919MOL0     H24065   0.576   7.458   9.437 -2.2778 -0.9370 -2.3124
  920MOL0     O24066   8.865   2.021   1.566 -0.5096 -0.7334  0.9935
  920MOL0     C24067   8.779   1.946   1.530 -0.5958  0.6483  0.1412
  920MOL0     O24068   8.789   1.814   1.504 -0.9363  0.3777  0.6547
  920MOL0     C24069   8.911   1.778   1.452 -0.5393 -0.3552  0.5131
  920MOL0     C24070   8.920   1.734   1.317 -0.2774  0.1984 -1.0728
  920MOL0     C24071   9.044   1.690   1.269  0.2142 -0.3114  0.2652
  920MOL0     C24072   9.155   1.689   1.346  0.1825  1.2901 -0.9273
  920MOL0     O24073   9.264   1.639   1.280  0.3092 -0.0760 -0.1383
  920MOL0     C24074   9.385   1.652   1.348  0.0436 -1.1916 -0.5415
  920MOL0     C24075   9.486   1.598   1.253 -1.3123 -0.0276  0.6219
  920MOL0     C24076   9.633   1.616   1.285 -0.3675 -1.0151 -0.1675
  920MOL0     C24077   9.728   1.570   1.180 -0.2866  0.5094 -0.3897
  920MOL0     C24078   9.874   1.565   1.224 -0.9444  0.3730  0.3733
  920MOL0     C24079   9.979   1.544   1.112 -0.3756  0.1636  1.1253
  920MOL0     C24080  10.039   1.680   1.088  0.1833  0.6592 -0.5008
  920MOL0     C24081  10.145   1.669   0.968  0.5190  0.6288  0.2694
  920MOL0     N24082  10.223   1.795   0.965 -0.1999  0.0569 -0.6508
  920MOL0     C24083  10.324   1.849   1.046 -0.1819 -0.2887 -0.2147
  920MOL0     C24084  10.373   1.954   0.979 -0.2266  0.3514 -0.1653
  920MOL0     C24085  10.482   2.032   1.034  0.0958  0.2735 -0.1784
  920MOL0     C24086  10.608   1.969   0.972  0.0365 -0.0689 -0.6564
  920MOL0     C24087  10.726   2.055   1.015  0.7474  0.9175 -0.8122
  920MOL0     C24088  10.857   2.000   0.956 -0.9366 -0.4703 -0.6871
  920MOL0     O24089  10.951   2.105   0.982  0.5461  0.2318  0.0789
  920MOL0     C24090  11.080   2.086   0.949  0.9618 -0.6309  0.2146
  920MOL0     C24091  11.134   1.966   0.914  0.4782 -0.1601  0.4871
  920MOL0     C24092  11.277   1.955   0.904  0.3373  1.4482  1.1892
  920MOL0     C24093  11.351   2.071   0.891  0.4287 -0.6668 -0.1968
  920MOL0     C24094  11.494   2.067   0.866  0.4003  0.0897  1.2854
  920MOL0     O24095  11.568   2.182   0.872 -0.1872  0.3909 -0.4538
  920MOL0     C24096  11.698   2.169   0.846 -0.1218 -0.7268 -0.4045
  920MOL0     C24097  11.759   2.122   0.737 -0.1020  0.0376  0.0036
  920MOL0     C24098  11.898   2.123   0.723  0.2836  1.0576  0.0703
  920MOL0     C24099  11.975   2.185   0.834  0.8035  0.6919 -0.2387
  920MOL0     O24100  12.110   2.205   0.831  0.1609 -0.4093  0.0249
  920MOL0     C24101  12.193   2.129   0.738  0.6192 -0.2164  0.7381
  920MOL0     C24102  12.339   2.155   0.766  0.0091 -0.5104  0.1743
  920MOL0     C24103  12.435   2.075   0.678  0.2827  0.3114 -0.1216
  920MOL0     C24104  12.415   2.087   0.529 -0.3704 -0.4228 -0.8184
  920MOL0     C24105  12.535   2.034   0.439  0.2648  0.0364  0.1365
  920MOL0     C24106  12.510   2.035   0.288  0.1896 -0.7137  0.1683
  920MOL0     C24107  12.477   2.177   0.232  0.2941  0.1245 -0.1936
  920MOL0     C24108  12.450   2.181   0.079  0.6607  0.1562  0.2496
  920MOL0    Cl24109  12.280   2.209   0.041 -0.0294  0.2626 -0.7172
  920MOL0     C24110  11.910   2.225   0.954  0.2865  0.2763  0.1033
  920MOL0     C24111  11.768   2.213   0.958  0.3212  0.4384 -0.5069
  920MOL0     O24112  11.546   1.955   0.847  0.2208  0.7075 -0.2845
  920MOL0     C24113  11.286   2.199   0.910 -0.6629 -0.5969 -0.1103
  920MOL0     C24114  11.150   2.209   0.936 -0.4269  0.4271 -0.6026
  920MOL0     N24115  10.312   1.964   0.862  0.3933  0.0513  0.0161
  920MOL0     N24116  10.221   1.875   0.855 -0.1478 -0.2915  0.4939
  920MOL0     C24117   9.143   1.730   1.477 -0.6129  0.2861 -0.0687
  920MOL0     C24118   9.022   1.775   1.528 -0.5367  0.4524  0.3858
  920MOL0     C24119   8.639   2.009   1.523  0.0713  0.4741 -0.5675
  920MOL0     C24120   8.528   1.929   1.504  0.1597 -0.6159  1.0377
  920MOL0     C24121   8.400   1.978   1.481 -0.3385  0.4604 -0.7293
  920MOL0     C24122   8.372   2.120   1.500  0.2878  0.5815 -0.9061
  920MOL0     O24123   8.244   2.172   1.517  0.6030  0.1991  0.6798
  920MOL0     C24124   8.129   2.101   1.469 -0.2271  0.3613  0.7936
  920MOL0     C24125   7.999   2.173   1.506 -0.1620  0.2245 -0.5096
  920MOL0     C24126   7.969   2.163   1.649  0.5277  0.5692  0.1601
  920MOL0     C24127   7.863   2.262   1.686 -0.5418  0.5268 -0.6164
  920MOL0     C24128   7.819   2.236   1.821  0.8987  0.1268  0.4959
  920MOL0     C24129   7.764   2.212   1.927  0.6554  0.7418 -0.9065
  920MOL0     C24130   8.483   2.197   1.519  0.6200  0.0424  0.0235
  920MOL0     C24131   8.611   2.145   1.538 -0.1068 -0.9348  0.0419
  920MOL0     C24132   8.714   2.246   1.574  0.1127  0.6125  0.2198
  920MOL0     H24133   8.828   1.732   1.260 -0.7164  2.0422 -0.4934
  920MOL0     H24134   9.055   1.668   1.163  1.1086 -0.9803  0.4793
  920MOL0     H24135   9.424   1.752   1.368  0.3125 -1.4011  0.0029
  920MOL0     H24136   9.380   1.600   1.444 -2.0409  1.7159  1.0883
  920MOL0     H24137   9.482   1.645   1.154  1.4428 -2.4102 -0.7914
  920MOL0     H24138   9.469   1.492   1.236  0.1901 -0.4133  1.3487
  920MOL0     H24139   9.654   1.571   1.382 -0.4198  0.5979  0.6377
  920MOL0     H24140   9.654   1.720   1.314 -2.3586  0.0259 -2.1520
  920MOL0     H24141   9.692   1.475   1.138  0.3131  0.1327 -0.0701
  920MOL0     H24142   9.708   1.636   1.095  0.4123  0.0141 -0.9530
  920MOL0     H24143   9.884   1.661   1.276  0.8516  1.5490 -1.9568
  920MOL0     H24144   9.898   1.486   1.296  4.4164 -1.5000 -2.8654
  920MOL0     H24145  10.059   1.480   1.150  0.4615 -1.1612 -2.5259
  920MOL0     H24146   9.924   1.507   1.026 -1.1887  2.2218  0.7078
  920MOL0     H24147  10.087   1.719   1.179 -0.9695 -0.0287  0.4289
  920MOL0     H24148   9.961   1.748   1.052 -2.6385 -0.3497  3.1143
  920MOL0     H24149  10.205   1.577   0.970 -0.4422 -0.0081  0.8133
  920MOL0     H24150  10.081   1.660   0.880  0.0102  0.9846  0.5972
  920MOL0     H24151  10.364   1.801   1.134 -0.4173  1.6676  1.0287
  920MOL0     H24152  10.468   2.139   1.015  1.7673  0.4731 -0.4617
  920MOL0     H24153  10.490   2.019   1.142 -2.7339  0.4562  0.1130
  920MOL0     H24154  10.630   1.870   1.013 -0.7972 -0.2255 -0.5774
  920MOL0     H24155  10.607   1.981   0.864  0.8500  3.6673 -0.4178
  920MOL0     H24156  10.742   2.053   1.123 -0.3714 -0.7588 -0.6345
  920MOL0     H24157  10.703   2.156   0.982  0.0667  0.1401 -2.8673
  920MOL0     H24158  10.854   1.979   0.849 -0.6626 -2.2192 -0.3864
  920MOL0     H24159  10.884   1.901   0.995 -3.4186 -0.7964  0.4020
  920MOL0     H24160  11.069   1.884   0.886 -1.7431  1.0401  1.8510
  920MOL0     H24161  11.321   1.858   0.889  1.5202  2.2404 -0.7880
  920MOL0     H24162  11.701   2.082   0.654  1.3300  0.7051 -1.3734
  920MOL0     H24163  11.952   2.084   0.637  1.6935 -1.9506  2.1166
  920MOL0     H24164  12.163   2.025   0.722 -0.7722  0.0073  1.6839
  920MOL0     H24165  12.182   2.167   0.636 -0.4877 -2.0743  0.1189
  920MOL0     H24166  12.365   2.259   0.743  0.2656 -0.3370  1.2081
  920MOL0     H24167  12.359   2.132   0.871 -2.3503 -2.0980  0.3465
  920MOL0     H24168  12.540   2.101   0.698 -0.0143 -0.9116  3.9071
  920MOL0     H24169  12.424   1.969   0.702 -0.3776 -0.4008 -3.1806
  920MOL0     H24170  12.415   2.191   0.495  1.2028  0.2221  0.9723
  920MOL0     H24171  12.318   2.048   0.497 -0.7954  0.0196 -0.0854
  920MOL0     H24172  12.564   1.932   0.465 -1.6742 -0.8713 -1.0244
  920MOL0     H24173  12.625   2.092   0.460  0.2769 -0.5725  1.9771
  920MOL0     H24174  12.609   2.006   0.252 -0.4118 -1.2244 -1.1399
  920MOL0     H24175  12.429   1.965   0.269  2.6284 -3.7701  0.2362
  920MOL0     H24176  12.561   2.246   0.246 -0.2993  1.3055 -2.0323
  920MOL0     H24177  12.394   2.218   0.291  0.1657  0.3650 -0.5381
  920MOL0     H24178  12.504   2.264   0.033 -1.1991  2.5036  2.0300
  920MOL0     H24179  12.479   2.082   0.045  4.2241  0.5029  1.7787
  920MOL0     H24180  11.969   2.263   1.037 -1.0965  0.6054  0.9698
  920MOL0     H24181  11.698   2.261   1.026 -0.3949  0.4630 -1.2437
  920MOL0     H24182  11.336   2.295   0.910 -2.0766  0.1746 -0.1196
  920MOL0     H24183  11.110   2.308   0.959  1.8114  1.6860 -1.8118
  920MOL0     H24184   9.228   1.722   1.545  0.2809  1.7011 -0.9503
  920MOL0     H24185   9.003   1.798   1.632 -0.0065 -2.3274  1.1881
  920MOL0     H24186   8.553   1.825   1.487 -0.3168 -0.7985  1.4391
  920MOL0     H24187   8.325   1.900   1.472  1.3081 -1.2194 -0.4663
  920MOL0     H24188   8.129   1.999   1.508 -2.7392 -0.0861 -0.1650
  920MOL0     H24189   8.131   2.071   1.363  0.8341 -0.8768  1.1428
  920MOL0     H24190   7.916   2.140   1.443  1.4515 -1.4905 -1.8475
  920MOL0     H24191   8.020   2.277   1.483 -1.8517  0.6138 -0.4112
  920MOL0     H24192   8.058   2.166   1.713 -0.2056 -2.9717  1.6115
  920MOL0     H24193   7.931   2.061   1.663  0.6896  0.0318 -2.7117
  920MOL0     H24194   7.900   2.365   1.677  2.5555 -0.6673 -3.7780
  920MOL0     H24195   7.780   2.241   1.618 -0.1596  1.3345 -1.3429
  920MOL0     H24196   7.706   2.201   2.016  0.3229 -0.9258 -1.2810
  920MOL0     H24197   8.464   2.303   1.532  0.4034  0.0281 -0.1804
  920MOL0     H24198   8.764   2.220   1.668  3.2801  1.7810 -1.0192
  920MOL0     H24199   8.791   2.258   1.498 -1.7535 -1.7235 -2.2307
  920MOL0     H24200   8.659   2.340   1.587 -1.6534 -0.2497 -0.6603
  921MOL0     O24201   8.586   0.614   6.673 -0.1134  0.3167  0.1222
  921MOL0     C24202   8.709   0.594   6.676 -0.5848 -0.3931 -0.3637
  921MOL0     O24203   8.774   0.474   6.669  0.0708 -0.3559 -0.5176
  921MOL0     C24204   8.697   0.358   6.688  0.0265 -0.2614  0.5157
  921MOL0     C24205   8.633   0.337   6.807  0.2906  0.0416  0.8027
  921MOL0     C24206   8.552   0.228   6.831  0.2432 -0.0419  0.6359
  921MOL0     C24207   8.543   0.121   6.741 -0.2607 -0.2550  0.2803
  921MOL0     O24208   8.466   0.003   6.757  0.0640 -0.6013 -0.4577
  921MOL0     C24209   8.430  -0.038   6.896  0.4988 -0.1199  0.6028
  921MOL0     C24210   8.536  -0.096   6.974 -0.5484 -0.1922 -0.3233
  921MOL0     C24211   8.509  -0.105   7.130 -0.0881  0.1967 -0.3370
  921MOL0     C24212   8.636  -0.168   7.199  0.0776 -0.5994  0.0739
  921MOL0     C24213   8.609  -0.228   7.341  0.2897 -0.7878  0.3529
  921MOL0     C24214   8.547  -0.135   7.441 -0.4987 -0.6463  0.3360
  921MOL0     C24215   8.585  -0.185   7.583 -0.0975 -0.1343  0.1731
  921MOL0     C24216   8.724  -0.126   7.627  0.0251 -0.1057 -0.0409
  921MOL0     N24217   8.757  -0.152   7.765  0.4482  0.2373 -0.0782
  921MOL0     C24218   8.758  -0.277   7.829  0.1454  0.2664 -0.5500
  921MOL0     C24219   8.740  -0.253   7.965 -0.1194  0.8382 -0.6312
  921MOL0     C24220   8.718  -0.369   8.052 -0.6689  0.1618  0.1757
  921MOL0     C24221   8.591  -0.357   8.140 -0.1163 -0.1877  0.0230
  921MOL0     C24222   8.553  -0.490   8.216  0.5832 -0.1160  0.5559
  921MOL0     C24223   8.637  -0.517   8.346 -0.6088 -0.0075 -0.0469
  921MOL0     O24224   8.774  -0.492   8.334  0.2054  0.4396  0.5118
  921MOL0     C24225   8.857  -0.507   8.445 -0.0048  0.1955 -0.0404
  921MOL0     C24226   8.992  -0.504   8.428  0.1303  0.7599 -0.1898
  921MOL0     C24227   9.082  -0.506   8.542 -0.8714 -0.6076  0.3056
  921MOL0     C24228   9.033  -0.517   8.671  0.2503  0.6972  0.2356
  921MOL0     C24229   9.135  -0.507   8.776 -0.6132 -0.1060 -0.6382
  921MOL0     O24230   9.097  -0.530   8.896 -0.3979 -0.1267 -0.5554
  921MOL0     C24231   9.183  -0.550   9.005 -0.3444  0.2417  0.2976
  921MOL0     C24232   9.139  -0.502   9.134 -0.4550  0.4445 -0.1070
  921MOL0     C24233   9.235  -0.514   9.246 -0.1410 -0.2626 -0.0480
  921MOL0     C24234   9.350  -0.593   9.230  0.3301 -0.0899 -0.5480
  921MOL0     O24235   9.428  -0.605   9.344 -0.5620  0.1689 -0.0401
  921MOL0     C24236   9.541  -0.695   9.326  0.8508 -0.0980  0.3124
  921MOL0     C24237   9.602  -0.692   9.462  0.9279  0.4520 -0.2175
  921MOL0     C24238   9.718  -0.786   9.481  0.7455  0.1315 -0.3452
  921MOL0     C24239   9.774  -0.787   9.629  0.4571 -0.6511  0.0026
  921MOL0     C24240   9.841  -0.921   9.665  0.2909 -0.7406 -0.0126
  921MOL0     C24241   9.961  -0.933   9.562  0.2129 -0.2133 -0.4787
  921MOL0     C24242  10.046  -1.056   9.593  0.6494  0.5175  0.3015
  921MOL0     C24243  10.151  -1.026   9.694 -1.1964 -0.6920 -0.1704
  921MOL0    Cl24244  10.250  -1.165   9.752 -0.3191  0.3505  0.3436
  921MOL0     C24245   9.373  -0.650   9.103 -0.5689  0.0683  0.3453
  921MOL0     C24246   9.297  -0.632   8.993  0.9332 -0.3433  0.4766
  921MOL0     O24247   9.251  -0.493   8.741  0.0094  0.1712 -0.7740
  921MOL0     C24248   8.896  -0.530   8.687 -0.0497  0.2592  0.1186
  921MOL0     C24249   8.807  -0.527   8.578 -0.3293  0.5704 -0.1150
  921MOL0     N24250   8.748  -0.117   7.984 -0.6848  0.5869 -0.5131
  921MOL0     N24251   8.754  -0.058   7.863 -0.0701  0.7778 -0.2070
  921MOL0     C24252   8.619   0.138   6.620 -0.0408  1.2320 -0.2420
  921MOL0     C24253   8.693   0.256   6.594  0.1611  0.5025 -0.6339
  921MOL0     C24254   8.793   0.720   6.692  0.3367 -0.1478 -0.2325
  921MOL0     C24255   8.736   0.828   6.753 -0.3207  0.1925  0.1535
  921MOL0     C24256   8.805   0.950   6.774 -0.4874  0.0844  0.2400
  921MOL0     C24257   8.935   0.962   6.721  0.2326  1.0887 -0.2033
  921MOL0     O24258   9.016   1.065   6.759 -0.2115  0.3190  0.2974
  921MOL0     C24259   8.967   1.155   6.866 -0.0805 -0.5583  0.2829
  921MOL0     C24260   9.076   1.255   6.911  0.5692  1.5487 -0.1213
  921MOL0     C24261   9.033   1.360   7.011  0.7973  0.0580 -0.1085
  921MOL0     C24262   9.059   1.335   7.156  0.1953 -0.2338 -0.0856
  921MOL0     C24263   8.957   1.236   7.196 -0.6425  0.3866  0.2135
  921MOL0     C24264   8.887   1.152   7.242  0.4624  0.4507 -0.0414
  921MOL0     C24265   8.997   0.851   6.663 -0.4589 -0.1270 -0.8533
  921MOL0     C24266   8.929   0.729   6.645  0.1330  0.2111  0.1972
  921MOL0     C24267   8.997   0.627   6.568  0.3667  0.5362 -1.0175
  921MOL0     H24268   8.640   0.413   6.884  0.5615 -0.0131  0.8343
  921MOL0     H24269   8.499   0.236   6.926  2.2356  2.4433  1.6637
  921MOL0     H24270   8.379   0.043   6.949  0.1122  0.5070 -0.6935
  921MOL0     H24271   8.349  -0.111   6.885  0.0594  0.1839  1.7083
  921MOL0     H24272   8.625  -0.034   6.961  1.1383 -2.0102  1.6889
  921MOL0     H24273   8.557  -0.199   6.943  2.0855  0.6535 -1.5791
  921MOL0     H24274   8.421  -0.168   7.140 -0.7153  1.1687  0.4453
  921MOL0     H24275   8.500  -0.007   7.177 -2.1288  0.5678 -1.3926
  921MOL0     H24276   8.673  -0.256   7.146 -0.0142 -1.7230  1.7799
  921MOL0     H24277   8.719  -0.097   7.207  0.8208 -1.0503 -2.7734
  921MOL0     H24278   8.536  -0.309   7.337 -2.5677  1.5645  1.3717
  921MOL0     H24279   8.702  -0.264   7.385 -0.1360 -0.4673  1.5569
  921MOL0     H24280   8.584  -0.032   7.432 -1.8257 -0.1204  0.5543
  921MOL0     H24281   8.440  -0.139   7.416 -0.5939 -2.7401  0.8654
  921MOL0     H24282   8.574  -0.294   7.582 -1.9092 -0.0505 -3.2757
  921MOL0     H24283   8.501  -0.147   7.642 -1.6297  0.6375 -2.3667
  921MOL0     H24284   8.807  -0.161   7.565  1.2614 -0.7417  1.8865
  921MOL0     H24285   8.722  -0.018   7.610 -2.7844  0.1463  1.2818
  921MOL0     H24286   8.763  -0.374   7.781 -0.2110  1.2448 -2.6733
  921MOL0     H24287   8.725  -0.468   8.007 -1.2783 -0.0056  0.4438
  921MOL0     H24288   8.800  -0.371   8.124 -0.1873  1.5315 -0.2975
  921MOL0     H24289   8.600  -0.282   8.219 -0.8032 -0.9905  0.8943
  921MOL0     H24290   8.507  -0.321   8.079 -1.8578 -0.7398  1.9670
  921MOL0     H24291   8.566  -0.578   8.152  0.9637  0.9702 -0.9130
  921MOL0     H24292   8.446  -0.493   8.241  0.5765 -2.3099  0.4606
  921MOL0     H24293   8.608  -0.619   8.371  3.0124 -0.9183  1.0772
  921MOL0     H24294   8.612  -0.445   8.425 -2.2868  2.3430 -2.5211
  921MOL0     H24295   9.039  -0.498   8.330  1.4219 -0.5552  0.3152
  921MOL0     H24296   9.187  -0.489   8.520 -1.0854  0.0778 -0.2176
  921MOL0     H24297   9.049  -0.444   9.147 -2.0364 -1.4560 -1.9991
  921MOL0     H24298   9.199  -0.477   9.342  1.9235 -1.2434  1.1797
  921MOL0     H24299   9.515  -0.798   9.297  1.5088  0.2090 -1.5384
  921MOL0     H24300   9.610  -0.661   9.249  0.8697 -2.6634 -0.9348
  921MOL0     H24301   9.639  -0.594   9.492  1.5201  0.3957 -0.7528
  921MOL0     H24302   9.523  -0.706   9.537  1.7329  1.8160  0.9397
  921MOL0     H24303   9.675  -0.884   9.458  1.5994 -0.4523  0.4393
  921MOL0     H24304   9.796  -0.768   9.406 -0.2482 -1.4716 -1.8557
  921MOL0     H24305   9.690  -0.766   9.695  0.8294 -1.6269  0.8050
  921MOL0     H24306   9.845  -0.705   9.648  2.2069 -2.9896  5.2994
  921MOL0     H24307   9.779  -1.011   9.656  0.1990 -0.6123 -0.8071
  921MOL0     H24308   9.877  -0.914   9.768  1.9000  0.7359 -0.6273
  921MOL0     H24309   9.925  -0.936   9.459  0.7308 -0.0022 -0.6714
  921MOL0     H24310  10.021  -0.842   9.575 -2.3319  1.6526 -0.8835
  921MOL0     H24311  10.096  -1.104   9.508 -0.0247 -1.8915  1.1647
  921MOL0     H24312   9.986  -1.130   9.646  2.5044  0.3297  2.3054
  921MOL0     H24313  10.210  -0.945   9.650  0.3866 -2.4274 -1.4028
  921MOL0     H24314  10.105  -0.977   9.781  1.3665  1.9701 -0.1280
  921MOL0     H24315   9.453  -0.722   9.087 -0.9746  0.0413 -1.9407
  921MOL0     H24316   9.323  -0.671   8.895 -1.8404 -0.0683 -0.4504
  921MOL0     H24317   8.854  -0.546   8.786  0.5157  0.3372  0.3734
  921MOL0     H24318   8.704  -0.527   8.612  0.4431  1.6638  2.4872
  921MOL0     H24319   8.623   0.059   6.546 -1.0151 -0.5515  1.5128
  921MOL0     H24320   8.752   0.267   6.503 -2.4412 -0.0325 -2.5242
  921MOL0     H24321   8.642   0.814   6.805 -0.7834  0.2461 -0.6472
  921MOL0     H24322   8.753   1.032   6.821 -0.2488 -0.7487  2.0557
  921MOL0     H24323   8.928   1.108   6.957 -0.4138  1.2951  1.1458
  921MOL0     H24324   8.880   1.207   6.827  0.9961  2.1778  1.2902
  921MOL0     H24325   9.102   1.320   6.827  0.6957 -0.8184 -2.0128
  921MOL0     H24326   9.166   1.204   6.949 -1.5313 -1.4355  1.3000
  921MOL0     H24327   8.930   1.392   6.992  0.3805 -1.1987 -0.0309
  921MOL0     H24328   9.088   1.452   6.990 -0.0832  1.5645  3.4953
  921MOL0     H24329   9.154   1.291   7.185  0.8227 -0.0702 -1.7666
  921MOL0     H24330   9.033   1.421   7.218  0.8267 -0.7615  0.9394
  921MOL0     H24331   8.822   1.085   7.294 -1.1035  1.6424 -0.3679
  921MOL0     H24332   9.102   0.866   6.638 -0.5162  0.6040 -0.6821
  921MOL0     H24333   9.084   0.668   6.516  0.8455  0.3327 -0.3955
  921MOL0     H24334   9.042   0.540   6.618 -0.9788 -0.1012 -0.8599
  921MOL0     H24335   8.933   0.585   6.490  0.2775 -2.2069  0.4012
  922MOL0     O24336   2.385   2.311   0.530  0.1704  0.0596  0.1993
  922MOL0     C24337   2.303   2.249   0.459  1.0737  0.7615  0.7659
  922MOL0     O24338   2.327   2.128   0.390  0.2012  0.4093  0.0463
  922MOL0     C24339   2.445   2.070   0.426 -0.4267  0.2325  0.1714
  922MOL0     C24340   2.444   1.964   0.521  0.8558  0.1227  0.8631
  922MOL0     C24341   2.567   1.908   0.558  0.5522  0.0654  0.0844
  922MOL0     C24342   2.691   1.962   0.512 -0.2696  0.4566 -1.3218
  922MOL0     O24343   2.805   1.891   0.540 -0.4045 -0.0599  0.2213
  922MOL0     C24344   2.899   1.879   0.435 -0.2495 -0.0978 -0.2060
  922MOL0     C24345   3.019   1.815   0.496  0.1259  0.4638  0.1991
  922MOL0     C24346   3.114   1.764   0.384  0.2430 -0.1033 -0.0106
  922MOL0     C24347   3.229   1.697   0.450 -0.2056 -0.1749  0.0923
  922MOL0     C24348   3.339   1.649   0.356  0.2450  0.8960 -0.0927
  922MOL0     C24349   3.450   1.580   0.424  0.2110 -1.0708 -0.1498
  922MOL0     C24350   3.569   1.569   0.340  0.2644  0.0999  0.3775
  922MOL0     C24351   3.692   1.496   0.398 -0.5828  0.3023 -0.2101
  922MOL0     N24352   3.661   1.350   0.419 -0.3626 -0.1523 -0.5312
  922MOL0     C24353   3.592   1.294   0.528  0.2175  0.2496 -0.4670
  922MOL0     C24354   3.606   1.159   0.528  0.4178  0.1373 -0.5381
  922MOL0     C24355   3.571   1.063   0.642  0.5498 -0.1710 -0.1023
  922MOL0     C24356   3.425   1.018   0.622  0.2415  0.5300 -0.0409
  922MOL0     C24357   3.392   0.891   0.704  0.2340 -0.2298  0.3292
  922MOL0     C24358   3.247   0.848   0.697  0.1393 -0.7503 -0.4685
  922MOL0     O24359   3.160   0.953   0.732  0.1057 -0.1805 -1.0944
  922MOL0     C24360   3.031   0.912   0.749 -0.1281 -1.0246  0.7683
  922MOL0     C24361   2.970   0.786   0.719 -0.5586  0.0253  0.0298
  922MOL0     C24362   2.839   0.760   0.753  0.9095  0.2711 -0.8059
  922MOL0     C24363   2.764   0.856   0.813 -0.5498 -0.2186 -0.7779
  922MOL0     C24364   2.625   0.823   0.852  0.8932 -0.6018 -0.4320
  922MOL0     O24365   2.572   0.703   0.818  0.5635 -0.1773  0.0393
  922MOL0     C24366   2.449   0.659   0.864 -0.1491 -0.5881  0.7565
  922MOL0     C24367   2.442   0.545   0.947 -0.2810 -0.9055 -0.4715
  922MOL0     C24368   2.317   0.500   0.980  0.3300  0.0423 -0.1142
  922MOL0     C24369   2.193   0.563   0.945 -0.4404 -0.1661  0.0418
  922MOL0     O24370   2.072   0.506   0.977 -0.1655 -0.7803 -0.3389
  922MOL0     C24371   1.964   0.542   0.890  0.6299 -0.1327  0.1920
  922MOL0     C24372   1.846   0.448   0.927 -0.6139 -0.3848 -0.0444
  922MOL0     C24373   1.723   0.506   0.851  0.0157 -0.4028 -0.4789
  922MOL0     C24374   1.597   0.417   0.869 -0.7046 -0.0873 -0.3352
  922MOL0     C24375   1.480   0.476   0.791 -0.2758  0.0384 -1.2418
  922MOL0     C24376   1.353   0.393   0.821 -0.3127  0.0326  0.7289
  922MOL0     C24377   1.235   0.446   0.728  0.1482  0.0665  0.0283
  922MOL0     C24378   1.120   0.340   0.726 -0.3498 -1.0739  0.6495
  922MOL0    Cl24379   0.974   0.401   0.648 -0.1868 -0.2386 -0.1773
  922MOL0     C24380   2.201   0.682   0.871 -0.1965 -0.9442  0.3612
  922MOL0     C24381   2.326   0.735   0.829 -0.0145  0.0546 -0.1874
  922MOL0     O24382   2.560   0.911   0.906  0.3883 -0.4152 -0.1854
  922MOL0     C24383   2.821   0.977   0.845 -0.4519 -0.3622 -0.1678
  922MOL0     C24384   2.951   1.005   0.812 -0.2838  0.3238 -1.1086
  922MOL0     N24385   3.674   1.125   0.414 -0.6913 -0.2664  0.5030
  922MOL0     N24386   3.703   1.236   0.355 -0.2252  0.2526  0.4963
  922MOL0     C24387   2.689   2.065   0.410  0.6650 -0.1810 -0.3435
  922MOL0     C24388   2.562   2.121   0.373  0.5013 -0.0616 -0.4240
  922MOL0     C24389   2.166   2.312   0.447  0.5179  0.6426 -0.9608
  922MOL0     C24390   2.056   2.229   0.402  0.0450  0.6041 -0.1918
  922MOL0     C24391   1.935   2.291   0.385 -0.2326 -0.1460 -1.0838
  922MOL0     C24392   1.919   2.432   0.396  0.8238 -0.1986  0.0970
  922MOL0     O24393   1.803   2.492   0.372 -0.1759  0.0160  0.0428
  922MOL0     C24394   1.699   2.437   0.304 -0.4258  0.6183 -0.8978
  922MOL0     C24395   1.597   2.362   0.390  0.0816 -0.4270 -0.1602
  922MOL0     C24396   1.515   2.451   0.474  0.9968 -0.1349  0.3672
  922MOL0     C24397   1.411   2.374   0.558  0.3045  0.7447  0.0606
  922MOL0     C24398   1.420   2.416   0.695  0.2422 -0.1035  0.0412
  922MOL0     C24399   1.436   2.481   0.799  0.1472  0.9896  0.5578
  922MOL0     C24400   2.018   2.509   0.437  0.0302 -0.1506 -0.1972
  922MOL0     C24401   2.143   2.451   0.458 -0.4625 -0.2562 -0.2875
  922MOL0     C24402   2.244   2.556   0.505 -0.0291 -0.4640 -0.3563
  922MOL0     H24403   2.350   1.916   0.545  1.0201 -0.6816 -0.0264
  922MOL0     H24404   2.567   1.821   0.622 -1.3668  0.5343  0.7868
  922MOL0     H24405   2.858   1.806   0.364 -0.6626 -4.0222  3.6192
  922MOL0     H24406   2.924   1.972   0.383  0.2538 -0.5131 -0.7171
  922MOL0     H24407   2.987   1.732   0.561 -0.5610  1.0759  0.6571
  922MOL0     H24408   3.080   1.877   0.562  0.6597  0.1625 -0.0017
  922MOL0     H24409   3.147   1.849   0.323 -1.8262  0.0295 -1.0552
  922MOL0     H24410   3.061   1.693   0.320 -0.8007  3.0852 -3.0594
  922MOL0     H24411   3.281   1.760   0.523  0.1489  0.8456 -1.0126
  922MOL0     H24412   3.201   1.603   0.499  2.7133 -0.5448  1.2720
  922MOL0     H24413   3.296   1.582   0.280  2.0369 -0.1909 -0.1979
  922MOL0     H24414   3.374   1.742   0.310  1.5987  0.9117  0.9324
  922MOL0     H24415   3.480   1.636   0.513  0.0794 -0.3992 -0.5266
  922MOL0     H24416   3.420   1.478   0.450 -1.2133 -0.0131  2.6913
  922MOL0     H24417   3.601   1.668   0.305 -1.8139  0.0909 -1.7849
  922MOL0     H24418   3.556   1.520   0.243 -0.5942 -0.6118  0.8446
  922MOL0     H24419   3.782   1.509   0.338 -1.3302  1.7308 -1.0728
  922MOL0     H24420   3.714   1.553   0.488  0.2427  2.2229 -1.5574
  922MOL0     H24421   3.552   1.359   0.604 -0.5279  2.4996 -2.6528
  922MOL0     H24422   3.625   0.968   0.637  1.3133  0.3027 -1.3946
  922MOL0     H24423   3.582   1.105   0.742 -1.3024 -1.9577  0.9468
  922MOL0     H24424   3.359   1.100   0.651 -0.2161  0.4787 -0.9078
  922MOL0     H24425   3.398   0.999   0.517 -1.0371  0.5520  0.2571
  922MOL0     H24426   3.399   0.915   0.810  0.2607 -1.7021  0.6786
  922MOL0     H24427   3.443   0.797   0.681 -1.0881 -1.3152  1.6584
  922MOL0     H24428   3.230   0.751   0.745  2.9686 -1.6062 -1.0311
  922MOL0     H24429   3.227   0.837   0.590 -2.2322 -1.6823 -0.0002
  922MOL0     H24430   3.027   0.712   0.664 -1.0172  0.1771 -0.6799
  922MOL0     H24431   2.801   0.665   0.716 -2.4560  1.2472 -0.2050
  922MOL0     H24432   2.535   0.492   0.966  1.3631  1.9571  0.0547
  922MOL0     H24433   2.320   0.400   1.022  3.3069  0.1658  0.1608
  922MOL0     H24434   1.935   0.645   0.912  1.1116 -0.4718  2.6699
  922MOL0     H24435   1.983   0.525   0.784  0.1926 -1.7418  0.3434
  922MOL0     H24436   1.863   0.343   0.901 -1.3661 -0.2406 -1.2327
  922MOL0     H24437   1.832   0.464   1.034  1.2669  3.7522 -0.2278
  922MOL0     H24438   1.697   0.609   0.879  0.7192  0.5154 -2.9458
  922MOL0     H24439   1.759   0.505   0.748  0.9939  1.8198 -0.2356
  922MOL0     H24440   1.574   0.418   0.976  0.0809  1.4451 -0.1544
  922MOL0     H24441   1.622   0.319   0.827  2.1742 -0.4008  1.7968
  922MOL0     H24442   1.512   0.481   0.687  2.0610 -1.9521 -0.7151
  922MOL0     H24443   1.462   0.579   0.823  2.9047  0.6980 -1.2228
  922MOL0     H24444   1.376   0.291   0.788 -0.5169  0.5439 -1.1112
  922MOL0     H24445   1.331   0.397   0.928 -0.2146  0.2903  0.7390
  922MOL0     H24446   1.274   0.474   0.630 -2.2546  1.6667 -0.5456
  922MOL0     H24447   1.197   0.539   0.770  2.1899  1.2691 -0.6420
  922MOL0     H24448   1.159   0.255   0.670  2.3151  0.4960 -0.0640
  922MOL0     H24449   1.085   0.312   0.825 -1.4136 -0.9810  0.3063
  922MOL0     H24450   2.113   0.746   0.869 -0.6157 -1.4329  1.7682
  922MOL0     H24451   2.323   0.819   0.760 -4.3775  0.5056  0.3035
  922MOL0     H24452   2.769   1.054   0.902  1.0524  0.5771 -0.0171
  922MOL0     H24453   2.985   1.107   0.828  2.2678 -0.1549 -2.7987
  922MOL0     H24454   2.782   2.106   0.370  2.4700 -2.2574  1.4472
  922MOL0     H24455   2.550   2.201   0.301 -0.5491  1.2642  1.1550
  922MOL0     H24456   2.069   2.121   0.396 -0.1409  0.5599  0.1879
  922MOL0     H24457   1.848   2.227   0.386 -0.1486 -0.6201  4.2050
  922MOL0     H24458   1.743   2.367   0.232 -2.1078  0.6321 -1.9930
  922MOL0     H24459   1.654   2.521   0.251 -2.3974  1.3578  1.7536
  922MOL0     H24460   1.652   2.285   0.445  3.0756 -0.0136 -2.3517
  922MOL0     H24461   1.530   2.312   0.319  0.3286  0.9382 -1.3944
  922MOL0     H24462   1.453   2.504   0.401 -0.1585 -2.9731 -0.8717
  922MOL0     H24463   1.575   2.520   0.534 -0.5967  3.2895 -1.6237
  922MOL0     H24464   1.310   2.373   0.516 -0.1445 -0.6449  1.1126
  922MOL0     H24465   1.445   2.270   0.558  0.1130  0.5531 -3.2908
  922MOL0     H24466   1.459   2.525   0.894  1.2684  2.6063 -0.4206
  922MOL0     H24467   1.995   2.615   0.436 -0.9933 -0.3411  0.7906
  922MOL0     H24468   2.191   2.647   0.535 -0.0432 -0.7131  0.3871
  922MOL0     H24469   2.295   2.527   0.598  2.1828  2.2408 -0.5783
  922MOL0     H24470   2.317   2.578   0.427  0.9125 -1.6819  0.1477
  923MOL0     O24471   6.948   1.570   9.666 -0.0910  0.2441  0.1277
  923MOL0     C24472   6.936   1.638   9.573  0.0203 -0.8128  0.7087
  923MOL0     O24473   7.039   1.674   9.490 -0.1981 -0.3976 -0.5720
  923MOL0     C24474   7.166   1.671   9.527  0.9112  0.3871  0.7871
  923MOL0     C24475   7.239   1.555   9.501 -0.1255 -1.0900  0.8024
  923MOL0     C24476   7.372   1.567   9.534 -0.7127 -0.1994  0.0964
  923MOL0     C24477   7.431   1.689   9.589  0.1282  0.1679  0.2249
  923MOL0     O24478   7.573   1.688   9.607 -0.2250  0.0523  0.9880
  923MOL0     C24479   7.643   1.809   9.623  0.1287 -0.7935  0.1462
  923MOL0     C24480   7.795   1.805   9.629  0.2316  0.8708 -0.8592
  923MOL0     C24481   7.847   1.799   9.486  0.2948 -0.0845  0.0457
  923MOL0     C24482   7.841   1.652   9.415  0.1691  1.4158 -0.0024
  923MOL0     C24483   7.886   1.635   9.276 -0.5410  1.2052  0.5994
  923MOL0     C24484   8.029   1.659   9.264 -0.1169  0.0528  0.8987
  923MOL0     C24485   8.087   1.597   9.127 -0.1453 -0.5596 -0.7045
  923MOL0     C24486   8.235   1.594   9.120 -0.2968 -0.3180 -0.5101
  923MOL0     N24487   8.278   1.550   8.994  0.3326  0.8156  0.4829
  923MOL0     C24488   8.285   1.633   8.885 -0.2614 -0.2611 -0.1888
  923MOL0     C24489   8.371   1.570   8.796 -0.0127 -0.1986  0.2824
  923MOL0     C24490   8.452   1.633   8.670  0.4944 -0.3910  0.5795
  923MOL0     C24491   8.600   1.669   8.704  0.3715  0.2881  0.3911
  923MOL0     C24492   8.620   1.774   8.816 -0.6428 -0.3302 -0.5668
  923MOL0     C24493   8.773   1.794   8.839 -0.3401  0.9814  0.9647
  923MOL0     O24494   8.826   1.869   8.727  0.0982  0.2190 -0.6534
  923MOL0     C24495   8.958   1.906   8.726 -0.3951  0.2359 -0.0428
  923MOL0     C24496   9.021   1.968   8.607  0.4349  0.4285  0.1754
  923MOL0     C24497   9.153   2.001   8.600 -0.2760 -0.0606 -0.4184
  923MOL0     C24498   9.244   1.975   8.708 -0.4505  0.0543 -0.2514
  923MOL0     C24499   9.385   2.020   8.701  0.1833  0.1312 -0.4760
  923MOL0     O24500   9.422   2.069   8.578 -0.1163 -0.1131  0.7604
  923MOL0     C24501   9.557   2.078   8.546  0.1990  0.3914  0.5679
  923MOL0     C24502   9.652   1.985   8.572 -0.1950 -0.3669 -0.6332
  923MOL0     C24503   9.783   1.990   8.524  0.4533 -0.3892  0.2974
  923MOL0     C24504   9.821   2.107   8.456  0.3602 -0.3586 -0.0022
  923MOL0     O24505   9.952   2.130   8.425 -0.0614  0.3611  0.5001
  923MOL0     C24506   9.993   2.189   8.303  0.8228  0.5659  0.1610
  923MOL0     C24507   9.930   2.108   8.189  0.3777 -0.3511  0.1082
  923MOL0     C24508   9.972   1.956   8.183 -0.3576 -0.0080  0.0159
  923MOL0     C24509  10.122   1.923   8.227 -0.3194 -0.3605  0.5669
  923MOL0     C24510  10.170   1.778   8.200 -0.4895 -0.5693 -0.2362
  923MOL0     C24511  10.297   1.734   8.272  0.0269 -0.1717 -0.4021
  923MOL0     C24512  10.419   1.817   8.233 -0.4648  0.2475 -0.1110
  923MOL0     C24513  10.537   1.774   8.328 -0.2819 -0.2032  0.9624
  923MOL0    Cl24514  10.670   1.888   8.303  0.1511  0.0622 -0.4209
  923MOL0     C24515   9.727   2.201   8.422  0.7545 -0.6397 -0.1753
  923MOL0     C24516   9.591   2.184   8.470 -0.8735  0.3587 -0.0170
  923MOL0     O24517   9.457   2.005   8.800  0.0213 -0.5169  0.6600
  923MOL0     C24518   9.182   1.920   8.825  0.5606  0.1839 -0.6788
  923MOL0     C24519   9.048   1.880   8.830 -0.1537 -0.0403 -0.4196
  923MOL0     N24520   8.407   1.453   8.850 -0.2709  0.1040 -0.1739
  923MOL0     N24521   8.355   1.441   8.970  0.0798  0.4639  0.0358
  923MOL0     C24522   7.348   1.797   9.621 -1.0373  0.0459  0.2368
  923MOL0     C24523   7.215   1.794   9.585  0.4799  0.1232  0.2798
  923MOL0     C24524   6.798   1.681   9.546  0.2192 -0.8727  0.5723
  923MOL0     C24525   6.731   1.730   9.658  0.1117 -0.1680  0.3629
  923MOL0     C24526   6.595   1.780   9.651 -0.5481  0.8288 -0.2588
  923MOL0     C24527   6.544   1.774   9.523 -0.2319 -0.1254 -0.6790
  923MOL0     O24528   6.421   1.818   9.499 -0.1830  1.2411 -0.0270
  923MOL0     C24529   6.320   1.756   9.590 -0.7794  0.7586  0.0162
  923MOL0     C24530   6.241   1.643   9.519 -0.6718 -0.6176  0.5484
  923MOL0     C24531   6.181   1.680   9.382 -0.0589 -0.7461 -0.2050
  923MOL0     C24532   6.104   1.811   9.383  0.2539  0.4129 -0.6572
  923MOL0     C24533   6.036   1.829   9.255  0.2537  0.0771  0.0650
  923MOL0     C24534   5.968   1.841   9.156 -0.0732 -0.0230 -0.3100
  923MOL0     C24535   6.598   1.704   9.415 -0.7981 -0.8215  0.1801
  923MOL0     C24536   6.736   1.662   9.420  0.6561 -0.5808 -0.6756
  923MOL0     C24537   6.802   1.597   9.308  0.6181 -0.5344  0.2354
  923MOL0     H24538   7.185   1.471   9.457 -1.7796 -1.2031  2.8917
  923MOL0     H24539   7.434   1.481   9.513 -0.1156  0.7614 -2.4381
  923MOL0     H24540   7.620   1.877   9.541  2.3221  3.3095  2.5633
  923MOL0     H24541   7.614   1.850   9.721  0.6813  3.1847 -1.1892
  923MOL0     H24542   7.827   1.723   9.695  2.6305  2.7751  0.5547
  923MOL0     H24543   7.832   1.893   9.684 -1.9235  2.0023 -1.1230
  923MOL0     H24544   7.953   1.826   9.492  0.2080  0.0074  1.3278
  923MOL0     H24545   7.794   1.865   9.416 -2.9823 -1.5695  0.9105
  923MOL0     H24546   7.890   1.575   9.476 -0.0147  1.1138 -0.2334
  923MOL0     H24547   7.735   1.624   9.412  1.1885 -3.1711  0.1973
  923MOL0     H24548   7.870   1.535   9.235  0.8979  0.6425  1.3366
  923MOL0     H24549   7.830   1.707   9.216  1.3840  1.1150 -1.4582
  923MOL0     H24550   8.057   1.764   9.275  0.2855  0.1272 -0.6698
  923MOL0     H24551   8.079   1.604   9.344 -0.5696 -0.7540  0.6341
  923MOL0     H24552   8.057   1.669   9.050 -1.0343 -0.6088 -0.4122
  923MOL0     H24553   8.042   1.502   9.095 -0.6484 -0.0145 -1.6693
  923MOL0     H24554   8.274   1.693   9.146  0.7584 -1.0041  0.6393
  923MOL0     H24555   8.281   1.531   9.197 -1.6322  0.1605  0.7216
  923MOL0     H24556   8.252   1.736   8.883  2.6558  0.8303  1.5360
  923MOL0     H24557   8.460   1.565   8.584  0.9444  0.4988 -0.0943
  923MOL0     H24558   8.415   1.731   8.638 -0.1251 -1.0025 -0.6714
  923MOL0     H24559   8.651   1.578   8.735 -3.3915 -2.5034 -0.7868
  923MOL0     H24560   8.646   1.699   8.610 -1.4019 -0.3892 -0.7662
  923MOL0     H24561   8.575   1.742   8.910 -0.7202  1.8905  0.2166
  923MOL0     H24562   8.568   1.868   8.795 -2.7930 -1.1238  0.8739
  923MOL0     H24563   8.820   1.696   8.836  1.1166  1.6189  2.0536
  923MOL0     H24564   8.798   1.851   8.929  1.7752  0.1522  0.9380
  923MOL0     H24565   8.960   1.988   8.520  0.5026  2.5318  0.5487
  923MOL0     H24566   9.174   2.054   8.507 -2.0433 -2.6327 -2.4004
  923MOL0     H24567   9.631   1.907   8.645  2.0024  1.1359  1.8063
  923MOL0     H24568   9.857   1.913   8.546  1.5672  0.5646  0.0009
  923MOL0     H24569   9.963   2.293   8.293 -0.8228  0.3672  2.2314
  923MOL0     H24570  10.101   2.181   8.289  0.7388  0.3176 -0.3763
  923MOL0     H24571   9.821   2.117   8.182  0.3994  3.1347  2.1014
  923MOL0     H24572   9.971   2.156   8.100  0.6014 -0.8190 -0.0493
  923MOL0     H24573   9.906   1.889   8.238 -1.9771  0.5330 -1.2044
  923MOL0     H24574   9.955   1.926   8.079  0.4796 -0.2459 -0.0648
  923MOL0     H24575  10.130   1.944   8.334 -0.0312 -0.3018  0.5344
  923MOL0     H24576  10.191   1.976   8.160 -1.7373 -0.4581 -1.0135
  923MOL0     H24577  10.189   1.764   8.093 -1.3995  1.1511 -0.6543
  923MOL0     H24578  10.088   1.718   8.241  0.1453 -1.0054  0.3996
  923MOL0     H24579  10.284   1.739   8.381  1.2269  1.7981 -0.3009
  923MOL0     H24580  10.325   1.633   8.238 -1.6484 -0.3816 -1.2536
  923MOL0     H24581  10.418   1.926   8.248  4.0849  0.7025 -1.4728
  923MOL0     H24582  10.460   1.792   8.134 -0.8351 -1.7327  0.1966
  923MOL0     H24583  10.505   1.780   8.432 -0.5456  2.0221  0.8125
  923MOL0     H24584  10.569   1.671   8.307 -1.4927 -0.1336 -1.6959
  923MOL0     H24585   9.734   2.281   8.349 -0.7436 -2.2308 -2.1506
  923MOL0     H24586   9.512   2.251   8.436  0.8275  1.3742 -2.3308
  923MOL0     H24587   9.247   1.896   8.910 -1.0200  1.2329  0.8835
  923MOL0     H24588   9.013   1.830   8.919  0.8622  0.3854  0.2339
  923MOL0     H24589   7.393   1.889   9.659 -0.5958  0.8007 -1.9589
  923MOL0     H24590   7.147   1.876   9.603  0.1087 -0.3865  1.2378
  923MOL0     H24591   6.777   1.720   9.756 -1.6127 -0.4328  1.2041
  923MOL0     H24592   6.548   1.816   9.742 -0.0853 -2.2185  1.3228
  923MOL0     H24593   6.242   1.830   9.605 -3.2162 -1.9231  1.5742
  923MOL0     H24594   6.356   1.735   9.691  1.1750  0.7453 -0.6263
  923MOL0     H24595   6.154   1.612   9.578 -0.3175  0.9569  1.9938
  923MOL0     H24596   6.311   1.560   9.512  2.7968  1.8633  2.5439
  923MOL0     H24597   6.122   1.591   9.359 -0.5297 -1.6624  3.7740
  923MOL0     H24598   6.256   1.697   9.305 -2.1130  0.4749 -2.0454
  923MOL0     H24599   6.027   1.790   9.459  0.2431 -0.1043 -0.8060
  923MOL0     H24600   6.156   1.906   9.393  2.0219 -0.3857 -1.7865
  923MOL0     H24601   5.897   1.852   9.076 -0.7633  2.9402  0.5940
  923MOL0     H24602   6.536   1.698   9.326  0.7764 -0.6541 -0.9655
  923MOL0     H24603   6.894   1.650   9.282  1.4224 -0.8190  2.3078
  923MOL0     H24604   6.842   1.500   9.341  3.5056  0.4857 -0.0274
  923MOL0     H24605   6.733   1.590   9.224 -0.4902 -3.4910  1.2473
  924MOL0     O24606  11.161   8.983  11.281  0.5846 -0.3967 -0.4648
  924MOL0     C24607  11.123   9.032  11.390 -0.2350 -0.0930 -0.1293
  924MOL0     O24608  11.200   9.100  11.480 -0.4781 -0.1391  0.7562
  924MOL0     C24609  11.325   9.139  11.457  0.0927 -0.3511 -0.5060
  924MOL0     C24610  11.416   9.132  11.562  0.3115  0.4295  0.0871
  924MOL0     C24611  11.550   9.162  11.550 -0.4787 -0.1325 -0.3650
  924MOL0     C24612  11.602   9.208  11.428  0.1297  0.2339  0.0527
  924MOL0     O24613  11.739   9.232  11.423 -0.3257  0.0276  0.0337
  924MOL0     C24614  11.780   9.332  11.329 -0.3721 -0.7904  0.4353
  924MOL0     C24615  11.926   9.380  11.367 -0.0940  0.6545 -0.2028
  924MOL0     C24616  12.011   9.265  11.415 -1.0027  0.3175  0.7916
  924MOL0     C24617  12.160   9.305  11.425 -0.2062  0.6299 -0.4757
  924MOL0     C24618  12.239   9.182  11.474 -0.5128  0.3589  0.5062
  924MOL0     C24619  12.385   9.214  11.472 -0.0645  0.8411  0.1896
  924MOL0     C24620  12.472   9.102  11.538  0.1124 -0.2570 -0.2736
  924MOL0     C24621  12.623   9.124  11.529  0.0085  0.4996  0.5430
  924MOL0     N24622  12.692   9.060  11.643 -0.0452  0.4914  0.3323
  924MOL0     C24623  12.799   8.968  11.630  0.1658 -0.7396 -0.4332
  924MOL0     C24624  12.851   8.952  11.747  0.1487  0.1703 -0.4775
  924MOL0     C24625  12.964   8.864  11.793 -0.5886  0.2624  0.5709
  924MOL0     C24626  12.918   8.766  11.894 -0.5404 -0.2907  0.0411
  924MOL0     C24627  12.818   8.669  11.835  0.3042 -0.1219 -0.7332
  924MOL0     C24628  12.735   8.579  11.927 -1.1034 -0.6941  0.0731
  924MOL0     O24629  12.798   8.452  11.957 -0.5239  0.2464 -0.4654
  924MOL0     C24630  12.902   8.440  12.048  0.2559  0.6501  0.1231
  924MOL0     C24631  12.977   8.326  12.036  0.3186 -0.4297  0.2800
  924MOL0     C24632  13.092   8.315  12.119  0.1137  0.8694  0.1918
  924MOL0     C24633  13.142   8.411  12.208  0.4405 -0.8146  0.0349
  924MOL0     C24634  13.276   8.388  12.274  1.1920 -0.4377  0.8510
  924MOL0     O24635  13.335   8.496  12.339  0.2278  0.3377  0.2491
  924MOL0     C24636  13.471   8.486  12.354  0.5315 -0.2865 -0.9885
  924MOL0     C24637  13.530   8.460  12.471 -0.3192 -0.7289 -0.0998
  924MOL0     C24638  13.674   8.464  12.486 -0.3353  0.3095 -0.3503
  924MOL0     C24639  13.754   8.464  12.373 -0.1791 -0.7643 -0.0532
  924MOL0     O24640  13.892   8.454  12.383  0.8533 -0.0629  0.0667
  924MOL0     C24641  13.966   8.546  12.466 -0.8208  0.0868  0.1209
  924MOL0     C24642  14.117   8.507  12.459  0.4254  0.4086  0.6950
  924MOL0     C24643  14.196   8.628  12.517 -0.2295  0.2107  0.0043
  924MOL0     C24644  14.347   8.605  12.509 -0.1619  0.0381  1.0942
  924MOL0     C24645  14.429   8.732  12.552 -0.4326  0.6250 -0.5008
  924MOL0     C24646  14.578   8.694  12.570  0.5049  0.1940  0.1009
  924MOL0     C24647  14.646   8.808  12.641 -0.1806  0.2118  0.0073
  924MOL0     C24648  14.639   8.924  12.543 -0.1605 -0.2813  0.2989
  924MOL0    Cl24649  14.749   9.059  12.583  0.0256 -0.4136  0.5973
  924MOL0     C24650  13.693   8.502  12.256  0.1026 -0.5208  0.5879
  924MOL0     C24651  13.553   8.517  12.250 -0.5228 -0.2354 -0.4905
  924MOL0     O24652  13.332   8.283  12.248  0.0736  0.5861 -0.1110
  924MOL0     C24653  13.057   8.525  12.220 -0.2991  0.0100  0.2341
  924MOL0     C24654  12.939   8.535  12.147 -0.7973  0.1736  0.0042
  924MOL0     N24655  12.781   9.032  11.839 -0.4974  1.1453  0.1964
  924MOL0     N24656  12.684   9.097  11.777 -0.2167 -1.3198 -0.2006
  924MOL0     C24657  11.515   9.221  11.320  0.3475 -0.1496  0.5014
  924MOL0     C24658  11.374   9.190  11.342 -0.3777 -0.4524  1.0302
  924MOL0     C24659  10.977   9.018  11.420 -0.0554  0.0931 -0.3420
  924MOL0     C24660  10.896   8.968  11.317  0.1654  0.7621  0.8496
  924MOL0     C24661  10.756   8.958  11.339  0.0607 -0.6426 -0.5433
  924MOL0     C24662  10.699   8.998  11.460  1.3972 -0.4834 -0.0691
  924MOL0     O24663  10.564   8.988  11.498 -0.3544 -0.7872 -0.4250
  924MOL0     C24664  10.473   8.940  11.401  0.0150 -0.1819  0.1345
  924MOL0     C24665  10.365   8.860  11.474  1.1823 -0.4404 -0.4882
  924MOL0     C24666  10.265   8.959  11.542  0.2118 -0.0903  0.6273
  924MOL0     C24667  10.155   8.892  11.616 -0.5475  0.2067 -0.3689
  924MOL0     C24668  10.049   8.989  11.651 -0.1107 -0.4467  0.2184
  924MOL0     C24669   9.956   9.060  11.690  0.4895 -0.9823  0.4123
  924MOL0     C24670  10.784   9.052  11.558 -0.8861 -0.0307 -0.2881
  924MOL0     C24671  10.923   9.058  11.542 -0.5282  0.0913 -0.3250
  924MOL0     C24672  11.005   9.118  11.654 -0.1514 -0.1995  0.5668
  924MOL0     H24673  11.377   9.096  11.657 -0.9079 -0.8833 -0.8811
  924MOL0     H24674  11.605   9.148  11.642  0.9475  0.0033 -1.1667
  924MOL0     H24675  11.788   9.288  11.229 -0.0296  0.6518 -0.1981
  924MOL0     H24676  11.715   9.420  11.322  0.6479 -0.1329 -1.7208
  924MOL0     H24677  11.932   9.454  11.447  2.8342 -1.5011  1.7486
  924MOL0     H24678  11.972   9.419  11.276 -0.6130  2.8730  0.4209
  924MOL0     H24679  12.004   9.178  11.350  1.9280 -0.0879  0.8820
  924MOL0     H24680  11.983   9.225  11.513 -2.3916 -0.2253  0.2050
  924MOL0     H24681  12.211   9.335  11.333  1.2981  0.6535  0.3432
  924MOL0     H24682  12.176   9.388  11.494  0.2559 -0.0391  0.2380
  924MOL0     H24683  12.211   9.157  11.576  0.6409  0.2439  0.8036
  924MOL0     H24684  12.216   9.097  11.409  1.4927  0.4689 -0.4437
  924MOL0     H24685  12.420   9.223  11.368  0.4428  3.4504  0.5205
  924MOL0     H24686  12.396   9.315  11.512  0.4321  1.1454 -0.6753
  924MOL0     H24687  12.449   9.002  11.499 -0.5549 -0.9154  1.6960
  924MOL0     H24688  12.441   9.090  11.642 -1.6000  0.0928 -0.7154
  924MOL0     H24689  12.661   9.085  11.433 -2.0033  2.4451 -1.1627
  924MOL0     H24690  12.653   9.229  11.534 -1.3169  1.0382 -1.4704
  924MOL0     H24691  12.839   8.922  11.540 -0.3524 -1.5695 -0.2545
  924MOL0     H24692  13.002   8.812  11.705  2.1040  2.9798 -0.0833
  924MOL0     H24693  13.050   8.927  11.822 -0.1058  1.2994 -2.6817
  924MOL0     H24694  13.007   8.714  11.931 -0.3748  0.3078  0.4980
  924MOL0     H24695  12.862   8.816  11.973 -0.8822 -0.1588 -0.2794
  924MOL0     H24696  12.867   8.609  11.758  1.3021  1.6862 -1.5899
  924MOL0     H24697  12.752   8.740  11.784  0.0937 -0.1802 -0.5435
  924MOL0     H24698  12.637   8.552  11.887 -1.7910  0.5350  0.8600
  924MOL0     H24699  12.718   8.643  12.014 -0.5991  0.6643 -0.7792
  924MOL0     H24700  12.953   8.247  11.966  2.1667  0.5642 -1.5783
  924MOL0     H24701  13.144   8.221  12.110  2.8498  2.4101 -1.5620
  924MOL0     H24702  13.453   8.443  12.545 -2.5717 -0.2028 -2.1938
  924MOL0     H24703  13.709   8.441  12.587 -1.5043  1.6034  0.3930
  924MOL0     H24704  13.953   8.647  12.426  0.2484 -0.3081 -1.3083
  924MOL0     H24705  13.928   8.551  12.568 -1.2865  1.6911 -0.0978
  924MOL0     H24706  14.130   8.418  12.522 -2.2851 -1.8584 -1.6186
  924MOL0     H24707  14.143   8.489  12.354  1.3296  0.9032  0.8264
  924MOL0     H24708  14.168   8.721  12.467 -1.5025 -1.4467 -2.5995
  924MOL0     H24709  14.175   8.655  12.621  0.0590  3.1383 -0.6113
  924MOL0     H24710  14.365   8.589  12.402 -2.0994 -0.7286  0.8354
  924MOL0     H24711  14.380   8.527  12.577  1.2013  1.0858  1.6836
  924MOL0     H24712  14.395   8.772  12.648  1.1810 -0.3018  0.5073
  924MOL0     H24713  14.402   8.808  12.478 -2.7644 -0.3080 -0.6875
  924MOL0     H24714  14.580   8.600  12.627 -0.9879  0.3866  0.5125
  924MOL0     H24715  14.627   8.673  12.474  3.3026 -1.8884  1.8375
  924MOL0     H24716  14.747   8.776  12.668  0.9464  0.8551 -3.0131
  924MOL0     H24717  14.601   8.829  12.738 -0.4857 -0.2291 -0.0398
  924MOL0     H24718  14.675   8.895  12.444 -0.5941  0.4923 -0.0953
  924MOL0     H24719  14.543   8.972  12.522 -0.1456 -1.0056 -1.6565
  924MOL0     H24720  13.751   8.520  12.166  1.1526 -1.5139  1.0331
  924MOL0     H24721  13.519   8.532  12.148  0.3915 -2.1253 -1.1290
  924MOL0     H24722  13.085   8.613  12.278 -1.1230  0.7306 -0.4382
  924MOL0     H24723  12.886   8.627  12.166  0.5573  0.9882 -0.0282
  924MOL0     H24724  11.555   9.250  11.223 -2.0574 -1.7203 -1.0650
  924MOL0     H24725  11.317   9.203  11.250  1.7726  5.6648  0.0445
  924MOL0     H24726  10.930   8.909  11.232  1.4154 -1.7842  2.9468
  924MOL0     H24727  10.705   8.902  11.262  1.3904 -2.0072 -0.4691
  924MOL0     H24728  10.519   8.872  11.329  0.5062 -1.2557  1.4063
  924MOL0     H24729  10.429   9.025  11.348  0.9671  0.4494  0.3262
  924MOL0     H24730  10.394   8.800  11.561  0.5491 -0.4105 -0.2445
  924MOL0     H24731  10.314   8.795  11.402  1.2090 -1.8247  0.7052
  924MOL0     H24732  10.217   9.010  11.458  1.5496 -0.9976 -0.7404
  924MOL0     H24733  10.314   9.028  11.611 -0.3436  0.4716  0.4624
  924MOL0     H24734  10.119   8.797  11.576 -0.7920  1.2520 -2.8122
  924MOL0     H24735  10.195   8.865  11.714  0.9871  4.7425  0.4999
  924MOL0     H24736   9.874   9.119  11.727  1.6137  0.4365  0.7381
  924MOL0     H24737  10.739   9.073  11.655  1.5802 -0.9203  1.1513
  924MOL0     H24738  11.097   9.060  11.671  1.2392  1.4087 -1.0809
  924MOL0     H24739  11.037   9.217  11.620  0.2368 -0.4796  0.1016
  924MOL0     H24740  10.944   9.131  11.744  2.7410  3.4972  2.2873
  925MOL0     O24741   1.199   8.659   6.200  0.7994  1.2156 -0.0332
  925MOL0     C24742   1.153   8.755   6.260  1.2216 -0.6860  0.3098
  925MOL0     O24743   1.225   8.863   6.316  0.2555 -0.2202  0.4558
  925MOL0     C24744   1.363   8.858   6.288  0.6240 -0.9822  0.3274
  925MOL0     C24745   1.402   8.903   6.162 -0.5427 -0.5981 -0.6346
  925MOL0     C24746   1.539   8.909   6.132  0.2660 -0.3208 -0.3315
  925MOL0     C24747   1.625   8.883   6.234 -0.4478  0.6008 -0.3133
  925MOL0     O24748   1.761   8.876   6.199  0.1691 -0.3089  0.0410
  925MOL0     C24749   1.864   8.851   6.296 -0.6746 -0.0625 -0.2588
  925MOL0     C24750   1.988   8.925   6.242  0.4941 -0.2001  0.6061
  925MOL0     C24751   2.092   8.893   6.351 -0.4159  0.7242  0.4394
  925MOL0     C24752   2.231   8.947   6.296  0.3698 -0.6508 -0.0885
  925MOL0     C24753   2.321   8.947   6.419 -0.1591  0.5705 -0.2402
  925MOL0     C24754   2.459   8.982   6.367 -0.4926  0.7104 -0.2144
  925MOL0     C24755   2.546   9.015   6.496  0.0440  0.3576  0.6614
  925MOL0     C24756   2.690   9.038   6.445 -0.2793 -0.5636  0.0804
  925MOL0     N24757   2.793   9.037   6.552  0.2322  0.4083 -0.0556
  925MOL0     C24758   2.863   9.144   6.611  0.1853 -0.3204  0.0487
  925MOL0     C24759   2.929   9.094   6.720  0.5181 -0.7328  0.4307
  925MOL0     C24760   3.020   9.176   6.820  0.3567  0.7166  0.4167
  925MOL0     C24761   3.148   9.238   6.758 -0.6875  0.9560 -0.2761
  925MOL0     C24762   3.256   9.135   6.717 -0.6628 -0.0180  0.6053
  925MOL0     C24763   3.394   9.183   6.676 -0.3898  0.0907 -0.9063
  925MOL0     O24764   3.399   9.261   6.556  0.6142 -0.4823  0.2777
  925MOL0     C24765   3.515   9.303   6.513 -0.0709 -0.2099  0.4252
  925MOL0     C24766   3.632   9.261   6.558 -0.5297  0.2882 -0.1127
  925MOL0     C24767   3.754   9.300   6.509 -0.0500 -0.7278 -0.1678
  925MOL0     C24768   3.758   9.405   6.415 -0.5363  0.1424  0.0662
  925MOL0     C24769   3.886   9.459   6.358 -0.5215  0.2721  0.6669
  925MOL0     O24770   4.005   9.430   6.430  0.5300  0.0048 -0.0520
  925MOL0     C24771   4.127   9.486   6.402 -0.2586  0.6341  0.4525
  925MOL0     C24772   4.173   9.506   6.271  0.2916  0.5666 -0.0358
  925MOL0     C24773   4.287   9.584   6.259  0.8762 -1.0265 -0.0735
  925MOL0     C24774   4.368   9.613   6.367 -0.0932 -0.5582  0.7529
  925MOL0     O24775   4.490   9.676   6.362 -0.3093  0.7725  0.0857
  925MOL0     C24776   4.495   9.796   6.292 -1.3540  0.0117  0.2494
  925MOL0     C24777   4.638   9.837   6.264  0.0835  0.0887 -0.3954
  925MOL0     C24778   4.645   9.982   6.207  0.2268  0.4558 -1.1601
  925MOL0     C24779   4.795  10.020   6.195  0.3038 -0.7143 -0.0498
  925MOL0     C24780   4.815  10.157   6.134  0.6570  0.6312 -0.1319
  925MOL0     C24781   4.944  10.223   6.176  0.5093 -0.7870  0.0292
  925MOL0     C24782   4.985  10.347   6.089 -0.5537  0.2711 -0.9429
  925MOL0     C24783   5.015  10.324   5.946 -0.4063  0.2848 -0.4322
  925MOL0    Cl24784   5.113  10.476   5.900  0.2231  0.2985  0.1385
  925MOL0     C24785   4.328   9.581   6.496  0.2170 -0.7753 -0.5702
  925MOL0     C24786   4.196   9.534   6.513 -0.9897  0.9965 -0.2796
  925MOL0     O24787   3.885   9.539   6.264  0.5459 -0.3468  0.0348
  925MOL0     C24788   3.641   9.466   6.367 -0.2674  0.1407 -1.0538
  925MOL0     C24789   3.521   9.407   6.414  0.8562  0.2454 -0.5480
  925MOL0     N24790   2.905   8.960   6.725  0.2674  0.1685  0.3743
  925MOL0     N24791   2.830   8.928   6.624 -0.4075 -0.0048 -0.0095
  925MOL0     C24792   1.582   8.845   6.364 -0.1583 -0.4428  0.3161
  925MOL0     C24793   1.446   8.834   6.393 -0.0300  0.7367 -0.2857
  925MOL0     C24794   1.006   8.760   6.276 -0.4477  0.2519  0.0929
  925MOL0     C24795   0.925   8.646   6.231  1.0383  0.1850 -0.0973
  925MOL0     C24796   0.782   8.649   6.235 -0.8844  0.1478 -0.1383
  925MOL0     C24797   0.713   8.759   6.285  0.3217 -0.4114 -0.7643
  925MOL0     O24798   0.573   8.745   6.286 -1.1429 -0.6838  0.2680
  925MOL0     C24799   0.487   8.850   6.330 -0.3835  0.5230  0.0045
  925MOL0     C24800   0.485   8.974   6.237 -0.5822 -0.4151 -0.1751
  925MOL0     C24801   0.373   9.071   6.282 -0.0732 -0.3947  0.1555
  925MOL0     C24802   0.321   9.153   6.156 -0.7489 -0.0506 -0.0865
  925MOL0     C24803   0.227   9.079   6.070  0.4675 -0.7490  0.7276
  925MOL0     C24804   0.143   9.029   6.006 -0.0455 -0.3233 -0.1827
  925MOL0     C24805   0.786   8.864   6.326 -0.3806 -0.3735 -0.3818
  925MOL0     C24806   0.928   8.869   6.326  1.3319 -0.5579  0.6911
  925MOL0     C24807   0.990   9.008   6.345  0.4960 -0.3529 -0.5843
  925MOL0     H24808   1.348   8.952   6.082  0.2998  1.4302 -0.0346
  925MOL0     H24809   1.576   8.949   6.038 -0.2430 -0.6140 -0.6673
  925MOL0     H24810   1.839   8.885   6.397 -1.6178  0.0022 -0.5073
  925MOL0     H24811   1.876   8.743   6.297  1.2535  0.0781 -1.9572
  925MOL0     H24812   1.966   9.029   6.220  1.4552 -0.5573 -2.6406
  925MOL0     H24813   2.029   8.879   6.152  2.9791  1.9042  0.5618
  925MOL0     H24814   2.108   8.787   6.372 -1.2202  0.8595  1.8577
  925MOL0     H24815   2.052   8.937   6.442 -3.4942  1.1533 -0.9565
  925MOL0     H24816   2.282   8.891   6.218  1.7446  0.3904  0.0274
  925MOL0     H24817   2.218   9.053   6.272 -0.6435 -0.4339  1.2636
  925MOL0     H24818   2.280   9.022   6.486  0.3040 -1.3060  2.2921
  925MOL0     H24819   2.328   8.854   6.477  3.9767  0.4093 -0.7067
  925MOL0     H24820   2.507   8.897   6.319 -0.1559 -0.3881  1.9346
  925MOL0     H24821   2.454   9.070   6.302 -1.6872  0.7040 -0.1533
  925MOL0     H24822   2.551   8.935   6.570 -0.8081  0.4654  0.8502
  925MOL0     H24823   2.517   9.113   6.537  0.8661  1.8151 -2.0277
  925MOL0     H24824   2.720   8.961   6.373 -3.1933 -1.4652 -0.2885
  925MOL0     H24825   2.705   9.136   6.400 -0.9944 -0.0390  0.9720
  925MOL0     H24826   2.867   9.248   6.577  0.0023 -0.1161  0.6445
  925MOL0     H24827   2.950   9.245   6.870 -0.4350 -1.5479  2.6451
  925MOL0     H24828   3.054   9.118   6.906  1.3533 -0.1306 -0.5275
  925MOL0     H24829   3.120   9.310   6.680  1.8848  2.0980 -0.2779
  925MOL0     H24830   3.190   9.291   6.844  1.1734 -3.9887  2.2154
  925MOL0     H24831   3.219   9.077   6.632  1.8461  0.3845 -0.8607
  925MOL0     H24832   3.277   9.055   6.789 -0.1310 -2.5564 -2.1975
  925MOL0     H24833   3.459   9.096   6.671 -0.5930 -0.1564  0.3376
  925MOL0     H24834   3.441   9.245   6.753  1.9523 -3.9051  1.2309
  925MOL0     H24835   3.655   9.190   6.637  2.9483 -0.5192 -1.6743
  925MOL0     H24836   3.846   9.260   6.551 -0.0083  2.5065  3.3176
  925MOL0     H24837   4.115   9.482   6.183 -0.0910  1.5025 -0.0508
  925MOL0     H24838   4.316   9.609   6.158  1.6925  0.0070  0.4027
  925MOL0     H24839   4.428   9.809   6.206 -0.3628  1.2997 -0.3737
  925MOL0     H24840   4.457   9.871   6.362  1.1718  1.0386  0.6087
  925MOL0     H24841   4.708   9.821   6.346 -1.3144  1.2875  1.0979
  925MOL0     H24842   4.671   9.789   6.171  1.7288  0.8704 -0.2404
  925MOL0     H24843   4.587   9.992   6.115  0.3646  0.6799 -1.2228
  925MOL0     H24844   4.597  10.043   6.284 -0.0401 -1.8649  0.5950
  925MOL0     H24845   4.851   9.947   6.136  2.2244  0.7109 -0.0574
  925MOL0     H24846   4.845  10.013   6.292 -1.7488  1.7324  1.2946
  925MOL0     H24847   4.730  10.225   6.144  0.7568  0.6717  0.4767
  925MOL0     H24848   4.818  10.149   6.025 -0.5440  4.6151 -0.6073
  925MOL0     H24849   4.927  10.256   6.279  0.0538 -0.4857 -0.1423
  925MOL0     H24850   5.021  10.146   6.190  2.7188  1.5654  1.7647
  925MOL0     H24851   5.073  10.385   6.142 -1.4686 -2.4022  2.9809
  925MOL0     H24852   4.907  10.421   6.105 -0.4237  0.4980 -1.3504
  925MOL0     H24853   5.068  10.231   5.924  1.2416  0.6551  1.6336
  925MOL0     H24854   4.922  10.330   5.889 -1.6395 -0.7489  1.3705
  925MOL0     H24855   4.389   9.594   6.585  1.3240 -1.1832 -1.2384
  925MOL0     H24856   4.163   9.515   6.615 -2.1548 -2.7377 -1.1962
  925MOL0     H24857   3.644   9.536   6.284 -0.1528  0.2680 -0.9427
  925MOL0     H24858   3.433   9.444   6.363  0.4329 -1.3611 -1.0293
  925MOL0     H24859   1.653   8.812   6.439 -1.8978 -1.4016  1.5994
  925MOL0     H24860   1.413   8.802   6.492  0.0720 -0.7774 -0.7237
  925MOL0     H24861   0.978   8.566   6.179 -1.0794 -1.0753 -0.4317
  925MOL0     H24862   0.726   8.570   6.187 -0.9803  0.4838 -0.5906
  925MOL0     H24863   0.516   8.864   6.435 -0.6923 -2.3972  0.5639
  925MOL0     H24864   0.388   8.804   6.317  1.6108 -3.7123 -2.0564
  925MOL0     H24865   0.463   8.952   6.132 -0.3929 -0.1412 -0.2735
  925MOL0     H24866   0.584   9.021   6.240  0.5506 -2.4881 -2.0922
  925MOL0     H24867   0.423   9.138   6.353 -0.4278 -1.7210  1.6989
  925MOL0     H24868   0.289   9.019   6.328 -0.3244 -0.0997  0.0351
  925MOL0     H24869   0.273   9.245   6.190  2.1297  2.2272 -1.6068
  925MOL0     H24870   0.408   9.187   6.099 -0.3986 -1.9366 -0.7442
  925MOL0     H24871   0.051   8.985   5.975 -0.8771  0.0698  1.5561
  925MOL0     H24872   0.736   8.956   6.357 -1.6063 -0.8269 -0.9208
  925MOL0     H24873   1.025   9.024   6.447 -1.5707  0.2259  0.1020
  925MOL0     H24874   1.075   9.032   6.281  0.3008 -2.7080 -1.8580
  925MOL0     H24875   0.917   9.089   6.330  0.5109 -0.5160 -1.6018
  926MOL0     O24876   2.631   2.750   5.661  0.7270 -0.4201 -0.1317
  926MOL0     C24877   2.562   2.829   5.726 -0.9579 -0.6035 -0.4996
  926MOL0     O24878   2.599   2.880   5.848 -0.3322 -0.2106 -0.1136
  926MOL0     C24879   2.735   2.883   5.867  0.7507  0.5115 -0.2490
  926MOL0     C24880   2.799   3.005   5.856 -0.2072 -0.5813  0.0320
  926MOL0     C24881   2.932   3.023   5.890  0.3935 -0.3077  0.0934
  926MOL0     C24882   3.013   2.915   5.932  0.4612  0.2382  0.2832
  926MOL0     O24883   3.148   2.936   5.959  0.1709  0.5484  0.2832
  926MOL0     C24884   3.193   2.886   6.079  0.2206 -0.1230 -0.0040
  926MOL0     C24885   3.343   2.922   6.100 -0.7468 -0.1259 -0.5893
  926MOL0     C24886   3.389   2.880   6.248 -0.4915  0.0432 -0.4426
  926MOL0     C24887   3.528   2.930   6.279 -0.1795  0.1061 -0.1319
  926MOL0     C24888   3.566   2.897   6.426 -0.2784  0.0969 -0.3958
  926MOL0     C24889   3.712   2.934   6.458 -0.4942 -0.3582  0.3294
  926MOL0     C24890   3.756   2.909   6.600  0.8203 -0.0268 -0.9308
  926MOL0     C24891   3.900   2.965   6.618  1.2956  0.5639 -0.9029
  926MOL0     N24892   3.934   2.968   6.756 -0.2370 -0.9115 -0.1813
  926MOL0     C24893   3.969   2.856   6.827 -0.3154 -0.9212  0.1868
  926MOL0     C24894   3.984   2.885   6.958 -0.3717 -0.2393 -0.0035
  926MOL0     C24895   4.017   2.791   7.076  0.0447  0.8972  0.3503
  926MOL0     C24896   4.145   2.839   7.143  0.3298 -0.0023  0.0049
  926MOL0     C24897   4.260   2.746   7.085  0.2390 -0.1431  0.4457
  926MOL0     C24898   4.278   2.731   6.932 -0.0578 -0.1668 -0.9958
  926MOL0     O24899   4.417   2.684   6.912  0.4057  0.0933 -1.3249
  926MOL0     C24900   4.491   2.714   6.800 -0.1490 -0.7626 -0.0551
  926MOL0     C24901   4.608   2.644   6.777 -0.6314 -0.1192 -0.6571
  926MOL0     C24902   4.688   2.677   6.664  0.5039  0.1046  0.6126
  926MOL0     C24903   4.643   2.775   6.573  0.4148  0.3937  0.5306
  926MOL0     C24904   4.724   2.792   6.452  0.1096  0.0383 -0.9722
  926MOL0     O24905   4.840   2.727   6.439 -0.3489  0.1544 -0.4466
  926MOL0     C24906   4.929   2.776   6.346  0.7696  1.3279 -0.5852
  926MOL0     C24907   4.994   2.682   6.272 -0.2335  0.4998  0.5202
  926MOL0     C24908   5.082   2.723   6.167 -0.7479  0.1752 -1.1433
  926MOL0     C24909   5.112   2.859   6.150 -1.0788 -1.2558  0.1898
  926MOL0     O24910   5.216   2.884   6.063 -0.1198  0.0197  0.3870
  926MOL0     C24911   5.289   3.009   6.074  0.6564  0.3256  0.5525
  926MOL0     C24912   5.402   2.991   5.977  0.3331  0.2458 -0.1523
  926MOL0     C24913   5.483   3.113   5.967  0.4186  0.1592 -0.3306
  926MOL0     C24914   5.630   3.093   5.923 -0.1402  0.3860  0.5008
  926MOL0     C24915   5.714   3.225   5.931  0.8873  0.0928  0.7093
  926MOL0     C24916   5.862   3.209   5.872  1.0199 -0.3073  0.0215
  926MOL0     C24917   5.939   3.343   5.866 -0.7614 -0.2306 -0.1480
  926MOL0     C24918   6.017   3.362   5.739  0.0344 -0.3415  0.8808
  926MOL0    Cl24919   6.130   3.224   5.731  0.2540  0.6037  0.1287
  926MOL0     C24920   5.044   2.955   6.231 -0.0326 -0.5419 -0.4391
  926MOL0     C24921   4.954   2.909   6.328  0.1867 -0.6632 -0.1055
  926MOL0     O24922   4.675   2.867   6.367 -0.0921 -0.2056  0.1272
  926MOL0     C24923   4.512   2.832   6.587  0.4939  0.0100 -0.1668
  926MOL0     C24924   4.444   2.810   6.709  0.1948 -0.4597  0.2195
  926MOL0     N24925   3.933   3.016   6.969 -0.2288  0.5860 -0.3875
  926MOL0     N24926   3.909   3.059   6.853  0.1496 -0.1299  0.2897
  926MOL0     C24927   2.948   2.792   5.954  0.7377  0.1135 -0.6693
  926MOL0     C24928   2.812   2.771   5.917  0.1607  0.2763  0.0178
  926MOL0     C24929   2.445   2.894   5.663  0.6902  0.6743  0.7353
  926MOL0     C24930   2.403   2.837   5.539 -0.0228 -0.1912  0.1468
  926MOL0     C24931   2.309   2.899   5.454  0.2019  0.2938  0.8600
  926MOL0     C24932   2.249   3.015   5.490  0.2804 -0.4346  0.2304
  926MOL0     O24933   2.150   3.099   5.419 -0.2575 -0.0096 -0.7999
  926MOL0     C24934   2.067   3.032   5.337 -0.3472 -0.2327  1.1317
  926MOL0     C24935   2.115   3.025   5.191  0.6074 -0.1622  0.2526
  926MOL0     C24936   2.022   2.934   5.110 -0.9625  0.6831  0.0561
  926MOL0     C24937   2.042   2.947   4.953  0.4850  0.7075  0.4248
  926MOL0     C24938   1.991   2.825   4.891 -0.0544 -0.3237  0.8562
  926MOL0     C24939   1.941   2.740   4.820  0.2157  0.0716  1.1012
  926MOL0     C24940   2.276   3.065   5.617  0.6046  0.0500 -0.4335
  926MOL0     C24941   2.363   3.003   5.705 -0.1906 -0.7695 -0.5844
  926MOL0     C24942   2.380   3.067   5.838 -0.4996 -0.2385 -0.4603
  926MOL0     H24943   2.746   3.093   5.823 -0.1866 -0.9843 -1.0995
  926MOL0     H24944   2.979   3.121   5.892  0.8657 -0.4840  3.6256
  926MOL0     H24945   3.127   2.925   6.157  0.6128 -2.5107  1.6500
  926MOL0     H24946   3.174   2.779   6.089  0.4775 -0.2057 -0.3795
  926MOL0     H24947   3.359   3.029   6.082  1.2901 -0.6058 -1.9387
  926MOL0     H24948   3.410   2.871   6.031 -0.7087  3.2748 -3.3750
  926MOL0     H24949   3.393   2.771   6.255  1.6722  0.0801 -0.5324
  926MOL0     H24950   3.324   2.921   6.326  0.6477  0.8669  0.0923
  926MOL0     H24951   3.604   2.904   6.205 -0.5971  2.1560 -1.3787
  926MOL0     H24952   3.528   3.039   6.274  0.0683  0.3110  2.7655
  926MOL0     H24953   3.512   2.945   6.508  1.6536 -0.1929  1.1253
  926MOL0     H24954   3.541   2.791   6.444 -2.9859  0.4299 -1.5979
  926MOL0     H24955   3.781   2.879   6.394  1.0584  3.0521 -1.2050
  926MOL0     H24956   3.737   3.038   6.434  4.2023 -1.3196  0.1503
  926MOL0     H24957   3.764   2.808   6.641  4.7626  2.0919  4.9695
  926MOL0     H24958   3.689   2.966   6.666  0.7271  2.1854 -2.7965
  926MOL0     H24959   3.963   2.887   6.572  3.0934  1.7711 -0.5945
  926MOL0     H24960   3.918   3.065   6.578 -2.6213  0.9775 -1.9826
  926MOL0     H24961   3.979   2.754   6.789  0.1495 -0.7959 -0.0344
  926MOL0     H24962   3.933   2.784   7.145  0.4066  0.0866  0.7187
  926MOL0     H24963   4.033   2.695   7.027  0.3267  2.5720 -3.2064
  926MOL0     H24964   4.163   2.945   7.120 -0.0069  0.2133  0.7237
  926MOL0     H24965   4.143   2.826   7.251 -1.6701  1.0439  0.1504
  926MOL0     H24966   4.245   2.650   7.136 -1.3625  0.8302  1.9163
  926MOL0     H24967   4.355   2.783   7.125 -0.2883 -1.1362  2.8231
  926MOL0     H24968   4.261   2.833   6.896  2.0831  0.6555  0.1693
  926MOL0     H24969   4.213   2.658   6.882  1.3750 -2.6012  0.4803
  926MOL0     H24970   4.645   2.571   6.848 -0.0142 -1.4806 -2.3095
  926MOL0     H24971   4.773   2.614   6.640  1.4560  0.8276  1.9676
  926MOL0     H24972   4.982   2.576   6.293 -0.6461  0.5052  0.3270
  926MOL0     H24973   5.136   2.646   6.113  0.3712  1.0114 -1.2530
  926MOL0     H24974   5.218   3.089   6.050 -0.2852 -0.1460  1.6698
  926MOL0     H24975   5.330   3.017   6.175  0.9151 -3.2199  0.8265
  926MOL0     H24976   5.459   2.902   6.006 -0.2458 -0.1792 -0.2961
  926MOL0     H24977   5.358   2.968   5.879  2.3763  2.5866 -1.7440
  926MOL0     H24978   5.428   3.168   5.890  2.3486  2.9168  0.1108
  926MOL0     H24979   5.477   3.174   6.057 -1.5566  0.1632 -0.4379
  926MOL0     H24980   5.637   3.045   5.825  1.2637 -2.6658  1.9675
  926MOL0     H24981   5.673   3.020   5.991 -1.2509  1.1311  2.0572
  926MOL0     H24982   5.734   3.265   6.030  0.4774  0.1172  0.7840
  926MOL0     H24983   5.661   3.306   5.880  2.3505  3.6149  4.3033
  926MOL0     H24984   5.915   3.132   5.928  1.2325  0.0314  0.2937
  926MOL0     H24985   5.861   3.164   5.772 -1.2185  1.7146 -0.9724
  926MOL0     H24986   6.009   3.344   5.950 -0.4820  1.0481 -0.3841
  926MOL0     H24987   5.872   3.425   5.895 -0.0383  1.0998 -2.0857
  926MOL0     H24988   5.956   3.369   5.648  2.2722  1.6687 -0.5814
  926MOL0     H24989   6.094   3.440   5.739  0.1253 -0.4317  0.4543
  926MOL0     H24990   5.070   3.060   6.230 -3.2171  0.3923  1.5270
  926MOL0     H24991   4.913   2.986   6.392 -1.6894 -1.5378 -0.2035
  926MOL0     H24992   4.474   2.901   6.513  0.5655  1.2533  0.9171
  926MOL0     H24993   4.360   2.877   6.724  0.9311  0.4698  0.2547
  926MOL0     H24994   3.005   2.710   5.997  4.6218  2.4616 -0.8040
  926MOL0     H24995   2.755   2.679   5.918  1.3285 -0.4690  1.6077
  926MOL0     H24996   2.443   2.742   5.504  0.8435  0.5068 -0.8068
  926MOL0     H24997   2.282   2.857   5.358 -0.7777 -0.7995  1.5858
  926MOL0     H24998   1.969   3.081   5.347 -0.6279 -0.2101 -1.0493
  926MOL0     H24999   2.046   2.932   5.377 -0.3578 -0.6365  0.1667
  926MOL0     H25000   2.216   2.983   5.195  0.9474  0.4263 -1.3365
  926MOL0     H25001   2.128   3.121   5.139 -0.5226 -0.8070 -1.3104
  926MOL0     H25002   1.919   2.959   5.134  0.0612  1.8181  3.8863
  926MOL0     H25003   2.032   2.830   5.144  0.6961  0.5719 -0.6584
  926MOL0     H25004   1.975   3.028   4.924 -1.1224 -0.6174  0.2680
  926MOL0     H25005   2.147   2.965   4.928  1.4660 -2.8671  1.3065
  926MOL0     H25006   1.885   2.669   4.763  0.8314  2.3856 -2.8095
  926MOL0     H25007   2.212   3.149   5.641  2.7537  1.0599  2.2543
  926MOL0     H25008   2.285   3.104   5.878 -0.5609 -1.0690  0.1922
  926MOL0     H25009   2.407   2.987   5.909 -0.0597 -0.4843 -0.8986
  926MOL0     H25010   2.455   3.147   5.842  1.0845 -1.6917  1.1126
  927MOL0     O25011   1.781   0.769  10.571 -0.2801  0.0049 -0.3034
  927MOL0     C25012   1.714   0.744  10.472  1.2842 -0.3486  0.3233
  927MOL0     O25013   1.753   0.674  10.359 -0.0136  0.2332  0.2869
  927MOL0     C25014   1.885   0.659  10.353 -0.0854  0.3135 -0.0157
  927MOL0     C25015   1.958   0.572  10.438  0.7628 -0.4875  0.5983
  927MOL0     C25016   2.092   0.549  10.408 -0.8224  0.4213  0.0544
  927MOL0     C25017   2.158   0.609  10.308 -0.1672 -0.6138  0.6872
  927MOL0     O25018   2.282   0.589  10.266 -0.0036 -0.1482  0.1047
  927MOL0     C25019   2.311   0.460  10.223  0.2565  1.3173  0.2881
  927MOL0     C25020   2.442   0.465  10.144  0.3808 -0.3010  0.5473
  927MOL0     C25021   2.427   0.538  10.013 -0.2692  0.7923  1.1989
  927MOL0     C25022   2.558   0.553   9.932  0.8992 -0.5201  0.1857
  927MOL0     C25023   2.532   0.625   9.792 -0.3412 -0.7984  0.0531
  927MOL0     C25024   2.651   0.595   9.694 -1.2391  0.0952  0.0484
  927MOL0     C25025   2.782   0.672   9.727  0.3508 -0.7621 -0.1410
  927MOL0     C25026   2.888   0.637   9.629 -0.0810 -0.3233  0.6820
  927MOL0     N25027   3.029   0.670   9.674 -0.0736 -0.1769 -0.1470
  927MOL0     C25028   3.098   0.597   9.775 -0.1033 -0.6522  0.1978
  927MOL0     C25029   3.214   0.666   9.797 -0.0313  0.5599  0.2654
  927MOL0     C25030   3.318   0.641   9.901 -1.0825 -0.4974  0.4353
  927MOL0     C25031   3.462   0.631   9.840  0.0187  0.7889  0.3485
  927MOL0     C25032   3.452   0.547   9.712 -0.4196  0.7577 -1.5244
  927MOL0     C25033   3.590   0.567   9.633 -0.1957 -0.7654  0.1646
  927MOL0     O25034   3.692   0.500   9.710  0.5713 -0.0551  0.4209
  927MOL0     C25035   3.811   0.561   9.697  0.3459  0.2820  0.9299
  927MOL0     C25036   3.900   0.570   9.803  0.7759  0.3200  0.3822
  927MOL0     C25037   4.030   0.617   9.790 -0.7477  0.2046  0.4160
  927MOL0     C25038   4.081   0.652   9.667 -0.3572 -0.9358  0.1220
  927MOL0     C25039   4.217   0.699   9.650 -0.4928 -0.0542 -0.0245
  927MOL0     O25040   4.311   0.665   9.746  0.3230  1.2106  0.1133
  927MOL0     C25041   4.441   0.692   9.707 -0.0295 -0.6457 -0.4879
  927MOL0     C25042   4.502   0.628   9.595 -0.0147 -0.2134  0.3778
  927MOL0     C25043   4.631   0.655   9.556 -0.4676  1.0659 -0.6417
  927MOL0     C25044   4.714   0.740   9.628  0.6249  0.7748  0.1046
  927MOL0     O25045   4.845   0.760   9.612 -0.0355  0.2278 -0.2873
  927MOL0     C25046   4.913   0.724   9.490 -0.5404  0.6858  1.2233
  927MOL0     C25047   4.881   0.827   9.373  0.5893 -0.5813 -0.2714
  927MOL0     C25048   4.920   0.766   9.238 -0.9805 -0.2461 -0.1399
  927MOL0     C25049   5.061   0.710   9.224 -0.1142  0.0047  0.2569
  927MOL0     C25050   5.173   0.807   9.252 -0.2984 -0.3731 -0.0452
  927MOL0     C25051   5.310   0.745   9.229  0.0854 -0.8131 -0.4680
  927MOL0     C25052   5.421   0.848   9.278 -0.4183 -0.7199 -0.4068
  927MOL0     C25053   5.567   0.799   9.258 -0.0875 -1.1504  1.1185
  927MOL0    Cl25054   5.608   0.787   9.088  0.0305  0.4025 -0.2351
  927MOL0     C25055   4.660   0.806   9.734  0.5489  0.8004  0.6775
  927MOL0     C25056   4.525   0.790   9.776 -0.6712 -0.5176  0.1741
  927MOL0     O25057   4.239   0.742   9.537  0.2308 -0.0137  0.3665
  927MOL0     C25058   3.987   0.650   9.558  0.0082  0.5880  0.0780
  927MOL0     C25059   3.854   0.609   9.570 -0.2728 -0.0910 -0.3499
  927MOL0     N25060   3.209   0.774   9.712  0.4002 -0.0785 -0.1862
  927MOL0     N25061   3.106   0.776   9.632 -0.3489  0.1296 -0.5094
  927MOL0     C25062   2.092   0.704  10.230 -0.2401 -0.2144  1.1326
  927MOL0     C25063   1.953   0.731  10.255  0.1514  1.0569  0.9005
  927MOL0     C25064   1.572   0.801  10.484 -0.8962 -0.4953 -0.9191
  927MOL0     C25065   1.531   0.852  10.611 -0.1418 -1.8254  0.5774
  927MOL0     C25066   1.406   0.903  10.645 -0.3343  0.3918  0.0770
  927MOL0     C25067   1.308   0.892  10.547  0.5689 -0.1132  0.7289
  927MOL0     O25068   1.188   0.929  10.594  0.0087  0.1556  0.3241
  927MOL0     C25069   1.099   0.984  10.490 -0.3275  0.3259 -0.9114
  927MOL0     C25070   0.973   1.003  10.548 -0.4115  0.3600  0.5724
  927MOL0     C25071   0.880   1.076  10.443  0.4306 -0.9244 -0.2879
  927MOL0     C25072   0.750   1.119  10.503 -0.0392 -0.3543  0.1210
  927MOL0     C25073   0.675   1.018  10.580 -0.7949 -0.2428  0.1584
  927MOL0     C25074   0.612   0.933  10.632  0.4887  1.0967 -0.6894
  927MOL0     C25075   1.346   0.828  10.423  0.2069  0.0250 -1.1759
  927MOL0     C25076   1.475   0.795  10.385 -0.1842  0.3151 -0.4080
  927MOL0     C25077   1.507   0.717  10.254 -0.3327 -0.2195  0.3057
  927MOL0     H25078   1.906   0.512  10.513  1.6521 -1.1645  0.6929
  927MOL0     H25079   2.135   0.467  10.465 -0.7431 -0.4530 -1.2144
  927MOL0     H25080   2.324   0.398  10.312  3.0012  1.6824  0.2201
  927MOL0     H25081   2.233   0.414  10.160  1.3568  2.6979 -2.2463
  927MOL0     H25082   2.475   0.362  10.125 -0.1884 -0.0831 -2.0101
  927MOL0     H25083   2.512   0.512  10.213  0.5885 -0.0223  0.1489
  927MOL0     H25084   2.385   0.639  10.023 -1.2670  0.6227 -0.8024
  927MOL0     H25085   2.364   0.476   9.949  1.2947  0.9643 -0.6061
  927MOL0     H25086   2.637   0.607   9.985  1.0690  0.8244 -1.3771
  927MOL0     H25087   2.602   0.454   9.916  1.3085 -0.4838  1.0109
  927MOL0     H25088   2.439   0.593   9.744 -0.7705 -1.8112  1.5163
  927MOL0     H25089   2.529   0.733   9.810  1.4778 -0.8369  0.7720
  927MOL0     H25090   2.673   0.488   9.688 -2.3963 -0.2550  1.4883
  927MOL0     H25091   2.625   0.621   9.591 -0.3546  1.3472  0.1120
  927MOL0     H25092   2.812   0.649   9.829 -1.2350  0.7944  0.7327
  927MOL0     H25093   2.755   0.778   9.726  1.4503 -0.4379  1.4461
  927MOL0     H25094   2.886   0.530   9.605  2.2950 -0.9314  2.7276
  927MOL0     H25095   2.872   0.692   9.536 -0.0976 -0.2867  0.7063
  927MOL0     H25096   3.082   0.502   9.825  0.5572 -0.1097  1.4968
  927MOL0     H25097   3.319   0.723   9.974  1.3213 -1.1482  1.2080
  927MOL0     H25098   3.301   0.549   9.958 -1.4579 -0.2340  0.7585
  927MOL0     H25099   3.492   0.733   9.813 -0.5935  1.0742  0.7282
  927MOL0     H25100   3.536   0.589   9.907  0.7698  1.5316  0.0110
  927MOL0     H25101   3.371   0.581   9.646 -1.3831  0.5766 -0.4671
  927MOL0     H25102   3.431   0.440   9.720  2.3177  0.0969 -2.4373
  927MOL0     H25103   3.608   0.674   9.618 -4.1752  0.2397  1.4524
  927MOL0     H25104   3.562   0.524   9.536 -2.8078  5.7618 -2.6054
  927MOL0     H25105   3.880   0.518   9.896  0.0505 -0.3333 -0.1331
  927MOL0     H25106   4.090   0.615   9.880  0.6592  3.7984 -0.2588
  927MOL0     H25107   4.430   0.571   9.536 -1.3526  1.7089  0.0783
  927MOL0     H25108   4.669   0.605   9.467  0.1005 -0.1594  0.2557
  927MOL0     H25109   5.019   0.745   9.508 -0.3959  2.9192 -1.4635
  927MOL0     H25110   4.899   0.621   9.457  1.7949  0.6347  0.1815
  927MOL0     H25111   4.774   0.848   9.380  0.8745  0.4211  2.0089
  927MOL0     H25112   4.923   0.925   9.397  1.8039 -1.3166  0.7908
  927MOL0     H25113   4.843   0.689   9.231 -2.1081  0.9156 -0.9581
  927MOL0     H25114   4.904   0.840   9.159  1.5779 -1.2170 -1.7039
  927MOL0     H25115   5.074   0.671   9.122  2.0376 -1.4588  0.9972
  927MOL0     H25116   5.073   0.630   9.297  0.2766 -0.2890 -0.1200
  927MOL0     H25117   5.160   0.845   9.353  0.6336 -0.2289  0.0286
  927MOL0     H25118   5.158   0.892   9.184 -0.3669  1.4533  2.1459
  927MOL0     H25119   5.314   0.655   9.292  1.9352  0.4053  1.2995
  927MOL0     H25120   5.319   0.726   9.122 -0.8785 -2.5637 -0.2823
  927MOL0     H25121   5.413   0.867   9.385 -0.9024 -1.3694 -0.3200
  927MOL0     H25122   5.404   0.940   9.222  0.7490 -1.5356 -2.2152
  927MOL0     H25123   5.628   0.877   9.304  1.7367 -1.1442 -1.1337
  927MOL0     H25124   5.578   0.701   9.306 -4.1792 -2.1237  0.5266
  927MOL0     H25125   4.718   0.868   9.801 -1.5937 -0.1332  3.5925
  927MOL0     H25126   4.486   0.840   9.864  2.4797 -2.1566  2.7192
  927MOL0     H25127   4.013   0.677   9.457  2.7381 -1.1677  0.2074
  927MOL0     H25128   3.793   0.601   9.480 -0.2535 -2.6292 -0.1943
  927MOL0     H25129   2.149   0.760  10.157 -3.4427  0.4318 -1.0703
  927MOL0     H25130   1.897   0.794  10.187 -0.4446 -1.5254 -1.1919
  927MOL0     H25131   1.609   0.871  10.684 -0.0786  4.5323 -0.6017
  927MOL0     H25132   1.390   0.940  10.745 -0.4887  0.5390 -0.0015
  927MOL0     H25133   1.101   0.910  10.409  0.8026  1.7230 -2.2037
  927MOL0     H25134   1.143   1.076  10.451  2.8399 -1.0681 -0.8871
  927MOL0     H25135   0.983   1.065  10.637  2.2156  2.1636 -0.8603
  927MOL0     H25136   0.925   0.906  10.566  1.3900 -0.3542  1.8107
  927MOL0     H25137   0.852   1.022  10.352 -2.7148 -2.4754  1.4401
  927MOL0     H25138   0.927   1.169  10.409 -2.5043  0.3369 -1.1630
  927MOL0     H25139   0.772   1.199  10.574 -3.2341  0.1982  0.6197
  927MOL0     H25140   0.692   1.161  10.421 -0.9654 -1.3274  0.2477
  927MOL0     H25141   0.533   0.874  10.675  0.4546  1.3161 -0.4469
  927MOL0     H25142   1.271   0.816  10.345 -1.1846 -0.0597  0.1256
  927MOL0     H25143   1.591   0.749  10.192 -0.2964  0.1335  0.5371
  927MOL0     H25144   1.532   0.614  10.284 -2.8839 -1.6829 -2.1074
  927MOL0     H25145   1.423   0.710  10.184  1.2803 -3.1347 -1.5600
  928MOL0     O25146   5.407   1.802   1.842 -0.3132  0.2902 -0.4948
  928MOL0     C25147   5.340   1.810   1.944 -0.0272 -0.0994  0.2012
  928MOL0     O25148   5.344   1.904   2.040 -0.6743 -0.5527 -0.6173
  928MOL0     C25149   5.461   1.981   2.073  0.2241  1.0033  0.1364
  928MOL0     C25150   5.587   1.960   2.020 -0.2238  0.5866 -0.3697
  928MOL0     C25151   5.698   2.031   2.071 -0.3711  0.7369  0.0313
  928MOL0     C25152   5.689   2.122   2.168  0.5042 -0.8998  0.0819
  928MOL0     O25153   5.803   2.177   2.232  0.1754  0.3143 -0.4932
  928MOL0     C25154   5.937   2.113   2.212  0.8548  0.7246  0.0916
  928MOL0     C25155   6.034   2.175   2.307  0.4948  0.5753  0.5364
  928MOL0     C25156   6.171   2.158   2.246  0.3041 -0.2518 -0.7368
  928MOL0     C25157   6.272   2.218   2.351 -0.3038 -0.2328  0.2521
  928MOL0     C25158   6.414   2.228   2.285 -0.0219  0.4829 -0.6950
  928MOL0     C25159   6.416   2.328   2.168  0.6474  0.4365 -0.2353
  928MOL0     C25160   6.553   2.325   2.103  0.4637  0.3111  0.7063
  928MOL0     C25161   6.675   2.390   2.175 -0.2441  0.0633  0.1764
  928MOL0     N25162   6.789   2.413   2.077  0.8369  0.3718 -0.5786
  928MOL0     C25163   6.812   2.522   1.993  0.1678 -0.6078 -0.3373
  928MOL0     C25164   6.931   2.495   1.942  0.0472  0.5120  0.7980
  928MOL0     C25165   6.998   2.564   1.825  0.2405  0.2498 -0.6153
  928MOL0     C25166   7.133   2.618   1.861  0.0788 -0.7150 -0.1179
  928MOL0     C25167   7.130   2.770   1.883  0.9969 -0.5830  0.1176
  928MOL0     C25168   7.255   2.828   1.948 -0.9788  0.5783  0.5310
  928MOL0     O25169   7.353   2.842   1.839  0.5060  0.6943  0.2156
  928MOL0     C25170   7.478   2.893   1.863  0.1762 -0.6202  0.8135
  928MOL0     C25171   7.563   2.925   1.754  0.2680 -0.2286  2.0679
  928MOL0     C25172   7.698   2.971   1.775  0.7692 -0.1076 -0.0304
  928MOL0     C25173   7.746   2.993   1.903 -0.3461 -0.2393  0.8137
  928MOL0     C25174   7.882   3.056   1.918  1.0131  0.2454 -1.2855
  928MOL0     O25175   7.947   3.099   1.806  0.7120 -0.1719  0.8744
  928MOL0     C25176   8.074   3.164   1.811  0.1826 -0.1163  0.6987
  928MOL0     C25177   8.155   3.155   1.698  0.2200  0.2881  0.4473
  928MOL0     C25178   8.279   3.217   1.681  0.2299  0.3377 -0.7377
  928MOL0     C25179   8.329   3.297   1.785 -0.6249 -0.3674  0.2270
  928MOL0     O25180   8.450   3.359   1.765  0.5542  0.3762 -0.1944
  928MOL0     C25181   8.510   3.425   1.873 -0.2384 -0.4429  0.0227
  928MOL0     C25182   8.641   3.477   1.816 -0.1210 -0.1470  0.0350
  928MOL0     C25183   8.742   3.365   1.776 -0.3854  0.1111  0.3598
  928MOL0     C25184   8.884   3.427   1.769 -0.3593 -0.9025  0.0999
  928MOL0     C25185   8.986   3.314   1.734 -0.1102 -0.6782 -0.2429
  928MOL0     C25186   9.123   3.376   1.702  0.0213 -0.1891  0.9742
  928MOL0     C25187   9.221   3.257   1.670 -0.1686  0.2365 -0.1867
  928MOL0     C25188   9.355   3.309   1.619  0.4773  0.2821  0.2123
  928MOL0    Cl25189   9.469   3.188   1.646 -0.3821  0.3914  0.0204
  928MOL0     C25190   8.250   3.308   1.906 -0.2090 -0.9132 -0.5704
  928MOL0     C25191   8.125   3.244   1.919  0.1555  0.7953 -0.1855
  928MOL0     O25192   7.922   3.049   2.034  0.0440  0.0447  0.0112
  928MOL0     C25193   7.660   2.965   2.009  0.7948  0.3804 -0.5553
  928MOL0     C25194   7.527   2.914   1.990 -0.4231 -0.6440  0.3691
  928MOL0     N25195   6.981   2.379   2.003  0.7832  0.2575 -0.2695
  928MOL0     N25196   6.895   2.331   2.082 -0.3289  0.0184  1.0345
  928MOL0     C25197   5.566   2.159   2.212  0.7042 -0.2941 -0.3429
  928MOL0     C25198   5.454   2.082   2.175  0.3904 -0.4826  0.3256
  928MOL0     C25199   5.221   1.716   1.952  0.4499  0.2145 -0.4105
  928MOL0     C25200   5.137   1.730   2.063 -0.5736 -0.3966  0.0992
  928MOL0     C25201   5.028   1.653   2.081 -0.1683 -0.5840  0.2391
  928MOL0     C25202   5.002   1.546   2.001 -0.0723 -0.6888  0.2195
  928MOL0     O25203   4.897   1.483   2.059 -0.0221  0.5183 -0.7075
  928MOL0     C25204   4.850   1.358   2.003  0.2002 -0.3487  0.0953
  928MOL0     C25205   4.717   1.318   2.067 -1.1783 -0.2845  0.2031
  928MOL0     C25206   4.603   1.409   2.033  0.0038 -0.6948  0.2281
  928MOL0     C25207   4.476   1.380   2.108 -0.2165  0.5547 -0.2579
  928MOL0     C25208   4.426   1.243   2.097  0.0287 -0.0467 -0.8187
  928MOL0     C25209   4.395   1.126   2.086 -0.3714  0.2804  0.6737
  928MOL0     C25210   5.088   1.518   1.895  0.2265  0.6906 -1.0005
  928MOL0     C25211   5.187   1.610   1.860 -0.2694  0.4361 -0.1312
  928MOL0     C25212   5.259   1.587   1.729 -0.4322  0.0697 -0.3807
  928MOL0     H25213   5.605   1.884   1.945 -2.0305 -1.4756  1.1659
  928MOL0     H25214   5.786   2.002   2.014 -0.7263  2.1456 -1.2937
  928MOL0     H25215   5.935   2.004   2.224  0.6161  0.5242 -1.4699
  928MOL0     H25216   5.969   2.131   2.109 -3.6953 -0.8000 -1.8496
  928MOL0     H25217   6.033   2.128   2.406 -3.7955  1.8610  1.2890
  928MOL0     H25218   6.020   2.282   2.323  0.0065  0.8622 -1.5806
  928MOL0     H25219   6.175   2.206   2.148 -2.4675  1.2786 -0.1850
  928MOL0     H25220   6.188   2.051   2.232  0.7837 -0.0092 -2.1984
  928MOL0     H25221   6.242   2.317   2.387 -2.8634 -0.8476 -0.0214
  928MOL0     H25222   6.281   2.159   2.443 -0.2458 -1.1582 -0.3407
  928MOL0     H25223   6.490   2.260   2.357 -1.3010  0.9499  0.4691
  928MOL0     H25224   6.440   2.126   2.254 -2.4571 -0.2438 -0.4960
  928MOL0     H25225   6.341   2.304   2.092  1.0923 -4.6655  0.6218
  928MOL0     H25226   6.393   2.430   2.203 -0.0169  1.2849 -2.9349
  928MOL0     H25227   6.548   2.369   2.002 -0.2796 -2.0234 -0.3343
  928MOL0     H25228   6.578   2.220   2.087 -0.3855  0.3748 -1.3521
  928MOL0     H25229   6.638   2.481   2.223 -0.8410  0.1050 -0.3521
  928MOL0     H25230   6.707   2.326   2.258 -3.1137 -0.6666  0.8365
  928MOL0     H25231   6.733   2.592   1.969 -0.2907 -2.1139 -3.9413
  928MOL0     H25232   6.989   2.494   1.741 -1.7204 -0.1340 -0.1451
  928MOL0     H25233   6.924   2.635   1.788 -1.8833 -1.8833 -0.7068
  928MOL0     H25234   7.177   2.559   1.943  1.4176 -1.6665 -1.4644
  928MOL0     H25235   7.207   2.603   1.782  0.4296  5.2553 -1.3269
  928MOL0     H25236   7.046   2.798   1.948 -0.0817 -1.6593 -0.7510
  928MOL0     H25237   7.111   2.812   1.784  3.2242  2.4065  0.8287
  928MOL0     H25238   7.287   2.756   2.024  0.6835  1.2402  0.5127
  928MOL0     H25239   7.240   2.927   1.993  2.2136  0.6713  1.6373
  928MOL0     H25240   7.524   2.911   1.654  0.9941 -0.5649  1.8261
  928MOL0     H25241   7.748   2.992   1.681 -2.3309  2.5148 -1.3009
  928MOL0     H25242   8.118   3.097   1.614 -1.9552  0.7604  1.0113
  928MOL0     H25243   8.328   3.202   1.585 -1.0663 -2.6733 -1.0561
  928MOL0     H25244   8.448   3.513   1.891 -0.3879 -0.1822 -1.6183
  928MOL0     H25245   8.528   3.371   1.967  1.5303 -0.6267 -0.3947
  928MOL0     H25246   8.610   3.536   1.729 -1.3295  1.4418  1.4774
  928MOL0     H25247   8.673   3.547   1.893 -5.1079  2.8952 -0.1693
  928MOL0     H25248   8.749   3.275   1.837 -0.6960 -0.0876  0.1116
  928MOL0     H25249   8.713   3.339   1.673  1.7040  1.5376 -0.6618
  928MOL0     H25250   8.912   3.478   1.862 -4.3644  1.2340  0.3747
  928MOL0     H25251   8.884   3.503   1.690 -0.6451  0.3853  1.2831
  928MOL0     H25252   8.959   3.265   1.639 -1.2820  1.7340 -1.2379
  928MOL0     H25253   8.998   3.252   1.823  0.1057  1.5509  1.3803
  928MOL0     H25254   9.109   3.429   1.607 -2.0742 -0.0860  1.2919
  928MOL0     H25255   9.160   3.438   1.783 -1.3929  1.9756  0.0403
  928MOL0     H25256   9.176   3.187   1.601  2.7559 -0.3957 -1.6121
  928MOL0     H25257   9.246   3.208   1.765  1.9161  1.4815 -0.0257
  928MOL0     H25258   9.362   3.327   1.512  3.3997  0.5297  0.3718
  928MOL0     H25259   9.387   3.403   1.666  2.6340 -1.2778  2.0710
  928MOL0     H25260   8.282   3.369   1.990 -1.2319 -2.2476  0.8481
  928MOL0     H25261   8.061   3.274   2.002 -0.8607  0.2161 -0.7455
  928MOL0     H25262   7.697   2.979   2.110 -1.0616  1.7673 -0.0157
  928MOL0     H25263   7.479   2.902   2.087  1.5152  2.0147  1.8064
  928MOL0     H25264   5.559   2.224   2.298 -0.3164 -1.4367  0.4632
  928MOL0     H25265   5.361   2.110   2.223  0.9375  0.1490  1.0485
  928MOL0     H25266   5.151   1.804   2.141 -0.2718  0.8514 -1.0937
  928MOL0     H25267   4.949   1.686   2.148 -2.3007 -2.3502 -1.2576
  928MOL0     H25268   4.936   1.294   2.028  2.1361  2.5203  1.3957
  928MOL0     H25269   4.833   1.371   1.896  0.0468 -2.8904 -0.2579
  928MOL0     H25270   4.733   1.306   2.174  0.1661  3.4739  0.5459
  928MOL0     H25271   4.698   1.217   2.029 -2.6064  0.1913 -0.3943
  928MOL0     H25272   4.584   1.394   1.926  1.4715 -1.2887  0.0280
  928MOL0     H25273   4.631   1.513   2.051  0.6975 -0.4945 -1.6993
  928MOL0     H25274   4.490   1.406   2.213  0.5109 -0.4782 -0.0865
  928MOL0     H25275   4.404   1.448   2.061  2.0087  1.8901 -1.9610
  928MOL0     H25276   4.365   1.024   2.075  2.8520 -0.8243  0.9756
  928MOL0     H25277   5.068   1.431   1.834 -2.1513 -0.1873  0.9111
  928MOL0     H25278   5.208   1.509   1.671  2.0865 -0.2290 -2.3756
  928MOL0     H25279   5.262   1.678   1.669 -0.3093  2.4020  2.9188
  928MOL0     H25280   5.364   1.559   1.737 -0.2539  0.4531 -1.3287
  929MOL0     O25281   7.985   7.646   7.432  0.1222 -0.8534  0.1409
  929MOL0     C25282   7.947   7.536   7.475 -0.5160  0.1822 -0.2047
  929MOL0     O25283   8.028   7.425   7.488 -0.0748  0.9169  0.1746
  929MOL0     C25284   8.169   7.434   7.476  0.2613 -0.5320  0.6353
  929MOL0     C25285   8.222   7.507   7.363  0.1277  0.8450  0.7772
  929MOL0     C25286   8.366   7.506   7.344  0.4096  1.1334  0.2834
  929MOL0     C25287   8.446   7.442   7.434  0.0225  0.6009 -0.4542
  929MOL0     O25288   8.578   7.454   7.426 -0.3924  0.3618  0.6233
  929MOL0     C25289   8.645   7.497   7.309  1.3637  0.9183  0.4754
  929MOL0     C25290   8.790   7.485   7.332  0.6814  0.0871 -0.3930
  929MOL0     C25291   8.878   7.524   7.218  0.5659 -0.2153 -0.1081
  929MOL0     C25292   9.026   7.556   7.254 -0.0780 -0.4427 -0.0248
  929MOL0     C25293   9.110   7.437   7.294  0.7396  0.3807  0.6186
  929MOL0     C25294   9.267   7.459   7.291 -0.0617  0.1190  0.4935
  929MOL0     C25295   9.323   7.587   7.365  0.9263 -0.1686  1.1417
  929MOL0     C25296   9.474   7.598   7.353 -0.4774 -0.1228  0.0400
  929MOL0     N25297   9.544   7.706   7.427  0.3173 -0.3125 -0.6193
  929MOL0     C25298   9.632   7.791   7.384 -0.5595 -0.7554  0.4012
  929MOL0     C25299   9.662   7.869   7.490 -0.7238  0.1953 -0.3710
  929MOL0     C25300   9.768   7.971   7.483 -0.3519 -0.3811 -0.0193
  929MOL0     C25301   9.907   7.904   7.496  0.7408 -0.6121  0.6220
  929MOL0     C25302   9.999   8.014   7.540  0.4362  1.0376  0.0100
  929MOL0     C25303  10.146   7.971   7.531  0.9731 -0.0070 -0.1503
  929MOL0     O25304  10.227   8.071   7.594 -0.2535  0.8029 -0.3393
  929MOL0     C25305  10.359   8.037   7.597 -0.1187 -0.1261  0.4962
  929MOL0     C25306  10.440   7.970   7.504  0.0827 -0.0423  0.8631
  929MOL0     C25307  10.572   7.929   7.533 -0.2161  0.3854  0.1694
  929MOL0     C25308  10.637   7.968   7.651  0.3354  0.2502  0.5519
  929MOL0     C25309  10.771   7.917   7.683 -0.1440  0.4292  0.8718
  929MOL0     O25310  10.849   7.857   7.583 -0.0074 -0.0147 -0.2486
  929MOL0     C25311  10.978   7.816   7.605  0.4616 -0.6164 -0.0826
  929MOL0     C25312  11.023   7.687   7.589 -1.0521  0.3347  0.1911
  929MOL0     C25313  11.161   7.663   7.597  0.3918  0.5554 -0.2278
  929MOL0     C25314  11.254   7.762   7.621  0.2269 -0.5331 -0.9690
  929MOL0     O25315  11.380   7.722   7.626 -0.3468  0.2583 -0.9420
  929MOL0     C25316  11.478   7.830   7.627  0.1581  0.3730 -0.7762
  929MOL0     C25317  11.614   7.764   7.598  1.1907 -0.7355 -0.3776
  929MOL0     C25318  11.623   7.753   7.442  0.2403  0.0276 -0.6168
  929MOL0     C25319  11.656   7.881   7.375  0.0079  0.7522 -0.1849
  929MOL0     C25320  11.806   7.918   7.381 -0.0762 -0.4463  0.3912
  929MOL0     C25321  11.834   8.058   7.318 -0.3882  0.4058 -0.2321
  929MOL0     C25322  11.978   8.104   7.343  0.2830  0.3352 -0.3418
  929MOL0     C25323  12.039   8.207   7.248  0.5139  0.2762 -0.4857
  929MOL0    Cl25324  12.052   8.132   7.080  0.1334 -0.6063  0.3669
  929MOL0     C25325  11.202   7.891   7.657 -0.9999 -0.2536 -0.8449
  929MOL0     C25326  11.070   7.920   7.642  0.0011  0.2192 -0.5789
  929MOL0     O25327  10.812   7.933   7.795  0.6951  0.4466  0.3874
  929MOL0     C25328  10.555   8.050   7.739  0.5135 -0.1849  1.1376
  929MOL0     C25329  10.419   8.085   7.709  0.5597  0.0669 -0.7609
  929MOL0     N25330   9.582   7.830   7.601 -0.9150  0.3197  0.9767
  929MOL0     N25331   9.514   7.732   7.555  0.2844 -0.2060 -0.0459
  929MOL0     C25332   8.396   7.379   7.555  0.7719 -0.8438  0.3574
  929MOL0     C25333   8.256   7.369   7.563  0.4415  0.4337  0.1403
  929MOL0     C25334   7.809   7.511   7.520  0.0204  0.7261 -0.5836
  929MOL0     C25335   7.769   7.376   7.550  0.3263 -0.9775  1.1545
  929MOL0     C25336   7.642   7.343   7.588  0.3039 -0.1932 -0.4770
  929MOL0     C25337   7.539   7.439   7.597 -0.4837  0.6161 -0.3423
  929MOL0     O25338   7.414   7.393   7.629 -0.3704 -0.0260 -0.2000
  929MOL0     C25339   7.302   7.480   7.653  0.4950 -0.2296 -0.5232
  929MOL0     C25340   7.170   7.393   7.676 -0.4212  0.0103  0.5646
  929MOL0     C25341   7.145   7.318   7.544 -0.0546 -0.8569 -0.6339
  929MOL0     C25342   7.016   7.244   7.528 -0.3183  0.4124  0.1868
  929MOL0     C25343   6.970   7.170   7.645  0.5092  0.5565  0.2395
  929MOL0     C25344   6.935   7.097   7.732 -0.1456 -0.1094  0.9229
  929MOL0     C25345   7.569   7.574   7.577 -0.4845 -0.3109  0.3996
  929MOL0     C25346   7.707   7.614   7.540 -0.5744 -0.1844  0.3262
  929MOL0     C25347   7.735   7.757   7.513  0.1350  0.5549  0.1884
  929MOL0     H25348   8.155   7.562   7.298  1.9755  0.8265 -1.2518
  929MOL0     H25349   8.409   7.550   7.254 -0.8334  1.6340 -0.0875
  929MOL0     H25350   8.609   7.436   7.225 -0.3970 -0.0505  1.8596
  929MOL0     H25351   8.635   7.605   7.295  0.7568  0.8380  0.2711
  929MOL0     H25352   8.814   7.379   7.350  1.0598  0.2522  0.0873
  929MOL0     H25353   8.825   7.552   7.411 -0.2571  0.4349 -0.2561
  929MOL0     H25354   8.836   7.612   7.168  1.0221 -1.0298 -2.0115
  929MOL0     H25355   8.868   7.457   7.132  1.2892 -0.9304  0.3507
  929MOL0     H25356   9.075   7.606   7.169  1.1923  0.4596  1.1954
  929MOL0     H25357   9.035   7.630   7.334  0.5191  0.9855 -1.3605
  929MOL0     H25358   9.075   7.410   7.395  1.6136  0.0821  0.8485
  929MOL0     H25359   9.083   7.356   7.227  0.1781  0.8171  0.3051
  929MOL0     H25360   9.303   7.371   7.345 -2.7849 -0.7784  0.9908
  929MOL0     H25361   9.307   7.462   7.189  0.2952 -2.9801  0.4637
  929MOL0     H25362   9.299   7.596   7.471  3.0390 -0.0677  1.6553
  929MOL0     H25363   9.274   7.668   7.310 -1.9141 -4.2101 -3.1280
  929MOL0     H25364   9.513   7.502   7.387 -2.0995 -0.4490  1.0701
  929MOL0     H25365   9.493   7.612   7.246  0.3972  4.7406  0.6152
  929MOL0     H25366   9.685   7.774   7.290  1.1599  0.2262  1.1582
  929MOL0     H25367   9.776   8.017   7.384  0.4825 -1.3605 -0.4276
  929MOL0     H25368   9.747   8.041   7.564  0.5704 -1.0272  0.8057
  929MOL0     H25369   9.896   7.820   7.565  2.5470 -2.4810 -1.2232
  929MOL0     H25370   9.924   7.870   7.394 -2.3845  0.9735 -0.5672
  929MOL0     H25371   9.975   8.029   7.645  0.1413  0.1456  0.0781
  929MOL0     H25372   9.976   8.103   7.481 -1.9863  0.8026  0.5137
  929MOL0     H25373  10.175   7.968   7.425 -0.3040  0.5538 -0.5338
  929MOL0     H25374  10.158   7.872   7.576  0.8428 -0.4144 -0.9897
  929MOL0     H25375  10.398   7.941   7.408 -0.8405  1.3602  0.8164
  929MOL0     H25376  10.624   7.876   7.453  1.3496 -0.3778  1.6459
  929MOL0     H25377  10.955   7.605   7.569  0.5747 -1.1012  0.2824
  929MOL0     H25378  11.204   7.564   7.583  2.3413  1.1038  1.4334
  929MOL0     H25379  11.448   7.908   7.557 -2.0372  1.9793  1.7310
  929MOL0     H25380  11.488   7.879   7.724  0.3584  0.7038 -0.9619
  929MOL0     H25381  11.698   7.826   7.630  0.8374 -0.5702  0.2350
  929MOL0     H25382  11.614   7.664   7.644  0.5861 -0.4321  0.3008
  929MOL0     H25383  11.698   7.680   7.409 -0.0592  0.1027 -1.4994
  929MOL0     H25384  11.526   7.717   7.407 -0.9161  2.1676  0.1989
  929MOL0     H25385  11.583   7.956   7.406  1.9145  1.9000  1.8288
  929MOL0     H25386  11.635   7.871   7.269 -3.4065 -1.8306  0.5746
  929MOL0     H25387  11.874   7.855   7.325 -0.9554  0.2470 -1.5324
  929MOL0     H25388  11.840   7.922   7.485 -0.0252 -4.1461  0.6361
  929MOL0     H25389  11.805   8.070   7.213 -0.5618  0.3581 -0.1896
  929MOL0     H25390  11.771   8.131   7.370 -1.2836 -1.0244  0.7360
  929MOL0     H25391  12.047   8.023   7.320  0.6688  0.6985 -0.4640
  929MOL0     H25392  11.996   8.129   7.448  1.1660  3.4293 -1.1242
  929MOL0     H25393  11.981   8.300   7.254 -0.1821 -0.2253  3.8375
  929MOL0     H25394  12.139   8.226   7.289 -0.0968  1.9559  0.3076
  929MOL0     H25395  11.263   7.970   7.700  0.4399 -1.7840  0.0514
  929MOL0     H25396  11.023   8.018   7.654 -2.2309 -0.4822 -2.7112
  929MOL0     H25397  10.606   8.100   7.820 -1.6192 -1.9122  3.7157
  929MOL0     H25398  10.372   8.152   7.780 -1.9145  0.5399 -2.7126
  929MOL0     H25399   8.474   7.336   7.618  3.0643 -0.5597 -2.1130
  929MOL0     H25400   8.201   7.320   7.643 -3.2001  0.4412 -2.0913
  929MOL0     H25401   7.841   7.297   7.533  1.4513  0.4804 -1.5799
  929MOL0     H25402   7.637   7.237   7.612  2.9559 -0.6807 -1.6749
  929MOL0     H25403   7.283   7.542   7.565  3.0429 -0.7050 -1.4874
  929MOL0     H25404   7.314   7.546   7.740 -2.8613 -1.0339  0.7023
  929MOL0     H25405   7.082   7.455   7.696 -1.1623 -0.6812 -0.4090
  929MOL0     H25406   7.188   7.329   7.762  0.8376 -1.3680 -0.6693
  929MOL0     H25407   7.229   7.250   7.529 -0.8766 -1.3695 -3.3768
  929MOL0     H25408   7.147   7.391   7.462 -1.1821 -0.0293  0.0427
  929MOL0     H25409   6.937   7.318   7.517 -0.1466  0.4732 -0.8083
  929MOL0     H25410   7.012   7.179   7.440 -1.4573 -4.6450  3.5902
  929MOL0     H25411   6.892   7.039   7.812 -1.1728  2.3135  2.2314
  929MOL0     H25412   7.496   7.647   7.610 -1.8796 -1.1032 -0.8233
  929MOL0     H25413   7.735   7.780   7.406 -2.1632  1.2348  0.2834
  929MOL0     H25414   7.653   7.808   7.565 -0.9167 -0.4686 -0.4061
  929MOL0     H25415   7.829   7.792   7.557  2.2911 -1.8031 -2.1302
  930MOL0     O25416   9.894   6.822   7.750 -0.0732 -0.6069 -0.1678
  930MOL0     C25417   9.794   6.781   7.810  0.3022 -0.2661  0.3985
  930MOL0     O25418   9.796   6.714   7.934 -0.7150 -0.7637  0.0896
  930MOL0     C25419   9.917   6.653   7.968 -0.3757  0.8547  0.4080
  930MOL0     C25420   9.929   6.516   7.931  0.3170  0.8737 -1.0224
  930MOL0     C25421  10.053   6.449   7.966 -0.0127 -0.9022  0.3066
  930MOL0     C25422  10.155   6.513   8.035 -0.8178  0.7356  0.6966
  930MOL0     O25423  10.277   6.441   8.054 -0.1998  0.0268  0.1817
  930MOL0     C25424  10.390   6.504   8.115 -0.2335 -0.8193  0.4136
  930MOL0     C25425  10.508   6.408   8.130  0.8522 -0.0609 -0.0872
  930MOL0     C25426  10.494   6.341   8.268 -0.2337 -0.1793  1.4551
  930MOL0     C25427  10.608   6.255   8.315  0.5262  1.1638  0.2556
  930MOL0     C25428  10.606   6.210   8.457 -0.0424  1.2295  0.7678
  930MOL0     C25429  10.748   6.158   8.498 -0.0830 -0.4351 -1.2708
  930MOL0     C25430  10.756   6.071   8.623  0.9849  0.5521  0.3534
  930MOL0     C25431  10.716   6.138   8.752 -0.8828  0.1856  0.0065
  930MOL0     N25432  10.836   6.195   8.820  0.4195  0.2305  0.1857
  930MOL0     C25433  10.837   6.194   8.960  1.0511  0.6774  0.3358
  930MOL0     C25434  10.964   6.224   8.995  0.1045 -0.0934 -0.4086
  930MOL0     C25435  11.014   6.212   9.138 -0.0029 -0.0300 -0.3117
  930MOL0     C25436  11.129   6.112   9.157 -0.0421 -0.2025  0.3678
  930MOL0     C25437  11.183   6.107   9.302 -0.3003 -0.4140  0.4143
  930MOL0     C25438  11.320   6.034   9.306  0.1598 -0.1416  0.7574
  930MOL0     O25439  11.392   6.055   9.426 -0.4018 -0.1615 -0.0130
  930MOL0     C25440  11.505   5.987   9.463 -0.0963 -0.1790  0.2189
  930MOL0     C25441  11.554   6.009   9.588  0.9531 -0.0272  0.0282
  930MOL0     C25442  11.670   5.946   9.633  0.1528  0.3336  0.3169
  930MOL0     C25443  11.741   5.849   9.553 -0.3715  0.1469  0.7697
  930MOL0     C25444  11.850   5.777   9.608 -0.1806 -0.4782 -0.3098
  930MOL0     O25445  11.892   5.672   9.535  0.5342 -0.7762  0.4912
  930MOL0     C25446  12.014   5.626   9.575 -0.3739 -0.5132 -0.0391
  930MOL0     C25447  12.038   5.555   9.694 -0.2098 -0.5341 -0.3805
  930MOL0     C25448  12.172   5.535   9.747 -0.0209 -0.0672 -0.3609
  930MOL0     C25449  12.284   5.583   9.672  0.7847 -0.4783 -0.8227
  930MOL0     O25450  12.398   5.577   9.746 -0.9572 -0.2793 -0.3645
  930MOL0     C25451  12.516   5.624   9.678 -0.1354  0.0406 -0.8145
  930MOL0     C25452  12.635   5.585   9.761 -0.6201  0.2911  0.1367
  930MOL0     C25453  12.775   5.615   9.695  0.4866  0.2845 -0.6647
  930MOL0     C25454  12.877   5.612   9.815 -0.0088  0.1951  0.0426
  930MOL0     C25455  13.022   5.606   9.765 -0.5971  0.0438 -0.6737
  930MOL0     C25456  13.126   5.658   9.870  0.2408 -0.3135  0.2817
  930MOL0     C25457  13.267   5.649   9.817 -0.0225 -0.3528  0.3292
  930MOL0     C25458  13.368   5.717   9.920  0.7278 -0.5403  0.3592
  930MOL0    Cl25459  13.536   5.667   9.873 -0.1153  0.3984 -0.6732
  930MOL0     C25460  12.256   5.644   9.542  0.4829  0.5154 -0.3368
  930MOL0     C25461  12.124   5.658   9.493 -0.9028  0.2862 -0.8150
  930MOL0     O25462  11.899   5.812   9.717 -0.0730 -0.2268  0.0870
  930MOL0     C25463  11.686   5.834   9.425 -1.0060  0.0740  0.1214
  930MOL0     C25464  11.572   5.897   9.376  1.3871 -1.2181 -0.1357
  930MOL0     N25465  11.045   6.250   8.884 -0.2131  0.2258  0.3644
  930MOL0     N25466  10.962   6.237   8.785  0.0154  0.9640 -0.1026
  930MOL0     C25467  10.134   6.647   8.061 -0.2048 -0.3246 -1.2367
  930MOL0     C25468  10.019   6.716   8.026  0.8523  0.1847 -1.0446
  930MOL0     C25469   9.669   6.781   7.717 -0.0490  0.4645 -0.7729
  930MOL0     C25470   9.585   6.667   7.729 -0.0176 -0.4370  0.9395
  930MOL0     C25471   9.466   6.659   7.655 -0.2055  0.2215  0.5710
  930MOL0     C25472   9.417   6.772   7.589  0.0402  0.8463 -0.1706
  930MOL0     O25473   9.284   6.759   7.537 -0.5107  0.3449  0.4136
  930MOL0     C25474   9.201   6.875   7.557 -0.4594  0.0389  0.3761
  930MOL0     C25475   9.052   6.841   7.580 -0.7462  0.5246  0.4854
  930MOL0     C25476   8.985   6.835   7.443  0.7303 -0.5760  0.2013
  930MOL0     C25477   8.837   6.815   7.469  0.3416 -0.6649  0.1786
  930MOL0     C25478   8.771   6.937   7.530  0.7003 -0.1380  0.2767
  930MOL0     C25479   8.718   7.033   7.573  0.0632  0.4099  0.8879
  930MOL0     C25480   9.493   6.888   7.580 -0.1416 -0.2108 -0.2362
  930MOL0     C25481   9.619   6.890   7.643  0.2917 -0.5799 -0.1450
  930MOL0     C25482   9.691   7.020   7.650 -0.6403 -0.5478  0.4505
  930MOL0     H25483   9.849   6.459   7.886  0.9215  0.7701 -1.9799
  930MOL0     H25484  10.058   6.345   7.932 -2.3287 -0.9421 -0.0609
  930MOL0     H25485  10.418   6.578   8.039  1.7375 -2.7040 -0.8130
  930MOL0     H25486  10.367   6.555   8.209  3.3876  2.3395 -0.1371
  930MOL0     H25487  10.599   6.464   8.154  1.9251 -0.9529 -1.8416
  930MOL0     H25488  10.523   6.329   8.056  1.2836 -1.7078  1.6645
  930MOL0     H25489  10.406   6.277   8.255  1.1266 -1.4821 -3.3606
  930MOL0     H25490  10.488   6.421   8.342 -1.8611  1.3149 -0.1989
  930MOL0     H25491  10.612   6.161   8.259 -3.2125  1.2835 -0.4199
  930MOL0     H25492  10.696   6.319   8.301  0.7995  0.6035 -0.6768
  930MOL0     H25493  10.562   6.290   8.518 -1.7418  0.5221  0.5188
  930MOL0     H25494  10.536   6.128   8.473  0.9630  0.2361  0.2064
  930MOL0     H25495  10.804   6.108   8.418 -1.9524 -1.8955 -1.7504
  930MOL0     H25496  10.807   6.245   8.528 -1.8626 -0.2216  2.0046
  930MOL0     H25497  10.858   6.033   8.631  1.0780  1.1656  4.5575
  930MOL0     H25498  10.689   5.987   8.601 -0.3934  2.2047 -2.3242
  930MOL0     H25499  10.629   6.203   8.744 -0.3344  1.3308  2.4901
  930MOL0     H25500  10.687   6.061   8.823 -1.5868 -0.0953 -0.5773
  930MOL0     H25501  10.761   6.167   9.032  1.2926 -1.6967 -0.1876
  930MOL0     H25502  11.062   6.307   9.163  1.5441 -1.1683  1.3361
  930MOL0     H25503  10.927   6.199   9.202 -0.1927  0.0409 -0.5533
  930MOL0     H25504  11.105   6.010   9.125 -0.2756 -0.6415  1.8897
  930MOL0     H25505  11.200   6.153   9.084 -2.6447  0.6941 -1.8299
  930MOL0     H25506  11.103   6.070   9.366 -1.1278 -0.0230 -0.3716
  930MOL0     H25507  11.222   6.203   9.338  1.5632 -2.0327  3.0157
  930MOL0     H25508  11.388   6.065   9.226 -0.8011  0.7435  0.2597
  930MOL0     H25509  11.301   5.927   9.295  1.8671 -0.3844 -0.2568
  930MOL0     H25510  11.495   6.078   9.647 -1.3020 -1.8596  0.0318
  930MOL0     H25511  11.703   5.961   9.735  0.5712  2.4440 -0.0865
  930MOL0     H25512  11.952   5.537   9.758 -3.3031  2.8284 -3.1461
  930MOL0     H25513  12.177   5.499   9.849 -2.1953  1.5108  0.3980
  930MOL0     H25514  12.522   5.581   9.578  0.9872  0.5138 -0.9601
  930MOL0     H25515  12.513   5.731   9.656  1.9023 -0.2491 -2.8861
  930MOL0     H25516  12.620   5.622   9.863 -2.7696 -1.2068  0.4145
  930MOL0     H25517  12.635   5.477   9.777 -2.1341  0.5651  2.5883
  930MOL0     H25518  12.803   5.543   9.617  2.1729 -1.3054  1.2746
  930MOL0     H25519  12.782   5.713   9.646 -1.0348  1.1595  0.7908
  930MOL0     H25520  12.854   5.525   9.877 -1.9631 -0.0348 -0.9359
  930MOL0     H25521  12.857   5.701   9.875 -1.8915  1.1653 -1.8985
  930MOL0     H25522  13.029   5.673   9.678  1.7444 -0.2726 -0.7994
  930MOL0     H25523  13.054   5.510   9.724 -0.7459  0.4940 -1.8864
  930MOL0     H25524  13.106   5.765   9.880  1.2969 -0.1880  1.2055
  930MOL0     H25525  13.110   5.601   9.961  0.8733 -2.4644 -0.8818
  930MOL0     H25526  13.278   5.697   9.719  0.4239  1.7085  1.3444
  930MOL0     H25527  13.295   5.544   9.808 -0.3960 -0.3870 -0.5643
  930MOL0     H25528  13.367   5.826   9.913 -2.5765 -0.5625 -2.2365
  930MOL0     H25529  13.346   5.702  10.026 -2.6111 -0.4273 -0.2228
  930MOL0     H25530  12.336   5.683   9.480  1.1260  1.3197  0.9699
  930MOL0     H25531  12.101   5.718   9.405  1.5015  1.0380 -1.0163
  930MOL0     H25532  11.737   5.771   9.353  0.1562 -0.3382  1.2788
  930MOL0     H25533  11.531   5.884   9.276 -0.1363  0.5939  0.1895
  930MOL0     H25534  10.219   6.704   8.096 -0.6023  1.4008 -2.9303
  930MOL0     H25535  10.000   6.821   8.046 -2.2695 -0.8981  3.3035
  930MOL0     H25536   9.622   6.594   7.800  3.0254  3.5386  3.9190
  930MOL0     H25537   9.408   6.568   7.666  0.2124 -0.2461 -0.8987
  930MOL0     H25538   9.210   6.948   7.477 -3.2462  1.0669  0.8741
  930MOL0     H25539   9.239   6.923   7.649  0.3491 -0.2324  0.1908
  930MOL0     H25540   9.010   6.915   7.649 -0.9856  2.9917 -2.0782
  930MOL0     H25541   9.049   6.741   7.622 -0.1454  0.5990  0.7121
  930MOL0     H25542   9.011   6.751   7.378  0.7608 -0.6486  0.3078
  930MOL0     H25543   9.006   6.931   7.394  1.5459 -0.9318 -0.1609
  930MOL0     H25544   8.786   6.807   7.372 -0.9850 -1.1105  0.8811
  930MOL0     H25545   8.821   6.717   7.516  2.1017 -0.2410  1.7561
  930MOL0     H25546   8.672   7.125   7.604  1.4747  2.5635 -2.8374
  930MOL0     H25547   9.444   6.972   7.532  0.2495  0.0944 -0.1006
  930MOL0     H25548   9.798   7.023   7.629 -0.1742 -0.7704  2.5144
  930MOL0     H25549   9.654   7.094   7.579 -1.9836  0.2071  1.8740
  930MOL0     H25550   9.666   7.062   7.748  1.1435  0.0912  0.6756
  931MOL0     O25551   3.491   4.658   1.700  0.1332 -0.1847 -0.3566
  931MOL0     C25552   3.371   4.670   1.712  0.2015 -0.5104 -0.6997
  931MOL0     O25553   3.304   4.642   1.829 -0.3439 -0.2971 -0.6970
  931MOL0     C25554   3.360   4.571   1.927 -0.3590 -0.7982 -0.5135
  931MOL0     C25555   3.338   4.436   1.940  0.2807  0.7229 -0.4650
  931MOL0     C25556   3.391   4.361   2.047 -0.0952 -1.0330  0.4331
  931MOL0     C25557   3.463   4.430   2.145 -0.1776  0.5120  0.1288
  931MOL0     O25558   3.521   4.365   2.255  0.5749  0.3237  0.0872
  931MOL0     C25559   3.451   4.261   2.323  0.2372  0.0558 -0.5434
  931MOL0     C25560   3.332   4.318   2.399 -0.4118 -0.0820 -0.1011
  931MOL0     C25561   3.381   4.403   2.525  0.0476 -0.1571  0.0019
  931MOL0     C25562   3.277   4.437   2.629 -0.1134  1.0168 -0.6729
  931MOL0     C25563   3.221   4.310   2.695 -0.1529  0.1364  0.0812
  931MOL0     C25564   3.111   4.343   2.798 -0.0148  0.2629 -0.3065
  931MOL0     C25565   3.048   4.212   2.850  0.8622 -0.0160 -0.0828
  931MOL0     C25566   2.919   4.238   2.941  0.9237  0.8743  0.7209
  931MOL0     N25567   2.949   4.296   3.074  0.0812  0.1212  0.4120
  931MOL0     C25568   2.967   4.212   3.183  1.2011 -0.4896  0.3982
  931MOL0     C25569   2.984   4.303   3.283 -0.4783 -0.0629  0.9546
  931MOL0     C25570   2.977   4.268   3.426 -0.4585 -0.2954 -0.5020
  931MOL0     C25571   3.118   4.247   3.477 -0.4235 -0.3045 -0.9694
  931MOL0     C25572   3.199   4.379   3.484 -0.3557 -0.3997 -0.6998
  931MOL0     C25573   3.341   4.356   3.533 -0.0005  0.7500  0.1100
  931MOL0     O25574   3.421   4.468   3.527 -0.4847 -0.4352  0.4072
  931MOL0     C25575   3.558   4.463   3.502 -0.3471  0.0088  0.4177
  931MOL0     C25576   3.632   4.344   3.511  0.4210  0.0718  0.5100
  931MOL0     C25577   3.774   4.362   3.512 -0.0373  0.2484  0.1208
  931MOL0     C25578   3.833   4.489   3.501 -0.2671 -0.4102  0.4140
  931MOL0     C25579   3.980   4.510   3.510  0.3333 -0.2026  0.1781
  931MOL0     O25580   4.056   4.398   3.512  0.0907 -0.7663 -0.9984
  931MOL0     C25581   4.186   4.428   3.498 -0.0307  1.1878 -1.1236
  931MOL0     C25582   4.251   4.441   3.378  0.2755  0.3949  0.1268
  931MOL0     C25583   4.389   4.464   3.375 -0.5268  0.1423 -0.7619
  931MOL0     C25584   4.463   4.488   3.493  0.3789  0.5230  0.1962
  931MOL0     O25585   4.601   4.499   3.475 -0.2273  0.5001  0.1077
  931MOL0     C25586   4.693   4.535   3.575  0.0239 -0.6326 -0.1200
  931MOL0     C25587   4.670   4.677   3.624  0.3649 -0.1012  0.2855
  931MOL0     C25588   4.672   4.779   3.504  0.4527 -0.2005 -0.2424
  931MOL0     C25589   4.688   4.925   3.556 -0.1144  0.4910  0.5042
  931MOL0     C25590   4.548   4.976   3.601 -0.2363  0.3261 -0.1749
  931MOL0     C25591   4.426   4.954   3.509 -0.6654 -0.3317 -0.0589
  931MOL0     C25592   4.444   5.018   3.364 -0.3727 -0.7588  0.8249
  931MOL0     C25593   4.349   4.957   3.270 -0.0424  0.0978  0.1045
  931MOL0    Cl25594   4.178   4.962   3.339 -0.0254  0.0081  0.3978
  931MOL0     C25595   4.398   4.477   3.608  0.6814  0.2577 -0.3086
  931MOL0     C25596   4.260   4.452   3.616 -0.1144  0.8191  0.6564
  931MOL0     O25597   4.018   4.624   3.480  0.2460  0.3664 -0.0279
  931MOL0     C25598   3.754   4.600   3.464  0.7566  0.2993 -0.3224
  931MOL0     C25599   3.616   4.583   3.474 -0.7947  0.2407  0.3799
  931MOL0     N25600   2.975   4.425   3.225  0.3800 -0.2132  0.0764
  931MOL0     N25601   2.961   4.427   3.104 -0.2307 -0.0113 -0.0378
  931MOL0     C25602   3.490   4.563   2.131  0.7220  0.8367  0.1145
  931MOL0     C25603   3.436   4.640   2.025 -0.8237 -0.1563 -1.2393
  931MOL0     C25604   3.291   4.741   1.606  0.1835 -0.0847 -0.5408
  931MOL0     C25605   3.188   4.825   1.654  0.4368 -0.0149 -0.0666
  931MOL0     C25606   3.126   4.913   1.565  1.6719  0.4179  0.3028
  931MOL0     C25607   3.164   4.916   1.427 -0.0590  0.5723  0.6571
  931MOL0     O25608   3.106   4.987   1.325 -0.0809 -0.4515  0.1519
  931MOL0     C25609   3.005   5.079   1.374  0.5490  0.5852 -0.0325
  931MOL0     C25610   2.949   5.176   1.272  0.0610 -0.0148 -0.4459
  931MOL0     C25611   2.798   5.198   1.318 -0.7908 -0.0684  0.5144
  931MOL0     C25612   2.729   5.313   1.242 -0.7087  0.4467  0.5995
  931MOL0     C25613   2.624   5.359   1.334  0.2298 -0.6381  1.1950
  931MOL0     C25614   2.529   5.403   1.393  0.7582 -0.8721  0.4479
  931MOL0     C25615   3.260   4.835   1.382 -0.5622  0.5738  0.5804
  931MOL0     C25616   3.316   4.740   1.466 -0.5194  0.1928  0.8022
  931MOL0     C25617   3.414   4.642   1.410 -0.0066  0.3444 -0.9413
  931MOL0     H25618   3.269   4.392   1.868  1.1803 -0.5242 -0.6020
  931MOL0     H25619   3.384   4.252   2.044  0.0935 -1.0326 -0.2356
  931MOL0     H25620   3.405   4.188   2.256  1.1201  0.2797 -1.4068
  931MOL0     H25621   3.517   4.210   2.394  0.5535 -0.9665 -1.5336
  931MOL0     H25622   3.264   4.236   2.423 -1.2202 -0.4402 -3.1167
  931MOL0     H25623   3.272   4.386   2.337  1.1680  2.0748  0.6315
  931MOL0     H25624   3.431   4.493   2.488  0.4869 -0.9647 -1.4728
  931MOL0     H25625   3.455   4.338   2.573 -1.6759 -0.4836  2.3804
  931MOL0     H25626   3.329   4.501   2.701 -2.5942  1.6069  0.7091
  931MOL0     H25627   3.210   4.500   2.570  0.1130 -0.4909 -2.6449
  931MOL0     H25628   3.185   4.238   2.621  0.4613  1.2397 -1.3231
  931MOL0     H25629   3.301   4.256   2.748 -1.1417 -1.2385  0.2100
  931MOL0     H25630   3.150   4.396   2.885 -0.1155 -0.2691  0.0707
  931MOL0     H25631   3.038   4.406   2.747 -0.5732  1.9020  2.3566
  931MOL0     H25632   3.122   4.163   2.914  1.3506 -0.0091 -0.6314
  931MOL0     H25633   3.016   4.149   2.766  1.7086 -1.7024  0.8033
  931MOL0     H25634   2.848   4.306   2.894  0.5513  2.8916  3.9269
  931MOL0     H25635   2.864   4.143   2.949  0.7263  0.9552  0.3431
  931MOL0     H25636   2.961   4.104   3.172 -2.2136 -0.1343 -4.2827
  931MOL0     H25637   2.936   4.353   3.481 -0.6619 -1.4213  1.1734
  931MOL0     H25638   2.917   4.178   3.441  0.1665 -0.8366 -1.1591
  931MOL0     H25639   3.129   4.215   3.581  0.3916 -0.5578 -1.1240
  931MOL0     H25640   3.176   4.183   3.410 -1.1165 -0.9902 -0.9384
  931MOL0     H25641   3.153   4.455   3.547 -0.2576  0.2768 -1.4230
  931MOL0     H25642   3.202   4.419   3.382  5.6365 -3.2231 -2.0886
  931MOL0     H25643   3.377   4.277   3.466 -1.6083  1.2472 -1.4437
  931MOL0     H25644   3.342   4.316   3.635  0.9679  3.3474  1.1808
  931MOL0     H25645   3.579   4.250   3.526  2.2803 -0.8176  1.9405
  931MOL0     H25646   3.837   4.278   3.538 -1.9514 -0.8812  1.2909
  931MOL0     H25647   4.197   4.429   3.285 -1.0549 -0.6376  0.9956
  931MOL0     H25648   4.434   4.469   3.276 -2.5903  2.7735 -1.6964
  931MOL0     H25649   4.694   4.457   3.652  2.0990 -1.3681 -0.8043
  931MOL0     H25650   4.791   4.529   3.526  0.3327  1.6705  0.1137
  931MOL0     H25651   4.584   4.685   3.692  0.9352  2.3525  0.7885
  931MOL0     H25652   4.752   4.700   3.692  2.2242 -1.0246 -1.5381
  931MOL0     H25653   4.762   4.772   3.442 -1.2329 -0.1696 -2.8502
  931MOL0     H25654   4.591   4.762   3.432  1.2050  1.7695 -1.6401
  931MOL0     H25655   4.715   4.993   3.475 -2.0902  1.7480  0.8190
  931MOL0     H25656   4.764   4.908   3.633 -1.1819  0.1291  1.5147
  931MOL0     H25657   4.564   5.078   3.635  1.2177  0.0368  0.0806
  931MOL0     H25658   4.533   4.922   3.695  0.7372  1.1482  0.4624
  931MOL0     H25659   4.410   4.848   3.491  3.3332 -0.7291 -2.9760
  931MOL0     H25660   4.334   4.993   3.551 -0.5456  1.4818 -1.3372
  931MOL0     H25661   4.542   4.993   3.321 -1.6583 -2.8661 -1.1124
  931MOL0     H25662   4.438   5.126   3.374 -3.7250 -0.9047  1.3874
  931MOL0     H25663   4.348   5.019   3.179  3.7912  2.2370  1.2670
  931MOL0     H25664   4.365   4.851   3.251  0.6040  0.0299  0.9662
  931MOL0     H25665   4.450   4.475   3.703 -1.1235 -1.9077  0.7181
  931MOL0     H25666   4.210   4.463   3.712  1.1190 -1.4522  1.6532
  931MOL0     H25667   3.796   4.694   3.429  3.7658 -0.4523  0.9469
  931MOL0     H25668   3.550   4.667   3.454 -0.4496  0.4313  0.0340
  931MOL0     H25669   3.550   4.613   2.206  0.4995  2.4234 -0.7319
  931MOL0     H25670   3.449   4.748   2.031 -0.1942 -0.3003  2.5981
  931MOL0     H25671   3.153   4.815   1.756 -2.1950  1.4887 -0.7261
  931MOL0     H25672   3.048   4.972   1.612  1.2475  0.4947 -0.4794
  931MOL0     H25673   3.044   5.132   1.462  1.8935 -0.2325 -0.1031
  931MOL0     H25674   2.930   5.018   1.424  1.3733  0.8694  1.6252
  931MOL0     H25675   2.942   5.128   1.173 -0.0667 -1.4537  0.2279
  931MOL0     H25676   3.006   5.269   1.277 -0.6765  0.4700 -0.9248
  931MOL0     H25677   2.785   5.205   1.426 -1.9901 -1.5159  0.4913
  931MOL0     H25678   2.737   5.113   1.286  0.8115 -1.3395  0.7150
  931MOL0     H25679   2.806   5.388   1.224 -0.2552  0.0350  0.8170
  931MOL0     H25680   2.692   5.276   1.146  0.6399 -0.5531  0.4360
  931MOL0     H25681   2.464   5.437   1.471 -0.7255  1.0888 -1.5116
  931MOL0     H25682   3.301   4.869   1.287 -1.7021  3.5452  1.0684
  931MOL0     H25683   3.415   4.632   1.301 -0.0208 -1.8279 -0.7891
  931MOL0     H25684   3.515   4.667   1.442 -0.4522 -0.4920  1.3434
  931MOL0     H25685   3.389   4.541   1.444 -1.1143  0.7013 -0.6388
  932MOL0     O25686  11.077  11.041   9.771  0.0329  0.3876  1.2125
  932MOL0     C25687  11.053  10.920   9.752 -0.2707  0.2306 -0.4130
  932MOL0     O25688  11.144  10.818   9.737  0.1610  0.0075  0.2130
  932MOL0     C25689  11.282  10.842   9.734 -0.2021  0.9619 -0.0049
  932MOL0     C25690  11.344  10.961   9.701 -0.4656  0.0074 -0.2198
  932MOL0     C25691  11.483  10.976   9.718  0.8082 -0.1854  0.0863
  932MOL0     C25692  11.561  10.863   9.756 -0.1618 -0.1803  0.0340
  932MOL0     O25693  11.693  10.863   9.777 -0.3606 -0.0474 -0.3054
  932MOL0     C25694  11.780  10.901   9.677  0.0036  0.5902  0.0436
  932MOL0     C25695  11.921  10.872   9.733  0.0848 -0.0547 -0.3547
  932MOL0     C25696  12.024  10.891   9.628 -0.0013  0.4854 -0.7161
  932MOL0     C25697  12.160  10.911   9.701  0.0261  0.6687 -0.2213
  932MOL0     C25698  12.275  10.855   9.617  0.1533 -0.7221 -0.6349
  932MOL0     C25699  12.316  10.712   9.668 -0.5714 -1.0183 -0.6894
  932MOL0     C25700  12.209  10.601   9.655 -0.3295 -0.6378 -1.5291
  932MOL0     C25701  12.256  10.460   9.679  0.2946 -0.3222 -0.2550
  932MOL0     N25702  12.331  10.409   9.565 -0.7789  0.3792  0.4427
  932MOL0     C25703  12.279  10.349   9.446 -0.1296  0.7502 -0.0500
  932MOL0     C25704  12.379  10.305   9.372 -0.7943 -0.3938 -0.1373
  932MOL0     C25705  12.381  10.247   9.230  0.1256  0.1077 -0.1442
  932MOL0     C25706  12.437  10.348   9.130  0.5010 -0.3425  0.0702
  932MOL0     C25707  12.478  10.287   8.999  0.1447 -0.3432 -0.9802
  932MOL0     C25708  12.532  10.383   8.886  0.2524  0.4464  0.5850
  932MOL0     O25709  12.630  10.475   8.927 -0.0977 -0.2084  0.2767
  932MOL0     C25710  12.763  10.462   8.893  0.1611  0.4623  0.1499
  932MOL0     C25711  12.829  10.571   8.843  0.7179  0.3230  0.4335
  932MOL0     C25712  12.964  10.559   8.796  0.3718  0.5363  0.3014
  932MOL0     C25713  13.034  10.432   8.804  0.4373 -0.4799 -1.0100
  932MOL0     C25714  13.167  10.418   8.748 -0.3092 -0.3231 -0.3194
  932MOL0     O25715  13.238  10.531   8.738  0.5070 -0.4836  0.5245
  932MOL0     C25716  13.374  10.533   8.705  0.9502  0.0335 -0.8947
  932MOL0     C25717  13.456  10.638   8.754  0.5029 -0.2007  0.0429
  932MOL0     C25718  13.595  10.644   8.729  0.5355 -0.5131  0.1059
  932MOL0     C25719  13.664  10.551   8.651  0.0730 -0.3740 -0.0044
  932MOL0     O25720  13.801  10.576   8.626 -0.2158 -0.1886 -0.3627
  932MOL0     C25721  13.884  10.523   8.524 -0.0575  0.5207 -0.1453
  932MOL0     C25722  13.866  10.598   8.392  0.1980  0.5268 -0.4365
  932MOL0     C25723  13.935  10.736   8.393  0.6250  1.0504  0.4970
  932MOL0     C25724  14.080  10.724   8.364 -0.1382 -0.1099 -0.8554
  932MOL0     C25725  14.142  10.861   8.400  0.2544  1.5510  0.8201
  932MOL0     C25726  14.293  10.854   8.370 -0.3180  0.7925 -0.0820
  932MOL0     C25727  14.356  10.967   8.454 -0.2886  0.2663 -0.4702
  932MOL0     C25728  14.506  10.972   8.455 -0.3398 -0.2974 -0.5352
  932MOL0    Cl25729  14.559  10.988   8.279  0.4583 -0.0371 -0.1950
  932MOL0     C25730  13.585  10.453   8.598 -0.7412 -0.2383  0.4760
  932MOL0     C25731  13.451  10.444   8.628  1.6898  0.6180 -0.1422
  932MOL0     O25732  13.208  10.310   8.725  0.1706 -0.3542 -0.3806
  932MOL0     C25733  12.960  10.320   8.854 -0.8735  0.5879 -0.5760
  932MOL0     C25734  12.830  10.336   8.905  0.2905  0.1330 -0.4977
  932MOL0     N25735  12.499  10.340   9.448  0.1874  0.1699 -0.3390
  932MOL0     N25736  12.464  10.390   9.557 -0.3101 -0.1659 -0.0370
  932MOL0     C25737  11.497  10.744   9.794  0.2652 -0.3614  0.3253
  932MOL0     C25738  11.355  10.738   9.789  0.0569 -0.1620  0.1115
  932MOL0     C25739  10.911  10.870   9.781 -0.6825  0.6994  0.3896
  932MOL0     C25740  10.811  10.971   9.775  0.4880  0.1898  0.2713
  932MOL0     C25741  10.680  10.946   9.796 -0.1195 -0.1768  0.7976
  932MOL0     C25742  10.631  10.815   9.815 -0.3598  0.2893  0.2401
  932MOL0     O25743  10.500  10.788   9.841  0.0974 -0.6778 -0.2451
  932MOL0     C25744  10.409  10.849   9.749 -0.4721 -0.4286 -0.5132
  932MOL0     C25745  10.290  10.763   9.747  1.0920 -0.6886 -0.7396
  932MOL0     C25746  10.218  10.742   9.884 -0.3525 -0.8492  0.0794
  932MOL0     C25747  10.073  10.693   9.878  0.5271  0.1704  0.0909
  932MOL0     C25748  10.067  10.572   9.953  0.8146  0.3947 -0.1389
  932MOL0     C25749  10.058  10.471  10.018 -0.3211 -0.6427  1.2156
  932MOL0     C25750  10.722  10.712   9.832  0.7591 -0.6011 -1.1918
  932MOL0     C25751  10.867  10.735   9.816  0.1452  0.4400 -0.1001
  932MOL0     C25752  10.961  10.626   9.846 -0.1019  0.0591  0.8717
  932MOL0     H25753  11.291  11.052   9.673  1.5915  0.6615 -2.3758
  932MOL0     H25754  11.518  11.076   9.695 -1.7021  0.7240 -0.1005
  932MOL0     H25755  11.766  10.839   9.588  0.4170  0.5849 -0.0212
  932MOL0     H25756  11.762  11.005   9.648  0.6584  1.0206  1.1068
  932MOL0     H25757  11.914  10.769   9.770 -0.0889 -0.7368 -2.1885
  932MOL0     H25758  11.936  10.942   9.816 -5.1174  1.1421 -0.0350
  932MOL0     H25759  12.004  10.981   9.569  1.4568  1.1358 -0.2508
  932MOL0     H25760  12.014  10.804   9.563 -1.6087  0.0762  0.0253
  932MOL0     H25761  12.174  11.019   9.717  0.3174  0.8356 -1.4962
  932MOL0     H25762  12.156  10.865   9.800 -1.0965  1.7632  0.2708
  932MOL0     H25763  12.250  10.854   9.510  0.7069 -0.2076 -0.7768
  932MOL0     H25764  12.367  10.913   9.633 -1.7172  2.0594  0.7475
  932MOL0     H25765  12.408  10.686   9.616  2.0488  2.1612  1.8955
  932MOL0     H25766  12.351  10.713   9.772 -2.4984  0.2356  0.0073
  932MOL0     H25767  12.164  10.605   9.555  1.1171 -3.6590 -2.4166
  932MOL0     H25768  12.128  10.617   9.727  1.2933 -0.6490  0.3827
  932MOL0     H25769  12.317  10.451   9.770 -0.8544 -2.3346  0.3820
  932MOL0     H25770  12.170  10.397   9.704 -0.3352 -0.0894 -1.7384
  932MOL0     H25771  12.176  10.330   9.417 -0.1663 -1.7373  1.4380
  932MOL0     H25772  12.442  10.156   9.238 -0.5721 -0.3150  0.4967
  932MOL0     H25773  12.287  10.203   9.196  1.3543 -2.0482 -0.9667
  932MOL0     H25774  12.378  10.438   9.113  1.7759  0.2894 -1.2255
  932MOL0     H25775  12.528  10.384   9.180 -0.5801  0.1324  1.7436
  932MOL0     H25776  12.400  10.226   8.953  2.4857 -4.1826 -0.3047
  932MOL0     H25777  12.548  10.208   9.029  0.3725 -0.1139 -0.9008
  932MOL0     H25778  12.445  10.437   8.847 -0.2287 -0.6546  0.0857
  932MOL0     H25779  12.568  10.326   8.801 -0.2368  1.9506 -0.6798
  932MOL0     H25780  12.784  10.670   8.846  2.2276  1.0232  1.1108
  932MOL0     H25781  13.011  10.649   8.758  0.4242  0.1263 -0.6426
  932MOL0     H25782  13.416  10.713   8.821  0.5866  0.9724 -1.1920
  932MOL0     H25783  13.658  10.724   8.769  2.3152 -2.1692  0.7623
  932MOL0     H25784  13.991  10.528   8.550  0.0769  1.9698 -0.8540
  932MOL0     H25785  13.865  10.416   8.513  1.7329 -0.0459  1.5950
  932MOL0     H25786  13.916  10.532   8.320  0.5035 -0.8458  0.9815
  932MOL0     H25787  13.760  10.614   8.372  0.4059  0.4898 -1.6686
  932MOL0     H25788  13.883  10.811   8.333 -0.3873 -0.2512 -0.3290
  932MOL0     H25789  13.914  10.771   8.495  0.9684  1.1229  0.5447
  932MOL0     H25790  14.102  10.716   8.257 -1.2653 -0.5661 -1.0640
  932MOL0     H25791  14.127  10.640   8.416  0.8920 -0.3270 -2.1167
  932MOL0     H25792  14.108  10.889   8.500 -2.3934  1.8540 -0.1017
  932MOL0     H25793  14.103  10.928   8.323  0.6643 -1.5446 -2.3245
  932MOL0     H25794  14.337  10.756   8.390  0.3829  0.9357 -0.8761
  932MOL0     H25795  14.302  10.880   8.264  2.6544 -1.8293 -0.6312
  932MOL0     H25796  14.326  10.951   8.558  4.1603 -2.2831  0.7034
  932MOL0     H25797  14.306  11.059   8.422 -1.4385  0.3600  1.4990
  932MOL0     H25798  14.540  11.052   8.520  2.2268 -0.0513 -2.0475
  932MOL0     H25799  14.560  10.888   8.500  1.1383  1.0833  0.3582
  932MOL0     H25800  13.627  10.377   8.532  3.8992 -0.3331  3.0772
  932MOL0     H25801  13.410  10.350   8.593  1.5672  0.7901 -0.4612
  932MOL0     H25802  13.006  10.222   8.851 -2.4595 -0.2203  0.3509
  932MOL0     H25803  12.791  10.251   8.960  3.3737 -0.3681  1.1696
  932MOL0     H25804  11.559  10.675   9.850  0.0232 -0.4762  0.4544
  932MOL0     H25805  11.315  10.642   9.819 -0.4367  0.2020  0.6256
  932MOL0     H25806  10.837  11.075   9.758 -2.1091  0.6948 -1.1007
  932MOL0     H25807  10.608  11.027   9.790  1.5343  1.3831  1.0531
  932MOL0     H25808  10.450  10.856   9.648  0.7094 -0.5880 -0.0678
  932MOL0     H25809  10.379  10.948   9.785 -0.0308 -0.5378  0.1681
  932MOL0     H25810  10.314  10.662   9.710  0.6799 -0.9227 -0.3826
  932MOL0     H25811  10.219  10.814   9.682  0.6080  0.0769  0.3672
  932MOL0     H25812  10.216  10.835   9.941  1.5262 -0.4366 -0.4566
  932MOL0     H25813  10.284  10.675   9.938  0.5155 -0.5696 -0.6148
  932MOL0     H25814   9.998  10.759   9.921  1.0119  1.1440 -0.5037
  932MOL0     H25815  10.044  10.683   9.773  1.1414  3.0557 -0.4280
  932MOL0     H25816  10.052  10.387  10.084 -0.0893 -0.7810  1.0607
  932MOL0     H25817  10.681  10.614   9.857 -2.5985  0.5439 -1.7690
  932MOL0     H25818  11.019  10.672   9.927 -1.4738 -0.0362  1.9343
  932MOL0     H25819  10.893  10.547   9.878 -0.7225 -0.6188 -1.8829
  932MOL0     H25820  11.020  10.604   9.756  1.1809  0.2424  1.6410
  933MOL0     O25821   0.979   9.183   9.867  0.0481  0.3561  0.4772
  933MOL0     C25822   0.916   9.114   9.944  0.0704 -0.4352 -0.6060
  933MOL0     O25823   0.964   9.065  10.057 -0.6770 -0.0212 -0.2490
  933MOL0     C25824   1.093   9.096  10.083 -0.0725  0.0003  0.3905
  933MOL0     C25825   1.193   9.014  10.035 -0.3887 -0.0152 -0.1399
  933MOL0     C25826   1.327   9.046  10.041  0.2798  0.5745 -0.2460
  933MOL0     C25827   1.361   9.168  10.110 -0.0332 -0.3842  0.2687
  933MOL0     O25828   1.488   9.212  10.120  0.3329  0.1645  0.5535
  933MOL0     C25829   1.582   9.128  10.190  0.3905  0.3931  0.4263
  933MOL0     C25830   1.719   9.186  10.207  0.4420  0.0131  0.0298
  933MOL0     C25831   1.697   9.318  10.278 -0.6563 -0.9751 -0.3073
  933MOL0     C25832   1.821   9.408  10.269  0.5939  0.0673  0.4868
  933MOL0     C25833   1.817   9.528  10.358  0.2039  0.3243 -0.1239
  933MOL0     C25834   1.940   9.622  10.341  0.1880  0.4624  0.2670
  933MOL0     C25835   1.897   9.761  10.285 -0.2017  0.0919 -0.2921
  933MOL0     C25836   2.003   9.868  10.314  0.0434 -0.6715  0.5195
  933MOL0     N25837   1.945  10.004  10.305 -0.5625  0.5598 -0.3825
  933MOL0     C25838   1.833  10.062  10.360  0.4604  0.1539  0.2621
  933MOL0     C25839   1.839  10.193  10.314  1.0097  1.7397 -0.7693
  933MOL0     C25840   1.743  10.308  10.340 -0.0673  0.4685  0.1234
  933MOL0     C25841   1.792  10.417  10.447 -0.3969  0.1609  0.6893
  933MOL0     C25842   1.838  10.366  10.580  0.8557  0.0236  0.0973
  933MOL0     C25843   1.857  10.469  10.683 -0.1009  0.1444 -0.6309
  933MOL0     O25844   1.845  10.408  10.814  0.4288  0.0537 -0.4533
  933MOL0     C25845   1.954  10.335  10.858 -0.0778  0.2853  0.4570
  933MOL0     C25846   1.938  10.243  10.961  0.5482  0.6304 -0.6365
  933MOL0     C25847   2.048  10.189  11.034 -0.3331 -1.6477  0.0507
  933MOL0     C25848   2.179  10.203  10.978 -0.6704 -0.2820  0.2680
  933MOL0     C25849   2.290  10.120  11.033 -0.4585  0.1558 -0.1073
  933MOL0     O25850   2.412  10.146  10.982  0.0500 -0.6851 -0.3013
  933MOL0     C25851   2.514  10.068  11.020 -1.0943  0.3087  0.7797
  933MOL0     C25852   2.571  10.069  11.147  0.3376 -0.0827  0.4486
  933MOL0     C25853   2.677   9.983  11.181 -0.3866  0.2784  0.1383
  933MOL0     C25854   2.730   9.906  11.078  0.2039  0.4076  0.0817
  933MOL0     O25855   2.848   9.848  11.103  0.2600  0.0701  0.1258
  933MOL0     C25856   2.889   9.732  11.029 -0.4516 -0.2539 -0.2806
  933MOL0     C25857   3.017   9.682  11.096  0.0458  0.1815 -0.0187
  933MOL0     C25858   3.074   9.554  11.035 -0.1006 -1.1758 -0.7997
  933MOL0     C25859   2.989   9.435  11.035  0.4850  0.0571 -0.7946
  933MOL0     C25860   3.055   9.313  10.982 -0.9919 -0.5303  0.8746
  933MOL0     C25861   2.964   9.195  10.995 -0.3014 -0.4580  1.2421
  933MOL0     C25862   3.054   9.069  10.976 -0.4495  0.1942  0.0890
  933MOL0     C25863   2.964   8.946  10.983 -0.7453 -0.7781  0.0046
  933MOL0    Cl25864   2.877   8.918  11.138 -0.1336 -0.0935  0.3110
  933MOL0     C25865   2.673   9.898  10.950  0.4075  0.2617 -0.5077
  933MOL0     C25866   2.570   9.979  10.922 -0.0313 -0.6258  0.3584
  933MOL0     O25867   2.268  10.036  11.124 -1.1304 -0.1743 -0.0299
  933MOL0     C25868   2.199  10.292  10.868 -0.3143  0.1748 -0.3614
  933MOL0     C25869   2.089  10.358  10.814  0.1356 -0.3877  0.5352
  933MOL0     N25870   1.956  10.203  10.244 -0.1866 -0.2240  0.3297
  933MOL0     N25871   2.020  10.092  10.244 -0.6028 -0.1042  0.5863
  933MOL0     C25872   1.263   9.254  10.148  0.6447 -0.0477 -0.7524
  933MOL0     C25873   1.131   9.218  10.137 -0.0531  1.2224  0.2997
  933MOL0     C25874   0.778   9.070   9.913 -0.1471 -0.2007  0.5271
  933MOL0     C25875   0.718   8.972   9.999 -0.2332 -0.3124  0.7832
  933MOL0     C25876   0.587   8.933   9.975  0.8910 -0.0632  0.2264
  933MOL0     C25877   0.509   8.997   9.872 -0.2965  0.7982 -0.1582
  933MOL0     O25878   0.383   8.957   9.845  0.3418  0.5862  0.1382
  933MOL0     C25879   0.316   8.846   9.910 -0.4273 -0.6951  0.5886
  933MOL0     C25880   0.265   8.875  10.059 -0.5931 -0.2684 -0.0046
  933MOL0     C25881   0.119   8.912  10.065 -0.3625  0.1546 -0.3742
  933MOL0     C25882   0.027   8.798  10.024 -0.1515 -0.3540 -0.6477
  933MOL0     C25883   0.041   8.675  10.116 -0.0188  0.1866  0.0252
  933MOL0     C25884   0.074   8.583  10.191  0.4038 -0.1489  0.2890
  933MOL0     C25885   0.572   9.078   9.780 -0.4598  0.0094 -0.9872
  933MOL0     C25886   0.705   9.125   9.802  0.1181 -0.2162  0.4707
  933MOL0     C25887   0.758   9.219   9.696  0.1448  0.2590 -0.2616
  933MOL0     H25888   1.154   8.924   9.989 -1.1959  0.6082 -0.7025
  933MOL0     H25889   1.404   8.980  10.000 -1.7192 -1.7913 -0.4507
  933MOL0     H25890   1.541   9.102  10.288 -1.1586  0.1138 -0.2612
  933MOL0     H25891   1.610   9.038  10.135 -0.6798  0.7738 -0.8093
  933MOL0     H25892   1.774   9.186  10.113 -0.5947 -1.1169 -0.5956
  933MOL0     H25893   1.779   9.119  10.269  2.0047  0.5530 -0.8259
  933MOL0     H25894   1.671   9.284  10.379  1.3501 -0.2151  0.5144
  933MOL0     H25895   1.614   9.378  10.239  0.6226  2.5691  1.9047
  933MOL0     H25896   1.906   9.347  10.299  1.7561  2.7567  3.0935
  933MOL0     H25897   1.836   9.427  10.162  2.6589 -2.0161  0.3138
  933MOL0     H25898   1.727   9.583  10.333  0.6475  0.0515 -2.6081
  933MOL0     H25899   1.804   9.501  10.463  2.3140  3.2008  1.0016
  933MOL0     H25900   1.984   9.648  10.438  0.8184  2.7667 -0.5767
  933MOL0     H25901   2.014   9.584  10.271 -0.7277  0.5242 -0.7587
  933MOL0     H25902   1.804   9.789  10.334  0.1513  2.4608 -0.8753
  933MOL0     H25903   1.878   9.745  10.178  1.9208 -1.7758 -0.4623
  933MOL0     H25904   2.057   9.869  10.409  2.3770  0.0147 -0.7333
  933MOL0     H25905   2.093   9.859  10.253  0.6740  1.6247  1.0133
  933MOL0     H25906   1.745  10.028  10.414 -1.7024  2.4318 -1.6248
  933MOL0     H25907   1.714  10.346  10.241 -0.7356 -0.8157 -0.1966
  933MOL0     H25908   1.644  10.291  10.382 -0.7685  1.1094 -1.2135
  933MOL0     H25909   1.875  10.468  10.396 -1.5029  0.6947 -0.6511
  933MOL0     H25910   1.714  10.493  10.452 -0.9469 -0.0886 -2.1193
  933MOL0     H25911   1.938  10.321  10.573  0.8444  0.2275 -1.8924
  933MOL0     H25912   1.773  10.287  10.618  0.5204  0.6958  0.9335
  933MOL0     H25913   1.770  10.536  10.672 -0.3051  0.3955  1.8866
  933MOL0     H25914   1.948  10.527  10.667  0.3658  0.6275  3.0081
  933MOL0     H25915   1.837  10.226  10.998  0.4558  0.4183 -0.9847
  933MOL0     H25916   2.040  10.132  11.126  4.3400 -2.9239 -0.0776
  933MOL0     H25917   2.529  10.137  11.220  1.0226 -0.5023  1.2541
  933MOL0     H25918   2.729   9.986  11.277 -0.8974 -1.1428  0.4934
  933MOL0     H25919   2.812   9.655  11.019  0.1617 -0.7830 -0.9768
  933MOL0     H25920   2.926   9.761  10.930  1.4687 -0.5809  0.2894
  933MOL0     H25921   3.094   9.759  11.096  0.0138  0.2192  0.9069
  933MOL0     H25922   3.004   9.664  11.203  2.8522 -0.7391  0.2356
  933MOL0     H25923   3.114   9.569  10.934  1.8711  0.7002  0.1941
  933MOL0     H25924   3.154   9.537  11.107 -1.3089 -1.7474  0.4565
  933MOL0     H25925   2.897   9.460  10.981 -0.6793 -0.7425  0.7102
  933MOL0     H25926   2.959   9.414  11.139  2.0663 -1.6924 -0.6454
  933MOL0     H25927   3.154   9.302  11.026 -1.7975  2.0292  3.6805
  933MOL0     H25928   3.070   9.319  10.874 -4.2402  0.0432  0.3413
  933MOL0     H25929   2.910   9.194  11.090 -1.7503 -0.5529  0.4622
  933MOL0     H25930   2.886   9.199  10.918 -2.2949 -0.5609  3.1423
  933MOL0     H25931   3.127   9.065  11.058 -1.7816 -0.0330  1.3197
  933MOL0     H25932   3.103   9.059  10.879  1.4486 -3.6899  1.2367
  933MOL0     H25933   2.899   8.969  10.899  0.3615 -0.5439 -0.8084
  933MOL0     H25934   3.019   8.853  10.966 -1.8068 -1.1054 -1.9111
  933MOL0     H25935   2.725   9.839  10.875  2.2866  2.1610 -0.7734
  933MOL0     H25936   2.519   9.978  10.826  0.6140 -1.3359  0.0142
  933MOL0     H25937   2.299  10.310  10.827  0.4633 -1.5502  0.6832
  933MOL0     H25938   2.118  10.428  10.737  2.9860 -1.1693  0.8016
  933MOL0     H25939   1.288   9.350  10.193 -1.4486 -0.2946  1.1005
  933MOL0     H25940   1.047   9.279  10.168 -0.9856  1.2675 -2.0859
  933MOL0     H25941   0.777   8.942  10.085  0.4989 -0.3425  0.2839
  933MOL0     H25942   0.551   8.845  10.027  1.6603 -1.5788 -1.6774
  933MOL0     H25943   0.381   8.758   9.916 -0.5996 -0.9021 -0.4090
  933MOL0     H25944   0.225   8.822   9.853 -0.9618 -1.8203  1.8475
  933MOL0     H25945   0.315   8.962  10.104  0.2131 -0.4042 -0.6118
  933MOL0     H25946   0.281   8.787  10.122  1.7769  0.0659 -0.0438
  933MOL0     H25947   0.094   8.996  10.000 -0.0646 -2.0031 -3.4849
  933MOL0     H25948   0.102   8.944  10.169  2.7080  0.4336  0.1193
  933MOL0     H25949  -0.078   8.830  10.021 -0.6900 -1.9218 -0.0057
  933MOL0     H25950   0.041   8.762   9.922  1.0475  1.1727 -1.0500
  933MOL0     H25951   0.104   8.495  10.244 -2.2219 -0.0264  2.1861
  933MOL0     H25952   0.498   9.126   9.717  0.6659  2.3502 -0.6521
  933MOL0     H25953   0.825   9.169   9.625  1.3452  2.4281 -0.7501
  933MOL0     H25954   0.676   9.259   9.636 -0.7854 -1.6619 -0.3430
  933MOL0     H25955   0.816   9.303   9.735 -0.6124  0.4151  0.5337
  934MOL0     O25956  10.276   4.619   6.211 -0.3246 -0.1425  0.0841
  934MOL0     C25957  10.275   4.724   6.152  0.4151  0.5057  0.1229
  934MOL0     O25958  10.389   4.781   6.100 -0.5108 -0.6769  0.5651
  934MOL0     C25959  10.519   4.738   6.132  0.4067  0.5607  0.0848
  934MOL0     C25960  10.563   4.695   6.258 -0.8459  0.1431 -0.1185
  934MOL0     C25961  10.699   4.655   6.277  0.1839  0.0863  0.8178
  934MOL0     C25962  10.788   4.671   6.172  0.1991  0.1586 -0.3861
  934MOL0     O25963  10.920   4.634   6.185 -0.2976  0.0888 -0.0208
  934MOL0     C25964  10.966   4.532   6.265  0.1582  0.2818 -0.1821
  934MOL0     C25965  11.119   4.514   6.252 -0.2298 -0.2294  0.1875
  934MOL0     C25966  11.169   4.396   6.335 -0.2369 -0.0454  0.0486
  934MOL0     C25967  11.313   4.370   6.323 -1.2365 -0.2251 -0.8688
  934MOL0     C25968  11.357   4.243   6.396  0.3060 -0.4194  0.4487
  934MOL0     C25969  11.503   4.221   6.355 -0.1381  1.2654 -0.2215
  934MOL0     C25970  11.556   4.098   6.427 -0.0786  0.7357  0.4219
  934MOL0     C25971  11.699   4.056   6.405  0.8905  0.7566  0.8045
  934MOL0     N25972  11.729   3.932   6.471 -0.4603 -0.0826  0.0505
  934MOL0     C25973  11.711   3.917   6.605 -0.5414  0.5855  0.0960
  934MOL0     C25974  11.768   3.795   6.634  0.5461  0.4382  0.2215
  934MOL0     C25975  11.781   3.734   6.771 -0.1252  0.3495  0.0739
  934MOL0     C25976  11.911   3.777   6.828  0.3675  0.8462  0.2743
  934MOL0     C25977  11.918   3.933   6.850 -0.2584 -0.9071  0.3780
  934MOL0     C25978  12.028   3.970   6.953  0.2461  0.9692 -0.1717
  934MOL0     O25979  11.989   4.088   7.021 -0.2226 -0.2626 -0.9676
  934MOL0     C25980  12.073   4.122   7.129 -1.2888  0.3267  0.8188
  934MOL0     C25981  12.213   4.084   7.137  0.0728 -0.5988  0.6405
  934MOL0     C25982  12.298   4.137   7.240  1.4126  0.6889  0.5355
  934MOL0     C25983  12.258   4.228   7.334  1.5031  0.0891 -0.0584
  934MOL0     C25984  12.336   4.284   7.440  0.0624  0.2334  0.2122
  934MOL0     O25985  12.465   4.250   7.429  0.0527 -0.6936 -0.1837
  934MOL0     C25986  12.573   4.303   7.494 -0.2465  0.5951 -0.6573
  934MOL0     C25987  12.577   4.431   7.550 -0.2145  0.3469  0.0033
  934MOL0     C25988  12.696   4.491   7.594 -0.4433 -0.0922 -0.2860
  934MOL0     C25989  12.819   4.417   7.583 -1.0196  0.0023  0.1497
  934MOL0     O25990  12.951   4.462   7.606  0.8307  0.5612 -0.3526
  934MOL0     C25991  12.985   4.599   7.566  1.0695  0.4044  0.2331
  934MOL0     C25992  13.125   4.612   7.579  0.4158 -0.2879 -0.0180
  934MOL0     C25993  13.160   4.767   7.560 -0.1670 -0.1406  0.1353
  934MOL0     C25994  13.306   4.791   7.552 -0.8652 -0.2142  0.5775
  934MOL0     C25995  13.355   4.929   7.576 -0.0261 -0.5143  0.0803
  934MOL0     C25996  13.504   4.936   7.534  0.0663 -0.7311 -0.2208
  934MOL0     C25997  13.598   4.887   7.654 -0.2611  0.4745  0.1381
  934MOL0     C25998  13.751   4.902   7.629 -0.3677  0.6696  1.1413
  934MOL0    Cl25999  13.793   5.071   7.629  0.2726  0.0753  0.0304
  934MOL0     C26000  12.813   4.289   7.532  0.0670  0.2611  0.4625
  934MOL0     C26001  12.697   4.232   7.482  0.0121  0.2394  0.1412
  934MOL0     O26002  12.286   4.348   7.536  0.2141 -0.0599 -0.3174
  934MOL0     C26003  12.128   4.270   7.322  0.2043 -0.5918 -0.2590
  934MOL0     C26004  12.037   4.224   7.220 -0.0228 -0.0580 -0.0997
  934MOL0     N26005  11.822   3.744   6.519 -0.7636 -0.5263 -0.5874
  934MOL0     N26006  11.788   3.820   6.422  0.1511  0.6566  0.8484
  934MOL0     C26007  10.747   4.725   6.057 -0.5569 -0.3764  0.2836
  934MOL0     C26008  10.617   4.764   6.036 -0.5145  0.1063 -0.3317
  934MOL0     C26009  10.152   4.795   6.139  0.4370 -1.2504 -0.6178
  934MOL0     C26010  10.042   4.750   6.212 -0.2050  0.9586  0.0730
  934MOL0     C26011   9.919   4.824   6.213  0.7396  0.4520  0.2300
  934MOL0     C26012   9.888   4.927   6.124 -0.7548 -0.2651  0.7425
  934MOL0     O26013   9.765   4.988   6.106 -0.5161 -0.6940 -0.5592
  934MOL0     C26014   9.655   4.905   6.151  0.2383  0.9210  0.4829
  934MOL0     C26015   9.518   4.962   6.101 -1.0179  0.1965  0.2944
  934MOL0     C26016   9.398   4.868   6.131  0.2694  0.9034 -0.0481
  934MOL0     C26017   9.264   4.923   6.098 -0.4872 -0.2834  0.5942
  934MOL0     C26018   9.266   4.943   5.952 -0.2443 -0.3876  0.9172
  934MOL0     C26019   9.271   4.936   5.834 -0.2209  0.4635 -0.0302
  934MOL0     C26020  10.003   4.976   6.055  0.1607 -0.6969 -0.1555
  934MOL0     C26021  10.129   4.916   6.057 -0.0802  0.3264 -0.2490
  934MOL0     C26022  10.232   4.965   5.951  0.3580  0.5842  0.4159
  934MOL0     H26023  10.495   4.693   6.343  0.1816  1.0386  0.7477
  934MOL0     H26024  10.726   4.630   6.379 -1.4148  1.0198  1.5270
  934MOL0     H26025  10.944   4.551   6.370 -2.4984  2.2325 -0.9791
  934MOL0     H26026  10.911   4.439   6.242 -0.8599  0.9079 -0.3556
  934MOL0     H26027  11.171   4.605   6.285  0.4840 -0.4909 -0.1898
  934MOL0     H26028  11.151   4.502   6.148  0.1801  2.8418 -0.1470
  934MOL0     H26029  11.116   4.313   6.288  3.0204 -1.4875 -1.3898
  934MOL0     H26030  11.133   4.410   6.437  1.3361 -2.1776  0.9816
  934MOL0     H26031  11.327   4.371   6.215  2.6359 -0.5519 -0.5193
  934MOL0     H26032  11.387   4.444   6.355 -0.7849 -0.4316 -1.4202
  934MOL0     H26033  11.344   4.254   6.504  1.6884  0.3826  0.5642
  934MOL0     H26034  11.296   4.157   6.367  1.0922 -0.9373  0.2990
  934MOL0     H26035  11.496   4.212   6.246 -0.3713 -1.2201 -0.0646
  934MOL0     H26036  11.563   4.310   6.373  0.4022  0.8160  0.2503
  934MOL0     H26037  11.503   4.011   6.386  2.0347  0.0106 -0.9018
  934MOL0     H26038  11.532   4.110   6.533  0.2380  1.9460  0.3668
  934MOL0     H26039  11.713   4.034   6.299 -3.0970 -1.7509  0.5787
  934MOL0     H26040  11.766   4.133   6.443  1.6428 -1.0995  3.5845
  934MOL0     H26041  11.672   3.983   6.682  0.1680 -0.6624  1.5703
  934MOL0     H26042  11.709   3.783   6.837 -1.0520  0.7712 -1.2129
  934MOL0     H26043  11.765   3.627   6.757  1.5323  0.0442  0.3282
  934MOL0     H26044  11.939   3.723   6.919  0.4212 -1.5944 -1.0835
  934MOL0     H26045  11.983   3.751   6.749 -1.1402  1.3747 -1.3510
  934MOL0     H26046  11.822   3.973   6.885  0.3016 -0.3137  1.2897
  934MOL0     H26047  11.928   3.997   6.762 -1.7282  1.6281  1.9148
  934MOL0     H26048  12.120   3.971   6.895 -1.3492 -1.2530 -3.0191
  934MOL0     H26049  12.048   3.888   7.024  0.3313  0.3274 -0.9209
  934MOL0     H26050  12.266   4.002   7.090 -0.4884 -2.2525  2.7184
  934MOL0     H26051  12.399   4.098   7.240  2.1840  2.4677 -1.2012
  934MOL0     H26052  12.484   4.488   7.550 -0.9425 -0.8106  0.1963
  934MOL0     H26053  12.683   4.591   7.634  3.7532  0.8457 -0.7164
  934MOL0     H26054  12.959   4.610   7.460  2.3512 -0.6514 -0.2191
  934MOL0     H26055  12.945   4.680   7.628  2.0423  0.6332  0.5698
  934MOL0     H26056  13.161   4.575   7.675  2.6024  0.0249 -0.6603
  934MOL0     H26057  13.181   4.564   7.498  0.9346 -0.6549  0.5536
  934MOL0     H26058  13.121   4.807   7.466  2.8585  1.9576 -0.3602
  934MOL0     H26059  13.111   4.825   7.638 -0.0320 -0.7227  0.6590
  934MOL0     H26060  13.338   4.761   7.452 -0.4112 -0.9742  0.9413
  934MOL0     H26061  13.354   4.724   7.625  0.7185  1.0957  0.7970
  934MOL0     H26062  13.335   4.966   7.677  1.1194  2.8874 -0.8069
  934MOL0     H26063  13.301   4.997   7.510 -1.2195  1.9132  3.3369
  934MOL0     H26064  13.529   4.864   7.455 -1.7740 -2.9818  1.1299
  934MOL0     H26065  13.524   5.039   7.503 -0.3592  0.3454  2.7945
  934MOL0     H26066  13.585   4.781   7.680  2.5684  0.2047  0.8049
  934MOL0     H26067  13.572   4.951   7.738  0.1681  0.8157  0.0129
  934MOL0     H26068  13.809   4.858   7.711 -0.2183  1.0787  1.2556
  934MOL0     H26069  13.775   4.845   7.539  0.8962  0.5733  1.5268
  934MOL0     H26070  12.904   4.233   7.516 -1.3929 -1.8771 -0.8687
  934MOL0     H26071  12.709   4.135   7.435  0.7083  1.2857 -1.9571
  934MOL0     H26072  12.091   4.340   7.397  1.0227  1.3054 -1.5721
  934MOL0     H26073  11.932   4.251   7.208 -0.1571 -0.8568 -0.8073
  934MOL0     H26074  10.828   4.745   5.987  0.4449 -3.4785  0.4368
  934MOL0     H26075  10.593   4.813   5.942 -1.9041 -0.3428 -0.2297
  934MOL0     H26076  10.048   4.669   6.284 -1.9520 -0.6220 -1.4477
  934MOL0     H26077   9.841   4.785   6.278 -1.9059  1.7232 -1.9367
  934MOL0     H26078   9.657   4.889   6.259  0.3100 -1.1927  0.1960
  934MOL0     H26079   9.671   4.802   6.119 -0.7251  0.1147  2.3793
  934MOL0     H26080   9.539   4.967   5.993 -0.1017  2.7573  0.5200
  934MOL0     H26081   9.498   5.064   6.134  1.8782  1.1943 -0.6571
  934MOL0     H26082   9.390   4.843   6.238 -1.9455 -0.8111 -0.5260
  934MOL0     H26083   9.413   4.773   6.080 -0.2214  0.3991  0.7144
  934MOL0     H26084   9.193   4.840   6.111 -0.0426 -1.1492 -1.9233
  934MOL0     H26085   9.250   5.012   6.159  1.5687  0.3322  0.2446
  934MOL0     H26086   9.269   4.934   5.727 -0.3360 -1.1004 -0.0306
  934MOL0     H26087   9.995   5.062   5.990 -0.5700 -0.8773 -0.3132
  934MOL0     H26088  10.185   5.050   5.901 -3.4707 -0.2363  2.2594
  934MOL0     H26089  10.330   4.997   5.986 -0.3151  0.5558  2.4355
  934MOL0     H26090  10.249   4.884   5.879 -0.2551  2.8418 -2.4467
  935MOL0     O26091   3.016  10.352   8.735  0.4157 -0.2844 -0.0716
  935MOL0     C26092   2.929  10.422   8.780 -0.4645  0.2704 -0.2024
  935MOL0     O26093   2.942  10.553   8.807  0.3439 -0.5970 -0.2868
  935MOL0     C26094   3.061  10.629   8.801  0.1776  0.2300  0.2954
  935MOL0     C26095   3.195  10.581   8.806  0.2397 -0.1313  0.5288
  935MOL0     C26096   3.309  10.669   8.816 -0.8714 -0.5002  0.1347
  935MOL0     C26097   3.291  10.808   8.804  0.2475  0.4568 -0.5129
  935MOL0     O26098   3.384  10.915   8.810  0.0171 -0.4673  0.5230
  935MOL0     C26099   3.524  10.899   8.777  0.3190  0.3019 -0.4717
  935MOL0     C26100   3.536  10.893   8.628  0.7294  0.5430  0.1903
  935MOL0     C26101   3.671  10.854   8.578 -0.5749 -0.8475 -0.2543
  935MOL0     C26102   3.687  10.872   8.423 -0.5264  0.0806  0.2949
  935MOL0     C26103   3.827  10.822   8.380  0.4172  0.0730 -0.5122
  935MOL0     C26104   3.842  10.816   8.225  0.3143  0.2199 -0.3150
  935MOL0     C26105   3.976  10.755   8.189 -0.1410  0.0394 -0.1804
  935MOL0     C26106   3.994  10.735   8.041  0.0484 -0.4929 -1.0602
  935MOL0     N26107   3.910  10.627   7.998  0.7807  0.0589 -0.4768
  935MOL0     C26108   3.949  10.494   7.996  0.0197 -0.0222 -0.1258
  935MOL0     C26109   3.839  10.428   7.963  0.5380 -0.6551  0.1339
  935MOL0     C26110   3.831  10.281   7.940  0.1285  0.3185 -0.0378
  935MOL0     C26111   3.938  10.230   7.857 -0.1848 -0.3065  0.2400
  935MOL0     C26112   3.953  10.070   7.875 -0.0088 -0.4961 -0.0670
  935MOL0     C26113   3.978  10.005   7.741 -0.6218  0.1394  0.3375
  935MOL0     O26114   4.104  10.057   7.700 -0.3797 -0.6738  0.1029
  935MOL0     C26115   4.118  10.126   7.576  0.2247  0.7816 -0.4316
  935MOL0     C26116   4.238  10.144   7.520 -0.2146  0.2919  0.9372
  935MOL0     C26117   4.261  10.190   7.396 -0.4011 -0.6175  0.4572
  935MOL0     C26118   4.149  10.238   7.317 -0.1546 -0.9715 -0.7251
  935MOL0     C26119   4.161  10.303   7.185 -0.1086  0.6185 -0.0187
  935MOL0     O26120   4.282  10.290   7.126 -0.7513  0.1370  0.7958
  935MOL0     C26121   4.334  10.368   7.027  0.8571 -0.9493  0.5014
  935MOL0     C26122   4.445  10.326   6.951  0.7739 -0.9143 -0.1802
  935MOL0     C26123   4.512  10.420   6.874  0.3890 -0.4398 -0.0642
  935MOL0     C26124   4.461  10.545   6.849 -0.2955  0.0803  0.6834
  935MOL0     O26125   4.533  10.621   6.756 -0.0849 -0.0860  0.5154
  935MOL0     C26126   4.525  10.765   6.783 -0.1948 -0.2650  0.0308
  935MOL0     C26127   4.630  10.850   6.712 -0.0065  0.0054  0.5596
  935MOL0     C26128   4.628  10.825   6.562 -0.1900 -0.1575  0.1576
  935MOL0     C26129   4.487  10.860   6.492  0.0632  0.2994 -0.2942
  935MOL0     C26130   4.489  10.829   6.344 -0.0023 -0.2238 -0.3935
  935MOL0     C26131   4.491  10.680   6.314 -0.6828  0.4860  0.1460
  935MOL0     C26132   4.439  10.639   6.168  0.6953  0.3427  0.2511
  935MOL0     C26133   4.501  10.507   6.120 -0.0064 -0.3134  0.6381
  935MOL0    Cl26134   4.650  10.555   6.033 -0.6330 -0.0380 -0.2784
  935MOL0     C26135   4.346  10.589   6.921 -0.1646  0.0900  0.1254
  935MOL0     C26136   4.283  10.505   7.006 -0.0009 -0.0437 -0.3643
  935MOL0     O26137   4.064  10.351   7.137  0.2775  0.6248 -0.0016
  935MOL0     C26138   4.024  10.227   7.374 -1.0635  0.3724  0.2749
  935MOL0     C26139   4.010  10.170   7.507  0.2826 -0.1228 -0.3670
  935MOL0     N26140   3.739  10.518   7.944  0.4773  0.0883 -0.4849
  935MOL0     N26141   3.787  10.635   7.956  0.9935  0.4649 -0.2036
  935MOL0     C26142   3.163  10.846   8.799 -0.3367  0.4391  0.1187
  935MOL0     C26143   3.045  10.764   8.792  1.1943 -0.0668  0.6235
  935MOL0     C26144   2.793  10.365   8.798 -0.4576  0.3241 -0.7643
  935MOL0     C26145   2.690  10.454   8.839  0.5273 -0.1251 -0.4754
  935MOL0     C26146   2.562  10.403   8.861  0.1184 -0.2468 -0.2783
  935MOL0     C26147   2.537  10.270   8.846  1.1495 -0.2337 -0.6189
  935MOL0     O26148   2.432  10.193   8.872 -0.0618  0.0294 -0.4187
  935MOL0     C26149   2.325  10.264   8.923  0.6737 -0.6971  0.2863
  935MOL0     C26150   2.213  10.165   8.957 -0.1132 -0.2339  0.6543
  935MOL0     C26151   2.099  10.242   9.019 -0.3701 -0.3593 -0.2156
  935MOL0     C26152   1.962  10.164   9.013 -0.7389  0.6099 -0.2768
  935MOL0     C26153   1.949  10.057   9.121  0.3621  0.2402 -0.5144
  935MOL0     C26154   1.920   9.978   9.204 -0.1710  1.0572  0.3699
  935MOL0     C26155   2.634  10.182   8.797 -0.3591 -0.4147 -0.7179
  935MOL0     C26156   2.767  10.223   8.775 -0.3065  0.3358  0.2373
  935MOL0     C26157   2.858  10.116   8.731  0.7988  0.2802 -1.1181
  935MOL0     H26158   3.216  10.479   8.835  1.4043  0.3654  1.4700
  935MOL0     H26159   3.413  10.642   8.828 -0.6445  0.8598  1.6975
  935MOL0     H26160   3.582  10.982   8.816  2.5032 -0.3783 -2.0400
  935MOL0     H26161   3.553  10.806   8.827 -1.4768  0.3759  0.8232
  935MOL0     H26162   3.511  10.990   8.585  0.1429  0.9526  1.4256
  935MOL0     H26163   3.466  10.822   8.582  0.2952  0.6542  0.6748
  935MOL0     H26164   3.696  10.751   8.605 -0.0521 -0.7529 -0.3636
  935MOL0     H26165   3.750  10.919   8.617  0.6145 -2.1785 -0.3703
  935MOL0     H26166   3.611  10.815   8.368  0.1082  1.0556 -1.7035
  935MOL0     H26167   3.676  10.978   8.400  0.1215  0.4353  1.5314
  935MOL0     H26168   3.904  10.882   8.429  0.5829 -2.2467  2.3332
  935MOL0     H26169   3.843  10.723   8.423  0.1802  0.0223 -0.5377
  935MOL0     H26170   3.763  10.750   8.188 -0.1138 -0.3488  1.5250
  935MOL0     H26171   3.827  10.918   8.187 -0.2210  0.5977  0.8847
  935MOL0     H26172   3.988  10.657   8.238  1.9422 -0.0926 -0.8575
  935MOL0     H26173   4.052  10.828   8.217  1.8649 -2.1402  0.4232
  935MOL0     H26174   3.954  10.824   7.992  1.6384  0.8010 -0.1065
  935MOL0     H26175   4.100  10.720   8.015  0.2014 -1.3334 -0.0212
  935MOL0     H26176   4.048  10.462   8.027  0.6183  2.7623  1.2029
  935MOL0     H26177   3.832  10.240   8.042 -0.6748 -1.4065 -0.6894
  935MOL0     H26178   3.735  10.250   7.897  0.1376 -0.1965  0.3091
  935MOL0     H26179   3.906  10.255   7.756  1.4162 -0.6630 -0.3971
  935MOL0     H26180   4.039  10.270   7.873  0.6487 -0.8085 -3.0179
  935MOL0     H26181   3.860  10.026   7.912  0.5107 -1.2675  0.3377
  935MOL0     H26182   4.042  10.056   7.937 -0.0408 -1.9961 -0.3289
  935MOL0     H26183   3.902  10.006   7.663 -1.4973 -1.7855  1.1008
  935MOL0     H26184   3.995   9.899   7.764  1.6458  0.5820  0.9414
  935MOL0     H26185   4.328  10.118   7.576 -1.1786  0.0847  2.4460
  935MOL0     H26186   4.363  10.208   7.362 -0.6956  0.5739  0.1468
  935MOL0     H26187   4.486  10.233   6.989 -1.6407 -1.5617  1.0563
  935MOL0     H26188   4.607  10.390   6.831 -0.1697 -0.5222 -1.2899
  935MOL0     H26189   4.421  10.785   6.753 -0.2756 -0.1985  0.3565
  935MOL0     H26190   4.539  10.793   6.888  0.6026  2.3027 -0.6773
  935MOL0     H26191   4.624  10.958   6.724  0.6899 -0.0996  2.1290
  935MOL0     H26192   4.724  10.829   6.763  0.7889  0.9098 -0.4852
  935MOL0     H26193   4.700  10.893   6.516 -1.3340 -0.5659 -2.4107
  935MOL0     H26194   4.656  10.723   6.534  0.5362  0.5667 -1.9592
  935MOL0     H26195   4.459  10.964   6.512 -1.4329  0.8413 -4.3435
  935MOL0     H26196   4.404  10.808   6.540 -1.0120  2.0704 -0.1611
  935MOL0     H26197   4.571  10.876   6.290  0.5024 -2.3040 -1.5406
  935MOL0     H26198   4.404  10.867   6.287  0.6179 -0.9752 -1.8542
  935MOL0     H26199   4.594  10.645   6.323 -0.5672  0.6751 -0.4271
  935MOL0     H26200   4.436  10.623   6.390  1.7281 -0.1046  1.5585
  935MOL0     H26201   4.451  10.714   6.089  0.3446  1.5428  1.3062
  935MOL0     H26202   4.331  10.632   6.181  1.0517 -0.2774  4.4628
  935MOL0     H26203   4.516  10.441   6.206 -2.8776  0.8335  2.1582
  935MOL0     H26204   4.441  10.463   6.039  2.0839  1.9128 -2.3314
  935MOL0     H26205   4.311  10.691   6.920 -1.4519 -0.3436 -0.0365
  935MOL0     H26206   4.202  10.558   7.054  0.6467  2.2225 -1.6048
  935MOL0     H26207   3.936  10.260   7.319 -0.7427  3.3823  1.4079
  935MOL0     H26208   3.914  10.177   7.558  1.6665  0.5164  2.3395
  935MOL0     H26209   3.165  10.954   8.812  0.1336  0.3989  0.4025
  935MOL0     H26210   2.946  10.808   8.778  1.4170 -0.5885 -4.5807
  935MOL0     H26211   2.710  10.560   8.855  3.1192 -0.8177  1.6008
  935MOL0     H26212   2.492  10.479   8.894  0.3237 -0.0034 -0.3924
  935MOL0     H26213   2.280  10.343   8.863 -1.5781 -1.4116  0.9686
  935MOL0     H26214   2.359  10.325   9.008  3.2947 -0.3350 -0.9053
  935MOL0     H26215   2.251  10.096   9.034 -2.1407  1.1771  3.0701
  935MOL0     H26216   2.190  10.100   8.873  1.5222 -3.5191  2.5289
  935MOL0     H26217   2.068  10.334   8.969 -2.4901 -0.2265  1.2218
  935MOL0     H26218   2.124  10.266   9.124 -1.3958  0.7603 -0.2018
  935MOL0     H26219   1.873  10.227   9.014 -3.1266 -2.5010  0.2468
  935MOL0     H26220   1.955  10.110   8.917  0.8811  1.7914 -1.0996
  935MOL0     H26221   1.879   9.905   9.270  1.2948  1.4191  1.7411
  935MOL0     H26222   2.613  10.077   8.784  0.1904 -0.5472 -0.5938
  935MOL0     H26223   2.949  10.127   8.790  0.6775  2.3047 -1.2480
  935MOL0     H26224   2.824  10.014   8.751 -0.3989  0.9142  0.2513
  935MOL0     H26225   2.887  10.118   8.626  0.0360 -0.6077 -1.3575
  936MOL0     O26226   4.514   0.732   6.212 -0.5798  0.3536 -0.1237
  936MOL0     C26227   4.449   0.822   6.173  0.2181  0.3297  0.3922
  936MOL0     O26228   4.503   0.935   6.123  0.0718  0.2570  0.7461
  936MOL0     C26229   4.627   0.990   6.164  0.2129 -0.3658  0.7935
  936MOL0     C26230   4.699   1.085   6.089 -0.4001  0.5020 -0.3497
  936MOL0     C26231   4.821   1.132   6.132 -0.0426  0.5427  0.2602
  936MOL0     C26232   4.873   1.090   6.256 -0.3539  0.5351  0.2275
  936MOL0     O26233   4.996   1.136   6.314  0.4126 -0.0546  0.0456
  936MOL0     C26234   5.073   1.231   6.240 -0.0682 -0.1494  0.5631
  936MOL0     C26235   5.172   1.299   6.345  0.5768 -0.4443  0.8804
  936MOL0     C26236   5.298   1.225   6.363 -0.2898  0.8083 -0.5841
  936MOL0     C26237   5.386   1.221   6.235 -0.8921 -0.0938  0.7856
  936MOL0     C26238   5.497   1.116   6.235 -0.5783 -0.2230  0.5025
  936MOL0     C26239   5.613   1.159   6.323 -0.6074 -0.4714  0.3092
  936MOL0     C26240   5.751   1.086   6.300 -0.5748 -0.4657 -0.5845
  936MOL0     C26241   5.806   1.005   6.418  0.2965 -0.5761  0.5787
  936MOL0     N26242   5.945   0.961   6.402 -0.0401  0.5075 -0.0937
  936MOL0     C26243   6.063   1.022   6.442 -0.4676  0.2633 -0.4179
  936MOL0     C26244   6.156   0.940   6.388 -0.5552 -0.3155 -0.9618
  936MOL0     C26245   6.299   0.962   6.392 -0.6423 -0.5367 -0.3237
  936MOL0     C26246   6.372   0.841   6.456 -0.2284  0.1158  0.3167
  936MOL0     C26247   6.412   0.863   6.600  0.5232 -0.1252  0.5203
  936MOL0     C26248   6.462   0.743   6.680  0.5793  0.2084  0.9277
  936MOL0     O26249   6.490   0.776   6.818 -0.8015 -0.8714 -0.0769
  936MOL0     C26250   6.597   0.865   6.831  0.3959  0.4753 -0.4217
  936MOL0     C26251   6.572   1.001   6.872  0.2163  0.8275 -0.7536
  936MOL0     C26252   6.683   1.084   6.880  0.1131  0.2556 -0.9498
  936MOL0     C26253   6.817   1.041   6.851 -0.7443 -0.6334  0.3946
  936MOL0     C26254   6.928   1.139   6.849  0.1386 -0.2611  0.6235
  936MOL0     O26255   7.041   1.096   6.807 -0.5318 -0.4562 -0.1606
  936MOL0     C26256   7.148   1.166   6.761 -0.4210  0.0380  0.4452
  936MOL0     C26257   7.155   1.302   6.751 -0.2433 -0.4305 -0.5821
  936MOL0     C26258   7.285   1.352   6.734  0.0587 -0.5853  0.1099
  936MOL0     C26259   7.402   1.277   6.726  0.1517  0.5084 -0.5007
  936MOL0     O26260   7.519   1.348   6.712 -0.6204  0.4283 -0.5933
  936MOL0     C26261   7.638   1.279   6.729  0.1351  0.3223 -0.5975
  936MOL0     C26262   7.748   1.386   6.741  0.7458  1.2463  0.2713
  936MOL0     C26263   7.808   1.399   6.598 -0.0564  0.6009 -0.0722
  936MOL0     C26264   7.961   1.401   6.610 -1.3494  0.1557 -0.8699
  936MOL0     C26265   8.036   1.430   6.482  0.3624 -0.1143  0.2435
  936MOL0     C26266   8.168   1.498   6.501  0.1740  0.1466 -0.1315
  936MOL0     C26267   8.248   1.505   6.368  0.1874 -0.1202 -0.3200
  936MOL0     C26268   8.360   1.600   6.366  0.0176 -0.3589  0.6823
  936MOL0    Cl26269   8.466   1.548   6.230  0.5717 -0.0773 -0.0900
  936MOL0     C26270   7.390   1.137   6.731  0.3004  1.1477  0.1794
  936MOL0     C26271   7.264   1.087   6.754  0.9088  0.9267 -0.6039
  936MOL0     O26272   6.903   1.251   6.892  0.3777 -0.6206 -0.0519
  936MOL0     C26273   6.832   0.904   6.815 -0.5404  0.5905  0.9380
  936MOL0     C26274   6.723   0.820   6.808 -0.7850 -0.1792  0.6295
  936MOL0     N26275   6.097   0.834   6.326 -0.9328 -0.3777  0.0719
  936MOL0     N26276   5.974   0.852   6.327  0.1408 -0.2758 -0.4423
  936MOL0     C26277   4.808   0.995   6.327  0.1697 -0.0806  0.1156
  936MOL0     C26278   4.682   0.948   6.280 -0.4297  1.1027 -0.6362
  936MOL0     C26279   4.304   0.816   6.169  0.4990  0.4689  0.0368
  936MOL0     C26280   4.237   0.937   6.167 -0.0821 -0.0355 -0.4711
  936MOL0     C26281   4.099   0.952   6.177 -0.1355 -0.1440 -0.2032
  936MOL0     C26282   4.024   0.829   6.184 -0.5105 -0.6286  0.6943
  936MOL0     O26283   3.888   0.831   6.198 -0.2154 -0.3139 -0.0377
  936MOL0     C26284   3.823   0.960   6.179 -0.1867 -0.1003 -0.1854
  936MOL0     C26285   3.675   0.944   6.178  1.2548 -0.5027  1.3614
  936MOL0     C26286   3.637   0.871   6.046  0.4452  0.7935  0.1500
  936MOL0     C26287   3.485   0.875   6.012 -0.3633  0.3055 -0.2689
  936MOL0     C26288   3.409   0.794   6.109 -0.9483 -0.1868 -0.5892
  936MOL0     C26289   3.353   0.713   6.178 -0.3899  0.4159  0.1047
  936MOL0     C26290   4.093   0.708   6.171 -0.4270  0.1483 -0.1577
  936MOL0     C26291   4.229   0.692   6.173  0.1364 -0.4995  0.5456
  936MOL0     C26292   4.278   0.551   6.193  0.7673 -1.2234 -0.3865
  936MOL0     H26293   4.664   1.118   5.992 -2.6439 -0.6963 -0.0125
  936MOL0     H26294   4.882   1.191   6.064  1.9282 -1.5208  0.0956
  936MOL0     H26295   5.135   1.200   6.156  2.3421  3.4464  0.7721
  936MOL0     H26296   5.009   1.311   6.201  1.2311  0.8784  0.4673
  936MOL0     H26297   5.126   1.319   6.443  2.8655 -0.2848  1.9953
  936MOL0     H26298   5.193   1.397   6.301 -2.0026 -1.7337 -3.8999
  936MOL0     H26299   5.266   1.127   6.400 -1.0584  1.9622  1.9991
  936MOL0     H26300   5.353   1.273   6.444 -1.7558  1.0987  0.2762
  936MOL0     H26301   5.336   1.199   6.140 -0.5921  0.8983  0.3773
  936MOL0     H26302   5.428   1.321   6.216 -0.8148 -0.5062 -1.5114
  936MOL0     H26303   5.468   1.012   6.254  1.2150 -0.8937 -0.1762
  936MOL0     H26304   5.538   1.111   6.133 -1.3035 -1.3549  0.2517
  936MOL0     H26305   5.624   1.266   6.301 -0.6433 -0.7862 -1.3928
  936MOL0     H26306   5.585   1.144   6.427 -3.7542  1.4553 -0.1162
  936MOL0     H26307   5.820   1.165   6.269  1.9393 -0.7271  3.5379
  936MOL0     H26308   5.740   1.021   6.213 -1.0148 -1.3618  0.1283
  936MOL0     H26309   5.785   1.070   6.504 -1.6749 -0.1354 -0.1849
  936MOL0     H26310   5.737   0.921   6.427 -0.8525  0.0827 -1.5261
  936MOL0     H26311   6.085   1.105   6.507  1.4328 -0.8205  0.3983
  936MOL0     H26312   6.332   0.972   6.288 -2.0043  1.1673 -0.6434
  936MOL0     H26313   6.324   1.056   6.443  1.1879 -0.3290 -1.4958
  936MOL0     H26314   6.316   0.748   6.439 -0.4699  0.5950 -1.8591
  936MOL0     H26315   6.462   0.830   6.394 -0.7182 -1.6457 -0.1325
  936MOL0     H26316   6.327   0.894   6.661  0.3360 -0.5929  0.5056
  936MOL0     H26317   6.494   0.935   6.601 -0.9406  1.6570  3.4557
  936MOL0     H26318   6.546   0.695   6.631 -0.6976 -0.9791 -0.1702
  936MOL0     H26319   6.386   0.665   6.688  1.0061 -0.1596  1.4219
  936MOL0     H26320   6.469   1.031   6.885  0.1866  0.5875 -0.4225
  936MOL0     H26321   6.662   1.187   6.910  1.3461  0.8460 -1.9959
  936MOL0     H26322   7.075   1.374   6.759 -1.0962 -1.3843 -0.3509
  936MOL0     H26323   7.300   1.459   6.727  0.7710 -0.2139  4.5021
  936MOL0     H26324   7.635   1.234   6.828 -0.9091 -1.9259 -1.5937
  936MOL0     H26325   7.656   1.208   6.648  0.2828  1.2987 -1.4490
  936MOL0     H26326   7.723   1.484   6.783 -1.7278  1.2085 -0.9510
  936MOL0     H26327   7.822   1.337   6.805 -0.1408 -1.7463 -0.8316
  936MOL0     H26328   7.774   1.312   6.540 -1.6547 -0.2705  2.0052
  936MOL0     H26329   7.762   1.488   6.554 -4.9636 -1.2667  0.5610
  936MOL0     H26330   8.001   1.310   6.656 -0.9834 -0.5959 -2.5824
  936MOL0     H26331   7.975   1.485   6.679 -1.3621 -0.1019 -0.5543
  936MOL0     H26332   7.970   1.489   6.419  1.8185  1.2209 -0.1007
  936MOL0     H26333   8.054   1.330   6.440 -1.8545 -0.0219 -1.0750
  936MOL0     H26334   8.144   1.593   6.550 -2.1015 -1.5623  2.2976
  936MOL0     H26335   8.230   1.443   6.572  0.0778  2.9778  2.3664
  936MOL0     H26336   8.181   1.541   6.289  0.9623  3.0892  0.3525
  936MOL0     H26337   8.295   1.407   6.352 -2.3054 -1.5378  0.5293
  936MOL0     H26338   8.312   1.699   6.362 -1.2014 -0.9757 -1.1897
  936MOL0     H26339   8.413   1.604   6.462  0.6017  0.8063  0.3354
  936MOL0     H26340   7.479   1.084   6.699 -0.4033  2.1467 -4.2049
  936MOL0     H26341   7.257   0.979   6.767 -1.2396  1.0980  0.0793
  936MOL0     H26342   6.930   0.860   6.794 -2.1670 -1.2889 -4.2317
  936MOL0     H26343   6.735   0.713   6.793 -1.1276 -0.3471  1.4537
  936MOL0     H26344   4.846   0.968   6.425 -0.5424 -0.3283  0.3286
  936MOL0     H26345   4.641   0.879   6.353  1.0839 -0.8781 -1.5759
  936MOL0     H26346   4.291   1.031   6.176 -1.0872  0.5373 -0.2631
  936MOL0     H26347   4.054   1.051   6.177 -1.4095 -0.6943 -0.7254
  936MOL0     H26348   3.855   1.015   6.090 -2.5514 -0.0507 -1.0916
  936MOL0     H26349   3.835   1.026   6.265  0.1384  1.3119 -1.2756
  936MOL0     H26350   3.638   1.046   6.179  4.3173  0.7040  1.6808
  936MOL0     H26351   3.638   0.896   6.269 -4.7116  0.2787 -0.2280
  936MOL0     H26352   3.672   0.767   6.050  1.7569  1.2589  1.7029
  936MOL0     H26353   3.694   0.925   5.969  1.8467  1.5267  1.6515
  936MOL0     H26354   3.439   0.973   5.997 -2.8356 -0.2274  2.9567
  936MOL0     H26355   3.452   0.831   5.918 -1.0540 -0.4607  0.3249
  936MOL0     H26356   3.305   0.642   6.243  2.3629 -0.3467  1.4790
  936MOL0     H26357   4.035   0.617   6.183  1.2904 -1.2047 -1.6640
  936MOL0     H26358   4.346   0.523   6.112 -0.7133 -1.3472 -1.6494
  936MOL0     H26359   4.331   0.551   6.289 -0.1869  2.2644  0.2812
  936MOL0     H26360   4.204   0.471   6.198 -1.2068  0.5177 -0.2653
  937MOL0     O26361   9.248   7.756   5.932  0.2495  0.2741  1.1540
  937MOL0     C26362   9.133   7.720   5.905 -0.0160  0.5481 -0.3335
  937MOL0     O26363   9.021   7.795   5.929 -0.0720  0.0421  0.3224
  937MOL0     C26364   9.034   7.920   5.961  0.1236 -0.1609 -0.3496
  937MOL0     C26365   8.962   7.968   6.073 -0.2769  1.1055 -0.1355
  937MOL0     C26366   8.961   8.100   6.110 -0.5104 -0.1555 -0.9701
  937MOL0     C26367   9.046   8.189   6.036  0.4896 -0.3900 -1.3382
  937MOL0     O26368   9.051   8.326   6.061 -0.1251  0.3551  0.0346
  937MOL0     C26369   9.064   8.361   6.197 -0.0593 -0.0288 -0.0682
  937MOL0     C26370   9.049   8.508   6.226 -0.0391 -0.4200 -0.1146
  937MOL0     C26371   9.128   8.590   6.119  0.3155  0.6722 -0.2638
  937MOL0     C26372   9.178   8.722   6.184  0.2364 -0.4063 -0.4804
  937MOL0     C26373   9.260   8.792   6.082 -0.6083 -0.7847  0.3365
  937MOL0     C26374   9.368   8.885   6.152 -0.5614  0.3752 -0.4394
  937MOL0     C26375   9.478   8.943   6.059  0.0227 -0.0786  0.1398
  937MOL0     C26376   9.598   8.842   6.052 -0.4707  0.2229  0.7384
  937MOL0     N26377   9.700   8.887   5.952  1.2930  0.0680 -0.1261
  937MOL0     C26378   9.751   9.012   5.929  0.0149 -0.4319 -1.0721
  937MOL0     C26379   9.847   8.990   5.838 -0.6250 -0.8410 -0.9412
  937MOL0     C26380   9.938   9.106   5.803 -0.0552  0.6388 -0.4668
  937MOL0     C26381  10.076   9.067   5.743 -0.3753 -0.1971 -0.4319
  937MOL0     C26382  10.128   9.185   5.673  0.4179 -0.5709  1.0485
  937MOL0     C26383  10.270   9.155   5.645 -0.7371  0.4958  0.3700
  937MOL0     O26384  10.328   9.262   5.566 -0.8990 -0.9365  0.4223
  937MOL0     C26385  10.466   9.271   5.574  0.3907 -0.1286  0.1382
  937MOL0     C26386  10.520   9.403   5.557 -0.6371  0.2015 -0.5169
  937MOL0     C26387  10.655   9.430   5.590  0.1321  0.2751  0.2186
  937MOL0     C26388  10.739   9.319   5.624 -1.3153  0.6090 -0.5749
  937MOL0     C26389  10.889   9.346   5.635  0.4611 -0.3022  0.3710
  937MOL0     O26390  10.957   9.242   5.689  0.2393  0.2644 -0.6069
  937MOL0     C26391  11.091   9.249   5.699 -0.2767  0.2439 -0.5920
  937MOL0     C26392  11.151   9.269   5.820 -0.3537  0.0038  0.3961
  937MOL0     C26393  11.292   9.272   5.824 -0.6421 -0.1825 -0.3413
  937MOL0     C26394  11.369   9.265   5.705  0.1818 -0.4972 -0.7564
  937MOL0     O26395  11.507   9.294   5.700  0.4173  0.2911 -0.3831
  937MOL0     C26396  11.592   9.343   5.808  0.7187  1.0374  0.5298
  937MOL0     C26397  11.694   9.439   5.753  0.1601  0.5622 -0.0147
  937MOL0     C26398  11.827   9.421   5.822  0.6267  0.0066  0.3354
  937MOL0     C26399  11.942   9.509   5.755  0.0822  0.2448  0.0040
  937MOL0     C26400  12.071   9.514   5.827  0.4940  0.6749  0.1065
  937MOL0     C26401  12.180   9.589   5.743  0.2120  0.0985 -0.4577
  937MOL0     C26402  12.319   9.579   5.814 -0.4870  1.0710  0.4337
  937MOL0     C26403  12.433   9.589   5.722  0.5613  0.5466 -0.7147
  937MOL0    Cl26404  12.576   9.521   5.802 -0.3093 -0.5163  0.2944
  937MOL0     C26405  11.310   9.252   5.583 -0.3637  0.4469 -0.0646
  937MOL0     C26406  11.167   9.246   5.582  0.2205  0.0570 -0.4617
  937MOL0     O26407  10.940   9.440   5.578  0.3725  0.0530  0.3149
  937MOL0     C26408  10.687   9.194   5.645  0.8738 -0.1488 -0.0633
  937MOL0     C26409  10.553   9.170   5.618  0.1309 -0.0023 -0.2819
  937MOL0     N26410   9.853   8.854   5.802  1.2483  0.0555  0.1269
  937MOL0     N26411   9.756   8.793   5.868  0.1493 -0.3762  0.3274
  937MOL0     C26412   9.118   8.145   5.928 -0.0290  0.6441  0.1362
  937MOL0     C26413   9.102   8.014   5.885 -0.1466 -0.3748 -0.6088
  937MOL0     C26414   9.106   7.586   5.849 -0.3462 -0.6390  0.1194
  937MOL0     C26415   8.984   7.581   5.779 -0.2403  0.8816  0.0148
  937MOL0     C26416   8.940   7.465   5.718 -0.4882  0.2673 -0.0693
  937MOL0     C26417   9.019   7.352   5.715 -0.6235  0.4584  0.0116
  937MOL0     O26418   8.988   7.229   5.663 -0.0130 -0.9845 -0.4456
  937MOL0     C26419   8.864   7.209   5.591 -0.5019  0.1892  0.8006
  937MOL0     C26420   8.856   7.267   5.455 -0.8446  0.0133 -0.0669
  937MOL0     C26421   8.972   7.220   5.368 -0.1249 -0.0259 -0.4855
  937MOL0     C26422   8.981   7.289   5.231  0.1281  1.1671 -0.1362
  937MOL0     C26423   9.050   7.209   5.128 -0.5884  1.1678 -0.6771
  937MOL0     C26424   9.105   7.152   5.036  0.6623  0.6229 -0.2080
  937MOL0     C26425   9.148   7.357   5.774  0.7294 -0.5106  0.0041
  937MOL0     C26426   9.196   7.474   5.838  0.7634  0.0683  0.2620
  937MOL0     C26427   9.324   7.463   5.908 -0.4310  0.0787  0.4765
  937MOL0     H26428   8.902   7.901   6.135  0.5285  2.2156  1.9394
  937MOL0     H26429   8.881   8.127   6.178 -0.2694 -1.8161  0.0362
  937MOL0     H26430   8.984   8.312   6.254  0.0674 -1.1689 -0.8427
  937MOL0     H26431   9.162   8.336   6.239 -0.6795  1.1496  2.2603
  937MOL0     H26432   9.089   8.525   6.327 -1.4188  0.0595  0.3844
  937MOL0     H26433   8.946   8.543   6.211  0.8506  1.6648 -1.8585
  937MOL0     H26434   9.057   8.614   6.038  0.5118 -3.0299 -1.7556
  937MOL0     H26435   9.212   8.530   6.082  1.5422  1.3977  1.2613
  937MOL0     H26436   9.095   8.785   6.217  2.1861  1.9502  0.2973
  937MOL0     H26437   9.243   8.693   6.267  1.1597  0.0198 -1.0286
  937MOL0     H26438   9.313   8.733   6.008 -2.3148 -0.2061 -1.4404
  937MOL0     H26439   9.188   8.854   6.028  0.9086  0.3547 -0.4538
  937MOL0     H26440   9.317   8.968   6.201 -1.2910 -0.9508  1.1667
  937MOL0     H26441   9.419   8.824   6.228 -2.3277 -0.7408 -0.0870
  937MOL0     H26442   9.517   9.042   6.083  2.6193 -1.2444  1.0543
  937MOL0     H26443   9.427   8.959   5.963  1.4229  1.2456 -0.4220
  937MOL0     H26444   9.652   8.832   6.146  0.3222  0.7265  0.3482
  937MOL0     H26445   9.545   8.751   6.022 -4.5023  2.2376  1.0950
  937MOL0     H26446   9.738   9.103   5.987 -1.5383 -1.8724  0.9551
  937MOL0     H26447   9.879   9.175   5.742  0.3329 -0.8023 -2.6163
  937MOL0     H26448   9.966   9.158   5.895  0.6871  0.7515 -0.7454
  937MOL0     H26449  10.145   9.037   5.823 -1.6193 -0.0052  0.7525
  937MOL0     H26450  10.061   8.983   5.674  0.1920 -0.7329  0.0824
  937MOL0     H26451  10.123   9.270   5.742 -1.7609  0.3058 -0.1048
  937MOL0     H26452  10.070   9.213   5.584  1.0589  1.4432  1.2071
  937MOL0     H26453  10.264   9.057   5.597 -0.4375  0.2086  0.9092
  937MOL0     H26454  10.334   9.139   5.732 -2.0319  0.7099  1.4023
  937MOL0     H26455  10.463   9.492   5.534 -0.8158 -0.4549 -2.8940
  937MOL0     H26456  10.692   9.531   5.602  0.8758 -0.1882  2.2233
  937MOL0     H26457  11.087   9.283   5.907  0.0066  4.8989  0.1823
  937MOL0     H26458  11.351   9.295   5.912  0.8528  0.2422 -1.4096
  937MOL0     H26459  11.532   9.391   5.887  0.4833  4.4488 -1.4976
  937MOL0     H26460  11.645   9.257   5.850 -1.5448 -0.8929 -0.3486
  937MOL0     H26461  11.709   9.398   5.652  0.5666 -1.3530  0.7884
  937MOL0     H26462  11.664   9.543   5.739 -1.6299  0.1733  0.6646
  937MOL0     H26463  11.806   9.443   5.927 -0.2219  2.3101 -0.2392
  937MOL0     H26464  11.858   9.316   5.818 -1.4760 -0.6342 -0.2431
  937MOL0     H26465  11.914   9.614   5.758  0.9388  0.4728  1.1678
  937MOL0     H26466  11.956   9.484   5.650  1.2978 -0.0052  0.2027
  937MOL0     H26467  12.109   9.421   5.871 -1.8036 -0.1773  0.4365
  937MOL0     H26468  12.044   9.582   5.909 -1.4461  0.6566 -0.4610
  937MOL0     H26469  12.198   9.534   5.650 -1.9285 -2.1035  0.3195
  937MOL0     H26470  12.141   9.688   5.718  1.6652  0.8851  0.3253
  937MOL0     H26471  12.331   9.480   5.859 -2.9018  0.4933 -0.0722
  937MOL0     H26472  12.322   9.655   5.893  1.2475  1.0190  0.4547
  937MOL0     H26473  12.423   9.533   5.628  2.8362 -0.7990 -0.2122
  937MOL0     H26474  12.452   9.694   5.698  2.9894  0.6484  1.2582
  937MOL0     H26475  11.375   9.237   5.498  0.5055 -4.2341  1.1698
  937MOL0     H26476  11.113   9.252   5.488 -0.2754 -0.1888 -0.1982
  937MOL0     H26477  10.749   9.107   5.664 -0.2900 -1.2722 -1.1607
  937MOL0     H26478  10.521   9.067   5.629  3.1546 -0.9903  0.1354
  937MOL0     H26479   9.172   8.212   5.862 -1.5557  0.8364 -0.9682
  937MOL0     H26480   9.158   7.977   5.800 -0.5387  0.5279 -1.2671
  937MOL0     H26481   8.910   7.660   5.783  0.7273  1.7539  3.1895
  937MOL0     H26482   8.845   7.464   5.667 -1.2738  1.9158  1.2669
  937MOL0     H26483   8.771   7.237   5.642 -0.4123  1.3233  0.3767
  937MOL0     H26484   8.857   7.101   5.574 -2.5714  0.4417 -0.4066
  937MOL0     H26485   8.850   7.376   5.466 -1.1414 -0.0145  0.0634
  937MOL0     H26486   8.761   7.234   5.411 -1.6870  0.9113  0.9986
  937MOL0     H26487   8.964   7.114   5.340  2.4414 -1.0047  1.9639
  937MOL0     H26488   9.068   7.222   5.420 -0.6953  0.4068  0.5949
  937MOL0     H26489   8.880   7.297   5.190 -0.4229 -2.5602  0.1287
  937MOL0     H26490   9.030   7.386   5.242  0.8106  0.8832 -0.5642
  937MOL0     H26491   9.157   7.117   4.950  1.9457 -2.7085  1.7382
  937MOL0     H26492   9.203   7.264   5.766  0.0064 -1.1691  2.1236
  937MOL0     H26493   9.377   7.370   5.885 -0.6908 -0.5213  2.1507
  937MOL0     H26494   9.382   7.555   5.914 -1.9386  1.2584 -1.6038
  937MOL0     H26495   9.312   7.449   6.016  0.4869 -1.1881  0.4322
  938MOL0     O26496  10.685   8.917   3.704  0.6259 -0.1831 -0.1641
  938MOL0     C26497  10.678   9.035   3.669 -0.7953  0.2397 -0.5163
  938MOL0     O26498  10.581   9.083   3.578 -0.3792 -0.4521  0.5317
  938MOL0     C26499  10.515   9.003   3.487 -0.3188  0.4855  0.3940
  938MOL0     C26500  10.436   8.896   3.536  0.6724 -0.3646  0.2347
  938MOL0     C26501  10.373   8.808   3.449  0.7521 -0.9178  1.5037
  938MOL0     C26502  10.405   8.810   3.312 -0.2432  0.6144 -0.6551
  938MOL0     O26503  10.351   8.703   3.238  0.1745 -0.8244  0.1713
  938MOL0     C26504  10.426   8.666   3.118  0.3035 -0.2566  0.0365
  938MOL0     C26505  10.382   8.525   3.082 -0.4495 -0.1544  0.2631
  938MOL0     C26506  10.463   8.459   2.958 -0.2096 -0.7359 -0.0805
  938MOL0     C26507  10.388   8.333   2.916  0.4135 -0.2321  0.0958
  938MOL0     C26508  10.457   8.273   2.792  0.8218 -0.7531  0.1063
  938MOL0     C26509  10.573   8.195   2.839  0.7239  0.3090  0.2785
  938MOL0     C26510  10.667   8.159   2.728  0.4569 -0.0731 -0.4072
  938MOL0     C26511  10.781   8.079   2.775 -0.4038  0.6295 -0.0519
  938MOL0     N26512  10.885   8.159   2.845 -0.3040 -0.5848 -0.5127
  938MOL0     C26513  10.902   8.184   2.982  0.3611  0.0758  0.8583
  938MOL0     C26514  10.985   8.288   3.004 -0.3223 -0.4206  0.8101
  938MOL0     C26515  11.036   8.335   3.131  0.3772  0.1757  0.5007
  938MOL0     C26516  11.159   8.245   3.190 -0.1341 -0.2500 -0.2114
  938MOL0     C26517  11.130   8.096   3.231 -0.0820 -0.1247 -0.2725
  938MOL0     C26518  11.254   8.034   3.313  0.4682 -0.4248  0.0343
  938MOL0     O26519  11.287   7.902   3.271  0.0626 -0.0438 -0.4065
  938MOL0     C26520  11.417   7.865   3.240 -0.5306 -1.2378  0.1317
  938MOL0     C26521  11.525   7.919   3.306  0.5964  0.3406 -1.1241
  938MOL0     C26522  11.655   7.895   3.260 -0.0928 -0.3936  0.3230
  938MOL0     C26523  11.678   7.812   3.151 -0.9939  0.2418  0.5332
  938MOL0     C26524  11.816   7.782   3.105  0.2144 -1.5932  0.5523
  938MOL0     O26525  11.822   7.690   3.012  0.1129  0.7051  0.5048
  938MOL0     C26526  11.949   7.660   2.952  0.8266  0.5222 -0.0351
  938MOL0     C26527  11.955   7.683   2.816  0.8196 -0.1088  0.3062
  938MOL0     C26528  12.070   7.659   2.747 -0.2468 -0.6787  0.3225
  938MOL0     C26529  12.192   7.641   2.818 -0.3944  1.1250  0.3308
  938MOL0     O26530  12.322   7.639   2.757  0.4542  0.0593 -0.3114
  938MOL0     C26531  12.336   7.724   2.645  0.6056  0.0177  0.0472
  938MOL0     C26532  12.481   7.724   2.604  1.1191  0.0466  0.4205
  938MOL0     C26533  12.512   7.809   2.483  0.2080 -0.3065 -0.4886
  938MOL0     C26534  12.661   7.829   2.466 -0.5159 -0.2356  0.4758
  938MOL0     C26535  12.694   7.856   2.312 -0.2708  0.2642  0.1166
  938MOL0     C26536  12.824   7.802   2.261  0.0494  0.4138 -0.0382
  938MOL0     C26537  12.947   7.865   2.325 -0.2880 -0.4194 -0.2103
  938MOL0     C26538  13.079   7.812   2.262  0.8406 -0.1079 -0.5421
  938MOL0    Cl26539  13.089   7.885   2.098  0.1188 -0.0570  0.1754
  938MOL0     C26540  12.189   7.625   2.956  0.0380 -0.1719 -0.1360
  938MOL0     C26541  12.066   7.622   3.022  0.1929 -0.4227 -0.1715
  938MOL0     O26542  11.908   7.843   3.148 -0.5750 -0.3351  0.1924
  938MOL0     C26543  11.565   7.761   3.075 -0.4821 -0.2618  0.6680
  938MOL0     C26544  11.439   7.794   3.121  0.5245  0.3049  0.1373
  938MOL0     N26545  11.026   8.333   2.877 -0.4664  0.3747 -0.7755
  938MOL0     N26546  10.973   8.253   2.793 -0.4849 -1.0999 -0.1831
  938MOL0     C26547  10.488   8.913   3.265 -0.3855  0.2888  0.8497
  938MOL0     C26548  10.540   9.008   3.351  0.5460 -0.5635 -0.0240
  938MOL0     C26549  10.768   9.124   3.748  0.5319  0.8000  0.0125
  938MOL0     C26550  10.895   9.074   3.780 -0.0801  0.2420  0.2307
  938MOL0     C26551  10.986   9.153   3.857  0.4774  1.0268 -0.1460
  938MOL0     C26552  10.954   9.282   3.903  0.3936  0.2061  0.4933
  938MOL0     O26553  11.049   9.349   3.976  0.3377 -0.0053 -0.3192
  938MOL0     C26554  11.041   9.486   4.009  0.0049  0.2753 -0.2594
  938MOL0     C26555  11.009   9.497   4.153  0.0789 -0.1914 -0.0868
  938MOL0     C26556  11.123   9.456   4.249 -0.0277  0.5281  0.1953
  938MOL0     C26557  11.266   9.469   4.199  0.0666  0.3874 -0.1999
  938MOL0     C26558  11.360   9.442   4.304 -0.4852  0.2780  0.0022
  938MOL0     C26559  11.438   9.409   4.393 -1.1210 -0.1148  0.1923
  938MOL0     C26560  10.823   9.327   3.875  0.3747  0.2852  0.1870
  938MOL0     C26561  10.730   9.255   3.788  0.0462 -0.2248  0.2246
  938MOL0     C26562  10.601   9.313   3.747  0.2604  0.9504 -0.3032
  938MOL0     H26563  10.406   8.908   3.639 -0.0588  2.4584 -0.2276
  938MOL0     H26564  10.303   8.738   3.494 -0.1802 -2.0115 -1.4336
  938MOL0     H26565  10.405   8.728   3.030 -1.1469 -0.0619  0.4955
  938MOL0     H26566  10.533   8.663   3.141  0.4078  4.0554  0.9078
  938MOL0     H26567  10.279   8.526   3.046  0.5665 -1.2579 -3.0733
  938MOL0     H26568  10.376   8.468   3.175 -2.2495 -0.2538  0.1220
  938MOL0     H26569  10.563   8.439   2.997  0.1452 -2.3239 -1.6728
  938MOL0     H26570  10.477   8.532   2.878 -1.1487 -2.5274 -1.9864
  938MOL0     H26571  10.382   8.272   3.007 -2.1844  0.4489  0.4570
  938MOL0     H26572  10.284   8.363   2.902 -0.1336 -1.0998  1.9323
  938MOL0     H26573  10.386   8.209   2.737  0.8836 -1.3376  0.6989
  938MOL0     H26574  10.477   8.355   2.721  0.0221  0.3060  1.0658
  938MOL0     H26575  10.626   8.250   2.917  0.1252  0.1211  0.8159
  938MOL0     H26576  10.522   8.109   2.883  2.1992  0.2787  2.0526
  938MOL0     H26577  10.704   8.251   2.681  1.2043  0.2756  0.7949
  938MOL0     H26578  10.610   8.099   2.656  0.3838 -2.6275  1.6459
  938MOL0     H26579  10.739   7.995   2.832 -3.4083  1.7915 -0.3805
  938MOL0     H26580  10.832   8.045   2.684 -2.5491 -1.2825 -0.6605
  938MOL0     H26581  10.846   8.130   3.058  0.6712  0.2549  1.2152
  938MOL0     H26582  11.067   8.440   3.137 -2.2626  0.9483  2.4540
  938MOL0     H26583  10.948   8.331   3.196 -0.8096  3.1549 -0.7562
  938MOL0     H26584  11.240   8.245   3.116  0.7588 -3.0613  0.6669
  938MOL0     H26585  11.198   8.294   3.280  1.2551 -1.4888 -0.1027
  938MOL0     H26586  11.104   8.042   3.139 -1.4479  0.5147 -0.2883
  938MOL0     H26587  11.042   8.099   3.296  3.0407  0.0035  4.3984
  938MOL0     H26588  11.225   8.019   3.417 -0.6976  1.5924  0.0527
  938MOL0     H26589  11.345   8.094   3.327  2.3483 -3.3790  1.5690
  938MOL0     H26590  11.504   7.963   3.404 -1.0800 -1.8875 -0.4010
  938MOL0     H26591  11.740   7.926   3.320  0.2227  1.2196 -0.8875
  938MOL0     H26592  11.863   7.715   2.769 -1.0667 -1.3751  2.8288
  938MOL0     H26593  12.072   7.682   2.640 -1.0044  0.7700  0.5938
  938MOL0     H26594  12.273   7.701   2.559  1.5675  0.7535 -0.8876
  938MOL0     H26595  12.323   7.826   2.681  3.3890 -0.9707  4.6340
  938MOL0     H26596  12.539   7.762   2.689  2.0402 -0.8767  0.2311
  938MOL0     H26597  12.516   7.621   2.600 -0.6763 -0.6212  1.0858
  938MOL0     H26598  12.460   7.757   2.402 -0.1696 -2.4018  1.0299
  938MOL0     H26599  12.464   7.907   2.497  0.6334  0.1926 -2.2884
  938MOL0     H26600  12.710   7.732   2.480  0.7121 -0.1057 -2.2099
  938MOL0     H26601  12.692   7.912   2.530  3.4974  1.4177 -3.1018
  938MOL0     H26602  12.694   7.964   2.296 -0.1062  0.3930  0.9176
  938MOL0     H26603  12.610   7.807   2.262 -1.6145  1.2518  1.3324
  938MOL0     H26604  12.825   7.695   2.285  0.0580  0.1455 -1.1822
  938MOL0     H26605  12.838   7.816   2.153  1.0461 -0.0265  0.0188
  938MOL0     H26606  12.948   7.835   2.431 -0.1454 -1.5409 -0.5146
  938MOL0     H26607  12.940   7.974   2.321 -0.6236 -0.4795 -2.5451
  938MOL0     H26608  13.168   7.833   2.323  0.3075 -1.1023  0.6196
  938MOL0     H26609  13.072   7.703   2.250 -0.2459 -0.1720  0.5258
  938MOL0     H26610  12.281   7.620   3.014 -0.4243 -1.8683  0.4834
  938MOL0     H26611  12.050   7.614   3.129 -0.4955 -1.7366 -0.3596
  938MOL0     H26612  11.586   7.694   2.993  2.3386  3.3297 -1.8553
  938MOL0     H26613  11.346   7.767   3.072 -0.9252  1.4454  2.0953
  938MOL0     H26614  10.518   8.920   3.161 -3.9938  0.9842 -0.2593
  938MOL0     H26615  10.602   9.086   3.309  1.0441 -1.2833 -0.6536
  938MOL0     H26616  10.918   8.972   3.750 -0.2167  0.8377 -2.1580
  938MOL0     H26617  11.080   9.105   3.882  1.4938  2.7975 -0.4131
  938MOL0     H26618  10.962   9.541   3.956  0.7406  1.5030 -0.1220
  938MOL0     H26619  11.134   9.541   3.989 -1.4275  2.9099 -0.1379
  938MOL0     H26620  10.915   9.444   4.174  0.2907  0.3347  2.6202
  938MOL0     H26621  10.988   9.602   4.176 -0.9193 -0.3749 -0.0953
  938MOL0     H26622  11.097   9.351   4.268  2.0901 -0.5027 -2.0835
  938MOL0     H26623  11.117   9.502   4.348  0.5354 -0.6492  0.7938
  938MOL0     H26624  11.275   9.396   4.118 -1.1545  0.6606 -0.6055
  938MOL0     H26625  11.283   9.572   4.166 -2.8796  1.1598  0.4415
  938MOL0     H26626  11.495   9.398   4.484  0.8320 -0.6136 -1.0378
  938MOL0     H26627  10.797   9.419   3.927  0.9712  1.3154 -1.2624
  938MOL0     H26628  10.519   9.243   3.767 -0.2325  2.2750  2.9534
  938MOL0     H26629  10.582   9.410   3.793  0.5507  0.4963  0.7920
  938MOL0     H26630  10.609   9.330   3.639 -1.4254 -2.1075 -1.0429
  939MOL0     O26631   0.734   5.057   7.090 -0.2623 -0.6106  0.1138
  939MOL0     C26632   0.648   4.999   7.155 -0.2424  0.0028 -0.8217
  939MOL0     O26633   0.668   4.896   7.250  0.1071  0.1468 -0.7114
  939MOL0     C26634   0.788   4.838   7.263 -0.4116  0.7161 -0.3055
  939MOL0     C26635   0.794   4.704   7.229  0.8113 -0.0140 -0.4823
  939MOL0     C26636   0.913   4.631   7.221 -1.0956 -0.2779  0.2646
  939MOL0     C26637   1.036   4.696   7.255  0.4823  0.5007  1.2530
  939MOL0     O26638   1.163   4.638   7.250  0.0917 -0.0293 -0.4705
  939MOL0     C26639   1.183   4.508   7.195  0.4340 -0.1805  0.0183
  939MOL0     C26640   1.215   4.542   7.055 -1.2405 -0.4715  0.7574
  939MOL0     C26641   1.217   4.413   6.974 -0.1027  0.0320  0.5660
  939MOL0     C26642   1.318   4.309   7.031 -0.4419  0.1148  0.9883
  939MOL0     C26643   1.335   4.201   6.934 -0.5820 -0.0935  0.2495
  939MOL0     C26644   1.393   4.082   6.995  0.3006  0.1314  0.3839
  939MOL0     C26645   1.418   3.972   6.895  0.1944  0.3445 -0.1156
  939MOL0     C26646   1.283   3.911   6.862  0.5214 -0.2347  0.2829
  939MOL0     N26647   1.303   3.798   6.770 -0.3892  0.2071  0.0037
  939MOL0     C26648   1.342   3.823   6.643  0.0235  0.0516  0.2399
  939MOL0     C26649   1.365   3.695   6.594 -0.7373  0.3101  0.6502
  939MOL0     C26650   1.418   3.654   6.465 -0.7977  0.1589  0.4626
  939MOL0     C26651   1.535   3.751   6.429 -0.2705 -0.4568  0.4413
  939MOL0     C26652   1.591   3.743   6.287 -0.5343  0.0128 -0.2637
  939MOL0     C26653   1.646   3.603   6.241 -0.1186 -0.0089 -0.0750
  939MOL0     O26654   1.743   3.635   6.143  0.1911 -0.5963 -0.0456
  939MOL0     C26655   1.874   3.674   6.185 -0.5220 -0.5511  0.2642
  939MOL0     C26656   1.925   3.635   6.307 -0.0917  0.8465 -0.3935
  939MOL0     C26657   2.061   3.651   6.342  1.4219  0.3371  0.3461
  939MOL0     C26658   2.148   3.711   6.249 -0.9639  0.2688  1.0028
  939MOL0     C26659   2.297   3.729   6.284 -0.0328 -0.2335  0.2772
  939MOL0     O26660   2.385   3.766   6.178  1.1798  0.2407 -0.6026
  939MOL0     C26661   2.523   3.755   6.187  0.2289  0.2266  0.5510
  939MOL0     C26662   2.594   3.734   6.064  0.0867 -0.1280 -0.1298
  939MOL0     C26663   2.733   3.733   6.071 -0.2357  0.1867  0.0006
  939MOL0     C26664   2.809   3.770   6.177  0.4860 -0.5834 -1.0377
  939MOL0     O26665   2.945   3.769   6.155  0.0487 -0.2455  0.2853
  939MOL0     C26666   3.015   3.881   6.217 -0.3095 -0.6329  0.9105
  939MOL0     C26667   3.146   3.916   6.143  0.0463  1.0004 -0.1346
  939MOL0     C26668   3.241   3.794   6.140  0.2715  0.3423  1.3314
  939MOL0     C26669   3.364   3.815   6.054 -0.1645  0.1768  0.0406
  939MOL0     C26670   3.461   3.690   6.046 -0.4151 -0.2805  0.2630
  939MOL0     C26671   3.603   3.749   6.029  1.0285 -0.2933 -0.1391
  939MOL0     C26672   3.695   3.635   5.984 -0.5861  0.1576 -0.6541
  939MOL0     C26673   3.840   3.671   5.986  0.0245 -0.1373 -0.4641
  939MOL0    Cl26674   3.867   3.795   5.860  0.8340  0.1062  0.4275
  939MOL0     C26675   2.738   3.806   6.300 -0.6651 -0.6520 -0.4775
  939MOL0     C26676   2.593   3.806   6.295  0.0644  1.1030 -0.9986
  939MOL0     O26677   2.331   3.714   6.402  0.3761  1.0124  0.1727
  939MOL0     C26678   2.098   3.749   6.122  0.9461  0.1489 -0.0075
  939MOL0     C26679   1.963   3.730   6.090  0.1218  0.1482  0.8039
  939MOL0     N26680   1.334   3.602   6.683  0.2416  0.1784  0.6408
  939MOL0     N26681   1.299   3.666   6.787  0.4581 -0.5134 -0.2811
  939MOL0     C26682   1.029   4.826   7.298 -0.3877  0.4320  0.7948
  939MOL0     C26683   0.910   4.899   7.293  0.0914 -0.2784  0.1966
  939MOL0     C26684   0.510   5.021   7.117 -0.0353  0.1613  0.1738
  939MOL0     C26685   0.495   5.131   7.021  0.1811 -0.3251 -0.1953
  939MOL0     C26686   0.368   5.163   6.975 -0.1191 -0.3251  0.0114
  939MOL0     C26687   0.255   5.094   7.016 -0.3952  0.2274  0.0192
  939MOL0     O26688   0.137   5.120   6.948  1.0616 -0.4765 -0.3250
  939MOL0     C26689   0.037   5.024   6.934  0.2113  1.1731 -0.1848
  939MOL0     C26690  -0.072   5.100   6.867  0.5168  0.1611 -0.3491
  939MOL0     C26691  -0.195   5.023   6.842  0.2864 -0.0456 -0.2301
  939MOL0     C26692  -0.273   4.991   6.970 -0.5683 -0.0592 -0.2498
  939MOL0     C26693  -0.321   5.120   7.022  0.4328 -0.3819 -0.1302
  939MOL0     C26694  -0.358   5.226   7.060  0.1639  0.1819 -0.0288
  939MOL0     C26695   0.268   4.996   7.118  0.4261  0.0674  0.1146
  939MOL0     C26696   0.392   4.956   7.171  0.1673 -0.5620  0.1179
  939MOL0     C26697   0.383   4.840   7.269 -0.1872 -0.4209 -0.2846
  939MOL0     H26698   0.697   4.661   7.210 -0.0516  1.0757  1.1990
  939MOL0     H26699   0.903   4.527   7.190  3.0221 -0.5724 -0.5958
  939MOL0     H26700   1.274   4.462   7.234  0.4170 -1.4956 -1.3900
  939MOL0     H26701   1.096   4.444   7.208  0.2368  0.4056  1.9135
  939MOL0     H26702   1.308   4.599   7.050 -0.0967 -2.3104  0.0573
  939MOL0     H26703   1.137   4.608   7.016 -0.4408  0.2686  0.3890
  939MOL0     H26704   1.236   4.448   6.872 -1.7650  1.7193  0.7700
  939MOL0     H26705   1.115   4.374   6.978  0.3584 -1.2575  0.2496
  939MOL0     H26706   1.414   4.355   7.054 -0.0991 -1.0290  1.9354
  939MOL0     H26707   1.285   4.267   7.127 -1.2020  3.0774  2.1276
  939MOL0     H26708   1.240   4.180   6.885 -1.5023  1.8195  1.0961
  939MOL0     H26709   1.400   4.235   6.853 -0.1104  1.3826  1.1979
  939MOL0     H26710   1.491   4.105   7.039  0.0778  0.4770  0.7074
  939MOL0     H26711   1.332   4.039   7.075  2.7349  0.4875  2.5824
  939MOL0     H26712   1.480   3.897   6.944  0.7166  0.8565  0.0112
  939MOL0     H26713   1.469   4.020   6.811 -0.0183 -0.0037 -0.4476
  939MOL0     H26714   1.225   3.873   6.946 -0.2249  2.2097  0.9354
  939MOL0     H26715   1.223   3.993   6.821 -0.0756  0.1434  1.8676
  939MOL0     H26716   1.362   3.920   6.598  2.2759  0.5578  2.0896
  939MOL0     H26717   1.446   3.548   6.470 -2.0043 -0.2716 -1.0103
  939MOL0     H26718   1.343   3.661   6.386 -0.6709 -2.5504 -0.0133
  939MOL0     H26719   1.512   3.857   6.441  0.9992 -0.0367 -0.6477
  939MOL0     H26720   1.617   3.732   6.499 -1.9011  1.8115  3.2134
  939MOL0     H26721   1.681   3.805   6.277  0.0732 -1.0258 -1.5477
  939MOL0     H26722   1.519   3.770   6.209  1.6623  0.9366 -2.1018
  939MOL0     H26723   1.569   3.544   6.190 -1.0929 -0.5039  1.8417
  939MOL0     H26724   1.679   3.533   6.319  1.3566 -0.6449 -1.2319
  939MOL0     H26725   1.868   3.566   6.367 -0.1693  0.1989 -1.1933
  939MOL0     H26726   2.099   3.599   6.429  0.1756 -1.5607 -0.1798
  939MOL0     H26727   2.535   3.712   5.976  1.6240 -0.8907 -1.0110
  939MOL0     H26728   2.794   3.711   5.984 -0.3679 -3.5693  0.6922
  939MOL0     H26729   2.960   3.976   6.217  2.2446  0.9705 -0.7379
  939MOL0     H26730   3.038   3.849   6.319  0.3703 -3.2103  0.0200
  939MOL0     H26731   3.114   3.951   6.044 -1.2532  2.6527  0.7956
  939MOL0     H26732   3.186   4.012   6.178  0.1065  1.5312 -1.5650
  939MOL0     H26733   3.275   3.774   6.242  0.1960 -1.4677  1.0270
  939MOL0     H26734   3.190   3.708   6.095  1.3382  0.9109 -1.1056
  939MOL0     H26735   3.408   3.905   6.098 -4.4120  3.0012 -0.8635
  939MOL0     H26736   3.329   3.848   5.956  0.3091  1.7558  0.3658
  939MOL0     H26737   3.425   3.624   5.967  1.2093 -1.4402  0.4533
  939MOL0     H26738   3.448   3.634   6.139 -0.2868 -1.1619 -0.2411
  939MOL0     H26739   3.607   3.835   5.961 -1.4854 -0.6300 -0.8230
  939MOL0     H26740   3.634   3.794   6.124 -2.8102  1.4579  0.4448
  939MOL0     H26741   3.657   3.623   5.882 -1.1102  1.9096 -0.7045
  939MOL0     H26742   3.680   3.543   6.041  1.7989  0.9203  1.3971
  939MOL0     H26743   3.864   3.714   6.084 -0.8450 -0.9090  0.1067
  939MOL0     H26744   3.907   3.587   5.970  1.1191  0.6203 -0.0174
  939MOL0     H26745   2.789   3.838   6.390  0.8604 -0.2205 -1.4614
  939MOL0     H26746   2.546   3.830   6.390 -1.3033 -1.0571 -1.0558
  939MOL0     H26747   2.155   3.771   6.032  0.0000 -0.4146 -0.7746
  939MOL0     H26748   1.927   3.750   5.990  1.4868 -1.0538  0.0241
  939MOL0     H26749   1.118   4.874   7.337  1.1425 -0.5757 -1.2850
  939MOL0     H26750   0.895   5.004   7.314  0.5324 -0.4227  1.2918
  939MOL0     H26751   0.583   5.178   6.978 -1.0047  0.1254 -2.2595
  939MOL0     H26752   0.345   5.244   6.907 -2.2493  0.3509  1.4252
  939MOL0     H26753   0.006   4.996   7.035  2.3052 -0.1067  0.1755
  939MOL0     H26754   0.068   4.936   6.877 -2.5708  1.3509 -2.1824
  939MOL0     H26755  -0.034   5.144   6.774 -2.0811  0.1775 -1.4812
  939MOL0     H26756  -0.093   5.186   6.930  1.5202  2.0299 -2.4057
  939MOL0     H26757  -0.165   4.927   6.799 -0.7222 -0.4160 -0.1265
  939MOL0     H26758  -0.262   5.077   6.774 -0.2834  0.1751  0.4931
  939MOL0     H26759  -0.356   4.920   6.969 -1.3599  0.6000  3.0413
  939MOL0     H26760  -0.208   4.949   7.047 -1.8254  1.2210  1.6078
  939MOL0     H26761  -0.397   5.323   7.086  1.3138  0.5556  0.3469
  939MOL0     H26762   0.180   4.956   7.167  0.3888  0.3441  0.2785
  939MOL0     H26763   0.281   4.826   7.306  0.1985  1.1914  1.6030
  939MOL0     H26764   0.413   4.757   7.205 -1.9099 -0.3559 -1.2237
  939MOL0     H26765   0.444   4.865   7.357 -1.9539  1.9024  0.3710
  940MOL0     O26766   7.043   7.322   2.966  0.0061 -0.0880 -0.3506
  940MOL0     C26767   7.002   7.216   2.918 -0.1618 -0.2987  0.5654
  940MOL0     O26768   7.063   7.141   2.821 -0.1273  0.3542  0.2464
  940MOL0     C26769   7.191   7.194   2.798 -0.0273  0.2891  0.2491
  940MOL0     C26770   7.310   7.155   2.871  0.1714  0.9841 -0.0992
  940MOL0     C26771   7.437   7.176   2.814 -0.1088  0.3668  0.3485
  940MOL0     C26772   7.446   7.236   2.691 -0.6677 -0.0522  0.9038
  940MOL0     O26773   7.571   7.245   2.629  0.5766 -0.3542  0.3884
  940MOL0     C26774   7.653   7.349   2.687  0.5444 -0.0219 -0.2296
  940MOL0     C26775   7.787   7.348   2.637 -0.5097  0.1197  0.3856
  940MOL0     C26776   7.875   7.245   2.711  0.6610 -0.6103  0.2099
  940MOL0     C26777   8.017   7.280   2.687  0.0040  0.0657  0.6878
  940MOL0     C26778   8.112   7.178   2.739  0.1725  0.3808 -0.5906
  940MOL0     C26779   8.159   7.203   2.882  0.3216  0.4354  0.0308
  940MOL0     C26780   8.253   7.088   2.919 -1.1507  0.2004 -0.4242
  940MOL0     C26781   8.185   6.955   2.969 -0.4306 -0.1658 -0.6434
  940MOL0     N26782   8.284   6.855   3.021  0.5940 -0.4289 -0.0923
  940MOL0     C26783   8.391   6.810   2.952 -0.1916  0.3631 -0.3459
  940MOL0     C26784   8.455   6.717   3.045  0.9055  0.2110  0.2741
  940MOL0     C26785   8.588   6.646   3.018  0.2993  0.0629  1.0546
  940MOL0     C26786   8.577   6.487   3.026 -0.1541  0.3190  0.2513
  940MOL0     C26787   8.672   6.408   2.931  0.3568 -0.5660  0.1230
  940MOL0     C26788   8.639   6.268   2.948 -0.4386 -0.0988  0.3850
  940MOL0     O26789   8.718   6.179   2.862  0.4874 -0.0363 -0.8910
  940MOL0     C26790   8.856   6.193   2.856 -0.3728 -0.5270  0.6096
  940MOL0     C26791   8.928   6.210   2.970  0.0251 -0.0159 -0.9913
  940MOL0     C26792   9.067   6.224   2.965  0.1009 -0.1248  0.4352
  940MOL0     C26793   9.142   6.196   2.846  0.6437  0.3828  0.2203
  940MOL0     C26794   9.291   6.176   2.847 -0.3831 -0.2500 -0.3526
  940MOL0     O26795   9.349   6.138   2.975 -0.1403 -0.1220 -0.5378
  940MOL0     C26796   9.472   6.076   2.945  0.4882 -0.2142  0.5080
  940MOL0     C26797   9.472   5.948   2.875  0.3848 -0.3974 -1.4157
  940MOL0     C26798   9.595   5.882   2.847  0.2684  0.0803 -0.1113
  940MOL0     C26799   9.719   5.939   2.903 -0.2240  0.8913  0.3846
  940MOL0     O26800   9.848   5.890   2.884  0.2366 -0.4280  0.2956
  940MOL0     C26801   9.870   5.770   2.802  0.2233  0.1692  0.7439
  940MOL0     C26802  10.019   5.771   2.795 -0.6574  0.2261 -0.4449
  940MOL0     C26803  10.073   5.667   2.701 -0.3127 -0.4966 -0.3348
  940MOL0     C26804  10.227   5.687   2.695  0.1925  0.2160  0.4616
  940MOL0     C26805  10.302   5.572   2.630 -0.8822  0.2147 -0.5232
  940MOL0     C26806  10.444   5.626   2.610 -0.5430  0.5783  0.6649
  940MOL0     C26807  10.521   5.509   2.548 -0.7535 -0.0078  0.3372
  940MOL0     C26808  10.672   5.540   2.538  0.1121  0.0966  0.8231
  940MOL0    Cl26809  10.674   5.671   2.434 -0.1067 -0.0709 -0.3944
  940MOL0     C26810   9.715   6.064   2.969  0.4052  0.1549 -0.7273
  940MOL0     C26811   9.587   6.127   2.993 -0.3205 -0.0186 -0.3878
  940MOL0     O26812   9.351   6.205   2.746 -0.6825  1.2111 -0.0478
  940MOL0     C26813   9.069   6.180   2.728  1.3228  0.0442  0.9732
  940MOL0     C26814   8.923   6.167   2.741  0.0522  0.5496  1.4847
  940MOL0     N26815   8.370   6.711   3.155 -0.6980  0.0702 -1.0319
  940MOL0     N26816   8.273   6.793   3.139  0.2834 -0.1733 -0.5938
  940MOL0     C26817   7.329   7.284   2.623 -0.1611 -0.0032  0.1386
  940MOL0     C26818   7.210   7.263   2.677 -0.0649 -0.0244 -0.0439
  940MOL0     C26819   6.874   7.165   2.970 -0.5510 -0.4372  0.4549
  940MOL0     C26820   6.789   7.090   2.884 -0.4288 -0.2132 -0.7593
  940MOL0     C26821   6.653   7.063   2.922 -0.3322  0.4013 -0.0813
  940MOL0     C26822   6.604   7.109   3.047  0.4491 -0.3951  0.5897
  940MOL0     O26823   6.477   7.087   3.099  0.3157  0.5378 -0.3765
  940MOL0     C26824   6.386   6.992   3.034 -0.5623  0.0536 -0.3530
  940MOL0     C26825   6.264   6.974   3.114 -0.3123  0.4555  0.5806
  940MOL0     C26826   6.295   6.870   3.226  1.5372  0.2109  0.1666
  940MOL0     C26827   6.168   6.813   3.279 -0.3796 -0.1105  0.0490
  940MOL0     C26828   6.186   6.672   3.324  0.2504  0.5694  0.3105
  940MOL0     C26829   6.216   6.566   3.363 -0.2942 -0.0905 -1.5397
  940MOL0     C26830   6.694   7.175   3.132  0.7535  0.0293 -0.1891
  940MOL0     C26831   6.822   7.207   3.097  0.1005  0.7336 -0.1170
  940MOL0     C26832   6.918   7.247   3.209  0.1812 -0.0459 -0.1454
  940MOL0     H26833   7.290   7.098   2.961  1.0082  1.5088  0.4453
  940MOL0     H26834   7.535   7.149   2.854  0.7366  2.0604 -0.4937
  940MOL0     H26835   7.603   7.443   2.659 -1.1974 -1.2704 -1.5332
  940MOL0     H26836   7.659   7.337   2.795  1.1835 -1.2244 -0.3799
  940MOL0     H26837   7.833   7.448   2.634  0.9321 -0.5303 -1.2208
  940MOL0     H26838   7.782   7.322   2.531 -1.8382  0.4035  0.3644
  940MOL0     H26839   7.853   7.148   2.667 -1.0371 -0.4799  0.7091
  940MOL0     H26840   7.849   7.240   2.818 -1.1190 -0.5402 -0.1974
  940MOL0     H26841   8.041   7.279   2.580 -0.6387  1.3414  0.5151
  940MOL0     H26842   8.037   7.382   2.721 -0.5243  0.3396  0.1897
  940MOL0     H26843   8.072   7.076   2.737  0.0965  0.1112  4.0632
  940MOL0     H26844   8.205   7.191   2.684 -0.1758 -0.9053 -1.5292
  940MOL0     H26845   8.217   7.295   2.894 -0.2054  0.7140  0.4736
  940MOL0     H26846   8.074   7.209   2.951  0.4664 -1.6784  0.4469
  940MOL0     H26847   8.318   7.128   2.997  0.1778  1.2837 -2.0209
  940MOL0     H26848   8.327   7.069   2.841 -0.0501 -0.9102  0.8351
  940MOL0     H26849   8.113   6.954   3.050  1.2542  0.1099  0.9287
  940MOL0     H26850   8.134   6.915   2.880 -1.0875 -1.5128  0.3098
  940MOL0     H26851   8.433   6.836   2.855  2.1438  0.5034  0.6397
  940MOL0     H26852   8.612   6.662   2.913 -1.9938 -1.6196  0.2041
  940MOL0     H26853   8.663   6.685   3.087  0.4194  1.1139  0.3540
  940MOL0     H26854   8.612   6.473   3.129  2.8046  1.4035 -0.4852
  940MOL0     H26855   8.472   6.468   3.004 -0.1975  2.2284 -1.4859
  940MOL0     H26856   8.776   6.435   2.949 -0.0441  1.9404 -0.8921
  940MOL0     H26857   8.653   6.440   2.828 -1.3899 -1.0910  0.2509
  940MOL0     H26858   8.532   6.257   2.927 -0.2948  0.7870 -0.9064
  940MOL0     H26859   8.664   6.245   3.052 -1.5560  2.6199  1.3491
  940MOL0     H26860   8.881   6.222   3.067  1.2057  0.3790 -0.4517
  940MOL0     H26861   9.120   6.244   3.057  2.3241  2.0456 -1.1893
  940MOL0     H26862   9.374   5.914   2.844 -0.7874  0.1735  1.3266
  940MOL0     H26863   9.604   5.790   2.789  1.8262  0.4281 -0.4686
  940MOL0     H26864   9.828   5.681   2.851 -1.0786  0.5237  0.3124
  940MOL0     H26865   9.819   5.786   2.707 -0.9887  0.6756  1.4516
  940MOL0     H26866  10.071   5.863   2.765  0.1770  0.2120  0.8446
  940MOL0     H26867  10.058   5.757   2.897 -0.6644 -0.4367 -0.5312
  940MOL0     H26868  10.041   5.576   2.752 -1.0140  0.3341  0.7459
  940MOL0     H26869  10.029   5.673   2.600  0.4084 -1.0329 -0.6851
  940MOL0     H26870  10.264   5.713   2.795 -0.1571 -0.4552  0.7716
  940MOL0     H26871  10.240   5.761   2.615  0.0822 -0.9983 -0.7043
  940MOL0     H26872  10.259   5.538   2.536  0.8773  1.4391 -1.8436
  940MOL0     H26873  10.308   5.484   2.696  0.9483  0.0684 -0.8353
  940MOL0     H26874  10.445   5.703   2.533  1.5617 -0.7949 -0.8004
  940MOL0     H26875  10.487   5.651   2.707 -3.3355 -2.1365  2.8149
  940MOL0     H26876  10.494   5.486   2.444  1.8943 -2.9241  0.1474
  940MOL0     H26877  10.514   5.421   2.612  1.8485  0.0886  0.8673
  940MOL0     H26878  10.700   5.564   2.641  0.1723 -1.0656  1.0969
  940MOL0     H26879  10.735   5.452   2.520 -1.7327 -1.0753 -0.2472
  940MOL0     H26880   9.803   6.097   3.022 -1.4421  1.6541  1.6552
  940MOL0     H26881   9.582   6.218   3.052  0.7500 -0.2150  0.0397
  940MOL0     H26882   9.105   6.155   2.629 -2.7233  1.4559 -1.0857
  940MOL0     H26883   8.871   6.140   2.650 -0.0991 -1.0929  2.0206
  940MOL0     H26884   7.341   7.327   2.524  1.6893 -0.1364  0.2691
  940MOL0     H26885   7.120   7.298   2.627 -0.0847 -0.2383 -0.1587
  940MOL0     H26886   6.825   7.055   2.789 -0.1031  0.2061 -0.7921
  940MOL0     H26887   6.590   7.004   2.855 -2.1179  1.1222  0.8920
  940MOL0     H26888   6.440   6.898   3.025  1.4227  0.9883  1.0363
  940MOL0     H26889   6.354   7.024   2.935  1.4538 -0.5472 -1.2559
  940MOL0     H26890   6.199   6.923   3.041 -0.5364  0.6403  0.6482
  940MOL0     H26891   6.223   7.068   3.152 -2.7006 -0.3658  0.2758
  940MOL0     H26892   6.351   6.914   3.309 -0.0040 -1.8909  2.4583
  940MOL0     H26893   6.366   6.795   3.188  0.0245 -0.0530 -2.3125
  940MOL0     H26894   6.127   6.863   3.367 -1.6186  0.7841 -0.9870
  940MOL0     H26895   6.091   6.807   3.201  0.3485  0.2692 -0.7057
  940MOL0     H26896   6.253   6.469   3.391 -2.6170 -1.1891 -2.0651
  940MOL0     H26897   6.643   7.207   3.223 -1.0065 -2.8564 -0.0536
  940MOL0     H26898   6.968   7.340   3.182 -1.6648  2.5422  4.3265
  940MOL0     H26899   6.860   7.270   3.298  0.0707  3.8729 -1.0606
  940MOL0     H26900   6.989   7.165   3.227  1.8923  1.4310  0.1346
  941MOL0     O26901   1.915   9.109   1.309 -0.3116  0.0654  0.3652
  941MOL0     C26902   1.841   9.200   1.277 -0.7007 -0.3178 -0.2927
  941MOL0     O26903   1.878   9.319   1.214  0.8214  0.5433 -0.5482
  941MOL0     C26904   2.010   9.340   1.191  0.3135  0.0094  0.1000
  941MOL0     C26905   2.091   9.270   1.100  1.3210 -0.0949  0.2750
  941MOL0     C26906   2.221   9.308   1.076 -0.4190 -0.2232 -0.3415
  941MOL0     C26907   2.276   9.404   1.156 -0.5289  0.1327  0.0707
  941MOL0     O26908   2.412   9.436   1.139 -1.1358  0.2582 -0.4555
  941MOL0     C26909   2.489   9.382   1.245  0.1981  0.3553 -0.0231
  941MOL0     C26910   2.632   9.405   1.217  0.0409 -0.4111  0.2886
  941MOL0     C26911   2.685   9.548   1.202  0.0943 -0.2896  0.2310
  941MOL0     C26912   2.690   9.642   1.323  0.0518  0.3153  0.6503
  941MOL0     C26913   2.742   9.776   1.280  0.8844  0.5439  0.7496
  941MOL0     C26914   2.895   9.774   1.265  0.1811  0.1696  0.4458
  941MOL0     C26915   2.969   9.792   1.387  0.2507  0.2880 -0.5328
  941MOL0     C26916   3.108   9.831   1.337 -0.0877 -0.3411 -0.8061
  941MOL0     N26917   3.201   9.838   1.448 -0.0959  0.1960  0.8269
  941MOL0     C26918   3.340   9.870   1.426 -0.1310  0.3085 -1.2812
  941MOL0     C26919   3.375   9.906   1.552 -1.9182 -0.3837  0.3715
  941MOL0     C26920   3.513   9.956   1.582  0.3431  0.0175  0.8481
  941MOL0     C26921   3.608   9.851   1.625 -0.8576  0.7067 -0.4658
  941MOL0     C26922   3.674   9.769   1.510 -1.0943 -0.2416 -0.0628
  941MOL0     C26923   3.783   9.671   1.562  0.0256  1.1421 -0.4600
  941MOL0     O26924   3.867   9.646   1.450  0.8185  0.0809  0.0846
  941MOL0     C26925   3.996   9.684   1.451  0.5420 -0.9467 -0.3474
  941MOL0     C26926   4.052   9.778   1.542 -0.1413  0.3695  0.7618
  941MOL0     C26927   4.186   9.818   1.532  0.1820 -0.5155  0.0029
  941MOL0     C26928   4.264   9.765   1.440  0.5318 -0.5374  0.1834
  941MOL0     C26929   4.407   9.806   1.431 -0.3685 -0.7545 -0.4615
  941MOL0     O26930   4.434   9.936   1.460  0.0927  0.2664  0.6775
  941MOL0     C26931   4.546  10.003   1.404  0.1917  0.8587 -0.3184
  941MOL0     C26932   4.626   9.975   1.290 -0.1013 -0.2372  0.1495
  941MOL0     C26933   4.745  10.058   1.264  0.5932  0.6937 -0.5614
  941MOL0     C26934   4.779  10.162   1.350  0.1620  0.4094 -0.3951
  941MOL0     O26935   4.897  10.229   1.316 -0.5830 -0.9943 -0.0303
  941MOL0     C26936   4.932  10.348   1.389  0.3233 -1.0887  0.2669
  941MOL0     C26937   4.995  10.445   1.293  0.6506 -0.3755 -0.1187
  941MOL0     C26938   4.910  10.486   1.170  0.7056 -0.0547 -0.4776
  941MOL0     C26939   4.799  10.592   1.205  1.0319  0.3076 -0.1056
  941MOL0     C26940   4.689  10.592   1.101 -0.3324 -0.3034  0.7120
  941MOL0     C26941   4.587  10.702   1.123  0.1702 -0.3092  0.1828
  941MOL0     C26942   4.481  10.698   1.011 -0.0768  0.7320 -0.0766
  941MOL0     C26943   4.537  10.713   0.865  0.2367 -0.8232  0.4046
  941MOL0    Cl26944   4.640  10.864   0.848 -0.0534 -0.3390  0.1586
  941MOL0     C26945   4.696  10.182   1.461 -0.6885 -0.1502 -0.1041
  941MOL0     C26946   4.581  10.107   1.492 -0.0667  0.7297  0.5100
  941MOL0     O26947   4.487   9.722   1.385 -0.0389  0.2930 -0.5342
  941MOL0     C26948   4.219   9.665   1.348  0.1454 -0.7947 -0.1787
  941MOL0     C26949   4.085   9.619   1.358  0.2353  0.0691 -0.5908
  941MOL0     N26950   3.274   9.907   1.638 -0.0492 -0.6031 -0.4408
  941MOL0     N26951   3.171   9.858   1.578 -0.6341 -0.0151  0.7940
  941MOL0     C26952   2.208   9.468   1.250  0.4624 -0.1911 -0.2109
  941MOL0     C26953   2.070   9.441   1.265  0.3306 -0.0209  0.9326
  941MOL0     C26954   1.697   9.186   1.316  0.3093 -0.3472  0.1228
  941MOL0     C26955   1.610   9.289   1.269  1.2402 -0.4685 -0.3955
  941MOL0     C26956   1.470   9.279   1.281  0.0078  0.3167 -0.8449
  941MOL0     C26957   1.414   9.166   1.344  0.1919  0.5605 -0.9856
  941MOL0     O26958   1.278   9.143   1.354  0.6203  0.0961 -0.1636
  941MOL0     C26959   1.218   9.071   1.246  0.2704 -0.0147  0.8627
  941MOL0     C26960   1.173   8.934   1.296 -0.7339 -0.3652  0.2694
  941MOL0     C26961   1.056   8.877   1.219 -0.8862 -0.2965  0.0049
  941MOL0     C26962   1.100   8.810   1.082  0.1760  0.8915  0.1099
  941MOL0     C26963   0.987   8.749   1.011  0.0749 -0.2234  0.6378
  941MOL0     C26964   0.879   8.710   0.974  0.7792  0.2310  1.0137
  941MOL0     C26965   1.500   9.065   1.396  0.2294 -0.3967  0.5835
  941MOL0     C26966   1.640   9.078   1.390 -0.1034  0.5176 -1.3909
  941MOL0     C26967   1.724   8.969   1.459 -0.3858 -0.4064 -0.6873
  941MOL0     H26968   2.045   9.189   1.044  2.7684 -0.7351 -0.0522
  941MOL0     H26969   2.271   9.255   0.995 -1.6615 -0.1802 -1.1693
  941MOL0     H26970   2.463   9.425   1.343  0.1591  0.7243 -0.1908
  941MOL0     H26971   2.485   9.274   1.257 -0.3542  0.4194  0.3717
  941MOL0     H26972   2.668   9.357   1.126  1.5558  1.0926  0.0379
  941MOL0     H26973   2.685   9.343   1.289 -0.0972  0.0177  0.7699
  941MOL0     H26974   2.612   9.590   1.133  0.0905  2.5682  1.7938
  941MOL0     H26975   2.779   9.534   1.147  0.0072 -3.0565  0.6698
  941MOL0     H26976   2.590   9.651   1.365  0.8977 -1.3029  3.2627
  941MOL0     H26977   2.751   9.593   1.400  1.5894 -2.1142 -1.9238
  941MOL0     H26978   2.704   9.804   1.181  0.0383  0.3197  1.0005
  941MOL0     H26979   2.720   9.854   1.354  1.1083 -0.1245  1.5393
  941MOL0     H26980   2.921   9.680   1.216 -3.6256 -2.2321  2.5747
  941MOL0     H26981   2.916   9.857   1.196 -0.0090  2.0380  2.4938
  941MOL0     H26982   2.967   9.695   1.436  1.2359  0.2791 -0.4861
  941MOL0     H26983   2.923   9.865   1.455  1.2646  0.5551 -0.1107
  941MOL0     H26984   3.146   9.762   1.262  1.9500  1.2983 -1.3728
  941MOL0     H26985   3.107   9.919   1.273 -0.3921 -1.2912 -2.1385
  941MOL0     H26986   3.398   9.873   1.334  0.9369 -0.6287 -0.6610
  941MOL0     H26987   3.562  10.010   1.501  2.8771 -1.9423  0.9587
  941MOL0     H26988   3.491  10.028   1.662 -0.2936  0.5479  0.2080
  941MOL0     H26989   3.684   9.906   1.681  0.9367 -3.3276  1.5342
  941MOL0     H26990   3.557   9.799   1.707  0.5190  3.2673  2.1909
  941MOL0     H26991   3.733   9.843   1.455  1.8754 -2.1021  0.4469
  941MOL0     H26992   3.603   9.717   1.444 -1.0945 -0.3473  0.0210
  941MOL0     H26993   3.739   9.576   1.595 -1.7965  2.2967  0.6397
  941MOL0     H26994   3.831   9.713   1.651 -0.3693 -1.0074  0.8288
  941MOL0     H26995   3.985   9.820   1.616  0.6768  2.4425  0.4044
  941MOL0     H26996   4.208   9.894   1.607 -4.0819 -0.9263  1.9236
  941MOL0     H26997   4.599   9.891   1.227  1.7777 -1.0328  0.3447
  941MOL0     H26998   4.806  10.047   1.175 -0.0226 -2.8369 -0.6998
  941MOL0     H26999   4.846  10.397   1.434  0.9250 -0.7313  1.0477
  941MOL0     H27000   5.014  10.323   1.458  3.2443  0.1330 -2.4809
  941MOL0     H27001   5.019  10.538   1.345  1.3651  0.4333 -1.8049
  941MOL0     H27002   5.083  10.391   1.257  1.0372 -0.9324  1.5828
  941MOL0     H27003   4.974  10.531   1.094  0.1875  1.9083  0.1818
  941MOL0     H27004   4.846  10.406   1.130 -0.3112  0.0444  0.9091
  941MOL0     H27005   4.841  10.692   1.214 -2.4612  1.8516  0.7889
  941MOL0     H27006   4.755  10.574   1.304  0.2404  1.8034 -0.1543
  941MOL0     H27007   4.636  10.496   1.095  2.4904 -2.0691  1.9240
  941MOL0     H27008   4.743  10.609   1.007  0.1796 -1.5945  0.7462
  941MOL0     H27009   4.529  10.679   1.213  2.0258 -1.2676  1.1797
  941MOL0     H27010   4.624  10.805   1.130 -1.4788  0.3438 -0.2114
  941MOL0     H27011   4.411  10.782   1.022  3.7066  4.7199 -3.1022
  941MOL0     H27012   4.417  10.610   1.021 -0.3684  0.9235 -0.2287
  941MOL0     H27013   4.602  10.628   0.843  2.4270  1.1246 -1.0921
  941MOL0     H27014   4.458  10.732   0.792  0.4659  2.8393  0.9593
  941MOL0     H27015   4.718  10.260   1.534 -0.0067 -0.7479  0.3512
  941MOL0     H27016   4.514  10.137   1.572  0.5253  1.3473  0.7804
  941MOL0     H27017   4.282   9.631   1.266 -0.8089 -1.1273 -0.7813
  941MOL0     H27018   4.064   9.537   1.290  2.0666 -0.9461 -0.0064
  941MOL0     H27019   2.258   9.553   1.298  0.0821  0.6798 -1.3046
  941MOL0     H27020   2.024   9.510   1.335 -0.7506 -1.6940  1.9660
  941MOL0     H27021   1.645   9.369   1.205 -3.8321 -0.5505 -3.8570
  941MOL0     H27022   1.409   9.364   1.253 -0.8197  0.2587  0.6853
  941MOL0     H27023   1.286   9.056   1.162  0.7945 -0.3398  1.3336
  941MOL0     H27024   1.129   9.121   1.207  1.4150  0.7958 -0.8206
  941MOL0     H27025   1.144   8.953   1.399 -0.7382 -1.3768  0.4623
  941MOL0     H27026   1.257   8.864   1.299 -1.1400 -0.9233 -0.7468
  941MOL0     H27027   0.987   8.961   1.208  0.3635  0.8466  0.6653
  941MOL0     H27028   1.002   8.812   1.288  1.2505 -0.8495  1.2682
  941MOL0     H27029   1.145   8.882   1.013 -0.5428  1.1201 -0.1289
  941MOL0     H27030   1.173   8.733   1.107 -3.6465 -2.6454  1.5700
  941MOL0     H27031   0.777   8.693   0.949 -0.1179  2.7544  2.5722
  941MOL0     H27032   1.458   8.981   1.451  0.9188 -0.1339  1.5245
  941MOL0     H27033   1.821   9.002   1.498 -1.7510  2.3869  0.6940
  941MOL0     H27034   1.672   8.922   1.543 -1.3234  0.4073 -0.7936
  941MOL0     H27035   1.731   8.886   1.389  0.6895 -1.8981  1.0833
  942MOL0     O27036   8.784   8.443  10.248  0.3898  0.3240  0.6448
  942MOL0     C27037   8.728   8.453  10.358  0.2055 -0.1466  0.2622
  942MOL0     O27038   8.765   8.535  10.451  0.1035  0.7455 -0.8918
  942MOL0     C27039   8.872   8.604  10.415 -0.1111 -0.4838  0.0977
  942MOL0     C27040   9.001   8.559  10.427  0.2440 -0.1217  0.5268
  942MOL0     C27041   9.105   8.636  10.393  0.6584  0.4471 -0.1837
  942MOL0     C27042   9.090   8.768  10.350  0.4040  0.9351  0.3630
  942MOL0     O27043   9.193   8.856  10.329  0.2050  0.0205 -0.5854
  942MOL0     C27044   9.306   8.812  10.248  0.5210 -0.3910  0.1055
  942MOL0     C27045   9.350   8.918  10.169 -1.0077 -0.4099  0.5024
  942MOL0     C27046   9.471   8.867  10.078 -1.1317 -0.5499 -0.0135
  942MOL0     C27047   9.503   8.972   9.971  0.5236  0.0286 -0.0556
  942MOL0     C27048   9.623   8.937   9.883  0.0279 -0.1555  0.2153
  942MOL0     C27049   9.681   9.050   9.790  0.4004 -1.8346 -0.0916
  942MOL0     C27050   9.807   9.031   9.697  0.5273  0.2137  0.9287
  942MOL0     C27051   9.928   8.984   9.779 -0.1402 -0.0725  0.1425
  942MOL0     N27052  10.054   9.021   9.711 -0.2831 -0.6741  0.6974
  942MOL0     C27053  10.085   8.989   9.579  0.0306  0.9877 -1.0674
  942MOL0     C27054  10.193   9.067   9.552 -0.2956  0.1500 -0.3036
  942MOL0     C27055  10.244   9.081   9.415 -0.4126  0.6458  0.2776
  942MOL0     C27056  10.392   9.062   9.409 -1.0809  0.0565  0.2624
  942MOL0     C27057  10.449   9.203   9.406  0.4689 -0.4875 -0.2886
  942MOL0     C27058  10.598   9.210   9.417 -0.0493 -0.3506  0.3677
  942MOL0     O27059  10.657   9.197   9.290  0.3634  0.3070  0.2117
  942MOL0     C27060  10.789   9.203   9.262  0.3936  1.0501  0.3447
  942MOL0     C27061  10.828   9.154   9.139  0.3865  0.6432 -0.3560
  942MOL0     C27062  10.961   9.153   9.104  0.4437  0.4511  0.8458
  942MOL0     C27063  11.063   9.196   9.178 -0.1766  0.2446  0.0368
  942MOL0     C27064  11.197   9.207   9.116 -0.2387  0.8041 -0.1988
  942MOL0     O27065  11.218   9.140   8.995  0.3908 -0.0760 -0.2864
  942MOL0     C27066  11.334   9.172   8.934 -1.7529  0.0047  0.2001
  942MOL0     C27067  11.466   9.146   8.992 -0.6088 -0.1545 -0.3981
  942MOL0     C27068  11.579   9.173   8.919 -0.1542 -1.1372 -0.3272
  942MOL0     C27069  11.576   9.209   8.784  0.0980  0.9048 -0.0366
  942MOL0     O27070  11.679   9.218   8.699 -0.7699  0.4361 -0.4907
  942MOL0     C27071  11.809   9.186   8.746  0.9321 -0.2413  0.7100
  942MOL0     C27072  11.898   9.186   8.627 -0.3738  0.4729 -0.7897
  942MOL0     C27073  12.037   9.134   8.666 -0.3664  0.3720 -0.0861
  942MOL0     C27074  12.146   9.142   8.556  0.3361 -0.4874 -0.3794
  942MOL0     C27075  12.265   9.058   8.589  0.1059 -0.4762 -0.2599
  942MOL0     C27076  12.370   9.078   8.481  0.6607  0.4601 -0.6469
  942MOL0     C27077  12.508   9.007   8.498  0.5172 -0.0411 -0.7365
  942MOL0     C27078  12.597   9.052   8.384 -0.3471 -0.0092 -0.3872
  942MOL0    Cl27079  12.775   9.021   8.413  0.7918 -0.4845 -0.0350
  942MOL0     C27080  11.450   9.237   8.737 -0.1946 -0.2376  0.0271
  942MOL0     C27081  11.330   9.220   8.806  0.8438 -0.1848  0.5101
  942MOL0     O27082  11.279   9.269   9.183  0.3061 -0.4630  0.3303
  942MOL0     C27083  11.029   9.229   9.315 -0.2609 -0.1669 -0.2021
  942MOL0     C27084  10.892   9.230   9.356 -0.4925  0.0726  0.5589
  942MOL0     N27085  10.231   9.134   9.672  0.1050 -0.1324  0.2227
  942MOL0     N27086  10.141   9.115   9.759 -1.0236 -0.0060  0.1039
  942MOL0     C27087   8.963   8.820  10.335 -0.3805 -0.3231 -0.0472
  942MOL0     C27088   8.851   8.737  10.360  0.3294 -0.3210 -0.1332
  942MOL0     C27089   8.594   8.394  10.386 -0.4264  0.1220 -0.2791
  942MOL0     C27090   8.504   8.482  10.447 -0.0033  0.1323  0.1028
  942MOL0     C27091   8.374   8.437  10.477  0.1090 -0.3763 -0.9542
  942MOL0     C27092   8.329   8.309  10.435 -0.0516 -0.3405  0.0088
  942MOL0     O27093   8.197   8.279  10.451 -0.3228  0.2639 -0.5079
  942MOL0     C27094   8.166   8.143  10.474 -0.2174 -0.5006 -0.6275
  942MOL0     C27095   8.087   8.137  10.603  0.1854  0.5977  0.6374
  942MOL0     C27096   8.159   8.177  10.734 -0.0858  0.5594  0.0794
  942MOL0     C27097   8.128   8.327  10.758  0.3274  0.0180  0.1747
  942MOL0     C27098   8.136   8.345  10.905  0.8918  0.0125  0.3588
  942MOL0     C27099   8.141   8.357  11.025 -0.7149  0.8066  0.1604
  942MOL0     C27100   8.418   8.230  10.360  0.3552 -0.1402  0.2333
  942MOL0     C27101   8.545   8.268  10.337 -0.2952 -0.5178 -0.1401
  942MOL0     C27102   8.631   8.164  10.271 -0.1016 -0.2397 -0.3430
  942MOL0     H27103   9.009   8.457  10.463  1.4789 -0.3200 -0.2475
  942MOL0     H27104   9.209   8.607  10.382  1.4514  2.3170  1.7666
  942MOL0     H27105   9.390   8.777  10.309 -1.4179 -2.8077  1.6252
  942MOL0     H27106   9.276   8.729  10.183 -0.6129  0.8976 -1.0681
  942MOL0     H27107   9.379   9.000  10.235  1.9960 -1.8510  1.1309
  942MOL0     H27108   9.270   8.955  10.104  0.1439  0.6820 -0.3387
  942MOL0     H27109   9.456   8.768  10.033 -0.6761 -0.7537  0.2836
  942MOL0     H27110   9.571   8.865  10.121 -0.6875  1.2678 -0.8627
  942MOL0     H27111   9.413   8.983   9.909  0.9817 -0.2116 -0.7778
  942MOL0     H27112   9.523   9.073  10.008  0.1100  0.5100 -1.0990
  942MOL0     H27113   9.701   8.903   9.953 -1.8238 -2.1989  1.4288
  942MOL0     H27114   9.592   8.845   9.831 -0.3509 -0.5184  1.0660
  942MOL0     H27115   9.598   9.070   9.721  0.4288  1.4924  0.6686
  942MOL0     H27116   9.699   9.136   9.855 -1.5755 -1.0922 -0.4461
  942MOL0     H27117   9.829   9.113   9.628 -0.1522 -1.8763 -1.9741
  942MOL0     H27118   9.786   8.942   9.638  2.3505  1.3934 -1.7160
  942MOL0     H27119   9.934   9.034   9.876 -0.5674 -2.1880  1.3305
  942MOL0     H27120   9.923   8.879   9.810  1.3838 -0.3099 -0.3540
  942MOL0     H27121  10.031   8.933   9.503  2.9131 -0.5361 -2.1529
  942MOL0     H27122  10.193   9.007   9.352 -1.0840  0.3908  1.0993
  942MOL0     H27123  10.220   9.180   9.375  1.7867  0.6224 -1.2702
  942MOL0     H27124  10.445   9.010   9.489  1.3130  0.0510 -1.1973
  942MOL0     H27125  10.424   9.010   9.318 -0.8982 -0.3603  0.5646
  942MOL0     H27126  10.401   9.245   9.495 -0.0548 -0.1446 -0.7275
  942MOL0     H27127  10.401   9.259   9.325 -3.4133 -1.3898  1.2016
  942MOL0     H27128  10.631   9.133   9.487  1.0484  1.4039  1.8767
  942MOL0     H27129  10.634   9.309   9.447 -2.7872  1.3074 -1.4230
  942MOL0     H27130  10.755   9.113   9.070  0.1196  0.2660  0.1397
  942MOL0     H27131  10.974   9.126   8.999  1.7951  2.1436  0.5236
  942MOL0     H27132  11.470   9.101   9.091 -0.5010  0.0130 -0.3254
  942MOL0     H27133  11.677   9.161   8.963  0.2536  2.4651  0.0909
  942MOL0     H27134  11.842   9.266   8.812  1.2991  2.4211 -2.4219
  942MOL0     H27135  11.801   9.096   8.808 -1.8484  1.7714  3.5714
  942MOL0     H27136  11.847   9.126   8.551 -1.7793  2.5686 -1.5827
  942MOL0     H27137  11.910   9.289   8.593  0.7513  0.3112 -0.9156
  942MOL0     H27138  12.088   9.176   8.754  0.4968 -2.4550  0.8727
  942MOL0     H27139  12.023   9.027   8.683 -1.1469  0.1408 -2.0319
  942MOL0     H27140  12.159   9.251   8.550 -0.6351 -0.4174 -1.5579
  942MOL0     H27141  12.115   9.122   8.453 -1.8526  1.7951 -0.2675
  942MOL0     H27142  12.235   8.955   8.610 -2.8657  0.5927  1.2979
  942MOL0     H27143  12.312   9.096   8.681  1.7436  3.7819 -2.5717
  942MOL0     H27144  12.316   9.048   8.391  2.4277 -0.3790 -1.4732
  942MOL0     H27145  12.388   9.185   8.474 -2.6927  1.1706 -0.0808
  942MOL0     H27146  12.504   8.898   8.500  0.3236 -0.0894  2.8417
  942MOL0     H27147  12.552   9.037   8.593 -0.7146  0.9847 -0.4679
  942MOL0     H27148  12.568   9.000   8.293  0.2638 -0.3632 -0.3851
  942MOL0     H27149  12.588   9.160   8.369  1.9342  0.2634 -0.1986
  942MOL0     H27150  11.438   9.282   8.638  0.7004 -2.6885 -1.2844
  942MOL0     H27151  11.236   9.247   8.760  0.2995  0.6997  2.0519
  942MOL0     H27152  11.096   9.243   9.399 -0.0013  0.8099 -0.5688
  942MOL0     H27153  10.862   9.252   9.458  1.1891 -0.2942  1.1680
  942MOL0     H27154   8.945   8.925  10.316  0.8386 -0.1691 -0.4393
  942MOL0     H27155   8.749   8.772  10.355  0.7206  1.0206  0.6198
  942MOL0     H27156   8.527   8.585  10.471 -1.0848  0.1355  1.2241
  942MOL0     H27157   8.302   8.488  10.540 -0.6712 -3.1586  0.5825
  942MOL0     H27158   8.254   8.079  10.472  0.1497 -0.0110 -0.2959
  942MOL0     H27159   8.092   8.106  10.402 -1.1746  1.0084 -0.4619
  942MOL0     H27160   8.071   8.030  10.618  3.2387 -0.0123  0.2533
  942MOL0     H27161   7.990   8.187  10.599  0.1894  0.6417  1.0843
  942MOL0     H27162   8.266   8.161  10.720 -0.3060 -0.9363 -0.1200
  942MOL0     H27163   8.127   8.117  10.820 -2.3797  2.5318  0.7061
  942MOL0     H27164   8.212   8.386  10.720  0.7816 -0.0381  1.0834
  942MOL0     H27165   8.026   8.358  10.734  0.1466 -0.6478  0.0521
  942MOL0     H27166   8.132   8.356  11.132 -4.3099 -1.1495  0.0157
  942MOL0     H27167   8.369   8.143  10.318 -1.2215  0.0800  1.5116
  942MOL0     H27168   8.629   8.170  10.162 -2.7785  0.5961 -0.3364
  942MOL0     H27169   8.736   8.167  10.303  0.2478 -0.9549 -1.3719
  942MOL0     H27170   8.606   8.061  10.296  3.5035 -0.8491  1.3586
  943MOL0     O27171   0.528  11.124   6.267 -0.3952  0.1665 -0.2693
  943MOL0     C27172   0.462  11.219   6.219 -0.0438  0.3692  0.8388
  943MOL0     O27173   0.520  11.329   6.174 -0.1599 -0.0677 -0.6567
  943MOL0     C27174   0.656  11.311   6.140 -0.6366  0.0163  0.1074
  943MOL0     C27175   0.687  11.251   6.021 -0.5286  0.2482 -0.4779
  943MOL0     C27176   0.818  11.221   5.991  0.2717 -0.6219 -0.5896
  943MOL0     C27177   0.922  11.252   6.079  0.2744 -1.3461 -0.2280
  943MOL0     O27178   1.044  11.226   6.035 -0.3267  0.6903 -0.1176
  943MOL0     C27179   1.154  11.262   6.120  0.7678 -0.1753  0.1726
  943MOL0     C27180   1.278  11.230   6.037  0.0730  0.1421  0.0620
  943MOL0     C27181   1.291  11.073   6.026  0.2385  0.6656 -0.0616
  943MOL0     C27182   1.398  11.048   5.920 -0.3038  0.8114  0.3056
  943MOL0     C27183   1.455  10.905   5.926 -0.3295  0.7478  0.0514
  943MOL0     C27184   1.362  10.784   5.904  0.0094 -0.0986 -0.3022
  943MOL0     C27185   1.439  10.657   5.870  0.7113  0.9222 -0.2823
  943MOL0     C27186   1.333  10.569   5.793 -0.7768 -0.6881  0.3839
  943MOL0     N27187   1.219  10.543   5.883  0.1027  0.7568 -0.2047
  943MOL0     C27188   1.098  10.610   5.882 -0.3726  0.0645  0.6660
  943MOL0     C27189   1.031  10.533   5.968  0.7650  0.6313 -0.2847
  943MOL0     C27190   0.888  10.558   6.007  1.4987 -0.8185 -0.2552
  943MOL0     C27191   0.855  10.704   6.042  0.4655  0.5710  0.1643
  943MOL0     C27192   0.701  10.710   6.064 -0.9012 -0.7368  0.1152
  943MOL0     C27193   0.649  10.847   6.085  0.1760 -0.0776  0.3825
  943MOL0     O27194   0.515  10.857   6.038  0.8200 -0.3082  0.0034
  943MOL0     C27195   0.416  10.793   6.107  0.1686 -0.7801 -0.1083
  943MOL0     C27196   0.288  10.800   6.058  0.0335  0.7111  0.0626
  943MOL0     C27197   0.179  10.731   6.110 -0.3456  0.5926  0.7733
  943MOL0     C27198   0.189  10.683   6.232  0.3660 -0.2163  0.3610
  943MOL0     C27199   0.077  10.624   6.300  0.6568  0.1749 -0.4816
  943MOL0     O27200  -0.050  10.668   6.262 -0.5689  0.0866  0.6992
  943MOL0     C27201  -0.158  10.591   6.312 -0.5969  0.7631  0.3850
  943MOL0     C27202  -0.162  10.447   6.298  0.3386 -0.1175  0.2377
  943MOL0     C27203  -0.278  10.372   6.324 -0.7094 -0.6876 -0.3787
  943MOL0     C27204  -0.387  10.437   6.381 -0.0918 -0.1563 -0.5301
  943MOL0     O27205  -0.501  10.368   6.400 -0.1297 -0.0249  0.7147
  943MOL0     C27206  -0.624  10.440   6.362 -0.6156  0.3977  0.5267
  943MOL0     C27207  -0.638  10.469   6.212 -0.2202  0.4301  0.9661
  943MOL0     C27208  -0.764  10.551   6.189  0.0488  0.6728  1.2279
  943MOL0     C27209  -0.803  10.558   6.035 -0.2987  1.0607  0.1905
  943MOL0     C27210  -0.900  10.663   5.967  0.5192 -0.7023 -1.3010
  943MOL0     C27211  -1.039  10.653   6.023 -0.0669  0.4155 -0.2417
  943MOL0     C27212  -1.138  10.752   5.955 -0.5199  0.3439 -0.7180
  943MOL0     C27213  -1.290  10.728   5.998  0.5703 -0.1405  0.3142
  943MOL0    Cl27214  -1.353  10.609   5.887  0.1428  0.2811  0.3397
  943MOL0     C27215  -0.371  10.579   6.408  0.6221  0.0377  0.2605
  943MOL0     C27216  -0.260  10.652   6.372 -0.4840 -0.8221 -0.0932
  943MOL0     O27217   0.103  10.540   6.386 -0.4889  0.1089 -0.1271
  943MOL0     C27218   0.314  10.676   6.290 -0.8442 -0.0469  0.2607
  943MOL0     C27219   0.428  10.726   6.228  0.5435  0.1099 -0.1026
  943MOL0     N27220   1.106  10.427   6.018 -0.1393  0.0513  0.1101
  943MOL0     N27221   1.213  10.418   5.945  1.1058 -0.1521  0.6020
  943MOL0     C27222   0.886  11.316   6.196  0.2480 -0.9711  0.3104
  943MOL0     C27223   0.755  11.343   6.228  0.8233 -0.7405 -0.1174
  943MOL0     C27224   0.319  11.200   6.216 -0.2811 -0.7941  0.2307
  943MOL0     C27225   0.259  11.080   6.242 -0.1272 -0.1318 -0.5581
  943MOL0     C27226   0.115  11.058   6.249 -1.0958  0.1429 -0.0800
  943MOL0     C27227   0.036  11.168   6.219  0.7112 -1.0619 -0.9568
  943MOL0     O27228  -0.099  11.164   6.213  0.4216  0.0593  0.5095
  943MOL0     C27229  -0.163  11.060   6.271 -0.1531  0.2237 -0.8583
  943MOL0     C27230  -0.315  11.103   6.275 -1.1816 -0.2437 -0.4863
  943MOL0     C27231  -0.386  11.087   6.144 -0.2801  0.1239 -0.6672
  943MOL0     C27232  -0.538  11.118   6.172 -0.4209 -1.0218 -0.7635
  943MOL0     C27233  -0.597  11.073   6.049 -0.4971 -1.0822  0.6976
  943MOL0     C27234  -0.634  11.030   5.943  0.2966  0.5593  0.9296
  943MOL0     C27235   0.089  11.294   6.190 -0.5636  0.6933 -0.7782
  943MOL0     C27236   0.226  11.308   6.194 -0.1211 -0.0413 -0.4317
  943MOL0     C27237   0.270  11.439   6.168 -0.1230  0.2861 -0.0840
  943MOL0     H27238   0.607  11.232   5.951 -2.8665 -1.8786  2.4743
  943MOL0     H27239   0.837  11.186   5.890  0.6389 -0.4496 -0.5822
  943MOL0     H27240   1.161  11.362   6.164  0.2693 -1.3626  3.2170
  943MOL0     H27241   1.153  11.191   6.204  0.1842  1.7184  1.8726
  943MOL0     H27242   1.370  11.258   6.089 -0.6468  0.8344  0.9852
  943MOL0     H27243   1.278  11.278   5.938  1.4029 -1.1160 -0.5872
  943MOL0     H27244   1.196  11.028   5.995  0.0092  1.9221 -1.2984
  943MOL0     H27245   1.319  11.033   6.124 -1.1931  3.3583  1.5641
  943MOL0     H27246   1.362  11.079   5.822  2.8035  3.7951 -0.1071
  943MOL0     H27247   1.483  11.113   5.943  0.0592  0.1651  0.8380
  943MOL0     H27248   1.525  10.904   5.842  1.5720 -1.7938  1.4840
  943MOL0     H27249   1.519  10.893   6.015  0.1048 -2.0617 -0.5662
  943MOL0     H27250   1.306  10.770   5.996  0.5233 -1.5761 -0.1857
  943MOL0     H27251   1.283  10.808   5.832 -1.6151  1.2864  1.8309
  943MOL0     H27252   1.477  10.604   5.957  0.3494  0.1677 -0.5746
  943MOL0     H27253   1.523  10.678   5.803 -0.2550  3.9244 -0.7017
  943MOL0     H27254   1.300  10.624   5.705  1.8595  0.1873 -0.1457
  943MOL0     H27255   1.380  10.475   5.762  1.0839  0.7784 -1.5047
  943MOL0     H27256   1.062  10.697   5.829  1.9549  1.8681  1.8768
  943MOL0     H27257   0.830  10.541   5.916 -0.1367 -3.3589  1.1520
  943MOL0     H27258   0.841  10.488   6.076  1.6868 -3.9764 -3.0790
  943MOL0     H27259   0.910  10.726   6.133  2.2601 -1.5771 -0.2917
  943MOL0     H27260   0.892  10.769   5.962  0.0057  0.4454 -0.1494
  943MOL0     H27261   0.681  10.652   6.155  0.8795 -0.6033  0.6397
  943MOL0     H27262   0.651  10.666   5.978 -2.0035  0.7220 -0.0149
  943MOL0     H27263   0.701  10.927   6.031 -4.5780  1.9910 -1.7756
  943MOL0     H27264   0.655  10.877   6.190 -0.2169  0.7621  0.1829
  943MOL0     H27265   0.274  10.854   5.965  2.2982  2.4516  0.6546
  943MOL0     H27266   0.082  10.740   6.062 -0.7208 -0.7241  1.2239
  943MOL0     H27267  -0.079  10.404   6.244 -0.0838  3.1396 -3.4845
  943MOL0     H27268  -0.287  10.269   6.292 -0.9435 -1.1577  1.1400
  943MOL0     H27269  -0.712  10.383   6.394 -1.6939  0.6862 -1.7568
  943MOL0     H27270  -0.628  10.537   6.412 -0.2012  1.6346 -1.7052
  943MOL0     H27271  -0.546  10.521   6.183  0.6293 -0.0162  2.7236
  943MOL0     H27272  -0.637  10.373   6.160  1.8734  1.6680 -1.4853
  943MOL0     H27273  -0.847  10.500   6.239 -1.1164  0.4656 -0.8056
  943MOL0     H27274  -0.740  10.651   6.226  0.5608  1.3442 -0.7999
  943MOL0     H27275  -0.835  10.460   5.998  3.3631  0.2350 -1.2715
  943MOL0     H27276  -0.702  10.580   5.998  0.5948  2.1412  3.0253
  943MOL0     H27277  -0.913  10.649   5.859 -0.4262 -0.3304 -1.2471
  943MOL0     H27278  -0.861  10.764   5.981 -0.0017 -0.7374  0.6416
  943MOL0     H27279  -1.072  10.551   6.002 -1.9826  0.5951  1.5556
  943MOL0     H27280  -1.033  10.673   6.131  0.1319  0.7194 -0.3086
  943MOL0     H27281  -1.134  10.739   5.846 -1.4823  2.0768 -1.0096
  943MOL0     H27282  -1.107  10.854   5.982  1.6486 -0.1241 -1.2459
  943MOL0     H27283  -1.297  10.699   6.103 -1.0878  0.0414  0.2764
  943MOL0     H27284  -1.333  10.825   5.973  3.5674  0.5976 -2.7635
  943MOL0     H27285  -0.449  10.632   6.462 -0.1322  0.4110 -1.1682
  943MOL0     H27286  -0.247  10.758   6.394  4.2234 -1.0675 -0.8543
  943MOL0     H27287   0.320  10.631   6.388 -5.3839  1.4114  1.4592
  943MOL0     H27288   0.523  10.717   6.281  0.4272 -3.2556 -0.2246
  943MOL0     H27289   0.947  11.345   6.281  0.9239  1.6522 -0.9586
  943MOL0     H27290   0.724  11.382   6.325  3.5069  2.5055 -0.3877
  943MOL0     H27291   0.326  10.999   6.270 -1.1525 -0.6268  0.5763
  943MOL0     H27292   0.063  10.963   6.258  2.4803 -2.1705 -1.8314
  943MOL0     H27293  -0.134  11.043   6.375 -0.8340  1.6154 -0.4201
  943MOL0     H27294  -0.144  10.971   6.210 -2.6309  0.4422 -2.0680
  943MOL0     H27295  -0.332  11.204   6.312  0.0298 -0.8006  1.8058
  943MOL0     H27296  -0.355  11.044   6.359 -0.3656  0.2530  0.2728
  943MOL0     H27297  -0.373  10.981   6.121 -0.1340 -0.8081  2.9899
  943MOL0     H27298  -0.351  11.153   6.065 -0.3198 -0.4065 -1.1321
  943MOL0     H27299  -0.586  11.060   6.251 -0.6380 -2.2835 -1.7885
  943MOL0     H27300  -0.554  11.225   6.191 -0.5487 -1.0143 -0.9120
  943MOL0     H27301  -0.654  10.971   5.856  0.2957  1.5978  0.2117
  943MOL0     H27302   0.029  11.382   6.170 -0.1456  1.7280  2.0013
  943MOL0     H27303   0.197  11.521   6.171  0.1044  0.5169  3.1048
  943MOL0     H27304   0.343  11.468   6.244 -1.5834 -0.1834  1.5642
  943MOL0     H27305   0.319  11.441   6.071  1.0482 -0.0930  0.4742
  944MOL0     O27306   8.388   8.251   0.348  0.2175 -0.0122 -0.3154
  944MOL0     C27307   8.282   8.206   0.393  0.4055  1.1215  0.2704
  944MOL0     O27308   8.273   8.119   0.492  1.1625 -0.0047  0.0021
  944MOL0     C27309   8.390   8.059   0.519  0.2022 -0.1555 -0.6445
  944MOL0     C27310   8.421   7.942   0.448 -0.0992 -0.3235 -0.3394
  944MOL0     C27311   8.552   7.892   0.452  0.2818  0.3162  0.1716
  944MOL0     C27312   8.648   7.949   0.534 -0.9139 -0.1216 -0.2875
  944MOL0     O27313   8.781   7.907   0.534 -0.3668  0.1114  0.4496
  944MOL0     C27314   8.829   7.842   0.420  1.0221 -0.4158  0.0585
  944MOL0     C27315   8.975   7.809   0.428  0.2388 -0.5242 -0.1197
  944MOL0     C27316   9.053   7.930   0.472  0.1381 -0.0965  0.6892
  944MOL0     C27317   9.201   7.906   0.429  0.1134 -0.2066  0.4705
  944MOL0     C27318   9.306   8.015   0.471  0.3639  0.7234  0.5868
  944MOL0     C27319   9.292   8.122   0.367  0.2050 -0.4543 -0.5079
  944MOL0     C27320   9.355   8.245   0.405 -0.1872 -0.5204 -0.9407
  944MOL0     C27321   9.502   8.245   0.379  0.3035 -0.3297 -0.2459
  944MOL0     N27322   9.559   8.381   0.358 -0.5770 -0.2332 -0.5070
  944MOL0     C27323   9.527   8.464   0.251  0.0800 -0.7257  0.3435
  944MOL0     C27324   9.590   8.585   0.280 -0.0431  0.1960 -0.1877
  944MOL0     C27325   9.598   8.704   0.188 -0.1369 -0.4545 -0.0877
  944MOL0     C27326   9.738   8.700   0.126  0.8357  0.2012  0.0665
  944MOL0     C27327   9.772   8.834   0.055  0.8221 -0.4467 -0.2771
  944MOL0     C27328   9.910   8.812  -0.010  0.5276 -0.6743  0.4138
  944MOL0     O27329   9.943   8.932  -0.084  0.4121  0.4351  0.3880
  944MOL0     C27330  10.064   8.936  -0.146 -0.0151  0.0282  0.0748
  944MOL0     C27331  10.092   9.049  -0.216 -0.3965 -0.5233 -0.7296
  944MOL0     C27332  10.218   9.076  -0.272 -0.1440 -0.3948  1.5953
  944MOL0     C27333  10.317   8.985  -0.263 -1.0105  0.4216 -0.1079
  944MOL0     C27334  10.458   9.018  -0.302 -0.6210  0.1971 -0.1812
  944MOL0     O27335  10.493   9.121  -0.386  0.4775 -0.3628 -1.0310
  944MOL0     C27336  10.622   9.149  -0.428 -0.2595  0.1065 -0.0712
  944MOL0     C27337  10.734   9.163  -0.352  0.0414  0.4850  0.9156
  944MOL0     C27338  10.858   9.184  -0.415  0.1631 -0.3445 -1.4836
  944MOL0     C27339  10.870   9.222  -0.545  0.5814  0.2684  0.5078
  944MOL0     O27340  10.995   9.260  -0.591  0.7503  0.2578 -0.1749
  944MOL0     C27341  11.019   9.270  -0.732 -0.1129  0.3995 -0.6789
  944MOL0     C27342  11.166   9.254  -0.757 -0.2460  0.7398 -0.2747
  944MOL0     C27343  11.200   9.250  -0.907 -0.0866 -0.0932 -0.0853
  944MOL0     C27344  11.335   9.319  -0.941  0.6277  0.5275 -0.3093
  944MOL0     C27345  11.369   9.274  -1.082  0.3805 -0.6047  0.4006
  944MOL0     C27346  11.509   9.316  -1.136 -0.3097 -0.0975  0.1410
  944MOL0     C27347  11.615   9.232  -1.061 -0.2281 -0.0046 -0.1401
  944MOL0     C27348  11.753   9.309  -1.032  0.4567 -0.4243 -0.5027
  944MOL0    Cl27349  11.820   9.376  -1.191  0.4155 -0.0016 -0.2427
  944MOL0     C27350  10.756   9.225  -0.624  0.7091  0.7752  0.4942
  944MOL0     C27351  10.636   9.184  -0.568 -0.5648  0.0969 -0.6434
  944MOL0     O27352  10.542   8.954  -0.250  0.0586 -0.6772  0.1468
  944MOL0     C27353  10.296   8.861  -0.199  0.2965 -0.2599  0.5617
  944MOL0     C27354  10.171   8.846  -0.138  0.2709 -0.4476  0.3532
  944MOL0     N27355   9.660   8.567   0.401  0.0921 -0.5390 -0.4131
  944MOL0     N27356   9.646   8.451   0.441 -0.7209  0.8407 -0.0780
  944MOL0     C27357   8.617   8.064   0.618 -0.6522  1.4699 -0.2274
  944MOL0     C27358   8.488   8.118   0.602 -0.2819 -0.1012 -0.7339
  944MOL0     C27359   8.151   8.250   0.331 -0.2797 -0.2164 -0.0986
  944MOL0     C27360   8.035   8.182   0.374 -0.5553 -0.4188 -0.2960
  944MOL0     C27361   7.911   8.222   0.327  0.0742  0.3530  0.0512
  944MOL0     C27362   7.891   8.322   0.233  0.2047 -0.0655  0.4643
  944MOL0     O27363   7.772   8.373   0.182  0.4186  0.3303 -0.1378
  944MOL0     C27364   7.651   8.296   0.201  0.5627  0.2910  0.2127
  944MOL0     C27365   7.541   8.381   0.266  0.5424  0.2322 -0.9102
  944MOL0     C27366   7.403   8.322   0.285 -0.1884 -0.0619  0.3346
  944MOL0     C27367   7.310   8.431   0.352  0.5138  0.3775 -0.3828
  944MOL0     C27368   7.340   8.448   0.498 -0.7930  0.6135 -0.4014
  944MOL0     C27369   7.362   8.473   0.614 -0.0124 -0.1103  0.7374
  944MOL0     C27370   8.004   8.393   0.197 -0.1026 -0.0444  1.0919
  944MOL0     C27371   8.133   8.359   0.240  0.0880  0.3211 -0.3551
  944MOL0     C27372   8.249   8.429   0.177  0.4310 -0.0015 -0.5408
  944MOL0     H27373   8.339   7.894   0.395 -0.8250 -1.7422  1.9598
  944MOL0     H27374   8.562   7.803   0.391  0.5503  0.8066 -0.5049
  944MOL0     H27375   8.769   7.752   0.407 -0.7156  0.5908  0.8243
  944MOL0     H27376   8.815   7.910   0.336  0.5439  1.0326  1.2621
  944MOL0     H27377   9.016   7.792   0.328  3.4740  0.7063  0.8673
  944MOL0     H27378   8.981   7.713   0.481 -0.6449 -0.9386 -0.7488
  944MOL0     H27379   9.044   7.944   0.580 -0.5573 -0.3310  0.6705
  944MOL0     H27380   9.005   8.014   0.422  3.4347  0.7956 -1.2179
  944MOL0     H27381   9.235   7.819   0.487  1.5572  0.3000  0.4193
  944MOL0     H27382   9.216   7.887   0.322  1.6283  0.9807  0.4425
  944MOL0     H27383   9.299   8.055   0.573  1.2659  2.7931 -0.1288
  944MOL0     H27384   9.402   7.966   0.456 -0.5399 -0.3245 -2.3784
  944MOL0     H27385   9.320   8.085   0.268  0.5828 -0.4844 -0.3905
  944MOL0     H27386   9.187   8.150   0.354  0.1492 -1.6818 -3.8063
  944MOL0     H27387   9.342   8.265   0.512  0.3326 -1.1795 -0.7510
  944MOL0     H27388   9.322   8.326   0.340  2.1812  0.4447 -1.0246
  944MOL0     H27389   9.553   8.192   0.459 -0.0724 -3.0815 -1.7305
  944MOL0     H27390   9.520   8.184   0.290 -0.0957 -2.0277  0.8094
  944MOL0     H27391   9.467   8.447   0.163 -0.7619 -0.0832  0.7750
  944MOL0     H27392   9.520   8.708   0.112 -1.1546 -0.3951  0.9234
  944MOL0     H27393   9.593   8.801   0.238  4.5676 -0.9767  1.9343
  944MOL0     H27394   9.814   8.697   0.205  2.7597  0.4209 -1.6894
  944MOL0     H27395   9.753   8.612   0.063 -0.3524  0.3164 -0.3980
  944MOL0     H27396   9.766   8.912   0.131  0.8003 -1.1859  0.4979
  944MOL0     H27397   9.694   8.860  -0.017  1.5718 -0.3339 -1.0662
  944MOL0     H27398   9.915   8.718  -0.065 -1.4865 -1.3167  1.2751
  944MOL0     H27399   9.982   8.812   0.073  0.6616  1.9448  0.3938
  944MOL0     H27400  10.012   9.122  -0.224 -0.2223 -0.1793  0.5107
  944MOL0     H27401  10.247   9.168  -0.322  0.8696 -1.3888  0.2934
  944MOL0     H27402  10.726   9.145  -0.245  0.6586  0.7390  1.0112
  944MOL0     H27403  10.952   9.179  -0.362  0.1729  3.0300 -0.9188
  944MOL0     H27404  10.970   9.204  -0.803  1.6403 -0.2117 -1.3579
  944MOL0     H27405  11.003   9.375  -0.759  0.9622  1.3596  2.0140
  944MOL0     H27406  11.213   9.346  -0.722 -2.4876  2.4343 -1.4867
  944MOL0     H27407  11.211   9.164  -0.712 -1.3469  0.9597  1.3811
  944MOL0     H27408  11.210   9.146  -0.938  1.8661  0.6402 -2.0939
  944MOL0     H27409  11.113   9.292  -0.958 -0.1035  0.1595  0.1495
  944MOL0     H27410  11.414   9.285  -0.872  0.7327  0.7455 -0.3220
  944MOL0     H27411  11.322   9.427  -0.926  2.0792  0.5927  0.7830
  944MOL0     H27412  11.301   9.322  -1.152 -2.0488  0.0019  2.9705
  944MOL0     H27413  11.345   9.168  -1.097  2.1756 -1.0243  0.2746
  944MOL0     H27414  11.522   9.293  -1.242  3.7704  1.2172  0.1930
  944MOL0     H27415  11.526   9.422  -1.117 -1.7134 -0.2563  2.8700
  944MOL0     H27416  11.619   9.135  -1.111 -1.9613 -0.7403  1.0685
  944MOL0     H27417  11.584   9.199  -0.961  1.2516  0.8318  0.6352
  944MOL0     H27418  11.712   9.391  -0.972  3.3130 -0.1820  1.3190
  944MOL0     H27419  11.832   9.260  -0.974  0.1345  1.1969  1.4247
  944MOL0     H27420  10.753   9.258  -0.727 -0.0144 -1.2756 -0.1948
  944MOL0     H27421  10.553   9.188  -0.637  0.1264 -1.0783 -1.5800
  944MOL0     H27422  10.375   8.787  -0.200  3.6147  2.9956 -1.1026
  944MOL0     H27423  10.164   8.761  -0.070  1.5250 -1.1253 -0.3188
  944MOL0     H27424   8.696   8.096   0.685  0.0129 -0.3153 -0.1069
  944MOL0     H27425   8.462   8.205   0.662  1.9852  0.0393  0.1174
  944MOL0     H27426   8.039   8.094   0.438  0.2428 -1.0591 -1.1883
  944MOL0     H27427   7.833   8.152   0.357  0.9982 -0.1084  1.4836
  944MOL0     H27428   7.669   8.205   0.259 -0.0185 -1.0067 -1.5497
  944MOL0     H27429   7.622   8.264   0.100  2.2455 -0.0482 -0.1878
  944MOL0     H27430   7.523   8.469   0.203 -1.1304  0.5819 -0.0102
  944MOL0     H27431   7.587   8.420   0.357  2.2218 -0.5523 -1.3940
  944MOL0     H27432   7.410   8.227   0.340  1.3527  1.7613  3.5457
  944MOL0     H27433   7.358   8.298   0.188 -3.1387  2.6658  0.8821
  944MOL0     H27434   7.319   8.531   0.309  0.9249  0.1966 -0.7204
  944MOL0     H27435   7.206   8.401   0.333 -0.0226  3.5741 -3.5541
  944MOL0     H27436   7.378   8.488   0.719 -1.0532  0.5367  0.8176
  944MOL0     H27437   7.990   8.463   0.115 -1.1820  0.2529  1.5134
  944MOL0     H27438   8.296   8.497   0.249  0.1622 -1.3664  0.9767
  944MOL0     H27439   8.318   8.355   0.136 -0.9835  0.3120 -3.8225
  944MOL0     H27440   8.212   8.488   0.093 -0.3180  0.4232  0.0664
  945MOL0     O27441   0.080   4.754   9.928 -0.3369  0.2698  0.4366
  945MOL0     C27442   0.100   4.846   9.855 -0.1876  0.0190  0.5408
  945MOL0     O27443   0.225   4.895   9.833  0.1824 -0.2523 -1.0009
  945MOL0     C27444   0.331   4.845   9.896 -0.0999  0.1029  0.0444
  945MOL0     C27445   0.384   4.920  10.003 -0.6162  0.0476  0.4224
  945MOL0     C27446   0.501   4.874  10.070 -0.4215 -0.6936 -0.0665
  945MOL0     C27447   0.558   4.755  10.034 -0.0980  0.0302  0.3918
  945MOL0     O27448   0.683   4.735  10.081 -0.3967  0.1271 -1.0252
  945MOL0     C27449   0.719   4.597  10.100 -0.7013 -0.3861 -0.0505
  945MOL0     C27450   0.840   4.563  10.014 -0.7901 -0.8961  0.2254
  945MOL0     C27451   0.961   4.654  10.053  0.1778  0.1088  0.2385
  945MOL0     C27452   1.070   4.657   9.942 -0.7167 -0.7094 -0.3396
  945MOL0     C27453   1.199   4.712   9.999  0.4448 -0.2005  0.0970
  945MOL0     C27454   1.316   4.688   9.907  0.7642  0.3487 -0.9642
  945MOL0     C27455   1.451   4.707   9.969  0.0607 -0.3006 -0.3918
  945MOL0     C27456   1.479   4.847  10.028  0.1328 -0.1002  0.2720
  945MOL0     N27457   1.624   4.859  10.047  0.3347  0.4968 -0.8752
  945MOL0     C27458   1.701   4.790  10.141 -0.1113 -0.4782  0.7424
  945MOL0     C27459   1.824   4.855  10.133  1.1444 -0.5615 -0.4507
  945MOL0     C27460   1.953   4.808  10.194 -0.8128 -0.9736 -0.0688
  945MOL0     C27461   1.964   4.850  10.344 -0.1392 -0.2658 -0.1525
  945MOL0     C27462   2.067   4.771  10.418  0.1351 -0.4018 -0.4111
  945MOL0     C27463   2.024   4.629  10.432 -1.0038  0.9542 -0.4328
  945MOL0     O27464   2.086   4.540  10.335  0.1380  0.4102 -0.4219
  945MOL0     C27465   2.220   4.513  10.354 -0.3631 -0.6420 -0.2503
  945MOL0     C27466   2.284   4.431  10.257 -0.8912 -0.4734  0.0500
  945MOL0     C27467   2.421   4.407  10.254  0.5788  0.9687  0.0443
  945MOL0     C27468   2.499   4.453  10.357 -0.1896  1.1910 -0.2437
  945MOL0     C27469   2.645   4.418  10.358 -0.0370  0.1979  0.5026
  945MOL0     O27470   2.688   4.319  10.274 -0.0784  0.3777  0.1600
  945MOL0     C27471   2.802   4.243  10.317 -0.0275 -1.1307  0.0898
  945MOL0     C27472   2.890   4.222  10.221 -0.9189 -0.2579  0.2504
  945MOL0     C27473   3.002   4.150  10.247 -0.1089  0.1532 -0.8393
  945MOL0     C27474   3.036   4.101  10.385 -0.1322 -0.6192 -0.8285
  945MOL0     O27475   3.152   4.029  10.395  0.0843  0.9427 -0.3336
  945MOL0     C27476   3.200   4.003  10.528  0.9804  0.3075 -0.1656
  945MOL0     C27477   3.343   3.952  10.513  0.2282 -0.9047  0.4361
  945MOL0     C27478   3.450   4.063  10.486  0.2290  0.2320  0.0613
  945MOL0     C27479   3.569   4.000  10.411 -0.6696 -0.4740  0.1500
  945MOL0     C27480   3.677   4.101  10.391 -0.9508  0.0656 -0.0815
  945MOL0     C27481   3.787   4.043  10.302 -0.7536 -0.2240 -0.6101
  945MOL0     C27482   3.856   3.928  10.375  0.0251 -0.0235 -0.5070
  945MOL0     C27483   3.994   3.889  10.323  0.0173  1.1919  0.5694
  945MOL0    Cl27484   4.112   4.019  10.337 -0.5651  0.5322  0.3274
  945MOL0     C27485   2.943   4.137  10.494 -0.0400 -0.1010 -0.0403
  945MOL0     C27486   2.824   4.198  10.450  0.4234 -0.8473 -0.6500
  945MOL0     O27487   2.712   4.484  10.438  0.3242 -0.7832  0.9605
  945MOL0     C27488   2.438   4.527  10.460 -0.7629 -0.1501 -1.2083
  945MOL0     C27489   2.301   4.558  10.457  0.7315 -0.3416 -0.4487
  945MOL0     N27490   1.818   4.960  10.039 -0.7567 -0.3026  0.1559
  945MOL0     N27491   1.692   4.962   9.994 -0.6306 -0.2612 -0.0222
  945MOL0     C27492   0.502   4.682   9.929 -0.4842  0.2158  0.1981
  945MOL0     C27493   0.394   4.729   9.857 -0.2734 -0.2499  0.3637
  945MOL0     C27494  -0.009   4.916   9.775 -0.0118  0.6113  0.2881
  945MOL0     C27495   0.018   5.013   9.683 -0.7542 -0.2447 -0.2646
  945MOL0     C27496  -0.074   5.074   9.598 -0.2877  0.3196 -0.4069
  945MOL0     C27497  -0.204   5.057   9.618 -0.1148  0.5309 -0.3419
  945MOL0     O27498  -0.307   5.124   9.558 -0.6408 -0.5280 -0.4234
  945MOL0     C27499  -0.349   5.252   9.620 -0.3192  0.0946  0.5534
  945MOL0     C27500  -0.393   5.348   9.523 -0.5188 -0.2074  1.0295
  945MOL0     C27501  -0.466   5.476   9.579 -0.6483 -0.1318  0.0756
  945MOL0     C27502  -0.499   5.578   9.467 -0.1361 -1.0816 -0.5842
  945MOL0     C27503  -0.579   5.698   9.511  0.9152  0.1596  0.2264
  945MOL0     C27504  -0.653   5.791   9.550  0.2254 -0.0174  0.2410
  945MOL0     C27505  -0.238   4.959   9.712  0.7763  1.0787  0.3477
  945MOL0     C27506  -0.146   4.884   9.786  0.0208 -0.3584  0.4331
  945MOL0     C27507  -0.206   4.773   9.877 -0.4232 -0.0817 -0.2647
  945MOL0     H27508   0.342   5.015  10.037 -0.3084  0.2367  0.2705
  945MOL0     H27509   0.544   4.944  10.140 -1.0762 -0.3147 -0.0335
  945MOL0     H27510   0.755   4.592  10.203  2.3126  0.2590 -0.9685
  945MOL0     H27511   0.641   4.523  10.077 -1.3410  0.3727 -0.3979
  945MOL0     H27512   0.813   4.571   9.909 -0.2942 -0.0578  0.1559
  945MOL0     H27513   0.885   4.465  10.036  0.1473 -0.2050  1.5824
  945MOL0     H27514   1.002   4.599  10.138 -1.6846 -0.3447  0.8821
  945MOL0     H27515   0.923   4.754  10.074 -1.9072 -0.5079 -0.4040
  945MOL0     H27516   1.080   4.550   9.920 -3.3053 -0.9575 -0.6603
  945MOL0     H27517   1.044   4.709   9.850  1.4342 -1.7664 -1.6138
  945MOL0     H27518   1.188   4.820  10.012  3.1651  0.2535 -0.7305
  945MOL0     H27519   1.219   4.661  10.094  0.4283 -0.6364 -0.1320
  945MOL0     H27520   1.311   4.586   9.870 -2.7199  0.6003 -1.4916
  945MOL0     H27521   1.298   4.747   9.817 -1.3259 -0.1852 -0.9400
  945MOL0     H27522   1.515   4.699   9.881  0.6984  2.1274 -0.2206
  945MOL0     H27523   1.473   4.626  10.040  3.1320  1.1337  0.4643
  945MOL0     H27524   1.443   4.920   9.955 -2.5732 -0.6610  0.9079
  945MOL0     H27525   1.427   4.867  10.122 -0.6389 -2.1639  0.3609
  945MOL0     H27526   1.674   4.704  10.201  1.6979 -1.7417 -0.1644
  945MOL0     H27527   1.962   4.700  10.176  0.0597 -1.0589  0.8251
  945MOL0     H27528   2.029   4.857  10.132 -3.2330 -0.7473 -3.1248
  945MOL0     H27529   2.015   4.947  10.339  2.1325 -1.3292  0.7967
  945MOL0     H27530   1.872   4.838  10.402 -0.6128  1.4827 -0.4831
  945MOL0     H27531   2.075   4.814  10.518  0.6744 -2.2145  0.3712
  945MOL0     H27532   2.164   4.776  10.369 -0.1949  2.2575 -0.9348
  945MOL0     H27533   1.915   4.620  10.423 -1.3106  2.7556  1.0067
  945MOL0     H27534   2.060   4.602  10.532  1.1233 -0.1531 -1.4162
  945MOL0     H27535   2.229   4.391  10.172 -0.4901 -2.7458  0.7949
  945MOL0     H27536   2.462   4.348  10.173 -0.2601  2.4515 -1.5231
  945MOL0     H27537   2.868   4.257  10.121  0.3933  0.2543  0.1088
  945MOL0     H27538   3.072   4.122  10.169  0.1623 -0.8840 -0.2479
  945MOL0     H27539   3.191   4.099  10.580  2.5076  0.6086 -0.4149
  945MOL0     H27540   3.139   3.925  10.576  0.5511  0.0675 -1.0835
  945MOL0     H27541   3.377   3.892  10.598  2.5279 -0.3502 -0.0517
  945MOL0     H27542   3.341   3.884  10.428  1.1899 -0.9337  0.4336
  945MOL0     H27543   3.407   4.140  10.421  1.3721  1.7371  1.0125
  945MOL0     H27544   3.487   4.108  10.579  2.2883 -0.9033 -0.1461
  945MOL0     H27545   3.534   3.957  10.317  0.0893 -0.0446 -0.3411
  945MOL0     H27546   3.613   3.929  10.481  2.7964  0.2127 -1.0985
  945MOL0     H27547   3.717   4.125  10.490  0.8972 -1.8246 -0.2986
  945MOL0     H27548   3.638   4.191  10.342  1.0572 -0.8661 -3.8302
  945MOL0     H27549   3.743   4.006  10.209 -1.9881  0.1358 -0.1927
  945MOL0     H27550   3.858   4.124  10.287  0.4815 -1.2532 -0.4530
  945MOL0     H27551   3.789   3.842  10.373 -1.2337  0.8275  1.8385
  945MOL0     H27552   3.867   3.950  10.481  1.1941  0.8492 -0.7754
  945MOL0     H27553   4.011   3.798  10.382 -2.2223 -0.8574 -1.6890
  945MOL0     H27554   3.981   3.856  10.220 -0.0298 -1.9234  1.4768
  945MOL0     H27555   2.961   4.113  10.598 -0.3787  0.2673  0.1011
  945MOL0     H27556   2.748   4.224  10.523  0.8186  0.5665 -0.7162
  945MOL0     H27557   2.499   4.568  10.540 -1.2378 -4.2343  1.5878
  945MOL0     H27558   2.253   4.620  10.532  1.5112  0.2108 -0.3904
  945MOL0     H27559   0.552   4.590   9.899 -1.8760 -0.0254 -1.5693
  945MOL0     H27560   0.350   4.679   9.772 -3.6074  1.3498  0.9997
  945MOL0     H27561   0.121   5.045   9.671 -0.9196  1.1692  1.6060
  945MOL0     H27562  -0.034   5.156   9.539  0.5941  1.3667  1.5648
  945MOL0     H27563  -0.271   5.306   9.675 -1.1164  0.4962  1.2962
  945MOL0     H27564  -0.437   5.225   9.678 -1.2473 -1.1611 -1.3138
  945MOL0     H27565  -0.466   5.287   9.469 -2.3505  0.9429  2.0806
  945MOL0     H27566  -0.315   5.375   9.452 -2.1312  2.4369  0.1064
  945MOL0     H27567  -0.399   5.517   9.656 -1.8339  1.7895  0.1450
  945MOL0     H27568  -0.561   5.443   9.622  0.6222 -0.6895  2.6779
  945MOL0     H27569  -0.397   5.604   9.437  0.7580 -1.4912  1.8578
  945MOL0     H27570  -0.550   5.533   9.381 -1.3100 -3.7090  1.3537
  945MOL0     H27571  -0.727   5.864   9.577  0.1811  0.3408 -0.7964
  945MOL0     H27572  -0.343   4.937   9.727  0.8418  0.3320 -0.1816
  945MOL0     H27573  -0.196   4.792   9.985 -0.4370 -1.1902 -0.0535
  945MOL0     H27574  -0.314   4.772   9.857 -0.9520  3.3411  1.4964
  945MOL0     H27575  -0.164   4.676   9.852  1.2545  0.6882 -0.5724
  946MOL0     O27576   4.244   0.550   5.250  0.0324  0.2586 -0.3640
  946MOL0     C27577   4.186   0.448   5.298  0.2839  0.0357  0.2530
  946MOL0     O27578   4.245   0.326   5.328  0.2824  0.5951 -0.1558
  946MOL0     C27579   4.369   0.313   5.282  0.6499  0.2445  0.0620
  946MOL0     C27580   4.379   0.257   5.155 -1.4517 -0.5739 -0.7454
  946MOL0     C27581   4.513   0.231   5.099 -0.2580 -0.9965  0.2931
  946MOL0     C27582   4.622   0.263   5.167 -0.8227  0.0885 -0.5333
  946MOL0     O27583   4.742   0.219   5.111  0.5194 -0.1623 -0.3384
  946MOL0     C27584   4.836   0.143   5.194  0.0126 -0.6092 -0.0435
  946MOL0     C27585   4.963   0.126   5.118 -0.4453  0.5248  0.3339
  946MOL0     C27586   5.049   0.254   5.126 -0.2404  0.3531 -0.4758
  946MOL0     C27587   5.171   0.257   5.036 -0.3296  0.7035  0.1901
  946MOL0     C27588   5.133   0.295   4.884 -0.6305 -0.6747 -0.1679
  946MOL0     C27589   5.260   0.326   4.802  0.6872 -0.3120 -0.2708
  946MOL0     C27590   5.233   0.381   4.667  0.1092 -0.3418 -0.7683
  946MOL0     C27591   5.236   0.272   4.558  0.1888 -0.3002  0.4311
  946MOL0     N27592   5.372   0.255   4.499  0.8802  0.1692 -0.4438
  946MOL0     C27593   5.468   0.170   4.551 -0.0157  0.4499  1.0235
  946MOL0     C27594   5.570   0.177   4.457  0.4977 -0.0479  0.5047
  946MOL0     C27595   5.707   0.117   4.444 -0.2187  0.6938 -0.2518
  946MOL0     C27596   5.794   0.144   4.570 -0.2768 -0.1947  1.2114
  946MOL0     C27597   5.945   0.124   4.551  0.1681 -0.7469 -0.2610
  946MOL0     C27598   6.018   0.242   4.496 -1.0813 -0.1253  0.3285
  946MOL0     O27599   6.155   0.188   4.470  0.4845  0.1334  0.2702
  946MOL0     C27600   6.241   0.247   4.381 -0.4121  0.5662  0.3868
  946MOL0     C27601   6.212   0.370   4.321 -0.3300 -0.2556  0.7534
  946MOL0     C27602   6.307   0.434   4.236  0.1592  1.1138 -0.0421
  946MOL0     C27603   6.425   0.361   4.200 -0.0557  0.2162  0.4344
  946MOL0     C27604   6.503   0.413   4.090  0.0180 -0.0797 -0.3069
  946MOL0     O27605   6.464   0.544   4.050 -0.6370  0.0209  0.9150
  946MOL0     C27606   6.539   0.595   3.948  0.2908  0.1880 -0.6274
  946MOL0     C27607   6.488   0.650   3.829  0.0486  0.0206 -0.1164
  946MOL0     C27608   6.569   0.716   3.736 -1.4342  0.2241  0.4428
  946MOL0     C27609   6.707   0.724   3.750 -0.2791 -0.0954 -0.2733
  946MOL0     O27610   6.801   0.771   3.651 -0.0969  0.5088 -0.4364
  946MOL0     C27611   6.753   0.848   3.535 -0.2330  0.5740 -0.1607
  946MOL0     C27612   6.869   0.909   3.451  0.1150 -0.0164 -0.0538
  946MOL0     C27613   6.962   0.786   3.417  0.1051  0.2215 -0.3528
  946MOL0     C27614   7.087   0.837   3.336  0.1895 -0.0541  0.1382
  946MOL0     C27615   7.191   0.729   3.312 -0.3665 -0.5074  0.1290
  946MOL0     C27616   7.319   0.785   3.245 -0.2342  0.0740 -0.1427
  946MOL0     C27617   7.410   0.666   3.210 -0.0611 -0.4558  0.1529
  946MOL0     C27618   7.555   0.688   3.264 -0.1337 -0.7351  0.2511
  946MOL0    Cl27619   7.659   0.591   3.168 -0.6235  0.2412  0.2438
  946MOL0     C27620   6.761   0.666   3.865  0.1290  0.3704 -0.5646
  946MOL0     C27621   6.680   0.612   3.963  0.1326 -0.2520  1.4059
  946MOL0     O27622   6.590   0.346   4.043  0.2005 -0.3920  0.1947
  946MOL0     C27623   6.456   0.236   4.261  0.3636  0.8333 -0.4662
  946MOL0     C27624   6.362   0.185   4.351  0.1281 -0.1229 -0.6026
  946MOL0     N27625   5.526   0.250   4.346 -0.0577  0.9758  0.3594
  946MOL0     N27626   5.401   0.295   4.374 -0.6292 -0.2305  0.1285
  946MOL0     C27627   4.612   0.318   5.298  0.4034 -0.7687 -0.0573
  946MOL0     C27628   4.487   0.344   5.359  0.0188  0.0312 -0.5709
  946MOL0     C27629   4.046   0.466   5.328  0.0070 -1.1533 -0.0773
  946MOL0     C27630   4.007   0.595   5.369  0.1134  0.4680  0.5804
  946MOL0     C27631   3.876   0.628   5.391  0.3450 -0.4999  0.4969
  946MOL0     C27632   3.777   0.535   5.365 -0.1238  0.8519 -0.7625
  946MOL0     O27633   3.650   0.566   5.401  0.0494 -0.3901  0.5137
  946MOL0     C27634   3.536   0.490   5.360  0.1232 -0.1447 -0.3926
  946MOL0     C27635   3.498   0.387   5.473  0.6248  0.7405 -0.7306
  946MOL0     C27636   3.361   0.321   5.450 -0.6153 -0.4362 -0.1858
  946MOL0     C27637   3.342   0.269   5.309  0.1309  0.8738 -0.2757
  946MOL0     C27638   3.201   0.231   5.304 -0.9294  0.2979  0.5097
  946MOL0     C27639   3.087   0.185   5.297  0.0414 -0.8126  0.0722
  946MOL0     C27640   3.812   0.407   5.320  0.4725 -0.2127 -0.4470
  946MOL0     C27641   3.943   0.374   5.302  0.3751  0.1157 -0.5758
  946MOL0     C27642   3.968   0.234   5.249 -0.1925  0.7995  0.6009
  946MOL0     H27643   4.288   0.251   5.095 -0.9730 -0.1049 -1.5404
  946MOL0     H27644   4.514   0.200   4.995 -1.3010 -0.0537 -0.0134
  946MOL0     H27645   4.845   0.192   5.291 -1.2952 -0.3245 -0.0412
  946MOL0     H27646   4.795   0.043   5.213  0.5123 -0.8671 -0.3008
  946MOL0     H27647   4.947   0.114   5.010  1.5317  0.6618 -0.0163
  946MOL0     H27648   5.022   0.042   5.156 -0.1393 -1.3309 -3.6519
  946MOL0     H27649   5.094   0.268   5.225 -0.9965  1.2954 -0.2493
  946MOL0     H27650   4.974   0.333   5.115 -0.4123  0.1015 -1.1370
  946MOL0     H27651   5.245   0.331   5.067  0.5016  0.6743 -1.5623
  946MOL0     H27652   5.229   0.164   5.043 -1.9947 -0.2617  2.6609
  946MOL0     H27653   5.081   0.217   4.828 -0.2458  0.9172 -2.9194
  946MOL0     H27654   5.065   0.380   4.892  2.0954  1.4806  4.4041
  946MOL0     H27655   5.307   0.409   4.855 -3.7274  1.4851  1.2871
  946MOL0     H27656   5.317   0.233   4.793 -2.5426 -2.7319  1.9815
  946MOL0     H27657   5.321   0.445   4.651  1.0765 -0.9414  1.6691
  946MOL0     H27658   5.144   0.444   4.669 -1.0792 -1.9844 -0.3971
  946MOL0     H27659   5.215   0.172   4.599  0.2367 -1.4092 -2.0960
  946MOL0     H27660   5.162   0.299   4.483  1.8814  2.2260 -0.4788
  946MOL0     H27661   5.454   0.095   4.628  1.7345 -1.7782 -0.6876
  946MOL0     H27662   5.697   0.009   4.426  0.4623  0.1302  2.2966
  946MOL0     H27663   5.762   0.157   4.359  0.2391 -0.3842 -0.4824
  946MOL0     H27664   5.779   0.249   4.598  1.1816 -0.3850  2.8757
  946MOL0     H27665   5.770   0.077   4.653 -1.2863  0.0293  1.1143
  946MOL0     H27666   5.965   0.037   4.488 -4.0752 -2.4506  0.4501
  946MOL0     H27667   5.992   0.100   4.647 -0.5409  0.9984  0.5644
  946MOL0     H27668   6.032   0.316   4.575  0.9825 -2.2410  2.0833
  946MOL0     H27669   5.968   0.286   4.409 -1.3056  0.9293  0.9684
  946MOL0     H27670   6.123   0.428   4.343  0.7928  2.0120 -0.3994
  946MOL0     H27671   6.286   0.533   4.196 -0.1300  1.2023  0.3283
  946MOL0     H27672   6.381   0.641   3.809  0.0709 -0.1198 -0.1679
  946MOL0     H27673   6.517   0.749   3.647 -0.9140 -1.5456 -0.5525
  946MOL0     H27674   6.684   0.779   3.487  1.2996 -1.0938 -0.0842
  946MOL0     H27675   6.708   0.937   3.580  0.2933  1.9107 -2.1550
  946MOL0     H27676   6.829   0.972   3.371 -0.5788 -2.1459 -1.4808
  946MOL0     H27677   6.928   0.984   3.504 -1.2296  0.6431  0.5614
  946MOL0     H27678   6.985   0.734   3.510  2.5422  1.4757 -0.1483
  946MOL0     H27679   6.909   0.702   3.372  0.7528 -1.2237  1.4580
  946MOL0     H27680   7.128   0.925   3.387  1.4646 -1.3556  1.4842
  946MOL0     H27681   7.054   0.876   3.239 -2.1826 -1.2904  0.3636
  946MOL0     H27682   7.144   0.655   3.247  1.0248 -0.0890 -1.4207
  946MOL0     H27683   7.221   0.682   3.407 -0.1420  2.0996  1.4263
  946MOL0     H27684   7.301   0.848   3.157 -1.5117 -1.9848 -1.4425
  946MOL0     H27685   7.375   0.850   3.313  2.1760  1.7243 -3.3636
  946MOL0     H27686   7.402   0.657   3.101  1.4090 -2.4868  0.1491
  946MOL0     H27687   7.371   0.576   3.259  0.2628 -0.5361  0.2688
  946MOL0     H27688   7.585   0.791   3.242  0.1330 -1.3852 -2.8368
  946MOL0     H27689   7.575   0.673   3.370  2.2815 -1.2069 -0.2229
  946MOL0     H27690   6.868   0.665   3.887  0.0535  0.7735 -0.1756
  946MOL0     H27691   6.722   0.551   4.042 -1.1397  0.2135  2.4765
  946MOL0     H27692   6.542   0.172   4.241  0.1285  0.2895  0.2169
  946MOL0     H27693   6.385   0.093   4.404 -1.1872 -0.1260  0.0099
  946MOL0     H27694   4.697   0.338   5.363  0.5083 -2.9318  0.5217
  946MOL0     H27695   4.485   0.382   5.461  2.8822 -0.4037 -0.2658
  946MOL0     H27696   4.088   0.664   5.386  1.4856 -1.1976  1.0912
  946MOL0     H27697   3.856   0.729   5.426  0.5204  0.1905 -1.2778
  946MOL0     H27698   3.557   0.449   5.260  2.3219  2.7782 -1.2738
  946MOL0     H27699   3.451   0.555   5.340  2.4327  2.1795 -3.8012
  946MOL0     H27700   3.496   0.439   5.569 -0.0962  0.5759 -0.6533
  946MOL0     H27701   3.570   0.304   5.480  0.6638  0.5168 -3.0432
  946MOL0     H27702   3.290   0.404   5.458 -1.2909 -0.9705 -0.5148
  946MOL0     H27703   3.335   0.240   5.518 -2.0393 -0.3111 -0.5496
  946MOL0     H27704   3.363   0.346   5.234  0.1098  0.6150 -0.5521
  946MOL0     H27705   3.412   0.184   5.306 -0.2729  0.5202  0.2291
  946MOL0     H27706   2.991   0.141   5.281 -0.4318  0.8629 -2.2366
  946MOL0     H27707   3.735   0.331   5.317 -0.3068  0.2435  3.2896
  946MOL0     H27708   4.035   0.244   5.163  0.6192 -1.4086  0.9186
  946MOL0     H27709   4.017   0.174   5.325  1.7741  1.1766 -0.3054
  946MOL0     H27710   3.877   0.187   5.209 -0.1006  1.3735 -0.3130
  947MOL0     O27711   8.753  10.020   0.138  0.3121 -1.0350 -0.5609
  947MOL0     C27712   8.705  10.036   0.247  0.1392  0.1453 -0.3240
  947MOL0     O27713   8.733  10.133   0.337  0.7025 -0.1448 -0.4815
  947MOL0     C27714   8.804  10.245   0.297  0.1728  0.2939 -0.1838
  947MOL0     C27715   8.895  10.294   0.397  0.3020 -0.6001  0.8796
  947MOL0     C27716   8.976  10.405   0.368 -0.3640  0.1820 -0.2211
  947MOL0     C27717   8.955  10.477   0.253  1.1011 -0.7054 -0.7295
  947MOL0     O27718   9.035  10.578   0.206 -1.0791 -0.1228  0.7798
  947MOL0     C27719   9.174  10.589   0.257 -0.1332  0.1769  0.5764
  947MOL0     C27720   9.227  10.708   0.185  0.1712  0.5824 -0.1828
  947MOL0     C27721   9.380  10.728   0.197  0.6878 -0.0110  0.3003
  947MOL0     C27722   9.471  10.619   0.132 -1.1789 -0.1654  0.1579
  947MOL0     C27723   9.616  10.659   0.150  0.0129  0.5217 -0.1255
  947MOL0     C27724   9.707  10.528   0.110  0.5627  0.3269 -0.7071
  947MOL0     C27725   9.850  10.568   0.126 -0.2045 -0.4379 -0.2590
  947MOL0     C27726   9.946  10.454   0.133  1.2059 -0.3023 -0.1589
  947MOL0     N27727  10.085  10.486   0.141  0.5034  0.4130  0.0097
  947MOL0     C27728  10.188  10.417   0.080 -0.6005 -0.1859  0.1861
  947MOL0     C27729  10.293  10.468   0.140  0.4930 -0.3805  0.5362
  947MOL0     C27730  10.426  10.401   0.126 -0.4049 -0.3895 -0.0288
  947MOL0     C27731  10.543  10.507   0.143  0.0567 -0.6758 -0.2862
  947MOL0     C27732  10.681  10.455   0.106  0.8982  0.0689 -0.6492
  947MOL0     C27733  10.702  10.433  -0.041 -0.7259  0.8858  1.0034
  947MOL0     O27734  10.812  10.350  -0.056  0.5845  0.0546 -0.1337
  947MOL0     C27735  10.936  10.396  -0.082 -0.1621  0.3869  0.5274
  947MOL0     C27736  10.983  10.529  -0.079  0.5886 -0.4113  0.7429
  947MOL0     C27737  11.116  10.555  -0.115 -0.2831 -1.1473  0.4309
  947MOL0     C27738  11.217  10.450  -0.128 -1.2081  0.6620  0.3119
  947MOL0     C27739  11.355  10.493  -0.141  0.8210  0.1284  0.4404
  947MOL0     O27740  11.454  10.395  -0.139  0.0395 -1.0018  0.2670
  947MOL0     C27741  11.579  10.423  -0.189 -0.2739 -0.8037  0.4298
  947MOL0     C27742  11.657  10.541  -0.167 -0.7108 -0.6138  0.2938
  947MOL0     C27743  11.788  10.553  -0.221  0.0021 -0.3289  0.1352
  947MOL0     C27744  11.843  10.461  -0.304  0.1514  0.4412  0.0691
  947MOL0     O27745  11.970  10.485  -0.346  0.2083  0.0110  0.4939
  947MOL0     C27746  12.044  10.392  -0.430 -0.0249  0.0673 -0.6906
  947MOL0     C27747  12.191  10.440  -0.447  1.0950  0.4113 -0.5623
  947MOL0     C27748  12.279  10.341  -0.526 -1.2633  0.1481 -0.7943
  947MOL0     C27749  12.423  10.399  -0.529  0.5560  0.4201  0.0318
  947MOL0     C27750  12.509  10.278  -0.579  0.2560 -0.3013 -0.3579
  947MOL0     C27751  12.664  10.314  -0.574  0.4619  0.0603  0.0294
  947MOL0     C27752  12.713  10.312  -0.430  1.1842 -0.0072 -0.3855
  947MOL0     C27753  12.869  10.310  -0.424  0.2128  0.1946 -0.5891
  947MOL0    Cl27754  12.941  10.188  -0.538 -0.1030  0.0821  0.0998
  947MOL0     C27755  11.767  10.351  -0.337  0.0396 -0.0803  0.0401
  947MOL0     C27756  11.636  10.331  -0.280 -0.2008 -0.5092 -0.2214
  947MOL0     O27757  11.372  10.611  -0.153 -0.3764  0.0794  0.6115
  947MOL0     C27758  11.164  10.320  -0.118  0.6049 -0.2612 -0.5532
  947MOL0     C27759  11.030  10.293  -0.096  0.3230 -0.2147  1.7438
  947MOL0     N27760  10.263  10.568   0.231  0.1847 -0.0720  0.2117
  947MOL0     N27761  10.140  10.581   0.229  0.7461  0.5532 -0.2051
  947MOL0     C27762   8.868  10.439   0.160  0.2014 -0.5295  0.5497
  947MOL0     C27763   8.788  10.324   0.178  0.4347 -0.1854 -0.7992
  947MOL0     C27764   8.629   9.925   0.298 -0.7934 -0.2042 -0.3467
  947MOL0     C27765   8.634   9.890   0.437  0.2754  0.3880 -0.2287
  947MOL0     C27766   8.556   9.790   0.493  0.5352  0.8922 -0.0463
  947MOL0     C27767   8.484   9.710   0.413 -1.1948 -0.5985 -0.1287
  947MOL0     O27768   8.414   9.609   0.471  0.5577 -0.1952 -0.0946
  947MOL0     C27769   8.408   9.480   0.401 -0.3199 -0.3431 -0.3404
  947MOL0     C27770   8.485   9.382   0.478 -0.3169  1.0802 -0.8292
  947MOL0     C27771   8.405   9.348   0.607 -0.8747 -0.1179  0.9597
  947MOL0     C27772   8.438   9.210   0.671  0.3553 -0.2068  0.4603
  947MOL0     C27773   8.579   9.183   0.685 -0.6777  0.0926  0.0230
  947MOL0     C27774   8.694   9.139   0.679  0.5486  0.4075  0.2713
  947MOL0     C27775   8.471   9.749   0.282 -0.2454  0.5769 -0.3704
  947MOL0     C27776   8.545   9.853   0.220  0.4174  0.1981  0.8637
  947MOL0     C27777   8.524   9.873   0.065 -0.0469  0.2001 -0.1232
  947MOL0     H27778   8.911  10.234   0.486  0.1478  1.2266  2.1864
  947MOL0     H27779   9.045  10.435   0.447 -1.8023 -0.8120  1.5108
  947MOL0     H27780   9.184  10.628   0.359  2.4762  2.7660 -0.5363
  947MOL0     H27781   9.222  10.492   0.237 -2.3412 -1.1720  1.4896
  947MOL0     H27782   9.179  10.798   0.226  3.6633  1.1529  3.2394
  947MOL0     H27783   9.212  10.692   0.078 -2.5381 -2.8757  0.5353
  947MOL0     H27784   9.400  10.741   0.304 -0.9658  0.7678  0.5521
  947MOL0     H27785   9.404  10.820   0.143  0.1473 -0.4022 -0.6336
  947MOL0     H27786   9.463  10.527   0.191  0.2865  0.0755  0.7806
  947MOL0     H27787   9.447  10.603   0.027  0.6655  3.3539 -0.9605
  947MOL0     H27788   9.639  10.741   0.083 -1.2540  0.5195 -0.5745
  947MOL0     H27789   9.624  10.696   0.253 -2.1976 -0.0365  0.3037
  947MOL0     H27790   9.685  10.443   0.176  0.5875  0.5645 -0.3922
  947MOL0     H27791   9.670  10.505   0.009 -2.9718 -1.4325  0.8111
  947MOL0     H27792   9.868  10.605   0.227  0.3653  0.7283 -0.7678
  947MOL0     H27793   9.883  10.648   0.059  1.6370 -0.3471  0.7112
  947MOL0     H27794   9.923  10.407   0.230 -2.1390  2.3988  0.5757
  947MOL0     H27795   9.926  10.378   0.058  0.2766 -0.9765  0.7394
  947MOL0     H27796  10.182  10.349  -0.004 -0.1588  1.3125 -1.1139
  947MOL0     H27797  10.430  10.334   0.212  1.7194  0.8369  0.9302
  947MOL0     H27798  10.444  10.342   0.036  1.4698 -0.5280  0.3999
  947MOL0     H27799  10.514  10.598   0.091 -3.3628 -1.9762 -0.9580
  947MOL0     H27800  10.557  10.523   0.251 -1.2480 -1.9455  0.1175
  947MOL0     H27801  10.693  10.360   0.159 -1.3343 -0.0436 -0.2589
  947MOL0     H27802  10.752  10.527   0.147  3.4973 -1.2460 -2.4655
  947MOL0     H27803  10.715  10.530  -0.091 -0.5812  0.3783  0.0342
  947MOL0     H27804  10.619  10.372  -0.076  1.6176 -1.6783 -0.5220
  947MOL0     H27805  10.908  10.606  -0.065 -1.2542 -1.8814 -0.3759
  947MOL0     H27806  11.141  10.660  -0.127  1.2327 -1.7385 -2.4156
  947MOL0     H27807  11.630  10.620  -0.097 -0.8926 -1.0138  0.6808
  947MOL0     H27808  11.842  10.645  -0.202 -0.4039 -0.5996  2.9624
  947MOL0     H27809  12.065  10.301  -0.373 -2.3368  0.4356  0.8686
  947MOL0     H27810  11.985  10.374  -0.520  1.0256  2.2458 -1.9011
  947MOL0     H27811  12.181  10.535  -0.500  2.3784  2.0590  1.9285
  947MOL0     H27812  12.235  10.452  -0.348  0.2727 -3.0463  0.3419
  947MOL0     H27813  12.290  10.247  -0.471  2.3982  2.1654  2.4119
  947MOL0     H27814  12.240  10.337  -0.628  0.9631 -0.3053 -1.6985
  947MOL0     H27815  12.461  10.437  -0.434 -0.4173  1.5511 -0.0019
  947MOL0     H27816  12.430  10.485  -0.597 -1.3936 -0.9097 -2.0411
  947MOL0     H27817  12.475  10.258  -0.681  0.7049  0.2297 -0.6193
  947MOL0     H27818  12.489  10.193  -0.513  1.1135 -0.6998 -0.5877
  947MOL0     H27819  12.717  10.244  -0.639 -1.7596 -2.0406  0.3215
  947MOL0     H27820  12.680  10.410  -0.622 -1.1910 -0.7209 -2.2995
  947MOL0     H27821  12.661  10.225  -0.391 -1.4055  1.6131  0.0478
  947MOL0     H27822  12.672  10.398  -0.375 -1.8414 -1.0799 -0.7842
  947MOL0     H27823  12.904  10.412  -0.442  2.9188 -0.7228 -0.9272
  947MOL0     H27824  12.897  10.282  -0.322  2.0316 -0.1528 -1.1454
  947MOL0     H27825  11.802  10.271  -0.402  0.4367  0.1932 -0.0913
  947MOL0     H27826  11.580  10.243  -0.308 -1.2184  0.0185  0.1191
  947MOL0     H27827  11.239  10.245  -0.142  2.1082  1.1444 -0.4092
  947MOL0     H27828  10.988  10.194  -0.091  2.7942 -1.5190 -0.4698
  947MOL0     H27829   8.873  10.493   0.065  1.6967 -0.3685  0.6883
  947MOL0     H27830   8.721  10.299   0.096  0.2767 -0.7154 -0.5095
  947MOL0     H27831   8.692   9.944   0.511  1.3494 -0.9843 -0.0373
  947MOL0     H27832   8.574   9.768   0.598 -0.7566  0.2739  0.0606
  947MOL0     H27833   8.459   9.480   0.305 -0.8018 -1.7818 -0.6262
  947MOL0     H27834   8.306   9.446   0.382  0.7671 -2.3851 -3.1324
  947MOL0     H27835   8.588   9.414   0.494 -0.1298  0.3104 -0.4627
  947MOL0     H27836   8.480   9.292   0.416  1.5997 -1.6646  2.6385
  947MOL0     H27837   8.300   9.334   0.578 -0.2284 -1.9661 -0.7725
  947MOL0     H27838   8.425   9.418   0.688 -1.9448  0.4907  0.7096
  947MOL0     H27839   8.384   9.193   0.764 -2.5553  3.1100 -0.4169
  947MOL0     H27840   8.392   9.129   0.614  0.0282  0.6602 -0.5268
  947MOL0     H27841   8.790   9.091   0.673 -0.0396 -0.9706  1.4771
  947MOL0     H27842   8.393   9.701   0.224 -3.2510  0.9691  2.9961
  947MOL0     H27843   8.427   9.837   0.031  0.2512  0.4150 -1.2497
  947MOL0     H27844   8.531   9.980   0.041  0.3486  0.1893 -0.0501
  947MOL0     H27845   8.604   9.822   0.011 -0.0475  2.1886 -2.1707
  948MOL0     O27846   8.787   0.342   1.953 -0.0481 -0.1688 -0.0289
  948MOL0     C27847   8.782   0.262   1.862 -1.0324 -0.4879  0.2756
  948MOL0     O27848   8.886   0.190   1.815  0.0555 -0.7924  0.5097
  948MOL0     C27849   9.002   0.215   1.876  0.0900 -0.0380  0.1723
  948MOL0     C27850   9.041   0.166   2.002 -0.1086  0.6673 -0.3089
  948MOL0     C27851   9.165   0.197   2.059  0.5627  0.1757  0.3807
  948MOL0     C27852   9.258   0.271   1.985 -0.2240 -0.6154 -1.3577
  948MOL0     O27853   9.381   0.296   2.044 -0.3398 -0.3711  1.2800
  948MOL0     C27854   9.485   0.227   1.969 -0.1818 -0.5647 -0.2390
  948MOL0     C27855   9.486   0.074   2.011 -0.6085 -0.3622  0.4837
  948MOL0     C27856   9.546   0.066   2.151 -0.4777 -0.5625 -0.1661
  948MOL0     C27857   9.557  -0.083   2.186 -0.7521 -0.7024 -0.3087
  948MOL0     C27858   9.635  -0.115   2.315  0.4282 -0.1832 -0.3933
  948MOL0     C27859   9.644  -0.259   2.346 -0.5022  0.6035 -0.5164
  948MOL0     C27860   9.729  -0.276   2.479  0.2264 -0.2376  0.6178
  948MOL0     C27861   9.688  -0.414   2.548 -0.0317  0.3035 -0.2148
  948MOL0     N27862   9.724  -0.534   2.467  0.2944 -0.3538  0.5445
  948MOL0     C27863   9.647  -0.628   2.405 -0.0254  0.0240  0.2241
  948MOL0     C27864   9.736  -0.725   2.370  0.3813  0.8146  0.2637
  948MOL0     C27865   9.700  -0.867   2.327  0.3070  0.5002 -0.2290
  948MOL0     C27866   9.704  -0.977   2.438  0.0494 -1.0644 -0.4336
  948MOL0     C27867   9.839  -1.046   2.442 -0.2707  0.7872  0.2891
  948MOL0     C27868   9.944  -0.959   2.500  0.2644 -0.0532 -0.0211
  948MOL0     O27869  10.025  -1.046   2.593 -0.1791  0.5309  0.2130
  948MOL0     C27870  10.166  -1.028   2.594  0.6199 -0.8462  0.0532
  948MOL0     C27871  10.245  -1.127   2.656  0.2812  0.4462 -0.1486
  948MOL0     C27872  10.388  -1.116   2.658  0.3002 -0.1275  0.1012
  948MOL0     C27873  10.451  -0.999   2.608 -0.0420 -0.1299  0.0268
  948MOL0     C27874  10.602  -0.993   2.618  0.6359  0.1518  0.6700
  948MOL0     O27875  10.659  -1.103   2.667  0.5524  0.2390 -0.3265
  948MOL0     C27876  10.792  -1.102   2.706  0.1004  1.3065  0.2575
  948MOL0     C27877  10.825  -1.135   2.836 -0.2415  0.2710 -0.8150
  948MOL0     C27878  10.961  -1.133   2.875  0.6393  0.2469 -0.1830
  948MOL0     C27879  11.059  -1.104   2.781 -0.5140 -0.0998 -0.8821
  948MOL0     O27880  11.194  -1.102   2.822  0.0020  0.3137 -0.2474
  948MOL0     C27881  11.291  -1.052   2.725 -0.2702 -0.0250  0.9807
  948MOL0     C27882  11.432  -1.035   2.782  0.3158  0.8017 -0.0173
  948MOL0     C27883  11.547  -1.015   2.683  0.8855  0.8500 -0.5392
  948MOL0     C27884  11.683  -1.056   2.721  0.2178 -0.5473  0.3920
  948MOL0     C27885  11.786  -1.072   2.600 -0.5942  0.7041 -0.3629
  948MOL0     C27886  11.932  -1.096   2.656 -0.7199  0.4961  0.0727
  948MOL0     C27887  12.038  -1.074   2.555  0.4835 -0.2845  0.6385
  948MOL0     C27888  12.180  -1.054   2.610 -0.4295 -1.1422  0.4278
  948MOL0    Cl27889  12.294  -1.016   2.476 -0.1935 -0.2702  0.2792
  948MOL0     C27890  11.019  -1.082   2.650  0.1630 -0.2440 -0.5094
  948MOL0     C27891  10.888  -1.067   2.615 -0.3281  0.0343  0.7839
  948MOL0     O27892  10.659  -0.887   2.594 -0.3243  0.4932  0.3638
  948MOL0     C27893  10.375  -0.904   2.547 -0.7318 -0.3394 -0.3674
  948MOL0     C27894  10.239  -0.913   2.551 -0.4490 -0.7131 -0.4989
  948MOL0     N27895   9.867  -0.684   2.398  0.0039  0.0226  0.2365
  948MOL0     N27896   9.857  -0.568   2.451 -0.3119  0.7325 -0.1376
  948MOL0     C27897   9.218   0.333   1.872  0.7713  0.3555 -0.1278
  948MOL0     C27898   9.092   0.304   1.814  0.0206 -0.3165 -1.0148
  948MOL0     C27899   8.649   0.226   1.810  0.3376 -0.2169  0.3528
  948MOL0     C27900   8.641   0.129   1.710 -0.6663  1.2810 -0.6825
  948MOL0     C27901   8.522   0.079   1.660  0.0140 -0.0057 -0.3957
  948MOL0     C27902   8.398   0.123   1.692  0.1972 -0.9419 -0.9427
  948MOL0     O27903   8.290   0.070   1.628 -0.8757 -0.2236 -0.3547
  948MOL0     C27904   8.170   0.141   1.626  0.4506 -0.3941  0.1892
  948MOL0     C27905   8.070   0.058   1.536  0.8204  0.3820 -0.2487
  948MOL0     C27906   8.019  -0.064   1.621  0.1206 -0.4885  0.0082
  948MOL0     C27907   7.943  -0.170   1.543  0.4975 -0.8230  0.3351
  948MOL0     C27908   7.807  -0.135   1.486 -0.5937 -0.1590  0.1368
  948MOL0     C27909   7.686  -0.123   1.463  0.1439  0.5479 -0.9018
  948MOL0     C27910   8.401   0.238   1.785  0.1102  0.7481 -1.0344
  948MOL0     C27911   8.520   0.276   1.850 -0.9966  0.7678  0.2001
  948MOL0     C27912   8.507   0.393   1.944  0.3956 -0.3505 -0.3203
  948MOL0     H27913   8.982   0.094   2.059  1.0974  0.0147  0.1817
  948MOL0     H27914   9.189   0.157   2.157  1.4442 -3.6500 -1.2271
  948MOL0     H27915   9.466   0.236   1.862 -2.3493 -1.1559  0.0572
  948MOL0     H27916   9.582   0.269   1.998  1.7921 -4.4185 -0.7105
  948MOL0     H27917   9.549   0.026   1.936  0.5011  0.7258  0.6811
  948MOL0     H27918   9.379   0.050   2.013 -0.9742  1.1225 -0.3912
  948MOL0     H27919   9.480   0.108   2.226 -2.5491 -1.5221 -1.3601
  948MOL0     H27920   9.644   0.114   2.158 -0.6671 -0.2469  0.3525
  948MOL0     H27921   9.458  -0.128   2.196 -1.6149  0.2554 -3.3429
  948MOL0     H27922   9.624  -0.130   2.114  1.9151 -0.2512  1.7365
  948MOL0     H27923   9.738  -0.081   2.307  0.4855 -0.6503 -1.8854
  948MOL0     H27924   9.584  -0.069   2.401 -1.5512 -0.5013 -1.3288
  948MOL0     H27925   9.542  -0.297   2.354 -0.0990 -0.9910 -2.2826
  948MOL0     H27926   9.698  -0.314   2.269 -1.7161 -2.7220  0.8541
  948MOL0     H27927   9.713  -0.204   2.559 -2.0168  1.8996 -1.5691
  948MOL0     H27928   9.836  -0.273   2.459  0.2295 -2.2751  0.0226
  948MOL0     H27929   9.733  -0.425   2.647 -2.2486 -1.6149  0.7088
  948MOL0     H27930   9.586  -0.415   2.589  1.3499  1.1003  3.6057
  948MOL0     H27931   9.540  -0.648   2.404 -0.2763  1.2659 -1.3298
  948MOL0     H27932   9.601  -0.848   2.286  1.0046  3.2218 -0.8211
  948MOL0     H27933   9.759  -0.903   2.242 -0.7311  1.9191 -1.5945
  948MOL0     H27934   9.674  -0.936   2.535  0.7916 -0.1279 -0.5763
  948MOL0     H27935   9.630  -1.051   2.408 -0.7371 -1.8820  3.0936
  948MOL0     H27936   9.875  -1.080   2.344  2.2327  3.3210  0.2087
  948MOL0     H27937   9.830  -1.138   2.502 -0.0480  2.0846  2.4297
  948MOL0     H27938   9.896  -0.883   2.562 -1.5144 -0.6939 -0.5517
  948MOL0     H27939  10.013  -0.908   2.433  0.8396  0.5471  0.9949
  948MOL0     H27940  10.207  -1.219   2.700  3.9372 -0.3544  1.7761
  948MOL0     H27941  10.445  -1.197   2.703 -0.6014  0.1198  1.7523
  948MOL0     H27942  10.739  -1.160   2.897  0.3187 -0.4489 -0.3109
  948MOL0     H27943  10.982  -1.157   2.979  0.8580  0.4538 -0.1789
  948MOL0     H27944  11.287  -1.112   2.634  0.2609  1.7157 -0.2405
  948MOL0     H27945  11.257  -0.956   2.684 -0.5081 -0.9618 -1.1766
  948MOL0     H27946  11.433  -0.956   2.858  0.5627  2.1098 -1.3340
  948MOL0     H27947  11.460  -1.123   2.839  1.2234  0.0735 -1.5203
  948MOL0     H27948  11.516  -1.065   2.590 -1.1672  1.6369 -0.3298
  948MOL0     H27949  11.545  -0.908   2.660  1.6524  0.6076 -1.8312
  948MOL0     H27950  11.676  -1.150   2.776 -1.4795 -0.6602  0.0349
  948MOL0     H27951  11.704  -0.976   2.793 -3.4815  1.4708 -0.5299
  948MOL0     H27952  11.779  -0.969   2.565 -0.4565  1.9379  2.9271
  948MOL0     H27953  11.750  -1.154   2.537 -1.6904 -0.9398  2.2514
  948MOL0     H27954  11.949  -1.025   2.737  1.6486  0.1649 -0.0645
  948MOL0     H27955  11.939  -1.199   2.692 -2.9651 -1.2159 -3.7461
  948MOL0     H27956  12.011  -0.987   2.496  2.2395 -0.8884 -1.2050
  948MOL0     H27957  12.047  -1.161   2.489 -0.8891  0.5959 -0.7830
  948MOL0     H27958  12.174  -0.959   2.663  0.6947  1.1719 -3.2088
  948MOL0     H27959  12.208  -1.131   2.682  0.0321  1.1261  2.8045
  948MOL0     H27960  11.090  -1.050   2.575  0.3939  1.5953  0.4331
  948MOL0     H27961  10.854  -1.046   2.514 -1.7344 -0.3624  1.1553
  948MOL0     H27962  10.421  -0.810   2.517 -2.6507  0.2922 -1.4850
  948MOL0     H27963  10.176  -0.830   2.519  0.4376  0.4736  0.7193
  948MOL0     H27964   9.287   0.399   1.820  0.9494 -1.3340 -2.1604
  948MOL0     H27965   9.072   0.354   1.720 -1.3692  1.4452  0.1477
  948MOL0     H27966   8.734   0.083   1.679  0.2652  2.3034  0.4791
  948MOL0     H27967   8.539   0.001   1.586  0.7498 -0.6711  0.4511
  948MOL0     H27968   8.169   0.244   1.588 -0.0325 -0.6851 -0.6040
  948MOL0     H27969   8.132   0.149   1.728  0.8407  2.1058  0.1981
  948MOL0     H27970   8.111   0.025   1.440  1.4461 -1.0717  0.5042
  948MOL0     H27971   7.993   0.130   1.505  1.9320  1.4239 -0.6703
  948MOL0     H27972   7.959  -0.022   1.703  2.5933  0.2515  1.5517
  948MOL0     H27973   8.106  -0.117   1.663 -0.5493 -0.6994  1.1822
  948MOL0     H27974   8.007  -0.201   1.460  0.5795  0.0158  0.0752
  948MOL0     H27975   7.938  -0.254   1.613  0.3506 -0.5256  0.6868
  948MOL0     H27976   7.580  -0.129   1.447 -0.4316  2.6822  1.4207
  948MOL0     H27977   8.306   0.272   1.825 -0.3034 -1.6636  0.2657
  948MOL0     H27978   8.579   0.472   1.925 -0.2744  0.2224 -0.5370
  948MOL0     H27979   8.406   0.435   1.947 -0.8829 -3.2081  0.4277
  948MOL0     H27980   8.530   0.351   2.042  1.0910 -2.3952 -1.3098
  949MOL0     O27981   4.430   5.847  11.139 -0.5293 -0.6172 -0.5522
  949MOL0     C27982   4.380   5.926  11.214  0.9505  0.0635 -0.0932
  949MOL0     O27983   4.454   5.990  11.315  0.1210  0.0160 -0.3805
  949MOL0     C27984   4.599   5.984  11.304  0.3745  0.1198  0.1318
  949MOL0     C27985   4.660   6.112  11.307  0.6519 -0.1286 -0.0930
  949MOL0     C27986   4.797   6.125  11.284 -0.2659  0.5866  0.4920
  949MOL0     C27987   4.871   6.005  11.257 -0.9358  0.8659  0.3599
  949MOL0     O27988   5.008   6.017  11.227 -0.1361  0.0915  0.0350
  949MOL0     C27989   5.073   6.133  11.272  0.2804 -1.0221 -0.7909
  949MOL0     C27990   5.225   6.113  11.250  0.1748 -0.3767 -0.6726
  949MOL0     C27991   5.316   6.233  11.287 -0.0677  0.4656  0.2665
  949MOL0     C27992   5.331   6.327  11.161  0.1542  0.0172  0.1583
  949MOL0     C27993   5.430   6.442  11.173 -1.0415  0.0754  0.3468
  949MOL0     C27994   5.452   6.503  11.030 -0.5698  0.1646 -0.5391
  949MOL0     C27995   5.605   6.551  11.017  0.4415 -0.1117 -0.4575
  949MOL0     C27996   5.695   6.431  11.000 -0.2332 -0.2935  0.3646
  949MOL0     N27997   5.829   6.459  11.051  0.5998 -0.1081 -0.1986
  949MOL0     C27998   5.873   6.413  11.174 -0.1837 -0.2482 -0.7768
  949MOL0     C27999   6.008   6.435  11.170  0.0515  0.3118 -0.5037
  949MOL0     C28000   6.101   6.399  11.283 -0.5759 -0.2374  0.6968
  949MOL0     C28001   6.115   6.254  11.316  0.4246 -0.7125 -0.8517
  949MOL0     C28002   6.246   6.230  11.397 -0.6877 -0.9204 -1.1230
  949MOL0     C28003   6.371   6.228  11.313  0.0124 -0.0230 -1.1422
  949MOL0     O28004   6.365   6.120  11.223  0.0915  0.3929 -0.5218
  949MOL0     C28005   6.471   6.034  11.229  0.3389 -0.3266 -0.0341
  949MOL0     C28006   6.479   5.941  11.330  0.1028  0.2239 -0.8195
  949MOL0     C28007   6.579   5.844  11.339  0.3827 -0.7154  0.3656
  949MOL0     C28008   6.683   5.849  11.240  0.4748  0.4192  0.6617
  949MOL0     C28009   6.803   5.761  11.255 -0.8906  0.5367 -0.2426
  949MOL0     O28010   6.897   5.765  11.163 -0.1970 -0.9387 -0.1191
  949MOL0     C28011   7.004   5.681  11.178 -0.5061  0.2193 -0.1941
  949MOL0     C28012   7.121   5.730  11.222  0.5064  0.0743  0.7053
  949MOL0     C28013   7.241   5.656  11.224 -0.1730  0.1083 -0.5527
  949MOL0     C28014   7.238   5.517  11.201  0.5390 -0.4582  0.4335
  949MOL0     O28015   7.353   5.435  11.211  0.2631  0.1728  0.3404
  949MOL0     C28016   7.474   5.494  11.247 -0.6954 -0.5005 -0.1816
  949MOL0     C28017   7.593   5.394  11.247 -0.4630  0.3314 -0.1409
  949MOL0     C28018   7.734   5.452  11.258  0.5111 -0.2940  0.0573
  949MOL0     C28019   7.829   5.331  11.258 -0.6003  0.0204 -0.3457
  949MOL0     C28020   7.967   5.377  11.283 -0.2185 -0.8907  1.0342
  949MOL0     C28021   8.055   5.252  11.308 -0.1494 -0.4717  1.0071
  949MOL0     C28022   8.192   5.284  11.347 -0.2636  0.2891  0.3335
  949MOL0     C28023   8.275   5.149  11.331  0.6233 -0.0228  0.1536
  949MOL0    Cl28024   8.287   5.103  11.158 -0.0696 -0.5535 -0.0506
  949MOL0     C28025   7.109   5.458  11.183  0.1371 -0.1809 -0.1061
  949MOL0     C28026   6.997   5.541  11.163 -0.4189  0.1369 -0.0366
  949MOL0     O28027   6.797   5.678  11.347 -0.0695 -0.5759  0.3550
  949MOL0     C28028   6.673   5.948  11.138  0.5741 -0.8764 -0.6640
  949MOL0     C28029   6.572   6.042  11.134 -0.2812 -0.1472 -0.1742
  949MOL0     N28030   6.031   6.499  11.049 -0.2614 -0.4665 -0.3649
  949MOL0     N28031   5.929   6.510  10.977 -0.5413  0.0002  0.4987
  949MOL0     C28032   4.818   5.882  11.256  0.3958  0.7497 -0.6025
  949MOL0     C28033   4.681   5.872  11.286  1.4639  0.1094 -0.1287
  949MOL0     C28034   4.245   5.975  11.188  0.4209 -1.0980  0.6123
  949MOL0     C28035   4.160   5.888  11.122  0.0333 -0.6052  0.6794
  949MOL0     C28036   4.036   5.923  11.073  0.3256  0.2314 -0.1575
  949MOL0     C28037   3.995   6.058  11.083 -0.4155 -0.1174  0.2577
  949MOL0     O28038   3.874   6.095  11.037 -0.5947  0.0470 -0.3751
  949MOL0     C28039   3.869   6.179  10.920 -0.1824 -0.1244  0.5745
  949MOL0     C28040   3.754   6.283  10.942 -0.2024 -0.6499 -0.0794
  949MOL0     C28041   3.802   6.402  11.035 -0.2809  0.5845 -0.0416
  949MOL0     C28042   3.715   6.521  11.043 -0.8529 -0.3391 -0.2799
  949MOL0     C28043   3.602   6.492  11.132 -0.2034 -0.0506  0.4395
  949MOL0     C28044   3.515   6.484  11.215 -0.4831 -0.1426  0.5051
  949MOL0     C28045   4.081   6.148  11.152 -0.3735 -0.2460  0.1259
  949MOL0     C28046   4.209   6.109  11.196 -0.1576 -0.3095 -0.2927
  949MOL0     C28047   4.295   6.214  11.268  0.6512 -0.2980  0.2012
  949MOL0     H28048   4.599   6.201  11.307 -2.4363 -2.0727  0.9658
  949MOL0     H28049   4.825   6.230  11.273 -2.3198  1.1015 -0.4618
  949MOL0     H28050   5.044   6.226  11.222  1.4157 -1.2575 -1.9368
  949MOL0     H28051   5.062   6.135  11.381 -1.2291 -1.4188 -0.9253
  949MOL0     H28052   5.222   6.097  11.142 -0.1842  4.1602 -1.5373
  949MOL0     H28053   5.263   6.019  11.292 -0.3132 -1.0984 -1.7860
  949MOL0     H28054   5.414   6.191  11.313 -0.6936 -1.3488 -0.1202
  949MOL0     H28055   5.266   6.287  11.368 -2.0454 -0.3731 -0.3232
  949MOL0     H28056   5.354   6.258  11.079 -2.4584 -1.2086  0.3698
  949MOL0     H28057   5.236   6.378  11.143  0.6455  0.9282  0.0801
  949MOL0     H28058   5.394   6.517  11.244 -3.1812  0.3995 -0.9724
  949MOL0     H28059   5.523   6.401  11.215  0.4870  1.5332 -1.4878
  949MOL0     H28060   5.436   6.429  10.951  1.9942  0.6909 -1.6610
  949MOL0     H28061   5.383   6.585  11.008 -0.9071 -0.5624 -2.3204
  949MOL0     H28062   5.624   6.617  11.102 -0.1429 -2.7804  1.8678
  949MOL0     H28063   5.595   6.609  10.924 -1.0371 -0.4786 -0.5547
  949MOL0     H28064   5.655   6.336  11.037 -0.8873  0.3483  1.3357
  949MOL0     H28065   5.695   6.424  10.891 -1.4928  1.4895  0.2094
  949MOL0     H28066   5.813   6.353  11.241 -0.9655  1.5869  0.2525
  949MOL0     H28067   6.198   6.450  11.276  0.4338 -1.5644  3.5142
  949MOL0     H28068   6.058   6.455  11.366 -2.6959 -0.6975 -0.0161
  949MOL0     H28069   6.036   6.227  11.387  2.1147 -1.3063  0.9184
  949MOL0     H28070   6.097   6.198  11.224 -1.2504  1.1956 -1.7656
  949MOL0     H28071   6.254   6.125  11.429 -2.5223 -1.6122 -2.7406
  949MOL0     H28072   6.254   6.304  11.477 -2.1994 -0.3978 -1.4322
  949MOL0     H28073   6.449   6.240  11.388 -0.5459 -2.5130 -0.0506
  949MOL0     H28074   6.366   6.319  11.252  1.3876 -0.0421 -1.3123
  949MOL0     H28075   6.394   5.933  11.397  1.1349  0.4593  0.5596
  949MOL0     H28076   6.592   5.780  11.426  0.9139 -2.2086 -0.7720
  949MOL0     H28077   7.123   5.834  11.254  0.2777  0.5458 -0.7225
  949MOL0     H28078   7.329   5.705  11.263 -2.0756  1.0009  3.0670
  949MOL0     H28079   7.490   5.579  11.180 -0.3029  0.3577  0.9687
  949MOL0     H28080   7.461   5.534  11.348 -1.3507 -2.1991  0.4419
  949MOL0     H28081   7.582   5.329  11.334  0.0603  0.3243 -0.0789
  949MOL0     H28082   7.583   5.335  11.155 -2.5570 -0.8559  0.7730
  949MOL0     H28083   7.756   5.517  11.173 -2.6646  1.0024  0.1009
  949MOL0     H28084   7.751   5.515  11.345  1.0411  0.1600 -0.3619
  949MOL0     H28085   7.830   5.265  11.171  3.3812  0.7477 -1.0533
  949MOL0     H28086   7.808   5.264  11.342  0.9006 -0.1426 -0.0727
  949MOL0     H28087   7.970   5.449  11.366 -1.5763 -0.4333  0.7211
  949MOL0     H28088   8.024   5.424  11.202  0.8406  0.3839  2.4549
  949MOL0     H28089   8.009   5.189  11.386 -1.2064 -0.0161  0.7772
  949MOL0     H28090   8.038   5.204  11.211 -2.0207  0.2961  0.9031
  949MOL0     H28091   8.192   5.325  11.448  1.5235  0.7846  0.1560
  949MOL0     H28092   8.239   5.360  11.284  0.1428  0.5908  0.9911
  949MOL0     H28093   8.374   5.162  11.376  1.0271  0.9101 -0.9484
  949MOL0     H28094   8.211   5.075  11.380 -2.2087  1.1668 -1.4917
  949MOL0     H28095   7.099   5.351  11.200 -0.3205  0.0209  0.9333
  949MOL0     H28096   6.906   5.483  11.146  0.2299 -0.6073 -1.1878
  949MOL0     H28097   6.760   5.971  11.078  1.3200  3.2420  1.5710
  949MOL0     H28098   6.578   6.109  11.049  2.8350 -1.3959 -1.0793
  949MOL0     H28099   4.879   5.793  11.249  0.1059  0.3553  1.2347
  949MOL0     H28100   4.627   5.778  11.281 -1.3377  1.6470 -0.9984
  949MOL0     H28101   4.191   5.787  11.098  0.8805 -0.0649 -0.6275
  949MOL0     H28102   3.964   5.858  11.025 -3.7172  2.8367  1.7817
  949MOL0     H28103   3.849   6.118  10.831 -0.0839  1.0559 -0.2759
  949MOL0     H28104   3.961   6.233  10.895 -0.3235 -0.4994 -0.8468
  949MOL0     H28105   3.671   6.233  10.994 -0.4411 -0.0001  0.1822
  949MOL0     H28106   3.711   6.323  10.849  1.3630  0.0355 -0.5316
  949MOL0     H28107   3.897   6.431  10.989 -1.2551  1.1632 -1.7659
  949MOL0     H28108   3.834   6.361  11.132 -0.6232 -0.3881 -0.3348
  949MOL0     H28109   3.774   6.605  11.079  2.2017 -2.7449  0.7965
  949MOL0     H28110   3.689   6.545  10.939  1.1702  3.6131 -0.0628
  949MOL0     H28111   3.428   6.479  11.276 -2.6321  1.0000 -2.2186
  949MOL0     H28112   4.042   6.248  11.166  0.9431  0.4514 -0.9411
  949MOL0     H28113   4.253   6.314  11.251  5.1053  1.8933  0.8548
  949MOL0     H28114   4.310   6.204  11.375 -1.2399  0.1476  0.5491
  949MOL0     H28115   4.391   6.224  11.216  0.0996  3.6298 -0.4103
  950MOL0     O28116   5.251   5.543   0.095 -0.8728  0.1231  0.1579
  950MOL0     C28117   5.195   5.549  -0.015 -0.5850 -0.4632  0.3130
  950MOL0     O28118   5.264   5.568  -0.133  0.3908 -0.6689  0.1478
  950MOL0     C28119   5.397   5.559  -0.121 -0.4778 -0.6629 -0.1052
  950MOL0     C28120   5.474   5.676  -0.083  0.0499 -0.6530 -0.0804
  950MOL0     C28121   5.615   5.677  -0.082  0.2065 -0.3574 -0.0802
  950MOL0     C28122   5.676   5.554  -0.108 -0.1372  0.4682 -0.2257
  950MOL0     O28123   5.811   5.538  -0.084  0.0399  0.0630 -0.3444
  950MOL0     C28124   5.901   5.507  -0.197 -0.2893  0.0229 -0.4553
  950MOL0     C28125   6.044   5.486  -0.147 -0.1426 -0.2156  0.6173
  950MOL0     C28126   6.113   5.607  -0.081  0.0868 -0.2280  0.8150
  950MOL0     C28127   6.101   5.615   0.065 -0.2017  0.1235 -0.1639
  950MOL0     C28128   6.167   5.733   0.134  0.2605 -0.0759 -0.2750
  950MOL0     C28129   6.103   5.873   0.101  0.0855  0.2733 -0.3504
  950MOL0     C28130   5.951   5.883   0.131 -0.1287  0.3950 -0.2715
  950MOL0     C28131   5.916   5.923   0.264  0.1326  0.6291 -0.4858
  950MOL0     N28132   5.789   5.991   0.268  0.3144  0.5429 -0.1171
  950MOL0     C28133   5.681   5.947   0.331  1.0107  0.5269  0.5330
  950MOL0     C28134   5.591   6.052   0.315  0.3123  0.0391  0.1090
  950MOL0     C28135   5.443   6.041   0.341  0.2331 -0.1105  0.0152
  950MOL0     C28136   5.399   6.096   0.477 -0.0629 -0.2682 -0.3439
  950MOL0     C28137   5.453   6.234   0.512  0.3166 -0.3260  0.0715
  950MOL0     C28138   5.357   6.306   0.609  0.2428  0.2656  0.9512
  950MOL0     O28139   5.244   6.351   0.532 -0.7080 -0.4317 -0.0028
  950MOL0     C28140   5.125   6.373   0.598 -0.1163 -0.7021  1.2045
  950MOL0     C28141   5.008   6.388   0.520  0.0334  1.5717  0.4659
  950MOL0     C28142   4.884   6.411   0.585 -0.0376 -0.5403  0.6952
  950MOL0     C28143   4.876   6.424   0.724 -0.5046  0.1883 -0.2719
  950MOL0     C28144   4.747   6.440   0.795 -0.0516  0.2762 -0.2709
  950MOL0     O28145   4.750   6.506   0.919  0.4251 -0.7032 -0.5472
  950MOL0     C28146   4.635   6.529   1.001 -0.0004 -0.5573  0.1159
  950MOL0     C28147   4.650   6.546   1.140 -0.9744 -0.0555  0.6821
  950MOL0     C28148   4.540   6.579   1.222  0.1922  0.0895 -0.4893
  950MOL0     C28149   4.413   6.587   1.166  0.2690  1.0139 -1.1634
  950MOL0     O28150   4.289   6.593   1.234  0.1391 -0.6082  0.2810
  950MOL0     C28151   4.291   6.603   1.383 -0.9355  0.1466  0.9560
  950MOL0     C28152   4.157   6.630   1.454 -1.0350  0.9665  0.2243
  950MOL0     C28153   4.065   6.740   1.392  0.4535 -0.5681  0.0602
  950MOL0     C28154   3.958   6.771   1.496 -0.2028  0.9703 -0.5238
  950MOL0     C28155   3.847   6.840   1.424  0.6906 -0.6317  0.5240
  950MOL0     C28156   3.714   6.838   1.504 -0.2799 -0.1134  0.7543
  950MOL0     C28157   3.618   6.933   1.440 -0.0852 -0.5969  0.0191
  950MOL0     C28158   3.501   6.947   1.541  0.4116  0.1400  1.0634
  950MOL0    Cl28159   3.444   6.790   1.594 -0.3521  0.7524 -0.1538
  950MOL0     C28160   4.399   6.570   1.028 -0.2030  0.1696 -1.0045
  950MOL0     C28161   4.504   6.546   0.948  0.0429  0.0531  0.5878
  950MOL0     O28162   4.646   6.389   0.748 -0.6577 -0.4589 -0.4528
  950MOL0     C28163   5.000   6.409   0.795  0.3841 -0.9140 -0.2528
  950MOL0     C28164   5.124   6.391   0.739 -0.2409  0.3433  0.6158
  950MOL0     N28165   5.643   6.151   0.237  0.7453  0.0156 -0.0811
  950MOL0     N28166   5.767   6.119   0.223 -0.2549 -0.7678 -0.2245
  950MOL0     C28167   5.603   5.441  -0.151  0.7432 -0.0327  0.4048
  950MOL0     C28168   5.465   5.445  -0.158 -0.7186 -0.4542 -0.0024
  950MOL0     C28169   5.043   5.538  -0.032 -0.3112 -0.2755 -0.1869
  950MOL0     C28170   4.993   5.496  -0.151  0.4799  0.2659 -1.3129
  950MOL0     C28171   4.855   5.470  -0.166  0.1924  0.1715 -0.0538
  950MOL0     C28172   4.765   5.506  -0.066 -0.4999  1.0579  0.6542
  950MOL0     O28173   4.633   5.480  -0.058  0.1085 -0.3521  0.1640
  950MOL0     C28174   4.561   5.512  -0.179  0.1338 -0.1236 -0.1955
  950MOL0     C28175   4.410   5.507  -0.162  0.1552  1.0039 -0.1956
  950MOL0     C28176   4.366   5.360  -0.173 -0.3389 -0.5615 -0.4735
  950MOL0     C28177   4.321   5.316  -0.028 -0.2036 -0.2856 -0.1467
  950MOL0     C28178   4.266   5.179  -0.040 -0.3954 -0.5759  0.1311
  950MOL0     C28179   4.237   5.058  -0.068  0.4115 -0.5585 -1.0289
  950MOL0     C28180   4.820   5.547   0.053  0.2911 -0.0180 -0.3729
  950MOL0     C28181   4.955   5.571   0.074 -0.0184 -0.0364  0.7343
  950MOL0     C28182   4.993   5.609   0.214  0.1336 -0.5964 -0.1223
  950MOL0     H28183   5.424   5.767  -0.051  0.9243  0.0588 -0.6984
  950MOL0     H28184   5.678   5.759  -0.050  0.7788 -0.9892  0.4577
  950MOL0     H28185   5.873   5.412  -0.244 -0.3056  0.0221 -0.4432
  950MOL0     H28186   5.891   5.585  -0.273 -3.6343  0.4727  0.2884
  950MOL0     H28187   6.108   5.465  -0.233  1.6695  3.3377  0.9055
  950MOL0     H28188   6.053   5.403  -0.077  0.4671 -1.3046 -0.7221
  950MOL0     H28189   6.057   5.691  -0.124 -4.9896 -2.8416  1.7002
  950MOL0     H28190   6.220   5.623  -0.102 -0.4027  1.8259 -0.4754
  950MOL0     H28191   5.996   5.610   0.096 -0.0677  1.2048  0.5033
  950MOL0     H28192   6.149   5.530   0.113 -0.8588 -0.0463  0.2056
  950MOL0     H28193   6.157   5.724   0.243 -0.9802 -2.2704 -0.5029
  950MOL0     H28194   6.271   5.731   0.099  0.3571  3.1417 -0.4300
  950MOL0     H28195   6.161   5.950   0.154 -1.4141 -0.0570  1.9106
  950MOL0     H28196   6.113   5.903  -0.004 -1.3590  1.4678 -0.1844
  950MOL0     H28197   5.900   5.790   0.106 -2.1379  0.9378  1.5202
  950MOL0     H28198   5.915   5.959   0.060  1.2490  0.5689 -0.8410
  950MOL0     H28199   5.929   5.836   0.329 -1.5767 -0.4876 -1.5506
  950MOL0     H28200   5.987   5.997   0.302 -1.1259  1.8279 -0.3692
  950MOL0     H28201   5.655   5.850   0.372 -2.0286  1.5789  1.4186
  950MOL0     H28202   5.389   6.102   0.268  3.0795  1.8038 -0.6454
  950MOL0     H28203   5.414   5.936   0.328 -1.1682  0.5386 -3.0077
  950MOL0     H28204   5.291   6.106   0.486  0.0994  2.4064 -0.5942
  950MOL0     H28205   5.422   6.030   0.561 -1.9990 -1.2360 -0.5340
  950MOL0     H28206   5.461   6.297   0.423 -0.5018  0.4452  0.5185
  950MOL0     H28207   5.554   6.232   0.554  0.6217  0.9360 -0.5234
  950MOL0     H28208   5.397   6.394   0.661 -1.7774  1.9868 -0.2522
  950MOL0     H28209   5.328   6.238   0.690 -1.0969 -0.3295  0.0021
  950MOL0     H28210   5.012   6.396   0.412 -0.3848 -0.1773  0.2903
  950MOL0     H28211   4.792   6.411   0.527  0.2980 -0.7082  0.1530
  950MOL0     H28212   4.755   6.559   1.165 -1.3560  1.3285  1.6652
  950MOL0     H28213   4.556   6.605   1.326 -3.4642  4.2332 -0.6876
  950MOL0     H28214   4.331   6.511   1.427  2.8915  0.2570 -1.7432
  950MOL0     H28215   4.365   6.683   1.395  0.5522 -1.2525  1.5506
  950MOL0     H28216   4.099   6.538   1.447 -1.3394  1.2812 -2.8944
  950MOL0     H28217   4.192   6.651   1.555 -0.2383 -0.9183  0.3793
  950MOL0     H28218   4.119   6.835   1.384 -0.9334  0.2260 -0.1934
  950MOL0     H28219   4.023   6.711   1.295  1.9401  1.0714 -1.1421
  950MOL0     H28220   3.989   6.830   1.583  0.3516 -1.0719  0.7189
  950MOL0     H28221   3.926   6.675   1.537 -0.3572  0.4516 -1.8169
  950MOL0     H28222   3.821   6.809   1.323 -1.4141  1.6186  0.2605
  950MOL0     H28223   3.874   6.946   1.417 -1.5050 -0.0340  0.1792
  950MOL0     H28224   3.683   6.734   1.487  3.4893 -1.1653 -0.8049
  950MOL0     H28225   3.746   6.858   1.607 -0.9727 -2.1372  1.4148
  950MOL0     H28226   3.577   6.895   1.347  0.3347 -1.0169  0.0046
  950MOL0     H28227   3.657   7.034   1.423 -1.3773  0.1454  1.2575
  950MOL0     H28228   3.533   7.011   1.624 -1.5797  0.5662  1.5757
  950MOL0     H28229   3.421   7.008   1.498  2.1800  2.0374  0.2919
  950MOL0     H28230   4.307   6.583   0.971 -1.6407  0.7141  1.3085
  950MOL0     H28231   4.478   6.549   0.843 -0.7077  0.7662  0.7854
  950MOL0     H28232   4.996   6.411   0.904  1.8312  2.8076 -0.0983
  950MOL0     H28233   5.216   6.396   0.797  1.4132  3.1777 -1.9345
  950MOL0     H28234   5.656   5.351  -0.180  1.4075 -0.5234  2.9023
  950MOL0     H28235   5.415   5.362  -0.206 -0.3447  0.8371 -2.8392
  950MOL0     H28236   5.056   5.476  -0.238 -1.0116 -1.0160 -2.1539
  950MOL0     H28237   4.812   5.446  -0.263 -2.6558  0.0108  1.1729
  950MOL0     H28238   4.594   5.444  -0.258 -2.2369 -0.9999 -0.5084
  950MOL0     H28239   4.577   5.613  -0.217  2.1847 -0.3679 -0.1031
  950MOL0     H28240   4.359   5.577  -0.229 -3.8669  0.5088  2.0480
  950MOL0     H28241   4.386   5.543  -0.062 -1.9866  4.1253 -1.6605
  950MOL0     H28242   4.448   5.295  -0.205 -1.4619 -1.2434 -2.0898
  950MOL0     H28243   4.277   5.355  -0.237 -1.2327  0.9046  0.5989
  950MOL0     H28244   4.403   5.329   0.043  2.7303  1.3571 -3.5527
  950MOL0     H28245   4.232   5.371   0.005  0.4064 -0.1482  1.3241
  950MOL0     H28246   4.190   4.964  -0.091  1.8910 -1.2174 -1.4147
  950MOL0     H28247   4.751   5.578   0.130  2.5576  1.2240  1.2581
  950MOL0     H28248   5.077   5.677   0.230 -1.2109  1.1012  0.0539
  950MOL0     H28249   4.909   5.665   0.258 -1.7981 -1.0590 -2.9775
  950MOL0     H28250   5.007   5.516   0.270  0.2893 -0.0611  0.7617
  951MOL0     O28251   5.034   2.189   3.451 -0.1142  0.1564 -0.2328
  951MOL0     C28252   4.972   2.161   3.549 -0.4639  0.6718 -0.0378
  951MOL0     O28253   5.003   2.202   3.672  0.0946  0.0573  0.0058
  951MOL0     C28254   5.126   2.257   3.693  0.1969 -0.2357  0.5257
  951MOL0     C28255   5.140   2.345   3.799 -0.1388  0.8226  1.0737
  951MOL0     C28256   5.271   2.377   3.845  0.4761 -0.6870 -1.1259
  951MOL0     C28257   5.383   2.333   3.775 -0.4436  0.1827 -0.4053
  951MOL0     O28258   5.502   2.372   3.838 -0.1990 -0.2635  0.6669
  951MOL0     C28259   5.627   2.344   3.765 -0.4190  0.3946 -0.3964
  951MOL0     C28260   5.736   2.401   3.859  0.3087 -0.5489  0.1396
  951MOL0     C28261   5.881   2.359   3.819 -0.3791  0.0189 -0.1060
  951MOL0     C28262   5.988   2.411   3.918  0.3343 -0.3155 -0.0847
  951MOL0     C28263   6.123   2.369   3.876 -0.5972 -0.0917 -0.1560
  951MOL0     C28264   6.224   2.375   3.993 -0.2103 -0.3189 -0.6338
  951MOL0     C28265   6.375   2.377   3.960 -0.4188 -0.4236  0.0565
  951MOL0     C28266   6.413   2.281   3.847 -0.8957  0.9693  0.3570
  951MOL0     N28267   6.553   2.312   3.802  0.8226  0.1430 -0.4653
  951MOL0     C28268   6.661   2.256   3.848 -0.3298  0.0991 -0.5400
  951MOL0     C28269   6.758   2.274   3.756  0.3632  0.2054 -0.5808
  951MOL0     C28270   6.899   2.227   3.753 -0.1646  0.0429  0.5990
  951MOL0     C28271   6.995   2.300   3.847  0.6729 -0.5594  1.2012
  951MOL0     C28272   7.018   2.447   3.787  0.3997  0.7922  0.3285
  951MOL0     C28273   7.111   2.526   3.888  0.0847  0.7319 -0.1998
  951MOL0     O28274   7.245   2.471   3.881 -0.1085  0.8940 -0.3208
  951MOL0     C28275   7.330   2.498   3.781 -0.2421 -0.4186 -0.1791
  951MOL0     C28276   7.300   2.570   3.662  0.1431  0.0045 -0.4893
  951MOL0     C28277   7.396   2.586   3.564  0.9178  0.0031 -0.1769
  951MOL0     C28278   7.520   2.530   3.580 -0.5072  0.2107  0.5179
  951MOL0     C28279   7.623   2.551   3.481 -0.9411 -0.2203  0.5632
  951MOL0     O28280   7.725   2.462   3.466 -0.9505  0.2073  0.0758
  951MOL0     C28281   7.839   2.483   3.386 -0.0180  0.4488 -0.2918
  951MOL0     C28282   7.885   2.374   3.317  0.2562  0.1610  0.3822
  951MOL0     C28283   8.009   2.373   3.248  0.9310  0.4653 -0.6760
  951MOL0     C28284   8.087   2.488   3.251  0.1571 -0.4761  0.0003
  951MOL0     O28285   8.206   2.494   3.180 -1.1192  0.1214 -0.8885
  951MOL0     C28286   8.283   2.613   3.181  0.3216 -0.3076  0.0261
  951MOL0     C28287   8.393   2.594   3.077  0.0877  0.2060 -0.8767
  951MOL0     C28288   8.479   2.723   3.063  0.6566 -0.2137  0.0563
  951MOL0     C28289   8.584   2.713   2.952 -0.4655  0.5905  0.1325
  951MOL0     C28290   8.690   2.817   2.974  0.4034 -0.4865 -0.0488
  951MOL0     C28291   8.800   2.808   2.871 -0.4757 -0.3504  0.2174
  951MOL0     C28292   8.902   2.918   2.865 -0.2231  0.2321  0.6296
  951MOL0     C28293   8.996   2.896   2.756 -0.0489 -0.0516  1.3435
  951MOL0    Cl28294   9.109   3.035   2.741 -0.0681  0.0764 -0.3904
  951MOL0     C28295   8.022   2.604   3.300  0.3491  0.1079 -1.0209
  951MOL0     C28296   7.899   2.606   3.358  0.4640  0.4140  0.2657
  951MOL0     O28297   7.613   2.651   3.413 -0.1699 -0.6011 -0.2180
  951MOL0     C28298   7.553   2.460   3.695 -0.2148  0.5300  0.0992
  951MOL0     C28299   7.463   2.450   3.796  0.6427 -0.0940 -0.4950
  951MOL0     N28300   6.706   2.332   3.639  0.0568 -0.0888 -0.3918
  951MOL0     N28301   6.582   2.372   3.685 -0.1923 -0.3392  0.7057
  951MOL0     C28302   5.369   2.266   3.655 -0.4513  0.4083  0.4754
  951MOL0     C28303   5.244   2.222   3.620 -0.1874 -0.2580 -0.4352
  951MOL0     C28304   4.834   2.110   3.530 -0.4570  0.5082  0.4111
  951MOL0     C28305   4.810   2.044   3.412 -0.1122  0.2345  0.6132
  951MOL0     C28306   4.695   1.982   3.378  0.0136 -0.3082  0.3448
  951MOL0     C28307   4.589   1.989   3.458 -0.6721  0.0756  0.7750
  951MOL0     O28308   4.472   1.942   3.410  0.4978 -0.7529  0.4676
  951MOL0     C28309   4.355   1.939   3.486  0.6051  0.0880  0.0283
  951MOL0     C28310   4.361   1.827   3.572  0.1068  0.0752 -0.4571
  951MOL0     C28311   4.345   1.695   3.500  0.0261 -0.5580  0.9460
  951MOL0     C28312   4.305   1.578   3.593  0.0431 -1.3438 -0.6254
  951MOL0     C28313   4.278   1.458   3.519  0.5023  1.3503  0.1544
  951MOL0     C28314   4.262   1.351   3.455  0.8002 -0.3937  0.0726
  951MOL0     C28315   4.602   2.060   3.579  0.5917  0.1865  0.2763
  951MOL0     C28316   4.723   2.110   3.619 -0.6438 -0.3435 -0.1716
  951MOL0     C28317   4.727   2.173   3.755  0.1164  1.1061  1.0630
  951MOL0     H28318   5.053   2.362   3.861 -0.0791 -0.7092  1.6224
  951MOL0     H28319   5.287   2.442   3.930  1.1575 -0.1770 -1.6310
  951MOL0     H28320   5.627   2.235   3.767  0.3082  0.3876 -0.6966
  951MOL0     H28321   5.652   2.377   3.664  0.3400 -1.1035 -0.7159
  951MOL0     H28322   5.705   2.366   3.958 -0.2848 -2.1752 -0.5897
  951MOL0     H28323   5.732   2.511   3.856  0.0851 -0.5774 -0.9633
  951MOL0     H28324   5.913   2.376   3.716  3.4957 -0.7642  0.8009
  951MOL0     H28325   5.878   2.249   3.822  2.3428 -0.1327 -0.3572
  951MOL0     H28326   5.997   2.519   3.936  3.6106 -0.2541 -1.3624
  951MOL0     H28327   5.955   2.371   4.014 -0.6528 -0.7938 -0.6114
  951MOL0     H28328   6.108   2.266   3.842 -1.1486 -0.2130  0.4389
  951MOL0     H28329   6.153   2.424   3.786  0.9535 -1.6090 -0.6241
  951MOL0     H28330   6.207   2.459   4.060  0.4261  1.8727 -3.0742
  951MOL0     H28331   6.209   2.286   4.056 -0.8180  1.9368  2.6755
  951MOL0     H28332   6.446   2.365   4.043  1.8898  0.1911 -1.7406
  951MOL0     H28333   6.403   2.471   3.912 -0.8034 -1.4347 -2.2849
  951MOL0     H28334   6.398   2.183   3.894 -1.3644 -0.0696 -1.8331
  951MOL0     H28335   6.342   2.279   3.764  1.6043 -0.6525 -1.9105
  951MOL0     H28336   6.679   2.208   3.943  0.8899  0.7286 -0.4351
  951MOL0     H28337   6.899   2.123   3.787 -3.3456 -0.7702 -1.4409
  951MOL0     H28338   6.923   2.229   3.646 -1.2030 -2.4421  0.2606
  951MOL0     H28339   6.957   2.308   3.949 -0.9977 -3.0243  0.8520
  951MOL0     H28340   7.096   2.258   3.854  0.9332  0.1861  2.1446
  951MOL0     H28341   6.918   2.491   3.782  0.4904  1.3273  2.3911
  951MOL0     H28342   7.069   2.438   3.691 -1.8467  0.0226 -0.8758
  951MOL0     H28343   7.092   2.523   3.996  0.9334  3.1940  0.0794
  951MOL0     H28344   7.119   2.626   3.845 -1.2462 -0.6832 -4.1548
  951MOL0     H28345   7.202   2.616   3.659  0.0464  0.1214  2.3706
  951MOL0     H28346   7.368   2.639   3.474 -1.9867  1.3725  1.4176
  951MOL0     H28347   7.823   2.286   3.329  0.6643 -0.8123 -3.3147
  951MOL0     H28348   8.037   2.281   3.199  1.9496  0.2107  0.3400
  951MOL0     H28349   8.237   2.707   3.151  0.0184 -0.4249  0.1151
  951MOL0     H28350   8.332   2.637   3.276 -0.9700 -1.3000  0.9786
  951MOL0     H28351   8.469   2.520   3.106  0.3727  0.2178 -1.5850
  951MOL0     H28352   8.368   2.559   2.977  2.0974  1.6330 -1.9487
  951MOL0     H28353   8.410   2.805   3.042 -2.2091 -1.7206  2.8425
  951MOL0     H28354   8.529   2.761   3.153 -1.4929  0.3789  1.0588
  951MOL0     H28355   8.546   2.715   2.850  0.5366 -3.1952 -0.4885
  951MOL0     H28356   8.617   2.609   2.965 -3.8971 -0.9717 -2.1514
  951MOL0     H28357   8.730   2.800   3.074 -1.1663  1.5409  1.0051
  951MOL0     H28358   8.645   2.917   2.964 -0.4177 -0.8541 -0.1562
  951MOL0     H28359   8.860   2.717   2.879 -0.0202  0.0795  1.9166
  951MOL0     H28360   8.759   2.803   2.769  1.7373 -1.7131 -0.6940
  951MOL0     H28361   8.956   2.912   2.960  0.8889 -2.1953 -0.0868
  951MOL0     H28362   8.852   3.014   2.848  1.6636  0.7728 -2.6827
  951MOL0     H28363   9.058   2.807   2.762 -0.1071 -0.1885  0.0931
  951MOL0     H28364   8.937   2.890   2.664 -0.9541 -0.8738  1.9515
  951MOL0     H28365   8.070   2.701   3.301 -2.3437  1.5137  0.7013
  951MOL0     H28366   7.855   2.692   3.408  0.0378 -0.3168  1.1806
  951MOL0     H28367   7.656   2.428   3.703 -1.0277 -1.9431  1.8687
  951MOL0     H28368   7.478   2.391   3.885  1.0443  0.8840  0.1074
  951MOL0     H28369   5.451   2.248   3.586 -1.4172  2.5685 -1.4052
  951MOL0     H28370   5.237   2.168   3.527 -0.1963 -0.1345 -0.5056
  951MOL0     H28371   4.887   2.039   3.336 -1.1750 -1.1833 -0.4363
  951MOL0     H28372   4.679   1.922   3.289  0.2400 -0.0656  0.1413
  951MOL0     H28373   4.266   1.936   3.421  1.5597  3.2796 -1.6531
  951MOL0     H28374   4.339   2.029   3.545  1.2054 -0.6253  1.3197
  951MOL0     H28375   4.278   1.831   3.642  2.1887  2.1646  2.1412
  951MOL0     H28376   4.449   1.837   3.637 -0.8198 -1.2754  1.0627
  951MOL0     H28377   4.436   1.651   3.458 -1.5005 -2.3880 -0.6732
  951MOL0     H28378   4.272   1.698   3.419 -0.8931 -4.8121  1.3325
  951MOL0     H28379   4.388   1.560   3.661 -0.6512 -0.9395  0.3619
  951MOL0     H28380   4.224   1.608   3.661  1.1548 -1.5810  0.8330
  951MOL0     H28381   4.249   1.258   3.403  1.6666 -1.0032  0.9129
  951MOL0     H28382   4.528   2.061   3.657 -2.0410 -0.6493 -2.0330
  951MOL0     H28383   4.737   2.282   3.749  2.7137  0.9210  1.1881
  951MOL0     H28384   4.635   2.173   3.815  0.5475  1.7280  1.7427
  951MOL0     H28385   4.802   2.125   3.819  1.3136  2.3711  0.6558
  952MOL0     O28386   2.399   2.686  11.274  0.1280  0.1271 -0.7113
  952MOL0     C28387   2.353   2.594  11.335 -0.3857  0.2823 -0.4032
  952MOL0     O28388   2.423   2.507  11.419  0.5619  0.1478  0.1296
  952MOL0     C28389   2.541   2.532  11.473  1.0300  0.7776 -0.2625
  952MOL0     C28390   2.652   2.560  11.396 -0.2812 -0.3816 -0.0765
  952MOL0     C28391   2.777   2.539  11.458  0.3064  0.0507  1.2981
  952MOL0     C28392   2.791   2.500  11.589  0.1015 -0.3900  0.1689
  952MOL0     O28393   2.920   2.483  11.652  0.6006 -0.1316  0.6125
  952MOL0     C28394   2.985   2.366  11.595  0.2606  0.4370 -0.1159
  952MOL0     C28395   3.128   2.374  11.639 -0.4196 -0.5025  0.5843
  952MOL0     C28396   3.215   2.279  11.567 -1.3013 -0.5918 -0.3260
  952MOL0     C28397   3.371   2.314  11.607  0.1358 -0.3121 -0.3987
  952MOL0     C28398   3.470   2.233  11.526 -0.4803 -0.3668 -0.0877
  952MOL0     C28399   3.610   2.300  11.521 -0.1757  0.1065 -0.1355
  952MOL0     C28400   3.702   2.236  11.417 -0.3556 -0.1792  0.2139
  952MOL0     C28401   3.831   2.319  11.413  0.1639 -0.5466  0.8197
  952MOL0     N28402   3.932   2.252  11.332  0.3108  0.2204  0.9016
  952MOL0     C28403   4.032   2.174  11.383 -1.0086  0.5522  0.9608
  952MOL0     C28404   4.118   2.148  11.274  0.6710 -0.1604 -0.6569
  952MOL0     C28405   4.252   2.085  11.272  0.0562  0.7030  0.6060
  952MOL0     C28406   4.277   2.017  11.145 -0.5186 -0.4893  0.4304
  952MOL0     C28407   4.424   1.982  11.108 -0.7874  0.5597 -0.2170
  952MOL0     C28408   4.489   2.113  11.061  0.4789 -0.1773 -0.4873
  952MOL0     O28409   4.606   2.098  10.985 -0.8894 -0.8530  0.0064
  952MOL0     C28410   4.726   2.075  11.047 -0.6982 -0.3665 -0.9024
  952MOL0     C28411   4.745   2.066  11.190 -0.7443 -0.0678 -0.3876
  952MOL0     C28412   4.873   2.045  11.240  0.8574 -0.4132  0.0561
  952MOL0     C28413   4.985   2.033  11.160 -0.5987 -0.1058 -0.4131
  952MOL0     C28414   5.115   2.005  11.212 -0.2693 -0.2982 -0.7505
  952MOL0     O28415   5.117   2.010  11.352  0.3751 -0.1774 -0.3969
  952MOL0     C28416   5.233   1.973  11.413 -1.1047  0.9991  0.9387
  952MOL0     C28417   5.229   1.866  11.500 -0.9022 -0.5117  0.1055
  952MOL0     C28418   5.355   1.832  11.573  0.2952 -0.0592  0.0580
  952MOL0     C28419   5.466   1.913  11.561  0.2789  0.1820 -0.4440
  952MOL0     O28420   5.582   1.886  11.626 -0.4436  0.1052 -0.7657
  952MOL0     C28421   5.618   1.767  11.693  0.8374 -0.2925 -0.5517
  952MOL0     C28422   5.764   1.743  11.714 -0.7264  0.2842 -0.2111
  952MOL0     C28423   5.831   1.722  11.577 -0.0053 -0.3616 -0.9895
  952MOL0     C28424   5.985   1.729  11.590 -1.2316  0.2660  0.2676
  952MOL0     C28425   6.042   1.731  11.446 -0.0282  0.9210 -0.4845
  952MOL0     C28426   6.178   1.656  11.434  0.0639  0.1792  0.4358
  952MOL0     C28427   6.224   1.652  11.288 -0.0999 -0.8124 -0.3690
  952MOL0     C28428   6.359   1.594  11.263 -0.1202 -0.8662 -1.1743
  952MOL0    Cl28429   6.412   1.603  11.094  0.2812  0.0408 -0.1946
  952MOL0     C28430   5.469   2.021  11.473  0.2110  0.8999  0.8012
  952MOL0     C28431   5.355   2.049  11.390  0.6862 -0.0764  0.9194
  952MOL0     O28432   5.210   1.970  11.138  1.2415  0.5699 -0.7208
  952MOL0     C28433   4.970   2.038  11.021 -0.8087 -1.1439 -0.4209
  952MOL0     C28434   4.846   2.068  10.966  0.2476  0.1797 -0.0973
  952MOL0     N28435   4.073   2.225  11.169 -0.2395  0.3017  0.1937
  952MOL0     N28436   3.962   2.286  11.198 -0.6848  1.1091  0.3604
  952MOL0     C28437   2.674   2.483  11.665 -0.9846  0.1008 -0.6265
  952MOL0     C28438   2.552   2.481  11.606 -0.0401 -0.1438 -0.3215
  952MOL0     C28439   2.200   2.581  11.323 -0.2010 -0.5831  0.3417
  952MOL0     C28440   2.144   2.466  11.360  0.2783  0.1031  0.3742
  952MOL0     C28441   2.001   2.436  11.357 -0.1966  0.1789  0.2250
  952MOL0     C28442   1.914   2.531  11.306  0.5605 -0.6104  0.0490
  952MOL0     O28443   1.784   2.500  11.319 -0.3516 -0.1421 -0.3476
  952MOL0     C28444   1.683   2.600  11.312 -0.3538  0.8734 -0.0145
  952MOL0     C28445   1.544   2.531  11.305  0.5992  0.4296 -0.2608
  952MOL0     C28446   1.433   2.611  11.378 -0.0179  0.3356  0.0722
  952MOL0     C28447   1.290   2.564  11.364  0.0812  0.1977 -0.3374
  952MOL0     C28448   1.238   2.554  11.231 -0.6887 -0.6225  0.6966
  952MOL0     C28449   1.186   2.541  11.117  0.5859 -0.1544 -0.2204
  952MOL0     C28450   1.970   2.655  11.268  1.0821 -0.2351  0.0467
  952MOL0     C28451   2.112   2.681  11.273  0.6413 -1.1527 -0.0879
  952MOL0     C28452   2.159   2.816  11.221  0.0316  0.5059 -0.1339
  952MOL0     H28453   2.633   2.588  11.293  0.6284 -0.0714 -0.1679
  952MOL0     H28454   2.867   2.561  11.402 -0.4405  0.3843  0.1958
  952MOL0     H28455   2.937   2.277  11.637  3.1971 -0.5136  1.5405
  952MOL0     H28456   2.987   2.366  11.486 -0.3749  2.4936 -0.1789
  952MOL0     H28457   3.126   2.339  11.742 -0.8363  1.9217  1.4597
  952MOL0     H28458   3.161   2.478  11.623  0.4587 -0.4597  2.4210
  952MOL0     H28459   3.207   2.278  11.458  0.3422 -0.0352 -0.4679
  952MOL0     H28460   3.183   2.177  11.594 -0.0872 -0.1468  3.3164
  952MOL0     H28461   3.388   2.421  11.591 -1.2003 -0.4119 -2.9269
  952MOL0     H28462   3.393   2.297  11.713 -0.4023  2.0541  0.1667
  952MOL0     H28463   3.477   2.133  11.570 -1.2411  0.1735  1.3230
  952MOL0     H28464   3.441   2.223  11.421  3.0873 -1.1149 -1.1150
  952MOL0     H28465   3.594   2.404  11.490 -1.4729  0.7620  2.4420
  952MOL0     H28466   3.655   2.302  11.621 -0.5104 -0.9903  0.0499
  952MOL0     H28467   3.663   2.226  11.315 -0.5172  1.3547  0.1041
  952MOL0     H28468   3.720   2.129  11.429  1.1291 -0.4468 -3.1396
  952MOL0     H28469   3.808   2.417  11.369 -1.4473 -0.6605  1.3463
  952MOL0     H28470   3.871   2.339  11.512  1.3400 -1.1248  0.4687
  952MOL0     H28471   4.045   2.151  11.488  0.4962  0.0377  0.6882
  952MOL0     H28472   4.323   2.161  11.307  0.2860 -0.2685  2.3696
  952MOL0     H28473   4.266   2.000  11.339 -2.0945  1.4618  2.1511
  952MOL0     H28474   4.214   1.929  11.151 -2.7830  0.9332 -0.9028
  952MOL0     H28475   4.238   2.071  11.058  1.7291  2.0131  0.8204
  952MOL0     H28476   4.422   1.906  11.030  0.5387  0.1922  0.0816
  952MOL0     H28477   4.474   1.939  11.196  0.4000 -0.2388 -1.2447
  952MOL0     H28478   4.506   2.183  11.143 -2.3621  0.6456 -0.5006
  952MOL0     H28479   4.415   2.170  11.004  0.7635  1.5379  0.7585
  952MOL0     H28480   4.666   2.084  11.262 -0.2109  1.6726 -0.1904
  952MOL0     H28481   4.881   2.035  11.348  0.0326  0.9840  0.2628
  952MOL0     H28482   5.136   1.811  11.512 -3.0310  2.8087 -0.0351
  952MOL0     H28483   5.349   1.757  11.651 -0.0066 -0.9784 -0.8159
  952MOL0     H28484   5.560   1.766  11.786 -0.0554 -1.4937 -1.0903
  952MOL0     H28485   5.577   1.682  11.637  0.6633 -0.3217 -0.3814
  952MOL0     H28486   5.809   1.823  11.775 -1.4248 -0.3877  1.2463
  952MOL0     H28487   5.777   1.644  11.759 -3.0606  0.2473  0.5198
  952MOL0     H28488   5.793   1.631  11.529  0.0050 -0.3621 -0.9970
  952MOL0     H28489   5.797   1.803  11.511  4.2263  0.0724 -2.9502
  952MOL0     H28490   6.013   1.639  11.644  1.1824  0.9198  0.2211
  952MOL0     H28491   6.029   1.814  11.643 -0.0459  0.2073 -0.5667
  952MOL0     H28492   6.065   1.834  11.416 -0.1080  0.3163 -2.7882
  952MOL0     H28493   5.969   1.688  11.377  1.7241 -2.6109 -0.3533
  952MOL0     H28494   6.256   1.702  11.495  2.4429 -1.1702 -1.4076
  952MOL0     H28495   6.159   1.556  11.473 -2.1890  0.8076  1.1276
  952MOL0     H28496   6.215   1.753  11.246  3.1141 -0.9229 -1.6088
  952MOL0     H28497   6.158   1.584  11.234 -0.6663 -0.4780 -0.1087
  952MOL0     H28498   6.437   1.641  11.324 -2.1049 -1.9037  2.4633
  952MOL0     H28499   6.369   1.488  11.284 -0.3728 -1.1157 -2.2450
  952MOL0     H28500   5.555   2.085  11.459  1.3788 -0.2667  2.2352
  952MOL0     H28501   5.359   2.139  11.330 -1.8133  0.7647  1.8556
  952MOL0     H28502   5.057   2.027  10.957 -0.5128  3.0768 -1.0687
  952MOL0     H28503   4.825   2.071  10.860  1.0414 -0.1836 -0.2702
  952MOL0     H28504   2.680   2.460  11.770 -1.3451  0.7180 -0.4643
  952MOL0     H28505   2.468   2.440  11.662 -0.2236 -0.5110 -0.8682
  952MOL0     H28506   2.207   2.387  11.401  0.7205 -0.3174 -1.0470
  952MOL0     H28507   1.959   2.347  11.403 -0.0341 -0.2256 -0.3856
  952MOL0     H28508   1.697   2.651  11.216  0.8045 -1.5679 -1.2190
  952MOL0     H28509   1.701   2.674  11.391  1.3371  2.3461 -1.6999
  952MOL0     H28510   1.541   2.431  11.350 -0.9118  0.3531 -0.4891
  952MOL0     H28511   1.529   2.515  11.198  0.1821  2.5573 -0.5539
  952MOL0     H28512   1.434   2.707  11.326 -0.4994 -1.7380 -4.1192
  952MOL0     H28513   1.450   2.616  11.486  0.1025 -2.1388  0.2243
  952MOL0     H28514   1.283   2.466  11.412 -1.2144  0.6165  0.3671
  952MOL0     H28515   1.224   2.628  11.422 -0.4133  0.1340 -0.8270
  952MOL0     H28516   1.141   2.527  11.021 -0.4713  1.6147 -0.0219
  952MOL0     H28517   1.903   2.729  11.224 -1.7367 -2.5527  0.2056
  952MOL0     H28518   2.080   2.892  11.224  1.2802  1.8587 -0.2601
  952MOL0     H28519   2.238   2.862  11.281 -0.4289 -1.8563  2.4611
  952MOL0     H28520   2.201   2.797  11.122 -2.3181  0.3020 -1.1692
  953MOL0     O28521   8.118   4.669   5.034 -0.8094 -0.4265  0.8763
  953MOL0     C28522   8.091   4.631   5.144  0.0321  0.1299 -0.3686
  953MOL0     O28523   8.175   4.623   5.247 -0.0536 -0.8233  0.0950
  953MOL0     C28524   8.308   4.615   5.227  0.3268  1.2990 -0.5769
  953MOL0     C28525   8.355   4.486   5.206  0.4427 -0.6550  0.1595
  953MOL0     C28526   8.498   4.467   5.190 -0.2913  0.5149  0.2543
  953MOL0     C28527   8.589   4.568   5.201  0.4840 -0.3151  0.3437
  953MOL0     O28528   8.724   4.542   5.196 -0.0817 -0.2147 -0.4305
  953MOL0     C28529   8.810   4.628   5.270  0.4905 -0.1401 -0.3265
  953MOL0     C28530   8.948   4.567   5.269  0.0164  0.4768  0.2830
  953MOL0     C28531   9.053   4.677   5.300 -0.2325 -0.6851 -0.4544
  953MOL0     C28532   9.196   4.616   5.310  0.8693  0.2070  0.0064
  953MOL0     C28533   9.276   4.626   5.175  0.2531 -0.3573 -0.4495
  953MOL0     C28534   9.426   4.614   5.204 -0.4542  0.3601 -0.2358
  953MOL0     C28535   9.498   4.631   5.068 -0.0170 -0.0501 -0.0926
  953MOL0     C28536   9.649   4.656   5.080  0.7063  0.4979  0.4820
  953MOL0     N28537   9.698   4.737   4.970 -0.1359 -0.2952 -0.3661
  953MOL0     C28538   9.815   4.713   4.903 -0.1774 -0.3492 -0.0897
  953MOL0     C28539   9.849   4.830   4.852  0.2090 -1.0981 -0.2577
  953MOL0     C28540   9.975   4.872   4.778 -0.0505 -1.0168 -0.1292
  953MOL0     C28541  10.099   4.869   4.870  0.0507 -0.1600  0.4090
  953MOL0     C28542  10.212   4.932   4.806  0.1232  0.1233 -0.8153
  953MOL0     C28543  10.350   4.919   4.879 -0.1655 -0.1088 -0.2841
  953MOL0     O28544  10.401   4.784   4.873 -0.0587 -0.6359 -0.3873
  953MOL0     C28545  10.540   4.772   4.879  0.6253 -1.0288  0.3272
  953MOL0     C28546  10.592   4.647   4.843  0.0907 -0.5477  0.3015
  953MOL0     C28547  10.723   4.609   4.852  0.0357  0.2141 -0.2363
  953MOL0     C28548  10.818   4.705   4.886  0.3894 -0.4335  0.1156
  953MOL0     C28549  10.959   4.680   4.877  0.0135  0.8753 -0.4329
  953MOL0     O28550  11.040   4.785   4.921  0.0804  0.0336  0.1841
  953MOL0     C28551  11.176   4.778   4.938 -0.2818  0.1052 -0.7519
  953MOL0     C28552  11.240   4.858   5.045  0.5491 -0.0670  0.2416
  953MOL0     C28553  11.377   4.843   5.079 -0.7608  0.2214 -0.5850
  953MOL0     C28554  11.458   4.756   4.998 -0.4102 -0.0015  0.6286
  953MOL0     O28555  11.595   4.723   5.015  0.8197 -0.5098  0.0547
  953MOL0     C28556  11.667   4.793   5.115  0.2497  0.0197  0.2103
  953MOL0     C28557  11.814   4.748   5.127 -0.6854 -0.2950 -0.8797
  953MOL0     C28558  11.895   4.816   5.234 -0.2521 -0.1540 -0.5152
  953MOL0     C28559  11.865   4.766   5.382 -0.0302 -0.1502 -0.5452
  953MOL0     C28560  11.972   4.808   5.485 -0.2744  0.2026 -0.3284
  953MOL0     C28561  12.099   4.708   5.484  0.5664 -1.3637 -0.1084
  953MOL0     C28562  12.208   4.758   5.575 -0.5793  0.8729 -0.1057
  953MOL0     C28563  12.310   4.646   5.605 -0.0605 -0.4179 -0.7556
  953MOL0    Cl28564  12.223   4.552   5.721 -0.7538 -0.3159  0.7804
  953MOL0     C28565  11.396   4.687   4.891  0.0234  0.0603 -0.4553
  953MOL0     C28566  11.265   4.697   4.868  0.9480 -0.0787  0.2797
  953MOL0     O28567  11.001   4.567   4.853 -0.2227 -0.2512 -0.4763
  953MOL0     C28568  10.774   4.832   4.915 -0.1192 -0.7891 -0.0559
  953MOL0     C28569  10.639   4.871   4.907 -0.1327 -0.5404 -0.8278
  953MOL0     N28570   9.752   4.923   4.865 -0.1541 -0.7009  0.5509
  953MOL0     N28571   9.663   4.872   4.942 -0.5994 -0.5373  0.2696
  953MOL0     C28572   8.533   4.691   5.229 -1.1334  0.2411 -0.1836
  953MOL0     C28573   8.401   4.714   5.244 -0.3862  0.8794 -0.2365
  953MOL0     C28574   7.947   4.600   5.165  0.4623 -0.0966  0.3199
  953MOL0     C28575   7.844   4.675   5.093  0.4488 -0.2685 -0.6499
  953MOL0     C28576   7.705   4.649   5.106  0.3752 -0.1382  0.2101
  953MOL0     C28577   7.658   4.552   5.190 -1.0066  0.5291  0.2133
  953MOL0     O28578   7.521   4.545   5.204  0.3422  0.2962 -0.4514
  953MOL0     C28579   7.461   4.458   5.310 -0.4271  0.6073  0.0865
  953MOL0     C28580   7.311   4.479   5.325  0.6624  0.4423 -0.2990
  953MOL0     C28581   7.271   4.626   5.330  0.1955  0.0557 -0.2091
  953MOL0     C28582   7.136   4.646   5.394 -0.1780  0.0731 -0.0138
  953MOL0     C28583   7.029   4.554   5.354 -0.7937 -0.0804 -0.2010
  953MOL0     C28584   6.946   4.484   5.308 -0.6796  0.4018 -0.4120
  953MOL0     C28585   7.761   4.476   5.255  0.0803 -0.0710 -0.1034
  953MOL0     C28586   7.901   4.493   5.245  0.1030  0.9620 -0.2155
  953MOL0     C28587   8.000   4.390   5.304  1.2438 -0.9408  1.0817
  953MOL0     H28588   8.282   4.406   5.204 -1.7336  1.2419 -0.0304
  953MOL0     H28589   8.544   4.370   5.173  0.3640  1.0509 -1.2537
  953MOL0     H28590   8.805   4.727   5.225 -4.3916  0.6561  1.3770
  953MOL0     H28591   8.790   4.646   5.376 -0.4665 -1.4980 -0.2550
  953MOL0     H28592   8.960   4.537   5.165 -1.0540 -0.5612  0.4466
  953MOL0     H28593   8.960   4.476   5.329  0.5008  0.5452  0.2952
  953MOL0     H28594   9.031   4.728   5.395 -0.9237  0.3929 -1.1774
  953MOL0     H28595   9.041   4.757   5.227  2.7567  0.2760 -0.0402
  953MOL0     H28596   9.242   4.688   5.378  0.8751  2.5790 -2.3564
  953MOL0     H28597   9.199   4.514   5.348  2.1870  0.4667  0.6454
  953MOL0     H28598   9.246   4.556   5.096 -0.6343  0.8693 -1.2223
  953MOL0     H28599   9.270   4.730   5.142  2.8761 -0.1994 -0.6396
  953MOL0     H28600   9.442   4.701   5.268  1.2289 -2.8320  4.1951
  953MOL0     H28601   9.458   4.530   5.266 -0.0656  1.5473  1.2237
  953MOL0     H28602   9.455   4.721   5.021 -1.8783 -1.8135 -1.9627
  953MOL0     H28603   9.472   4.553   4.996  6.4500 -2.9410  0.0658
  953MOL0     H28604   9.673   4.704   5.175  0.7279  2.5056 -0.4851
  953MOL0     H28605   9.708   4.564   5.083  1.8400  1.0894 -1.4512
  953MOL0     H28606   9.872   4.621   4.907 -1.8808 -1.4206  0.6505
  953MOL0     H28607   9.997   4.809   4.691 -0.1608  0.4166 -1.2441
  953MOL0     H28608   9.976   4.973   4.735  1.4230 -1.3495 -0.9649
  953MOL0     H28609  10.084   4.915   4.968  1.7309 -0.0889  0.6514
  953MOL0     H28610  10.125   4.764   4.890  0.6283  0.2261  1.7709
  953MOL0     H28611  10.195   5.040   4.803  1.9033  0.4028 -2.8077
  953MOL0     H28612  10.217   4.903   4.701  1.2305 -0.4754 -0.6114
  953MOL0     H28613  10.344   4.941   4.986  0.6064  2.3474 -0.6915
  953MOL0     H28614  10.426   4.980   4.830  0.5747 -1.5093 -0.9126
  953MOL0     H28615  10.517   4.577   4.807  0.3194 -0.5997 -0.0760
  953MOL0     H28616  10.752   4.512   4.814 -1.1046  0.3256 -1.4909
  953MOL0     H28617  11.173   4.929   5.093 -1.3469 -1.1263 -0.6828
  953MOL0     H28618  11.429   4.908   5.149 -1.0647 -2.6054  2.4758
  953MOL0     H28619  11.673   4.894   5.074 -0.0947  0.1099  0.3872
  953MOL0     H28620  11.609   4.794   5.207 -1.5692  0.8553 -0.8973
  953MOL0     H28621  11.818   4.639   5.139 -0.6844 -0.3008 -0.9334
  953MOL0     H28622  11.873   4.775   5.039  3.6220  2.1737  2.3446
  953MOL0     H28623  11.997   4.790   5.202  0.2296  0.2263  0.6520
  953MOL0     H28624  11.873   4.923   5.237 -1.7663 -0.4652  0.8957
  953MOL0     H28625  11.854   4.658   5.388 -2.9084  0.1321  1.1533
  953MOL0     H28626  11.768   4.804   5.415  0.5159 -0.3551  1.4029
  953MOL0     H28627  11.917   4.801   5.579 -0.3440 -0.3755 -0.4071
  953MOL0     H28628  12.019   4.906   5.473  0.7080 -0.4091 -1.7043
  953MOL0     H28629  12.061   4.613   5.521 -2.2668  0.1704  1.2625
  953MOL0     H28630  12.134   4.695   5.381 -2.5799  0.0082 -1.4857
  953MOL0     H28631  12.163   4.791   5.669 -1.0729  0.8828 -0.3436
  953MOL0     H28632  12.268   4.843   5.541 -2.4766  1.9955 -0.7651
  953MOL0     H28633  12.347   4.594   5.516  0.9194  0.7155 -1.0378
  953MOL0     H28634  12.395   4.695   5.652  0.0935 -0.5518 -0.8933
  953MOL0     H28635  11.446   4.613   4.829 -2.2580  0.3056 -2.7642
  953MOL0     H28636  11.223   4.635   4.789  0.9913  2.4625 -1.8551
  953MOL0     H28637  10.837   4.918   4.936 -0.5927  0.1767 -2.2622
  953MOL0     H28638  10.613   4.971   4.940  2.3571 -0.1774  0.2373
  953MOL0     H28639   8.593   4.781   5.235  0.9909 -1.1709  3.2057
  953MOL0     H28640   8.370   4.815   5.266 -0.8711  0.7078 -0.1230
  953MOL0     H28641   7.882   4.751   5.025 -0.1478 -0.1147 -0.8203
  953MOL0     H28642   7.631   4.717   5.065 -1.4236 -1.2242  1.5269
  953MOL0     H28643   7.509   4.485   5.405 -1.4937 -1.6875  1.3664
  953MOL0     H28644   7.479   4.350   5.299 -3.8074 -0.1867  1.1021
  953MOL0     H28645   7.293   4.425   5.418  3.3006 -1.3565 -0.7182
  953MOL0     H28646   7.262   4.433   5.238  0.7401 -1.0617  0.4286
  953MOL0     H28647   7.275   4.677   5.233 -0.3684  3.1810  1.2819
  953MOL0     H28648   7.346   4.677   5.390 -0.4234  1.4232 -0.5592
  953MOL0     H28649   7.149   4.637   5.503  0.4960  0.1267 -0.0916
  953MOL0     H28650   7.101   4.744   5.360  1.9674 -0.0516 -2.9575
  953MOL0     H28651   6.873   4.412   5.275 -1.1306  1.3161 -1.4663
  953MOL0     H28652   7.725   4.402   5.326  1.1892 -3.4212 -2.7705
  953MOL0     H28653   8.064   4.347   5.226  2.0405  0.9972  0.6240
  953MOL0     H28654   8.059   4.430   5.387  0.3556  2.0852  0.3673
  953MOL0     H28655   7.939   4.313   5.351  0.2271  0.7266  2.6103
  954MOL0     O28656   0.595   9.330   1.111  0.9255  0.3837 -0.8686
  954MOL0     C28657   0.532   9.269   1.198 -0.3107  0.3035 -0.8162
  954MOL0     O28658   0.572   9.265   1.330  0.4652 -0.9986 -0.5714
  954MOL0     C28659   0.694   9.324   1.366  0.2901  0.3835 -0.5009
  954MOL0     C28660   0.805   9.244   1.382  0.2048 -0.8864  0.6720
  954MOL0     C28661   0.931   9.288   1.429  0.2455 -0.4787 -0.8663
  954MOL0     C28662   0.931   9.423   1.477 -0.0713 -0.1276 -0.0790
  954MOL0     O28663   1.033   9.484   1.538 -0.4897  0.0535 -0.0421
  954MOL0     C28664   1.145   9.395   1.574 -0.8086  0.3515  1.1398
  954MOL0     C28665   1.269   9.476   1.618 -0.6472 -0.6005 -0.0946
  954MOL0     C28666   1.396   9.400   1.635 -0.1376  1.0049  0.2323
  954MOL0     C28667   1.524   9.483   1.653 -0.0052 -0.3534 -0.8165
  954MOL0     C28668   1.638   9.381   1.676 -0.0243  0.2805  0.3184
  954MOL0     C28669   1.776   9.460   1.696  0.0598  0.6013  1.0351
  954MOL0     C28670   1.885   9.356   1.701  0.2942 -0.2401 -0.8706
  954MOL0     C28671   2.024   9.408   1.670 -0.3627  0.4635  0.6126
  954MOL0     N28672   2.112   9.290   1.675  0.4406 -0.0716 -0.4638
  954MOL0     C28673   2.184   9.223   1.579 -0.1415  0.5595 -0.8367
  954MOL0     C28674   2.246   9.126   1.653  0.6009  0.1651 -0.0696
  954MOL0     C28675   2.329   9.014   1.592 -0.7189 -0.2951 -0.0718
  954MOL0     C28676   2.484   9.043   1.585 -0.7883 -0.9952  0.1413
  954MOL0     C28677   2.565   8.934   1.514 -0.6234 -1.0079 -0.4238
  954MOL0     C28678   2.718   8.958   1.513 -0.1075  0.2015  0.0642
  954MOL0     O28679   2.775   8.976   1.647  0.3807 -0.2401  0.2511
  954MOL0     C28680   2.909   8.985   1.654  0.1169 -0.5880 -0.5943
  954MOL0     C28681   2.973   8.928   1.761 -0.0602  1.3695  0.0535
  954MOL0     C28682   3.107   8.943   1.781 -0.3003  0.0731 -0.0020
  954MOL0     C28683   3.188   9.007   1.687  0.1286 -0.2259  0.3050
  954MOL0     C28684   3.331   9.025   1.705 -0.5905  0.1164 -0.0122
  954MOL0     O28685   3.391   9.141   1.642  0.0499 -0.4821  0.0505
  954MOL0     C28686   3.529   9.156   1.660  1.0171  0.6698 -0.0958
  954MOL0     C28687   3.577   9.234   1.772 -0.3254  0.2901  0.0353
  954MOL0     C28688   3.711   9.253   1.786  0.0023  0.5837 -0.1226
  954MOL0     C28689   3.799   9.205   1.692  0.4205 -0.3870  0.3610
  954MOL0     O28690   3.937   9.226   1.696  0.2013  0.9735  0.2794
  954MOL0     C28691   4.000   9.304   1.596 -0.0548 -0.4431  0.5821
  954MOL0     C28692   4.134   9.363   1.633 -0.4593  0.8221  0.5241
  954MOL0     C28693   4.249   9.303   1.553 -0.5400 -0.4503  0.1416
  954MOL0     C28694   4.382   9.367   1.579 -1.0274 -0.3272 -0.2780
  954MOL0     C28695   4.487   9.300   1.490  0.4858 -0.5793  1.2727
  954MOL0     C28696   4.619   9.377   1.500  0.3611 -0.4440 -0.6337
  954MOL0     C28697   4.744   9.292   1.470  0.2591  0.5322 -0.4902
  954MOL0     C28698   4.874   9.368   1.493  0.6835  0.6856 -0.2315
  954MOL0    Cl28699   5.002   9.282   1.400 -0.0296  0.1412  0.4023
  954MOL0     C28700   3.746   9.135   1.584 -0.1370 -0.5621 -0.0021
  954MOL0     C28701   3.614   9.106   1.567  0.3478  1.0552 -0.6177
  954MOL0     O28702   3.394   8.934   1.762 -0.0464 -0.4229  0.3080
  954MOL0     C28703   3.121   9.066   1.574  0.0614 -0.0444 -0.0397
  954MOL0     C28704   2.983   9.065   1.561 -0.5798 -0.4420  0.4120
  954MOL0     N28705   2.206   9.133   1.786  0.1278 -0.1943  0.5906
  954MOL0     N28706   2.141   9.245   1.798 -0.8252 -0.1157  0.1449
  954MOL0     C28707   0.817   9.505   1.452  0.4077  0.3432  0.3042
  954MOL0     C28708   0.700   9.457   1.395 -0.6458 -0.9200 -0.6440
  954MOL0     C28709   0.397   9.201   1.158 -0.6615 -0.8710  0.5709
  954MOL0     C28710   0.339   9.122   1.253 -0.8415  0.4956  0.3900
  954MOL0     C28711   0.212   9.063   1.225 -0.7275 -0.6245  0.3487
  954MOL0     C28712   0.150   9.064   1.103 -1.5283  0.1882  0.8704
  954MOL0     O28713   0.028   9.019   1.073 -0.3719 -0.2127 -0.8499
  954MOL0     C28714  -0.053   8.964   1.183  0.0794  0.1878 -0.1071
  954MOL0     C28715  -0.187   8.905   1.107  0.2461 -0.6654 -0.4984
  954MOL0     C28716  -0.275   8.829   1.213 -0.4334  0.2183  0.5048
  954MOL0     C28717  -0.214   8.699   1.267  0.3678  0.2587  0.9003
  954MOL0     C28718  -0.305   8.639   1.371 -0.0806  0.5054 -0.3704
  954MOL0     C28719  -0.382   8.609   1.458 -0.2184  0.4198  0.5337
  954MOL0     C28720   0.218   9.143   1.003 -0.3140  0.2358  0.5472
  954MOL0     C28721   0.327   9.212   1.030 -0.5165 -1.0165  0.8412
  954MOL0     C28722   0.370   9.313   0.929 -0.0379  0.7713 -0.0024
  954MOL0     H28723   0.799   9.137   1.363 -1.0546 -1.2930  2.9238
  954MOL0     H28724   1.023   9.230   1.434  1.4971  1.1174 -3.3006
  954MOL0     H28725   1.113   9.323   1.650 -1.3003  1.3341  1.8941
  954MOL0     H28726   1.186   9.339   1.490  1.6347  0.6076  2.0882
  954MOL0     H28727   1.243   9.523   1.713  0.6426 -0.2719  0.1154
  954MOL0     H28728   1.284   9.553   1.541  0.4808 -1.4953 -0.8027
  954MOL0     H28729   1.412   9.326   1.555  0.8482 -1.2664  2.3981
  954MOL0     H28730   1.374   9.335   1.720  0.2523 -1.0280 -1.1192
  954MOL0     H28731   1.541   9.541   1.561 -3.0849 -0.4105 -1.5020
  954MOL0     H28732   1.509   9.558   1.732  0.5250 -2.0158  0.9432
  954MOL0     H28733   1.625   9.332   1.773  4.3950 -1.5019  0.2577
  954MOL0     H28734   1.634   9.298   1.604 -0.0381 -1.4377  2.1983
  954MOL0     H28735   1.784   9.540   1.622 -1.8813 -0.5804 -0.5439
  954MOL0     H28736   1.775   9.502   1.797 -2.0062 -0.0553  1.3363
  954MOL0     H28737   1.859   9.275   1.633 -4.7108 -1.6452  2.1771
  954MOL0     H28738   1.887   9.310   1.800  2.4226 -1.0341 -1.2359
  954MOL0     H28739   2.030   9.460   1.574  0.3049 -3.9458 -2.0202
  954MOL0     H28740   2.061   9.478   1.746  0.0109 -1.3541  2.1955
  954MOL0     H28741   2.187   9.237   1.471  1.2274  3.7749 -0.4842
  954MOL0     H28742   2.310   8.916   1.635  1.2705 -0.8384 -0.3374
  954MOL0     H28743   2.292   9.012   1.489  1.7207  2.1597 -1.1184
  954MOL0     H28744   2.503   9.137   1.531  0.8778 -0.1913  2.0185
  954MOL0     H28745   2.532   9.068   1.680  2.8443  0.9792 -2.0038
  954MOL0     H28746   2.543   8.941   1.407 -1.3185  2.2403 -0.1905
  954MOL0     H28747   2.537   8.836   1.553 -1.0314 -1.3895 -1.6242
  954MOL0     H28748   2.734   9.054   1.462  2.7201 -0.4841 -0.5630
  954MOL0     H28749   2.760   8.873   1.458 -3.5065 -3.2213  2.2859
  954MOL0     H28750   2.919   8.868   1.833  1.2985  1.9478  1.6489
  954MOL0     H28751   3.166   8.908   1.866 -0.7816 -2.1460 -0.5291
  954MOL0     H28752   3.504   9.283   1.836 -1.4848 -1.6388  0.2860
  954MOL0     H28753   3.736   9.313   1.873  1.7231 -0.6525  0.2828
  954MOL0     H28754   4.019   9.235   1.513  3.8060 -0.2559  1.1390
  954MOL0     H28755   3.929   9.376   1.553 -0.0044 -1.0917 -0.6252
  954MOL0     H28756   4.136   9.466   1.598  1.2024  0.4767 -0.5405
  954MOL0     H28757   4.149   9.362   1.742  0.7297  1.2245  0.3849
  954MOL0     H28758   4.242   9.194   1.562 -0.7678 -0.4760 -0.3178
  954MOL0     H28759   4.223   9.318   1.448 -2.5260 -1.6283  0.4042
  954MOL0     H28760   4.422   9.357   1.680 -1.3415 -1.3774 -0.2398
  954MOL0     H28761   4.370   9.470   1.545  2.0431  0.1023 -0.3299
  954MOL0     H28762   4.454   9.302   1.386 -1.2967  3.9171  1.7043
  954MOL0     H28763   4.493   9.197   1.527  0.4620 -0.6581  1.0603
  954MOL0     H28764   4.605   9.467   1.440 -1.1373  0.1851  0.5834
  954MOL0     H28765   4.625   9.427   1.597  0.5699 -0.9124 -0.3997
  954MOL0     H28766   4.729   9.266   1.365  0.1388 -0.3278 -0.2670
  954MOL0     H28767   4.741   9.200   1.529 -1.8653  1.8971  1.7452
  954MOL0     H28768   4.867   9.470   1.454 -0.8747  1.7869  2.5916
  954MOL0     H28769   4.892   9.375   1.601 -1.9874 -0.6827  0.4144
  954MOL0     H28770   3.810   9.103   1.503 -1.4062 -3.1745 -0.0355
  954MOL0     H28771   3.572   9.062   1.477 -4.6469 -1.4467  2.4883
  954MOL0     H28772   3.185   9.121   1.506  0.9820  0.4651  1.2032
  954MOL0     H28773   2.938   9.121   1.479  4.5742 -0.2776 -2.7108
  954MOL0     H28774   0.840   9.604   1.490  0.7620 -0.1563  1.4244
  954MOL0     H28775   0.610   9.517   1.387 -0.5925 -1.0637 -2.9948
  954MOL0     H28776   0.387   9.119   1.350  4.6502  2.3607 -1.8849
  954MOL0     H28777   0.166   9.019   1.313  0.9056 -1.1830  0.9419
  954MOL0     H28778  -0.084   9.042   1.253 -5.3119 -0.9608 -0.7799
  954MOL0     H28779  -0.001   8.884   1.237  0.9883  0.9134  0.1061
  954MOL0     H28780  -0.147   8.831   1.038  1.2421 -1.0293  0.4388
  954MOL0     H28781  -0.247   8.983   1.059  0.4039  0.1749  0.6179
  954MOL0     H28782  -0.368   8.801   1.163  1.0804 -1.6071 -1.4934
  954MOL0     H28783  -0.307   8.902   1.287 -3.2175 -1.8362  1.4933
  954MOL0     H28784  -0.204   8.626   1.185 -0.9604 -0.5227  1.3984
  954MOL0     H28785  -0.109   8.718   1.292  2.0337 -1.4004 -3.7493
  954MOL0     H28786  -0.451   8.596   1.540 -0.2386 -3.6313  0.0839
  954MOL0     H28787   0.156   9.159   0.916 -0.7568 -1.8230  0.4322
  954MOL0     H28788   0.463   9.287   0.878 -0.0275  1.5094 -0.3632
  954MOL0     H28789   0.294   9.332   0.853  0.4127  0.0896 -0.6443
  954MOL0     H28790   0.376   9.410   0.979 -4.6687  0.4665  1.6746
  955MOL0     O28791   5.831   1.275   0.994  0.4890 -0.3436 -0.2938
  955MOL0     C28792   5.738   1.215   1.058 -0.3135 -0.6150 -0.5013
  955MOL0     O28793   5.755   1.161   1.182  0.1028  0.7080 -0.6851
  955MOL0     C28794   5.866   1.180   1.257 -0.3229 -0.3029 -0.2380
  955MOL0     C28795   5.952   1.287   1.265  0.4646 -0.8076 -0.6364
  955MOL0     C28796   6.069   1.288   1.349 -0.0197  0.0270  0.0507
  955MOL0     C28797   6.096   1.182   1.430  0.6357  0.1881  0.2014
  955MOL0     O28798   6.209   1.177   1.510 -0.2470  0.2497  0.0575
  955MOL0     C28799   6.274   1.293   1.567 -0.8447  0.5564 -0.3257
  955MOL0     C28800   6.380   1.345   1.470 -0.1767 -0.3826 -0.3073
  955MOL0     C28801   6.508   1.261   1.483  1.0339  0.0797  0.4807
  955MOL0     C28802   6.621   1.314   1.407  0.0334  0.0577  0.2068
  955MOL0     C28803   6.742   1.215   1.403 -0.0594  0.0967 -0.3282
  955MOL0     C28804   6.836   1.253   1.289 -0.1974  0.0439  0.1963
  955MOL0     C28805   6.970   1.184   1.267 -0.2238 -0.6835 -0.1482
  955MOL0     C28806   7.055   1.189   1.394  0.3763 -0.5664 -0.1459
  955MOL0     N28807   7.188   1.125   1.364 -0.4902 -0.1906  0.7200
  955MOL0     C28808   7.298   1.187   1.342  0.2081 -0.4285 -0.5465
  955MOL0     C28809   7.388   1.093   1.341  0.9643 -0.4831 -0.3107
  955MOL0     C28810   7.537   1.110   1.308 -0.4749  0.1993 -0.0324
  955MOL0     C28811   7.570   1.235   1.226 -0.4477  0.3609  0.3057
  955MOL0     C28812   7.498   1.238   1.087  0.8430  0.8676  0.4292
  955MOL0     C28813   7.572   1.332   0.993 -0.4350 -0.0231 -0.8450
  955MOL0     O28814   7.702   1.286   0.946  0.2296  0.0506  0.1813
  955MOL0     C28815   7.810   1.329   1.019 -0.4240 -0.0865 -0.3198
  955MOL0     C28816   7.828   1.457   1.077 -0.2133 -0.4879 -0.6620
  955MOL0     C28817   7.937   1.497   1.147 -0.1884  0.7336 -0.0166
  955MOL0     C28818   8.051   1.409   1.155  0.2395 -0.2260 -0.5262
  955MOL0     C28819   8.180   1.443   1.225  0.1543  0.2497  0.2026
  955MOL0     O28820   8.255   1.340   1.278  0.1514  0.4523 -0.6570
  955MOL0     C28821   8.367   1.356   1.348 -0.6562 -0.3042 -0.6500
  955MOL0     C28822   8.475   1.443   1.315  0.7801 -0.3849 -0.3708
  955MOL0     C28823   8.594   1.448   1.386  0.3868  0.4631 -0.0733
  955MOL0     C28824   8.621   1.351   1.485  0.0520 -0.0866 -0.3848
  955MOL0     O28825   8.743   1.322   1.544 -0.0286 -0.3198  0.2780
  955MOL0     C28826   8.859   1.345   1.463 -0.5252  0.8139  0.2674
  955MOL0     C28827   8.973   1.253   1.511 -1.2197  0.0174 -0.1444
  955MOL0     C28828   9.111   1.303   1.459 -0.2883  0.8093  0.1559
  955MOL0     C28829   9.215   1.201   1.512  0.2160  0.0005 -0.2660
  955MOL0     C28830   9.357   1.230   1.487  0.1480  0.2904 -0.5518
  955MOL0     C28831   9.445   1.123   1.533 -1.0318 -0.1289  0.2595
  955MOL0     C28832   9.606   1.154   1.544  0.5630 -1.1409 -0.6579
  955MOL0     C28833   9.686   1.023   1.534  0.5748 -0.4681 -0.0726
  955MOL0    Cl28834   9.862   1.038   1.575  0.2379  0.1140  0.7998
  955MOL0     C28835   8.514   1.274   1.529  0.0832 -0.2672  0.8778
  955MOL0     C28836   8.389   1.272   1.462 -0.8157  0.4963  0.8963
  955MOL0     O28837   8.217   1.558   1.220  0.1398 -0.7675 -0.0068
  955MOL0     C28838   8.034   1.279   1.094  0.1918 -1.0197  0.3386
  955MOL0     C28839   7.919   1.238   1.035 -0.2521 -0.1760 -0.8821
  955MOL0     N28840   7.333   0.972   1.357  0.4021  0.2733 -0.7254
  955MOL0     N28841   7.203   0.989   1.364 -0.2904  0.0070 -0.1096
  955MOL0     C28842   6.010   1.072   1.427  0.7806 -0.6491 -0.5048
  955MOL0     C28843   5.893   1.071   1.349 -0.1359 -0.5750 -0.1355
  955MOL0     C28844   5.599   1.232   1.017  0.8492 -0.4312  0.4197
  955MOL0     C28845   5.511   1.128   1.047  0.6274 -0.1235  0.4312
  955MOL0     C28846   5.374   1.139   1.003 -0.5744 -0.3492  0.5710
  955MOL0     C28847   5.328   1.249   0.929 -0.6557 -0.1664 -0.4980
  955MOL0     O28848   5.199   1.275   0.896 -0.0296 -0.1750  0.0580
  955MOL0     C28849   5.096   1.198   0.954 -0.8120 -0.0684 -0.1638
  955MOL0     C28850   4.974   1.253   0.879  0.0072 -0.5454 -1.0715
  955MOL0     C28851   4.848   1.183   0.941 -0.1618  0.5080 -0.2428
  955MOL0     C28852   4.723   1.207   0.852  0.1540  0.2225 -0.0379
  955MOL0     C28853   4.728   1.343   0.791 -0.5824 -0.1511  0.7935
  955MOL0     C28854   4.750   1.451   0.736 -0.4377 -0.9259 -0.2532
  955MOL0     C28855   5.420   1.348   0.891 -0.2982  0.0160  0.4979
  955MOL0     C28856   5.555   1.340   0.935  1.1035  0.4755  1.3551
  955MOL0     C28857   5.637   1.464   0.910 -0.4373 -0.0906  0.3580
  955MOL0     H28858   5.930   1.389   1.234  1.2787  0.1727  1.7747
  955MOL0     H28859   6.136   1.372   1.355  0.0484 -0.0699  0.8676
  955MOL0     H28860   6.205   1.377   1.585  0.7708  1.3435  3.2788
  955MOL0     H28861   6.320   1.274   1.665  1.7439 -0.6379 -1.6855
  955MOL0     H28862   6.401   1.444   1.511 -1.9425 -0.8960  2.0407
  955MOL0     H28863   6.354   1.362   1.365  1.2673 -2.2146 -1.0153
  955MOL0     H28864   6.485   1.156   1.463 -1.1097 -0.4591  4.6678
  955MOL0     H28865   6.540   1.251   1.587  0.8909  0.7251  0.5872
  955MOL0     H28866   6.582   1.329   1.305 -3.0227 -0.3590  1.2145
  955MOL0     H28867   6.642   1.417   1.435 -1.5051 -0.0293  1.8743
  955MOL0     H28868   6.785   1.217   1.504  2.2436 -0.8477 -1.2198
  955MOL0     H28869   6.718   1.110   1.387 -0.6559  0.2804 -0.6684
  955MOL0     H28870   6.783   1.229   1.196 -0.3875  0.4698  0.1883
  955MOL0     H28871   6.855   1.361   1.285  2.6779 -0.3172  1.5107
  955MOL0     H28872   7.029   1.238   1.193 -1.2389  1.8690  0.7982
  955MOL0     H28873   6.963   1.080   1.235  3.1488 -1.1835  0.4153
  955MOL0     H28874   7.070   1.294   1.420 -0.5589  0.0321 -1.8639
  955MOL0     H28875   7.011   1.129   1.474  1.7412  0.8315  1.7260
  955MOL0     H28876   7.316   1.294   1.338  1.0492 -0.6062 -2.1023
  955MOL0     H28877   7.595   1.120   1.400  2.1298  4.5595 -1.8384
  955MOL0     H28878   7.557   1.016   1.257 -0.4426  0.2508 -0.1137
  955MOL0     H28879   7.544   1.329   1.275  1.1789  0.4015  1.1265
  955MOL0     H28880   7.678   1.238   1.210 -0.2403 -1.8079  1.0503
  955MOL0     H28881   7.391   1.258   1.095  0.5133 -0.4619 -0.2398
  955MOL0     H28882   7.511   1.136   1.047  0.8951  2.1075 -3.1072
  955MOL0     H28883   7.583   1.435   1.028  2.1197  0.9092 -3.8635
  955MOL0     H28884   7.501   1.323   0.910 -2.2784  2.4845  0.3327
  955MOL0     H28885   7.756   1.535   1.051 -1.2172 -1.3950 -0.6731
  955MOL0     H28886   7.948   1.597   1.189 -0.8972  1.6548 -1.8996
  955MOL0     H28887   8.454   1.510   1.232 -0.9641 -0.2149  0.1703
  955MOL0     H28888   8.673   1.513   1.350  0.3536  0.1889 -0.6528
  955MOL0     H28889   8.842   1.332   1.356 -0.5468 -4.3403  0.6718
  955MOL0     H28890   8.892   1.448   1.484 -0.8239  0.1041  5.5717
  955MOL0     H28891   8.965   1.261   1.620 -4.5712 -1.4244 -0.1579
  955MOL0     H28892   8.951   1.151   1.478 -2.9685  0.2879  0.0902
  955MOL0     H28893   9.105   1.306   1.350 -3.5090 -1.6319  0.0933
  955MOL0     H28894   9.139   1.403   1.492  1.1239  1.8147 -3.5436
  955MOL0     H28895   9.197   1.101   1.471 -1.7994  1.6055 -3.7474
  955MOL0     H28896   9.205   1.199   1.621  2.5645  3.1895  0.1444
  955MOL0     H28897   9.384   1.327   1.530 -0.0523  0.2599 -0.3502
  955MOL0     H28898   9.359   1.244   1.379  0.0882  0.2433 -0.5591
  955MOL0     H28899   9.413   1.083   1.629  0.4020  0.3003  0.9469
  955MOL0     H28900   9.430   1.040   1.462 -0.0517 -0.7252  0.7201
  955MOL0     H28901   9.625   1.214   1.634 -0.2404  0.2052 -1.3497
  955MOL0     H28902   9.650   1.211   1.462  1.7140 -0.3259  0.4928
  955MOL0     H28903   9.647   0.952   1.608  2.3353 -1.8530 -0.4242
  955MOL0     H28904   9.676   0.993   1.429  1.4568 -0.1824 -0.2406
  955MOL0     H28905   8.537   1.207   1.612 -0.8085 -0.0505  1.3109
  955MOL0     H28906   8.305   1.204   1.478 -0.7399  0.4321  1.0211
  955MOL0     H28907   8.116   1.208   1.097 -0.0731 -1.3463  3.7099
  955MOL0     H28908   7.914   1.134   1.004  0.1404 -0.2832 -0.5979
  955MOL0     H28909   6.043   0.989   1.489 -0.1943 -0.3742  0.4082
  955MOL0     H28910   5.828   0.984   1.348  0.1097 -0.7536 -0.9714
  955MOL0     H28911   5.551   1.037   1.090  0.1015 -0.7584 -0.3987
  955MOL0     H28912   5.294   1.073   1.035 -2.4552  1.5496  0.0073
  955MOL0     H28913   5.103   1.207   1.063 -1.0490  0.0266 -0.1562
  955MOL0     H28914   5.102   1.093   0.926 -3.0573 -0.4497  0.6071
  955MOL0     H28915   4.981   1.234   0.771  1.6372  1.3458 -1.3448
  955MOL0     H28916   4.973   1.360   0.900  2.9344 -0.8729  1.3802
  955MOL0     H28917   4.833   1.218   1.043 -1.9005  1.3182 -0.7291
  955MOL0     H28918   4.870   1.076   0.940  2.2429  0.9617 -0.4922
  955MOL0     H28919   4.717   1.132   0.773  1.8694 -1.6166  1.4751
  955MOL0     H28920   4.633   1.191   0.911 -0.8565 -1.9877 -2.0427
  955MOL0     H28921   4.785   1.548   0.705 -0.7108 -0.7891 -0.1375
  955MOL0     H28922   5.381   1.438   0.845 -0.7728  0.9487  2.6003
  955MOL0     H28923   5.697   1.490   0.997 -0.8895  2.6177 -0.0647
  955MOL0     H28924   5.694   1.449   0.817 -3.3843  0.4266 -1.6785
  955MOL0     H28925   5.575   1.553   0.899 -0.9556 -0.4623  0.2377
  956MOL0     O28926   5.760   9.522   4.086  0.5518 -0.5243 -0.6154
  956MOL0     C28927   5.711   9.549   3.974  0.2255 -0.9651  0.0142
  956MOL0     O28928   5.781   9.535   3.859 -0.3025 -0.4089 -0.4794
  956MOL0     C28929   5.896   9.464   3.864  0.3554 -0.5626  0.7456
  956MOL0     C28930   5.887   9.329   3.835 -0.1680 -0.7721  0.1908
  956MOL0     C28931   6.000   9.246   3.834  0.7154 -0.5666  0.3826
  956MOL0     C28932   6.123   9.299   3.851  1.3815  0.3932 -0.3426
  956MOL0     O28933   6.234   9.225   3.853  0.8856  0.5988 -0.0066
  956MOL0     C28934   6.241   9.084   3.807 -0.0026 -0.3290 -0.2512
  956MOL0     C28935   6.374   9.020   3.825 -0.0984  0.1483  0.5132
  956MOL0     C28936   6.484   9.069   3.732 -0.2639  0.6060 -0.0280
  956MOL0     C28937   6.611   8.984   3.741  0.2827  0.6708 -0.9834
  956MOL0     C28938   6.729   9.055   3.823 -0.3052  0.7426  0.4011
  956MOL0     C28939   6.854   8.962   3.798 -0.1903 -0.0800 -0.4697
  956MOL0     C28940   6.997   9.032   3.830  0.4115  0.2309  0.0824
  956MOL0     C28941   7.019   9.121   3.959 -0.2542  0.1490  0.5391
  956MOL0     N28942   7.142   9.190   3.972 -0.8483  0.1974  0.3177
  956MOL0     C28943   7.251   9.169   3.898 -0.6210  0.8746  0.0914
  956MOL0     C28944   7.336   9.269   3.909 -0.0653  0.0671  0.5870
  956MOL0     C28945   7.479   9.280   3.848  0.2935 -0.2594  0.0413
  956MOL0     C28946   7.586   9.298   3.962  0.3404  0.1604 -0.2605
  956MOL0     C28947   7.571   9.189   4.067  0.0690 -0.5648 -0.1407
  956MOL0     C28948   7.697   9.150   4.143 -0.4471  0.0655 -0.1321
  956MOL0     O28949   7.697   9.024   4.214  0.3412 -0.6598 -0.4059
  956MOL0     C28950   7.811   9.007   4.306 -0.0378 -0.8289 -0.5110
  956MOL0     C28951   7.931   9.073   4.280  0.1676  0.6032  0.2065
  956MOL0     C28952   8.046   9.037   4.362  0.3735 -0.0797 -0.4626
  956MOL0     C28953   8.035   8.953   4.477  0.4077 -0.1051  0.3786
  956MOL0     C28954   8.148   8.922   4.568 -0.2916 -0.5012 -0.2526
  956MOL0     O28955   8.261   8.969   4.526  0.4658 -0.4333  0.4159
  956MOL0     C28956   8.379   8.951   4.595  0.3030  0.1543 -0.0609
  956MOL0     C28957   8.444   9.066   4.646  0.0852 -0.5896 -0.0872
  956MOL0     C28958   8.552   9.051   4.727  0.1772 -0.5273 -0.4864
  956MOL0     C28959   8.621   8.932   4.737  0.5484 -0.2473 -0.9185
  956MOL0     O28960   8.743   8.923   4.804  0.4444  0.2469 -0.2330
  956MOL0     C28961   8.808   9.039   4.855  0.1303 -0.0192 -0.6470
  956MOL0     C28962   8.930   8.997   4.930 -0.0147  0.2652 -0.3725
  956MOL0     C28963   9.011   9.113   4.973 -0.9119 -0.6943  0.4132
  956MOL0     C28964   9.138   9.069   5.044 -0.0847  0.7530  0.7409
  956MOL0     C28965   9.225   9.178   5.097  0.1100 -0.2163 -0.1639
  956MOL0     C28966   9.312   9.252   4.999 -0.0559 -0.0054  0.1239
  956MOL0     C28967   9.375   9.371   5.072 -0.1408 -0.2382  0.3895
  956MOL0     C28968   9.476   9.445   4.986 -0.3114  0.3205 -0.2893
  956MOL0    Cl28969   9.628   9.348   4.964 -0.0307 -0.0454  0.2009
  956MOL0     C28970   8.562   8.820   4.671 -0.5562 -0.1445 -0.0190
  956MOL0     C28971   8.441   8.830   4.598 -0.2806  0.0000  0.0684
  956MOL0     O28972   8.126   8.879   4.682  0.1295  0.1221  0.0313
  956MOL0     C28973   7.903   8.901   4.507 -0.0780 -0.7030  0.1454
  956MOL0     C28974   7.795   8.931   4.420  1.0075 -0.3289 -0.8033
  956MOL0     N28975   7.265   9.362   3.985 -0.3498  1.0327  0.1469
  956MOL0     N28976   7.152   9.313   4.015  0.0094  0.5710  0.4043
  956MOL0     C28977   6.137   9.441   3.869  0.5835 -0.3312  0.0007
  956MOL0     C28978   6.022   9.527   3.873 -0.1006  0.8767  0.1888
  956MOL0     C28979   5.574   9.594   3.956  0.6340 -0.6631  0.3810
  956MOL0     C28980   5.507   9.588   3.833  0.1005  0.7300  0.1484
  956MOL0     C28981   5.372   9.619   3.826  0.2421  0.3276 -0.3665
  956MOL0     C28982   5.292   9.657   3.934 -0.0621  0.7863 -0.7445
  956MOL0     O28983   5.158   9.670   3.912 -0.0542  0.4353  0.4017
  956MOL0     C28984   5.078   9.648   4.029 -0.0909 -0.1431  0.6278
  956MOL0     C28985   4.941   9.593   3.992  0.3066  0.1910  0.1915
  956MOL0     C28986   4.833   9.623   4.091 -0.7071 -0.2481  0.2573
  956MOL0     C28987   4.696   9.563   4.051 -0.6828  0.3468  0.9943
  956MOL0     C28988   4.579   9.586   4.145  0.2931 -0.3266  0.5356
  956MOL0     C28989   4.464   9.591   4.179  0.5336  0.1641 -0.1242
  956MOL0     C28990   5.364   9.692   4.049 -0.4871  0.6123 -1.3966
  956MOL0     C28991   5.507   9.664   4.059  0.6042  0.1437 -0.6562
  956MOL0     C28992   5.569   9.707   4.189 -0.5171  0.0418 -0.0549
  956MOL0     H28993   5.790   9.283   3.820 -1.0237  0.6764  0.9503
  956MOL0     H28994   5.974   9.142   3.817 -1.4329 -0.4878  2.5863
  956MOL0     H28995   6.169   9.026   3.864  1.3326 -1.7288  0.0801
  956MOL0     H28996   6.221   9.085   3.700  1.3338  3.3628 -0.6150
  956MOL0     H28997   6.355   8.915   3.805  1.2983  0.0153 -0.2632
  956MOL0     H28998   6.407   9.030   3.929  0.4900  1.1629  0.2529
  956MOL0     H28999   6.515   9.170   3.759 -0.5379  0.4378  0.9461
  956MOL0     H29000   6.447   9.056   3.630  2.8294 -3.6949 -0.9356
  956MOL0     H29001   6.582   8.889   3.786  0.3428  1.0301 -0.1541
  956MOL0     H29002   6.649   8.966   3.641 -0.4195 -1.6014 -0.8878
  956MOL0     H29003   6.746   9.147   3.767  1.7239  0.0959 -0.1295
  956MOL0     H29004   6.699   9.080   3.926 -2.6664  2.1017 -0.5256
  956MOL0     H29005   6.834   8.873   3.858  1.6327 -0.6193 -0.6113
  956MOL0     H29006   6.858   8.934   3.693 -1.5195 -1.7714 -0.1146
  956MOL0     H29007   7.013   9.091   3.739  1.3150 -2.0312 -1.2929
  956MOL0     H29008   7.070   8.951   3.831  1.5761  1.2272  1.6301
  956MOL0     H29009   6.932   9.185   3.976 -1.2153 -1.0841  0.3970
  956MOL0     H29010   7.016   9.041   4.033  1.5367 -3.0859 -2.6130
  956MOL0     H29011   7.271   9.080   3.839 -0.9599  1.0525 -0.2979
  956MOL0     H29012   7.489   9.183   3.799 -1.6442 -1.4843  1.9377
  956MOL0     H29013   7.477   9.367   3.781 -1.2274  0.0078  0.4044
  956MOL0     H29014   7.685   9.294   3.915 -0.3050  0.1086 -1.6663
  956MOL0     H29015   7.589   9.403   3.995  0.6239  0.4055 -1.0367
  956MOL0     H29016   7.545   9.089   4.029 -1.9069 -0.7597  1.5422
  956MOL0     H29017   7.499   9.233   4.137  0.7533 -0.2190  0.3632
  956MOL0     H29018   7.714   9.241   4.203 -0.8170  1.4260 -2.0069
  956MOL0     H29019   7.781   9.147   4.074  0.4413  0.2838  0.9064
  956MOL0     H29020   7.946   9.131   4.189  0.2520 -0.5085 -0.5045
  956MOL0     H29021   8.150   9.064   4.348  2.3084 -3.1654  4.8747
  956MOL0     H29022   8.405   9.166   4.631 -0.5648 -0.4568  2.1249
  956MOL0     H29023   8.590   9.141   4.774  0.9164 -1.5834  1.0096
  956MOL0     H29024   8.841   9.093   4.766  2.9059  0.5188  0.6111
  956MOL0     H29025   8.746   9.102   4.920  0.0175 -1.5642  0.8008
  956MOL0     H29026   8.899   8.933   5.014 -2.0933  2.0370  0.3044
  956MOL0     H29027   8.986   8.941   4.854 -3.7201 -1.1511 -2.3394
  956MOL0     H29028   9.041   9.164   4.881  0.5636  0.3179  1.4214
  956MOL0     H29029   8.945   9.179   5.030 -3.2158 -2.8010  0.3600
  956MOL0     H29030   9.191   8.990   4.990 -0.8135 -0.2976  1.5200
  956MOL0     H29031   9.092   9.012   5.125  3.1455 -2.0927  0.8095
  956MOL0     H29032   9.282   9.144   5.183 -0.5071 -2.2925 -0.5332
  956MOL0     H29033   9.165   9.261   5.136  2.2109  1.8144 -1.0071
  956MOL0     H29034   9.387   9.182   4.961  1.4410  1.6100  0.0136
  956MOL0     H29035   9.247   9.290   4.920 -0.5597  2.7911  1.7274
  956MOL0     H29036   9.432   9.336   5.159 -2.4836 -1.2185  1.6243
  956MOL0     H29037   9.300   9.441   5.110  2.1788  1.0597  2.9880
  956MOL0     H29038   9.428   9.477   4.893  1.1869  0.4329 -1.0557
  956MOL0     H29039   9.498   9.536   5.042 -0.6349  0.6237 -0.6530
  956MOL0     H29040   8.607   8.722   4.653  2.3213  1.6187 -3.7889
  956MOL0     H29041   8.397   8.756   4.532 -2.7300  2.0380 -0.7494
  956MOL0     H29042   7.884   8.840   4.595  1.5624 -2.2837 -0.5251
  956MOL0     H29043   7.708   8.869   4.436 -0.6694  1.8934 -0.7948
  956MOL0     H29044   6.234   9.490   3.877 -0.1095  0.7596  4.2815
  956MOL0     H29045   6.026   9.633   3.896 -1.1190  0.7438  1.0719
  956MOL0     H29046   5.562   9.549   3.748  0.6563 -4.1413  2.3890
  956MOL0     H29047   5.330   9.611   3.727  0.3400  3.4255 -0.7623
  956MOL0     H29048   5.079   9.735   4.095  2.2200  0.8306 -0.5834
  956MOL0     H29049   5.125   9.565   4.081  4.7904 -0.0989 -3.0268
  956MOL0     H29050   4.957   9.485   3.993  0.3588  0.1944  1.2861
  956MOL0     H29051   4.901   9.623   3.895  0.3595  1.1501  0.4552
  956MOL0     H29052   4.829   9.732   4.104 -2.5713  0.0523 -2.0279
  956MOL0     H29053   4.857   9.583   4.190  2.2901 -0.4001 -0.4475
  956MOL0     H29054   4.668   9.584   3.948  2.7893  1.3533  0.0970
  956MOL0     H29055   4.705   9.454   4.047 -3.0018  0.1490 -2.6398
  956MOL0     H29056   4.364   9.587   4.217  0.0933  0.3100 -1.2145
  956MOL0     H29057   5.312   9.724   4.139  1.8330 -1.8108  1.0068
  956MOL0     H29058   5.517   9.796   4.228 -0.7201  0.0309 -0.2954
  956MOL0     H29059   5.555   9.624   4.259  0.4314  0.6190  0.8526
  956MOL0     H29060   5.673   9.735   4.173 -1.0779  1.5146 -1.4200
  957MOL0     O29061   2.234   2.701   8.014  0.2894 -0.4937  0.2422
  957MOL0     C29062   2.323   2.624   8.032  0.2766 -0.0500 -0.2050
  957MOL0     O29063   2.447   2.613   7.958  0.0078 -0.1590  0.1801
  957MOL0     C29064   2.488   2.710   7.873 -0.4506 -0.0013 -0.3766
  957MOL0     C29065   2.565   2.664   7.770 -0.7676 -0.0114 -0.3352
  957MOL0     C29066   2.618   2.746   7.671  0.3109  0.1548  0.0883
  957MOL0     C29067   2.576   2.885   7.667  0.4995  1.0908  0.3867
  957MOL0     O29068   2.607   2.978   7.561  0.6372 -0.0114  0.2769
  957MOL0     C29069   2.667   2.919   7.444 -0.8332 -0.7134 -0.9323
  957MOL0     C29070   2.681   3.030   7.334 -0.4159  1.5639  0.0562
  957MOL0     C29071   2.713   2.967   7.197  0.1295 -0.3130 -0.4876
  957MOL0     C29072   2.856   2.976   7.159 -0.4754 -0.3134 -0.7759
  957MOL0     C29073   2.861   2.895   7.032  0.4952  0.1078 -0.8781
  957MOL0     C29074   3.001   2.913   6.965  0.2184 -0.9130 -0.4922
  957MOL0     C29075   3.018   2.836   6.837 -0.0501 -0.2672 -0.8754
  957MOL0     C29076   3.133   2.887   6.746  0.0283  0.0512 -0.4212
  957MOL0     N29077   3.090   2.855   6.610  0.1296  0.5855  0.6944
  957MOL0     C29078   3.067   2.727   6.557 -0.1858  0.3517  0.5382
  957MOL0     C29079   3.009   2.745   6.435 -0.6572  0.1805  0.4188
  957MOL0     C29080   2.971   2.643   6.338 -0.6214 -0.8422  0.2926
  957MOL0     C29081   2.826   2.602   6.342  0.3365  0.0440 -0.2836
  957MOL0     C29082   2.796   2.466   6.274  0.1418  0.6089 -0.5615
  957MOL0     C29083   2.654   2.418   6.285  0.4746 -0.4455  0.1249
  957MOL0     O29084   2.652   2.273   6.270  0.6307 -0.0045 -0.1905
  957MOL0     C29085   2.523   2.208   6.284 -0.6745  0.1697 -0.0639
  957MOL0     C29086   2.403   2.268   6.317  0.5103  0.1192  0.7020
  957MOL0     C29087   2.281   2.202   6.311  0.3131  0.7922 -0.4958
  957MOL0     C29088   2.268   2.063   6.280  0.1408 -0.5407 -0.1324
  957MOL0     C29089   2.145   1.989   6.286  0.1992  0.3236 -0.2037
  957MOL0     O29090   2.037   2.066   6.312  0.1996 -0.7636 -0.2605
  957MOL0     C29091   1.912   2.014   6.322 -0.4796 -0.4079  0.1180
  957MOL0     C29092   1.815   2.077   6.399 -0.5458  0.8638  0.3546
  957MOL0     C29093   1.684   2.051   6.402 -0.3496  0.2731  0.3316
  957MOL0     C29094   1.641   1.936   6.335  0.0217  0.0824 -0.7863
  957MOL0     O29095   1.510   1.890   6.335 -0.3934 -0.2414  0.0922
  957MOL0     C29096   1.418   1.964   6.413  0.6014 -0.2980  0.2708
  957MOL0     C29097   1.270   1.938   6.378  0.1656 -0.1862 -0.1799
  957MOL0     C29098   1.228   1.993   6.234 -0.6718  0.1166 -0.5018
  957MOL0     C29099   1.135   1.902   6.159 -0.1547 -0.3763 -0.0573
  957MOL0     C29100   0.998   1.883   6.226  0.3592 -0.1685 -0.3139
  957MOL0     C29101   0.899   1.820   6.123  0.3034  0.1201  0.9207
  957MOL0     C29102   0.902   1.665   6.102  0.0904  0.3824  0.2192
  957MOL0     C29103   0.790   1.617   6.021 -0.1936  0.2608  0.2571
  957MOL0    Cl29104   0.786   1.677   5.849  0.2045  0.0460  0.1424
  957MOL0     C29105   1.735   1.876   6.238 -0.1446  0.2847 -0.2261
  957MOL0     C29106   1.865   1.922   6.224  0.3499  0.5712  0.2936
  957MOL0     O29107   2.147   1.865   6.277  0.0877  0.4896 -0.2901
  957MOL0     C29108   2.386   2.005   6.235  0.1716 -0.5712  0.0769
  957MOL0     C29109   2.512   2.076   6.248 -0.5866 -0.9300 -0.2064
  957MOL0     N29110   2.995   2.879   6.420 -0.9924  0.3726 -0.1391
  957MOL0     N29111   3.042   2.946   6.523  0.1743  0.0970  0.1335
  957MOL0     C29112   2.480   2.926   7.755 -0.9144  0.1448  0.9949
  957MOL0     C29113   2.442   2.847   7.863  0.1020  0.2073 -0.4946
  957MOL0     C29114   2.304   2.524   8.143  0.0960 -0.0785  0.7609
  957MOL0     C29115   2.397   2.430   8.158 -0.0919 -1.3466  0.7927
  957MOL0     C29116   2.414   2.342   8.265  0.1806 -0.2092 -0.0079
  957MOL0     C29117   2.315   2.336   8.357 -0.4387 -0.1139  0.1204
  957MOL0     O29118   2.338   2.236   8.445 -0.0851 -0.1961 -0.7133
  957MOL0     C29119   2.231   2.137   8.471  0.2528 -0.2233  0.3742
  957MOL0     C29120   2.217   2.149   8.628  0.3569 -0.4190  0.5882
  957MOL0     C29121   2.128   2.025   8.667  0.2139 -0.1949 -0.2815
  957MOL0     C29122   2.070   2.038   8.810 -0.3163  0.1120  0.1227
  957MOL0     C29123   2.062   1.908   8.885  0.6590  0.5355  0.1610
  957MOL0     C29124   2.056   1.796   8.939  0.2868 -0.2047 -0.3703
  957MOL0     C29125   2.206   2.424   8.355  0.4489 -0.5498  0.9798
  957MOL0     C29126   2.198   2.521   8.247 -0.4125  0.4334 -0.1578
  957MOL0     C29127   2.070   2.602   8.233  0.1192  0.0374 -0.3143
  957MOL0     H29128   2.597   2.560   7.769  0.3030  0.2906  0.0248
  957MOL0     H29129   2.672   2.688   7.598  1.1757 -0.6760  1.3516
  957MOL0     H29130   2.767   2.882   7.467 -0.1080  0.6220 -1.8032
  957MOL0     H29131   2.614   2.829   7.412 -2.7382  1.7426 -5.7196
  957MOL0     H29132   2.762   3.100   7.359  0.8771 -0.3318  1.4166
  957MOL0     H29133   2.591   3.092   7.336 -1.3809  0.2368 -0.5179
  957MOL0     H29134   2.651   3.023   7.126 -1.8202 -2.3003 -0.4575
  957MOL0     H29135   2.682   2.862   7.198 -0.1114 -0.2616  1.3009
  957MOL0     H29136   2.881   3.082   7.145 -0.7937 -0.2150 -0.5968
  957MOL0     H29137   2.929   2.941   7.232 -1.5190  0.5205  0.7038
  957MOL0     H29138   2.849   2.791   7.062 -2.5616  1.0160  1.5477
  957MOL0     H29139   2.781   2.923   6.962 -0.1851 -0.7914 -0.4736
  957MOL0     H29140   3.011   3.020   6.950  1.3496 -0.8174  0.6829
  957MOL0     H29141   3.081   2.884   7.035 -0.5480 -2.2916 -0.1406
  957MOL0     H29142   2.927   2.840   6.777 -1.0383  0.8288  0.6350
  957MOL0     H29143   3.041   2.731   6.858  0.2763  0.1332  0.9361
  957MOL0     H29144   3.147   2.996   6.747  0.4385 -0.0079  0.1207
  957MOL0     H29145   3.222   2.830   6.772 -2.0869 -2.6715  1.3192
  957MOL0     H29146   3.103   2.631   6.593 -0.5618  0.8378  2.2817
  957MOL0     H29147   2.984   2.676   6.235 -4.2679 -0.6529 -0.2445
  957MOL0     H29148   3.038   2.557   6.352  2.0880  1.1394  0.4294
  957MOL0     H29149   2.787   2.604   6.444 -1.1230  0.8864 -0.8286
  957MOL0     H29150   2.764   2.672   6.286 -1.1072 -0.4819  0.6197
  957MOL0     H29151   2.860   2.397   6.330 -0.1842  0.2342 -0.6502
  957MOL0     H29152   2.833   2.458   6.172  3.8394 -2.1853  0.7579
  957MOL0     H29153   2.584   2.454   6.209  0.7185 -0.1794  0.0217
  957MOL0     H29154   2.610   2.449   6.381  0.7872  2.6652 -0.6226
  957MOL0     H29155   2.392   2.372   6.344 -1.5232  0.0167  0.3968
  957MOL0     H29156   2.187   2.253   6.330 -0.3675 -1.2529  2.1487
  957MOL0     H29157   1.838   2.163   6.461 -0.0128  1.8168 -1.1349
  957MOL0     H29158   1.614   2.108   6.463 -1.1810 -0.6967  0.3094
  957MOL0     H29159   1.433   1.933   6.517  4.6319  0.5280  0.1017
  957MOL0     H29160   1.440   2.070   6.405 -1.6859  0.2125  0.0163
  957MOL0     H29161   1.238   1.836   6.402 -1.3068  0.5892  1.3490
  957MOL0     H29162   1.211   2.007   6.439 -1.5271 -0.8526 -0.9994
  957MOL0     H29163   1.179   2.090   6.245  0.3485  0.6299 -0.4369
  957MOL0     H29164   1.317   2.013   6.173 -0.8598  0.8532 -0.5433
  957MOL0     H29165   1.186   1.805   6.156 -0.6541 -0.8509  3.0933
  957MOL0     H29166   1.118   1.943   6.060  0.1840  0.6030  0.2729
  957MOL0     H29167   0.956   1.969   6.279 -1.1460 -0.6854 -0.6282
  957MOL0     H29168   1.000   1.808   6.305 -0.9222  0.2311  0.1140
  957MOL0     H29169   0.801   1.852   6.161 -0.2127 -0.8752  0.4680
  957MOL0     H29170   0.911   1.860   6.022  0.3430  0.7711  1.1775
  957MOL0     H29171   0.896   1.625   6.204 -0.3139 -1.8455 -0.6110
  957MOL0     H29172   0.999   1.638   6.061 -0.2685 -1.0322  0.2202
  957MOL0     H29173   0.795   1.509   6.032 -2.9897 -0.0550 -0.8614
  957MOL0     H29174   0.700   1.652   6.073 -2.2104 -1.1562 -2.0983
  957MOL0     H29175   1.693   1.806   6.167  0.6218  0.8870 -1.3135
  957MOL0     H29176   1.926   1.879   6.145 -0.2617  0.1410  0.0529
  957MOL0     H29177   2.389   1.916   6.173  1.8999 -0.8510  0.5179
  957MOL0     H29178   2.595   2.012   6.217 -0.0432  0.4991 -1.8454
  957MOL0     H29179   2.443   3.028   7.750 -1.1196  0.1964  2.8025
  957MOL0     H29180   2.383   2.886   7.945  2.0367  0.8359  0.6558
  957MOL0     H29181   2.474   2.420   8.082  0.2729 -2.4375  1.2781
  957MOL0     H29182   2.505   2.284   8.279  1.0181  1.3391  1.1786
  957MOL0     H29183   2.274   2.039   8.445  1.6135  0.8590 -1.7456
  957MOL0     H29184   2.140   2.146   8.411  0.9267 -2.5855 -1.1519
  957MOL0     H29185   2.160   2.241   8.643 -2.2636 -1.8461  0.0506
  957MOL0     H29186   2.314   2.143   8.679 -0.3309 -1.2818  1.8400
  957MOL0     H29187   2.188   1.934   8.658  0.5579  0.1383 -1.5005
  957MOL0     H29188   2.044   2.028   8.597 -1.8543  1.4272  2.0929
  957MOL0     H29189   2.138   2.099   8.869  0.9136 -2.0001  0.9937
  957MOL0     H29190   1.970   2.082   8.819 -0.3004 -0.2236  2.7123
  957MOL0     H29191   2.067   1.698   8.979  3.0252  0.4252  0.5971
  957MOL0     H29192   2.140   2.390   8.434  1.6694 -1.0320  1.8273
  957MOL0     H29193   2.081   2.710   8.222  2.4021 -0.2977 -1.9666
  957MOL0     H29194   2.021   2.565   8.143  0.3762 -0.1277 -0.3848
  957MOL0     H29195   2.001   2.588   8.318 -2.2494  1.4957 -1.8676
  958MOL0     O29196   5.351   4.526   9.515 -0.0411  0.0858  0.0621
  958MOL0     C29197   5.388   4.475   9.409  0.2550 -0.0569  0.5616
  958MOL0     O29198   5.311   4.397   9.326  0.0702  0.0172  0.9033
  958MOL0     C29199   5.176   4.391   9.340  0.1680  0.2893  0.5235
  958MOL0     C29200   5.112   4.271   9.305 -1.1084  0.3754 -0.5188
  958MOL0     C29201   4.975   4.253   9.318  0.2814 -0.6100  0.6280
  958MOL0     C29202   4.901   4.369   9.366  0.0110 -0.0922 -0.0582
  958MOL0     O29203   4.765   4.376   9.365  0.7762  0.6434  0.6057
  958MOL0     C29204   4.684   4.263   9.392 -0.0124  0.0155  0.7090
  958MOL0     C29205   4.645   4.182   9.271  0.4565 -0.2513  0.5336
  958MOL0     C29206   4.536   4.089   9.320 -0.1333  0.1355  0.3590
  958MOL0     C29207   4.567   3.977   9.409 -0.8670  0.2697  0.1417
  958MOL0     C29208   4.698   3.897   9.375 -0.6979 -0.4664 -0.5589
  958MOL0     C29209   4.715   3.791   9.481  0.5726 -0.2204 -0.9220
  958MOL0     C29210   4.854   3.736   9.482 -0.7677  0.1176  0.3871
  958MOL0     C29211   4.886   3.661   9.352 -0.3019 -0.4802  0.0561
  958MOL0     N29212   4.960   3.736   9.241  0.4217  0.1813  0.6452
  958MOL0     C29213   4.962   3.695   9.103 -0.0143 -0.2770  0.4687
  958MOL0     C29214   5.015   3.802   9.042  0.4674  0.4376 -0.3513
  958MOL0     C29215   5.056   3.805   8.891  0.0022 -0.0718  0.7941
  958MOL0     C29216   5.201   3.841   8.869 -0.0730  0.3359 -0.2671
  958MOL0     C29217   5.301   3.768   8.965  0.1435  0.1159  0.0089
  958MOL0     C29218   5.454   3.785   8.938  0.0354 -0.3529 -0.5373
  958MOL0     O29219   5.475   3.928   8.943  0.4595  0.3824 -0.8948
  958MOL0     C29220   5.602   3.983   8.924  0.1855 -0.3517 -0.7088
  958MOL0     C29221   5.715   3.909   8.889  0.1403 -0.4522 -0.0987
  958MOL0     C29222   5.829   3.973   8.846 -0.7091  0.6471 -0.1287
  958MOL0     C29223   5.846   4.107   8.859  0.5738 -0.3561 -0.5683
  958MOL0     C29224   5.973   4.173   8.816  0.3090  0.5550 -0.2919
  958MOL0     O29225   6.069   4.089   8.777  0.3542  0.0638 -0.8431
  958MOL0     C29226   6.189   4.127   8.718  0.7037  0.6066  0.1157
  958MOL0     C29227   6.270   4.240   8.746  0.4865  1.0877 -0.3528
  958MOL0     C29228   6.395   4.252   8.690 -0.4944 -0.1056  0.0544
  958MOL0     C29229   6.448   4.156   8.606  0.0004  0.5720  0.8095
  958MOL0     O29230   6.569   4.148   8.541  0.2195  0.2163 -0.0802
  958MOL0     C29231   6.669   4.248   8.580  0.1303  1.1047 -0.7630
  958MOL0     C29232   6.810   4.201   8.535 -0.0674  0.2744 -0.3240
  958MOL0     C29233   6.911   4.321   8.532 -1.0035  0.0114  0.1639
  958MOL0     C29234   7.055   4.269   8.529  0.5449  0.4913  1.3687
  958MOL0     C29235   7.092   4.175   8.409 -0.4793 -0.2526 -0.4538
  958MOL0     C29236   7.228   4.186   8.345 -0.1069 -0.1944  0.3257
  958MOL0     C29237   7.342   4.164   8.442 -0.1845  0.1703 -0.4871
  958MOL0     C29238   7.351   4.019   8.495  0.1784  0.1756 -0.1738
  958MOL0    Cl29239   7.511   3.994   8.571  0.0371  0.1007  0.3524
  958MOL0     C29240   6.377   4.049   8.583  0.9438  0.0437 -0.4261
  958MOL0     C29241   6.244   4.031   8.625  0.6330 -0.6777 -0.2318
  958MOL0     O29242   5.979   4.295   8.798 -0.2943  0.4223 -0.2630
  958MOL0     C29243   5.736   4.184   8.887 -0.6348 -0.2247 -0.0829
  958MOL0     C29244   5.619   4.126   8.928  0.3618  0.3306  0.9501
  958MOL0     N29245   5.038   3.899   9.135 -0.7218 -0.2356 -0.5904
  958MOL0     N29246   5.013   3.857   9.253 -0.2078 -0.1696 -0.1233
  958MOL0     C29247   4.961   4.491   9.388 -0.8142 -0.2598 -0.8444
  958MOL0     C29248   5.101   4.499   9.368 -0.1400 -0.4263 -0.1496
  958MOL0     C29249   5.530   4.481   9.366 -1.1694 -0.6455  0.1098
  958MOL0     C29250   5.570   4.447   9.234  0.0779  0.5129  0.4615
  958MOL0     C29251   5.702   4.447   9.192  0.2392  0.2627  0.2923
  958MOL0     C29252   5.806   4.487   9.276 -0.7228 -0.0486 -0.0803
  958MOL0     O29253   5.937   4.509   9.240  0.4617  0.7038  0.2393
  958MOL0     C29254   5.964   4.508   9.100  0.8899 -0.0441 -0.3391
  958MOL0     C29255   6.113   4.524   9.078 -0.1340  0.3303 -0.0360
  958MOL0     C29256   6.163   4.671   9.099  0.6994 -0.8835  0.9734
  958MOL0     C29257   6.310   4.677   9.076 -0.7433  0.5845 -0.1046
  958MOL0     C29258   6.349   4.663   8.929 -0.1262  0.2088 -0.6539
  958MOL0     C29259   6.386   4.655   8.818  0.3495 -0.3160 -0.8052
  958MOL0     C29260   5.771   4.518   9.407  0.4638 -0.2460 -0.1544
  958MOL0     C29261   5.639   4.518   9.454 -0.3432  1.3152 -0.0948
  958MOL0     C29262   5.620   4.554   9.605 -0.9129  0.4471 -0.1240
  958MOL0     H29263   5.174   4.190   9.266 -0.3380 -1.4358  3.9195
  958MOL0     H29264   4.935   4.157   9.290  0.6660 -0.2664 -1.2449
  958MOL0     H29265   4.743   4.200   9.460  1.3788  2.4032  1.8653
  958MOL0     H29266   4.593   4.294   9.444 -1.1360 -1.6285 -0.2227
  958MOL0     H29267   4.725   4.128   9.219  1.0477  0.2398  0.9091
  958MOL0     H29268   4.612   4.254   9.196  0.5855 -0.4285  0.3020
  958MOL0     H29269   4.482   4.049   9.234  0.8772 -1.4354  0.4044
  958MOL0     H29270   4.454   4.139   9.371 -0.4378 -0.2970  0.2941
  958MOL0     H29271   4.589   4.021   9.506  1.3448 -1.1289  0.3462
  958MOL0     H29272   4.488   3.906   9.433 -0.1130  0.5320  4.0010
  958MOL0     H29273   4.681   3.865   9.272 -0.1898 -0.4888 -0.6398
  958MOL0     H29274   4.785   3.964   9.376 -0.8952 -0.2099 -0.4625
  958MOL0     H29275   4.697   3.833   9.580  0.0411 -0.4980 -0.8942
  958MOL0     H29276   4.638   3.713   9.471 -0.9203  0.8580  1.4477
  958MOL0     H29277   4.845   3.661   9.561 -2.5343 -0.5255 -0.3705
  958MOL0     H29278   4.930   3.807   9.517  0.7528 -0.8564 -0.8391
  958MOL0     H29279   4.949   3.577   9.382 -1.6298 -1.0092  1.4864
  958MOL0     H29280   4.789   3.628   9.313 -1.8910  2.3583  1.3334
  958MOL0     H29281   4.935   3.600   9.057 -3.5929  1.5864 -1.6760
  958MOL0     H29282   5.039   3.712   8.838 -5.8143  1.7770 -1.3544
  958MOL0     H29283   4.985   3.873   8.842 -0.3263 -0.9630  0.0145
  958MOL0     H29284   5.217   3.811   8.765 -4.7254 -2.3739 -0.4764
  958MOL0     H29285   5.215   3.949   8.882 -1.4966  0.4832  0.2279
  958MOL0     H29286   5.277   3.661   8.965 -3.8683  0.8293  1.1945
  958MOL0     H29287   5.280   3.811   9.063 -1.5291  1.1847 -0.7742
  958MOL0     H29288   5.486   3.751   8.839 -0.8991  1.0039 -1.3510
  958MOL0     H29289   5.516   3.740   9.016 -0.1851  3.0553  1.8236
  958MOL0     H29290   5.703   3.802   8.878 -0.5041 -0.2584 -1.5030
  958MOL0     H29291   5.915   3.909   8.826 -2.0816 -0.6574 -2.2276
  958MOL0     H29292   6.234   4.320   8.811 -1.5097 -0.4115  0.4751
  958MOL0     H29293   6.464   4.331   8.718 -0.9382  0.7843 -1.3098
  958MOL0     H29294   6.630   4.342   8.540 -1.4634  1.8237  2.1214
  958MOL0     H29295   6.662   4.256   8.689 -2.4805 -1.3756 -0.6191
  958MOL0     H29296   6.840   4.118   8.599 -2.1279  0.2161  0.6684
  958MOL0     H29297   6.806   4.157   8.434 -2.9484  0.0066 -0.1809
  958MOL0     H29298   6.891   4.386   8.446 -1.6207 -0.3822  0.0075
  958MOL0     H29299   6.908   4.378   8.626  3.0957 -1.1227  1.1750
  958MOL0     H29300   7.075   4.218   8.624 -2.5710 -2.0785  0.7989
  958MOL0     H29301   7.133   4.345   8.522  1.4590 -0.4206  1.3301
  958MOL0     H29302   7.018   4.199   8.332 -0.3093 -3.0415 -1.6173
  958MOL0     H29303   7.066   4.071   8.433 -2.5268  0.4775  0.7619
  958MOL0     H29304   7.242   4.125   8.256  1.1515  0.1353  0.2677
  958MOL0     H29305   7.233   4.286   8.301 -1.5053 -0.6634 -0.9638
  958MOL0     H29306   7.338   4.231   8.528  0.0020 -0.6661  0.1957
  958MOL0     H29307   7.439   4.183   8.395  1.5062 -1.8904  1.8729
  958MOL0     H29308   7.276   4.000   8.573  1.3755 -0.3306  0.8794
  958MOL0     H29309   7.330   3.944   8.419 -0.6812  2.6924 -2.6157
  958MOL0     H29310   6.420   3.970   8.522  0.2753  0.2371 -1.1591
  958MOL0     H29311   6.188   3.941   8.604 -0.9541  0.6384 -2.0113
  958MOL0     H29312   5.743   4.292   8.886 -0.7736 -0.1789 -2.4563
  958MOL0     H29313   5.536   4.182   8.968  0.5895  0.1334  1.7244
  958MOL0     H29314   4.900   4.576   9.418  0.4493  0.7110 -0.9260
  958MOL0     H29315   5.135   4.602   9.378 -3.1302  1.0559 -3.1619
  958MOL0     H29316   5.490   4.427   9.162  0.0155  0.5054  0.5320
  958MOL0     H29317   5.711   4.408   9.091  1.4440 -0.6530  0.7297
  958MOL0     H29318   5.922   4.600   9.058 -0.2659 -1.1910 -1.8040
  958MOL0     H29319   5.936   4.418   9.044  0.5568  2.0283 -3.8017
  958MOL0     H29320   6.144   4.490   8.979 -0.7431 -1.9072  0.4838
  958MOL0     H29321   6.167   4.464   9.152  0.6959 -1.1373 -1.7577
  958MOL0     H29322   6.138   4.691   9.203  0.2401 -0.0657  0.7111
  958MOL0     H29323   6.106   4.744   9.041  1.7841  1.0738  2.2498
  958MOL0     H29324   6.349   4.772   9.113 -3.4138  1.5610  0.4483
  958MOL0     H29325   6.350   4.594   9.135 -1.2768 -0.4042 -1.0896
  958MOL0     H29326   6.405   4.667   8.713  0.9953  0.7013 -0.5894
  958MOL0     H29327   5.845   4.556   9.476  0.2591  2.2676 -1.2195
  958MOL0     H29328   5.719   4.550   9.650 -0.9096  0.9748 -0.0820
  958MOL0     H29329   5.582   4.656   9.617 -2.5649 -0.2032  0.5764
  958MOL0     H29330   5.550   4.491   9.662  0.9879 -1.4473  0.2288
  959MOL0     O29331   4.038   0.605   4.453  0.3887  0.3622  0.4963
  959MOL0     C29332   3.974   0.615   4.563 -0.3206  0.1906 -0.7285
  959MOL0     O29333   4.026   0.678   4.673 -0.0840  0.4114  0.3068
  959MOL0     C29334   4.146   0.759   4.661  0.1264  0.4294  0.0645
  959MOL0     C29335   4.263   0.707   4.613 -0.0138 -0.9299 -1.0058
  959MOL0     C29336   4.379   0.794   4.611 -0.0692 -0.3631  1.2769
  959MOL0     C29337   4.376   0.930   4.652 -0.1605  0.6580 -0.2582
  959MOL0     O29338   4.488   1.011   4.646 -0.1263  0.6393  0.6091
  959MOL0     C29339   4.617   0.951   4.609 -0.1682  0.0476 -0.6860
  959MOL0     C29340   4.713   1.070   4.615 -0.4899 -0.3635 -0.3575
  959MOL0     C29341   4.841   1.016   4.551  0.5655  0.5202  0.5649
  959MOL0     C29342   4.960   1.099   4.589 -0.0183 -0.4025  0.3786
  959MOL0     C29343   5.092   1.069   4.520  0.1264 -0.6932 -0.4178
  959MOL0     C29344   5.159   0.941   4.571  0.8981  0.9797  0.4210
  959MOL0     C29345   5.305   0.934   4.537 -0.5252  0.3648 -0.5179
  959MOL0     C29346   5.364   0.798   4.563  0.0180 -0.6530  0.4155
  959MOL0     N29347   5.341   0.700   4.463 -0.3315 -0.0206  1.0241
  959MOL0     C29348   5.414   0.684   4.351 -0.1762 -0.7372 -0.5214
  959MOL0     C29349   5.345   0.594   4.283 -1.1251  0.1195  0.3705
  959MOL0     C29350   5.381   0.532   4.154 -0.1745  0.4138 -0.2235
  959MOL0     C29351   5.530   0.470   4.150  0.2412  0.0079 -0.8652
  959MOL0     C29352   5.623   0.542   4.042  0.0510 -0.8262 -0.1289
  959MOL0     C29353   5.761   0.475   4.019 -0.8765 -0.0824 -0.4959
  959MOL0     O29354   5.777   0.467   3.875 -0.2828 -0.0771  0.4071
  959MOL0     C29355   5.859   0.551   3.806 -0.4333 -0.1477 -0.3996
  959MOL0     C29356   5.987   0.580   3.852  0.5081 -1.3926 -0.3870
  959MOL0     C29357   6.073   0.671   3.782  0.2251 -0.2105  0.2144
  959MOL0     C29358   6.031   0.719   3.661  0.0558 -0.0431 -0.4543
  959MOL0     C29359   6.119   0.797   3.578 -1.3092 -0.2612  0.1240
  959MOL0     O29360   6.232   0.840   3.635 -0.2242 -0.0260 -0.1052
  959MOL0     C29361   6.326   0.915   3.568  0.1615  0.4283 -0.0309
  959MOL0     C29362   6.374   1.030   3.620  0.1390 -1.4799 -0.3253
  959MOL0     C29363   6.467   1.106   3.546  0.4086  0.2594  0.4713
  959MOL0     C29364   6.504   1.073   3.415 -0.0651  0.5923  0.5945
  959MOL0     O29365   6.578   1.163   3.339  0.5718  0.3547 -0.8292
  959MOL0     C29366   6.561   1.170   3.199 -0.0583  1.2228 -0.4033
  959MOL0     C29367   6.676   1.103   3.137  0.0389  0.3839 -0.3310
  959MOL0     C29368   6.809   1.174   3.161  0.4162 -1.0879  0.7869
  959MOL0     C29369   6.923   1.113   3.091  0.3978  0.4094  0.4465
  959MOL0     C29370   7.055   1.175   3.134 -0.3808  0.0873 -0.1943
  959MOL0     C29371   7.097   1.304   3.070  0.0814  0.6109 -0.6048
  959MOL0     C29372   7.120   1.272   2.916 -0.5263  0.5038  0.1542
  959MOL0     C29373   7.261   1.321   2.879 -0.6523 -0.3372 -0.4957
  959MOL0    Cl29374   7.378   1.211   2.955  0.2717 -0.2421  0.2431
  959MOL0     C29375   6.465   0.945   3.368 -0.0057 -0.1793 -0.1571
  959MOL0     C29376   6.378   0.869   3.446  0.2696 -0.5147 -0.0701
  959MOL0     O29377   6.078   0.830   3.469 -0.1616  0.6002 -0.0084
  959MOL0     C29378   5.895   0.688   3.617  0.7866 -0.2467  0.5747
  959MOL0     C29379   5.813   0.596   3.683 -0.1363  0.7327 -0.1560
  959MOL0     N29380   5.231   0.562   4.347  0.5891 -0.0526 -0.7169
  959MOL0     N29381   5.234   0.623   4.461 -0.3075 -0.2585  0.1166
  959MOL0     C29382   4.254   0.977   4.706  0.1025  0.4260 -0.1681
  959MOL0     C29383   4.146   0.887   4.713 -0.3675 -0.0927  0.4458
  959MOL0     C29384   3.840   0.551   4.567 -0.6801 -0.5400  0.8952
  959MOL0     C29385   3.839   0.432   4.504 -0.1106  0.7226 -0.1040
  959MOL0     C29386   3.725   0.365   4.480 -0.7674  0.6811 -0.2520
  959MOL0     C29387   3.607   0.406   4.546 -0.2287 -0.3274  0.0769
  959MOL0     O29388   3.493   0.339   4.523  0.1183  0.3430 -0.0628
  959MOL0     C29389   3.416   0.305   4.638  0.1015 -0.4385 -0.6401
  959MOL0     C29390   3.299   0.235   4.580 -0.0166  0.2170  0.6930
  959MOL0     C29391   3.199   0.212   4.694  0.0056  0.7602  0.5164
  959MOL0     C29392   3.072   0.139   4.628  1.0519  0.4104 -1.0518
  959MOL0     C29393   2.967   0.100   4.727  1.0300  0.4072  0.1703
  959MOL0     C29394   2.884   0.066   4.808  1.5716 -0.7594  0.3620
  959MOL0     C29395   3.615   0.517   4.632  0.0796  0.4543 -0.0553
  959MOL0     C29396   3.727   0.604   4.634  0.1966  0.3575 -0.9828
  959MOL0     C29397   3.725   0.736   4.709 -0.3242  0.8789  0.5211
  959MOL0     H29398   4.263   0.603   4.582  0.6476 -0.1341 -3.9162
  959MOL0     H29399   4.460   0.747   4.557 -0.6603  0.0343 -0.0120
  959MOL0     H29400   4.647   0.866   4.670 -0.2260 -1.4235 -2.6179
  959MOL0     H29401   4.599   0.911   4.509  0.1580 -1.0813 -0.3084
  959MOL0     H29402   4.709   1.101   4.719 -3.2510  1.9272 -1.0272
  959MOL0     H29403   4.675   1.150   4.550  0.8361  1.3317  0.8895
  959MOL0     H29404   4.819   1.004   4.444  1.4275 -1.3788  0.5607
  959MOL0     H29405   4.858   0.912   4.581  1.6205  1.0987  2.0772
  959MOL0     H29406   4.946   1.207   4.582  0.9324 -0.1053  2.2451
  959MOL0     H29407   4.975   1.093   4.697  2.4042  2.0035  0.2751
  959MOL0     H29408   5.092   1.064   4.411  0.3829 -1.8963 -0.3694
  959MOL0     H29409   5.149   1.154   4.561 -1.0989 -0.0494 -0.0001
  959MOL0     H29410   5.145   0.943   4.679 -1.0617  0.2707  0.2131
  959MOL0     H29411   5.105   0.853   4.534 -0.9859  0.9374  3.0681
  959MOL0     H29412   5.358   1.008   4.597 -0.1003 -0.7984  0.5984
  959MOL0     H29413   5.324   0.961   4.433 -1.2694  0.5737 -0.6104
  959MOL0     H29414   5.471   0.816   4.570  0.0114  0.8149 -2.1034
  959MOL0     H29415   5.320   0.765   4.658 -0.3179  2.3573  1.4121
  959MOL0     H29416   5.499   0.747   4.329 -1.4436  0.6066 -1.8392
  959MOL0     H29417   5.313   0.447   4.138  2.9792 -1.8178 -3.4973
  959MOL0     H29418   5.362   0.609   4.079  3.3455  0.3396 -1.3660
  959MOL0     H29419   5.578   0.467   4.249  1.2770  1.5747 -1.2867
  959MOL0     H29420   5.531   0.368   4.109 -0.1945 -0.2889 -0.1544
  959MOL0     H29421   5.632   0.647   4.070  2.4487 -1.2636  1.0845
  959MOL0     H29422   5.566   0.540   3.949  0.2715  0.8848 -0.3312
  959MOL0     H29423   5.750   0.378   4.069 -1.7421  1.0389  1.5959
  959MOL0     H29424   5.839   0.528   4.074  0.2799 -1.5947 -0.5899
  959MOL0     H29425   6.030   0.534   3.941  1.0269 -1.5015 -0.6931
  959MOL0     H29426   6.161   0.710   3.830 -0.6413  0.9023  0.9382
  959MOL0     H29427   6.335   1.067   3.714 -1.0233 -2.4570 -0.3993
  959MOL0     H29428   6.506   1.203   3.576 -1.0983  1.0798 -0.1431
  959MOL0     H29429   6.469   1.119   3.172  0.1688  1.0169 -0.7980
  959MOL0     H29430   6.553   1.276   3.171  0.2917  1.1619 -0.7331
  959MOL0     H29431   6.684   0.999   3.171 -2.1939 -0.3605 -1.8564
  959MOL0     H29432   6.652   1.102   3.031 -1.4718 -1.2514 -0.0253
  959MOL0     H29433   6.807   1.281   3.137 -2.4952 -1.1488  0.4550
  959MOL0     H29434   6.832   1.163   3.268 -0.2187 -2.5156  0.7989
  959MOL0     H29435   6.906   1.126   2.983 -0.9720  4.2629  0.9701
  959MOL0     H29436   6.944   1.009   3.118  3.1813  0.4073 -1.3420
  959MOL0     H29437   7.134   1.099   3.136 -0.9007 -0.4466  1.0157
  959MOL0     H29438   7.048   1.181   3.243  3.0309 -3.0301  0.3863
  959MOL0     H29439   7.019   1.379   3.087 -1.5922 -0.9147 -1.2856
  959MOL0     H29440   7.194   1.334   3.112  1.1280 -0.6634 -1.9717
  959MOL0     H29441   7.045   1.329   2.861 -1.5854 -0.1755  0.8416
  959MOL0     H29442   7.109   1.165   2.893  0.7600  0.6213 -1.1488
  959MOL0     H29443   7.265   1.311   2.770 -1.4698 -0.6583 -0.5015
  959MOL0     H29444   7.282   1.418   2.924  2.1235 -1.1696  0.1838
  959MOL0     H29445   6.508   0.900   3.279  1.8682  1.8646 -0.3843
  959MOL0     H29446   6.354   0.772   3.406  0.0448  0.0256 -1.2917
  959MOL0     H29447   5.864   0.715   3.517  1.1213 -2.4088 -0.1575
  959MOL0     H29448   5.714   0.577   3.643 -0.2837  1.7139 -0.2931
  959MOL0     H29449   4.257   1.076   4.750  0.5643  0.0858  0.5963
  959MOL0     H29450   4.050   0.922   4.750 -1.9337  1.1523 -4.0791
  959MOL0     H29451   3.931   0.388   4.467 -0.2802 -1.4437  1.8473
  959MOL0     H29452   3.718   0.279   4.413 -0.5341  2.3811 -2.5710
  959MOL0     H29453   3.387   0.395   4.694 -1.0724 -1.4540  0.4339
  959MOL0     H29454   3.466   0.240   4.710 -0.1032  0.1879  0.0822
  959MOL0     H29455   3.331   0.139   4.537  0.3742  0.6916 -0.1079
  959MOL0     H29456   3.255   0.294   4.499  0.0848 -0.2138  0.3150
  959MOL0     H29457   3.156   0.303   4.736 -1.0057  0.2947  0.5290
  959MOL0     H29458   3.237   0.151   4.777 -0.2490 -1.2865 -0.7856
  959MOL0     H29459   3.015   0.197   4.556 -2.0465  1.1963  1.7938
  959MOL0     H29460   3.111   0.052   4.574 -0.6552 -0.1994 -1.3387
  959MOL0     H29461   2.811   0.045   4.884 -0.6731 -0.6740 -1.6364
  959MOL0     H29462   3.525   0.553   4.680  1.9681  2.7772  1.9917
  959MOL0     H29463   3.783   0.809   4.652 -0.3644 -0.1269 -0.8822
  959MOL0     H29464   3.626   0.781   4.718  0.6833  3.8058 -1.4085
  959MOL0     H29465   3.772   0.733   4.807  2.6877  1.3723 -0.7813
  960MOL0     O29466   4.339   7.208   5.874  0.3512 -0.4955  0.0031
  960MOL0     C29467   4.224   7.243   5.889 -0.0150  0.8847  0.7467
  960MOL0     O29468   4.185   7.366   5.930 -0.3789  0.5945 -0.4107
  960MOL0     C29469   4.280   7.444   5.984 -0.1559 -0.1944  0.3645
  960MOL0     C29470   4.272   7.473   6.116  1.0329 -0.1622  1.0887
  960MOL0     C29471   4.354   7.569   6.168  0.3746  0.5214  0.1882
  960MOL0     C29472   4.470   7.614   6.097 -0.6715 -0.9196 -0.1238
  960MOL0     O29473   4.562   7.705   6.160 -0.0111 -1.1015  0.4255
  960MOL0     C29474   4.706   7.675   6.135 -0.2397  0.2854  0.3947
  960MOL0     C29475   4.792   7.797   6.126  0.7411  0.4408  0.1965
  960MOL0     C29476   4.943   7.765   6.142 -0.7453 -0.1968 -0.5461
  960MOL0     C29477   5.001   7.793   6.003  0.1110  0.3568 -0.6923
  960MOL0     C29478   5.157   7.794   5.992 -0.9330  0.4023  0.9720
  960MOL0     C29479   5.208   7.881   6.096  0.7958 -1.1500 -0.1594
  960MOL0     C29480   5.366   7.896   6.107  0.2022  0.3604  0.4172
  960MOL0     C29481   5.413   7.972   5.977  1.1423  0.6732 -0.0485
  960MOL0     N29482   5.562   7.986   5.974  0.4787  0.4531 -0.4714
  960MOL0     C29483   5.626   8.092   6.036  0.2220  0.2998 -0.1715
  960MOL0     C29484   5.757   8.067   6.034 -0.8562 -0.2350  0.5135
  960MOL0     C29485   5.863   8.169   6.077  0.1629 -0.1689 -0.0774
  960MOL0     C29486   5.928   8.245   5.965 -0.5757  0.3963  0.1027
  960MOL0     C29487   5.955   8.164   5.842 -0.3857  0.1645  0.3933
  960MOL0     C29488   6.026   8.243   5.733  0.3844 -0.4645 -0.1839
  960MOL0     O29489   6.149   8.292   5.781 -0.2814  0.0902  0.6046
  960MOL0     C29490   6.227   8.355   5.693 -0.3209  0.2415  0.0980
  960MOL0     C29491   6.194   8.385   5.566 -0.0648  0.0349 -0.0517
  960MOL0     C29492   6.288   8.443   5.473  0.1814  0.8210 -0.6700
  960MOL0     C29493   6.421   8.448   5.516 -0.6492 -0.8268  0.2448
  960MOL0     C29494   6.530   8.490   5.417  0.4091 -1.0267  0.1532
  960MOL0     O29495   6.511   8.456   5.286  0.1756  0.5832  0.4731
  960MOL0     C29496   6.614   8.469   5.202  0.4715 -0.1022 -0.4666
  960MOL0     C29497   6.737   8.400   5.212 -0.2552  0.0620 -0.4342
  960MOL0     C29498   6.842   8.432   5.126  0.9422  0.8008 -0.0441
  960MOL0     C29499   6.822   8.524   5.022  0.7654 -0.8059 -0.0754
  960MOL0     O29500   6.937   8.556   4.953  0.0460  0.7364  0.0953
  960MOL0     C29501   6.937   8.681   4.882 -0.2079 -0.4709  0.1550
  960MOL0     C29502   6.933   8.796   4.987  0.8614 -0.1735 -0.6156
  960MOL0     C29503   7.069   8.804   5.068 -0.2785  0.1700  0.7425
  960MOL0     C29504   7.055   8.900   5.195 -0.8298 -0.8036  0.0553
  960MOL0     C29505   7.194   8.933   5.260  1.5016 -0.0850 -0.0524
  960MOL0     C29506   7.170   9.027   5.380 -0.7857 -0.1303 -1.0503
  960MOL0     C29507   7.299   9.051   5.467 -0.4273 -0.2934  0.5428
  960MOL0     C29508   7.299   9.185   5.517  0.3546  0.4982 -0.0108
  960MOL0    Cl29509   7.449   9.241   5.587  0.1107  0.0595 -0.0569
  960MOL0     C29510   6.690   8.567   4.996  0.2499 -0.2162 -0.2684
  960MOL0     C29511   6.593   8.541   5.088  0.0156 -0.2608  0.0506
  960MOL0     O29512   6.638   8.522   5.464 -0.4016  0.1604  0.1769
  960MOL0     C29513   6.461   8.410   5.647 -0.4033  0.5265  0.5762
  960MOL0     C29514   6.360   8.371   5.735  0.4875  0.0965  0.4991
  960MOL0     N29515   5.773   7.941   5.985  0.3819 -0.5077  0.7914
  960MOL0     N29516   5.657   7.887   5.944 -0.4145 -0.4501 -0.4059
  960MOL0     C29517   4.472   7.584   5.959 -0.9296  0.3731  0.0604
  960MOL0     C29518   4.379   7.499   5.904 -0.6008 -0.2915  0.6870
  960MOL0     C29519   4.115   7.146   5.829  0.9179  0.2761 -1.0543
  960MOL0     C29520   4.163   7.037   5.750  0.0700 -0.8830 -0.1107
  960MOL0     C29521   4.071   6.946   5.692 -0.4582 -0.2942 -1.0871
  960MOL0     C29522   3.931   6.961   5.707  0.8147  0.4694 -0.5969
  960MOL0     O29523   3.837   6.879   5.642 -0.5679  0.0834  0.7536
  960MOL0     C29524   3.884   6.770   5.554 -0.6372  0.1204  0.2859
  960MOL0     C29525   3.760   6.718   5.474  0.0793 -0.1806  0.8195
  960MOL0     C29526   3.711   6.587   5.527 -0.1742  0.9937  0.0828
  960MOL0     C29527   3.575   6.543   5.467 -0.1580 -0.0993 -0.5126
  960MOL0     C29528   3.585   6.519   5.329  0.1126 -0.6982  0.2140
  960MOL0     C29529   3.599   6.500   5.207 -0.1881  0.2721 -0.0959
  960MOL0     C29530   3.886   7.070   5.775  0.3285  0.1745 -0.9031
  960MOL0     C29531   3.971   7.156   5.850  0.4240  0.1341 -0.3177
  960MOL0     C29532   3.905   7.251   5.950 -0.1870  0.3003 -0.6592
  960MOL0     H29533   4.190   7.428   6.170  1.1621 -3.0946 -0.9047
  960MOL0     H29534   4.340   7.614   6.266  1.0269  1.3873 -0.1023
  960MOL0     H29535   4.734   7.620   6.226 -1.4033  3.4225  2.8251
  960MOL0     H29536   4.725   7.622   6.041  1.2652  1.7148 -0.1394
  960MOL0     H29537   4.762   7.864   6.208  1.2581  2.0839 -0.9209
  960MOL0     H29538   4.771   7.848   6.032 -0.5398  0.1185  0.2840
  960MOL0     H29539   4.954   7.659   6.163 -0.7154 -0.5028 -1.9959
  960MOL0     H29540   4.982   7.826   6.223  1.6980  0.4569 -2.0973
  960MOL0     H29541   4.969   7.712   5.936  1.5275 -1.6535  0.9208
  960MOL0     H29542   4.967   7.892   5.973  1.1514  0.8276 -0.3501
  960MOL0     H29543   5.191   7.694   6.020 -5.0314 -1.5362 -0.1010
  960MOL0     H29544   5.185   7.824   5.890  0.0426  2.9623  1.9023
  960MOL0     H29545   5.175   7.984   6.079 -0.7272 -1.7569 -1.1105
  960MOL0     H29546   5.181   7.845   6.196 -0.4358 -1.9911 -0.7825
  960MOL0     H29547   5.413   7.797   6.107 -1.4651 -0.4866  1.9445
  960MOL0     H29548   5.396   7.950   6.197  1.1384  0.4761  0.0456
  960MOL0     H29549   5.386   7.921   5.884  0.7746 -0.5620  0.7150
  960MOL0     H29550   5.368   8.071   5.971  0.0266  0.1136 -4.7001
  960MOL0     H29551   5.582   8.183   6.077 -1.2154 -0.2904 -0.3314
  960MOL0     H29552   5.817   8.244   6.142 -0.3787  0.2106 -0.8823
  960MOL0     H29553   5.939   8.119   6.138 -0.5001 -0.6017  0.3996
  960MOL0     H29554   5.882   8.339   5.933  1.2564  0.9620 -1.0225
  960MOL0     H29555   6.021   8.280   6.010 -1.6898 -0.1280  3.0285
  960MOL0     H29556   5.861   8.119   5.809  1.1223 -2.8641 -0.0838
  960MOL0     H29557   6.020   8.081   5.870 -1.8415 -1.1976 -0.1313
  960MOL0     H29558   5.963   8.325   5.699  1.4031 -0.3896 -1.9795
  960MOL0     H29559   6.048   8.172   5.653 -0.1676 -0.2893 -0.4951
  960MOL0     H29560   6.092   8.367   5.534 -0.7351 -3.3011  3.2667
  960MOL0     H29561   6.259   8.453   5.369  4.4577 -1.8019 -2.3873
  960MOL0     H29562   6.760   8.324   5.286  0.0245  0.3527 -0.2230
  960MOL0     H29563   6.940   8.387   5.139 -0.2422 -1.9481  0.0436
  960MOL0     H29564   7.026   8.688   4.819 -1.3158  1.0379 -1.3438
  960MOL0     H29565   6.852   8.680   4.813 -0.3295 -0.0601  0.2945
  960MOL0     H29566   6.915   8.895   4.943  2.5025  0.5290  0.2044
  960MOL0     H29567   6.857   8.774   5.063  0.9600  0.2909 -0.3780
  960MOL0     H29568   7.101   8.703   5.097 -1.2067 -0.1140  0.8189
  960MOL0     H29569   7.146   8.844   5.001  1.3240  0.0957  2.4803
  960MOL0     H29570   7.000   8.846   5.272 -2.3477 -0.2672 -0.6125
  960MOL0     H29571   6.998   8.991   5.175 -1.5558 -0.2214  3.9857
  960MOL0     H29572   7.261   8.987   5.192  1.2336  0.6024  0.2270
  960MOL0     H29573   7.243   8.838   5.286  0.2542 -0.5650  0.5971
  960MOL0     H29574   7.140   9.128   5.349  0.1400  0.2401 -0.8118
  960MOL0     H29575   7.096   8.987   5.449  2.1240 -4.5699 -0.0465
  960MOL0     H29576   7.391   9.045   5.409  0.0816  2.8288  0.8977
  960MOL0     H29577   7.301   8.990   5.558 -0.2586 -2.2691 -0.7136
  960MOL0     H29578   7.277   9.261   5.441 -1.3488 -0.3806 -0.4593
  960MOL0     H29579   7.230   9.190   5.601  1.3962 -1.9779  1.0860
  960MOL0     H29580   6.674   8.640   4.917 -1.1190  0.8013  0.8889
  960MOL0     H29581   6.496   8.584   5.068 -0.8946 -0.8104  2.9577
  960MOL0     H29582   6.564   8.411   5.681 -0.8637 -2.1660  2.3003
  960MOL0     H29583   6.385   8.362   5.840  1.8016  3.2395  0.5643
  960MOL0     H29584   4.529   7.643   5.887 -2.8527 -0.5233 -2.3185
  960MOL0     H29585   4.390   7.484   5.797  0.3345  3.6522  0.0935
  960MOL0     H29586   4.271   7.026   5.740  0.5169  1.6609  1.2278
  960MOL0     H29587   4.113   6.877   5.620 -0.9564  0.4466 -2.1107
  960MOL0     H29588   3.942   6.694   5.608 -1.7407 -1.1223 -0.2286
  960MOL0     H29589   3.951   6.815   5.480  2.5478 -1.0459  2.2552
  960MOL0     H29590   3.770   6.703   5.366 -0.4615  0.8619  0.6092
  960MOL0     H29591   3.679   6.792   5.475  1.2880  1.2198 -0.4934
  960MOL0     H29592   3.701   6.595   5.636 -0.6835  1.0597  0.0311
  960MOL0     H29593   3.790   6.514   5.507 -0.0568  1.3484 -0.7815
  960MOL0     H29594   3.547   6.447   5.513 -0.8406  0.0452 -0.6197
  960MOL0     H29595   3.498   6.619   5.487 -1.0129  0.1485 -4.1005
  960MOL0     H29596   3.605   6.483   5.102  2.5389  2.8506 -0.4955
  960MOL0     H29597   3.779   7.072   5.792  0.3589  0.1081 -0.7024
  960MOL0     H29598   3.929   7.234   6.056 -2.7505 -2.2439 -0.3862
  960MOL0     H29599   3.936   7.353   5.922  0.9962 -0.3351 -1.7558
  960MOL0     H29600   3.797   7.239   5.941 -0.3464  0.3134  0.9349
  961MOL0     O29601   2.335   8.773   3.568  0.0138 -0.1757  0.2574
  961MOL0     C29602   2.234   8.838   3.602 -0.3506  0.0190 -0.3230
  961MOL0     O29603   2.234   8.976   3.636  0.7575 -0.2765  0.5512
  961MOL0     C29604   2.366   9.030   3.630  0.1886 -0.1812 -0.4793
  961MOL0     C29605   2.435   9.039   3.753 -0.1147 -0.4948 -1.1431
  961MOL0     C29606   2.565   9.089   3.760 -0.4826 -0.1733 -0.0984
  961MOL0     C29607   2.619   9.142   3.637  0.2652 -0.1199 -0.3939
  961MOL0     O29608   2.736   9.212   3.631  0.4017  0.5104 -0.2218
  961MOL0     C29609   2.816   9.213   3.747 -0.7281  0.4340  0.2647
  961MOL0     C29610   2.953   9.253   3.704  0.1554 -0.0611  0.0975
  961MOL0     C29611   3.046   9.274   3.824 -0.2066 -0.6434  0.4696
  961MOL0     C29612   3.182   9.331   3.793  0.2892 -0.2708  0.0116
  961MOL0     C29613   3.256   9.244   3.694 -1.0120  0.8387  0.5221
  961MOL0     C29614   3.400   9.288   3.713  0.4970  0.3590  0.6324
  961MOL0     C29615   3.468   9.206   3.825  0.0754  0.0292 -0.3483
  961MOL0     C29616   3.606   9.262   3.861 -0.0827 -0.2404  0.2407
  961MOL0     N29617   3.724   9.231   3.776  0.0113 -1.0624 -0.3778
  961MOL0     C29618   3.736   9.277   3.646  0.0879  0.2272  0.3271
  961MOL0     C29619   3.859   9.237   3.599 -0.8570 -0.6662 -0.9743
  961MOL0     C29620   3.926   9.268   3.467  0.9574 -0.7235 -0.0110
  961MOL0     C29621   4.071   9.316   3.493  0.5750 -0.0588  0.4767
  961MOL0     C29622   4.118   9.436   3.411  0.3322 -0.6570  0.3653
  961MOL0     C29623   4.249   9.405   3.330 -0.1131 -0.1346 -1.0849
  961MOL0     O29624   4.348   9.337   3.422  0.3331 -0.7555 -0.0653
  961MOL0     C29625   4.474   9.323   3.363  0.4421 -0.5286 -0.1561
  961MOL0     C29626   4.520   9.397   3.244  0.0003  0.4047 -0.5593
  961MOL0     C29627   4.643   9.364   3.194  0.0182 -0.3063  0.6638
  961MOL0     C29628   4.729   9.294   3.270 -0.5410 -0.9155 -0.4657
  961MOL0     C29629   4.869   9.267   3.223 -0.2984 -0.1084  0.0541
  961MOL0     O29630   4.889   9.300   3.092  0.0384  0.6902 -0.7640
  961MOL0     C29631   5.017   9.290   3.027 -0.3169  0.0518 -0.8027
  961MOL0     C29632   5.067   9.159   3.002  0.3962 -0.4639 -0.1921
  961MOL0     C29633   5.195   9.140   2.957  0.5097 -0.3572 -0.3961
  961MOL0     C29634   5.282   9.255   2.940 -0.4427  1.0674 -0.9601
  961MOL0     O29635   5.410   9.249   2.904  0.5354  0.3784 -0.0851
  961MOL0     C29636   5.484   9.124   2.928 -0.0301 -0.3695  0.5024
  961MOL0     C29637   5.633   9.156   2.916  0.5140 -0.1071  0.2617
  961MOL0     C29638   5.670   9.269   3.018 -0.5442  0.6378 -0.2047
  961MOL0     C29639   5.808   9.327   2.970 -1.1597  0.2011 -0.1818
  961MOL0     C29640   5.861   9.433   3.067 -0.3969  0.8337 -0.4803
  961MOL0     C29641   5.949   9.535   3.000 -0.5194  0.2800 -0.0530
  961MOL0     C29642   6.091   9.488   2.988  0.4951 -0.1560  0.2167
  961MOL0     C29643   6.176   9.607   2.928 -0.2618  0.0398  0.0656
  961MOL0    Cl29644   6.105   9.638   2.757  0.4009  0.2849 -0.4168
  961MOL0     C29645   5.228   9.382   2.967  0.7903  0.0919  0.1183
  961MOL0     C29646   5.095   9.401   3.011 -1.3139 -0.1214 -0.3630
  961MOL0     O29647   4.939   9.185   3.284 -0.2175 -0.3968  0.6894
  961MOL0     C29648   4.684   9.221   3.385  0.4944 -0.6950 -0.3121
  961MOL0     C29649   4.557   9.233   3.430  0.8641  0.5989  0.5795
  961MOL0     N29650   3.904   9.146   3.698 -0.2371 -1.0768  0.0236
  961MOL0     N29651   3.833   9.156   3.806  0.0724 -0.3205 -0.3468
  961MOL0     C29652   2.546   9.146   3.517  0.6590  0.0549 -0.4508
  961MOL0     C29653   2.425   9.074   3.511  0.4540  0.5293  0.1981
  961MOL0     C29654   2.088   8.779   3.614 -0.1738 -0.3824 -0.1875
  961MOL0     C29655   1.980   8.866   3.642 -0.0260 -0.0930 -0.7975
  961MOL0     C29656   1.854   8.812   3.660 -0.3239 -0.1780  0.4949
  961MOL0     C29657   1.828   8.682   3.644  0.3947  0.0773 -0.6442
  961MOL0     O29658   1.699   8.648   3.652 -0.1604  0.8547  0.0859
  961MOL0     C29659   1.639   8.571   3.546 -0.2353 -0.0486 -1.1097
  961MOL0     C29660   1.487   8.571   3.584 -0.2319  0.6119 -0.5774
  961MOL0     C29661   1.404   8.556   3.465 -0.6973  0.1405  0.6293
  961MOL0     C29662   1.267   8.585   3.478  0.2231 -0.3140  0.8676
  961MOL0     C29663   1.178   8.485   3.429 -0.1722 -0.6129 -0.9649
  961MOL0     C29664   1.102   8.389   3.403  0.8192 -0.1579  0.8757
  961MOL0     C29665   1.931   8.589   3.619 -0.5164  0.4427  0.2040
  961MOL0     C29666   2.064   8.639   3.615  0.9794  0.1750 -0.1880
  961MOL0     C29667   2.172   8.544   3.597 -0.2575  0.5118 -0.7460
  961MOL0     H29668   2.385   9.004   3.843  1.1335 -0.5328 -0.4426
  961MOL0     H29669   2.624   9.097   3.851  3.1495 -2.3080 -2.0579
  961MOL0     H29670   2.782   9.286   3.821  3.2211  0.0818  2.7065
  961MOL0     H29671   2.825   9.118   3.800  0.2037  1.2484  1.6026
  961MOL0     H29672   2.950   9.347   3.649 -0.3566  0.4490  0.9728
  961MOL0     H29673   2.996   9.176   3.640  2.0945 -0.9100  2.2540
  961MOL0     H29674   3.049   9.177   3.876  3.3282 -1.2676 -0.6787
  961MOL0     H29675   2.995   9.351   3.884 -0.6149 -0.1363 -0.5131
  961MOL0     H29676   3.172   9.434   3.758 -1.1030 -0.6507 -0.7897
  961MOL0     H29677   3.236   9.343   3.887  1.3127 -1.8111 -0.3527
  961MOL0     H29678   3.249   9.136   3.711  1.2091  0.7096  0.8687
  961MOL0     H29679   3.218   9.261   3.592 -0.5353 -2.2338 -0.2698
  961MOL0     H29680   3.447   9.273   3.616  1.5281  2.8064  0.6780
  961MOL0     H29681   3.410   9.396   3.728  0.5421  0.2485  1.5135
  961MOL0     H29682   3.481   9.099   3.807 -1.7548 -0.3197  0.2655
  961MOL0     H29683   3.401   9.203   3.911  0.5837 -2.5665  0.0342
  961MOL0     H29684   3.599   9.371   3.852 -2.8974 -0.4741 -1.5037
  961MOL0     H29685   3.626   9.250   3.968  1.1913  1.4246  0.2352
  961MOL0     H29686   3.662   9.334   3.591  1.2214 -0.4838 -2.0428
  961MOL0     H29687   3.931   9.186   3.394 -0.6033 -0.2731 -0.6723
  961MOL0     H29688   3.866   9.345   3.418  0.5423  0.4794  2.2416
  961MOL0     H29689   4.073   9.345   3.598  0.1451 -0.5424  0.6222
  961MOL0     H29690   4.137   9.229   3.496  0.9930  0.2779  1.3680
  961MOL0     H29691   4.141   9.516   3.483 -1.2063  0.7502 -0.6160
  961MOL0     H29692   4.029   9.469   3.356  1.0979 -0.4508 -0.7919
  961MOL0     H29693   4.286   9.501   3.292 -3.2139  1.3358 -0.6743
  961MOL0     H29694   4.219   9.333   3.254  1.7258 -0.4981 -1.5124
  961MOL0     H29695   4.462   9.478   3.204 -0.9574  0.9085  1.6806
  961MOL0     H29696   4.674   9.412   3.102  2.8987  0.0040  1.6968
  961MOL0     H29697   5.004   9.074   3.028 -0.4183  0.8971  2.7008
  961MOL0     H29698   5.231   9.040   2.933 -1.3699 -0.7659 -1.7192
  961MOL0     H29699   5.453   9.085   3.025 -0.0671 -1.9569 -0.1202
  961MOL0     H29700   5.451   9.051   2.854 -1.3951 -1.1129  1.7886
  961MOL0     H29701   5.696   9.070   2.942  3.7913  1.8067 -0.8531
  961MOL0     H29702   5.655   9.192   2.815  0.1472 -1.6770 -0.4180
  961MOL0     H29703   5.595   9.348   3.027 -3.1023 -1.2970 -2.6109
  961MOL0     H29704   5.682   9.229   3.120 -0.2370 -2.1198 -1.2194
  961MOL0     H29705   5.791   9.373   2.872 -0.9358  1.5925  0.4078
  961MOL0     H29706   5.880   9.248   2.951 -0.2657  1.2082 -1.1266
  961MOL0     H29707   5.914   9.379   3.146 -0.8502 -0.0866 -0.8001
  961MOL0     H29708   5.774   9.487   3.107  1.1014  1.6658  1.9068
  961MOL0     H29709   5.901   9.564   2.906 -3.0839  3.4299  2.0147
  961MOL0     H29710   5.941   9.624   3.062 -3.6708  0.1081 -0.0269
  961MOL0     H29711   6.092   9.397   2.927 -2.3054  0.9782 -1.7736
  961MOL0     H29712   6.123   9.473   3.091  1.5388 -0.2201 -0.1082
  961MOL0     H29713   6.173   9.700   2.985 -2.2757  1.1295 -1.6575
  961MOL0     H29714   6.281   9.581   2.919 -0.4090 -0.0057 -2.1551
  961MOL0     H29715   5.288   9.472   2.958  2.2668 -1.0288 -2.4624
  961MOL0     H29716   5.050   9.499   3.027 -3.0504 -0.6813 -1.4881
  961MOL0     H29717   4.745   9.144   3.431  2.5023  1.7775  1.3739
  961MOL0     H29718   4.524   9.173   3.515  2.2767 -1.4133 -0.2284
  961MOL0     H29719   2.589   9.199   3.432 -1.0330  1.3780 -0.5266
  961MOL0     H29720   2.376   9.048   3.417 -0.7039  2.0356  0.3456
  961MOL0     H29721   1.975   8.972   3.665 -1.2446 -0.6875  2.2690
  961MOL0     H29722   1.779   8.890   3.663  1.7837  2.0022 -0.1992
  961MOL0     H29723   1.669   8.466   3.547  1.5636  0.4167 -0.6491
  961MOL0     H29724   1.666   8.608   3.447  0.2439  1.4431 -0.4651
  961MOL0     H29725   1.466   8.672   3.621  0.0110 -0.0359  1.4653
  961MOL0     H29726   1.471   8.494   3.659  1.7493  0.7773  0.0947
  961MOL0     H29727   1.412   8.458   3.417 -3.0217  1.5302 -3.0050
  961MOL0     H29728   1.448   8.619   3.387 -2.0892  0.1350 -0.1961
  961MOL0     H29729   1.246   8.597   3.585 -0.6675  1.1287  0.5544
  961MOL0     H29730   1.230   8.678   3.434  2.3184 -0.9774 -2.6660
  961MOL0     H29731   1.040   8.303   3.387 -1.5641  1.6110 -0.0018
  961MOL0     H29732   1.911   8.486   3.592 -1.4748  1.1789 -2.1330
  961MOL0     H29733   2.141   8.444   3.628  1.2722 -0.1143 -1.1614
  961MOL0     H29734   2.212   8.553   3.496  1.2673 -0.7781 -0.2958
  961MOL0     H29735   2.256   8.565   3.664 -0.4536  3.9499 -1.4264
  962MOL0     O29736   4.539   0.131   6.779 -0.0898  0.3563  0.6385
  962MOL0     C29737   4.508   0.016   6.747 -0.1263 -0.2720 -0.5787
  962MOL0     O29738   4.596  -0.092   6.727  0.7165  0.2177 -0.6777
  962MOL0     C29739   4.731  -0.075   6.740 -0.3787 -0.0249  0.4570
  962MOL0     C29740   4.823  -0.142   6.651 -0.4488 -0.9901  0.1947
  962MOL0     C29741   4.959  -0.114   6.667 -0.3060 -0.0018 -0.2254
  962MOL0     C29742   5.009  -0.038   6.774  0.2852 -0.2477 -0.4458
  962MOL0     O29743   5.146  -0.029   6.768  0.7451 -0.0289 -0.3202
  962MOL0     C29744   5.225   0.017   6.884  0.4852 -0.7320 -0.1319
  962MOL0     C29745   5.362   0.068   6.836 -0.0349 -0.2635 -0.3063
  962MOL0     C29746   5.451   0.089   6.953  0.0261  0.6765 -0.0151
  962MOL0     C29747   5.565   0.181   6.907  0.0774 -0.2699 -0.4680
  962MOL0     C29748   5.691   0.146   6.987 -0.4587  0.0854  0.2685
  962MOL0     C29749   5.801   0.248   6.954 -0.1744  0.2138  0.1164
  962MOL0     C29750   5.927   0.230   7.043  0.1942  0.4216 -0.0409
  962MOL0     C29751   5.910   0.300   7.175 -0.3695 -1.1463 -0.1828
  962MOL0     N29752   5.920   0.443   7.144 -0.1811 -0.9826 -0.0704
  962MOL0     C29753   6.041   0.508   7.132 -0.9765  0.1472  0.6263
  962MOL0     C29754   6.007   0.638   7.135  0.5504 -0.4716 -0.2027
  962MOL0     C29755   6.099   0.753   7.171  0.4444  0.2896  0.2373
  962MOL0     C29756   6.252   0.721   7.142 -0.8847 -0.1092 -0.1083
  962MOL0     C29757   6.333   0.842   7.194  0.4420  0.4455  0.6388
  962MOL0     C29758   6.477   0.800   7.192  0.0970  0.5605  0.6652
  962MOL0     O29759   6.557   0.898   7.254  0.1862 -0.1425  0.4815
  962MOL0     C29760   6.694   0.884   7.227 -0.5155  0.4184  0.7888
  962MOL0     C29761   6.765   1.001   7.267 -0.3797  0.6450 -0.1924
  962MOL0     C29762   6.900   1.023   7.233  0.6369  0.1913  0.6170
  962MOL0     C29763   6.958   0.924   7.151  0.4822  0.0007  0.3197
  962MOL0     C29764   7.108   0.943   7.127 -0.0266  0.2987 -0.3177
  962MOL0     O29765   7.186   1.014   7.218  0.5712 -1.1659 -0.6919
  962MOL0     C29766   7.318   1.053   7.206  0.7196 -0.3128  0.3333
  962MOL0     C29767   7.400   1.028   7.098 -0.5267 -0.2557  0.4932
  962MOL0     C29768   7.524   1.091   7.081  0.7639 -0.4454 -0.3061
  962MOL0     C29769   7.570   1.168   7.195 -0.0328 -0.0135  0.2844
  962MOL0     O29770   7.697   1.211   7.203 -0.5511  0.2698  0.6368
  962MOL0     C29771   7.796   1.200   7.098 -0.6852  0.7638  0.2251
  962MOL0     C29772   7.929   1.207   7.162  0.1683 -0.0889  0.1600
  962MOL0     C29773   8.058   1.207   7.063  0.4656 -0.1446 -0.9379
  962MOL0     C29774   8.077   1.344   6.992 -0.2243 -0.2331  1.1036
  962MOL0     C29775   8.188   1.335   6.892  0.1333  0.5776 -0.4293
  962MOL0     C29776   8.324   1.288   6.945  0.3033 -0.0914 -0.4491
  962MOL0     C29777   8.424   1.299   6.829  0.5947  0.3479 -0.4431
  962MOL0     C29778   8.573   1.278   6.863  0.9932  0.1458  1.0285
  962MOL0    Cl29779   8.615   1.400   6.984 -0.5413  0.2888 -0.0696
  962MOL0     C29780   7.482   1.188   7.302 -0.9762 -0.3313  1.0129
  962MOL0     C29781   7.361   1.133   7.311 -0.1997  0.8290 -0.3824
  962MOL0     O29782   7.148   0.886   7.024  0.6978 -0.8113  0.2999
  962MOL0     C29783   6.883   0.815   7.111 -0.9489 -0.0832  0.0720
  962MOL0     C29784   6.760   0.794   7.145  0.7374  0.2148 -0.3801
  962MOL0     N29785   5.865   0.658   7.132 -0.0205  0.5332 -1.0672
  962MOL0     N29786   5.826   0.536   7.139  0.3438  0.2199  0.2808
  962MOL0     C29787   4.921   0.007   6.866  0.4757  0.0839  0.3120
  962MOL0     C29788   4.783  -0.006   6.850 -0.4178 -0.4583 -0.2908
  962MOL0     C29789   4.354  -0.008   6.735 -0.6263 -0.0754  0.6039
  962MOL0     C29790   4.309  -0.142   6.701  0.1093 -0.7136 -0.2376
  962MOL0     C29791   4.180  -0.169   6.682 -0.7979 -0.3686 -0.0824
  962MOL0     C29792   4.081  -0.065   6.693 -0.6101  0.9218  0.9837
  962MOL0     O29793   3.944  -0.093   6.683 -0.3080 -0.1610  0.6315
  962MOL0     C29794   3.859   0.027   6.665  0.0559 -0.3730  0.2310
  962MOL0     C29795   3.725  -0.034   6.621 -0.0566  0.4882  0.0604
  962MOL0     C29796   3.657  -0.120   6.730  0.4421 -0.2604 -0.4684
  962MOL0     C29797   3.506  -0.105   6.717  0.7977  0.7614 -0.4234
  962MOL0     C29798   3.462  -0.193   6.609  0.0810  0.1005 -0.6017
  962MOL0     C29799   3.420  -0.251   6.514  0.4389 -0.2018  0.5875
  962MOL0     C29800   4.131   0.067   6.710  0.1445  0.3012 -0.2113
  962MOL0     C29801   4.261   0.097   6.728  1.0921 -0.1753 -0.2962
  962MOL0     C29802   4.288   0.239   6.744 -0.2273 -0.2644  0.2347
  962MOL0     H29803   4.788  -0.205   6.571  1.1125 -0.0368 -1.3148
  962MOL0     H29804   5.029  -0.175   6.611 -1.7050 -1.3686 -0.5743
  962MOL0     H29805   5.182   0.095   6.947 -0.2955 -0.8236 -0.5348
  962MOL0     H29806   5.243  -0.072   6.946  0.1066 -0.0806  0.9301
  962MOL0     H29807   5.340   0.161   6.783  1.7964 -1.2517 -3.0323
  962MOL0     H29808   5.412   0.004   6.762  1.7983 -0.0650  0.7118
  962MOL0     H29809   5.491  -0.008   6.984  0.6425  0.3087 -1.8487
  962MOL0     H29810   5.391   0.136   7.032 -2.2338 -2.1681  0.1185
  962MOL0     H29811   5.589   0.167   6.801 -0.1686  1.7654 -0.8376
  962MOL0     H29812   5.540   0.287   6.914  0.0058 -0.3405  0.4960
  962MOL0     H29813   5.668   0.159   7.093 -0.0732  3.3094  0.0484
  962MOL0     H29814   5.724   0.046   6.957 -0.5522 -0.0175  0.5066
  962MOL0     H29815   5.821   0.223   6.850  0.3675  3.4520 -0.6487
  962MOL0     H29816   5.757   0.348   6.955 -0.8813 -0.0851  1.5314
  962MOL0     H29817   6.011   0.263   6.982 -0.5492 -1.2060 -2.0840
  962MOL0     H29818   5.934   0.128   7.080 -2.9799  0.0285 -0.1980
  962MOL0     H29819   5.812   0.284   7.221 -1.4938 -3.6371 -3.0893
  962MOL0     H29820   5.986   0.273   7.249  1.6846  0.1976 -1.6934
  962MOL0     H29821   6.140   0.464   7.129  0.9822  4.1547 -0.1822
  962MOL0     H29822   6.077   0.835   7.101  1.1491  0.0319 -0.2976
  962MOL0     H29823   6.075   0.797   7.268 -2.1831  0.8553 -0.5846
  962MOL0     H29824   6.288   0.631   7.194  0.8242  1.1311  0.9525
  962MOL0     H29825   6.261   0.701   7.035  0.7010  0.4162 -0.1043
  962MOL0     H29826   6.309   0.863   7.299 -0.2567  1.2991  0.3228
  962MOL0     H29827   6.310   0.935   7.141 -0.9216 -0.5507 -0.5700
  962MOL0     H29828   6.510   0.801   7.087  1.8098  0.1137  1.1743
  962MOL0     H29829   6.495   0.703   7.238  1.8974  0.9445  0.8350
  962MOL0     H29830   6.708   1.081   7.312  2.0444  2.1353  0.4343
  962MOL0     H29831   6.952   1.111   7.269  2.1936  0.5374 -2.1850
  962MOL0     H29832   7.370   0.957   7.021 -1.2355  0.5744 -0.0028
  962MOL0     H29833   7.578   1.071   6.990 -0.5492  1.5729 -1.6168
  962MOL0     H29834   7.790   1.098   7.058 -1.9075 -0.1561  2.5985
  962MOL0     H29835   7.780   1.272   7.017  1.0742  0.7046 -0.2003
  962MOL0     H29836   7.937   1.297   7.223 -1.7501  0.3691 -0.1890
  962MOL0     H29837   7.928   1.125   7.235  1.2395  0.3586  0.6977
  962MOL0     H29838   8.141   1.202   7.134 -0.9607  2.7499  1.1497
  962MOL0     H29839   8.057   1.122   6.994 -1.7683 -0.2168 -0.8802
  962MOL0     H29840   8.095   1.410   7.078  3.5176 -0.0235  0.3124
  962MOL0     H29841   7.990   1.373   6.932 -0.4444 -0.5639  1.2570
  962MOL0     H29842   8.204   1.430   6.841  3.2682 -1.0301 -2.8226
  962MOL0     H29843   8.163   1.258   6.818  0.9778  0.8749 -1.0473
  962MOL0     H29844   8.353   1.344   7.034 -0.3042  0.3338 -0.5071
  962MOL0     H29845   8.323   1.182   6.971  2.1105  0.0535  0.2978
  962MOL0     H29846   8.419   1.398   6.782 -0.4665  1.0723  1.1054
  962MOL0     H29847   8.398   1.219   6.760 -1.1462  0.6696 -0.2063
  962MOL0     H29848   8.583   1.178   6.908  2.2926  0.6761  1.9896
  962MOL0     H29849   8.637   1.287   6.775 -1.1160 -2.2152 -0.9034
  962MOL0     H29850   7.529   1.233   7.389  0.3571  2.2826 -0.9427
  962MOL0     H29851   7.293   1.148   7.395  0.3401  1.8223 -0.1067
  962MOL0     H29852   6.916   0.750   7.030 -0.4705  0.1574  0.0654
  962MOL0     H29853   6.711   0.699   7.125  0.8996 -0.0734  0.5435
  962MOL0     H29854   4.948   0.061   6.956 -0.6610  1.1416  0.0517
  962MOL0     H29855   4.719   0.050   6.917 -0.7791 -1.3114  0.0883
  962MOL0     H29856   4.388  -0.214   6.683  0.4931 -1.6551  4.0898
  962MOL0     H29857   4.154  -0.271   6.659 -1.6160 -0.5081  1.3365
  962MOL0     H29858   3.900   0.093   6.588 -0.8770  1.0828  0.9439
  962MOL0     H29859   3.846   0.085   6.757 -0.8859  0.3083 -0.3199
  962MOL0     H29860   3.746  -0.101   6.537 -0.2002 -1.6625  1.6749
  962MOL0     H29861   3.661   0.039   6.571 -0.5254 -0.6867 -1.1278
  962MOL0     H29862   3.677  -0.072   6.827 -1.4989  0.6088 -0.4496
  962MOL0     H29863   3.691  -0.224   6.731 -3.8250 -1.8534  1.2346
  962MOL0     H29864   3.459  -0.124   6.814 -1.0219 -0.1920 -1.4313
  962MOL0     H29865   3.484  -0.001   6.690  0.9194  0.5044 -1.5865
  962MOL0     H29866   3.389  -0.307   6.428  2.3948  0.0531 -0.3396
  962MOL0     H29867   4.060   0.149   6.716  0.2975  0.3798  0.5802
  962MOL0     H29868   4.353   0.282   6.666  2.1862 -2.0997  1.0898
  962MOL0     H29869   4.197   0.299   6.745  0.0860  0.2560 -0.5631
  962MOL0     H29870   4.336   0.255   6.841  1.3707  0.3006 -0.5932
  963MOL0     O29871  10.195  10.704   1.104 -0.6327 -0.2637 -0.4616
  963MOL0     C29872  10.203  10.612   1.020  0.0902 -1.5155  0.1212
  963MOL0     O29873  10.311  10.550   0.971  0.0649  0.3398 -0.2614
  963MOL0     C29874  10.436  10.594   1.008 -0.0048 -0.1984 -0.0349
  963MOL0     C29875  10.541  10.502   1.023 -0.5244  1.0055  1.1013
  963MOL0     C29876  10.667  10.549   1.065 -0.0999  0.0215 -0.6804
  963MOL0     C29877  10.701  10.679   1.087  1.1058 -0.2490  0.2805
  963MOL0     O29878  10.830  10.698   1.118 -0.1746  0.2803 -0.2869
  963MOL0     C29879  10.855  10.812   1.211  0.3143  0.5153  0.6523
  963MOL0     C29880  11.007  10.830   1.226  0.3044 -0.5582  0.1577
  963MOL0     C29881  11.073  10.826   1.086  0.0386  0.6068 -0.1341
  963MOL0     C29882  11.218  10.887   1.082 -0.2253  0.6072 -0.5791
  963MOL0     C29883  11.273  10.899   0.944  0.7731  0.1543 -0.2693
  963MOL0     C29884  11.212  11.018   0.868  0.0536  0.9089 -0.2900
  963MOL0     C29885  11.279  11.020   0.733 -0.1655 -0.0201  0.1302
  963MOL0     C29886  11.261  10.906   0.640  0.5543 -0.0636  0.2153
  963MOL0     N29887  11.334  10.931   0.512  0.3043 -0.1494 -0.0198
  963MOL0     C29888  11.454  10.876   0.479 -0.6225  0.4148  0.7654
  963MOL0     C29889  11.490  10.925   0.358  0.1327 -0.3548  0.0984
  963MOL0     C29890  11.626  10.905   0.302  0.0071  0.7628  0.6704
  963MOL0     C29891  11.618  10.776   0.214  0.3583 -1.2746  0.6857
  963MOL0     C29892  11.747  10.781   0.123 -0.5113 -0.2532  0.7200
  963MOL0     C29893  11.734  10.878  -0.003  0.3048 -0.1610  0.0771
  963MOL0     O29894  11.776  11.010   0.023 -0.0155  0.2953 -0.5384
  963MOL0     C29895  11.910  11.041   0.038  0.0401 -0.5138  0.4638
  963MOL0     C29896  11.939  11.180   0.056 -0.8696  0.3055 -0.5720
  963MOL0     C29897  12.072  11.228   0.039 -0.2501  0.1102  0.5895
  963MOL0     C29898  12.180  11.139   0.014  0.0362  0.8899  0.1613
  963MOL0     C29899  12.326  11.174  -0.013  0.2200  0.9045 -0.7151
  963MOL0     O29900  12.410  11.067  -0.028  0.9220  0.3526 -0.4645
  963MOL0     C29901  12.543  11.095  -0.043 -0.0147  0.2204  0.4049
  963MOL0     C29902  12.627  11.022  -0.129  0.1863 -0.0125  0.7877
  963MOL0     C29903  12.767  11.035  -0.137  0.2341 -0.6295  0.0183
  963MOL0     C29904  12.826  11.140  -0.066 -0.5995  0.0993 -0.2464
  963MOL0     O29905  12.967  11.163  -0.066  0.6740 -0.1982  0.1669
  963MOL0     C29906  13.049  11.058  -0.123  0.3660 -0.1304  0.2795
  963MOL0     C29907  13.192  11.095  -0.110 -0.3274  0.3898  0.4885
  963MOL0     C29908  13.293  10.980  -0.063 -0.6173  0.0031  0.2701
  963MOL0     C29909  13.433  11.049  -0.036 -0.2551 -0.0205 -0.5510
  963MOL0     C29910  13.544  10.944   0.007  0.1486  0.8704 -0.0863
  963MOL0     C29911  13.685  11.018   0.013  0.4687 -0.5294 -0.8190
  963MOL0     C29912  13.791  10.950   0.102  0.3706  0.0114 -0.3996
  963MOL0     C29913  13.918  11.032   0.110 -0.0111  0.5400 -1.0377
  963MOL0    Cl29914  14.001  11.028  -0.053  0.1079 -0.0384  0.1908
  963MOL0     C29915  12.745  11.210   0.028 -0.5048  0.4559  0.4639
  963MOL0     C29916  12.613  11.187   0.042  0.9063  0.3067  1.0286
  963MOL0     O29917  12.355  11.293  -0.012  0.1050  0.0061 -0.7024
  963MOL0     C29918  12.141  11.002   0.003 -0.2327 -0.1720  0.2029
  963MOL0     C29919  12.007  10.957   0.003  0.0104  0.1605  0.0183
  963MOL0     N29920  11.380  10.989   0.296  0.1625  0.1389 -0.0507
  963MOL0     N29921  11.295  10.998   0.397 -0.0992 -0.4531 -0.4277
  963MOL0     C29922  10.598  10.772   1.056 -0.0529 -0.2727  0.9850
  963MOL0     C29923  10.473  10.726   1.019  0.2380 -0.0317  0.5055
  963MOL0     C29924  10.078  10.538   0.990 -0.9096  0.5300 -0.2939
  963MOL0     C29925   9.957  10.617   0.988 -0.1697  0.0202 -0.6875
  963MOL0     C29926   9.827  10.560   0.977  0.2547 -0.7841 -0.5779
  963MOL0     C29927   9.822  10.418   0.957  0.9565 -0.3457 -0.3560
  963MOL0     O29928   9.692  10.369   0.949  0.2345  0.2583 -0.0652
  963MOL0     C29929   9.675  10.230   0.937 -1.1245  0.5564 -0.0733
  963MOL0     C29930   9.523  10.201   0.924  0.2957  0.3218  0.1146
  963MOL0     C29931   9.498  10.046   0.902  0.1369 -0.7921  0.2096
  963MOL0     C29932   9.353  10.001   0.913  1.3757 -0.8218  0.2833
  963MOL0     C29933   9.326   9.861   0.916  0.3595  0.4152  0.8359
  963MOL0     C29934   9.295   9.743   0.926  0.9283  0.1798 -0.1618
  963MOL0     C29935   9.936  10.339   0.944 -0.0978  0.2627  0.1604
  963MOL0     C29936  10.064  10.400   0.961 -0.2471 -0.3050  0.7626
  963MOL0     C29937  10.184  10.309   0.932 -0.6735 -0.3593  0.2770
  963MOL0     H29938  10.515  10.401   0.995 -2.6228  2.5747 -3.8016
  963MOL0     H29939  10.740  10.471   1.089  0.6935  1.2076  0.9536
  963MOL0     H29940  10.813  10.899   1.160 -0.7369 -0.6727 -0.5671
  963MOL0     H29941  10.818  10.789   1.311  0.9198 -2.2535  0.3375
  963MOL0     H29942  11.038  10.746   1.290 -1.5167  1.5439  4.1851
  963MOL0     H29943  11.031  10.921   1.281  0.7504 -0.1544 -0.6828
  963MOL0     H29944  11.003  10.876   1.019 -1.2036  0.5054  1.0242
  963MOL0     H29945  11.073  10.721   1.053  0.6136  0.8831 -1.0343
  963MOL0     H29946  11.214  10.984   1.134  1.2364  0.6078 -0.4212
  963MOL0     H29947  11.283  10.816   1.134 -0.7269 -0.2964 -1.1622
  963MOL0     H29948  11.381  10.910   0.961  0.7143 -1.7797  1.8270
  963MOL0     H29949  11.259  10.804   0.893 -0.2027  0.1137  0.0537
  963MOL0     H29950  11.102  11.019   0.865 -0.0365  4.6939 -0.1548
  963MOL0     H29951  11.239  11.109   0.923  0.8791 -0.6101  1.9666
  963MOL0     H29952  11.387  11.029   0.749 -0.2522 -1.8663  2.3131
  963MOL0     H29953  11.237  11.109   0.686 -0.9593 -0.5882 -0.2454
  963MOL0     H29954  11.300  10.815   0.687 -0.6012 -1.1595 -0.8826
  963MOL0     H29955  11.156  10.883   0.621 -0.2811  1.3962  2.6356
  963MOL0     H29956  11.515  10.814   0.543 -1.9325  0.1088  1.7739
  963MOL0     H29957  11.649  10.999   0.251 -0.4532  0.3957 -0.2344
  963MOL0     H29958  11.696  10.883   0.383 -1.6988 -0.4895  1.8756
  963MOL0     H29959  11.614  10.688   0.278 -1.8179 -0.2438  2.0836
  963MOL0     H29960  11.530  10.788   0.149  0.9697  3.4906  0.3278
  963MOL0     H29961  11.763  10.683   0.077  3.2580  0.9879 -1.0291
  963MOL0     H29962  11.835  10.801   0.184 -1.6962  1.1271  2.0485
  963MOL0     H29963  11.628  10.883  -0.033  0.5309 -1.1354 -0.9624
  963MOL0     H29964  11.788  10.848  -0.094  0.9024 -1.4930  0.8549
  963MOL0     H29965  11.864  11.249   0.092 -3.3831 -2.4714 -0.0478
  963MOL0     H29966  12.098  11.334   0.036  0.6267 -0.1294 -1.4370
  963MOL0     H29967  12.583  10.937  -0.181  2.1899 -2.1063  2.2626
  963MOL0     H29968  12.817  10.974  -0.211  4.6564  1.0859  1.2767
  963MOL0     H29969  13.035  10.962  -0.072 -0.6604 -0.5333 -0.7065
  963MOL0     H29970  13.028  11.058  -0.231  2.0832  3.7408 -0.2154
  963MOL0     H29971  13.238  11.127  -0.203  0.6415  1.5767  1.3398
  963MOL0     H29972  13.193  11.188  -0.052  0.1975  0.0049  1.1138
  963MOL0     H29973  13.260  10.928   0.027 -1.3985  0.7264  0.4158
  963MOL0     H29974  13.320  10.912  -0.144  2.4772  0.9555  0.3743
  963MOL0     H29975  13.431  11.129   0.039 -0.8135 -0.1303 -0.4451
  963MOL0     H29976  13.455  11.097  -0.132 -1.3397  1.2416 -0.1986
  963MOL0     H29977  13.544  10.864  -0.068 -1.0500  0.3131  0.4930
  963MOL0     H29978  13.515  10.900   0.103  0.0466 -0.2668 -0.6186
  963MOL0     H29979  13.730  11.032  -0.086  0.2365  0.4370 -0.7974
  963MOL0     H29980  13.664  11.120   0.046 -0.0694 -0.4888 -1.2735
  963MOL0     H29981  13.810  10.847   0.070  0.7908 -0.4527  1.2377
  963MOL0     H29982  13.757  10.940   0.206 -1.6679 -0.5953 -1.0779
  963MOL0     H29983  13.891  11.134   0.140 -0.7894  0.0153  0.1359
  963MOL0     H29984  13.993  10.987   0.175  0.8912  1.7822 -1.1884
  963MOL0     H29985  12.801  11.280   0.089 -1.0715  0.2549  1.2191
  963MOL0     H29986  12.558  11.235   0.123  0.9446  0.6963  0.8244
  963MOL0     H29987  12.210  10.920  -0.010 -2.7376 -2.6384  1.4353
  963MOL0     H29988  11.988  10.851  -0.010 -1.0041  0.2225  0.8778
  963MOL0     H29989  10.602  10.879   1.073  0.2386  0.2975 -2.0579
  963MOL0     H29990  10.396  10.797   0.992  1.7937  0.8946 -1.8212
  963MOL0     H29991   9.962  10.723   1.007 -3.6566  0.1348  0.2925
  963MOL0     H29992   9.744  10.629   0.962 -0.6955 -1.8954 -0.4993
  963MOL0     H29993   9.716  10.173   1.021  0.9582  0.3195 -1.1556
  963MOL0     H29994   9.727  10.192   0.848 -1.2284  1.7829 -0.6793
  963MOL0     H29995   9.483  10.262   0.842  2.6688 -0.6320 -1.8783
  963MOL0     H29996   9.472  10.221   1.018  4.8679 -0.6416  3.1512
  963MOL0     H29997   9.558  10.003   0.983  0.8847 -1.6680 -0.7861
  963MOL0     H29998   9.539  10.009   0.808  2.2186 -2.7012  1.7661
  963MOL0     H29999   9.310  10.046   1.003  2.4303 -2.1297  1.4893
  963MOL0     H30000   9.312  10.046   0.822 -0.1630 -1.1342  0.7914
  963MOL0     H30001   9.272   9.642   0.952 -0.4818  0.3489 -0.6629
  963MOL0     H30002   9.920  10.235   0.916  4.0739 -0.5803  0.3116
  963MOL0     H30003  10.224  10.333   0.833 -1.5596 -1.3213 -0.3332
  963MOL0     H30004  10.249  10.320   1.019 -0.2676  0.5983 -0.1290
  963MOL0     H30005  10.143  10.208   0.927  0.6926 -0.9458  0.6146
  964MOL0     O30006   9.205   3.598   6.931  0.6732  0.0802 -0.3281
  964MOL0     C30007   9.104   3.606   6.857 -0.7284  0.4778 -0.5910
  964MOL0     O30008   9.113   3.585   6.722  0.3489 -0.0946 -0.5260
  964MOL0     C30009   9.241   3.593   6.670 -0.3533 -0.5371  0.4489
  964MOL0     C30010   9.352   3.520   6.712 -0.3368  0.5100  0.2027
  964MOL0     C30011   9.481   3.535   6.663 -0.2337  0.9606  0.7611
  964MOL0     C30012   9.499   3.627   6.561 -0.0673  0.3518 -0.7511
  964MOL0     O30013   9.634   3.633   6.519  0.1016 -0.0215 -0.2957
  964MOL0     C30014   9.663   3.727   6.417 -0.2326  0.3833  0.0326
  964MOL0     C30015   9.820   3.719   6.397  0.3466 -0.2148 -1.4107
  964MOL0     C30016   9.887   3.737   6.533 -0.1676  0.2889  0.2035
  964MOL0     C30017  10.044   3.741   6.509 -0.2019  1.3630  0.3476
  964MOL0     C30018  10.101   3.599   6.489 -0.6027  0.5018  0.2784
  964MOL0     C30019  10.253   3.605   6.479  0.5815 -0.5363  0.4293
  964MOL0     C30020  10.306   3.471   6.525 -0.5106  1.0266 -0.2522
  964MOL0     C30021  10.463   3.481   6.515  0.2589 -0.5947  0.4665
  964MOL0     N30022  10.524   3.349   6.536  0.3892 -0.3346 -0.9914
  964MOL0     C30023  10.503   3.265   6.639  0.1047  0.3884 -0.1200
  964MOL0     C30024  10.584   3.155   6.615 -0.9490 -0.0053 -0.9367
  964MOL0     C30025  10.606   3.033   6.697  0.4688 -0.6461 -0.3261
  964MOL0     C30026  10.583   3.051   6.845  0.1067  0.0785  0.4079
  964MOL0     C30027  10.587   2.921   6.933  0.1534  0.2382  0.2196
  964MOL0     C30028  10.583   2.951   7.084 -0.6562  0.2245  0.4058
  964MOL0     O30029  10.695   3.033   7.117 -0.5714  0.8592  0.1758
  964MOL0     C30030  10.703   3.085   7.247 -0.0256  0.1600  1.0374
  964MOL0     C30031  10.803   3.181   7.265  0.1507 -0.0588  0.0390
  964MOL0     C30032  10.825   3.234   7.396  0.1868  0.4563 -0.2335
  964MOL0     C30033  10.742   3.192   7.502  0.0244  0.2620  0.0593
  964MOL0     C30034  10.765   3.238   7.640  0.3272 -0.4930 -0.7087
  964MOL0     O30035  10.697   3.186   7.743  0.3328  0.1403 -0.4112
  964MOL0     C30036  10.732   3.201   7.877  0.0336  0.1897  0.0299
  964MOL0     C30037  10.720   3.093   7.970  0.9086  0.2458  0.1168
  964MOL0     C30038  10.737   3.122   8.105  0.5963 -1.0041 -0.1055
  964MOL0     C30039  10.775   3.248   8.151  0.2862 -0.2226  0.3882
  964MOL0     O30040  10.785   3.252   8.286 -0.7560  0.5624  0.2366
  964MOL0     C30041  10.818   3.375   8.350  0.0605 -0.1758 -1.0986
  964MOL0     C30042  10.762   3.366   8.493  0.5519  0.6508 -0.7739
  964MOL0     C30043  10.774   3.498   8.575  0.1080 -0.1115 -0.1369
  964MOL0     C30044  10.735   3.482   8.721  0.0909  1.0104  0.7038
  964MOL0     C30045  10.694   3.624   8.776  0.5885 -0.2905  0.7072
  964MOL0     C30046  10.608   3.614   8.892  0.5036  0.1215  0.1543
  964MOL0     C30047  10.458   3.608   8.844  0.0310  0.2431 -0.4753
  964MOL0     C30048  10.362   3.624   8.959 -0.4018  0.3189  0.1703
  964MOL0    Cl30049  10.194   3.609   8.907 -0.0051 -0.5196  0.4634
  964MOL0     C30050  10.787   3.355   8.054  0.4328 -0.4026  0.5586
  964MOL0     C30051  10.759   3.331   7.924 -0.1565  0.8235  0.4357
  964MOL0     O30052  10.829   3.343   7.643  0.3164  0.0393 -0.1604
  964MOL0     C30053  10.642   3.094   7.478 -0.0558  0.4107  0.6647
  964MOL0     C30054  10.622   3.047   7.346 -0.2998 -0.5573 -0.6774
  964MOL0     N30055  10.658   3.181   6.496  0.0137 -0.6434  0.8158
  964MOL0     N30056  10.607   3.291   6.447 -0.8088 -0.1485 -0.1172
  964MOL0     C30057   9.396   3.702   6.508  0.6219 -0.2162  0.1441
  964MOL0     C30058   9.269   3.691   6.568 -0.1120  1.0469 -0.8769
  964MOL0     C30059   8.977   3.633   6.919  0.7215  0.2128 -0.0759
  964MOL0     C30060   8.977   3.665   7.058 -0.0910 -0.8014  0.0708
  964MOL0     C30061   8.861   3.709   7.120  0.8919  0.4008 -0.2757
  964MOL0     C30062   8.733   3.715   7.059  0.3242 -0.0536 -0.0787
  964MOL0     O30063   8.612   3.753   7.125  0.5425 -0.7466  0.0614
  964MOL0     C30064   8.622   3.790   7.260 -0.0671  0.2105 -0.0378
  964MOL0     C30065   8.501   3.863   7.321  0.6371  0.0659 -0.2876
  964MOL0     C30066   8.366   3.783   7.295 -0.7082 -0.6596  0.3767
  964MOL0     C30067   8.226   3.839   7.347  0.3053 -0.5150  0.3418
  964MOL0     C30068   8.208   3.979   7.301  0.8970 -0.4442  0.5293
  964MOL0     C30069   8.179   4.096   7.260 -0.8841  0.2491 -0.3710
  964MOL0     C30070   8.733   3.674   6.923 -0.0249 -0.5028 -0.4305
  964MOL0     C30071   8.846   3.632   6.851 -0.0122  1.1421 -0.3543
  964MOL0     C30072   8.825   3.611   6.698 -1.3203 -0.4616  0.0489
  964MOL0     H30073   9.344   3.456   6.799  0.1725 -1.3149 -1.0522
  964MOL0     H30074   9.567   3.492   6.714 -1.3298 -1.8957  0.3906
  964MOL0     H30075   9.608   3.703   6.325  0.4542 -0.8213 -0.0841
  964MOL0     H30076   9.631   3.828   6.443 -0.5219  0.9695 -2.3458
  964MOL0     H30077   9.855   3.794   6.326  5.4471 -0.5386  0.3369
  964MOL0     H30078   9.851   3.618   6.368  4.6285  0.5249 -0.1574
  964MOL0     H30079   9.873   3.654   6.602  2.4321 -0.9898 -0.6711
  964MOL0     H30080   9.853   3.823   6.592  0.7214  2.1275 -1.7908
  964MOL0     H30081  10.086   3.795   6.424 -0.2450  0.2602 -0.3961
  964MOL0     H30082  10.105   3.782   6.590  0.9795  0.1121  0.1263
  964MOL0     H30083  10.073   3.544   6.580 -1.2526 -0.6690 -0.5933
  964MOL0     H30084  10.053   3.554   6.401 -0.0880  0.3247  0.0844
  964MOL0     H30085  10.280   3.629   6.376 -1.6691 -0.5808 -0.2219
  964MOL0     H30086  10.293   3.673   6.555  2.0811 -0.7309 -0.1550
  964MOL0     H30087  10.279   3.389   6.458  2.9269  1.3379 -2.2710
  964MOL0     H30088  10.278   3.456   6.630  4.5096  0.9305  1.3459
  964MOL0     H30089  10.488   3.503   6.411  1.1329 -1.0178  0.5790
  964MOL0     H30090  10.507   3.564   6.572 -0.5707  0.1169  0.0969
  964MOL0     H30091  10.427   3.273   6.716  0.8599  1.1802  0.5723
  964MOL0     H30092  10.541   2.958   6.650  1.9702 -0.4343 -2.8753
  964MOL0     H30093  10.712   3.010   6.683  0.9034  0.3320  1.1506
  964MOL0     H30094  10.656   3.126   6.876 -2.0497  2.4976 -0.0015
  964MOL0     H30095  10.481   3.090   6.849  0.1393  0.0748  1.6322
  964MOL0     H30096  10.676   2.864   6.906  0.9377  1.8248 -0.7245
  964MOL0     H30097  10.494   2.869   6.907  1.3917 -1.5146 -0.9123
  964MOL0     H30098  10.596   2.857   7.139 -0.9567  0.1744  0.3954
  964MOL0     H30099  10.491   2.998   7.120  1.3933  2.1416  3.5384
  964MOL0     H30100  10.864   3.204   7.179 -0.2116 -0.3074 -0.2852
  964MOL0     H30101  10.893   3.313   7.425  0.3277  0.1475  0.2808
  964MOL0     H30102  10.679   2.996   7.943 -1.6425  0.8560  1.4452
  964MOL0     H30103  10.726   3.053   8.188 -1.3290 -0.6951 -0.0427
  964MOL0     H30104  10.926   3.375   8.364 -0.0527  2.4128  0.3585
  964MOL0     H30105  10.786   3.466   8.297 -1.2270  0.0637  0.0323
  964MOL0     H30106  10.658   3.334   8.495  0.7256  0.0736  0.8030
  964MOL0     H30107  10.816   3.288   8.547 -0.8778 -0.5040 -0.9487
  964MOL0     H30108  10.877   3.533   8.567 -0.0155  0.3675  0.2633
  964MOL0     H30109  10.703   3.564   8.524  0.8439 -0.4265 -1.6186
  964MOL0     H30110  10.806   3.421   8.778 -0.9742 -1.3910 -0.3922
  964MOL0     H30111  10.645   3.420   8.713  0.6223  0.3811 -0.7599
  964MOL0     H30112  10.647   3.683   8.697  0.9003  1.2782  1.6222
  964MOL0     H30113  10.777   3.691   8.804 -0.1059  0.5355  0.8415
  964MOL0     H30114  10.624   3.527   8.957 -1.3076 -0.1775  0.2619
  964MOL0     H30115  10.617   3.692   8.968  0.9810 -1.1930  1.5039
  964MOL0     H30116  10.436   3.516   8.789 -0.4048  1.1787 -1.9327
  964MOL0     H30117  10.450   3.684   8.765 -0.9615 -0.7844 -1.3977
  964MOL0     H30118  10.387   3.548   9.033 -0.1909  1.4503  1.2886
  964MOL0     H30119  10.371   3.724   9.001 -1.1062  1.1151 -1.4804
  964MOL0     H30120  10.828   3.453   8.074  0.0103  0.3528 -1.9492
  964MOL0     H30121  10.773   3.407   7.848 -0.4615 -1.5656 -2.1842
  964MOL0     H30122  10.585   3.049   7.559 -0.4335  1.5010  1.0129
  964MOL0     H30123  10.545   2.972   7.337 -0.2933 -0.8393  1.1698
  964MOL0     H30124   9.412   3.774   6.429  1.0360  1.4732  1.7044
  964MOL0     H30125   9.184   3.746   6.528 -2.0829 -1.4452 -0.3512
  964MOL0     H30126   9.061   3.656   7.125 -0.8084 -0.0815  1.1046
  964MOL0     H30127   8.881   3.734   7.224 -0.3300  0.4561 -0.0382
  964MOL0     H30128   8.709   3.854   7.276  0.2658 -0.4075  0.6693
  964MOL0     H30129   8.642   3.692   7.304 -0.1329  0.2408  0.0601
  964MOL0     H30130   8.496   3.955   7.263 -1.4802 -0.6853 -1.4043
  964MOL0     H30131   8.518   3.890   7.426  1.5601  1.9097 -0.8728
  964MOL0     H30132   8.374   3.680   7.332 -1.4402 -0.3873  1.3206
  964MOL0     H30133   8.357   3.782   7.186 -2.1499  0.2240  0.4696
  964MOL0     H30134   8.142   3.781   7.306 -1.3242  1.6974  0.3378
  964MOL0     H30135   8.220   3.825   7.455 -0.2535 -3.3734  0.0105
  964MOL0     H30136   8.150   4.197   7.238  0.3038  0.7883  0.4501
  964MOL0     H30137   8.636   3.674   6.875  0.3570 -0.6731 -1.2264
  964MOL0     H30138   8.841   3.507   6.667 -2.5276 -0.7899  0.4662
  964MOL0     H30139   8.721   3.636   6.678 -0.5126  3.1228 -0.4307
  964MOL0     H30140   8.888   3.670   6.631  0.0880 -1.3017  0.5839
  965MOL0     O30141   3.533   0.566   3.530  0.3143 -0.2473 -0.2660
  965MOL0     C30142   3.484   0.564   3.645 -0.2503 -0.5669  0.5498
  965MOL0     O30143   3.554   0.583   3.758  0.2505 -0.0576 -0.1111
  965MOL0     C30144   3.690   0.612   3.731  0.0985  0.2672 -0.5881
  965MOL0     C30145   3.740   0.736   3.715 -0.5611 -0.0234  0.0160
  965MOL0     C30146   3.874   0.760   3.700  0.7936  0.3718 -0.0091
  965MOL0     C30147   3.970   0.655   3.711 -0.4156  0.6341 -0.8074
  965MOL0     O30148   4.102   0.684   3.707 -0.4522  0.3798  0.3469
  965MOL0     C30149   4.146   0.821   3.691 -0.7374  0.4020 -0.1274
  965MOL0     C30150   4.290   0.834   3.726  0.0001  0.4482 -0.1704
  965MOL0     C30151   4.360   0.943   3.652 -0.5957 -0.0236  0.3867
  965MOL0     C30152   4.410   0.887   3.512 -0.2975 -0.5167  0.2663
  965MOL0     C30153   4.446   1.010   3.428 -0.0224  0.8751  0.8460
  965MOL0     C30154   4.577   1.076   3.482  0.2228 -0.6537 -0.2632
  965MOL0     C30155   4.604   1.192   3.380  0.6175 -0.0571  0.4068
  965MOL0     C30156   4.745   1.251   3.375  0.2934 -0.4579 -0.4486
  965MOL0     N30157   4.776   1.346   3.482 -0.2003  0.5143 -0.0766
  965MOL0     C30158   4.704   1.457   3.498 -0.9563  0.2872 -0.9285
  965MOL0     C30159   4.770   1.519   3.599 -0.2315  0.6383 -0.3301
  965MOL0     C30160   4.749   1.657   3.651  1.0980 -0.8625  0.0413
  965MOL0     C30161   4.876   1.742   3.691 -0.6978  0.0757  0.4167
  965MOL0     C30162   4.969   1.780   3.571 -0.4658  0.1372  0.2589
  965MOL0     C30163   5.105   1.814   3.626 -0.5870 -0.2149 -0.0053
  965MOL0     O30164   5.189   1.836   3.514  1.3724 -0.0213 -0.2450
  965MOL0     C30165   5.319   1.863   3.537 -0.6908  0.7927 -0.6458
  965MOL0     C30166   5.413   1.845   3.438  0.4114 -0.5573  0.2059
  965MOL0     C30167   5.552   1.871   3.465  0.2852 -0.1142 -0.9064
  965MOL0     C30168   5.594   1.900   3.599 -0.8475  0.1730  0.7451
  965MOL0     C30169   5.732   1.930   3.627  0.5239 -0.1221  0.4533
  965MOL0     O30170   5.829   1.920   3.527  0.7332  0.3145  0.8935
  965MOL0     C30171   5.952   1.924   3.572  0.4204 -0.2557  0.3466
  965MOL0     C30172   6.010   2.042   3.608 -0.6463 -0.8742 -0.5403
  965MOL0     C30173   6.147   2.053   3.629  1.0637  0.3631 -0.6440
  965MOL0     C30174   6.224   1.940   3.648  0.2064  0.0366 -0.4727
  965MOL0     O30175   6.352   1.962   3.675  0.1353  0.3528  0.0093
  965MOL0     C30176   6.447   1.925   3.574 -0.2364 -0.3938  0.6116
  965MOL0     C30177   6.583   1.929   3.631  0.3274  0.4684  0.8555
  965MOL0     C30178   6.600   1.811   3.732  1.0852 -0.8239  0.3037
  965MOL0     C30179   6.736   1.801   3.800 -0.6153 -1.0687  0.9374
  965MOL0     C30180   6.852   1.766   3.715  0.0172 -0.6317  0.8596
  965MOL0     C30181   6.980   1.813   3.788 -0.0421  0.2147  0.5690
  965MOL0     C30182   7.103   1.753   3.715  0.3437 -0.2508 -0.1613
  965MOL0     C30183   7.228   1.760   3.815 -0.0248 -0.9626 -0.2431
  965MOL0    Cl30184   7.258   1.928   3.870  0.1377  0.1967  0.0077
  965MOL0     C30185   6.161   1.815   3.622 -0.1922 -0.6419  0.3178
  965MOL0     C30186   6.029   1.808   3.587 -0.7816 -0.2669 -0.3212
  965MOL0     O30187   5.752   1.961   3.744 -0.0983 -0.5221 -0.9630
  965MOL0     C30188   5.498   1.912   3.699  0.5789 -0.7159 -0.4632
  965MOL0     C30189   5.366   1.889   3.671  0.1925 -0.9905  0.4274
  965MOL0     N30190   4.875   1.439   3.645 -0.5817  0.0814 -0.1419
  965MOL0     N30191   4.876   1.339   3.570  0.5584  0.5153  0.0055
  965MOL0     C30192   3.925   0.523   3.741  0.9603  0.0689 -0.3067
  965MOL0     C30193   3.783   0.502   3.750 -0.1140 -0.9224 -0.0146
  965MOL0     C30194   3.340   0.511   3.648 -0.8736 -0.9153  0.1070
  965MOL0     C30195   3.294   0.460   3.772 -0.2342  0.2653  0.9266
  965MOL0     C30196   3.174   0.387   3.780  0.4896 -0.0505  0.0507
  965MOL0     C30197   3.098   0.360   3.671 -0.0979 -0.3511  0.1593
  965MOL0     O30198   2.987   0.281   3.668 -0.2537  0.2737  0.3544
  965MOL0     C30199   2.973   0.191   3.777 -0.7020  0.0181  0.3173
  965MOL0     C30200   2.857   0.092   3.755 -0.1210 -0.4694  0.1481
  965MOL0     C30201   2.716   0.144   3.728 -1.2746 -0.0523  0.2113
  965MOL0     C30202   2.668   0.241   3.835 -0.2489  0.2244 -0.4007
  965MOL0     C30203   2.516   0.262   3.840  0.1394 -1.8661  0.1734
  965MOL0     C30204   2.395   0.260   3.850  0.9544 -0.8931 -0.1987
  965MOL0     C30205   3.142   0.403   3.546 -0.2093  0.5868 -0.0996
  965MOL0     C30206   3.257   0.487   3.533  0.0461  0.0386 -0.0654
  965MOL0     C30207   3.290   0.536   3.397  0.1918 -0.5852 -0.3005
  965MOL0     H30208   3.688   0.831   3.704  0.2449  0.6494  1.5840
  965MOL0     H30209   3.901   0.863   3.680 -0.6347  1.8541  4.5041
  965MOL0     H30210   4.126   0.843   3.586 -0.4197 -3.2825 -1.0759
  965MOL0     H30211   4.098   0.897   3.754  0.1680 -1.2952  2.8182
  965MOL0     H30212   4.338   0.737   3.712  0.5813 -0.0077  3.9516
  965MOL0     H30213   4.298   0.856   3.832 -0.0333  0.8243 -0.2438
  965MOL0     H30214   4.450   0.982   3.700  0.2304 -1.8861  0.4199
  965MOL0     H30215   4.300   1.034   3.640 -0.3427 -0.0841 -1.8288
  965MOL0     H30216   4.500   0.825   3.518 -0.4176 -0.7684 -0.4486
  965MOL0     H30217   4.334   0.830   3.458  0.6349 -0.0105 -1.6921
  965MOL0     H30218   4.475   0.973   3.329 -2.0447  0.0038  0.5251
  965MOL0     H30219   4.358   1.070   3.407 -0.9165 -1.2098 -1.8674
  965MOL0     H30220   4.574   1.122   3.581  2.6134 -0.2349 -0.3266
  965MOL0     H30221   4.663   1.009   3.485  0.1599 -0.6840  1.9959
  965MOL0     H30222   4.540   1.280   3.393 -0.2964 -0.8976  1.8233
  965MOL0     H30223   4.575   1.149   3.283  1.4487 -0.3556  0.2825
  965MOL0     H30224   4.806   1.163   3.397  0.8544  0.2429  0.9005
  965MOL0     H30225   4.767   1.297   3.278  1.5467 -1.3889 -0.6393
  965MOL0     H30226   4.626   1.492   3.431 -2.5642 -0.4980  0.4507
  965MOL0     H30227   4.704   1.711   3.568 -0.1356  0.5054  1.5331
  965MOL0     H30228   4.668   1.657   3.725 -1.3652 -0.6461 -2.5018
  965MOL0     H30229   4.853   1.842   3.730  0.1059  0.1424  0.7273
  965MOL0     H30230   4.929   1.688   3.769 -0.3915 -0.6012 -0.2490
  965MOL0     H30231   4.932   1.869   3.520 -0.4581  1.2809  2.1572
  965MOL0     H30232   4.969   1.691   3.507 -1.4867 -1.0491  1.7914
  965MOL0     H30233   5.133   1.736   3.697  0.3193  1.0341  1.0563
  965MOL0     H30234   5.098   1.906   3.685 -2.4993 -1.0500  1.1519
  965MOL0     H30235   5.371   1.834   3.338  1.4064  2.7104 -0.6930
  965MOL0     H30236   5.623   1.886   3.383  2.2085  0.8370  0.8309
  965MOL0     H30237   5.949   2.129   3.631  1.2431 -0.0422  1.7349
  965MOL0     H30238   6.190   2.152   3.635  0.9858  0.3791 -0.2892
  965MOL0     H30239   6.432   1.824   3.533 -1.4007 -0.4065  1.0363
  965MOL0     H30240   6.437   1.995   3.491 -3.2220  0.2224  1.3754
  965MOL0     H30241   6.656   1.917   3.550  1.8138  0.5224  2.1458
  965MOL0     H30242   6.600   2.032   3.665 -3.3111  2.5852 -2.7837
  965MOL0     H30243   6.525   1.812   3.812 -1.2657 -1.5753 -1.8041
  965MOL0     H30244   6.589   1.715   3.682 -3.5651 -1.4319  1.9583
  965MOL0     H30245   6.730   1.732   3.885 -0.9498 -2.6386 -0.3053
  965MOL0     H30246   6.753   1.902   3.838 -3.6689  0.8086 -2.1159
  965MOL0     H30247   6.853   1.823   3.621  0.1989 -1.7514  0.1675
  965MOL0     H30248   6.848   1.659   3.692 -3.3053 -0.1879 -1.3735
  965MOL0     H30249   6.977   1.921   3.774 -0.2043  0.5649  2.8594
  965MOL0     H30250   6.968   1.782   3.892 -0.1071  0.1028  0.5290
  965MOL0     H30251   7.117   1.818   3.628 -1.5671  0.0730 -0.2686
  965MOL0     H30252   7.074   1.656   3.673 -0.6722  0.1989 -0.5380
  965MOL0     H30253   7.219   1.696   3.903 -0.5078 -0.2083  0.2701
  965MOL0     H30254   7.320   1.733   3.762  0.6860 -2.0771  1.4947
  965MOL0     H30255   6.222   1.726   3.632  0.3638 -0.2516  0.5155
  965MOL0     H30256   5.984   1.714   3.557 -3.7895 -0.2583  3.3230
  965MOL0     H30257   5.530   1.927   3.801  0.3446 -1.3057 -0.2995
  965MOL0     H30258   5.301   1.906   3.757 -0.0124 -2.4281  0.5728
  965MOL0     H30259   3.998   0.443   3.750  0.7336 -0.3782 -2.0705
  965MOL0     H30260   3.738   0.406   3.773 -0.2740 -0.8775 -0.1410
  965MOL0     H30261   3.349   0.471   3.865 -0.6632  2.1699  0.9944
  965MOL0     H30262   3.146   0.353   3.880  2.2385 -2.3209 -0.1447
  965MOL0     H30263   2.952   0.248   3.868 -2.1652 -0.5456  0.3705
  965MOL0     H30264   3.064   0.135   3.797  0.0213  0.5730 -1.2427
  965MOL0     H30265   2.858   0.017   3.834  3.2682 -3.0776 -2.0783
  965MOL0     H30266   2.889   0.032   3.669  1.6521 -0.0637  0.4825
  965MOL0     H30267   2.656   0.053   3.720 -0.6240 -0.5054  0.4198
  965MOL0     H30268   2.720   0.197   3.633 -0.7627  0.7547  0.6635
  965MOL0     H30269   2.694   0.197   3.932 -0.0325  0.7127 -0.2333
  965MOL0     H30270   2.723   0.336   3.831 -0.4554  0.3705  0.0907
  965MOL0     H30271   2.290   0.248   3.866  1.0576 -0.9480  0.4360
  965MOL0     H30272   3.085   0.366   3.462  1.9362  2.0409 -2.3436
  965MOL0     H30273   3.344   0.631   3.396  1.2679 -1.1824 -1.2318
  965MOL0     H30274   3.358   0.475   3.337 -0.0299  0.0226 -1.1921
  965MOL0     H30275   3.201   0.555   3.337  1.2730 -0.9164 -2.1033
  966MOL0     O30276   4.812   5.064   9.251  0.4613  0.0730  0.1378
  966MOL0     C30277   4.775   4.957   9.209  0.0930  0.6844  0.3716
  966MOL0     O30278   4.832   4.884   9.107 -0.4230 -0.4188  0.4439
  966MOL0     C30279   4.967   4.902   9.085 -0.2544  0.2016  0.2895
  966MOL0     C30280   5.009   4.992   8.981 -0.1917  0.2875 -0.3468
  966MOL0     C30281   5.141   5.009   8.962 -0.0386 -0.5907 -0.6448
  966MOL0     C30282   5.241   4.931   9.024  0.1145 -0.3117 -0.7197
  966MOL0     O30283   5.367   4.941   8.979  0.1151  0.0152 -0.3877
  966MOL0     C30284   5.480   4.961   9.057  0.3724  0.1604  0.5064
  966MOL0     C30285   5.494   5.102   9.094 -0.2527  0.5807 -0.4886
  966MOL0     C30286   5.501   5.194   8.968 -0.0865  0.2317  0.5343
  966MOL0     C30287   5.502   5.332   8.998  1.0357 -0.2613 -1.0368
  966MOL0     C30288   5.510   5.421   8.873  1.3061  0.7290 -0.3120
  966MOL0     C30289   5.646   5.430   8.809  0.2435  0.0591 -0.1652
  966MOL0     C30290   5.645   5.496   8.664 -0.1852  0.5470  0.3313
  966MOL0     C30291   5.774   5.495   8.587 -0.0348 -0.5970  0.0266
  966MOL0     N30292   5.872   5.601   8.623 -0.7214  0.1841  0.7001
  966MOL0     C30293   5.982   5.628   8.539 -0.2960  0.0580  0.9603
  966MOL0     C30294   6.040   5.738   8.594 -0.2201  0.5166 -0.6953
  966MOL0     C30295   6.168   5.813   8.550  0.5838  0.2871 -0.0039
  966MOL0     C30296   6.244   5.741   8.434 -0.0794 -0.7710 -0.8103
  966MOL0     C30297   6.334   5.838   8.362 -0.6834  0.6324  0.3681
  966MOL0     C30298   6.381   5.778   8.234 -0.1943 -0.3440 -0.8931
  966MOL0     O30299   6.475   5.669   8.267  1.0939 -0.8004  0.5209
  966MOL0     C30300   6.593   5.660   8.194 -0.0232 -0.2739 -0.1435
  966MOL0     C30301   6.637   5.754   8.096 -0.4859 -0.7038 -0.1420
  966MOL0     C30302   6.767   5.746   8.038  0.3209 -0.6049 -0.5320
  966MOL0     C30303   6.853   5.646   8.081 -0.3100 -0.5424  0.0961
  966MOL0     C30304   6.985   5.635   8.025  0.8059  0.0277 -0.4073
  966MOL0     O30305   7.061   5.539   8.085  0.5642 -0.2658 -0.8356
  966MOL0     C30306   7.184   5.519   8.025  1.0291  0.1972  0.3662
  966MOL0     C30307   7.290   5.573   8.097  0.1881 -0.2772  0.3341
  966MOL0     C30308   7.417   5.553   8.047  0.5113  0.4394 -0.1212
  966MOL0     C30309   7.438   5.478   7.926 -0.9458 -0.5321 -0.0460
  966MOL0     O30310   7.564   5.450   7.878  0.6893  0.6166  0.5404
  966MOL0     C30311   7.666   5.547   7.899  0.3532 -1.2844 -0.3256
  966MOL0     C30312   7.795   5.524   7.812  0.4252 -0.3195  0.0602
  966MOL0     C30313   7.878   5.412   7.872 -0.3908  0.3515 -0.0577
  966MOL0     C30314   8.019   5.461   7.864  0.7479  0.6565 -0.0670
  966MOL0     C30315   8.112   5.352   7.915 -0.2881  0.7325 -0.3256
  966MOL0     C30316   8.257   5.383   7.914  0.6071 -0.0572 -0.6922
  966MOL0     C30317   8.326   5.259   7.968 -0.4456 -0.1002  0.3976
  966MOL0     C30318   8.477   5.242   7.932  0.4161 -0.0100 -0.0598
  966MOL0    Cl30319   8.564   5.343   8.061  0.4090  0.1678  0.1233
  966MOL0     C30320   7.331   5.434   7.858  0.7916 -0.2138 -0.4264
  966MOL0     C30321   7.198   5.458   7.903  0.4428  0.2414  0.7503
  966MOL0     O30322   7.021   5.724   7.946  0.1910 -0.0018  0.3033
  966MOL0     C30323   6.804   5.542   8.161 -0.5235  0.2084  0.4407
  966MOL0     C30324   6.676   5.547   8.225  0.0838 -0.3568  0.8880
  966MOL0     N30325   5.957   5.789   8.691  0.4248  0.0875 -0.6434
  966MOL0     N30326   5.857   5.709   8.707  0.2146 -0.3969  0.6977
  966MOL0     C30327   5.192   4.836   9.116 -0.4735  0.1023  0.3680
  966MOL0     C30328   5.057   4.824   9.156  0.2176 -0.7311  0.3608
  966MOL0     C30329   4.652   4.897   9.267  0.1994 -0.3900  0.1444
  966MOL0     C30330   4.646   4.763   9.293 -0.7413 -0.4452  0.3561
  966MOL0     C30331   4.535   4.698   9.349  1.5571  0.3730  0.4680
  966MOL0     C30332   4.415   4.766   9.374  0.1504  0.7027 -0.1274
  966MOL0     O30333   4.303   4.700   9.437 -0.4223  0.3898  0.8413
  966MOL0     C30334   4.179   4.773   9.457  1.0740 -0.0652  0.4909
  966MOL0     C30335   4.066   4.669   9.493 -0.1509 -0.6534 -0.3635
  966MOL0     C30336   4.093   4.577   9.614  0.3106  0.4619  0.7308
  966MOL0     C30337   4.030   4.439   9.600 -0.3257  0.3192 -0.2501
  966MOL0     C30338   3.888   4.437   9.571 -0.3131  0.0558  0.2522
  966MOL0     C30339   3.771   4.420   9.552  0.2223 -0.3314  0.0743
  966MOL0     C30340   4.418   4.909   9.347  0.7310  0.1740 -0.4015
  966MOL0     C30341   4.541   4.972   9.303  0.3024 -0.3930 -0.6331
  966MOL0     C30342   4.534   5.123   9.282 -0.5008 -0.2703  0.6897
  966MOL0     H30343   4.945   5.063   8.929  1.2593  0.1924 -2.3702
  966MOL0     H30344   5.168   5.092   8.898 -0.6675  1.3341  1.4492
  966MOL0     H30345   5.485   4.892   9.141 -1.2890  1.3702  1.6593
  966MOL0     H30346   5.569   4.935   8.998  0.1877 -0.4434  0.4887
  966MOL0     H30347   5.595   5.107   9.135  0.4731 -1.8868 -1.7800
  966MOL0     H30348   5.414   5.128   9.163 -1.2546 -0.7625 -1.0909
  966MOL0     H30349   5.414   5.174   8.906 -0.4436  4.2720 -0.5477
  966MOL0     H30350   5.588   5.162   8.909 -1.8366 -4.3607  0.1007
  966MOL0     H30351   5.406   5.357   9.043  1.9518  2.7921 -0.5404
  966MOL0     H30352   5.578   5.367   9.069  2.7397 -0.1502 -2.7947
  966MOL0     H30353   5.438   5.377   8.803  1.3916 -2.3141  1.3457
  966MOL0     H30354   5.484   5.524   8.899  0.7692  0.2819  1.0084
  966MOL0     H30355   5.710   5.497   8.867  0.4546 -0.9404  0.8068
  966MOL0     H30356   5.687   5.328   8.807 -2.2435 -0.9944 -0.3146
  966MOL0     H30357   5.609   5.597   8.683  0.6430  0.3970  3.1006
  966MOL0     H30358   5.566   5.438   8.614  1.1200  0.9690 -2.4167
  966MOL0     H30359   5.820   5.396   8.600 -0.6672 -1.2939 -2.6099
  966MOL0     H30360   5.742   5.509   8.484 -1.6130  0.2336  0.5881
  966MOL0     H30361   6.018   5.578   8.450  3.2866 -2.8737  3.6860
  966MOL0     H30362   6.130   5.905   8.505  0.1649 -0.3195 -0.9177
  966MOL0     H30363   6.235   5.827   8.636 -1.0753 -2.9543  1.9968
  966MOL0     H30364   6.294   5.648   8.463  1.5684  0.4440  0.3742
  966MOL0     H30365   6.165   5.720   8.361 -0.1190 -1.1362 -0.6664
  966MOL0     H30366   6.417   5.881   8.418 -0.6885  2.9525 -1.2451
  966MOL0     H30367   6.267   5.922   8.342 -0.6763  0.4003 -0.6805
  966MOL0     H30368   6.426   5.862   8.181  3.2916 -2.0135 -0.8696
  966MOL0     H30369   6.300   5.737   8.173 -0.8669 -2.0323  1.0364
  966MOL0     H30370   6.579   5.839   8.063  0.8966  0.3769  0.1242
  966MOL0     H30371   6.799   5.827   7.974 -0.3163  0.2310  0.1833
  966MOL0     H30372   7.269   5.631   8.187  3.2599 -0.1558  1.1179
  966MOL0     H30373   7.501   5.588   8.105  1.9576  0.8465 -2.3631
  966MOL0     H30374   7.618   5.642   7.874 -0.7826 -0.9319  2.7717
  966MOL0     H30375   7.705   5.537   8.001  3.5995  0.5163 -1.2295
  966MOL0     H30376   7.751   5.487   7.718  2.4728  0.3007 -1.2150
  966MOL0     H30377   7.850   5.616   7.793  1.1341 -0.4987  1.1918
  966MOL0     H30378   7.836   5.399   7.972 -1.5510  1.5555 -0.3511
  966MOL0     H30379   7.861   5.322   7.811  0.0107  0.4038 -0.2507
  966MOL0     H30380   8.049   5.549   7.922 -0.1439 -0.9656  3.1188
  966MOL0     H30381   8.050   5.482   7.761  0.1761 -0.8064 -0.5637
  966MOL0     H30382   8.098   5.264   7.851 -0.7813  0.8772 -0.4253
  966MOL0     H30383   8.081   5.331   8.018  1.0699 -0.8520 -0.1946
  966MOL0     H30384   8.284   5.401   7.810 -0.9215 -0.6269 -1.2101
  966MOL0     H30385   8.282   5.472   7.973 -0.7452  0.6922 -1.2024
  966MOL0     H30386   8.278   5.175   7.916 -0.5269 -0.4311  0.9990
  966MOL0     H30387   8.316   5.252   8.076  0.3814  0.9875  0.5568
  966MOL0     H30388   8.502   5.136   7.935 -0.7142 -0.3043 -0.4274
  966MOL0     H30389   8.490   5.275   7.829 -3.7861 -0.2164 -0.8207
  966MOL0     H30390   7.343   5.378   7.766 -1.1756 -1.1436 -0.1825
  966MOL0     H30391   7.110   5.429   7.847 -0.7422 -0.2901  2.7609
  966MOL0     H30392   6.864   5.454   8.182  0.1270  0.7862  1.0483
  966MOL0     H30393   6.653   5.467   8.294 -1.0199  2.1364  3.6124
  966MOL0     H30394   5.274   4.777   9.155  0.7191  0.2286 -1.7788
  966MOL0     H30395   5.026   4.743   9.222  2.0502 -0.4265  1.6747
  966MOL0     H30396   4.735   4.706   9.268 -0.8925 -1.7374  2.4744
  966MOL0     H30397   4.537   4.592   9.373  3.8369  0.5082  1.1097
  966MOL0     H30398   4.148   4.827   9.368  2.4805  0.0244  0.0214
  966MOL0     H30399   4.190   4.841   9.542  1.2287 -0.3376  0.6952
  966MOL0     H30400   4.061   4.598   9.410  0.7504  0.0771 -1.0619
  966MOL0     H30401   3.971   4.724   9.498  1.0995  1.9187 -2.6683
  966MOL0     H30402   4.049   4.618   9.706  0.3671  1.2572  0.4190
  966MOL0     H30403   4.200   4.558   9.626 -0.0271 -1.1924  1.3641
  966MOL0     H30404   4.085   4.376   9.530  0.6278  0.3018  0.4992
  966MOL0     H30405   4.047   4.384   9.693  2.5085 -1.7441 -1.8640
  966MOL0     H30406   3.665   4.406   9.546 -0.0753 -0.1050  3.1645
  966MOL0     H30407   4.332   4.971   9.367 -0.4778 -0.9828 -1.8087
  966MOL0     H30408   4.618   5.173   9.332  1.2881 -0.2481 -2.1193
  966MOL0     H30409   4.552   5.138   9.175  0.7365  0.2297  0.9429
  966MOL0     H30410   4.448   5.176   9.324  0.8108 -0.2092  3.4961
  967MOL0     O30411   1.122   9.261   3.374  0.2955  0.7186  0.2438
  967MOL0     C30412   1.086   9.141   3.371 -0.2186 -0.4828 -0.1839
  967MOL0     O30413   1.170   9.036   3.401 -0.0243  0.6088  0.5541
  967MOL0     C30414   1.308   9.054   3.371  0.2330 -0.0193  0.5764
  967MOL0     C30415   1.393   8.956   3.428  0.6648 -0.1443 -0.0468
  967MOL0     C30416   1.534   8.955   3.405 -0.2684 -0.0292 -0.0445
  967MOL0     C30417   1.591   9.042   3.315 -1.2157 -0.4769 -0.8637
  967MOL0     O30418   1.720   9.056   3.277  0.2553  0.6942 -0.3991
  967MOL0     C30419   1.813   8.958   3.293 -0.1296  0.0030  0.1295
  967MOL0     C30420   1.947   8.996   3.215 -0.5228  0.2359  1.0833
  967MOL0     C30421   2.055   8.883   3.214  0.9206 -0.2241  1.2424
  967MOL0     C30422   2.194   8.928   3.178 -0.3751 -0.3203  0.3881
  967MOL0     C30423   2.292   8.814   3.211  1.6204  0.2527  0.2351
  967MOL0     C30424   2.427   8.864   3.164 -0.1731 -0.4769  0.6681
  967MOL0     C30425   2.539   8.762   3.175 -0.6775 -0.0353  0.0454
  967MOL0     C30426   2.584   8.723   3.318  0.5133 -0.2457 -0.1278
  967MOL0     N30427   2.703   8.638   3.308 -0.2035  0.3084  0.2682
  967MOL0     C30428   2.834   8.677   3.309 -0.5018 -0.8779 -0.2136
  967MOL0     C30429   2.908   8.568   3.324  0.5165 -0.1922  1.0069
  967MOL0     C30430   3.061   8.569   3.352 -0.1816 -0.0924  0.0296
  967MOL0     C30431   3.085   8.486   3.476 -0.0600  0.5754 -0.3430
  967MOL0     C30432   3.233   8.477   3.508 -0.7536 -0.1088  0.2140
  967MOL0     C30433   3.331   8.442   3.402 -0.4745  0.5284 -0.0200
  967MOL0     O30434   3.465   8.428   3.467 -0.0227 -0.4863 -0.2623
  967MOL0     C30435   3.578   8.411   3.397 -0.2039 -0.0700  0.1285
  967MOL0     C30436   3.691   8.440   3.471  0.5086 -0.9783  0.9475
  967MOL0     C30437   3.819   8.438   3.417  0.0637  1.0536  0.0132
  967MOL0     C30438   3.832   8.404   3.278 -0.5324  0.2516 -0.3388
  967MOL0     C30439   3.958   8.414   3.204  0.1558 -0.5676  0.4325
  967MOL0     O30440   4.066   8.487   3.264 -0.0600 -0.2066  0.4356
  967MOL0     C30441   4.194   8.474   3.222 -1.3333  0.1610 -0.1086
  967MOL0     C30442   4.250   8.353   3.176 -0.2353  0.0376  0.1228
  967MOL0     C30443   4.379   8.342   3.129  0.3579 -0.4284 -0.6417
  967MOL0     C30444   4.463   8.458   3.135  0.5860  0.0519  0.0889
  967MOL0     O30445   4.590   8.452   3.093  0.1136 -0.3111  0.2611
  967MOL0     C30446   4.632   8.368   2.983 -0.0739 -0.1698  0.3866
  967MOL0     C30447   4.761   8.423   2.920 -0.7775 -0.4109  0.0408
  967MOL0     C30448   4.787   8.576   2.930  0.1466 -0.4062 -0.0503
  967MOL0     C30449   4.923   8.612   2.871 -0.8374 -0.1025  0.1749
  967MOL0     C30450   4.942   8.763   2.855 -0.4731 -0.6583 -0.2852
  967MOL0     C30451   5.077   8.803   2.817  0.1543 -0.6041  0.6024
  967MOL0     C30452   5.112   8.756   2.674  0.1091 -0.9545 -0.3717
  967MOL0     C30453   5.251   8.789   2.626 -0.5845  1.3745  0.8046
  967MOL0    Cl30454   5.387   8.759   2.742  0.3868  0.3993 -0.1750
  967MOL0     C30455   4.409   8.585   3.180 -0.6502  0.3159 -0.4427
  967MOL0     C30456   4.275   8.589   3.231 -0.2799  0.2728  0.4041
  967MOL0     O30457   3.965   8.345   3.102  0.7494  0.0693 -0.0980
  967MOL0     C30458   3.714   8.381   3.207 -0.0627  0.0045  0.3916
  967MOL0     C30459   3.586   8.380   3.263 -0.0402  0.9740 -0.6123
  967MOL0     N30460   2.826   8.458   3.307 -0.2697 -0.0795  0.4094
  967MOL0     N30461   2.705   8.500   3.303  0.1198  0.0105 -0.9392
  967MOL0     C30462   1.513   9.141   3.262 -0.2110 -0.6135 -1.0215
  967MOL0     C30463   1.373   9.145   3.284 -0.6831  0.7025 -0.5447
  967MOL0     C30464   0.941   9.113   3.354 -0.2416 -0.0637 -0.5514
  967MOL0     C30465   0.872   9.208   3.286  0.7001 -1.0131 -0.4579
  967MOL0     C30466   0.739   9.184   3.248  0.0457  0.0238  1.2989
  967MOL0     C30467   0.661   9.077   3.303  0.5211  0.8304 -0.0582
  967MOL0     O30468   0.521   9.060   3.294 -0.0199  0.0423  0.1806
  967MOL0     C30469   0.446   9.149   3.217  0.1785  0.0994  0.3698
  967MOL0     C30470   0.311   9.090   3.210  0.1054 -0.2484 -0.3931
  967MOL0     C30471   0.233   9.071   3.347  0.4586  0.4568 -0.3364
  967MOL0     C30472   0.080   9.042   3.344  0.9608  0.5329  1.0590
  967MOL0     C30473   0.014   9.133   3.257 -0.0147  0.1278  0.8053
  967MOL0     C30474  -0.038   9.210   3.172  0.3077  0.2632 -0.7144
  967MOL0     C30475   0.728   8.986   3.387 -0.2842  0.4700  0.4583
  967MOL0     C30476   0.871   8.996   3.407  0.5712 -0.0265 -0.4366
  967MOL0     C30477   0.935   8.903   3.507  0.3829 -0.0905 -0.0529
  967MOL0     H30478   1.354   8.887   3.502  1.8484 -1.6304 -0.7571
  967MOL0     H30479   1.599   8.879   3.447  2.8578  0.7623 -3.0489
  967MOL0     H30480   1.830   8.931   3.398 -0.6261  0.1305  0.2483
  967MOL0     H30481   1.765   8.868   3.252 -1.4488 -0.2028  1.9872
  967MOL0     H30482   1.987   9.081   3.271  1.3890 -0.5583  0.9859
  967MOL0     H30483   1.920   9.028   3.114  2.9811  2.9598  0.8123
  967MOL0     H30484   2.017   8.806   3.146  2.6205  0.4930 -0.6366
  967MOL0     H30485   2.067   8.834   3.311 -0.6678 -1.2136  0.9897
  967MOL0     H30486   2.206   8.950   3.072  2.0761  2.4282  1.0957
  967MOL0     H30487   2.214   9.018   3.237  0.4329 -0.0709 -0.2460
  967MOL0     H30488   2.299   8.784   3.316  0.6909 -3.0505 -0.5377
  967MOL0     H30489   2.249   8.733   3.151  1.2951 -0.8224  1.8576
  967MOL0     H30490   2.421   8.902   3.062 -0.7958 -0.9875  0.5085
  967MOL0     H30491   2.449   8.951   3.227  1.1207 -1.4347  1.5811
  967MOL0     H30492   2.635   8.795   3.134 -0.2888 -2.0551 -0.7674
  967MOL0     H30493   2.521   8.676   3.110  0.8468 -0.6905  0.4508
  967MOL0     H30494   2.607   8.815   3.373 -0.4497 -0.0263 -0.0725
  967MOL0     H30495   2.505   8.664   3.366 -0.5991 -0.1106 -1.7147
  967MOL0     H30496   2.870   8.779   3.301  0.8535 -1.2246  1.0411
  967MOL0     H30497   3.112   8.522   3.268 -3.2112 -2.5454 -0.6310
  967MOL0     H30498   3.092   8.673   3.366  0.4386 -0.3504  0.5932
  967MOL0     H30499   3.035   8.531   3.562 -1.2542  1.4345 -1.4275
  967MOL0     H30500   3.048   8.388   3.447  0.2931  0.2623  0.2555
  967MOL0     H30501   3.240   8.400   3.584 -0.1219 -1.0244 -0.7512
  967MOL0     H30502   3.273   8.568   3.554  2.1927 -1.3404  0.2603
  967MOL0     H30503   3.310   8.497   3.310 -3.7507  1.8226  1.3798
  967MOL0     H30504   3.320   8.335   3.380 -1.7702  0.3694  1.2866
  967MOL0     H30505   3.680   8.461   3.576 -0.8503 -2.1023  1.0488
  967MOL0     H30506   3.910   8.457   3.473  0.5359  0.2313 -0.4601
  967MOL0     H30507   4.187   8.264   3.175 -0.4908  0.1391 -2.6874
  967MOL0     H30508   4.415   8.245   3.096 -1.8315 -1.0843 -1.2333
  967MOL0     H30509   4.642   8.265   3.019 -2.2312 -0.6399 -0.2231
  967MOL0     H30510   4.545   8.373   2.918 -1.2095  0.3584  1.8834
  967MOL0     H30511   4.839   8.360   2.964 -2.1284 -2.4622 -0.3426
  967MOL0     H30512   4.749   8.398   2.815  1.6816 -1.9113  0.0516
  967MOL0     H30513   4.712   8.624   2.867  2.5243 -1.5487 -4.0899
  967MOL0     H30514   4.777   8.601   3.036 -2.5942 -3.8734  0.7062
  967MOL0     H30515   4.922   8.572   2.769 -2.2207  2.5567 -0.9492
  967MOL0     H30516   5.008   8.560   2.916 -0.4976 -2.6915 -3.0524
  967MOL0     H30517   4.913   8.813   2.948 -1.7136 -0.1051 -0.9459
  967MOL0     H30518   4.868   8.807   2.786 -0.3856  0.0267  0.0535
  967MOL0     H30519   5.075   8.912   2.812 -1.9344 -0.6289 -0.2346
  967MOL0     H30520   5.156   8.784   2.890 -0.5081  2.8132  2.3707
  967MOL0     H30521   5.045   8.810   2.607  0.9887  1.8005  0.8083
  967MOL0     H30522   5.107   8.647   2.670  2.4678 -1.2099  1.2983
  967MOL0     H30523   5.275   8.740   2.531  1.9869  1.9870  1.0788
  967MOL0     H30524   5.255   8.897   2.610 -2.1532  1.5734  1.5495
  967MOL0     H30525   4.456   8.683   3.174  0.2755 -0.1955 -2.3005
  967MOL0     H30526   4.228   8.684   3.255 -3.5604 -1.8594  3.5044
  967MOL0     H30527   3.718   8.361   3.100 -5.4035  0.2476 -0.1151
  967MOL0     H30528   3.491   8.357   3.215  0.1143 -2.0229  0.2809
  967MOL0     H30529   1.555   9.215   3.195 -0.4514  0.6456  0.1768
  967MOL0     H30530   1.316   9.211   3.219 -1.6840 -0.1150 -0.5337
  967MOL0     H30531   0.921   9.296   3.245  0.0819  0.0560  0.9879
  967MOL0     H30532   0.689   9.255   3.184  1.2320  0.6060  0.9908
  967MOL0     H30533   0.485   9.141   3.115 -0.1274 -0.3518  0.2859
  967MOL0     H30534   0.454   9.248   3.262  0.6580 -0.4953  1.6309
  967MOL0     H30535   0.318   8.993   3.160 -0.8977 -0.5425  0.0179
  967MOL0     H30536   0.252   9.150   3.139 -1.2002  0.8261  1.5100
  967MOL0     H30537   0.247   9.166   3.399  0.5080  1.2411 -1.7220
  967MOL0     H30538   0.277   8.987   3.402  2.8867  0.1205 -2.5993
  967MOL0     H30539   0.072   8.943   3.297  0.4944  1.4046 -0.7433
  967MOL0     H30540   0.045   9.041   3.448  0.1899 -1.6328  0.8316
  967MOL0     H30541  -0.078   9.273   3.095 -0.5826  1.4430  0.6638
  967MOL0     H30542   0.668   8.904   3.424  1.9642 -3.1541 -3.0547
  967MOL0     H30543   0.855   8.842   3.551 -0.7779  2.3437  1.3701
  967MOL0     H30544   1.012   8.840   3.460  0.0097 -0.9470  0.4457
  967MOL0     H30545   0.978   8.960   3.590  0.4415  1.4793 -1.1179
  968MOL0     O30546  10.994   7.244   7.820  0.5405 -0.5507  0.0541
  968MOL0     C30547  10.948   7.352   7.852  0.4461 -0.2112  0.4325
  968MOL0     O30548  11.009   7.442   7.937 -0.0969  0.3396  1.0503
  968MOL0     C30549  11.133   7.401   7.973  0.3042 -0.5454  0.7740
  968MOL0     C30550  11.152   7.307   8.082  0.4673 -0.2720  0.4396
  968MOL0     C30551  11.274   7.268   8.122  0.0285  0.8198  0.0759
  968MOL0     C30552  11.379   7.320   8.069 -0.1376  0.6088 -0.4939
  968MOL0     O30553  11.507   7.266   8.096  0.7167  0.2884 -1.1008
  968MOL0     C30554  11.545   7.267   8.235 -0.1925 -0.8431 -0.1041
  968MOL0     C30555  11.680   7.204   8.259  0.7534  0.1529  0.2908
  968MOL0     C30556  11.800   7.253   8.177 -0.2752  0.6425  0.4435
  968MOL0     C30557  11.812   7.402   8.158 -0.0115  0.3897 -0.7300
  968MOL0     C30558  11.859   7.474   8.284  0.1060 -0.1979 -0.1100
  968MOL0     C30559  11.861   7.627   8.284  0.3969  0.5783 -0.2368
  968MOL0     C30560  11.903   7.684   8.426 -0.1169 -0.7703  0.1329
  968MOL0     C30561  11.906   7.845   8.416  0.5161  0.4146  0.2917
  968MOL0     N30562  11.774   7.891   8.377  0.3605  0.3922  0.0783
  968MOL0     C30563  11.667   7.889   8.463  0.6300  0.1049 -0.1228
  968MOL0     C30564  11.576   7.967   8.402 -0.0596 -0.1709 -0.1304
  968MOL0     C30565  11.440   7.986   8.451 -0.1768 -0.4080 -0.8415
  968MOL0     C30566  11.347   8.070   8.357  0.3817 -0.3993  0.3549
  968MOL0     C30567  11.208   8.080   8.415 -0.4589  0.4153  0.5848
  968MOL0     C30568  11.104   8.105   8.317 -0.0351  0.3122 -0.2385
  968MOL0     O30569  10.966   8.085   8.364  0.0296  0.0252  0.2175
  968MOL0     C30570  10.878   8.182   8.331  0.2735 -1.4328 -0.3646
  968MOL0     C30571  10.895   8.280   8.232  0.1236  0.8596 -0.5317
  968MOL0     C30572  10.799   8.374   8.217  0.6637  0.7841 -0.1349
  968MOL0     C30573  10.669   8.354   8.270  0.4568  0.2692 -0.5516
  968MOL0     C30574  10.552   8.435   8.233  0.2858 -0.0356 -0.0772
  968MOL0     O30575  10.425   8.393   8.271  0.3715  0.4205 -0.4570
  968MOL0     C30576  10.318   8.476   8.272 -0.1601  0.2484  0.8262
  968MOL0     C30577  10.313   8.602   8.326 -0.1724  0.3340 -0.0640
  968MOL0     C30578  10.200   8.674   8.326  0.3774 -0.2256  0.2169
  968MOL0     C30579  10.078   8.638   8.259 -0.4557  0.3193 -0.5202
  968MOL0     O30580   9.970   8.721   8.253  0.7738  1.0477 -0.6676
  968MOL0     C30581   9.914   8.763   8.373  0.3562 -0.3718 -0.0286
  968MOL0     C30582   9.849   8.655   8.457  0.1064  0.0335 -0.1525
  968MOL0     C30583   9.748   8.566   8.384  0.3184  0.1974 -0.4149
  968MOL0     C30584   9.668   8.464   8.468  0.3441  0.6924 -0.4264
  968MOL0     C30585   9.749   8.387   8.577 -0.0233  0.0828  0.0490
  968MOL0     C30586   9.855   8.302   8.508  0.1132 -0.2653 -0.2161
  968MOL0     C30587   9.898   8.180   8.593  0.5107  0.6132  0.2394
  968MOL0     C30588   9.971   8.071   8.511 -0.4748  0.1641  0.3591
  968MOL0    Cl30589  10.090   7.978   8.606  0.1717  0.1660 -0.2061
  968MOL0     C30590  10.081   8.510   8.196  0.4359  0.2670 -0.2590
  968MOL0     C30591  10.202   8.431   8.211  0.9638  0.0173  0.0307
  968MOL0     O30592  10.572   8.548   8.184 -0.1407 -0.7839 -0.4827
  968MOL0     C30593  10.648   8.255   8.363 -0.4644 -0.0090 -0.7748
  968MOL0     C30594  10.753   8.169   8.395 -0.6583  0.0116 -0.9006
  968MOL0     N30595  11.620   8.009   8.279 -0.4150  0.1887 -0.1333
  968MOL0     N30596  11.738   7.959   8.263 -0.4970  0.0870 -1.0062
  968MOL0     C30597  11.368   7.414   7.964 -0.2200 -0.5820  0.9481
  968MOL0     C30598  11.249   7.453   7.916  0.9363 -0.6542 -0.5935
  968MOL0     C30599  10.824   7.388   7.786  1.1183  0.0858 -0.2495
  968MOL0     C30600  10.788   7.527   7.806 -0.2168  0.2641 -0.1662
  968MOL0     C30601  10.672   7.582   7.752  0.4352  0.2799  0.0922
  968MOL0     C30602  10.579   7.505   7.682 -0.5012 -0.2458  0.4274
  968MOL0     O30603  10.456   7.552   7.645  0.8277  0.8721 -0.6507
  968MOL0     C30604  10.389   7.500   7.530 -0.3853  0.9477 -0.2366
  968MOL0     C30605  10.282   7.598   7.488 -0.1475 -0.6877  0.5744
  968MOL0     C30606  10.182   7.526   7.391 -0.3230  0.0444 -0.5888
  968MOL0     C30607  10.084   7.632   7.344 -0.1603  0.5413 -0.4640
  968MOL0     C30608   9.969   7.567   7.267 -0.2933 -0.8991  0.0187
  968MOL0     C30609   9.868   7.504   7.242  0.9632 -0.5093 -0.0373
  968MOL0     C30610  10.612   7.372   7.664 -0.5425 -0.0425 -0.2340
  968MOL0     C30611  10.735   7.312   7.709  0.4529  0.0101  0.4711
  968MOL0     C30612  10.751   7.166   7.668 -0.4713 -0.4157 -0.2367
  968MOL0     H30613  11.060   7.276   8.132  1.1171  0.7762  2.4099
  968MOL0     H30614  11.291   7.185   8.191  1.9629 -2.2365 -3.6881
  968MOL0     H30615  11.543   7.373   8.264 -1.6896 -0.7657 -0.4456
  968MOL0     H30616  11.470   7.210   8.290 -0.6697 -1.0762 -0.9806
  968MOL0     H30617  11.673   7.096   8.243 -0.2099 -0.0391  1.8072
  968MOL0     H30618  11.711   7.228   8.361  0.6628  2.8034 -0.2377
  968MOL0     H30619  11.773   7.206   8.081 -0.5761  1.0884  0.3083
  968MOL0     H30620  11.894   7.216   8.218 -0.5232 -0.5309 -0.0138
  968MOL0     H30621  11.895   7.417   8.088 -0.1681  0.1309 -0.9738
  968MOL0     H30622  11.721   7.449   8.121 -1.1485  2.8603  4.3984
  968MOL0     H30623  11.791   7.453   8.367 -0.8171  0.0726 -0.7783
  968MOL0     H30624  11.958   7.444   8.319  0.8732 -0.0901 -2.0313
  968MOL0     H30625  11.929   7.664   8.206 -1.6299  0.7286 -2.0094
  968MOL0     H30626  11.761   7.661   8.259 -0.8281 -3.1937 -1.0899
  968MOL0     H30627  11.996   7.633   8.453  0.1197 -0.5650 -0.2837
  968MOL0     H30628  11.839   7.651   8.509  0.9246  1.5435  2.0118
  968MOL0     H30629  11.925   7.886   8.516  1.3932  0.6109  0.0491
  968MOL0     H30630  11.980   7.880   8.344 -0.7282 -1.1041 -1.8526
  968MOL0     H30631  11.671   7.843   8.561  1.0201  0.7920  0.1909
  968MOL0     H30632  11.401   7.884   8.457  0.9534 -0.8316 -0.4485
  968MOL0     H30633  11.440   8.034   8.550  1.6599 -1.5569 -0.2519
  968MOL0     H30634  11.390   8.167   8.329  0.1491 -0.2803  0.4013
  968MOL0     H30635  11.341   8.004   8.270  2.6679  0.1510 -0.2699
  968MOL0     H30636  11.218   8.149   8.499  0.3275  0.7642  0.2144
  968MOL0     H30637  11.185   7.978   8.448  0.1891  0.2474  0.5305
  968MOL0     H30638  11.123   8.038   8.233  0.7537  1.9892 -1.4490
  968MOL0     H30639  11.117   8.206   8.277 -3.6128  1.6126  1.4446
  968MOL0     H30640  10.985   8.289   8.172  0.9717 -3.2888 -0.1636
  968MOL0     H30641  10.830   8.439   8.136 -1.6305 -0.2776 -2.0010
  968MOL0     H30642  10.399   8.641   8.378 -0.7738 -0.2541  1.4127
  968MOL0     H30643  10.208   8.767   8.382 -1.0193 -1.3617  2.4515
  968MOL0     H30644   9.995   8.806   8.433  2.0946 -0.2259 -2.3721
  968MOL0     H30645   9.836   8.838   8.361  1.9582  1.0283 -2.1909
  968MOL0     H30646   9.926   8.597   8.508 -1.8021 -0.8512  1.8744
  968MOL0     H30647   9.790   8.701   8.537 -0.3348  1.1276 -1.0665
  968MOL0     H30648   9.677   8.625   8.325  1.2745 -0.0605 -1.9007
  968MOL0     H30649   9.801   8.511   8.305  1.3058  2.2528 -1.2499
  968MOL0     H30650   9.625   8.385   8.406  2.9085 -1.1811 -0.0050
  968MOL0     H30651   9.593   8.519   8.526 -0.1999 -0.6966  0.2378
  968MOL0     H30652   9.673   8.330   8.631 -1.1645  0.8500 -0.6847
  968MOL0     H30653   9.796   8.454   8.649  0.3386  2.2675 -2.0800
  968MOL0     H30654   9.814   8.268   8.412 -0.3700 -5.8800  1.6433
  968MOL0     H30655   9.943   8.366   8.496 -0.2434  0.5423  1.2542
  968MOL0     H30656   9.808   8.134   8.634  0.5781  2.1704  2.2779
  968MOL0     H30657   9.948   8.208   8.686 -1.6842 -1.1783  2.0964
  968MOL0     H30658   9.887   8.011   8.474 -1.2495  2.7596 -2.4741
  968MOL0     H30659  10.029   8.111   8.428 -0.9313 -2.1537 -1.1940
  968MOL0     H30660   9.999   8.475   8.134 -1.0285  1.5174  0.8907
  968MOL0     H30661  10.196   8.331   8.170 -0.8350  0.0375  0.1596
  968MOL0     H30662  10.554   8.236   8.415  1.4086 -3.0668  1.8969
  968MOL0     H30663  10.723   8.092   8.466  0.3434 -2.2248 -2.7727
  968MOL0     H30664  11.464   7.450   7.929 -1.4394  2.5476  0.4941
  968MOL0     H30665  11.242   7.526   7.837  2.4714  1.4342  1.0850
  968MOL0     H30666  10.843   7.596   7.870  2.6924 -1.5913 -0.4878
  968MOL0     H30667  10.634   7.679   7.780  0.2582 -0.0625  1.1126
  968MOL0     H30668  10.339   7.405   7.550  0.5362  0.4088 -0.4628
  968MOL0     H30669  10.461   7.483   7.449  0.3866  0.3140  0.5644
  968MOL0     H30670  10.322   7.691   7.445 -0.1664 -1.8645 -2.1805
  968MOL0     H30671  10.222   7.627   7.574 -1.6823 -1.1025 -0.3149
  968MOL0     H30672  10.123   7.452   7.446  1.2712 -1.4830 -0.8492
  968MOL0     H30673  10.237   7.482   7.308  1.2289  1.3771 -0.3088
  968MOL0     H30674  10.028   7.678   7.426  0.0168  1.3654 -0.7974
  968MOL0     H30675  10.135   7.702   7.279  2.7620  1.2878  2.3749
  968MOL0     H30676   9.773   7.462   7.214  0.4853  0.1612  0.5288
  968MOL0     H30677  10.548   7.299   7.613 -1.0554 -0.5385  1.0749
  968MOL0     H30678  10.751   7.103   7.758  3.0703 -0.5820 -0.2147
  968MOL0     H30679  10.666   7.132   7.608 -1.1889  2.0106 -0.6831
  968MOL0     H30680  10.843   7.143   7.614 -0.7722  0.3059 -1.0844
  969MOL0     O30681   1.043   5.292   7.127 -0.2911  0.1798  0.4437
  969MOL0     C30682   0.997   5.302   7.014 -0.2659 -0.2771  0.5183
  969MOL0     O30683   1.033   5.232   6.905 -0.5650  0.5161  0.7057
  969MOL0     C30684   1.140   5.148   6.918 -0.4901  0.4713  0.5753
  969MOL0     C30685   1.138   5.034   7.006  0.7311 -0.3082  0.2306
  969MOL0     C30686   1.248   4.954   7.015 -0.0870 -0.8292 -0.0629
  969MOL0     C30687   1.358   4.969   6.944 -0.1082  0.4824 -0.3967
  969MOL0     O30688   1.462   4.882   6.972  0.0733 -0.0531 -0.1469
  969MOL0     C30689   1.553   4.943   7.061 -0.7098  0.1083  0.1385
  969MOL0     C30690   1.618   4.839   7.146 -0.5608  0.6980 -0.2181
  969MOL0     C30691   1.743   4.791   7.074  0.5484  1.1840  1.4414
  969MOL0     C30692   1.852   4.718   7.161 -0.5863  0.2820 -0.5207
  969MOL0     C30693   1.969   4.699   7.070  0.2422  0.1118 -0.0046
  969MOL0     C30694   2.079   4.631   7.153  0.2124 -0.0402 -0.3666
  969MOL0     C30695   2.054   4.487   7.189 -0.3660 -0.5779  0.1357
  969MOL0     C30696   2.187   4.429   7.243  0.8136 -0.1425  0.3735
  969MOL0     N30697   2.206   4.472   7.377 -0.3815  0.1745  0.5132
  969MOL0     C30698   2.176   4.394   7.485 -0.2357 -1.1016  0.1442
  969MOL0     C30699   2.218   4.463   7.599  0.4208 -0.3131 -0.2466
  969MOL0     C30700   2.179   4.438   7.748 -0.6069  0.2231 -0.1089
  969MOL0     C30701   2.306   4.395   7.831  0.3045 -0.4605  0.3079
  969MOL0     C30702   2.437   4.478   7.831 -0.4097  0.5956  0.5644
  969MOL0     C30703   2.527   4.429   7.948 -0.4569  0.8933 -0.0079
  969MOL0     O30704   2.603   4.307   7.924 -0.1200  0.5442  0.1284
  969MOL0     C30705   2.647   4.226   8.027 -0.3131 -0.3605 -0.3441
  969MOL0     C30706   2.682   4.267   8.154  0.3326 -0.2191 -0.6351
  969MOL0     C30707   2.730   4.176   8.247 -0.8135  0.2842  0.1608
  969MOL0     C30708   2.763   4.045   8.212  0.5431  0.7996  0.3609
  969MOL0     C30709   2.825   3.959   8.318  0.1836  0.1447  0.5568
  969MOL0     O30710   2.839   3.824   8.285  0.1329  0.8658  0.0120
  969MOL0     C30711   2.953   3.760   8.331  0.3967 -0.9207  0.2776
  969MOL0     C30712   2.955   3.701   8.459  0.4635  0.6453 -0.3244
  969MOL0     C30713   3.073   3.639   8.506 -0.7812 -0.3814 -0.0734
  969MOL0     C30714   3.192   3.649   8.436  0.6933 -0.3609 -0.2784
  969MOL0     O30715   3.292   3.573   8.487  0.3436  0.1297 -0.4454
  969MOL0     C30716   3.330   3.475   8.387  0.3283 -0.0278 -0.2414
  969MOL0     C30717   3.436   3.374   8.429  0.4325  0.4593  0.1465
  969MOL0     C30718   3.393   3.274   8.529  0.2085 -0.5879  0.0526
  969MOL0     C30719   3.489   3.156   8.544  0.6339 -0.3812  0.0333
  969MOL0     C30720   3.631   3.185   8.573 -0.8062 -0.4493  0.5533
  969MOL0     C30721   3.702   3.065   8.626 -0.1151  0.5606 -0.6017
  969MOL0     C30722   3.852   3.089   8.630  0.6583 -0.4501 -1.0110
  969MOL0     C30723   3.912   2.956   8.654 -1.2741  0.2604  0.2890
  969MOL0    Cl30724   4.088   2.967   8.676 -0.2217  0.4523  0.4954
  969MOL0     C30725   3.184   3.720   8.308  0.3504 -0.1236 -1.1269
  969MOL0     C30726   3.070   3.778   8.254  0.0326 -0.1008  0.4455
  969MOL0     O30727   2.874   4.013   8.421  0.8564  0.5780 -0.2618
  969MOL0     C30728   2.728   4.002   8.086  0.4306  0.6870 -0.0572
  969MOL0     C30729   2.679   4.094   8.000  0.2260 -0.0343  0.0143
  969MOL0     N30730   2.293   4.570   7.552  0.5352  0.1707 -0.0120
  969MOL0     N30731   2.286   4.571   7.420 -0.5280  0.3353 -0.0212
  969MOL0     C30732   1.371   5.082   6.864 -0.1318 -0.3342  0.2828
  969MOL0     C30733   1.258   5.171   6.841  0.1460 -0.4090 -1.0077
  969MOL0     C30734   0.876   5.378   6.987  0.3853  1.1086  0.6020
  969MOL0     C30735   0.794   5.395   7.102 -0.3734 -0.1498 -0.0521
  969MOL0     C30736   0.663   5.441   7.096  0.4627 -0.2615  0.2260
  969MOL0     C30737   0.612   5.483   6.976  0.8536 -0.3711 -0.8043
  969MOL0     O30738   0.489   5.549   6.965  0.8363 -0.0131 -1.0357
  969MOL0     C30739   0.415   5.577   7.090 -0.4163 -0.3475  0.5669
  969MOL0     C30740   0.263   5.582   7.064  0.4179 -0.1720  0.1928
  969MOL0     C30741   0.180   5.634   7.183 -0.1638  0.2350 -0.0336
  969MOL0     C30742   0.043   5.648   7.132  0.2381  0.4046  0.0836
  969MOL0     C30743  -0.046   5.537   7.148 -0.0922  0.0909  0.2543
  969MOL0     C30744  -0.112   5.438   7.167  0.1410 -0.1481 -0.0809
  969MOL0     C30745   0.689   5.471   6.857 -0.6043 -0.0931 -0.2621
  969MOL0     C30746   0.820   5.427   6.862 -0.2328  0.2490  0.5426
  969MOL0     C30747   0.897   5.411   6.726  0.5284 -0.3266 -0.0329
  969MOL0     H30748   1.050   5.023   7.069 -0.6931  0.4838 -1.5305
  969MOL0     H30749   1.233   4.865   7.076 -3.2385 -0.4667 -0.1449
  969MOL0     H30750   1.623   5.002   7.002 -1.6480  1.0229 -0.0916
  969MOL0     H30751   1.503   4.996   7.143 -0.4845 -1.3928  1.2965
  969MOL0     H30752   1.546   4.758   7.161 -0.1959  0.0422 -1.7595
  969MOL0     H30753   1.656   4.869   7.244  0.6470  0.4363 -0.5879
  969MOL0     H30754   1.789   4.865   7.009 -1.8720 -0.7609 -2.9880
  969MOL0     H30755   1.717   4.715   6.999  0.9370  0.0305  2.4338
  969MOL0     H30756   1.872   4.773   7.254  0.4387 -0.6990 -0.1384
  969MOL0     H30757   1.803   4.624   7.190 -1.8838  0.6496 -1.4243
  969MOL0     H30758   1.942   4.631   6.989  2.7925  0.4930 -1.2780
  969MOL0     H30759   2.007   4.794   7.032 -2.0531  0.0806 -2.7143
  969MOL0     H30760   2.176   4.631   7.102  1.4120 -2.5236  1.6564
  969MOL0     H30761   2.102   4.699   7.236  0.6506  1.7904 -1.9034
  969MOL0     H30762   2.012   4.440   7.100 -1.2809  3.1154 -1.5702
  969MOL0     H30763   1.983   4.473   7.271  0.8753 -1.8375  1.0578
  969MOL0     H30764   2.172   4.320   7.243 -0.7774  0.0466  0.4522
  969MOL0     H30765   2.275   4.452   7.183  0.2736 -1.2620 -0.8891
  969MOL0     H30766   2.122   4.299   7.476  0.1616 -1.3777  0.6442
  969MOL0     H30767   2.135   4.524   7.800 -0.8985 -1.2207  2.1747
  969MOL0     H30768   2.109   4.355   7.757  1.9127 -1.8181  2.3918
  969MOL0     H30769   2.275   4.386   7.935  0.0613  2.1331  0.5301
  969MOL0     H30770   2.332   4.293   7.802 -0.4576 -0.5057 -0.2717
  969MOL0     H30771   2.407   4.583   7.835 -0.9561  0.4742 -0.0923
  969MOL0     H30772   2.483   4.467   7.731 -1.4720  1.2994 -0.0123
  969MOL0     H30773   2.465   4.409   8.036  1.1967 -1.7501  0.6480
  969MOL0     H30774   2.599   4.508   7.970  2.0579 -1.2997  0.1017
  969MOL0     H30775   2.675   4.371   8.185 -1.8514  1.2849 -5.2976
  969MOL0     H30776   2.768   4.206   8.343  2.1886  0.2437 -0.9256
  969MOL0     H30777   2.866   3.680   8.516 -1.2957 -0.2090 -3.1861
  969MOL0     H30778   3.074   3.596   8.606  1.2248 -0.7840 -0.2131
  969MOL0     H30779   3.238   3.425   8.355 -0.7744  1.6732  0.0977
  969MOL0     H30780   3.373   3.523   8.299 -0.6460 -1.8164 -1.7663
  969MOL0     H30781   3.456   3.326   8.334  1.4898  1.7688 -0.3187
  969MOL0     H30782   3.523   3.427   8.469  1.4312 -1.3931  0.5074
  969MOL0     H30783   3.399   3.318   8.629  3.0024 -1.4961  0.3584
  969MOL0     H30784   3.289   3.244   8.509  0.0336 -0.7187  1.0639
  969MOL0     H30785   3.480   3.087   8.459  0.4451 -0.0200 -0.2459
  969MOL0     H30786   3.445   3.099   8.626 -0.9984  0.4279 -0.2371
  969MOL0     H30787   3.640   3.261   8.651  1.0181  1.9974 -1.8588
  969MOL0     H30788   3.676   3.230   8.484 -2.1250 -0.7085 -0.2717
  969MOL0     H30789   3.663   3.033   8.723  0.7676  0.5550 -0.2420
  969MOL0     H30790   3.699   2.977   8.561  1.5610  1.6048 -2.2226
  969MOL0     H30791   3.869   3.165   8.707 -0.2919 -1.3299  0.0887
  969MOL0     H30792   3.882   3.126   8.531 -0.7045  2.3275 -0.4855
  969MOL0     H30793   3.876   2.900   8.741  2.8422 -2.6986  0.3517
  969MOL0     H30794   3.893   2.889   8.569 -0.5091 -3.0520  2.5163
  969MOL0     H30795   3.283   3.728   8.264  1.1105 -0.3976  0.4404
  969MOL0     H30796   3.069   3.822   8.155  1.5732 -2.5156 -0.7311
  969MOL0     H30797   2.747   3.906   8.040 -2.1464  1.0598 -2.2117
  969MOL0     H30798   2.648   4.065   7.900  2.8361 -2.1298 -0.2757
  969MOL0     H30799   1.463   5.107   6.812 -0.4246 -1.4539 -0.7993
  969MOL0     H30800   1.269   5.246   6.763 -0.5387 -0.0063 -0.7210
  969MOL0     H30801   0.822   5.367   7.203 -0.1859  0.8234  0.1717
  969MOL0     H30802   0.610   5.458   7.189 -0.1037  1.6373 -0.4049
  969MOL0     H30803   0.450   5.672   7.130  0.0652 -0.0818 -0.4600
  969MOL0     H30804   0.417   5.502   7.170 -2.4220 -0.2122  0.7987
  969MOL0     H30805   0.225   5.480   7.055  1.8905 -0.6915 -0.4327
  969MOL0     H30806   0.247   5.629   6.966  1.4011 -1.1343 -0.4586
  969MOL0     H30807   0.219   5.733   7.207  4.7266 -0.9157 -2.0233
  969MOL0     H30808   0.185   5.572   7.274 -0.2057  0.0999 -0.1229
  969MOL0     H30809  -0.006   5.726   7.192 -2.1675  0.3726 -1.7054
  969MOL0     H30810   0.039   5.678   7.027 -2.1711 -1.6110 -0.5033
  969MOL0     H30811  -0.158   5.342   7.178 -0.4351 -0.4818 -3.9859
  969MOL0     H30812   0.653   5.512   6.763  0.2032 -0.8618 -0.9168
  969MOL0     H30813   1.003   5.388   6.737  0.6708  0.6446  0.8006
  969MOL0     H30814   0.849   5.346   6.652  2.2460 -1.1809 -0.4314
  969MOL0     H30815   0.889   5.506   6.674 -0.1643 -0.8434 -0.8998
  970MOL0     O30816   5.229   2.365   2.902 -0.1926 -0.9101 -0.1621
  970MOL0     C30817   5.147   2.325   2.977  1.0614  0.3153 -0.1085
  970MOL0     O30818   5.178   2.295   3.108  0.2837  0.8251 -0.3250
  970MOL0     C30819   5.299   2.312   3.162  0.7612  0.1311  1.1741
  970MOL0     C30820   5.377   2.430   3.144  0.3193 -0.5512 -0.0397
  970MOL0     C30821   5.509   2.432   3.203  0.2890  0.5309  0.3682
  970MOL0     C30822   5.555   2.320   3.274 -0.1099  0.8879 -0.6518
  970MOL0     O30823   5.684   2.316   3.317  0.0544 -0.7337  0.7946
  970MOL0     C30824   5.753   2.184   3.311  0.5524 -0.6931  0.2830
  970MOL0     C30825   5.878   2.203   3.228 -0.6497 -0.2185 -0.0731
  970MOL0     C30826   5.977   2.299   3.294 -0.4087  1.1831 -0.0732
  970MOL0     C30827   6.107   2.333   3.209 -0.4811 -0.5334 -0.3513
  970MOL0     C30828   6.219   2.375   3.308  0.2519  0.4418 -0.7055
  970MOL0     C30829   6.361   2.390   3.241  0.5221  0.3045 -0.9738
  970MOL0     C30830   6.465   2.416   3.342 -0.0280 -0.0863  0.8858
  970MOL0     C30831   6.608   2.436   3.292 -0.4094 -0.2371 -0.4190
  970MOL0     N30832   6.683   2.310   3.251 -0.2879  0.2839  0.1776
  970MOL0     C30833   6.740   2.225   3.335 -1.1084 -0.4105 -0.2195
  970MOL0     C30834   6.833   2.161   3.257 -0.6510 -0.1159 -1.5501
  970MOL0     C30835   6.935   2.065   3.314  0.7455  0.6814  1.3252
  970MOL0     C30836   7.048   2.139   3.369  0.0863 -0.7427  0.4832
  970MOL0     C30837   7.121   2.058   3.472 -0.0011  0.6274  0.2380
  970MOL0     C30838   7.248   2.123   3.519 -0.7778  0.2927 -0.3816
  970MOL0     O30839   7.333   2.020   3.573  0.3804 -0.0320  0.4997
  970MOL0     C30840   7.468   2.032   3.572  0.0129  0.5948 -0.0506
  970MOL0     C30841   7.541   1.918   3.537  0.6418 -0.3364  0.2502
  970MOL0     C30842   7.677   1.924   3.516  0.6770  0.6160  1.1948
  970MOL0     C30843   7.746   2.044   3.525  0.7723 -0.1749 -0.4527
  970MOL0     C30844   7.896   2.043   3.504  0.0593  0.1466 -0.2807
  970MOL0     O30845   7.964   2.148   3.558  0.4733 -0.3181  0.2741
  970MOL0     C30846   8.100   2.156   3.557  0.4613 -0.4356 -0.1107
  970MOL0     C30847   8.146   2.292   3.571  0.4098  0.9151  0.6485
  970MOL0     C30848   8.279   2.333   3.563  0.3314 -0.1645 -0.8331
  970MOL0     C30849   8.374   2.234   3.547 -0.1863 -0.2540  0.6381
  970MOL0     O30850   8.513   2.266   3.564  0.0712 -0.4544  1.3364
  970MOL0     C30851   8.566   2.404   3.551 -0.1235  0.4854 -1.3964
  970MOL0     C30852   8.582   2.451   3.409 -0.0512  0.3965  0.7615
  970MOL0     C30853   8.640   2.586   3.388 -0.6537 -0.2797  0.1831
  970MOL0     C30854   8.782   2.589   3.445 -0.5559  0.4752 -1.1002
  970MOL0     C30855   8.863   2.702   3.387 -0.2097  0.3715  0.4977
  970MOL0     C30856   9.008   2.703   3.442 -0.9868 -0.3062  0.4861
  970MOL0     C30857   9.109   2.780   3.359 -0.1720 -0.5350  0.6382
  970MOL0     C30858   9.255   2.794   3.402  0.4948 -0.4603  0.0251
  970MOL0    Cl30859   9.280   2.926   3.507 -0.0797 -0.0161  0.3896
  970MOL0     C30860   8.336   2.101   3.541 -0.0621  0.8383  0.1182
  970MOL0     C30861   8.199   2.062   3.548 -0.3956  0.0694  0.0158
  970MOL0     O30862   7.949   1.960   3.427  0.0935 -0.5296 -0.2792
  970MOL0     C30863   7.674   2.155   3.567  0.5674  0.2738  0.3426
  970MOL0     C30864   7.529   2.155   3.588 -0.0388 -0.2426  0.6496
  970MOL0     N30865   6.820   2.212   3.127  0.7845 -0.0378 -0.1173
  970MOL0     N30866   6.729   2.300   3.120 -0.5479 -0.7988  0.7339
  970MOL0     C30867   5.475   2.212   3.300 -0.2994  0.3450 -0.4105
  970MOL0     C30868   5.343   2.207   3.249 -0.2568  0.4593  0.0411
  970MOL0     C30869   5.006   2.314   2.932  0.8211  0.0691 -0.2907
  970MOL0     C30870   4.918   2.220   2.994  0.4766  0.6440  1.1791
  970MOL0     C30871   4.785   2.203   2.962 -0.9356 -0.7978 -0.1425
  970MOL0     C30872   4.731   2.283   2.869  0.5776  0.2888  0.4579
  970MOL0     O30873   4.597   2.280   2.860  0.5574 -0.2989  0.0910
  970MOL0     C30874   4.507   2.337   2.756  0.3798 -1.0158 -0.6766
  970MOL0     C30875   4.368   2.266   2.763  0.2540  0.1667  0.0474
  970MOL0     C30876   4.282   2.289   2.635  0.3826  0.8450 -0.1815
  970MOL0     C30877   4.190   2.406   2.657 -1.1343 -0.3256  0.3985
  970MOL0     C30878   4.106   2.435   2.545 -0.9098  0.4688 -0.3690
  970MOL0     C30879   4.021   2.444   2.459 -1.3388 -0.2217 -0.0509
  970MOL0     C30880   4.804   2.377   2.800  0.7991  0.1031  0.0642
  970MOL0     C30881   4.941   2.396   2.834  0.0223 -0.8238  0.0618
  970MOL0     C30882   5.009   2.521   2.770 -0.6070 -0.4150 -0.8304
  970MOL0     H30883   5.351   2.520   3.088  1.2223  0.0115  0.4172
  970MOL0     H30884   5.577   2.513   3.179  0.4530  0.8387  1.7685
  970MOL0     H30885   5.776   2.154   3.414  0.8778  1.8795  1.0278
  970MOL0     H30886   5.701   2.100   3.265  1.2908 -0.8351 -0.3196
  970MOL0     H30887   5.845   2.231   3.127 -0.9750 -2.3841 -0.6119
  970MOL0     H30888   5.940   2.115   3.213  3.4123  2.3747 -0.0094
  970MOL0     H30889   6.008   2.266   3.393 -1.0938 -0.8372 -0.4696
  970MOL0     H30890   5.933   2.398   3.307  2.6541  2.8498 -1.2284
  970MOL0     H30891   6.137   2.240   3.159 -2.3973  0.9405 -4.6867
  970MOL0     H30892   6.088   2.412   3.137  2.3947  0.3026 -0.3231
  970MOL0     H30893   6.192   2.471   3.352 -0.5441 -0.1490  0.1340
  970MOL0     H30894   6.237   2.309   3.394 -3.1956  1.7098  1.2072
  970MOL0     H30895   6.367   2.297   3.184 -2.2034 -1.4924  1.3800
  970MOL0     H30896   6.367   2.475   3.173  1.1831  0.7967 -0.3137
  970MOL0     H30897   6.475   2.339   3.420  3.6143  0.8810  1.5778
  970MOL0     H30898   6.438   2.511   3.390  1.7266 -0.4455  2.7725
  970MOL0     H30899   6.603   2.505   3.208  3.5050  0.6852 -0.0813
  970MOL0     H30900   6.667   2.483   3.372  0.8802  0.4326 -1.7137
  970MOL0     H30901   6.743   2.213   3.443  1.6178 -3.5601 -0.4666
  970MOL0     H30902   6.892   2.008   3.397 -1.3285  1.3780  0.7919
  970MOL0     H30903   6.965   2.010   3.224 -3.8981 -1.5445  0.8479
  970MOL0     H30904   7.109   2.170   3.283  0.5595 -3.5418 -0.3111
  970MOL0     H30905   7.021   2.231   3.420  0.2091 -0.3307 -0.1842
  970MOL0     H30906   7.141   1.955   3.444 -0.3684 -0.4085  3.3380
  970MOL0     H30907   7.066   2.045   3.566  1.1587 -0.2556  0.8244
  970MOL0     H30908   7.228   2.205   3.589 -1.9030 -1.5096  1.5165
  970MOL0     H30909   7.297   2.162   3.429  1.8291  0.8973  1.1668
  970MOL0     H30910   7.477   1.832   3.516  0.8929 -0.4409 -0.0979
  970MOL0     H30911   7.733   1.842   3.475  1.1622  2.2759 -1.6900
  970MOL0     H30912   8.069   2.367   3.591 -0.4231 -0.3236  2.3297
  970MOL0     H30913   8.304   2.436   3.584 -0.1187 -0.4955  1.5880
  970MOL0     H30914   8.507   2.477   3.608  0.2865 -0.3943  0.2319
  970MOL0     H30915   8.658   2.400   3.609  0.4180 -1.8657 -2.2879
  970MOL0     H30916   8.642   2.378   3.354 -1.3984 -2.2658  2.6343
  970MOL0     H30917   8.484   2.432   3.364 -0.6595  1.3784  1.6212
  970MOL0     H30918   8.635   2.607   3.280  0.9683  3.7502  0.7178
  970MOL0     H30919   8.577   2.663   3.434  1.6894  0.3181  2.6037
  970MOL0     H30920   8.828   2.495   3.412 -2.9756 -0.1044 -3.1854
  970MOL0     H30921   8.781   2.596   3.554 -0.6268 -0.6561 -1.0173
  970MOL0     H30922   8.808   2.794   3.410 -1.0952 -0.4857  1.9140
  970MOL0     H30923   8.868   2.682   3.280 -1.1328 -3.0002  0.9620
  970MOL0     H30924   9.010   2.746   3.542 -0.1859  0.4026  0.1799
  970MOL0     H30925   9.047   2.601   3.449  1.6149  0.4913 -0.6996
  970MOL0     H30926   9.076   2.884   3.357  3.2977  0.7405  1.5644
  970MOL0     H30927   9.106   2.735   3.260  0.1538  1.7976 -0.4828
  970MOL0     H30928   9.283   2.702   3.455 -0.8948  0.6023  2.8376
  970MOL0     H30929   9.319   2.809   3.315 -2.0116  0.5131 -1.7613
  970MOL0     H30930   8.419   2.030   3.540 -1.1105 -0.4858  2.1886
  970MOL0     H30931   8.161   1.960   3.543 -2.8612  0.9805 -2.6114
  970MOL0     H30932   7.725   2.250   3.576 -0.3613  0.9424 -1.0371
  970MOL0     H30933   7.473   2.241   3.622  0.6052  0.3209  0.3049
  970MOL0     H30934   5.511   2.132   3.363  0.7643  0.4258 -0.8920
  970MOL0     H30935   5.288   2.118   3.278  1.6239 -1.3185 -1.5854
  970MOL0     H30936   4.962   2.174   3.082 -0.6443 -0.9869  0.9383
  970MOL0     H30937   4.724   2.135   3.021 -0.6938  0.9437  2.2671
  970MOL0     H30938   4.553   2.313   2.660  1.1181  1.4724 -1.0212
  970MOL0     H30939   4.485   2.442   2.779 -0.5191 -1.6522  1.7477
  970MOL0     H30940   4.309   2.288   2.854  2.2483  0.9037  1.2259
  970MOL0     H30941   4.384   2.159   2.778  1.2148  0.1510 -1.0310
  970MOL0     H30942   4.218   2.201   2.618 -0.2044  0.8997  1.5576
  970MOL0     H30943   4.344   2.300   2.546  0.5850 -0.4342 -0.2157
  970MOL0     H30944   4.125   2.415   2.745 -2.5343 -0.4866 -0.5919
  970MOL0     H30945   4.265   2.484   2.666 -0.5290 -0.6378 -1.4931
  970MOL0     H30946   3.940   2.441   2.389 -2.3194  1.8601  0.9036
  970MOL0     H30947   4.761   2.431   2.716  1.1248  1.2528  0.6245
  970MOL0     H30948   5.062   2.573   2.850  1.1589 -0.7114 -1.7624
  970MOL0     H30949   5.089   2.500   2.697  4.1545  0.0901  3.6552
  970MOL0     H30950   4.938   2.596   2.733 -0.6626 -0.7370 -1.3864
  971MOL0     O30951   4.818   3.476   3.283 -0.4201 -1.1223  0.3262
  971MOL0     C30952   4.823   3.451   3.164 -0.5734  0.3897 -0.1782
  971MOL0     O30953   4.935   3.450   3.085 -0.2778  0.0737 -0.2070
  971MOL0     C30954   5.074   3.464   3.130  0.2718 -0.0649 -1.0343
  971MOL0     C30955   5.154   3.551   3.061  0.5087 -0.5139  0.2418
  971MOL0     C30956   5.282   3.585   3.108 -0.1729 -0.0415 -0.1808
  971MOL0     C30957   5.336   3.518   3.215 -0.1490 -0.0615 -0.0260
  971MOL0     O30958   5.462   3.556   3.244  1.3338 -0.1340 -0.2273
  971MOL0     C30959   5.517   3.524   3.376  0.1889  0.4766 -0.0303
  971MOL0     C30960   5.638   3.613   3.398 -0.7832  0.2086  0.5573
  971MOL0     C30961   5.731   3.623   3.273 -0.4925  0.3373  0.7784
  971MOL0     C30962   5.866   3.671   3.325 -0.7338  0.3524  0.9019
  971MOL0     C30963   5.971   3.680   3.210  0.0212 -0.5954  0.0179
  971MOL0     C30964   6.107   3.737   3.250 -0.3139  0.4834  0.4200
  971MOL0     C30965   6.216   3.730   3.138 -0.4361 -0.5758 -0.6917
  971MOL0     C30966   6.333   3.824   3.168 -0.1898 -0.4209 -0.0915
  971MOL0     N30967   6.444   3.800   3.077  0.2770 -0.3817 -0.6025
  971MOL0     C30968   6.539   3.704   3.094 -0.0381  0.3141  0.3479
  971MOL0     C30969   6.630   3.738   2.999  1.0102  0.1055  0.5076
  971MOL0     C30970   6.757   3.666   2.974 -0.9611  0.3651 -0.6470
  971MOL0     C30971   6.753   3.594   2.844  0.2597 -0.4351  0.3135
  971MOL0     C30972   6.888   3.554   2.801 -0.4299 -1.2381  0.3509
  971MOL0     C30973   6.956   3.451   2.888  0.2954  1.0095 -0.2752
  971MOL0     O30974   7.018   3.504   3.008  0.2422  0.8556 -0.3708
  971MOL0     C30975   7.128   3.579   2.998  0.0589 -0.4070  0.0671
  971MOL0     C30976   7.196   3.594   2.879  1.2697  0.8723  1.0407
  971MOL0     C30977   7.309   3.672   2.875 -0.7527  0.2795 -0.3522
  971MOL0     C30978   7.363   3.739   2.988 -0.4470  0.3958  0.7707
  971MOL0     C30979   7.486   3.827   2.979 -0.1209  0.8019 -0.3243
  971MOL0     O30980   7.527   3.860   2.855 -0.8525  0.0929  0.7751
  971MOL0     C30981   7.647   3.925   2.829  0.9759 -0.8902  0.2349
  971MOL0     C30982   7.664   3.977   2.705  0.4443 -0.3356 -0.4062
  971MOL0     C30983   7.785   4.028   2.655 -1.0798 -0.5923  0.1057
  971MOL0     C30984   7.889   4.030   2.744  0.3423  0.9030  0.7080
  971MOL0     O30985   8.010   4.064   2.683  0.4192 -0.5095  0.4784
  971MOL0     C30986   8.105   4.152   2.748 -0.1642  0.1612  0.0028
  971MOL0     C30987   8.095   4.287   2.675  1.3354 -1.0952 -0.3448
  971MOL0     C30988   8.192   4.308   2.560  1.3595  1.6238 -0.4836
  971MOL0     C30989   8.332   4.309   2.623 -0.4454 -0.7865  0.2836
  971MOL0     C30990   8.428   4.413   2.563 -0.3162 -0.3428  0.4998
  971MOL0     C30991   8.579   4.363   2.564  0.2698  0.3155  0.0782
  971MOL0     C30992   8.676   4.456   2.477 -0.3930  0.8723 -0.4531
  971MOL0     C30993   8.819   4.445   2.519 -0.4009  0.0130 -0.2763
  971MOL0    Cl30994   8.931   4.503   2.395  0.2482 -0.0898 -0.1803
  971MOL0     C30995   7.882   3.969   2.868  0.6617 -0.3640 -0.4126
  971MOL0     C30996   7.755   3.928   2.913  0.2896 -0.5271  0.0547
  971MOL0     O30997   7.513   3.885   3.084  0.0730 -0.3576  0.5226
  971MOL0     C30998   7.302   3.705   3.106  0.0349 -1.3606  0.0885
  971MOL0     C30999   7.192   3.625   3.110  0.1753  0.9128  0.2882
  971MOL0     N31000   6.595   3.853   2.936 -0.5745 -0.3919  0.6263
  971MOL0     N31001   6.489   3.897   2.993  0.4151  0.6278  0.2307
  971MOL0     C31002   5.257   3.420   3.281 -0.5088  0.0417 -0.2110
  971MOL0     C31003   5.124   3.394   3.241  0.7483  0.4536 -0.4200
  971MOL0     C31004   4.696   3.438   3.088  0.5754  0.2530  0.6746
  971MOL0     C31005   4.699   3.429   2.941  0.0617  0.6645  0.4334
  971MOL0     C31006   4.581   3.404   2.863 -0.3906 -0.2635 -0.6920
  971MOL0     C31007   4.457   3.400   2.920  0.0547  0.8816  0.8496
  971MOL0     O31008   4.352   3.382   2.835  0.0507  0.3705 -0.0244
  971MOL0     C31009   4.225   3.388   2.887  0.0523 -0.3312 -0.0589
  971MOL0     C31010   4.186   3.527   2.931 -0.4266  1.1692 -0.0470
  971MOL0     C31011   4.090   3.595   2.839  0.2959 -0.3511 -0.0724
  971MOL0     C31012   3.949   3.552   2.884 -0.0408 -0.0945  0.2375
  971MOL0     C31013   3.842   3.617   2.817 -0.3177 -0.8716  0.3829
  971MOL0     C31014   3.746   3.660   2.764  0.3970 -1.0407 -0.4873
  971MOL0     C31015   4.447   3.415   3.063 -0.4086 -0.1239 -0.6504
  971MOL0     C31016   4.558   3.428   3.145 -1.2683  0.0934  0.5614
  971MOL0     C31017   4.533   3.429   3.296  0.2613 -0.1741 -0.6286
  971MOL0     H31018   5.105   3.617   2.991  2.1868  0.8128  0.2504
  971MOL0     H31019   5.340   3.671   3.074 -0.2697  0.3690  0.6620
  971MOL0     H31020   5.452   3.560   3.457  2.2887  2.0206  1.0729
  971MOL0     H31021   5.543   3.418   3.382 -1.1632 -0.3950 -4.9805
  971MOL0     H31022   5.682   3.567   3.487 -0.0635 -3.0860 -1.3424
  971MOL0     H31023   5.617   3.718   3.421 -1.1533  0.8965 -2.4689
  971MOL0     H31024   5.708   3.703   3.202  3.9670  0.2233 -1.1010
  971MOL0     H31025   5.739   3.526   3.224  0.5803  1.0375 -0.4976
  971MOL0     H31026   5.848   3.772   3.363  1.2005  1.2142 -0.2738
  971MOL0     H31027   5.909   3.598   3.395  1.1234  1.8823  1.4349
  971MOL0     H31028   5.980   3.583   3.160 -0.8175  0.3135 -2.0035
  971MOL0     H31029   5.940   3.747   3.129  1.4826 -1.2430 -1.1167
  971MOL0     H31030   6.088   3.841   3.282  1.6428  1.1004 -0.3080
  971MOL0     H31031   6.149   3.676   3.330  1.0935 -1.8161 -1.9291
  971MOL0     H31032   6.188   3.772   3.041  2.4722  0.9498 -0.9627
  971MOL0     H31033   6.242   3.626   3.115  0.1477 -0.5369 -0.2105
  971MOL0     H31034   6.311   3.930   3.181  0.6879 -0.0852 -1.2336
  971MOL0     H31035   6.364   3.794   3.268  1.0257  1.0330  0.0016
  971MOL0     H31036   6.535   3.619   3.162 -2.7756  0.4181  0.4119
  971MOL0     H31037   6.834   3.743   2.987  0.1294 -0.8025  0.0029
  971MOL0     H31038   6.763   3.594   3.056  0.8461 -0.0195 -1.0759
  971MOL0     H31039   6.681   3.512   2.845 -1.6858  1.2104  0.2798
  971MOL0     H31040   6.707   3.666   2.775 -1.7571 -0.7978  1.2171
  971MOL0     H31041   6.945   3.647   2.800  2.1106 -2.7015  0.6075
  971MOL0     H31042   6.877   3.516   2.699 -0.3353 -1.9710  0.6056
  971MOL0     H31043   7.020   3.392   2.822 -1.1800  1.2992 -2.0402
  971MOL0     H31044   6.876   3.395   2.937  1.2661  1.6119  2.1696
  971MOL0     H31045   7.160   3.543   2.790 -0.8616  2.9014  0.6065
  971MOL0     H31046   7.361   3.688   2.781  0.1066 -0.0893  0.0497
  971MOL0     H31047   7.583   3.977   2.632  0.4831 -2.7880 -0.5352
  971MOL0     H31048   7.793   4.062   2.553 -0.9008 -1.4187 -0.1640
  971MOL0     H31049   8.091   4.165   2.856 -2.0648 -1.3918 -0.0087
  971MOL0     H31050   8.206   4.113   2.733  0.6274  2.2880 -0.5822
  971MOL0     H31051   7.991   4.283   2.642  1.3423 -1.0091 -0.3779
  971MOL0     H31052   8.105   4.371   2.744  0.7818 -1.2944 -0.0144
  971MOL0     H31053   8.172   4.225   2.491 -0.6584  0.9128  0.8710
  971MOL0     H31054   8.177   4.401   2.506 -2.3931  0.4514 -1.7935
  971MOL0     H31055   8.378   4.210   2.618  1.2583 -0.1485  2.3009
  971MOL0     H31056   8.332   4.332   2.730  3.3022 -0.7001  0.3897
  971MOL0     H31057   8.421   4.514   2.604 -1.9018 -0.5602  0.8265
  971MOL0     H31058   8.400   4.423   2.458  0.3599 -2.8016  0.0339
  971MOL0     H31059   8.600   4.375   2.671 -1.2175 -3.1493  0.8948
  971MOL0     H31060   8.587   4.258   2.534 -2.4237  0.8501 -3.0617
  971MOL0     H31061   8.652   4.560   2.498  1.9401  1.4192 -0.2524
  971MOL0     H31062   8.670   4.436   2.369 -0.1984 -2.6138  0.0747
  971MOL0     H31063   8.830   4.508   2.608 -2.8884  0.5932 -0.2914
  971MOL0     H31064   8.828   4.340   2.549 -4.0376 -1.3162 -3.0684
  971MOL0     H31065   7.973   3.962   2.927 -0.8977 -0.1685  2.1773
  971MOL0     H31066   7.755   3.888   3.014 -1.4517  2.5904  1.4543
  971MOL0     H31067   7.321   3.753   3.202  0.0362  2.3455 -1.6107
  971MOL0     H31068   7.136   3.626   3.203  1.1446 -2.0879  1.0151
  971MOL0     H31069   5.308   3.358   3.354  0.4794  2.4129  1.2061
  971MOL0     H31070   5.059   3.322   3.289  4.7009 -2.1617  1.5341
  971MOL0     H31071   4.797   3.438   2.894 -0.1919  0.3488 -0.1544
  971MOL0     H31072   4.591   3.383   2.757 -0.4215  0.0797 -0.7629
  971MOL0     H31073   4.216   3.322   2.973  0.0290  2.5411  2.3001
  971MOL0     H31074   4.154   3.346   2.815  0.1024 -2.1878  0.9251
  971MOL0     H31075   4.269   3.597   2.941 -2.6218  4.0574 -0.6758
  971MOL0     H31076   4.138   3.521   3.029 -1.4008  1.0695 -0.5137
  971MOL0     H31077   4.108   3.580   2.732  1.5020  0.6683 -0.0413
  971MOL0     H31078   4.084   3.704   2.848 -1.6876 -0.4430  0.1156
  971MOL0     H31079   3.934   3.446   2.864  0.4445 -0.0074 -0.6673
  971MOL0     H31080   3.946   3.574   2.991  3.1358  1.4376  0.1531
  971MOL0     H31081   3.665   3.712   2.717  0.8922 -0.6643 -0.9395
  971MOL0     H31082   4.356   3.416   3.123 -1.8382  0.2826 -2.7166
  971MOL0     H31083   4.555   3.527   3.342  0.3004 -0.0875 -0.8315
  971MOL0     H31084   4.429   3.409   3.324  0.1029  3.9887  2.8933
  971MOL0     H31085   4.597   3.355   3.344  1.3374 -1.0791 -3.2832
  972MOL0     O31086  10.315  10.195   1.252  0.7956  0.1766  0.9808
  972MOL0     C31087  10.299  10.099   1.183  0.6147  0.2128 -0.2705
  972MOL0     O31088  10.394  10.028   1.122 -1.0906 -0.0931  0.7109
  972MOL0     C31089  10.519  10.084   1.119 -0.4463 -0.0415 -0.7676
  972MOL0     C31090  10.577  10.108   0.995  0.0614 -0.6266  0.1164
  972MOL0     C31091  10.713  10.141   0.985  0.3454 -0.4886 -0.3502
  972MOL0     C31092  10.796  10.146   1.097  0.2678 -0.3326 -0.2508
  972MOL0     O31093  10.935  10.169   1.069 -0.0206  0.5819 -0.4734
  972MOL0     C31094  11.014  10.191   1.193  0.1824 -0.4888  0.3027
  972MOL0     C31095  11.159  10.214   1.155  0.0414  0.1551  0.0595
  972MOL0     C31096  11.180  10.367   1.136  1.3736 -0.7957 -0.1153
  972MOL0     C31097  11.324  10.402   1.102 -0.6484  0.5981 -0.1888
  972MOL0     C31098  11.368  10.542   1.107  0.5396 -0.6518 -0.7257
  972MOL0     C31099  11.523  10.559   1.097 -0.8664 -0.2905 -0.4097
  972MOL0     C31100  11.612  10.507   1.216 -0.6734 -0.7418  0.0629
  972MOL0     C31101  11.567  10.545   1.354  0.6239  0.4575  0.3337
  972MOL0     N31102  11.466  10.452   1.410  0.2393 -0.1100 -0.1192
  972MOL0     C31103  11.474  10.316   1.418 -0.9314 -0.0237  0.4818
  972MOL0     C31104  11.353  10.279   1.464  0.6516  0.4485  0.6138
  972MOL0     C31105  11.292  10.157   1.496 -0.1631  0.1965 -0.1362
  972MOL0     C31106  11.370  10.031   1.449  0.1662 -0.0025 -0.4947
  972MOL0     C31107  11.317   9.896   1.512 -0.5954 -0.6238  0.0459
  972MOL0     C31108  11.364   9.771   1.437  0.3101 -0.5321  0.3813
  972MOL0     O31109  11.484   9.783   1.352  0.1491 -0.3412 -0.1346
  972MOL0     C31110  11.612   9.804   1.400 -0.4329  0.4697  0.9412
  972MOL0     C31111  11.718   9.857   1.317  0.0203  0.4311 -0.7901
  972MOL0     C31112  11.837   9.868   1.379  0.5462  0.1389 -0.6591
  972MOL0     C31113  11.868   9.839   1.515  0.4792 -0.1757 -0.0713
  972MOL0     C31114  12.011   9.852   1.552  0.2822 -0.4199 -0.0964
  972MOL0     O31115  12.026   9.838   1.687  0.3454 -0.0979 -0.0725
  972MOL0     C31116  12.157   9.841   1.736 -0.6111  0.0787  0.3302
  972MOL0     C31117  12.238   9.959   1.742  0.7640  0.1867 -0.7324
  972MOL0     C31118  12.367   9.956   1.789  0.1200  0.1287 -0.4716
  972MOL0     C31119  12.422   9.829   1.826 -0.7195 -0.1752  0.0503
  972MOL0     O31120  12.555   9.814   1.860  0.0599 -0.0507  0.5609
  972MOL0     C31121  12.599   9.861   1.981 -0.0387  1.0960 -0.8215
  972MOL0     C31122  12.756   9.838   1.989 -0.0190  0.4831  0.5600
  972MOL0     C31123  12.835   9.948   1.918 -0.0108 -0.0522 -0.1751
  972MOL0     C31124  12.988   9.909   1.915 -0.0375 -0.4413 -0.0956
  972MOL0     C31125  13.058   9.949   2.053 -0.8584  0.2985 -0.3738
  972MOL0     C31126  13.091  10.101   2.072  0.6915  0.6055  0.1709
  972MOL0     C31127  13.203  10.102   2.175 -0.0953  0.0227  0.2354
  972MOL0     C31128  13.253  10.242   2.194 -0.1787 -0.0762 -0.8839
  972MOL0    Cl31129  13.314  10.322   2.047  0.3866 -0.4839  0.1657
  972MOL0     C31130  12.342   9.715   1.817 -0.3118  0.5787 -0.3142
  972MOL0     C31131  12.209   9.719   1.775 -0.2246 -0.7421  0.1323
  972MOL0     O31132  12.098   9.877   1.467 -0.4734 -0.1138 -0.4737
  972MOL0     C31133  11.770   9.781   1.594  0.1420 -0.0347  0.2359
  972MOL0     C31134  11.645   9.768   1.536  0.0461 -0.6290  0.2076
  972MOL0     N31135  11.279  10.400   1.482  0.0240  0.9042  0.3471
  972MOL0     N31136  11.348  10.499   1.449 -0.3607 -0.5546 -0.2250
  972MOL0     C31137  10.736  10.119   1.220 -1.1411 -0.1715  0.7028
  972MOL0     C31138  10.601  10.088   1.233  0.2258 -0.0479  0.5681
  972MOL0     C31139  10.159  10.044   1.157  0.8631  0.3990 -0.2085
  972MOL0     C31140  10.147   9.956   1.049 -0.2232  0.1610  0.2871
  972MOL0     C31141  10.022   9.902   1.016 -0.6967  0.0690 -0.3025
  972MOL0     C31142   9.909   9.935   1.084 -0.1184  0.4792 -0.9437
  972MOL0     O31143   9.787   9.882   1.057  0.2695 -0.4387  1.1220
  972MOL0     C31144   9.774   9.748   1.000 -0.0999  0.2047  0.2933
  972MOL0     C31145   9.784   9.640   1.109  0.1359 -0.4121 -0.0602
  972MOL0     C31146   9.676   9.529   1.088  0.1488 -0.0981 -0.1267
  972MOL0     C31147   9.670   9.405   1.183  0.1690 -0.4032  0.1427
  972MOL0     C31148   9.806   9.333   1.193 -0.1012  0.4765 -0.2056
  972MOL0     C31149   9.915   9.277   1.196  0.2733  0.2930  0.7785
  972MOL0     C31150   9.923  10.032   1.180 -0.0903  1.9327 -0.1431
  972MOL0     C31151  10.040  10.086   1.226 -0.6082  0.9132  0.2211
  972MOL0     C31152  10.030  10.184   1.339  0.2819 -0.3537 -0.9277
  972MOL0     H31153  10.506  10.096   0.913  1.6418 -0.2356 -1.3723
  972MOL0     H31154  10.759  10.157   0.888 -1.7687 -0.9923 -1.5067
  972MOL0     H31155  10.984  10.280   1.249  2.0011 -0.3972  1.1891
  972MOL0     H31156  10.994  10.110   1.265 -1.8636 -0.6104 -0.3293
  972MOL0     H31157  11.184  10.158   1.065 -1.7978 -1.2577  0.3567
  972MOL0     H31158  11.224  10.178   1.235  1.3987  0.8182 -0.7206
  972MOL0     H31159  11.152  10.422   1.227 -0.3561 -0.0924 -1.0164
  972MOL0     H31160  11.108  10.401   1.061  0.3342  0.8497  1.5109
  972MOL0     H31161  11.387  10.354   1.177  0.0026 -1.2679 -1.8601
  972MOL0     H31162  11.347  10.351   1.008  1.5529 -1.5206  1.3752
  972MOL0     H31163  11.315  10.593   1.026 -2.2838  0.9187  1.8965
  972MOL0     H31164  11.338  10.587   1.202 -2.2164 -2.0562 -0.8408
  972MOL0     H31165  11.557  10.504   1.008 -1.4588 -0.3510 -0.6046
  972MOL0     H31166  11.551  10.664   1.091  1.3394 -0.7488  0.7807
  972MOL0     H31167  11.714  10.541   1.195 -0.3746 -1.6387 -0.0023
  972MOL0     H31168  11.614  10.398   1.213 -1.4886 -0.7469 -0.9573
  972MOL0     H31169  11.647  10.543   1.429 -1.5606  1.3968  2.8375
  972MOL0     H31170  11.531  10.648   1.360 -0.1989  0.0978  2.6210
  972MOL0     H31171  11.553  10.244   1.399 -0.5480  0.3118  0.7860
  972MOL0     H31172  11.289  10.164   1.605 -0.6674 -0.6137 -0.0874
  972MOL0     H31173  11.188  10.159   1.463 -0.4196  0.8355  0.6771
  972MOL0     H31174  11.371  10.013   1.341 -4.0513  0.7018 -0.8471
  972MOL0     H31175  11.470  10.056   1.483 -0.2605  2.7756 -1.0357
  972MOL0     H31176  11.208   9.888   1.511 -0.6243 -0.3422 -1.7515
  972MOL0     H31177  11.353   9.895   1.616  0.6204 -0.2085 -0.3546
  972MOL0     H31178  11.290   9.727   1.369  0.9326  0.3741 -0.9175
  972MOL0     H31179  11.380   9.703   1.522 -0.5390 -0.7672  0.3618
  972MOL0     H31180  11.714   9.877   1.210 -0.9902  1.0546 -0.6457
  972MOL0     H31181  11.912   9.903   1.309  0.7094  0.6258 -0.2474
  972MOL0     H31182  12.194  10.050   1.703 -1.4796  0.3078  1.7586
  972MOL0     H31183  12.432  10.043   1.784  4.0345 -2.6046 -1.5521
  972MOL0     H31184  12.564   9.964   1.996  0.2431  0.8345  2.4114
  972MOL0     H31185  12.551   9.805   2.063 -1.6338  1.1009 -1.7112
  972MOL0     H31186  12.795   9.830   2.091 -0.8121 -0.6588  0.7913
  972MOL0     H31187  12.776   9.745   1.935  0.1451 -0.5476  2.3233
  972MOL0     H31188  12.797   9.955   1.816 -0.6780  1.5053  0.1512
  972MOL0     H31189  12.816  10.036   1.980 -1.6646 -1.0366  0.7711
  972MOL0     H31190  13.035   9.948   1.824 -0.4751 -1.1723 -0.6416
  972MOL0     H31191  13.005   9.801   1.910 -0.7492 -0.5289 -0.8720
  972MOL0     H31192  13.149   9.889   2.065 -0.0385  0.6966 -3.7192
  972MOL0     H31193  12.990   9.928   2.136 -0.5904  2.4947  0.4485
  972MOL0     H31194  13.121  10.144   1.976  1.6162 -2.4292 -1.0423
  972MOL0     H31195  12.999  10.145   2.111 -0.8025 -2.4720  0.4515
  972MOL0     H31196  13.285  10.040   2.138  0.9494  0.5546  1.5357
  972MOL0     H31197  13.171  10.060   2.271  0.1004  0.7469  0.6280
  972MOL0     H31198  13.167  10.296   2.234 -0.0156 -0.7002  0.3653
  972MOL0     H31199  13.339  10.240   2.261  0.0732 -1.3642 -1.2177
  972MOL0     H31200  12.386   9.616   1.826 -2.9449 -0.7560 -1.0134
  972MOL0     H31201  12.158   9.624   1.775 -1.2938 -0.1986  1.6811
  972MOL0     H31202  11.789   9.754   1.698  0.8809  0.0313  0.1209
  972MOL0     H31203  11.561   9.736   1.597  0.3655  1.3593  1.7838
  972MOL0     H31204  10.780  10.131   1.319 -1.5345 -0.0272  0.8666
  972MOL0     H31205  10.559  10.066   1.331  2.3344 -2.1140  1.0875
  972MOL0     H31206  10.223   9.922   0.980 -0.4495  2.6756 -1.3669
  972MOL0     H31207  10.020   9.826   0.939 -2.9734  0.2501 -0.4700
  972MOL0     H31208   9.830   9.721   0.910  0.8318  2.8043  0.0086
  972MOL0     H31209   9.673   9.751   0.958  0.2734 -0.6887 -0.7256
  972MOL0     H31210   9.774   9.682   1.210 -1.9455 -2.7904  0.8356
  972MOL0     H31211   9.883   9.593   1.111  1.1444  1.4855 -2.1074
  972MOL0     H31212   9.679   9.498   0.983 -2.0449 -1.5547  0.1757
  972MOL0     H31213   9.579   9.576   1.105  0.4145 -0.3762  2.5837
  972MOL0     H31214   9.642   9.439   1.283  1.8640  0.8716  0.2444
  972MOL0     H31215   9.596   9.337   1.139  1.6043 -2.0381  0.1454
  972MOL0     H31216  10.014   9.236   1.197  0.8495  1.4936 -1.1075
  972MOL0     H31217   9.839  10.073   1.235 -1.0734  0.1984 -0.2654
  972MOL0     H31218   9.943  10.174   1.404  0.9742 -1.9873 -0.1899
  972MOL0     H31219  10.105  10.153   1.413 -0.1560  3.6241  1.5288
  972MOL0     H31220  10.062  10.288   1.323  1.9685 -0.7914 -0.5791
  973MOL0     O31221   5.002   2.978   2.621  0.6677 -0.0458 -0.0027
  973MOL0     C31222   4.968   3.093   2.581 -1.2087  0.6377  0.7175
  973MOL0     O31223   5.056   3.199   2.551 -0.0620 -0.1540  0.4715
  973MOL0     C31224   5.163   3.207   2.626 -0.0109  0.0633  0.0091
  973MOL0     C31225   5.281   3.149   2.587  0.7564  0.2374  0.2883
  973MOL0     C31226   5.397   3.160   2.666 -0.4782 -0.0203  0.0703
  973MOL0     C31227   5.400   3.239   2.785  0.2551 -0.2679  0.2447
  973MOL0     O31228   5.507   3.242   2.864  0.4489 -0.6419 -0.2767
  973MOL0     C31229   5.501   3.317   2.989 -0.5123 -0.7284  0.0538
  973MOL0     C31230   5.620   3.260   3.068  1.1983 -0.0346 -0.1132
  973MOL0     C31231   5.758   3.272   2.997  1.1760  0.6495  0.0828
  973MOL0     C31232   5.876   3.209   3.070  0.1272  0.6300  0.2464
  973MOL0     C31233   6.008   3.252   3.017  0.6620 -0.2012 -0.0272
  973MOL0     C31234   6.136   3.182   3.071  1.1155 -0.2133  0.0593
  973MOL0     C31235   6.152   3.193   3.223  0.2756 -0.4272  0.2644
  973MOL0     C31236   6.219   3.326   3.268  0.3419 -0.7375 -0.0497
  973MOL0     N31237   6.365   3.316   3.246  0.2123  0.5300 -0.2532
  973MOL0     C31238   6.458   3.245   3.311 -0.1397 -0.0981 -0.1351
  973MOL0     C31239   6.575   3.269   3.243 -0.6373 -0.7149 -0.4769
  973MOL0     C31240   6.718   3.229   3.271  0.0180 -0.2675 -1.1668
  973MOL0     C31241   6.748   3.197   3.419  0.4383  0.4009  0.7360
  973MOL0     C31242   6.885   3.132   3.424  0.5233  0.3955 -0.1053
  973MOL0     C31243   7.010   3.204   3.371  0.5332  0.5766  0.0788
  973MOL0     O31244   7.116   3.108   3.345 -0.4873 -0.5235 -0.0854
  973MOL0     C31245   7.233   3.154   3.300 -0.8262 -0.4678  0.7968
  973MOL0     C31246   7.248   3.277   3.238 -0.1141 -0.4068  0.4586
  973MOL0     C31247   7.376   3.324   3.194 -0.1910  0.2890  0.3612
  973MOL0     C31248   7.483   3.235   3.211  0.2273  0.2463  0.5634
  973MOL0     C31249   7.620   3.286   3.195 -1.1903  0.3463  0.5892
  973MOL0     O31250   7.633   3.391   3.110  0.2507  0.0815  0.4438
  973MOL0     C31251   7.762   3.422   3.068  0.1923 -0.9378 -0.0009
  973MOL0     C31252   7.848   3.329   3.007  0.5280 -0.0237 -0.0789
  973MOL0     C31253   7.967   3.364   2.951  0.3341 -0.4317 -0.1793
  973MOL0     C31254   8.003   3.496   2.945 -0.1865 -0.5668  0.2500
  973MOL0     O31255   8.120   3.529   2.875  1.0547 -0.3019  0.5481
  973MOL0     C31256   8.162   3.664   2.869  0.3522 -0.6010  0.0420
  973MOL0     C31257   8.286   3.667   2.774  0.4936  0.1734 -0.3204
  973MOL0     C31258   8.387   3.782   2.799  1.0576 -0.2219 -0.8163
  973MOL0     C31259   8.507   3.770   2.707  0.1697  0.5617  0.0050
  973MOL0     C31260   8.601   3.888   2.730  0.7233 -0.2715 -0.2347
  973MOL0     C31261   8.722   3.881   2.632 -0.5035 -0.1716  0.3135
  973MOL0     C31262   8.805   4.018   2.654  0.0384 -0.5707 -0.1320
  973MOL0     C31263   8.952   4.009   2.613  0.5809  0.0185 -0.1241
  973MOL0    Cl31264   8.969   3.985   2.439 -0.0221  0.2241 -0.1349
  973MOL0     C31265   7.923   3.595   3.009 -0.4343  0.3774 -0.8075
  973MOL0     C31266   7.798   3.557   3.062 -0.3955  0.8053 -0.8301
  973MOL0     O31267   7.714   3.235   3.255 -0.7510  0.2245  0.1912
  973MOL0     C31268   7.463   3.105   3.252 -1.0575  0.4855  0.0736
  973MOL0     C31269   7.338   3.063   3.300  0.3473 -0.1164  1.1523
  973MOL0     N31270   6.547   3.338   3.130 -0.0179  0.1487  0.3197
  973MOL0     N31271   6.422   3.371   3.135  0.3996  0.1228  0.6663
  973MOL0     C31272   5.283   3.301   2.817 -0.2569 -0.2345 -0.2045
  973MOL0     C31273   5.160   3.289   2.742 -0.3896  0.3523 -0.7339
  973MOL0     C31274   4.830   3.135   2.546 -1.0225 -0.0624 -0.8569
  973MOL0     C31275   4.814   3.189   2.418  0.6945 -0.2598 -0.1477
  973MOL0     C31276   4.691   3.240   2.377  0.3583  0.0982  0.0896
  973MOL0     C31277   4.579   3.224   2.461  0.6013 -0.4609  0.1573
  973MOL0     O31278   4.457   3.269   2.410 -0.5620 -0.2044 -0.5875
  973MOL0     C31279   4.377   3.342   2.501  0.3982 -0.4280 -0.0523
  973MOL0     C31280   4.283   3.419   2.400  0.2749 -0.2138 -0.3029
  973MOL0     C31281   4.157   3.468   2.474  0.4690  0.5344  0.5434
  973MOL0     C31282   4.028   3.456   2.386  0.2895 -0.5955 -0.2501
  973MOL0     C31283   3.998   3.319   2.342 -0.3822 -0.2520  0.0563
  973MOL0     C31284   3.959   3.218   2.281 -0.1568  0.3595 -1.4106
  973MOL0     C31285   4.591   3.166   2.589  2.2678 -0.0437 -0.7259
  973MOL0     C31286   4.717   3.128   2.638  0.1749  0.3103  0.0955
  973MOL0     C31287   4.729   3.095   2.784  0.2926  0.1147  1.0656
  973MOL0     H31288   5.273   3.089   2.496 -0.2564  1.1209 -0.2370
  973MOL0     H31289   5.487   3.109   2.632 -0.2758  0.2187  0.2412
  973MOL0     H31290   5.524   3.420   2.958  0.0277 -0.9356 -0.2370
  973MOL0     H31291   5.408   3.298   3.044  1.1985 -0.0091  3.4889
  973MOL0     H31292   5.608   3.155   3.095  0.3137  0.7191  2.7753
  973MOL0     H31293   5.634   3.324   3.156  4.6661 -0.1915 -0.4002
  973MOL0     H31294   5.781   3.378   2.994  1.2388  0.6682  0.9622
  973MOL0     H31295   5.759   3.250   2.889 -0.4030  1.4510 -0.1219
  973MOL0     H31296   5.879   3.227   3.178  0.9763 -1.1508  0.5598
  973MOL0     H31297   5.871   3.100   3.058 -1.5804  0.7384 -0.2095
  973MOL0     H31298   6.015   3.226   2.911  1.3336  4.3337 -1.3015
  973MOL0     H31299   6.019   3.360   3.023 -0.9638  0.0303 -0.5667
  973MOL0     H31300   6.125   3.076   3.046 -1.2186 -0.7966  3.0175
  973MOL0     H31301   6.226   3.220   3.022 -1.0832  2.1604 -2.4167
  973MOL0     H31302   6.209   3.108   3.262 -2.5709 -2.4814  0.2521
  973MOL0     H31303   6.057   3.175   3.272  0.2457 -0.9142  0.0393
  973MOL0     H31304   6.163   3.411   3.229  2.3726  1.6012  1.7900
  973MOL0     H31305   6.211   3.334   3.377 -1.0237 -2.0990 -0.0220
  973MOL0     H31306   6.426   3.183   3.395  0.5785 -5.0256 -3.0819
  973MOL0     H31307   6.738   3.142   3.208  2.3706 -0.9320  0.3686
  973MOL0     H31308   6.777   3.314   3.236 -1.8333  0.1654 -3.5098
  973MOL0     H31309   6.755   3.290   3.477  2.3103 -1.0691  3.0478
  973MOL0     H31310   6.679   3.128   3.469  1.6689 -2.1670 -0.8855
  973MOL0     H31311   6.876   3.034   3.377 -3.0356  1.0989 -1.2053
  973MOL0     H31312   6.906   3.117   3.530 -1.3644  1.6483  0.5063
  973MOL0     H31313   7.045   3.271   3.450  0.7043  1.3163 -0.6145
  973MOL0     H31314   6.985   3.260   3.281  0.5354 -3.2357 -2.5280
  973MOL0     H31315   7.164   3.345   3.233  0.1398  0.1084  2.2542
  973MOL0     H31316   7.377   3.423   3.150  2.5869  0.3467  0.4291
  973MOL0     H31317   7.806   3.229   3.005 -0.1542  0.2586 -0.2494
  973MOL0     H31318   8.028   3.291   2.900  0.2387  0.3730 -1.4947
  973MOL0     H31319   8.081   3.717   2.818 -1.3828 -0.9908  2.2401
  973MOL0     H31320   8.185   3.698   2.970 -1.4653 -0.9400  0.6140
  973MOL0     H31321   8.348   3.580   2.797 -0.6743 -1.5661 -3.1756
  973MOL0     H31322   8.240   3.669   2.674 -1.9422 -0.5294  0.7142
  973MOL0     H31323   8.333   3.876   2.781 -0.2119 -0.7745 -0.0690
  973MOL0     H31324   8.413   3.770   2.904 -1.8984 -0.5084 -0.0361
  973MOL0     H31325   8.478   3.774   2.602  0.6293  1.3508 -0.1008
  973MOL0     H31326   8.550   3.670   2.722 -0.2890  0.2571 -0.6608
  973MOL0     H31327   8.643   3.901   2.831  0.9483 -0.3596 -0.3177
  973MOL0     H31328   8.552   3.984   2.707 -1.4558 -0.8082  1.6983
  973MOL0     H31329   8.776   3.793   2.667  3.1017  2.0250  0.8751
  973MOL0     H31330   8.702   3.874   2.524  3.7301  1.9380 -0.8560
  973MOL0     H31331   8.803   4.058   2.755  3.6416  2.7444 -1.1273
  973MOL0     H31332   8.753   4.087   2.587 -0.5405 -1.5870 -0.7770
  973MOL0     H31333   9.005   4.102   2.636 -1.4787  0.5883  2.8280
  973MOL0     H31334   8.999   3.931   2.673  0.7322 -0.4599 -0.8450
  973MOL0     H31335   7.960   3.697   3.018  0.1532  0.4364 -3.1046
  973MOL0     H31336   7.731   3.625   3.112 -2.6445 -0.8942 -1.3317
  973MOL0     H31337   7.555   3.048   3.253 -1.8569 -0.8460  1.1014
  973MOL0     H31338   7.330   2.959   3.330  0.4876 -0.0497  1.4316
  973MOL0     H31339   5.278   3.371   2.900  1.2743  1.3901 -1.3912
  973MOL0     H31340   5.063   3.327   2.774 -0.7877 -1.8911  0.9128
  973MOL0     H31341   4.901   3.191   2.352  2.0673  0.1292  1.6131
  973MOL0     H31342   4.676   3.298   2.287 -1.4890  2.6575  1.9149
  973MOL0     H31343   4.434   3.411   2.563 -0.4121  0.7053 -0.5175
  973MOL0     H31344   4.312   3.279   2.563  1.4946 -1.9143 -0.3524
  973MOL0     H31345   4.262   3.363   2.308  2.5342 -2.2559  0.3110
  973MOL0     H31346   4.341   3.506   2.370 -1.8884  2.7416  3.2650
  973MOL0     H31347   4.168   3.575   2.491 -1.1391  0.9872 -0.9611
  973MOL0     H31348   4.140   3.424   2.573  1.7958 -0.1140  0.5057
  973MOL0     H31349   3.944   3.497   2.442  1.9846  2.0600  0.5529
  973MOL0     H31350   4.031   3.517   2.295 -0.7527  1.3544  0.9545
  973MOL0     H31351   3.922   3.129   2.234  1.8571 -0.5764 -1.3369
  973MOL0     H31352   4.503   3.162   2.653  2.8527  0.2711  0.1222
  973MOL0     H31353   4.627   3.090   2.824  0.2860 -1.2810  0.9086
  973MOL0     H31354   4.774   2.996   2.794  1.4853  0.4833 -0.3027
  973MOL0     H31355   4.798   3.163   2.835  1.5517 -0.6977  0.4784
  974MOL0     O31356   1.285   0.102   8.014 -0.3416 -0.7683  0.3498
  974MOL0     C31357   1.222   0.206   7.999  0.7621  0.0471 -0.3048
  974MOL0     O31358   1.242   0.295   7.898 -0.1460 -0.2318  0.1498
  974MOL0     C31359   1.360   0.296   7.825  0.2606 -0.3847  0.7895
  974MOL0     C31360   1.474   0.359   7.869  0.0087 -0.0919  0.2658
  974MOL0     C31361   1.590   0.356   7.786 -0.6880 -0.2964  0.4744
  974MOL0     C31362   1.575   0.308   7.653  0.3905  0.2326 -0.8349
  974MOL0     O31363   1.691   0.302   7.580  0.0394 -0.2511  0.5675
  974MOL0     C31364   1.705   0.263   7.447 -0.2665 -0.4876  0.3162
  974MOL0     C31365   1.850   0.270   7.409 -0.6250  0.2643  0.1635
  974MOL0     C31366   1.886   0.231   7.267  0.7324 -0.4322 -0.4679
  974MOL0     C31367   1.814   0.320   7.168  0.2423  0.1973 -0.6367
  974MOL0     C31368   1.851   0.298   7.022  0.4879  0.1717  0.2982
  974MOL0     C31369   1.819   0.159   6.974  1.1018 -0.0984 -0.7140
  974MOL0     C31370   1.850   0.140   6.822  0.8446  0.0644 -0.1658
  974MOL0     C31371   1.738   0.204   6.734  0.2332 -0.1978  0.1584
  974MOL0     N31372   1.768   0.214   6.594 -0.8194  0.0049  0.2016
  974MOL0     C31373   1.678   0.226   6.494 -0.2219  0.3592  0.6953
  974MOL0     C31374   1.756   0.260   6.381  0.6562 -0.6752 -0.1563
  974MOL0     C31375   1.733   0.277   6.230  0.2041 -0.1809 -0.5523
  974MOL0     C31376   1.609   0.366   6.205 -1.0803 -0.8653  0.2220
  974MOL0     C31377   1.486   0.275   6.201  0.4649 -0.9114 -0.3137
  974MOL0     C31378   1.364   0.366   6.200 -0.2730 -0.0173 -0.5141
  974MOL0     O31379   1.238   0.297   6.187  0.1180  0.3942 -0.2934
  974MOL0     C31380   1.114   0.364   6.191  0.2203 -0.4670 -0.3074
  974MOL0     C31381   1.094   0.493   6.251 -0.7209  0.7545 -0.4840
  974MOL0     C31382   0.974   0.562   6.261  0.8634 -1.3108  0.1765
  974MOL0     C31383   0.852   0.496   6.221 -0.4605  0.1009 -0.3803
  974MOL0     C31384   0.718   0.547   6.242 -0.5945 -0.4372 -0.2610
  974MOL0     O31385   0.616   0.459   6.245 -0.0837 -0.2011 -0.7417
  974MOL0     C31386   0.491   0.495   6.303 -0.3394 -0.2712  0.1741
  974MOL0     C31387   0.403   0.581   6.246 -1.5639 -0.9767 -0.5779
  974MOL0     C31388   0.278   0.604   6.302  0.7306 -0.0282 -0.3032
  974MOL0     C31389   0.247   0.536   6.415  0.8654  0.9729  0.2781
  974MOL0     O31390   0.119   0.551   6.460  0.1056 -0.9471 -0.6609
  974MOL0     C31391   0.054   0.424   6.483 -0.4496  0.4043 -0.6052
  974MOL0     C31392  -0.080   0.418   6.409  0.3498 -0.3449 -0.3353
  974MOL0     C31393  -0.157   0.283   6.413  0.1325 -0.5698 -0.1865
  974MOL0     C31394  -0.305   0.288   6.462 -0.7663 -0.7614 -0.0211
  974MOL0     C31395  -0.383   0.155   6.430 -0.6107 -0.3960 -0.2958
  974MOL0     C31396  -0.520   0.141   6.504 -0.3936  0.2324  0.4619
  974MOL0     C31397  -0.564   0.001   6.504 -0.0942 -0.2156  0.1896
  974MOL0     C31398  -0.669  -0.025   6.618  0.7078  0.6969 -0.9200
  974MOL0    Cl31399  -0.685  -0.203   6.644  0.1746 -0.1532 -0.0267
  974MOL0     C31400   0.339   0.454   6.483 -0.6012  0.2372  0.7339
  974MOL0     C31401   0.462   0.435   6.422  0.2242  0.0992  0.2738
  974MOL0     O31402   0.701   0.666   6.274  0.6279 -0.7080  0.0313
  974MOL0     C31403   0.869   0.372   6.162  0.3478  0.4693 -0.4003
  974MOL0     C31404   0.995   0.308   6.140  0.9164 -0.7435 -0.3702
  974MOL0     N31405   1.886   0.278   6.420  0.5310  0.0224  0.3488
  974MOL0     N31406   1.891   0.237   6.541  0.1252 -0.8239 -0.0790
  974MOL0     C31407   1.456   0.253   7.610 -0.3793 -0.3953 -0.2484
  974MOL0     C31408   1.345   0.248   7.691 -0.8430 -0.6176  0.3829
  974MOL0     C31409   1.100   0.227   8.087  0.9255  0.9361 -0.1808
  974MOL0     C31410   1.001   0.306   8.035  0.4047 -0.1979  0.7715
  974MOL0     C31411   0.877   0.316   8.108  0.4275 -0.4590  0.0000
  974MOL0     C31412   0.862   0.245   8.231  0.2503  0.2085  0.9728
  974MOL0     O31413   0.742   0.235   8.287  0.4480  0.1685 -0.2955
  974MOL0     C31414   0.719   0.361   8.359 -0.4876 -0.2860  0.5995
  974MOL0     C31415   0.598   0.348   8.449  0.8074 -0.9798  0.4390
  974MOL0     C31416   0.575   0.464   8.549 -0.2291  0.1709  0.4498
  974MOL0     C31417   0.685   0.478   8.662 -0.6245  0.4733 -0.3636
  974MOL0     C31418   0.651   0.544   8.784  0.1896 -0.0585  0.8604
  974MOL0     C31419   0.617   0.616   8.878 -1.4186  0.5764 -0.8376
  974MOL0     C31420   0.965   0.176   8.282 -0.1226  0.6455 -0.1395
  974MOL0     C31421   1.079   0.159   8.212 -0.8388 -0.0859 -0.1812
  974MOL0     C31422   1.168   0.063   8.285 -0.4353 -0.1629 -0.5559
  974MOL0     H31423   1.480   0.394   7.972  0.4990 -0.0154  0.2142
  974MOL0     H31424   1.683   0.398   7.824 -1.0211  0.1160  0.8448
  974MOL0     H31425   1.663   0.164   7.423 -2.2296  1.1075 -3.8690
  974MOL0     H31426   1.643   0.337   7.395 -0.6071 -0.5000  0.7007
  974MOL0     H31427   1.902   0.208   7.483 -0.8749  0.9409  0.9234
  974MOL0     H31428   1.888   0.371   7.425 -0.9499  0.1743  1.6335
  974MOL0     H31429   1.853   0.127   7.254  0.1377 -0.2783 -0.1864
  974MOL0     H31430   1.995   0.238   7.254  1.1974  0.7702  3.0538
  974MOL0     H31431   1.705   0.309   7.165  0.1582  1.1425 -1.7345
  974MOL0     H31432   1.824   0.422   7.208  0.6987 -0.7852  1.9658
  974MOL0     H31433   1.779   0.362   6.970 -0.6553 -0.7853  0.6678
  974MOL0     H31434   1.953   0.327   6.998 -0.2775  0.6306 -2.8368
  974MOL0     H31435   1.884   0.095   7.034  0.2668  0.4402  0.8167
  974MOL0     H31436   1.712   0.139   6.986  0.9861  0.5483 -0.6289
  974MOL0     H31437   1.863   0.032   6.809  0.6468 -0.1667  1.3191
  974MOL0     H31438   1.942   0.191   6.793  0.4985  1.0989  0.4995
  974MOL0     H31439   1.655   0.134   6.747  2.0461 -2.1850  1.4471
  974MOL0     H31440   1.711   0.298   6.784  2.9517  0.0017  1.4468
  974MOL0     H31441   1.571   0.209   6.492  0.0731 -1.5904  0.2863
  974MOL0     H31442   1.822   0.331   6.196  1.5009 -1.4738  0.6241
  974MOL0     H31443   1.736   0.188   6.167 -0.0731  0.7866 -1.9654
  974MOL0     H31444   1.595   0.431   6.291 -1.0909  0.9118 -1.0593
  974MOL0     H31445   1.626   0.430   6.118 -1.1801 -0.9281  0.1557
  974MOL0     H31446   1.475   0.211   6.288 -0.6779 -1.2427 -0.6834
  974MOL0     H31447   1.484   0.204   6.118 -2.2380 -1.1202 -0.1571
  974MOL0     H31448   1.373   0.444   6.124  1.5229  1.7303  1.3798
  974MOL0     H31449   1.365   0.430   6.289 -0.8716 -0.0708 -0.4649
  974MOL0     H31450   1.176   0.538   6.306 -2.2830  1.6764  1.1980
  974MOL0     H31451   0.974   0.653   6.319 -0.8587 -0.7372 -0.6514
  974MOL0     H31452   0.425   0.630   6.151 -1.1415 -1.5629 -0.7874
  974MOL0     H31453   0.197   0.665   6.260  2.1021  2.1479  0.0300
  974MOL0     H31454   0.116   0.338   6.456 -0.9496 -0.1037 -0.1628
  974MOL0     H31455   0.032   0.420   6.590  1.6040  2.0680 -0.0360
  974MOL0     H31456  -0.135   0.502   6.452  1.2544 -0.0453  0.2584
  974MOL0     H31457  -0.072   0.450   6.305 -1.2863 -1.8790 -0.9866
  974MOL0     H31458  -0.153   0.241   6.313 -2.8030 -0.7559 -0.3104
  974MOL0     H31459  -0.105   0.204   6.467  0.6996 -3.2372 -4.2713
  974MOL0     H31460  -0.346   0.378   6.415  1.0725  0.4578  0.5961
  974MOL0     H31461  -0.298   0.310   6.569 -0.1577  0.6939 -0.3396
  974MOL0     H31462  -0.321   0.076   6.473 -1.5359  0.3895  2.7240
  974MOL0     H31463  -0.403   0.132   6.325  2.1656 -0.9774 -0.7694
  974MOL0     H31464  -0.515   0.172   6.609 -1.1265 -0.8452  0.8258
  974MOL0     H31465  -0.597   0.207   6.464  0.1051  1.3434  1.2671
  974MOL0     H31466  -0.484  -0.067   6.533 -0.9013  0.2055  4.0224
  974MOL0     H31467  -0.612  -0.030   6.411  0.7155 -0.5375 -0.1272
  974MOL0     H31468  -0.646   0.011   6.719 -2.3014  2.4417 -0.7584
  974MOL0     H31469  -0.765   0.016   6.587  0.1969 -0.4288 -0.8601
  974MOL0     H31470   0.303   0.399   6.570 -0.9674  0.7282  0.8970
  974MOL0     H31471   0.528   0.365   6.474  2.9497  1.1773 -1.4930
  974MOL0     H31472   0.784   0.310   6.134 -0.0327  0.8977 -0.2040
  974MOL0     H31473   1.006   0.214   6.086  0.9534 -0.9799  0.0510
  974MOL0     H31474   1.450   0.215   7.508 -1.2421  2.0950 -1.2073
  974MOL0     H31475   1.251   0.200   7.664 -0.7419 -0.2536 -0.6455
  974MOL0     H31476   1.010   0.369   7.947  3.1973 -0.9634  0.4290
  974MOL0     H31477   0.789   0.369   8.075  0.4359 -0.7101 -0.4296
  974MOL0     H31478   0.701   0.445   8.291 -3.7047 -0.9828  0.4050
  974MOL0     H31479   0.809   0.381   8.417  0.6612  0.7232 -1.4079
  974MOL0     H31480   0.606   0.253   8.504  3.3146 -3.0052 -3.0178
  974MOL0     H31481   0.511   0.342   8.384 -1.2196  0.5477  2.8055
  974MOL0     H31482   0.475   0.449   8.591 -1.5098  4.4795 -0.5366
  974MOL0     H31483   0.565   0.565   8.508 -0.8272  0.3348  0.9834
  974MOL0     H31484   0.717   0.376   8.684 -0.4772  0.6750  0.3950
  974MOL0     H31485   0.768   0.538   8.624 -1.4008  2.8589  1.4459
  974MOL0     H31486   0.594   0.689   8.953  0.2246  0.8648 -0.5837
  974MOL0     H31487   0.951   0.143   8.384 -0.7294  1.4457  0.0521
  974MOL0     H31488   1.275   0.070   8.264 -0.2625 -1.3250 -0.1478
  974MOL0     H31489   1.158   0.084   8.392 -0.5749 -1.8693 -0.2045
  974MOL0     H31490   1.145  -0.043   8.266  2.5593 -1.5124  2.2533
  975MOL0     O31491   9.166   6.859  11.233  0.7306 -0.7908 -0.0709
  975MOL0     C31492   9.138   6.779  11.146 -0.6259  0.6236 -1.0162
  975MOL0     O31493   9.038   6.801  11.048 -0.5183 -0.1868  0.2453
  975MOL0     C31494   8.950   6.906  11.058  0.9329  0.0267  0.9550
  975MOL0     C31495   8.880   6.946  11.176 -0.0252 -0.0791  0.2672
  975MOL0     C31496   8.792   7.055  11.170  0.7460 -0.0064  0.3057
  975MOL0     C31497   8.758   7.109  11.046  1.4344 -0.2103  0.9045
  975MOL0     O31498   8.649   7.198  11.034  0.8544  0.8608  0.2716
  975MOL0     C31499   8.533   7.184  11.125 -0.1510 -0.1500 -0.4390
  975MOL0     C31500   8.424   7.265  11.057 -0.3825  0.1153 -0.3367
  975MOL0     C31501   8.287   7.218  11.101  0.9421 -0.4947 -0.3116
  975MOL0     C31502   8.178   7.295  11.017 -0.8433  0.5541  0.0842
  975MOL0     C31503   8.029   7.245  11.039 -0.2250 -0.2123  1.1516
  975MOL0     C31504   7.937   7.297  10.920  0.2907  0.2081 -0.1169
  975MOL0     C31505   7.794   7.239  10.939  0.4292  0.0814 -0.8878
  975MOL0     C31506   7.710   7.282  10.818  0.3894 -1.0180  0.3274
  975MOL0     N31507   7.574   7.239  10.845 -0.2976 -0.6160  0.2071
  975MOL0     C31508   7.479   7.284  10.931 -0.5981 -0.4309  0.2375
  975MOL0     C31509   7.366   7.224  10.897 -0.2439 -0.0718  0.3358
  975MOL0     C31510   7.232   7.275  10.949 -0.2744 -0.8558  0.0999
  975MOL0     C31511   7.228   7.262  11.098 -0.4531 -1.0157  0.2670
  975MOL0     C31512   7.181   7.125  11.149  1.1643  0.1611  0.0726
  975MOL0     C31513   7.266   7.007  11.119  0.5393 -0.2783 -1.0109
  975MOL0     O31514   7.396   7.047  11.157 -0.2004 -0.3526 -0.3690
  975MOL0     C31515   7.502   6.967  11.135  0.1293  0.8004  0.2872
  975MOL0     C31516   7.616   7.013  11.196 -1.2506  0.7734  0.2878
  975MOL0     C31517   7.737   6.939  11.204  0.2422 -0.5184 -0.6033
  975MOL0     C31518   7.748   6.812  11.142  0.8551 -0.4901  0.9807
  975MOL0     C31519   7.868   6.738  11.132 -0.3505 -0.1645  0.7266
  975MOL0     O31520   7.881   6.645  11.032  0.0805 -0.0482  0.4198
  975MOL0     C31521   7.993   6.570  11.019 -0.1685  0.5385  1.4578
  975MOL0     C31522   8.033   6.499  11.135 -0.2524  0.8363  0.7292
  975MOL0     C31523   8.137   6.403  11.122  0.0769 -1.2604  0.1438
  975MOL0     C31524   8.209   6.390  11.003  0.1063 -0.9084 -0.5071
  975MOL0     O31525   8.304   6.296  10.999 -0.0988 -0.1610 -0.5541
  975MOL0     C31526   8.395   6.289  10.886 -0.1502  0.5627  0.1924
  975MOL0     C31527   8.530   6.217  10.915  0.3784 -1.5233  0.1934
  975MOL0     C31528   8.604   6.289  11.036  0.3300 -0.4917 -0.6351
  975MOL0     C31529   8.737   6.238  11.062 -0.0812 -0.5369  0.2697
  975MOL0     C31530   8.858   6.242  10.953  1.4556 -0.3926 -0.7885
  975MOL0     C31531   9.006   6.245  11.007 -0.8123  0.7848  0.1923
  975MOL0     C31532   9.048   6.136  11.108  0.4077  0.0638 -0.2262
  975MOL0     C31533   9.190   6.141  11.148  0.2013  0.2065 -0.0517
  975MOL0    Cl31534   9.259   6.013  11.259  0.3108 -0.1563  0.2377
  975MOL0     C31535   8.171   6.471  10.888  0.4065 -0.3865  0.0652
  975MOL0     C31536   8.063   6.562  10.900 -0.5131 -0.5979 -0.3883
  975MOL0     O31537   7.961   6.779  11.205 -0.0134  0.3740 -0.0985
  975MOL0     C31538   7.630   6.769  11.072 -0.3110  0.1812 -0.5627
  975MOL0     C31539   7.508   6.840  11.069  0.0430  0.5442  0.1361
  975MOL0     N31540   7.389   7.142  10.785  0.4064 -0.3764 -0.5309
  975MOL0     N31541   7.513   7.146  10.764  0.0440 -0.5691  0.6471
  975MOL0     C31542   8.819   7.069  10.927  0.4762 -0.0570 -0.5197
  975MOL0     C31543   8.917   6.972  10.935  0.7825 -0.1380  0.3370
  975MOL0     C31544   9.228   6.657  11.120 -0.2547  0.4453  0.1471
  975MOL0     C31545   9.229   6.579  10.996 -0.3807  0.0358  0.3498
  975MOL0     C31546   9.319   6.470  10.981 -0.3829  0.0146  0.0658
  975MOL0     C31547   9.396   6.424  11.080 -0.0015  0.1500  0.1051
  975MOL0     O31548   9.462   6.308  11.061  0.5606  0.5338  0.0718
  975MOL0     C31549   9.537   6.250  11.173 -0.2560  0.0673 -0.6589
  975MOL0     C31550   9.617   6.134  11.107  1.0059  0.4261 -0.3905
  975MOL0     C31551   9.699   6.053  11.212 -0.1357  0.7894  0.1873
  975MOL0     C31552   9.632   5.989  11.329 -0.0410 -0.6450 -0.1993
  975MOL0     C31553   9.717   5.901  11.407  0.4256 -0.6861 -0.2370
  975MOL0     C31554   9.807   5.837  11.457 -0.7073 -0.4060  1.0708
  975MOL0     C31555   9.403   6.500  11.197  0.0242 -0.2341  0.1260
  975MOL0     C31556   9.325   6.616  11.220 -0.5514 -0.7546  0.5087
  975MOL0     C31557   9.336   6.674  11.364  0.0786 -1.0999 -0.0434
  975MOL0     H31558   8.909   6.903  11.271  3.1410  1.3406  0.0560
  975MOL0     H31559   8.737   7.088  11.258 -0.2757 -1.6489  0.3250
  975MOL0     H31560   8.503   7.080  11.138  2.2462 -0.8418  0.1390
  975MOL0     H31561   8.561   7.231  11.220 -1.5075  2.1443 -1.0797
  975MOL0     H31562   8.435   7.274  10.949  0.1092 -0.6992 -0.3663
  975MOL0     H31563   8.442   7.364  11.100  0.3710 -0.9161  1.9181
  975MOL0     H31564   8.267   7.253  11.203 -2.5139  0.7349 -1.2720
  975MOL0     H31565   8.257   7.113  11.091  2.6335 -1.0393 -0.0155
  975MOL0     H31566   8.194   7.402  11.031  2.4126  0.5369 -2.3155
  975MOL0     H31567   8.197   7.278  10.910  0.0011 -1.2918  0.4741
  975MOL0     H31568   8.045   7.137  11.034  1.1992  0.0358 -2.5923
  975MOL0     H31569   7.988   7.281  11.134 -0.4533 -3.6691  2.5069
  975MOL0     H31570   7.940   7.406  10.924  0.1657  0.2355 -0.7240
  975MOL0     H31571   7.987   7.264  10.829 -0.5947  0.4464 -0.7005
  975MOL0     H31572   7.743   7.277  11.028 -1.5331 -0.2111 -1.8395
  975MOL0     H31573   7.784   7.131  10.955 -0.2291  0.2985  0.2856
  975MOL0     H31574   7.715   7.389  10.799  0.2187 -0.7703  1.5929
  975MOL0     H31575   7.742   7.223  10.732  0.3479 -1.4255  0.5863
  975MOL0     H31576   7.495   7.356  11.010 -1.4257 -1.0333  0.9738
  975MOL0     H31577   7.218   7.380  10.923 -5.0862 -0.3889  3.2606
  975MOL0     H31578   7.154   7.220  10.896  1.0941 -2.5552 -0.2608
  975MOL0     H31579   7.318   7.292  11.154 -0.5646  0.8931 -0.5007
  975MOL0     H31580   7.149   7.330  11.132 -0.2301 -0.7242  0.2056
  975MOL0     H31581   7.079   7.101  11.119  1.0726 -0.9085  1.1402
  975MOL0     H31582   7.174   7.141  11.257  1.1670 -0.3071  0.1439
  975MOL0     H31583   7.265   6.989  11.011  0.4544 -1.1743 -0.8683
  975MOL0     H31584   7.232   6.920  11.177  0.9827  2.2783  3.5447
  975MOL0     H31585   7.602   7.107  11.249 -0.3738  0.8762  0.3456
  975MOL0     H31586   7.815   6.998  11.252 -1.5373  2.3052 -0.9651
  975MOL0     H31587   7.969   6.502  11.223 -3.2788  0.0563 -1.3206
  975MOL0     H31588   8.151   6.337  11.206 -2.5611 -0.7590  1.0644
  975MOL0     H31589   8.347   6.235  10.805 -1.4554 -1.5366  2.2299
  975MOL0     H31590   8.415   6.390  10.850  0.4914 -0.2019 -1.6990
  975MOL0     H31591   8.507   6.113  10.941 -0.3978 -1.0821  1.3966
  975MOL0     H31592   8.600   6.225  10.832 -1.8242  0.4186 -1.6214
  975MOL0     H31593   8.614   6.397  11.019  4.1895 -0.6284 -0.1749
  975MOL0     H31594   8.548   6.273  11.128 -1.8777  0.3768 -1.7627
  975MOL0     H31595   8.741   6.139  11.109 -0.6039 -0.9466 -0.5359
  975MOL0     H31596   8.781   6.311  11.132 -1.0060  0.3953 -0.0945
  975MOL0     H31597   8.843   6.336  10.899  4.1301  0.4750 -0.1748
  975MOL0     H31598   8.840   6.162  10.881  1.7380  0.2504 -1.5900
  975MOL0     H31599   9.072   6.237  10.920  2.3510 -0.2541  2.4864
  975MOL0     H31600   9.018   6.342  11.057  0.4138 -0.3641  2.3039
  975MOL0     H31601   9.012   6.043  11.064 -4.0504  2.3568 -2.1079
  975MOL0     H31602   8.986   6.165  11.194 -2.0752 -0.5064 -1.7062
  975MOL0     H31603   9.246   6.135  11.054 -2.5549  0.2987 -1.8282
  975MOL0     H31604   9.215   6.235  11.200 -0.1739  0.1362  0.2583
  975MOL0     H31605   8.215   6.460  10.790  0.1631  2.3832 -0.4428
  975MOL0     H31606   8.034   6.626  10.817 -0.1148 -1.6933 -1.4072
  975MOL0     H31607   7.623   6.674  11.020  0.3613 -1.2694  1.8375
  975MOL0     H31608   7.429   6.797  11.008  1.1256  0.6791 -1.4232
  975MOL0     H31609   8.794   7.117  10.833  1.3547 -0.7158 -1.1164
  975MOL0     H31610   8.962   6.937  10.842 -0.8044 -0.1289 -0.4703
  975MOL0     H31611   9.162   6.603  10.915  0.7003  1.3573 -0.1869
  975MOL0     H31612   9.326   6.422  10.884  0.9140  0.2814  0.0032
  975MOL0     H31613   9.462   6.203  11.237 -0.3121 -0.0625 -0.8214
  975MOL0     H31614   9.607   6.307  11.236 -0.5966 -0.7614  0.5193
  975MOL0     H31615   9.688   6.171  11.032  2.3170  0.7676  0.9583
  975MOL0     H31616   9.560   6.064  11.046  0.1964  3.5736 -3.5775
  975MOL0     H31617   9.785   6.113  11.243 -1.1957  2.1957  0.5593
  975MOL0     H31618   9.728   5.964  11.156 -2.2430  1.1485 -1.6233
  975MOL0     H31619   9.601   6.069  11.397 -1.3782 -0.8577 -0.5366
  975MOL0     H31620   9.548   5.927  11.296  1.3927 -3.8175  1.5822
  975MOL0     H31621   9.883   5.782  11.509  0.1580  0.8176  1.1423
  975MOL0     H31622   9.475   6.477  11.275 -0.2626 -1.1846  0.1138
  975MOL0     H31623   9.375   6.775  11.371 -0.0450 -1.1695  2.8352
  975MOL0     H31624   9.239   6.674  11.415 -0.1941  0.7634 -0.5165
  975MOL0     H31625   9.406   6.617  11.427  0.6004  1.8060  2.2032
  976MOL0     O31626   8.813   7.214   1.401 -0.6058  0.5101 -0.0057
  976MOL0     C31627   8.779   7.213   1.523 -0.7378  0.3346  0.8523
  976MOL0     O31628   8.856   7.174   1.633 -0.4802  0.7392  0.3165
  976MOL0     C31629   8.995   7.167   1.613  0.2721  0.0782  0.7403
  976MOL0     C31630   9.056   7.073   1.520  1.2037  0.0907 -0.3726
  976MOL0     C31631   9.193   7.077   1.493 -0.6117  0.7187  0.2078
  976MOL0     C31632   9.276   7.163   1.563  0.0753  0.2446 -0.0041
  976MOL0     O31633   9.409   7.172   1.554  0.0926 -0.6419 -0.3861
  976MOL0     C31634   9.468   7.046   1.532  0.9748  1.2548  0.2646
  976MOL0     C31635   9.607   7.083   1.575  0.2407 -0.2556  0.6448
  976MOL0     C31636   9.712   6.975   1.561  0.0805 -0.2352  0.1537
  976MOL0     C31637   9.848   7.020   1.621  0.1847 -0.1465  0.1773
  976MOL0     C31638   9.927   6.889   1.651  0.4536  0.0675 -0.1946
  976MOL0     C31639  10.046   6.918   1.750 -0.6485  0.2372  0.4263
  976MOL0     C31640  10.133   6.798   1.765 -0.2929  0.2862  0.5870
  976MOL0     C31641  10.242   6.800   1.878 -0.0428  0.3863 -0.2573
  976MOL0     N31642  10.327   6.677   1.866 -0.3546  0.0715  0.4695
  976MOL0     C31643  10.397   6.611   1.967  0.1390  0.0170  0.0254
  976MOL0     C31644  10.487   6.527   1.905  0.3905  0.2084 -0.6807
  976MOL0     C31645  10.575   6.434   1.977  0.8333  0.4417 -0.3075
  976MOL0     C31646  10.685   6.511   2.055  0.0909  0.6785  0.1478
  976MOL0     C31647  10.792   6.437   2.132 -0.0623 -0.6966  0.1426
  976MOL0     C31648  10.733   6.362   2.249 -0.6403  0.0653 -0.2967
  976MOL0     O31649  10.841   6.275   2.278  0.2987 -0.3588 -0.0654
  976MOL0     C31650  10.947   6.316   2.355  0.0477  0.6062  0.3588
  976MOL0     C31651  10.948   6.424   2.448  0.0211  0.5782  0.2920
  976MOL0     C31652  11.062   6.450   2.522 -0.6865 -0.6595  0.0384
  976MOL0     C31653  11.175   6.381   2.488  0.0029  0.0124 -0.2759
  976MOL0     C31654  11.297   6.398   2.566 -0.4358 -0.2353  0.2656
  976MOL0     O31655  11.399   6.328   2.514 -0.0626  0.4061 -0.2240
  976MOL0     C31656  11.529   6.341   2.559 -0.5555  0.2921 -0.7961
  976MOL0     C31657  11.588   6.438   2.643  0.3713  1.3580 -0.1293
  976MOL0     C31658  11.716   6.426   2.683 -0.4671 -0.3622  0.4458
  976MOL0     C31659  11.807   6.340   2.618  0.3226 -0.0220  0.2526
  976MOL0     O31660  11.948   6.344   2.641  0.2512 -0.5977  0.2664
  976MOL0     C31661  12.039   6.306   2.536  0.2093  0.0902  0.5076
  976MOL0     C31662  12.089   6.169   2.552 -0.8481 -0.0593  0.2588
  976MOL0     C31663  12.241   6.156   2.548 -0.3853  0.6952  0.2031
  976MOL0     C31664  12.274   6.000   2.577  0.6013 -0.5626  0.1776
  976MOL0     C31665  12.423   5.965   2.585  0.2550  0.1309  0.6794
  976MOL0     C31666  12.494   6.033   2.698  0.4852 -0.0030  0.6319
  976MOL0     C31667  12.616   5.961   2.732 -0.5516 -0.5729 -0.7642
  976MOL0     C31668  12.733   5.988   2.635 -0.6102 -0.2151 -0.5825
  976MOL0    Cl31669  12.747   5.859   2.512  0.3130  0.0654 -0.2001
  976MOL0     C31670  11.751   6.242   2.534  0.2300 -0.9166 -0.3434
  976MOL0     C31671  11.612   6.241   2.508 -0.9150  0.1009 -0.3962
  976MOL0     O31672  11.295   6.488   2.655 -0.3947 -0.2055  0.4334
  976MOL0     C31673  11.177   6.289   2.386 -0.3105 -0.2180  0.6423
  976MOL0     C31674  11.065   6.261   2.317 -0.0422  0.2345  0.1121
  976MOL0     N31675  10.467   6.543   1.765  0.4546  0.5481  0.4169
  976MOL0     N31676  10.378   6.634   1.749  0.2838  0.1750  0.5290
  976MOL0     C31677   9.218   7.257   1.647  0.2654  1.1684 -0.2785
  976MOL0     C31678   9.087   7.257   1.674 -0.0849 -0.2508 -0.2308
  976MOL0     C31679   8.642   7.261   1.564  0.4464  0.0562  0.0710
  976MOL0     C31680   8.595   7.235   1.692  0.1603  0.4082  0.9147
  976MOL0     C31681   8.469   7.269   1.735  0.1588  0.3192 -0.0181
  976MOL0     C31682   8.383   7.342   1.657  0.2408  0.0453  0.7881
  976MOL0     O31683   8.261   7.400   1.679  0.6338 -0.1684 -0.0753
  976MOL0     C31684   8.241   7.434   1.818  0.6754 -0.2570  0.4174
  976MOL0     C31685   8.192   7.303   1.899  0.0156 -0.7373 -0.5629
  976MOL0     C31686   8.045   7.325   1.942 -0.1194  0.2336  0.4403
  976MOL0     C31687   8.016   7.436   2.036  0.5938  0.8998 -0.4362
  976MOL0     C31688   8.119   7.448   2.144 -0.1247 -0.3753  0.6038
  976MOL0     C31689   8.206   7.465   2.222 -0.0636  0.6425  0.1513
  976MOL0     C31690   8.437   7.384   1.536  0.5476 -0.9606 -0.6867
  976MOL0     C31691   8.557   7.345   1.481 -0.1189  0.0177 -0.2812
  976MOL0     C31692   8.600   7.393   1.341 -0.3399 -0.3086  0.0388
  976MOL0     H31693   8.979   7.012   1.474 -2.4741  3.3236  0.9455
  976MOL0     H31694   9.226   7.013   1.412  0.8258  0.3797  1.0139
  976MOL0     H31695   9.437   6.956   1.586  2.9452  0.1124 -0.4320
  976MOL0     H31696   9.472   7.009   1.429  1.9358 -1.2050  1.1127
  976MOL0     H31697   9.594   7.117   1.679  1.1066  1.8388  0.1226
  976MOL0     H31698   9.636   7.173   1.521  0.4629  0.3723  1.7696
  976MOL0     H31699   9.724   6.950   1.455  1.6924 -0.4030  0.3503
  976MOL0     H31700   9.671   6.895   1.623  3.1977 -1.3335  0.9477
  976MOL0     H31701   9.906   7.074   1.545 -2.0524  0.6911 -1.0150
  976MOL0     H31702   9.836   7.077   1.713  0.0304 -0.1077  0.1335
  976MOL0     H31703   9.857   6.827   1.708  2.0403 -0.8620  0.8217
  976MOL0     H31704   9.956   6.853   1.552 -1.3998 -2.5279  0.0929
  976MOL0     H31705  10.092   7.009   1.709 -4.1623  2.5426  1.1503
  976MOL0     H31706  10.003   6.957   1.842 -2.9800  1.0454 -0.9085
  976MOL0     H31707  10.184   6.774   1.671  0.5299 -0.5093  1.2172
  976MOL0     H31708  10.065   6.714   1.784 -0.5388  0.1339 -0.9010
  976MOL0     H31709  10.300   6.892   1.863 -1.7864  1.6940  0.6206
  976MOL0     H31710  10.197   6.807   1.977  3.3436 -0.7559  1.5186
  976MOL0     H31711  10.376   6.630   2.072 -0.1789  1.8207 -0.3164
  976MOL0     H31712  10.507   6.385   2.046 -0.1639 -1.8493 -2.7549
  976MOL0     H31713  10.608   6.355   1.908 -0.3721 -0.9493  0.6598
  976MOL0     H31714  10.733   6.574   1.979 -0.6351 -0.2001 -1.0824
  976MOL0     H31715  10.630   6.577   2.123 -2.1716 -2.1042  1.2397
  976MOL0     H31716  10.869   6.512   2.153 -0.7325  0.9340 -2.6771
  976MOL0     H31717  10.838   6.370   2.059 -0.7000 -1.2545  0.2439
  976MOL0     H31718  10.644   6.308   2.216  0.3580 -1.9488  0.1671
  976MOL0     H31719  10.710   6.420   2.339  2.2649 -0.2626  0.7781
  976MOL0     H31720  10.858   6.477   2.478  0.7822  1.3838  1.2169
  976MOL0     H31721  11.061   6.533   2.593 -1.3833  0.0914 -0.8221
  976MOL0     H31722  11.521   6.516   2.675 -2.4227 -0.7611 -0.4049
  976MOL0     H31723  11.758   6.496   2.755 -2.5939 -0.3904  1.8234
  976MOL0     H31724  11.994   6.322   2.437 -4.4248 -0.5297  2.2665
  976MOL0     H31725  12.119   6.380   2.545  0.2290  0.0266  0.8404
  976MOL0     H31726  12.051   6.135   2.649 -0.0737 -0.7199  0.3457
  976MOL0     H31727  12.055   6.103   2.472 -3.0427  1.2480  0.0341
  976MOL0     H31728  12.287   6.182   2.452 -0.7304  0.9481  0.1033
  976MOL0     H31729  12.284   6.215   2.629 -0.2819  2.9297 -1.3879
  976MOL0     H31730  12.220   5.938   2.505  1.3865 -0.4831 -0.4790
  976MOL0     H31731  12.231   5.970   2.674 -1.0129  0.8368 -0.0473
  976MOL0     H31732  12.465   5.987   2.486 -1.7347  0.3060 -0.1928
  976MOL0     H31733  12.423   5.857   2.602  2.2404 -0.4094 -2.0634
  976MOL0     H31734  12.517   6.136   2.671 -1.4304  0.6820  1.4134
  976MOL0     H31735  12.427   6.038   2.785 -0.5950 -0.9730 -0.1163
  976MOL0     H31736  12.604   5.854   2.750  0.5207 -0.6857 -0.6099
  976MOL0     H31737  12.664   6.003   2.820  1.7691  1.2045 -2.7242
  976MOL0     H31738  12.730   6.085   2.586  3.0383 -0.3520 -1.3349
  976MOL0     H31739  12.827   5.995   2.690  1.0328  1.6586 -3.3950
  976MOL0     H31740  11.824   6.177   2.488  1.5651  0.1464  0.1766
  976MOL0     H31741  11.579   6.165   2.438  0.2821 -0.3382 -0.4957
  976MOL0     H31742  11.268   6.246   2.345 -0.2858  0.7508 -0.3538
  976MOL0     H31743  11.073   6.196   2.231 -2.3034  1.3582 -1.0220
  976MOL0     H31744   9.285   7.323   1.701  0.9486  0.9732 -0.8733
  976MOL0     H31745   9.039   7.323   1.746 -3.2042 -2.3146 -0.2018
  976MOL0     H31746   8.655   7.179   1.763 -0.5934  0.4830  1.6157
  976MOL0     H31747   8.423   7.234   1.827  0.5027  0.5146  0.2302
  976MOL0     H31748   8.169   7.517   1.824  2.0064  0.9670 -0.0456
  976MOL0     H31749   8.330   7.466   1.872 -1.0803  4.4304  0.9792
  976MOL0     H31750   8.253   7.295   1.990 -1.4561 -1.6293  0.3891
  976MOL0     H31751   8.196   7.205   1.851 -0.0833 -0.7001 -0.6493
  976MOL0     H31752   8.012   7.227   1.977  1.6876 -0.4472  0.3487
  976MOL0     H31753   7.980   7.344   1.856 -2.0854  0.2913  1.8796
  976MOL0     H31754   8.018   7.536   1.991  2.0250  1.2220  0.2917
  976MOL0     H31755   7.920   7.414   2.084  1.8087 -0.9122  1.3031
  976MOL0     H31756   8.270   7.496   2.302  1.3181 -1.2888 -0.1357
  976MOL0     H31757   8.382   7.459   1.479 -1.8493 -2.2049 -0.1353
  976MOL0     H31758   8.529   7.455   1.286  0.2384 -1.2180 -1.8105
  976MOL0     H31759   8.692   7.452   1.349  0.6332 -1.7543  0.0477
  976MOL0     H31760   8.615   7.307   1.276 -0.6446 -0.1188 -0.2859
  977MOL0     O31761   1.744   2.449   1.338  0.2030  0.4343 -0.2994
  977MOL0     C31762   1.707   2.370   1.251 -0.2088 -0.6578  0.9477
  977MOL0     O31763   1.798   2.278   1.190 -0.3387  0.6033 -0.0367
  977MOL0     C31764   1.922   2.261   1.257  0.9001 -0.1797  0.4788
  977MOL0     C31765   2.034   2.333   1.226 -0.2846 -0.7039 -0.7584
  977MOL0     C31766   2.153   2.329   1.302 -0.9105 -0.2220 -0.0154
  977MOL0     C31767   2.158   2.244   1.415 -0.1837  0.0475  0.3277
  977MOL0     O31768   2.274   2.225   1.494  0.1218 -0.0575  0.2559
  977MOL0     C31769   2.373   2.329   1.498  0.1048 -0.2697  0.0938
  977MOL0     C31770   2.491   2.286   1.574  0.9531  0.0888 -0.1634
  977MOL0     C31771   2.586   2.403   1.601 -0.7334 -0.5817 -0.5197
  977MOL0     C31772   2.720   2.371   1.665 -0.1270  0.6222 -0.4299
  977MOL0     C31773   2.794   2.261   1.587 -0.3752 -0.2069 -0.7961
  977MOL0     C31774   2.948   2.251   1.614 -0.7685  0.1814  0.5252
  977MOL0     C31775   2.995   2.124   1.547 -0.6272  0.6696 -1.0539
  977MOL0     C31776   3.139   2.137   1.513 -0.1669 -0.1980  0.4609
  977MOL0     N31777   3.226   2.145   1.633 -0.5927 -0.1190  0.2851
  977MOL0     C31778   3.278   2.036   1.699 -0.3303  0.8603  0.1372
  977MOL0     C31779   3.368   2.095   1.787 -0.8160 -0.1572  0.5970
  977MOL0     C31780   3.438   2.019   1.907 -0.3161  0.1495  0.0241
  977MOL0     C31781   3.575   1.978   1.876 -0.4278  0.7015 -1.1964
  977MOL0     C31782   3.575   1.848   1.791 -0.1396 -0.0306  0.0534
  977MOL0     C31783   3.703   1.780   1.736 -0.5730  0.5729  0.1685
  977MOL0     O31784   3.793   1.786   1.850  0.1190  0.3704  0.3240
  977MOL0     C31785   3.923   1.755   1.831 -0.7661  0.6112 -0.2133
  977MOL0     C31786   4.012   1.784   1.938  0.1426 -0.0732 -0.7061
  977MOL0     C31787   4.152   1.768   1.924  0.2539 -0.5523  0.1232
  977MOL0     C31788   4.204   1.701   1.810 -1.0077 -0.2855 -0.0473
  977MOL0     C31789   4.349   1.666   1.811  0.5316 -0.0367 -0.1080
  977MOL0     O31790   4.404   1.619   1.694  0.6319  0.4449 -0.4636
  977MOL0     C31791   4.535   1.591   1.691 -0.2002 -0.5610 -0.0113
  977MOL0     C31792   4.563   1.474   1.625 -0.1165 -0.1487 -1.3040
  977MOL0     C31793   4.693   1.444   1.584 -0.7309 -0.1811  0.4949
  977MOL0     C31794   4.795   1.538   1.606 -0.7200  0.2044  0.0032
  977MOL0     O31795   4.926   1.515   1.573  0.0617 -0.2861  0.0290
  977MOL0     C31796   4.967   1.380   1.544 -0.1640  0.8732 -0.2764
  977MOL0     C31797   4.982   1.359   1.394  1.3875  0.2745 -0.1170
  977MOL0     C31798   5.090   1.440   1.315 -0.5288 -0.1839  1.1892
  977MOL0     C31799   5.045   1.492   1.175  0.2433  0.2989  0.4304
  977MOL0     C31800   5.168   1.538   1.095  0.2974 -0.6896  1.1736
  977MOL0     C31801   5.244   1.660   1.160  0.9336 -0.1164 -0.8669
  977MOL0     C31802   5.326   1.739   1.053 -0.0335 -0.8022 -0.0110
  977MOL0     C31803   5.389   1.864   1.122  0.1181 -0.9372  0.8867
  977MOL0    Cl31804   5.284   2.000   1.135 -0.1352 -0.0266 -0.3223
  977MOL0     C31805   4.760   1.657   1.672 -0.1509 -0.1735  0.0304
  977MOL0     C31806   4.637   1.693   1.713  0.0713 -0.4099 -0.1077
  977MOL0     O31807   4.408   1.667   1.921 -0.2815  0.3638  0.3968
  977MOL0     C31808   4.117   1.670   1.706 -0.1143 -0.4627  0.2684
  977MOL0     C31809   3.981   1.696   1.720  0.7021  0.0533 -0.0775
  977MOL0     N31810   3.349   2.235   1.773 -0.1052  0.1009  0.2327
  977MOL0     N31811   3.274   2.268   1.672  0.0169  0.7089 -0.1226
  977MOL0     C31812   2.045   2.163   1.439  0.4223 -0.5727 -0.2658
  977MOL0     C31813   1.928   2.177   1.367  0.1699  0.1633  0.3859
  977MOL0     C31814   1.562   2.373   1.201  0.9737  0.5978  0.5012
  977MOL0     C31815   1.471   2.466   1.256  0.2933  0.0230 -0.1369
  977MOL0     C31816   1.343   2.468   1.213  0.3909  0.0376 -0.2363
  977MOL0     C31817   1.298   2.378   1.115 -0.0236 -0.1917  0.1313
  977MOL0     O31818   1.167   2.370   1.065  0.0905 -0.0838 -0.5673
  977MOL0     C31819   1.070   2.470   1.108 -0.3693 -0.4020  1.2351
  977MOL0     C31820   0.951   2.462   1.008 -0.0575  0.6661 -0.0958
  977MOL0     C31821   0.851   2.563   1.049 -0.2622 -0.5158 -0.9348
  977MOL0     C31822   0.748   2.582   0.942 -0.0614  1.0249  0.6858
  977MOL0     C31823   0.804   2.685   0.851  0.9408  0.5516 -0.3098
  977MOL0     C31824   0.841   2.760   0.763 -0.2435  0.5867 -0.7001
  977MOL0     C31825   1.379   2.282   1.065 -0.2116 -0.0714 -0.5200
  977MOL0     C31826   1.510   2.276   1.100 -0.2235  0.2913  0.5430
  977MOL0     C31827   1.597   2.195   1.018 -0.8576  0.7366 -0.2482
  977MOL0     H31828   2.040   2.398   1.140  1.2114 -0.0813 -0.2253
  977MOL0     H31829   2.243   2.387   1.282 -1.6151  0.3817 -1.6502
  977MOL0     H31830   2.417   2.336   1.398  3.4499  0.4702  1.4859
  977MOL0     H31831   2.327   2.413   1.551  0.5882 -1.7680  3.1189
  977MOL0     H31832   2.541   2.207   1.517  0.0496 -0.4606 -0.2209
  977MOL0     H31833   2.460   2.236   1.667  1.6511 -0.5938 -0.2856
  977MOL0     H31834   2.537   2.482   1.659  0.8343 -0.8046  1.1832
  977MOL0     H31835   2.609   2.453   1.506 -2.5348  1.3605 -0.0166
  977MOL0     H31836   2.786   2.458   1.678 -1.7730  1.5614  3.0876
  977MOL0     H31837   2.703   2.337   1.768 -2.7824  0.9926 -0.6629
  977MOL0     H31838   2.750   2.169   1.625 -1.5329  0.8813  0.5894
  977MOL0     H31839   2.775   2.277   1.480  2.9968  0.7147 -1.3667
  977MOL0     H31840   3.010   2.332   1.574 -1.3429 -0.0090 -0.8193
  977MOL0     H31841   2.964   2.243   1.722 -0.5214 -0.4830  0.4400
  977MOL0     H31842   2.944   2.103   1.452  1.6963  1.4912 -2.6004
  977MOL0     H31843   2.976   2.026   1.590  1.3958 -2.4802 -6.3127
  977MOL0     H31844   3.170   2.042   1.470  0.3490  0.8701 -1.6617
  977MOL0     H31845   3.166   2.218   1.444  4.7269  0.6825  2.9276
  977MOL0     H31846   3.251   1.933   1.678 -2.5854  1.0394  1.6925
  977MOL0     H31847   3.437   2.086   1.994  3.1390 -2.2545  2.1518
  977MOL0     H31848   3.375   1.934   1.934  0.8784  0.0834  2.9223
  977MOL0     H31849   3.622   2.064   1.826  0.6932  1.4980  1.0597
  977MOL0     H31850   3.637   1.962   1.965  2.5246  0.6743 -3.1054
  977MOL0     H31851   3.512   1.867   1.703 -0.2778  0.7297  0.3100
  977MOL0     H31852   3.528   1.771   1.854 -2.6543  0.0599 -1.5373
  977MOL0     H31853   3.752   1.838   1.656 -0.1932  0.7891  0.5510
  977MOL0     H31854   3.678   1.675   1.720 -1.8309  0.5677  1.9363
  977MOL0     H31855   3.980   1.830   2.031  0.8826 -0.5061 -0.2297
  977MOL0     H31856   4.213   1.808   2.005 -0.6152  0.8759  0.1055
  977MOL0     H31857   4.483   1.405   1.599 -1.5029  1.7307 -2.3000
  977MOL0     H31858   4.700   1.347   1.536  2.1378  0.5291 -0.7498
  977MOL0     H31859   5.068   1.366   1.582 -0.6522 -0.7837  0.4951
  977MOL0     H31860   4.904   1.304   1.591  1.7767  0.2100  1.3409
  977MOL0     H31861   4.979   1.252   1.370 -2.7028  0.7633 -2.8017
  977MOL0     H31862   4.889   1.396   1.349  1.5119  0.0538 -0.5683
  977MOL0     H31863   5.110   1.526   1.380 -0.6152  0.9598 -0.2431
  977MOL0     H31864   5.177   1.375   1.306  1.2284  2.1542  0.1133
  977MOL0     H31865   4.984   1.583   1.177  1.1118  0.9618 -1.2459
  977MOL0     H31866   4.991   1.420   1.113 -3.4042  2.4640  0.7799
  977MOL0     H31867   5.135   1.574   0.997 -1.3957  3.5000  3.0534
  977MOL0     H31868   5.242   1.461   1.072  2.6564  1.7976 -0.0090
  977MOL0     H31869   5.169   1.724   1.208  0.1105 -1.7636  0.1507
  977MOL0     H31870   5.317   1.612   1.226 -0.5899 -0.9524  0.2816
  977MOL0     H31871   5.268   1.761   0.963 -0.7082  0.0261  0.6037
  977MOL0     H31872   5.411   1.674   1.033  2.4751  1.2289  3.1350
  977MOL0     H31873   5.405   1.830   1.224  1.6441 -1.1688  0.5843
  977MOL0     H31874   5.486   1.895   1.083 -0.0209  0.6110  1.6982
  977MOL0     H31875   4.845   1.723   1.686  1.7945 -2.4200 -0.5299
  977MOL0     H31876   4.605   1.796   1.731  1.2423  0.6936 -3.5363
  977MOL0     H31877   4.164   1.617   1.624  0.5371  2.1757 -1.1757
  977MOL0     H31878   3.927   1.666   1.631  0.9703 -0.7636  0.0306
  977MOL0     H31879   2.050   2.093   1.522 -1.7011  1.0414  1.3582
  977MOL0     H31880   1.835   2.124   1.379  0.8412 -1.0594  0.3381
  977MOL0     H31881   1.497   2.534   1.338  1.1132  0.1825 -0.5166
  977MOL0     H31882   1.270   2.542   1.246 -0.7936 -0.0855 -2.3527
  977MOL0     H31883   1.119   2.567   1.096 -0.0342 -0.9281 -4.3010
  977MOL0     H31884   1.038   2.463   1.212  1.4487  2.6869  2.1477
  977MOL0     H31885   0.920   2.357   1.011  1.4936  0.1707 -0.1110
  977MOL0     H31886   0.992   2.484   0.909  1.7675  3.9376  1.2218
  977MOL0     H31887   0.905   2.656   1.067 -0.0260 -0.6057 -1.1876
  977MOL0     H31888   0.799   2.533   1.141 -1.4799 -2.8292 -2.2630
  977MOL0     H31889   0.730   2.490   0.884  2.2175  0.9533  0.0181
  977MOL0     H31890   0.660   2.621   0.995 -0.5368 -0.5196  1.0922
  977MOL0     H31891   0.869   2.825   0.683 -2.4877 -0.0180 -2.0666
  977MOL0     H31892   1.335   2.213   0.994  4.0057 -0.3025 -3.2641
  977MOL0     H31893   1.613   2.094   1.058 -3.2802  0.4156  0.0876
  977MOL0     H31894   1.550   2.174   0.922 -2.8308 -1.1684  1.0108
  977MOL0     H31895   1.688   2.251   0.998 -0.6188 -0.3937 -2.6077
  978MOL0     O31896   8.888   7.775   7.749 -0.4175  0.4635 -0.0982
  978MOL0     C31897   8.820   7.812   7.847  0.1956  0.4876 -0.6850
  978MOL0     O31898   8.870   7.841   7.972  0.0893 -0.1683  0.5620
  978MOL0     C31899   9.008   7.857   7.971 -0.8586 -0.0645 -1.0317
  978MOL0     C31900   9.058   7.989   7.975  0.0671  0.4016  1.0560
  978MOL0     C31901   9.199   8.000   7.974 -0.7051  0.5594 -0.1006
  978MOL0     C31902   9.290   7.892   7.963  0.2721  0.3808 -0.2092
  978MOL0     O31903   9.422   7.914   7.965 -0.2052 -0.2044  0.5867
  978MOL0     C31904   9.521   7.809   7.958  0.7232 -0.1687  0.0828
  978MOL0     C31905   9.664   7.853   7.969  0.1582 -0.3468 -0.9702
  978MOL0     C31906   9.756   7.752   7.909 -0.3227 -0.3582  0.0386
  978MOL0     C31907   9.898   7.801   7.901  0.1125 -0.6211 -0.5688
  978MOL0     C31908   9.995   7.688   7.862 -0.1670 -0.3633 -0.2203
  978MOL0     C31909  10.027   7.576   7.965  0.1824 -1.3679  0.2202
  978MOL0     C31910  10.161   7.497   7.949 -0.2415  0.1988 -0.0649
  978MOL0     C31911  10.281   7.590   7.971  0.4956 -0.4567  1.2472
  978MOL0     N31912  10.391   7.528   8.047  0.5013 -0.4753  0.1746
  978MOL0     C31913  10.464   7.572   8.150 -0.0855 -0.5748 -0.7211
  978MOL0     C31914  10.564   7.475   8.173 -0.4504 -0.1171 -0.4497
  978MOL0     C31915  10.665   7.473   8.284 -0.5504 -0.0934 -0.4085
  978MOL0     C31916  10.751   7.353   8.298 -0.1092  0.1560  0.4874
  978MOL0     C31917  10.847   7.366   8.426  1.3517  0.1087  0.7284
  978MOL0     C31918  10.930   7.243   8.446 -0.0477  0.5692 -0.2953
  978MOL0     O31919  11.009   7.241   8.564  0.5820  0.1443 -0.2673
  978MOL0     C31920  11.132   7.312   8.563  0.6772  0.9278  0.1183
  978MOL0     C31921  11.202   7.290   8.677 -0.0356  0.1211 -0.7221
  978MOL0     C31922  11.336   7.329   8.696  0.1181 -0.3855  0.4735
  978MOL0     C31923  11.389   7.415   8.595 -0.3792 -0.4914 -0.6997
  978MOL0     C31924  11.529   7.468   8.610 -0.7289  0.0780 -0.7000
  978MOL0     O31925  11.582   7.480   8.735 -0.8796  0.3817  0.7464
  978MOL0     C31926  11.704   7.519   8.744 -0.2805  0.0080 -0.6192
  978MOL0     C31927  11.714   7.658   8.759  0.8410 -0.4498 -0.1313
  978MOL0     C31928  11.837   7.718   8.790  0.7534  0.5275 -0.4360
  978MOL0     C31929  11.953   7.639   8.806  0.1027  0.4978 -0.0582
  978MOL0     O31930  12.067   7.720   8.828  0.1244 -0.1975 -0.1223
  978MOL0     C31931  12.191   7.662   8.861 -0.2864  0.5015 -0.2543
  978MOL0     C31932  12.280   7.789   8.859  0.2668  0.8630  0.3944
  978MOL0     C31933  12.414   7.755   8.939  0.4253 -0.5914  0.0567
  978MOL0     C31934  12.415   7.775   9.091 -0.1695  1.0467 -0.5718
  978MOL0     C31935  12.559   7.757   9.146  0.0399  0.9373  1.3182
  978MOL0     C31936  12.572   7.750   9.291  0.4982 -0.4224  0.0880
  978MOL0     C31937  12.552   7.889   9.347 -0.2287 -1.2754 -0.8852
  978MOL0     C31938  12.549   7.888   9.503  0.4877 -0.8346  0.6863
  978MOL0    Cl31939  12.404   7.790   9.577  0.4215  0.1469  0.6125
  978MOL0     C31940  11.948   7.500   8.773  0.3756 -0.8966  0.1564
  978MOL0     C31941  11.820   7.440   8.735  0.1391  0.0965  0.6497
  978MOL0     O31942  11.583   7.502   8.506  0.1586 -0.0674  0.1890
  978MOL0     C31943  11.319   7.443   8.478 -0.5111 -0.1950  0.0368
  978MOL0     C31944  11.195   7.383   8.458 -0.1273 -0.1015  0.9451
  978MOL0     N31945  10.547   7.371   8.084  0.1361 -0.1081 -0.3377
  978MOL0     N31946  10.448   7.408   8.016  0.2030 -0.8359 -0.4580
  978MOL0     C31947   9.235   7.760   7.958  0.3135  0.0394 -0.1404
  978MOL0     C31948   9.093   7.744   7.968  0.6645  0.2755  0.0888
  978MOL0     C31949   8.668   7.822   7.835  0.8000 -0.2116 -1.0657
  978MOL0     C31950   8.589   7.870   7.948 -1.0039  0.6477 -0.1953
  978MOL0     C31951   8.452   7.875   7.936  0.2382  0.1537 -0.8475
  978MOL0     C31952   8.383   7.820   7.834  0.2256 -1.0345  0.4942
  978MOL0     O31953   8.247   7.821   7.849  0.3152 -0.0767  0.2272
  978MOL0     C31954   8.165   7.707   7.802  0.2819 -0.1404 -0.0348
  978MOL0     C31955   8.023   7.749   7.778 -0.7303 -0.4194 -1.2041
  978MOL0     C31956   7.932   7.781   7.897  0.6036 -0.7647 -0.3731
  978MOL0     C31957   7.802   7.828   7.844 -0.1601  0.0215  0.3796
  978MOL0     C31958   7.715   7.862   7.953  0.2136 -0.3756  0.0213
  978MOL0     C31959   7.629   7.897   8.035 -0.2271 -0.6579  0.0943
  978MOL0     C31960   8.454   7.766   7.726  1.2540  0.1984 -0.4674
  978MOL0     C31961   8.593   7.783   7.717 -0.5364 -0.1014 -0.0925
  978MOL0     C31962   8.655   7.735   7.588 -0.2693  0.0812 -0.3416
  978MOL0     H31963   8.996   8.078   7.978 -0.1123  0.5092 -2.0757
  978MOL0     H31964   9.243   8.099   7.980  0.0480  0.2442 -0.2015
  978MOL0     H31965   9.500   7.751   8.048  2.0071 -3.5037 -1.6103
  978MOL0     H31966   9.515   7.760   7.861  2.8972  0.9673 -0.7021
  978MOL0     H31967   9.678   7.883   8.073 -1.2485 -0.1938 -0.7992
  978MOL0     H31968   9.689   7.938   7.904  2.4748 -3.3451 -4.3983
  978MOL0     H31969   9.727   7.730   7.806 -2.7422  1.4734  0.2403
  978MOL0     H31970   9.759   7.660   7.968  1.5078 -0.2949  0.1156
  978MOL0     H31971   9.905   7.885   7.832  0.5177 -1.3478 -1.4233
  978MOL0     H31972   9.929   7.843   7.998 -3.6931 -0.4998  0.7431
  978MOL0     H31973   9.953   7.642   7.772 -0.1242  1.4694 -1.2066
  978MOL0     H31974  10.081   7.749   7.834  0.5160 -1.1632  0.0812
  978MOL0     H31975  10.041   7.633   8.057  1.9525  1.7368 -1.7943
  978MOL0     H31976   9.941   7.509   7.970 -0.7947 -0.1785 -0.2692
  978MOL0     H31977  10.182   7.467   7.846 -0.0604 -0.6818  0.2184
  978MOL0     H31978  10.157   7.411   8.016 -0.0356  0.6226  0.5053
  978MOL0     H31979  10.322   7.631   7.878  0.5030  0.3836  1.6105
  978MOL0     H31980  10.245   7.677   8.027 -0.7531 -0.6510  0.7727
  978MOL0     H31981  10.451   7.670   8.195  1.5550 -1.5596  2.2439
  978MOL0     H31982  10.726   7.563   8.274 -1.5102  0.4039 -2.3455
  978MOL0     H31983  10.616   7.482   8.381 -0.7899  2.3360 -0.6943
  978MOL0     H31984  10.685   7.266   8.302  0.2916 -0.3215 -1.9564
  978MOL0     H31985  10.811   7.344   8.208 -1.3358  0.9387 -0.4381
  978MOL0     H31986  10.795   7.371   8.522  4.2154  0.6422  2.3877
  978MOL0     H31987  10.916   7.450   8.417  0.5644  0.9395  2.0652
  978MOL0     H31988  10.985   7.230   8.352  1.0120 -0.0399  0.3854
  978MOL0     H31989  10.876   7.148   8.456  1.3612 -0.0075  4.7340
  978MOL0     H31990  11.162   7.222   8.752 -1.0406 -1.1726 -2.3621
  978MOL0     H31991  11.397   7.302   8.781 -1.1216  2.2154  2.3180
  978MOL0     H31992  11.624   7.719   8.758  0.3942 -1.0986 -0.2264
  978MOL0     H31993  11.845   7.825   8.801 -0.3926  0.5701  0.1099
  978MOL0     H31994  12.187   7.638   8.968 -3.5528 -0.6804 -0.5315
  978MOL0     H31995  12.215   7.585   8.787  2.4505  2.2112 -1.2705
  978MOL0     H31996  12.304   7.822   8.758 -0.8433  0.0078 -0.1781
  978MOL0     H31997  12.230   7.868   8.915 -1.6220 -0.3162  0.4769
  978MOL0     H31998  12.455   7.658   8.910  1.1811 -0.9112  2.0196
  978MOL0     H31999  12.489   7.822   8.895 -1.1462 -0.4248 -2.5464
  978MOL0     H32000  12.354   7.694   9.132 -3.3957  3.1369 -0.8700
  978MOL0     H32001  12.366   7.867   9.123 -2.7207 -0.0862 -1.0322
  978MOL0     H32002  12.614   7.842   9.105  0.8882  1.5584  3.5865
  978MOL0     H32003  12.605   7.672   9.096 -2.6636  0.2662 -0.2286
  978MOL0     H32004  12.492   7.681   9.321  1.4138 -2.0323 -1.0237
  978MOL0     H32005  12.674   7.719   9.316  0.4838 -2.2108 -1.7390
  978MOL0     H32006  12.458   7.924   9.304 -0.6455 -1.1838  0.0788
  978MOL0     H32007  12.637   7.948   9.312  1.2784 -3.3055 -0.8603
  978MOL0     H32008  12.640   7.839   9.540 -0.4782 -1.6794  2.0794
  978MOL0     H32009  12.550   7.990   9.543 -2.9769  0.2147 -1.4655
  978MOL0     H32010  12.043   7.449   8.767  1.8457  1.5033  1.4422
  978MOL0     H32011  11.821   7.332   8.720  0.2530  0.1217  0.4697
  978MOL0     H32012  11.352   7.502   8.393 -1.3193 -1.8056 -1.4504
  978MOL0     H32013  11.134   7.387   8.369 -1.4518  0.5890  1.8508
  978MOL0     H32014   9.302   7.675   7.950  1.6699  1.1211 -0.7784
  978MOL0     H32015   9.051   7.644   7.961  0.0603  0.4303  1.3129
  978MOL0     H32016   8.631   7.918   8.036 -2.5305  0.5065  0.6416
  978MOL0     H32017   8.395   7.909   8.022 -0.3120 -1.4980 -0.5232
  978MOL0     H32018   8.160   7.627   7.876 -1.4076  1.8992  2.2300
  978MOL0     H32019   8.195   7.670   7.704 -2.5549 -0.4093 -0.8985
  978MOL0     H32020   7.978   7.668   7.720  0.0347 -2.7935  1.2800
  978MOL0     H32021   8.022   7.843   7.722  0.2636  1.9129  2.3608
  978MOL0     H32022   7.978   7.848   7.971 -0.5735 -1.1830  0.7647
  978MOL0     H32023   7.916   7.690   7.956  2.0681 -0.2771  0.8520
  978MOL0     H32024   7.801   7.915   7.779  3.0240  0.4568  0.7573
  978MOL0     H32025   7.759   7.745   7.787  0.1286  0.3547 -0.3258
  978MOL0     H32026   7.565   7.941   8.109 -3.3767  3.2729 -4.3214
  978MOL0     H32027   8.394   7.719   7.649  0.7692 -2.7836  1.5616
  978MOL0     H32028   8.735   7.799   7.549 -0.8404  0.7536 -0.4369
  978MOL0     H32029   8.690   7.632   7.602 -3.7548 -1.3677 -1.2912
  978MOL0     H32030   8.581   7.733   7.508  0.7195  0.6256 -1.3092
  979MOL0     O32031   7.431   8.318   2.080  0.4037 -0.4979 -1.2732
  979MOL0     C32032   7.407   8.385   2.181 -0.3562  0.3623  0.3448
  979MOL0     O32033   7.494   8.463   2.251  0.9882 -0.0553 -0.5243
  979MOL0     C32034   7.629   8.458   2.235  0.1211 -0.6870 -1.1579
  979MOL0     C32035   7.714   8.429   2.341 -0.6758 -0.5033  0.0365
  979MOL0     C32036   7.856   8.431   2.327 -0.9543  1.0458  0.4648
  979MOL0     C32037   7.907   8.445   2.200 -0.7294  0.9637  0.2826
  979MOL0     O32038   8.045   8.435   2.175 -0.0316  0.0777  0.1511
  979MOL0     C32039   8.134   8.404   2.283  0.3728  0.1579 -1.0787
  979MOL0     C32040   8.278   8.447   2.238 -0.6187  0.9901 -0.2748
  979MOL0     C32041   8.389   8.371   2.308  0.3963 -0.2897  0.1722
  979MOL0     C32042   8.530   8.429   2.312  0.7299 -0.5488  0.2673
  979MOL0     C32043   8.636   8.347   2.385  0.2219 -0.3521  0.1449
  979MOL0     C32044   8.773   8.424   2.371 -0.1404  0.7412  0.1267
  979MOL0     C32045   8.885   8.387   2.466 -0.6162 -1.1001 -0.0763
  979MOL0     C32046   8.910   8.228   2.467  0.4409 -0.1498  0.5322
  979MOL0     N32047   8.975   8.193   2.335  0.1115  0.4128 -0.7707
  979MOL0     C32048   9.097   8.222   2.291 -0.9952  0.0629  0.6460
  979MOL0     C32049   9.112   8.159   2.170  0.1037  0.9668 -0.6516
  979MOL0     C32050   9.230   8.169   2.067 -0.0081 -0.2648 -0.5529
  979MOL0     C32051   9.366   8.213   2.132 -0.0748  0.6235  0.1341
  979MOL0     C32052   9.476   8.238   2.024  0.0086 -0.5828  0.4153
  979MOL0     C32053   9.626   8.257   2.071 -0.5703  0.3764 -0.8131
  979MOL0     O32054   9.702   8.342   1.978  0.3181 -0.0213 -0.1043
  979MOL0     C32055   9.836   8.350   2.001  0.0354 -1.0191 -0.2879
  979MOL0     C32056   9.919   8.405   1.905 -0.5978  0.4354 -0.3899
  979MOL0     C32057  10.051   8.422   1.929  0.1147 -0.5695  0.1567
  979MOL0     C32058  10.121   8.384   2.044 -0.7120  0.3291 -0.0226
  979MOL0     C32059  10.269   8.399   2.050 -0.7581 -0.2495  0.0277
  979MOL0     O32060  10.314   8.487   1.961 -0.2504  0.3592 -0.4336
  979MOL0     C32061  10.443   8.504   1.931 -0.2881  0.3654  0.6888
  979MOL0     C32062  10.480   8.625   1.875 -0.1122 -1.1300 -0.7207
  979MOL0     C32063  10.606   8.673   1.832  0.1354  0.5517 -0.6902
  979MOL0     C32064  10.714   8.585   1.847  0.0750  0.2275  0.4168
  979MOL0     O32065  10.841   8.629   1.808 -0.1228  0.8806 -0.3704
  979MOL0     C32066  10.954   8.579   1.870  0.5372 -0.2203  0.6584
  979MOL0     C32067  10.977   8.668   1.993 -0.6992  0.0104 -0.2664
  979MOL0     C32068  11.119   8.631   2.050  0.2857  1.1718 -0.6105
  979MOL0     C32069  11.138   8.703   2.177  0.6211 -0.2335 -0.9629
  979MOL0     C32070  11.283   8.710   2.205  0.1164 -0.3521 -0.1711
  979MOL0     C32071  11.308   8.834   2.301 -0.2870  0.4881 -0.7642
  979MOL0     C32072  11.450   8.858   2.336  0.0129  0.1221 -0.8922
  979MOL0     C32073  11.479   9.006   2.332 -0.0917  0.2192  0.1876
  979MOL0    Cl32074  11.471   9.080   2.166  0.6647  0.1325 -0.1027
  979MOL0     C32075  10.687   8.451   1.894  0.3995  0.2219  0.1561
  979MOL0     C32076  10.551   8.412   1.920 -0.4474 -0.4641 -0.8442
  979MOL0     O32077  10.342   8.328   2.116  0.2073  0.3264 -0.3446
  979MOL0     C32078  10.040   8.322   2.137 -0.0314 -0.3233  0.7472
  979MOL0     C32079   9.902   8.301   2.121  0.0821 -0.0006  0.5293
  979MOL0     N32080   8.988   8.095   2.143  0.4299 -0.5811 -0.5544
  979MOL0     N32081   8.912   8.108   2.248  0.0096  0.0091 -0.0097
  979MOL0     C32082   7.821   8.466   2.086  0.2343 -0.0745 -0.7267
  979MOL0     C32083   7.682   8.468   2.105 -0.1948 -0.1678  0.2600
  979MOL0     C32084   7.271   8.378   2.227  0.0121 -0.3304  0.0551
  979MOL0     C32085   7.252   8.341   2.363 -1.1504 -0.2208  0.0953
  979MOL0     C32086   7.121   8.344   2.412  0.6332  0.1396  0.1305
  979MOL0     C32087   7.004   8.365   2.328 -0.1315 -0.2061  0.5986
  979MOL0     O32088   6.879   8.351   2.377  0.1011 -0.4675  0.3790
  979MOL0     C32089   6.804   8.242   2.323 -0.4880  0.5017  0.2103
  979MOL0     C32090   6.661   8.292   2.326  1.0569 -0.2743 -0.4371
  979MOL0     C32091   6.577   8.188   2.247 -0.1625 -0.1060 -0.0894
  979MOL0     C32092   6.539   8.067   2.323 -0.1192  0.3379  0.0230
  979MOL0     C32093   6.605   7.948   2.277 -0.1938  0.6824  0.0865
  979MOL0     C32094   6.674   7.866   2.232  0.9289  0.5073  0.4325
  979MOL0     C32095   7.022   8.404   2.197  0.6155 -0.1268  0.7164
  979MOL0     C32096   7.161   8.407   2.147  0.1597 -0.2313 -0.0275
  979MOL0     C32097   7.185   8.456   2.005 -0.5329  0.7448 -0.7175
  979MOL0     H32098   7.665   8.402   2.434  2.3222 -1.1304  1.5837
  979MOL0     H32099   7.913   8.417   2.418  0.7309 -2.3084 -0.9472
  979MOL0     H32100   8.096   8.451   2.374 -2.6984 -2.9228 -0.5827
  979MOL0     H32101   8.129   8.298   2.309  0.1302  0.5267  0.5253
  979MOL0     H32102   8.296   8.554   2.249 -1.3978  1.3591 -2.2675
  979MOL0     H32103   8.286   8.442   2.129 -0.9104  2.0304 -0.3534
  979MOL0     H32104   8.395   8.273   2.259  0.6339  1.4524 -3.6293
  979MOL0     H32105   8.357   8.374   2.412  3.4455  1.3300  1.1688
  979MOL0     H32106   8.563   8.440   2.208  0.8728 -0.7015  0.2962
  979MOL0     H32107   8.514   8.529   2.354  1.0329 -0.7301  0.8229
  979MOL0     H32108   8.588   8.330   2.482 -2.4394  0.7479 -0.8865
  979MOL0     H32109   8.651   8.252   2.332 -1.8099 -1.2429  1.0378
  979MOL0     H32110   8.802   8.410   2.267 -2.7899 -0.9090 -0.4660
  979MOL0     H32111   8.751   8.531   2.378 -1.5925  0.3837  1.7442
  979MOL0     H32112   8.860   8.415   2.569 -2.8033  0.5883 -0.9818
  979MOL0     H32113   8.978   8.437   2.437  0.1647 -3.0881 -1.3008
  979MOL0     H32114   8.976   8.197   2.549  0.9251  0.0436  0.2158
  979MOL0     H32115   8.812   8.178   2.474 -0.8461  2.2006  0.3030
  979MOL0     H32116   9.167   8.280   2.350 -0.4218 -1.9648  2.0718
  979MOL0     H32117   9.242   8.083   2.001  1.1324  0.8604 -1.8903
  979MOL0     H32118   9.193   8.256   2.011  2.3387  2.6020  1.9953
  979MOL0     H32119   9.341   8.299   2.196 -2.4614  0.5220 -0.5752
  979MOL0     H32120   9.400   8.134   2.200 -0.1472  1.6029  1.3611
  979MOL0     H32121   9.438   8.315   1.957 -2.3106 -2.5752 -0.7414
  979MOL0     H32122   9.472   8.156   1.951 -1.3297 -0.0244 -0.1602
  979MOL0     H32123   9.675   8.159   2.073 -2.5375 -0.6984 -1.8028
  979MOL0     H32124   9.630   8.299   2.172 -1.4306 -2.1821  0.3917
  979MOL0     H32125   9.880   8.436   1.808 -1.1807  1.3906  0.1286
  979MOL0     H32126  10.111   8.464   1.848 -1.0862  0.8051 -0.0586
  979MOL0     H32127  10.406   8.703   1.888 -1.1962 -2.1935 -0.2016
  979MOL0     H32128  10.627   8.775   1.803  3.1455 -0.1435 -1.2759
  979MOL0     H32129  10.948   8.473   1.894 -4.0847 -0.4510 -0.4398
  979MOL0     H32130  11.044   8.601   1.812  1.6330  2.1934  3.0777
  979MOL0     H32131  10.972   8.775   1.970  0.0567  0.3949  1.2581
  979MOL0     H32132  10.898   8.640   2.064 -0.3668 -0.7081 -0.1676
  979MOL0     H32133  11.109   8.524   2.074 -2.8281  1.3360 -0.7166
  979MOL0     H32134  11.192   8.643   1.970  1.8896 -0.8135  0.4539
  979MOL0     H32135  11.083   8.647   2.253  0.9405 -0.0274 -0.5792
  979MOL0     H32136  11.099   8.805   2.167 -0.1737 -0.3625  0.5402
  979MOL0     H32137  11.337   8.733   2.113  2.2656 -0.0115  1.1119
  979MOL0     H32138  11.310   8.612   2.244  1.3203 -0.8343 -2.0970
  979MOL0     H32139  11.267   8.927   2.261  1.7360  1.3494 -0.9134
  979MOL0     H32140  11.250   8.823   2.393 -2.7469 -1.7870 -2.4181
  979MOL0     H32141  11.528   8.817   2.272  1.0341  0.2460  0.2371
  979MOL0     H32142  11.457   8.818   2.437  0.7934 -1.4225 -1.5321
  979MOL0     H32143  11.413   9.055   2.405 -2.9555 -0.3066 -1.9013
  979MOL0     H32144  11.579   9.025   2.373  0.1822 -1.3979  0.3159
  979MOL0     H32145  10.756   8.368   1.896 -1.0173 -0.9766  0.7766
  979MOL0     H32146  10.535   8.312   1.959  0.6029  0.5552  2.5886
  979MOL0     H32147  10.094   8.295   2.227  1.7010 -0.2588 -0.2114
  979MOL0     H32148   9.850   8.261   2.207  1.0499 -0.7058  0.8028
  979MOL0     H32149   7.863   8.463   1.986  1.8517  1.4103 -0.1416
  979MOL0     H32150   7.620   8.478   2.016 -1.5517  0.8874  1.2720
  979MOL0     H32151   7.333   8.337   2.435 -2.5630 -1.4438  1.6914
  979MOL0     H32152   7.112   8.336   2.519 -1.8141  0.6709  0.0313
  979MOL0     H32153   6.822   8.160   2.393  3.2373  0.8266 -0.1420
  979MOL0     H32154   6.834   8.207   2.224 -1.2614 -1.9224  0.7557
  979MOL0     H32155   6.661   8.396   2.294  3.9146  0.4661  1.5552
  979MOL0     H32156   6.632   8.298   2.432  0.9106 -0.4145 -0.4678
  979MOL0     H32157   6.633   8.151   2.160 -0.3011 -0.0807 -0.1892
  979MOL0     H32158   6.482   8.230   2.214 -1.1662 -2.0010  0.2465
  979MOL0     H32159   6.566   8.079   2.429  0.7959  2.7287 -0.4045
  979MOL0     H32160   6.432   8.048   2.309  0.1092 -0.5397 -0.5471
  979MOL0     H32161   6.729   7.794   2.175  1.5239  1.7614 -0.6049
  979MOL0     H32162   6.937   8.421   2.133  2.8309  0.9409 -2.1890
  979MOL0     H32163   7.104   8.521   1.969 -1.0307  0.7035  0.2999
  979MOL0     H32164   7.274   8.520   1.997  0.2210 -0.0499  0.8805
  979MOL0     H32165   7.188   8.377   1.929 -1.1104  0.8257 -0.8304
  980MOL0     O32166   5.108   6.378   4.987 -1.1844 -0.2950  0.1865
  980MOL0     C32167   5.067   6.469   5.052  0.5469  0.0920  0.4272
  980MOL0     O32168   5.138   6.583   5.082 -0.0435  0.0196  0.3854
  980MOL0     C32169   5.259   6.593   5.013 -0.9362 -0.3016 -0.2210
  980MOL0     C32170   5.277   6.595   4.871  0.4032 -1.1223 -0.5994
  980MOL0     C32171   5.403   6.611   4.816  0.0768  0.0756  0.4705
  980MOL0     C32172   5.519   6.618   4.890 -0.0153 -0.6297 -0.0592
  980MOL0     O32173   5.642   6.598   4.828  0.3783 -0.0930 -0.3039
  980MOL0     C32174   5.688   6.728   4.805 -0.3463  0.4402  0.7003
  980MOL0     C32175   5.828   6.714   4.751 -0.1651 -0.0441 -0.3070
  980MOL0     C32176   5.807   6.652   4.611 -0.7732 -0.2034  0.4489
  980MOL0     C32177   5.950   6.647   4.538  0.5236  0.3731 -0.1723
  980MOL0     C32178   6.052   6.548   4.592  0.7314  0.0658  0.0993
  980MOL0     C32179   6.000   6.404   4.612 -0.8226 -0.7600  0.1444
  980MOL0     C32180   6.090   6.322   4.710  0.4661  0.1823  0.2582
  980MOL0     C32181   6.213   6.278   4.641 -0.5368  1.1828  0.6260
  980MOL0     N32182   6.313   6.226   4.747  0.0592 -1.3016 -0.6862
  980MOL0     C32183   6.370   6.306   4.847 -0.5044 -0.0288  0.8432
  980MOL0     C32184   6.437   6.212   4.919 -0.7977  0.7777 -0.0284
  980MOL0     C32185   6.497   6.248   5.051 -0.0780 -0.0938  0.3236
  980MOL0     C32186   6.651   6.215   5.048 -0.7860  0.4676  0.3531
  980MOL0     C32187   6.735   6.324   4.977  0.3395  0.4406  0.1327
  980MOL0     C32188   6.883   6.283   4.972  0.1967 -0.2548  0.4479
  980MOL0     O32189   6.937   6.327   4.847  0.1415  1.1630  0.4147
  980MOL0     C32190   7.073   6.345   4.836  0.1167  0.5718  0.0231
  980MOL0     C32191   7.168   6.292   4.927  0.0500  0.1300 -0.3993
  980MOL0     C32192   7.307   6.322   4.919  0.9256 -0.2517  0.2306
  980MOL0     C32193   7.359   6.371   4.797  0.3939  0.4004  0.9948
  980MOL0     C32194   7.503   6.405   4.773 -0.0299  0.2003  0.3832
  980MOL0     O32195   7.552   6.418   4.641  0.0304 -0.0312  0.0874
  980MOL0     C32196   7.682   6.405   4.610 -0.1069 -0.3470 -0.0392
  980MOL0     C32197   7.747   6.289   4.666  0.3274 -0.2328  0.5840
  980MOL0     C32198   7.872   6.260   4.635 -0.2795  0.5117 -0.1372
  980MOL0     C32199   7.943   6.353   4.564 -0.3630 -0.5365 -0.3348
  980MOL0     O32200   8.073   6.331   4.530  0.1469 -0.0701 -0.0617
  980MOL0     C32201   8.131   6.196   4.526 -0.0880 -0.1153  0.5741
  980MOL0     C32202   8.237   6.184   4.416 -0.2389 -0.6623 -0.0113
  980MOL0     C32203   8.320   6.052   4.421  0.0256  0.2469  0.2101
  980MOL0     C32204   8.435   6.060   4.526  0.0831  0.3169 -0.4577
  980MOL0     C32205   8.527   5.937   4.512  0.0828 -0.1885  0.3752
  980MOL0     C32206   8.616   5.925   4.627 -0.3765  0.0890 -0.3647
  980MOL0     C32207   8.719   5.813   4.611  1.0194 -0.7575 -0.2401
  980MOL0     C32208   8.828   5.817   4.721  0.0183  0.0041  0.4994
  980MOL0    Cl32209   8.945   5.691   4.707  0.0795  0.2370 -0.2709
  980MOL0     C32210   7.887   6.467   4.509  0.0891  0.0012 -0.1827
  980MOL0     C32211   7.750   6.488   4.529  0.4583 -0.3307  0.3231
  980MOL0     O32212   7.574   6.398   4.872  0.1743 -0.6399 -0.1745
  980MOL0     C32213   7.260   6.411   4.700 -0.2328 -0.2817 -0.1210
  980MOL0     C32214   7.123   6.397   4.716 -0.3325 -0.0822 -0.3893
  980MOL0     N32215   6.449   6.092   4.846 -0.5829  0.3769 -0.6339
  980MOL0     N32216   6.372   6.105   4.747 -0.6303 -0.9385 -0.4552
  980MOL0     C32217   5.503   6.623   5.032 -0.0662 -0.0879 -0.3112
  980MOL0     C32218   5.373   6.619   5.092 -1.0265 -0.0592  0.7390
  980MOL0     C32219   4.937   6.436   5.113 -0.8692 -0.9218  0.3650
  980MOL0     C32220   4.913   6.505   5.233  0.2011  0.1366 -0.3095
  980MOL0     C32221   4.799   6.473   5.309  0.4483 -0.2118 -0.4513
  980MOL0     C32222   4.705   6.379   5.267 -0.2189 -0.0295  0.7139
  980MOL0     O32223   4.592   6.343   5.327  0.6818  0.2241 -0.1091
  980MOL0     C32224   4.563   6.398   5.457  0.7155 -0.6983 -0.5634
  980MOL0     C32225   4.649   6.328   5.560  0.1589 -0.2007  0.1038
  980MOL0     C32226   4.625   6.396   5.698 -0.7322 -0.8476  0.0078
  980MOL0     C32227   4.703   6.324   5.808  0.9655  0.0351 -0.0936
  980MOL0     C32228   4.683   6.409   5.922 -0.4980  0.1907  0.3486
  980MOL0     C32229   4.656   6.485   6.009 -0.5924 -0.4221  0.6973
  980MOL0     C32230   4.738   6.310   5.149  0.7941 -0.3065  0.2363
  980MOL0     C32231   4.852   6.331   5.073  0.1918 -0.2483  0.6989
  980MOL0     C32232   4.884   6.235   4.955  0.3236  0.0480  0.4015
  980MOL0     H32233   5.191   6.598   4.805  2.9791  3.6696 -4.4246
  980MOL0     H32234   5.411   6.618   4.708 -0.6468  3.3238  0.5343
  980MOL0     H32235   5.623   6.773   4.729 -1.7002 -0.8049  1.0462
  980MOL0     H32236   5.691   6.781   4.901  1.9914 -1.3396  1.7038
  980MOL0     H32237   5.876   6.652   4.827  0.9299  1.5633  0.3740
  980MOL0     H32238   5.885   6.807   4.744  1.7981 -1.1011  0.9137
  980MOL0     H32239   5.740   6.722   4.559 -0.3315 -0.5609 -0.6299
  980MOL0     H32240   5.775   6.548   4.619  1.3779 -1.0004 -0.4753
  980MOL0     H32241   5.928   6.617   4.435 -0.1600  0.1062  0.0481
  980MOL0     H32242   5.989   6.750   4.541  1.6609  0.0190 -1.5679
  980MOL0     H32243   6.137   6.539   4.522 -1.0585 -3.8615 -1.8804
  980MOL0     H32244   6.102   6.585   4.682  1.3489 -0.3596 -0.0547
  980MOL0     H32245   5.908   6.414   4.670 -1.3644 -3.8760 -0.0495
  980MOL0     H32246   5.982   6.361   4.513 -3.1016  0.3330  0.0214
  980MOL0     H32247   6.043   6.230   4.747  2.6711 -1.2219 -0.2280
  980MOL0     H32248   6.109   6.391   4.792 -1.1566  2.0582 -0.8508
  980MOL0     H32249   6.200   6.195   4.571  0.3960  0.5397  1.1880
  980MOL0     H32250   6.249   6.361   4.580 -1.2676  0.5247 -0.7421
  980MOL0     H32251   6.356   6.410   4.878 -0.8287  0.0500  0.4352
  980MOL0     H32252   6.482   6.354   5.072  1.7815  0.1884  0.3902
  980MOL0     H32253   6.444   6.186   5.124 -3.9760  2.3174 -0.1972
  980MOL0     H32254   6.670   6.209   5.155  0.9753  1.9283  0.1697
  980MOL0     H32255   6.675   6.116   5.009  0.0046  0.7215  0.1791
  980MOL0     H32256   6.719   6.419   5.029 -2.2709  0.0520  0.1723
  980MOL0     H32257   6.709   6.336   4.872  3.0858  2.0836 -0.4625
  980MOL0     H32258   6.901   6.175   4.972  1.1334 -0.1006  0.1824
  980MOL0     H32259   6.940   6.306   5.062 -0.2386 -0.4009  0.7648
  980MOL0     H32260   7.147   6.241   5.021 -0.6291 -1.6142 -1.4362
  980MOL0     H32261   7.377   6.301   4.999 -0.0243 -4.7096  0.1448
  980MOL0     H32262   7.700   6.214   4.730 -5.2465  0.7341 -1.8210
  980MOL0     H32263   7.901   6.165   4.678 -0.6498  0.3762 -0.1812
  980MOL0     H32264   8.178   6.175   4.623  3.7704  2.7954 -0.4060
  980MOL0     H32265   8.065   6.114   4.499  1.6090 -1.3764  0.0535
  980MOL0     H32266   8.184   6.176   4.321  1.1956  1.2624 -1.0465
  980MOL0     H32267   8.304   6.271   4.422 -0.1900 -0.6401 -0.8141
  980MOL0     H32268   8.252   5.975   4.458  0.0879  0.9673  1.9295
  980MOL0     H32269   8.360   6.030   4.321 -0.2296 -1.0165  0.3713
  980MOL0     H32270   8.397   6.048   4.628  2.6111 -3.0922  0.2344
  980MOL0     H32271   8.499   6.149   4.527  1.1563 -0.2071  4.5156
  980MOL0     H32272   8.571   5.942   4.412 -2.9897 -3.1865 -1.3349
  980MOL0     H32273   8.461   5.850   4.518 -0.2188  0.0642  0.7755
  980MOL0     H32274   8.667   6.021   4.636 -1.2073  0.3190  4.3254
  980MOL0     H32275   8.565   5.903   4.721  1.0337 -0.8503  0.2215
  980MOL0     H32276   8.767   5.817   4.512 -1.0226  0.3790 -1.2579
  980MOL0     H32277   8.664   5.719   4.622  0.6144 -0.3762  1.0990
  980MOL0     H32278   8.864   5.920   4.723 -3.2793  1.5280 -3.4354
  980MOL0     H32279   8.770   5.796   4.811 -2.8361  0.0901 -1.1954
  980MOL0     H32280   7.949   6.528   4.445  2.9417 -2.4000  0.0827
  980MOL0     H32281   7.702   6.571   4.479 -0.0081 -0.8357 -0.0734
  980MOL0     H32282   7.286   6.453   4.603 -1.9628 -4.3148 -2.5991
  980MOL0     H32283   7.064   6.421   4.627 -0.5345 -0.9824 -0.5083
  980MOL0     H32284   5.581   6.636   5.107 -2.0130 -2.8168  2.4206
  980MOL0     H32285   5.363   6.611   5.200 -0.0965 -0.8662  0.7751
  980MOL0     H32286   4.980   6.577   5.279 -0.8053  1.4442 -0.8070
  980MOL0     H32287   4.789   6.530   5.401 -0.8753  0.4163 -0.9531
  980MOL0     H32288   4.458   6.393   5.484  0.3783  1.1339 -1.3385
  980MOL0     H32289   4.569   6.507   5.454  0.1089 -0.6131  0.6884
  980MOL0     H32290   4.756   6.336   5.541 -0.1076 -0.1515 -1.5017
  980MOL0     H32291   4.617   6.223   5.558  1.6511 -0.6879  0.1724
  980MOL0     H32292   4.520   6.403   5.727 -0.7190 -1.8637  0.3538
  980MOL0     H32293   4.668   6.496   5.687  1.3229 -1.8838 -2.1299
  980MOL0     H32294   4.648   6.230   5.819 -1.8136  1.6419  0.8064
  980MOL0     H32295   4.808   6.308   5.783  0.8579  0.1112 -0.6175
  980MOL0     H32296   4.628   6.541   6.096 -2.2016 -3.6744  2.4826
  980MOL0     H32297   4.668   6.237   5.110 -0.3560  1.5337 -1.3519
  980MOL0     H32298   4.964   6.172   4.996  0.0973 -0.7417 -0.3446
  980MOL0     H32299   4.794   6.179   4.928  0.9152 -0.8424  0.2315
  980MOL0     H32300   4.921   6.284   4.865  2.5958  0.0546  1.2734
  981MOL0     O32301   5.441   8.765   9.366 -0.2658 -1.1561  0.0699
  981MOL0     C32302   5.495   8.786   9.480 -0.6706  0.0318 -0.6845
  981MOL0     O32303   5.624   8.765   9.506 -0.7682 -0.2790  0.4241
  981MOL0     C32304   5.695   8.682   9.415  0.1426 -0.9786 -0.0101
  981MOL0     C32305   5.712   8.546   9.440 -0.2205  0.2169 -0.4633
  981MOL0     C32306   5.786   8.473   9.352 -0.0462 -0.5654 -0.5388
  981MOL0     C32307   5.842   8.520   9.239 -0.5956 -0.2075 -0.7432
  981MOL0     O32308   5.918   8.433   9.155  0.8682 -0.1517 -0.2703
  981MOL0     C32309   5.963   8.474   9.027 -0.0126  0.0692  0.9675
  981MOL0     C32310   6.031   8.353   8.979  0.2894  0.6475 -0.2971
  981MOL0     C32311   6.115   8.362   8.854  0.1000 -0.3590  0.4663
  981MOL0     C32312   6.192   8.226   8.836 -0.6746 -0.9251  0.3628
  981MOL0     C32313   6.259   8.217   8.692  0.1548  0.3917  0.1882
  981MOL0     C32314   6.356   8.100   8.693 -0.0925 -0.4411 -0.0292
  981MOL0     C32315   6.438   8.105   8.559  0.8199  1.0754 -0.0955
  981MOL0     C32316   6.354   8.042   8.447 -0.5792 -0.5180  0.8124
  981MOL0     N32317   6.349   7.900   8.432 -0.5488  0.9999 -0.6501
  981MOL0     C32318   6.273   7.807   8.503  0.0242  0.8563  0.5851
  981MOL0     C32319   6.300   7.684   8.449  0.1052  0.0999  0.1419
  981MOL0     C32320   6.255   7.551   8.486 -0.3711  0.1144  0.4402
  981MOL0     C32321   6.115   7.521   8.518 -0.0570 -1.0868 -0.5101
  981MOL0     C32322   6.092   7.379   8.567  0.2757 -0.6539 -0.1574
  981MOL0     C32323   5.958   7.363   8.634  0.0590 -0.2341  0.0018
  981MOL0     O32324   5.850   7.396   8.545 -0.3543 -0.5667  0.1099
  981MOL0     C32325   5.725   7.385   8.596 -0.0250  0.1407  0.3490
  981MOL0     C32326   5.662   7.260   8.588 -0.1268 -0.2022  0.4525
  981MOL0     C32327   5.527   7.246   8.633  0.1014 -0.5288  0.3096
  981MOL0     C32328   5.446   7.353   8.668 -0.3159 -0.6978  0.9375
  981MOL0     C32329   5.303   7.351   8.724  0.2196  1.2528 -0.2863
  981MOL0     O32330   5.243   7.465   8.772  0.7551 -0.8271  0.2324
  981MOL0     C32331   5.113   7.470   8.816  0.5926 -0.2173  0.5453
  981MOL0     C32332   5.012   7.518   8.731 -0.3919  0.0260 -0.1200
  981MOL0     C32333   4.884   7.508   8.780 -0.1493 -0.4292 -0.2619
  981MOL0     C32334   4.849   7.469   8.904 -0.2979 -0.0701 -0.5824
  981MOL0     O32335   4.726   7.477   8.957  0.4785  0.2958  0.2400
  981MOL0     C32336   4.632   7.566   8.887  0.2554  0.7333 -0.3040
  981MOL0     C32337   4.510   7.604   8.972 -0.5979  0.1386  0.2347
  981MOL0     C32338   4.541   7.717   9.069 -0.4000  0.1246 -0.7198
  981MOL0     C32339   4.529   7.661   9.214 -0.3551  0.1359  0.9240
  981MOL0     C32340   4.573   7.744   9.334  0.7384  0.1475 -0.3354
  981MOL0     C32341   4.726   7.753   9.357 -0.7180 -0.4302 -0.3109
  981MOL0     C32342   4.775   7.640   9.452  0.5722 -0.9207  0.5332
  981MOL0     C32343   4.925   7.645   9.488 -0.3097 -0.2041  1.3571
  981MOL0    Cl32344   5.044   7.651   9.347  0.2061 -0.0939  0.1365
  981MOL0     C32345   4.948   7.422   8.989  0.2394 -0.6235  0.0466
  981MOL0     C32346   5.081   7.424   8.943 -0.5957 -0.1524 -0.0092
  981MOL0     O32347   5.247   7.245   8.709  0.0645 -0.2293  0.3277
  981MOL0     C32348   5.508   7.479   8.670 -0.5095 -0.1720  0.5469
  981MOL0     C32349   5.647   7.499   8.635  0.0853  0.3547 -0.1308
  981MOL0     N32350   6.406   7.706   8.366  0.9169  0.5593 -0.2449
  981MOL0     N32351   6.434   7.829   8.352  0.4889  0.1418  0.4306
  981MOL0     C32352   5.828   8.663   9.213 -0.2976 -0.1500  0.5477
  981MOL0     C32353   5.758   8.739   9.306 -0.4760  0.0095 -0.1884
  981MOL0     C32354   5.404   8.834   9.594  0.1825 -0.0718 -1.0428
  981MOL0     C32355   5.264   8.854   9.567 -0.5357  0.1315 -0.1011
  981MOL0     C32356   5.168   8.885   9.670 -0.1098 -0.7239 -0.0807
  981MOL0     C32357   5.212   8.913   9.807 -0.3961 -0.5252 -0.7800
  981MOL0     O32358   5.126   8.925   9.911  0.2311 -0.6192  1.0030
  981MOL0     C32359   5.130   8.818  10.010 -0.1606 -0.0666  0.2371
  981MOL0     C32360   5.055   8.860  10.141  0.0362 -0.3175  0.0246
  981MOL0     C32361   5.124   8.969  10.218 -0.5061 -0.3053  0.2774
  981MOL0     C32362   5.035   9.038  10.306  0.3092 -0.4843 -0.1660
  981MOL0     C32363   4.967   8.945  10.402 -0.3918 -0.3671  0.0034
  981MOL0     C32364   4.903   8.886  10.483  0.7027 -0.8473  0.0593
  981MOL0     C32365   5.355   8.916   9.826 -0.1799  0.4258 -0.0679
  981MOL0     C32366   5.444   8.872   9.726 -0.4049 -0.0127 -0.0681
  981MOL0     C32367   5.588   8.863   9.770 -0.4043 -0.5857  0.1639
  981MOL0     H32368   5.662   8.486   9.515  2.5498 -3.9756 -1.6289
  981MOL0     H32369   5.799   8.369   9.381 -0.6684 -0.1613  1.3336
  981MOL0     H32370   5.881   8.493   8.956  1.2513 -1.0083 -0.8810
  981MOL0     H32371   6.028   8.561   9.033  1.2741 -0.6780 -0.9775
  981MOL0     H32372   5.966   8.266   8.961 -0.7722  0.5061  3.2979
  981MOL0     H32373   6.101   8.326   9.059  2.3367  1.8045 -1.6273
  981MOL0     H32374   6.180   8.450   8.861  2.2353 -1.9656  2.4060
  981MOL0     H32375   6.048   8.371   8.769 -1.1311  2.4851  1.5959
  981MOL0     H32376   6.271   8.232   8.911  0.1561 -0.2610 -0.5386
  981MOL0     H32377   6.140   8.131   8.850 -1.0977 -1.0831 -1.8793
  981MOL0     H32378   6.175   8.197   8.625  1.1725  1.8343 -1.6165
  981MOL0     H32379   6.302   8.311   8.657  1.3332  1.2756  3.6778
  981MOL0     H32380   6.424   8.107   8.779 -1.0733 -1.8914  0.9043
  981MOL0     H32381   6.312   8.000   8.695  2.6712 -1.7774 -1.1129
  981MOL0     H32382   6.531   8.047   8.565  1.7153  2.5919  1.1357
  981MOL0     H32383   6.454   8.208   8.528 -0.9804  0.5911 -3.0173
  981MOL0     H32384   6.255   8.088   8.442 -0.1629  0.2968 -0.6728
  981MOL0     H32385   6.402   8.070   8.353  1.0109 -1.1259  1.4065
  981MOL0     H32386   6.195   7.824   8.577  0.5872  2.0581  0.9111
  981MOL0     H32387   6.293   7.494   8.401 -1.6665  0.1733 -0.2190
  981MOL0     H32388   6.312   7.534   8.577  1.5599 -2.1997 -1.1091
  981MOL0     H32389   6.089   7.596   8.594 -1.0562 -2.1153  0.1806
  981MOL0     H32390   6.051   7.533   8.431  1.1430  1.6119 -1.1409
  981MOL0     H32391   6.168   7.351   8.640 -0.9494 -1.6363  0.7923
  981MOL0     H32392   6.107   7.307   8.486  3.7434  1.7985 -1.9399
  981MOL0     H32393   5.951   7.434   8.717  0.6114 -0.6381  0.3924
  981MOL0     H32394   5.963   7.257   8.661  2.6390 -0.7453 -2.1112
  981MOL0     H32395   5.718   7.174   8.554 -0.0371 -0.0473  0.2053
  981MOL0     H32396   5.488   7.145   8.634  1.1150 -1.0740 -2.7123
  981MOL0     H32397   5.041   7.552   8.632  2.8927 -2.4016 -0.1706
  981MOL0     H32398   4.807   7.542   8.711 -2.2327  0.0310  2.1223
  981MOL0     H32399   4.674   7.658   8.845 -1.3952  1.8786  0.4598
  981MOL0     H32400   4.598   7.509   8.800  0.3976  2.1993 -1.3587
  981MOL0     H32401   4.441   7.640   8.895  2.9780 -0.6685 -3.8066
  981MOL0     H32402   4.455   7.518   9.011 -1.2680 -0.3036 -1.5743
  981MOL0     H32403   4.636   7.767   9.048  0.1972  0.5593  2.4638
  981MOL0     H32404   4.475   7.804   9.059  0.3010  0.8136  0.4017
  981MOL0     H32405   4.582   7.566   9.218  2.8576  1.6790 -1.3187
  981MOL0     H32406   4.424   7.633   9.226 -0.5356  0.7724  0.8855
  981MOL0     H32407   4.525   7.715   9.428 -0.8060 -3.0842 -1.9782
  981MOL0     H32408   4.534   7.843   9.309  1.5490  0.5579 -0.0075
  981MOL0     H32409   4.782   7.741   9.264 -1.4654 -2.3122 -0.5781
  981MOL0     H32410   4.752   7.849   9.403 -4.4284  0.0273  1.2007
  981MOL0     H32411   4.758   7.546   9.399  0.6662  0.1059 -1.3864
  981MOL0     H32412   4.711   7.635   9.541  1.2552 -0.3802  1.0739
  981MOL0     H32413   4.944   7.733   9.550  4.1500  1.0500 -1.3524
  981MOL0     H32414   4.954   7.553   9.540  2.4665  0.7909  1.7588
  981MOL0     H32415   4.924   7.405   9.094  4.7814  0.1402  1.4226
  981MOL0     H32416   5.169   7.394   8.998  1.3381  0.8933 -2.3806
  981MOL0     H32417   5.452   7.570   8.689  0.8010  1.1334 -1.4978
  981MOL0     H32418   5.681   7.602   8.646  0.1638  0.0786  3.3026
  981MOL0     H32419   5.866   8.713   9.125  0.8875 -3.2102 -0.8066
  981MOL0     H32420   5.736   8.843   9.284  0.6676  0.4993  0.8223
  981MOL0     H32421   5.223   8.838   9.468  0.9317  0.4042 -0.7853
  981MOL0     H32422   5.064   8.896   9.641 -0.0786  2.6558  0.6915
  981MOL0     H32423   5.234   8.797  10.036  0.0550 -1.3231 -1.4382
  981MOL0     H32424   5.085   8.727   9.968  0.7646 -0.8651  0.9349
  981MOL0     H32425   5.058   8.773  10.208 -0.5156  0.5044  1.1539
  981MOL0     H32426   4.951   8.885  10.119  0.3172  2.1134  1.1688
  981MOL0     H32427   5.180   9.040  10.156  1.4614 -0.9050  1.2849
  981MOL0     H32428   5.203   8.925  10.279  0.0812 -0.5845 -0.6587
  981MOL0     H32429   5.091   9.116  10.358  0.1945  0.6857 -1.7571
  981MOL0     H32430   4.956   9.094  10.256  2.4674 -0.8945 -4.4867
  981MOL0     H32431   4.831   8.834  10.543 -0.4611 -0.4246 -0.9272
  981MOL0     H32432   5.387   8.947   9.925 -2.7125 -0.0375  0.9609
  981MOL0     H32433   5.655   8.918   9.704 -1.3473 -0.1295 -0.4420
  981MOL0     H32434   5.589   8.884   9.877 -0.9264 -0.8128  0.2172
  981MOL0     H32435   5.619   8.759   9.768 -0.2684 -0.5729  1.2114
  982MOL0     O32436   9.997   6.927   3.424  0.0917 -0.1923  0.3551
  982MOL0     C32437  10.006   7.049   3.441  0.4569  0.1037 -0.5016
  982MOL0     O32438  10.118   7.121   3.482 -0.2082  0.0199 -0.3262
  982MOL0     C32439  10.239   7.064   3.506  0.4488  0.4656 -0.3133
  982MOL0     C32440  10.252   6.995   3.631  0.0074 -0.2319  0.3096
  982MOL0     C32441  10.373   6.943   3.667 -0.0991  0.7095 -0.2573
  982MOL0     C32442  10.485   6.952   3.580 -0.2191 -0.4064 -0.0673
  982MOL0     O32443  10.604   6.902   3.619  0.3484 -1.0802  0.1337
  982MOL0     C32444  10.625   6.776   3.559 -0.1588  0.3436 -0.0556
  982MOL0     C32445  10.765   6.732   3.618  0.3205 -0.0016  0.0261
  982MOL0     C32446  10.748   6.655   3.754  0.8640  0.3155  0.4209
  982MOL0     C32447  10.887   6.621   3.810  0.4866  0.4765  0.1011
  982MOL0     C32448  10.873   6.487   3.874  1.2041  0.1126 -0.6609
  982MOL0     C32449  11.011   6.456   3.933  0.6614 -0.1798 -0.4193
  982MOL0     C32450  11.010   6.309   3.984  0.0410 -0.8274  0.3687
  982MOL0     C32451  11.030   6.206   3.869 -0.0635  0.0646 -1.2178
  982MOL0     N32452  10.973   6.080   3.896  0.3401  0.3417 -0.1681
  982MOL0     C32453  10.840   6.048   3.854 -0.7881 -0.4114 -0.5535
  982MOL0     C32454  10.818   5.926   3.900  0.3107 -0.6013  0.2584
  982MOL0     C32455  10.692   5.848   3.903 -0.1496 -0.2264 -0.1741
  982MOL0     C32456  10.696   5.729   3.997 -1.0545 -0.6644  0.9592
  982MOL0     C32457  10.576   5.637   4.009  0.5371 -0.5340  0.5185
  982MOL0     C32458  10.532   5.596   3.865 -0.1115  0.4952 -0.5847
  982MOL0     O32459  10.407   5.522   3.863 -0.6028  0.1099 -0.4297
  982MOL0     C32460  10.295   5.597   3.843  0.1708 -0.0508  1.1910
  982MOL0     C32461  10.180   5.527   3.800 -0.5082 -0.4787  0.2535
  982MOL0     C32462  10.057   5.597   3.785  0.3323  0.2860  0.1985
  982MOL0     C32463  10.051   5.734   3.795 -0.3251  0.0234 -0.5087
  982MOL0     C32464   9.930   5.806   3.760  0.4188 -0.2775  0.7382
  982MOL0     O32465   9.834   5.728   3.707  0.4967 -0.4165  0.5644
  982MOL0     C32466   9.722   5.786   3.639 -0.3741 -0.7772  0.2122
  982MOL0     C32467   9.614   5.836   3.705 -0.6661 -0.3919  0.3286
  982MOL0     C32468   9.507   5.877   3.623 -0.6090 -0.4609 -0.1280
  982MOL0     C32469   9.501   5.864   3.484  0.0068 -0.0650 -1.0084
  982MOL0     O32470   9.392   5.906   3.405  0.0060  0.0276 -0.1240
  982MOL0     C32471   9.266   5.949   3.456 -0.4767  0.1137  1.2788
  982MOL0     C32472   9.167   5.992   3.352 -0.3327  0.1568  0.0571
  982MOL0     C32473   9.017   5.961   3.397 -1.4037  0.1663  0.2224
  982MOL0     C32474   8.913   5.944   3.281 -0.9837 -0.2546 -0.5833
  982MOL0     C32475   8.768   5.963   3.332  0.2395 -0.3498  0.3804
  982MOL0     C32476   8.719   5.852   3.420 -0.6062 -0.9937  0.4241
  982MOL0     C32477   8.577   5.889   3.479  0.0342  0.5384 -0.2449
  982MOL0     C32478   8.526   5.798   3.588 -0.3535 -0.4584  0.1351
  982MOL0    Cl32479   8.347   5.817   3.604 -1.0333 -0.0558 -0.2070
  982MOL0     C32480   9.620   5.821   3.425  0.0560  0.1740  0.1635
  982MOL0     C32481   9.728   5.784   3.496 -0.1479 -0.6317 -0.2726
  982MOL0     O32482   9.932   5.925   3.756 -0.4591 -0.6489 -0.1323
  982MOL0     C32483  10.172   5.801   3.836 -0.8467 -0.0739 -0.2852
  982MOL0     C32484  10.288   5.735   3.862 -0.1159 -1.4986  0.3467
  982MOL0     N32485  10.940   5.878   3.954  0.3919 -0.1476  0.2561
  982MOL0     N32486  11.034   5.970   3.951 -0.4695  0.2675 -1.4871
  982MOL0     C32487  10.470   7.014   3.460  0.4498  0.2284  0.5499
  982MOL0     C32488  10.352   7.076   3.419 -0.2961 -0.3393  0.1754
  982MOL0     C32489   9.878   7.121   3.416  0.3067  0.2316  0.0474
  982MOL0     C32490   9.758   7.043   3.420 -0.3937 -0.3944  0.9056
  982MOL0     C32491   9.631   7.101   3.391 -0.5188 -0.0772 -0.4041
  982MOL0     C32492   9.626   7.234   3.361  0.0756  0.7172  0.0370
  982MOL0     O32493   9.507   7.299   3.336  0.1491 -0.3605 -0.2908
  982MOL0     C32494   9.377   7.236   3.364  0.6651  0.1485 -0.3410
  982MOL0     C32495   9.256   7.333   3.347  0.3343  0.6703 -0.6910
  982MOL0     C32496   9.106   7.289   3.384 -0.9771  0.2007 -0.0631
  982MOL0     C32497   9.015   7.410   3.402  0.8197 -0.1037 -0.6863
  982MOL0     C32498   8.993   7.480   3.275  0.3412 -0.8233 -0.2118
  982MOL0     C32499   8.955   7.531   3.167 -0.8597  1.0502  0.2682
  982MOL0     C32500   9.740   7.304   3.343 -0.4971  0.1848  0.4190
  982MOL0     C32501   9.867   7.255   3.370  1.5736  0.5593 -0.1622
  982MOL0     C32502   9.987   7.344   3.331 -0.8912 -0.0278  0.7911
  982MOL0     H32503  10.167   7.005   3.698  0.8166 -0.5011  1.3991
  982MOL0     H32504  10.387   6.896   3.764  1.8688 -0.9925 -1.2944
  982MOL0     H32505  10.550   6.701   3.584  0.6202 -0.3302  0.3126
  982MOL0     H32506  10.639   6.765   3.451  0.2966 -4.4450  0.2747
  982MOL0     H32507  10.831   6.818   3.638  2.9557 -1.9602  0.2743
  982MOL0     H32508  10.811   6.668   3.542 -0.6394  2.4082 -2.8148
  982MOL0     H32509  10.700   6.559   3.735  0.8080  0.3901  0.1829
  982MOL0     H32510  10.680   6.711   3.819  1.5344  1.6089  0.0386
  982MOL0     H32511  10.962   6.608   3.731 -0.6825 -1.3337 -0.7697
  982MOL0     H32512  10.910   6.700   3.883  4.2979 -1.2808  1.0416
  982MOL0     H32513  10.794   6.488   3.950 -0.9369  0.4649 -2.7731
  982MOL0     H32514  10.851   6.420   3.791 -0.4369  0.7640 -0.7946
  982MOL0     H32515  11.085   6.470   3.854  0.8622 -1.2483 -0.4397
  982MOL0     H32516  11.034   6.532   4.009 -0.1485  0.6051 -0.9371
  982MOL0     H32517  10.908   6.293   4.022 -0.8309  0.4802 -1.2413
  982MOL0     H32518  11.089   6.303   4.059  1.4796  2.7562 -0.6325
  982MOL0     H32519  10.964   6.242   3.790 -1.3557 -0.1780 -0.2679
  982MOL0     H32520  11.135   6.192   3.840 -0.0397 -0.7022 -0.7876
  982MOL0     H32521  10.774   6.112   3.797  0.2605  3.8834  2.4682
  982MOL0     H32522  10.614   5.912   3.945  0.1992  1.3193 -1.7576
  982MOL0     H32523  10.676   5.829   3.796  0.3338  1.5917 -0.5903
  982MOL0     H32524  10.791   5.677   3.978 -0.5969  0.4641  0.0140
  982MOL0     H32525  10.713   5.767   4.098 -0.3103 -0.7378  0.8673
  982MOL0     H32526  10.506   5.688   4.076  1.4572  0.2157  0.9455
  982MOL0     H32527  10.600   5.553   4.075  3.2548 -0.5939 -0.4011
  982MOL0     H32528  10.608   5.523   3.836 -0.3756 -0.9565  2.0650
  982MOL0     H32529  10.519   5.673   3.789 -1.7722  0.5082 -0.3357
  982MOL0     H32530  10.194   5.422   3.777 -2.4843 -0.6017 -0.6248
  982MOL0     H32531   9.964   5.546   3.764 -0.6871  2.2846 -0.3921
  982MOL0     H32532   9.607   5.843   3.813  0.6413  0.8971  0.3504
  982MOL0     H32533   9.413   5.909   3.667  0.7867  1.9954  1.2926
  982MOL0     H32534   9.228   5.863   3.513  2.4325 -2.7118 -0.7200
  982MOL0     H32535   9.286   6.035   3.519 -2.6806 -0.1533  2.4505
  982MOL0     H32536   9.170   6.095   3.316  2.8967 -0.1773 -0.9384
  982MOL0     H32537   9.183   5.921   3.270  0.1502  0.3413 -0.0114
  982MOL0     H32538   9.017   5.869   3.455 -0.9917  0.7939  1.2520
  982MOL0     H32539   8.988   6.030   3.477 -0.5045 -0.0840  0.7740
  982MOL0     H32540   8.935   5.852   3.226  1.5686 -0.2205  0.2760
  982MOL0     H32541   8.929   6.020   3.204 -1.2964 -1.5437 -1.9679
  982MOL0     H32542   8.711   5.957   3.239  1.0968 -0.5181 -0.1371
  982MOL0     H32543   8.758   6.059   3.384  1.1151 -0.3592  0.5806
  982MOL0     H32544   8.715   5.759   3.364  1.4686  0.0921 -1.7180
  982MOL0     H32545   8.795   5.849   3.499 -0.8536 -0.7539  0.6712
  982MOL0     H32546   8.508   5.888   3.394  0.9539 -1.1769 -1.0306
  982MOL0     H32547   8.572   5.992   3.516 -1.0494  0.7096 -0.8148
  982MOL0     H32548   8.545   5.694   3.561  0.8478  0.1326 -1.4039
  982MOL0     H32549   8.586   5.817   3.678  2.0767 -2.1371 -1.0123
  982MOL0     H32550   9.617   5.824   3.316 -1.2862  1.3333  0.2064
  982MOL0     H32551   9.818   5.739   3.457 -0.8456 -1.6024 -0.8012
  982MOL0     H32552  10.172   5.908   3.856  2.1747  0.2307 -1.4336
  982MOL0     H32553  10.372   5.793   3.900 -1.4084  0.7447  0.0001
  982MOL0     H32554  10.549   7.021   3.386  0.3807  0.4520  0.4976
  982MOL0     H32555  10.341   7.140   3.331 -2.1524  1.1582  1.4216
  982MOL0     H32556   9.762   6.935   3.434  1.2076 -0.4528  0.1449
  982MOL0     H32557   9.540   7.043   3.374 -0.1410 -0.4481 -1.2226
  982MOL0     H32558   9.381   7.196   3.466  0.2356  2.3348  0.5923
  982MOL0     H32559   9.362   7.155   3.292  2.2745  0.8731 -1.5498
  982MOL0     H32560   9.258   7.364   3.242 -1.1509 -1.3730 -1.3966
  982MOL0     H32561   9.283   7.418   3.410 -0.6007 -0.5516  1.4858
  982MOL0     H32562   9.104   7.237   3.480 -3.5666  0.0131 -0.1544
  982MOL0     H32563   9.070   7.216   3.311 -1.0438 -1.5513  1.6531
  982MOL0     H32564   8.913   7.377   3.428 -0.1834  1.4208 -2.4268
  982MOL0     H32565   9.044   7.478   3.482 -1.9356 -2.1830  2.3630
  982MOL0     H32566   8.919   7.567   3.073  1.2291  1.3938 -0.4490
  982MOL0     H32567   9.721   7.404   3.305 -0.1639 -0.4152 -1.3917
  982MOL0     H32568   9.947   7.429   3.275 -3.3392  0.0044  2.4033
  982MOL0     H32569  10.055   7.374   3.411 -0.6025  0.3672  0.3996
  982MOL0     H32570  10.043   7.294   3.251 -2.0027  3.7443 -2.7053
  983MOL0     O32571   5.666  10.752  11.276 -1.1500 -0.9584 -0.5129
  983MOL0     C32572   5.655  10.748  11.398 -0.1297 -0.0957 -1.1078
  983MOL0     O32573   5.746  10.696  11.487  0.0011  0.2331 -0.1638
  983MOL0     C32574   5.866  10.634  11.453  0.6519  0.4018 -0.2014
  983MOL0     C32575   5.948  10.674  11.342 -0.6857 -0.4762 -0.0419
  983MOL0     C32576   6.062  10.608  11.311 -0.1047 -0.4170  0.3978
  983MOL0     C32577   6.106  10.492  11.380 -0.5433  0.9353  1.1979
  983MOL0     O32578   6.221  10.431  11.331 -0.3253  0.1825  0.1492
  983MOL0     C32579   6.272  10.317  11.401 -0.1348  0.3062  1.0027
  983MOL0     C32580   6.333  10.215  11.308  0.8085  0.0035  0.6169
  983MOL0     C32581   6.427  10.280  11.206 -0.1285 -0.2150 -0.6450
  983MOL0     C32582   6.535  10.174  11.167 -0.3436  0.1866  0.4852
  983MOL0     C32583   6.605  10.231  11.033 -0.1531  0.4894 -0.5547
  983MOL0     C32584   6.722  10.147  10.991  0.1605 -0.5489  0.5073
  983MOL0     C32585   6.798  10.226  10.887  0.6095  0.6874 -1.1155
  983MOL0     C32586   6.838  10.131  10.769  0.0773  0.3892 -0.2271
  983MOL0     N32587   6.946  10.038  10.817 -0.2171  0.5992  0.0074
  983MOL0     C32588   7.071  10.033  10.757 -0.0686  0.5223 -0.0628
  983MOL0     C32589   7.124   9.912  10.799 -0.5951  0.3850 -0.3375
  983MOL0     C32590   7.256   9.848  10.759  0.3419  0.2027  0.1051
  983MOL0     C32591   7.377   9.925  10.805  0.4380  0.1855 -0.0901
  983MOL0     C32592   7.504   9.832  10.795  0.0015 -0.1692  0.1250
  983MOL0     C32593   7.626   9.887  10.849  0.0938 -0.1501  0.0215
  983MOL0     O32594   7.625   9.884  10.996 -0.4166  0.5802 -0.2943
  983MOL0     C32595   7.733   9.932  11.064 -0.0423 -0.6182 -0.9513
  983MOL0     C32596   7.743   9.904  11.199 -0.0585 -0.0673 -0.5050
  983MOL0     C32597   7.843   9.958  11.283 -0.4575  0.6721 -0.3139
  983MOL0     C32598   7.947  10.036  11.230  0.8615  0.8284  0.9426
  983MOL0     C32599   8.048  10.100  11.315 -0.4830 -0.5584 -0.2970
  983MOL0     O32600   8.006  10.109  11.449  0.3075 -0.2033  0.6087
  983MOL0     C32601   8.092  10.175  11.535  0.0213  0.6538  0.1809
  983MOL0     C32602   8.227  10.134  11.560  0.7359 -0.1459 -0.8228
  983MOL0     C32603   8.297  10.184  11.662 -0.3208  0.4820 -1.0083
  983MOL0     C32604   8.254  10.293  11.741 -1.0081  0.0869  0.4724
  983MOL0     O32605   8.322  10.352  11.851 -0.2570 -0.6316 -0.3186
  983MOL0     C32606   8.448  10.294  11.891 -1.0098 -0.3751 -0.4556
  983MOL0     C32607   8.513  10.356  12.014  0.4621 -0.1106  0.2047
  983MOL0     C32608   8.651  10.293  12.037 -0.2088 -0.2319 -0.2040
  983MOL0     C32609   8.656  10.146  12.091 -0.2263 -0.0448  0.6055
  983MOL0     C32610   8.801  10.090  12.088 -0.0554 -1.1040 -0.2617
  983MOL0     C32611   8.816   9.964  12.170 -0.1077  0.3873 -0.0985
  983MOL0     C32612   8.960   9.922  12.178  0.1975  0.1147 -0.3901
  983MOL0     C32613   9.008   9.852  12.049 -0.5195  0.1161 -0.5464
  983MOL0    Cl32614   8.919   9.698  12.019 -0.3807 -0.3478  0.3421
  983MOL0     C32615   8.125  10.344  11.711 -0.3555 -0.0070 -0.3412
  983MOL0     C32616   8.049  10.283  11.610 -0.0797 -1.2555  0.0978
  983MOL0     O32617   8.152  10.150  11.268  0.4645  0.6597  0.0031
  983MOL0     C32618   7.944  10.057  11.086 -0.6989  0.6933 -0.2013
  983MOL0     C32619   7.838  10.010  11.009  0.0786 -0.0077 -0.4623
  983MOL0     N32620   7.030   9.853  10.873  0.0709  0.2751 -0.4084
  983MOL0     N32621   6.933   9.926  10.888  0.1493 -0.5967  0.1607
  983MOL0     C32622   6.024  10.447  11.488  0.2964  0.0607  0.1031
  983MOL0     C32623   5.910  10.523  11.532  0.2433 -0.1849  0.6022
  983MOL0     C32624   5.518  10.782  11.445 -0.1326  0.4550 -0.5428
  983MOL0     C32625   5.450  10.885  11.378  1.1412  0.2083 -0.9400
  983MOL0     C32626   5.322  10.927  11.421  0.9691 -0.1200  0.4660
  983MOL0     C32627   5.251  10.856  11.519 -1.1132 -0.9746 -0.0087
  983MOL0     O32628   5.118  10.887  11.557  0.1231  0.4394  0.6704
  983MOL0     C32629   5.028  10.970  11.480  0.5519  0.1140 -0.4118
  983MOL0     C32630   4.876  10.964  11.533 -0.7354 -0.6720  0.3285
  983MOL0     C32631   4.859  10.987  11.683 -0.7825 -0.5233 -0.1194
  983MOL0     C32632   4.716  10.955  11.728 -0.1207  0.0151 -0.2139
  983MOL0     C32633   4.639  11.085  11.734 -0.0868 -0.8183  0.2460
  983MOL0     C32634   4.580  11.192  11.748 -0.0029 -0.1256 -0.1793
  983MOL0     C32635   5.320  10.769  11.595 -0.3292 -0.5688 -0.1765
  983MOL0     C32636   5.454  10.725  11.564 -0.5517 -0.2748  0.4071
  983MOL0     C32637   5.512  10.619  11.642  1.3414  0.4296  0.7432
  983MOL0     H32638   5.928  10.755  11.273  0.9734  0.4069  0.4528
  983MOL0     H32639   6.109  10.637  11.217 -0.2867 -3.7044 -0.8443
  983MOL0     H32640   6.352  10.352  11.467 -0.3186  0.1457  1.3147
  983MOL0     H32641   6.195  10.272  11.464 -1.5116  0.5129 -0.4719
  983MOL0     H32642   6.265  10.155  11.246  1.0534  2.0879 -1.8761
  983MOL0     H32643   6.398  10.148  11.366  0.0425 -1.0362  0.3113
  983MOL0     H32644   6.485  10.361  11.252 -1.9496 -0.2906  1.9550
  983MOL0     H32645   6.381  10.314  11.113  3.4302 -2.6886 -3.6235
  983MOL0     H32646   6.602  10.166  11.253 -5.3714 -2.9157  4.6905
  983MOL0     H32647   6.483  10.079  11.152 -1.1881  0.4894  1.4255
  983MOL0     H32648   6.522  10.232  10.961 -2.4871 -0.2912  1.9646
  983MOL0     H32649   6.639  10.333  11.052 -1.0872  0.7275 -0.1224
  983MOL0     H32650   6.792  10.126  11.072 -1.2872  1.2702  2.3415
  983MOL0     H32651   6.692  10.052  10.946 -1.4134 -0.6667  1.6898
  983MOL0     H32652   6.883  10.274  10.937  1.1363 -0.3791 -0.9537
  983MOL0     H32653   6.743  10.312  10.847 -1.6740  1.0276  2.3318
  983MOL0     H32654   6.756  10.060  10.750 -0.8622  1.1214  0.9457
  983MOL0     H32655   6.858  10.182  10.675  0.2319 -0.6018 -0.7447
  983MOL0     H32656   7.118  10.109  10.696  1.5157  0.6470  1.2336
  983MOL0     H32657   7.256   9.748  10.803  1.9479  0.5229  0.9031
  983MOL0     H32658   7.260   9.840  10.650 -0.4907  0.3539  0.0580
  983MOL0     H32659   7.385  10.023  10.757 -0.4239  0.0186 -0.5979
  983MOL0     H32660   7.378   9.939  10.913  2.0145 -2.5487  0.3475
  983MOL0     H32661   7.529   9.807  10.692  1.6818  0.5971  0.3096
  983MOL0     H32662   7.487   9.738  10.848  0.8379  0.3462  1.3826
  983MOL0     H32663   7.644   9.983  10.800  0.9052 -0.1934  0.2198
  983MOL0     H32664   7.710   9.823  10.819  0.0608 -1.6224  2.7496
  983MOL0     H32665   7.662   9.847  11.244 -1.3238  1.9215 -0.1443
  983MOL0     H32666   7.818   9.939  11.387 -0.4285 -1.0073 -0.5802
  983MOL0     H32667   8.260  10.052  11.497 -2.1811  0.5801 -3.5900
  983MOL0     H32668   8.389  10.133  11.688  0.8643  3.5247  1.4429
  983MOL0     H32669   8.427  10.189  11.910 -0.1701 -0.4611  0.0517
  983MOL0     H32670   8.515  10.299  11.805  1.2233 -0.5739  1.1906
  983MOL0     H32671   8.521  10.465  12.003 -3.9515  0.7820  3.3538
  983MOL0     H32672   8.447  10.331  12.098  0.9413  0.2345  0.6942
  983MOL0     H32673   8.704  10.300  11.942 -1.6227  1.1725 -0.9425
  983MOL0     H32674   8.704  10.364  12.101 -1.4653  2.3051 -1.8133
  983MOL0     H32675   8.584  10.082  12.038  0.4953 -2.9451  2.8639
  983MOL0     H32676   8.621  10.146  12.195  0.9075 -0.2207  0.9928
  983MOL0     H32677   8.872  10.164  12.127 -0.7835 -0.1870 -0.6211
  983MOL0     H32678   8.824  10.070  11.983  0.3236  1.7873 -0.8210
  983MOL0     H32679   8.785   9.986  12.273  0.3656  0.4410  0.0351
  983MOL0     H32680   8.752   9.884  12.132 -0.2901  0.2778  0.4290
  983MOL0     H32681   8.972   9.849  12.259  0.2755 -0.1533 -0.6389
  983MOL0     H32682   9.025  10.008  12.195 -0.6185  0.4200  1.2630
  983MOL0     H32683   8.990   9.914  11.960  1.5442 -0.1595 -1.2260
  983MOL0     H32684   9.116   9.834  12.059 -0.7853 -0.7727  1.0975
  983MOL0     H32685   8.085  10.434  11.756  1.3232  0.5669  0.0884
  983MOL0     H32686   7.954  10.333  11.593  1.5065  2.2534  0.6438
  983MOL0     H32687   8.018  10.122  11.040 -0.0472 -1.3283 -2.1988
  983MOL0     H32688   7.854  10.027  10.903  1.6443  0.6448 -0.1481
  983MOL0     H32689   6.035  10.353  11.541 -1.9801 -1.4982 -1.9465
  983MOL0     H32690   5.852  10.504  11.622  1.0152 -0.4654  1.0453
  983MOL0     H32691   5.507  10.934  11.300  0.8574 -1.9183 -2.5715
  983MOL0     H32692   5.273  11.009  11.369  4.1967  0.9557 -1.1318
  983MOL0     H32693   5.028  10.941  11.375  0.3200 -1.1616 -0.0705
  983MOL0     H32694   5.070  11.069  11.498  2.2195 -0.8702  1.5509
  983MOL0     H32695   4.819  10.874  11.510 -0.6384 -1.1819  1.9500
  983MOL0     H32696   4.825  11.047  11.483  2.2396  1.1425  0.0923
  983MOL0     H32697   4.880  11.089  11.716 -2.4316  1.2294 -3.8805
  983MOL0     H32698   4.925  10.916  11.734  0.0403 -0.0568 -0.5209
  983MOL0     H32699   4.675  10.878  11.663  1.7206 -0.3825 -0.9784
  983MOL0     H32700   4.725  10.918  11.830  2.7093  1.1404  0.0446
  983MOL0     H32701   4.533  11.288  11.757 -0.2311 -0.2858  0.3722
  983MOL0     H32702   5.260  10.723  11.673 -1.3286  2.0002  0.6613
  983MOL0     H32703   5.437  10.561  11.696  1.6999  1.3433  2.2901
  983MOL0     H32704   5.573  10.547  11.586  0.6404 -0.5593  1.2199
  983MOL0     H32705   5.588  10.656  11.712  2.3516 -0.5626  0.2139
  984MOL0     O32706   1.197   0.823   5.931 -0.0090 -0.9187  0.0038
  984MOL0     C32707   1.103   0.849   6.011  0.3741 -0.1045  0.1646
  984MOL0     O32708   1.110   0.854   6.146  0.1296 -0.1527 -0.2029
  984MOL0     C32709   1.222   0.831   6.217 -0.6482  0.0691  0.7025
  984MOL0     C32710   1.232   0.873   6.352  0.1714 -0.7432  0.6353
  984MOL0     C32711   1.346   0.854   6.435 -0.3729  0.2359  0.7330
  984MOL0     C32712   1.453   0.771   6.380 -0.2173  0.1933  0.5257
  984MOL0     O32713   1.543   0.733   6.478  1.0536 -0.1854  0.2388
  984MOL0     C32714   1.672   0.694   6.445  0.2612 -0.0034 -0.7558
  984MOL0     C32715   1.754   0.804   6.365  1.1377 -0.9611 -0.0137
  984MOL0     C32716   1.901   0.765   6.349  1.0412  0.2643 -0.1628
  984MOL0     C32717   1.946   0.785   6.208 -0.0542  1.0228 -0.1450
  984MOL0     C32718   2.088   0.717   6.194  0.5581  0.1760  0.4517
  984MOL0     C32719   2.124   0.738   6.041 -0.1335  0.3784 -0.5335
  984MOL0     C32720   2.249   0.659   5.998  0.0751 -0.1917  0.0514
  984MOL0     C32721   2.380   0.706   6.057 -0.4529 -1.9391  0.0468
  984MOL0     N32722   2.450   0.809   5.976  0.9548  0.0813 -0.5005
  984MOL0     C32723   2.503   0.793   5.852  0.1332  0.0080  0.5082
  984MOL0     C32724   2.569   0.915   5.823  0.1133 -0.8037 -0.4573
  984MOL0     C32725   2.626   0.946   5.688  0.3698 -0.9414 -0.6285
  984MOL0     C32726   2.765   0.994   5.692 -0.7814  0.0995 -0.6611
  984MOL0     C32727   2.800   1.067   5.563 -0.3419  0.3460  0.4810
  984MOL0     C32728   2.951   1.092   5.541  0.8291  0.6242  0.6071
  984MOL0     O32729   2.999   1.188   5.643  0.3340  0.6351  0.4220
  984MOL0     C32730   3.107   1.277   5.620  0.2366  0.4503 -0.1189
  984MOL0     C32731   3.159   1.326   5.742 -0.0404 -0.2124 -0.3404
  984MOL0     C32732   3.285   1.390   5.736  0.0618 -0.2131 -0.3390
  984MOL0     C32733   3.332   1.438   5.614 -0.5857 -0.3475  0.0567
  984MOL0     C32734   3.450   1.533   5.617  0.1335  1.1432 -0.1890
  984MOL0     O32735   3.530   1.543   5.732  0.4366  0.1901 -0.1476
  984MOL0     C32736   3.636   1.636   5.731 -0.5458  1.0350  0.4223
  984MOL0     C32737   3.607   1.771   5.713  1.0699 -0.2492  0.5186
  984MOL0     C32738   3.722   1.865   5.709  0.0058  1.0081 -0.5743
  984MOL0     C32739   3.853   1.816   5.736  0.2751  1.0049  0.5826
  984MOL0     O32740   3.970   1.881   5.751 -0.0447  0.1818  0.7023
  984MOL0     C32741   3.955   2.021   5.774 -0.2215  1.1879 -0.0126
  984MOL0     C32742   4.077   2.071   5.852 -0.6019 -0.5180  0.0004
  984MOL0     C32743   4.203   2.050   5.776  0.1495  0.9227  0.1867
  984MOL0     C32744   4.306   2.128   5.841 -0.1831 -0.9129 -0.4094
  984MOL0     C32745   4.432   2.101   5.763 -0.5208 -0.8453 -0.4912
  984MOL0     C32746   4.536   2.217   5.790  0.6418  0.2671 -0.2249
  984MOL0     C32747   4.669   2.187   5.724 -0.4506  0.5231 -0.1923
  984MOL0     C32748   4.753   2.116   5.820  0.1803  0.0389 -0.3721
  984MOL0    Cl32749   4.906   2.074   5.732 -0.8594  0.1295 -0.4977
  984MOL0     C32750   3.868   1.688   5.762  0.0429 -0.6096 -0.0036
  984MOL0     C32751   3.765   1.594   5.751  0.3568  0.0593  0.3912
  984MOL0     O32752   3.464   1.596   5.512  0.4086  0.2115 -0.0123
  984MOL0     C32753   3.276   1.395   5.494  0.2794  0.1897 -0.1353
  984MOL0     C32754   3.157   1.310   5.491 -0.2060 -0.9030  0.2171
  984MOL0     N32755   2.532   1.008   5.925  0.8200  0.1927 -0.2192
  984MOL0     N32756   2.449   0.944   6.006 -0.7293  0.3033 -0.6825
  984MOL0     C32757   1.444   0.726   6.250 -0.1494  0.0743 -0.0608
  984MOL0     C32758   1.333   0.757   6.169 -0.1474  0.2265  0.3731
  984MOL0     C32759   0.965   0.871   5.948 -0.1767  0.4653 -0.6054
  984MOL0     C32760   0.845   0.840   6.025 -0.4955  0.2221  0.2004
  984MOL0     C32761   0.719   0.848   5.975 -0.2431  0.7234  0.3412
  984MOL0     C32762   0.694   0.900   5.846  0.3637  0.2986 -0.7672
  984MOL0     O32763   0.571   0.907   5.790 -0.5187  0.1406  0.0877
  984MOL0     C32764   0.455   0.881   5.864 -0.0003  0.7707  0.3105
  984MOL0     C32765   0.426   0.729   5.861  0.5471 -0.3582  0.1514
  984MOL0     C32766   0.415   0.675   5.714 -0.2351 -0.1450 -0.5642
  984MOL0     C32767   0.278   0.594   5.701 -0.6796  0.2913 -0.0521
  984MOL0     C32768   0.254   0.553   5.563 -0.2754  1.3485 -0.3528
  984MOL0     C32769   0.243   0.519   5.448 -0.2137 -0.2679 -0.2754
  984MOL0     C32770   0.802   0.933   5.769 -0.1589  0.3675 -0.2969
  984MOL0     C32771   0.942   0.917   5.814  0.1036  0.0113  0.6415
  984MOL0     C32772   1.044   0.965   5.731 -0.2688 -0.9803  1.1256
  984MOL0     H32773   1.141   0.916   6.394 -0.7026 -0.4334 -1.4828
  984MOL0     H32774   1.337   0.889   6.537  0.4598  0.6024  0.6891
  984MOL0     H32775   1.723   0.667   6.537 -0.2071  0.4765 -0.3482
  984MOL0     H32776   1.666   0.604   6.384 -5.0428 -0.6774  0.2851
  984MOL0     H32777   1.753   0.897   6.422 -0.8628 -0.2442 -1.1063
  984MOL0     H32778   1.704   0.829   6.271 -0.1753 -0.6356  0.7525
  984MOL0     H32779   1.909   0.657   6.366  2.8005 -0.0491 -2.5042
  984MOL0     H32780   1.965   0.818   6.420  1.5276  2.7033 -2.2927
  984MOL0     H32781   1.877   0.731   6.142  1.7706 -2.6035  0.6222
  984MOL0     H32782   1.954   0.889   6.176 -0.8411  0.4518 -2.4013
  984MOL0     H32783   2.155   0.754   6.272  0.5015 -0.1395  0.6524
  984MOL0     H32784   2.081   0.608   6.201  1.5119  0.1238  0.7084
  984MOL0     H32785   2.038   0.705   5.982 -0.2762  1.7666 -1.1334
  984MOL0     H32786   2.143   0.845   6.027  1.7745  0.2527  0.6620
  984MOL0     H32787   2.254   0.651   5.889 -0.2373 -2.4218  0.1454
  984MOL0     H32788   2.230   0.554   6.019  1.0378 -0.8070 -1.8802
  984MOL0     H32789   2.363   0.740   6.159  3.7609 -0.2466  0.3934
  984MOL0     H32790   2.456   0.628   6.068  2.1365  0.2343 -1.3502
  984MOL0     H32791   2.509   0.698   5.800 -2.9188  0.5222 -1.0240
  984MOL0     H32792   2.619   0.862   5.619 -2.2750  0.6943 -2.5480
  984MOL0     H32793   2.557   1.015   5.638 -0.7974 -1.8172 -0.2705
  984MOL0     H32794   2.776   1.058   5.781 -0.2469  0.4917 -1.0003
  984MOL0     H32795   2.824   0.903   5.706  1.3954  1.0899 -2.6446
  984MOL0     H32796   2.733   1.153   5.565 -1.5960 -0.5537 -0.6029
  984MOL0     H32797   2.768   0.989   5.493 -0.0903  0.3688  0.3442
  984MOL0     H32798   2.978   1.112   5.437  3.3487  2.9059  1.5656
  984MOL0     H32799   2.990   0.992   5.561 -2.4243 -0.8515  0.1044
  984MOL0     H32800   3.114   1.295   5.835  0.6951 -0.7390 -0.1602
  984MOL0     H32801   3.347   1.411   5.823  2.3145 -0.7614 -1.7352
  984MOL0     H32802   3.506   1.810   5.704  0.8537 -0.7129  0.9227
  984MOL0     H32803   3.704   1.972   5.699  2.5376  2.0068  3.2021
  984MOL0     H32804   3.942   2.073   5.679 -0.6332  2.3609  0.6533
  984MOL0     H32805   3.866   2.060   5.824 -1.2252  0.7264 -1.3967
  984MOL0     H32806   4.059   2.178   5.869  2.2178 -0.3256  2.4704
  984MOL0     H32807   4.091   2.039   5.955  0.6499  0.2438  0.0844
  984MOL0     H32808   4.228   1.944   5.790  6.1734  2.1449  1.6935
  984MOL0     H32809   4.191   2.085   5.673 -0.9533  0.4008  0.1212
  984MOL0     H32810   4.310   2.114   5.950 -0.8405 -3.8470 -0.6784
  984MOL0     H32811   4.290   2.236   5.836 -3.2446 -1.1624  1.3493
  984MOL0     H32812   4.425   2.096   5.654 -2.0966  2.8032 -0.7108
  984MOL0     H32813   4.478   2.008   5.797  0.1626 -1.3737 -2.6757
  984MOL0     H32814   4.501   2.312   5.749  0.6719 -0.0317 -0.9681
  984MOL0     H32815   4.542   2.226   5.899  0.2867 -1.0255 -0.0842
  984MOL0     H32816   4.708   2.283   5.690  1.3136 -0.2342 -0.3855
  984MOL0     H32817   4.648   2.127   5.634 -4.6007  2.5105 -0.7978
  984MOL0     H32818   4.760   2.169   5.915 -1.9692 -2.2776  1.2006
  984MOL0     H32819   4.697   2.027   5.849  0.9535 -0.8605 -1.5040
  984MOL0     H32820   3.967   1.646   5.779  0.5862 -0.1873 -1.8691
  984MOL0     H32821   3.783   1.491   5.777 -1.0327 -0.1753  0.5061
  984MOL0     H32822   3.318   1.422   5.398 -1.8059 -1.0992 -1.4710
  984MOL0     H32823   3.120   1.263   5.400 -1.2557 -2.5512  1.4350
  984MOL0     H32824   1.518   0.658   6.207 -2.0697 -1.3814 -1.2028
  984MOL0     H32825   1.342   0.726   6.065  2.2664  2.9256 -0.3603
  984MOL0     H32826   0.857   0.791   6.121  0.9143  1.8575  0.9136
  984MOL0     H32827   0.639   0.802   6.032  0.0597 -4.6755 -2.9034
  984MOL0     H32828   0.375   0.945   5.825 -0.3768  0.2730  0.2613
  984MOL0     H32829   0.457   0.916   5.968 -2.2064  2.4299 -0.1039
  984MOL0     H32830   0.335   0.706   5.918 -0.3382 -1.1864 -1.5290
  984MOL0     H32831   0.509   0.682   5.915  2.1381  2.2539  0.1386
  984MOL0     H32832   0.501   0.611   5.692 -0.1396 -1.0996  2.1560
  984MOL0     H32833   0.407   0.753   5.638 -3.4666  0.3528  0.1505
  984MOL0     H32834   0.273   0.501   5.757  1.1118  0.3661  0.2996
  984MOL0     H32835   0.200   0.659   5.741  2.2147  3.0886  1.5640
  984MOL0     H32836   0.232   0.489   5.346  1.6009 -0.2164 -0.5192
  984MOL0     H32837   0.782   0.958   5.666 -3.5318  1.1289  0.4221
  984MOL0     H32838   1.097   0.876   5.695 -1.7055 -2.0769  1.6399
  984MOL0     H32839   1.006   1.015   5.641  0.1473  0.1231  1.5380
  984MOL0     H32840   1.101   1.051   5.767 -0.3871 -0.1078 -0.6278
  985MOL0     O32841   5.611   9.664   6.044 -0.4690  0.1832 -0.2740
  985MOL0     C32842   5.619   9.618   5.931  0.2918  0.2268  0.5447
  985MOL0     O32843   5.735   9.605   5.858 -0.5513 -0.1164  0.9113
  985MOL0     C32844   5.827   9.709   5.867 -0.4027 -0.2569  0.2140
  985MOL0     C32845   5.782   9.841   5.864 -0.2837  0.3551  0.2277
  985MOL0     C32846   5.872   9.942   5.895 -0.2579 -0.2816 -0.0061
  985MOL0     C32847   6.021   9.925   5.901  0.2957  0.3107 -0.5467
  985MOL0     O32848   6.105  10.032   5.906 -0.2888  0.7016  0.2449
  985MOL0     C32849   6.075  10.146   5.984 -0.2560  0.6192  0.0684
  985MOL0     C32850   6.047  10.117   6.131 -0.3282  0.3010 -1.5864
  985MOL0     C32851   6.018  10.248   6.202  0.0956 -0.3186 -0.2102
  985MOL0     C32852   6.117  10.312   6.298  0.9137  0.8893  0.7600
  985MOL0     C32853   6.228  10.387   6.214  0.3339  0.0218  0.0879
  985MOL0     C32854   6.310  10.476   6.313  0.7515  0.3438 -1.2945
  985MOL0     C32855   6.417  10.556   6.230  0.0597  1.4497 -0.0303
  985MOL0     C32856   6.501  10.649   6.325  0.5912 -0.7524 -0.4791
  985MOL0     N32857   6.611  10.703   6.244  0.5824 -0.5427 -0.5750
  985MOL0     C32858   6.722  10.630   6.223 -0.1071 -0.1007 -0.2838
  985MOL0     C32859   6.813  10.714   6.182 -0.2660 -0.0521 -0.7197
  985MOL0     C32860   6.955  10.679   6.142 -0.9116  0.5835 -0.1718
  985MOL0     C32861   7.074  10.749   6.218 -0.7475  0.9577  0.3975
  985MOL0     C32862   7.206  10.683   6.173  0.0506  1.1694 -0.1680
  985MOL0     C32863   7.333  10.756   6.221  0.1355  0.1950 -0.7275
  985MOL0     O32864   7.309  10.897   6.230 -0.4527 -0.6398  0.9675
  985MOL0     C32865   7.413  10.975   6.283  0.8506 -0.2496 -0.0819
  985MOL0     C32866   7.538  10.929   6.315  0.7613 -0.1033 -0.1807
  985MOL0     C32867   7.628  11.011   6.378  0.1695 -0.5631 -0.0179
  985MOL0     C32868   7.608  11.151   6.383 -0.0484 -0.4881 -0.8073
  985MOL0     C32869   7.712  11.242   6.442  0.1855 -0.7453  0.8084
  985MOL0     O32870   7.797  11.186   6.525  0.6940  0.3598 -1.1777
  985MOL0     C32871   7.874  11.280   6.599  0.6951  0.5142  0.7687
  985MOL0     C32872   8.006  11.238   6.582  0.4086  0.2249  0.1869
  985MOL0     C32873   8.108  11.307   6.644 -0.0047 -1.0708  0.7709
  985MOL0     C32874   8.085  11.430   6.704 -0.7637  0.8084 -0.2769
  985MOL0     O32875   8.202  11.485   6.754  0.6477 -0.7489 -0.7448
  985MOL0     C32876   8.207  11.633   6.740 -0.5383  0.4150  0.0251
  985MOL0     C32877   8.224  11.671   6.594 -0.5239 -0.2443  1.0957
  985MOL0     C32878   8.214  11.816   6.597 -0.0595  0.0055 -0.1948
  985MOL0     C32879   8.263  11.891   6.473  0.1432 -1.1903 -0.4380
  985MOL0     C32880   8.256  12.043   6.497  0.3223 -0.3385 -0.4692
  985MOL0     C32881   8.362  12.119   6.406  0.0914 -0.0198 -0.9555
  985MOL0     C32882   8.364  12.271   6.459  0.2022  0.3487  0.4640
  985MOL0     C32883   8.300  12.372   6.369 -0.2580 -0.7906 -0.0611
  985MOL0    Cl32884   8.122  12.356   6.378  0.0349 -0.1794  0.2626
  985MOL0     C32885   7.959  11.477   6.711  0.0023  1.1028  0.9032
  985MOL0     C32886   7.849  11.402   6.658 -0.3912  0.5541 -0.2664
  985MOL0     O32887   7.694  11.359   6.419  0.4975  0.0214 -0.6102
  985MOL0     C32888   7.482  11.199   6.329 -1.1407  0.5391  0.3353
  985MOL0     C32889   7.383  11.112   6.287  0.2159 -0.7979  0.6774
  985MOL0     N32890   6.760  10.844   6.183 -0.4141 -0.5290  0.0705
  985MOL0     N32891   6.636  10.836   6.214  1.1936  0.7215  0.1769
  985MOL0     C32892   6.062   9.784   5.911  1.2155 -0.5392  0.1108
  985MOL0     C32893   5.966   9.679   5.883 -0.5243  0.6483 -1.0690
  985MOL0     C32894   5.497   9.554   5.878  0.1297  1.0722  0.8664
  985MOL0     C32895   5.488   9.545   5.737 -0.8615 -0.2520 -0.9214
  985MOL0     C32896   5.393   9.472   5.678  1.6552  1.3217  0.4021
  985MOL0     C32897   5.293   9.403   5.752 -0.1878  0.0566  0.1673
  985MOL0     O32898   5.194   9.322   5.699  0.0251 -0.3368  0.4400
  985MOL0     C32899   5.150   9.345   5.568 -0.1518 -0.7408 -0.4257
  985MOL0     C32900   5.070   9.478   5.555  0.5293  1.0511 -0.7510
  985MOL0     C32901   4.987   9.499   5.430 -1.0484 -0.4630 -0.6048
  985MOL0     C32902   4.916   9.635   5.434  0.6822 -1.1394  0.3097
  985MOL0     C32903   4.821   9.642   5.319 -0.7765 -0.2617  0.6059
  985MOL0     C32904   4.737   9.648   5.226 -0.7706  0.1895 -0.4364
  985MOL0     C32905   5.311   9.413   5.888  1.2654  0.2034  0.4303
  985MOL0     C32906   5.417   9.468   5.946 -0.2262 -1.0393  0.5120
  985MOL0     C32907   5.446   9.433   6.089 -0.8627  0.1488  1.3388
  985MOL0     H32908   5.673   9.847   5.865 -0.8331 -4.7904  1.7869
  985MOL0     H32909   5.851  10.048   5.901  0.0997 -0.2312  0.4852
  985MOL0     H32910   6.149  10.226   5.969 -1.0142  0.9285 -2.7161
  985MOL0     H32911   5.989  10.199   5.943 -0.1141 -0.7207 -2.1040
  985MOL0     H32912   6.135  10.072   6.177 -0.9181  1.3440  0.7070
  985MOL0     H32913   5.958  10.055   6.144  2.8852 -4.5242 -0.0595
  985MOL0     H32914   5.930  10.248   6.268  0.2144 -0.8694 -0.0459
  985MOL0     H32915   5.996  10.320   6.123  0.4862 -0.8522 -0.8129
  985MOL0     H32916   6.059  10.391   6.346 -2.4510 -0.5418 -0.6994
  985MOL0     H32917   6.151  10.243   6.376  0.5888 -1.8663 -1.3861
  985MOL0     H32918   6.295  10.315   6.166 -1.4741 -1.3062 -0.5596
  985MOL0     H32919   6.177  10.448   6.139  0.0620 -0.1106  0.1629
  985MOL0     H32920   6.251  10.550   6.367  2.7718  0.6688  0.6653
  985MOL0     H32921   6.353  10.402   6.381  1.3649 -0.8805 -2.9407
  985MOL0     H32922   6.365  10.607   6.149 -0.0015 -1.3235 -1.8642
  985MOL0     H32923   6.481  10.482   6.181 -2.1465 -0.7346  0.1969
  985MOL0     H32924   6.451  10.742   6.354  0.8540 -0.1415 -1.9083
  985MOL0     H32925   6.538  10.592   6.410 -0.1928 -0.1963  0.2595
  985MOL0     H32926   6.744  10.528   6.254  2.5764  1.7085  4.9146
  985MOL0     H32927   6.964  10.570   6.146  1.3588  0.6534 -1.5727
  985MOL0     H32928   6.961  10.711   6.037 -5.6660  2.0033 -0.2841
  985MOL0     H32929   7.069  10.858   6.205 -1.5043  1.1607  2.0306
  985MOL0     H32930   7.077  10.739   6.327 -1.3148  2.3751  0.5685
  985MOL0     H32931   7.221  10.688   6.064  0.7908  1.8052 -0.0475
  985MOL0     H32932   7.208  10.578   6.204 -1.5427  0.9499 -0.7384
  985MOL0     H32933   7.422  10.725   6.165  0.0100 -1.9691  0.1564
  985MOL0     H32934   7.351  10.712   6.320 -0.1741 -2.0613 -1.5962
  985MOL0     H32935   7.568  10.827   6.292  0.4810  0.4091 -3.3402
  985MOL0     H32936   7.719  10.963   6.413  0.0862 -0.4358  0.3805
  985MOL0     H32937   8.019  11.143   6.532  0.1980 -0.1728  0.8760
  985MOL0     H32938   8.208  11.264   6.646  0.5143  0.1007  1.7815
  985MOL0     H32939   8.115  11.676   6.779 -0.8737  0.5357 -0.8655
  985MOL0     H32940   8.296  11.668   6.792 -0.3172  0.3391 -0.2962
  985MOL0     H32941   8.322  11.639   6.557 -0.4264 -0.0380  1.1745
  985MOL0     H32942   8.146  11.633   6.528  0.7400 -1.6399  0.3269
  985MOL0     H32943   8.109  11.835   6.619  0.2551  1.5152  0.1136
  985MOL0     H32944   8.277  11.858   6.676  1.0195  0.6632 -1.3704
  985MOL0     H32945   8.198  11.868   6.388 -0.9860  0.3879 -0.0542
  985MOL0     H32946   8.368  11.866   6.457  0.0090 -1.9404 -0.1717
  985MOL0     H32947   8.290  12.062   6.600 -0.0337  1.6948 -0.6798
  985MOL0     H32948   8.154  12.081   6.494  1.0778  1.8233 -2.4498
  985MOL0     H32949   8.457  12.066   6.424 -1.4896 -2.2961  1.4442
  985MOL0     H32950   8.320  12.124   6.305  0.2369  3.5386 -0.9432
  985MOL0     H32951   8.467  12.309   6.465 -0.2533  1.3766  2.2613
  985MOL0     H32952   8.314  12.273   6.556 -1.9958 -2.7751 -0.4484
  985MOL0     H32953   8.325  12.471   6.407 -0.6629 -0.4148 -0.7602
  985MOL0     H32954   8.337  12.371   6.266  2.8375  1.3462  0.8802
  985MOL0     H32955   7.930  11.571   6.757 -0.0134  2.0086 -0.9023
  985MOL0     H32956   7.744  11.429   6.658 -0.9164 -1.3283 -0.7222
  985MOL0     H32957   7.478  11.307   6.345  0.9460  0.7756 -0.5366
  985MOL0     H32958   7.285  11.148   6.259  1.3130 -0.0901 -2.5759
  985MOL0     H32959   6.168   9.767   5.922  1.2448 -0.1420  0.4713
  985MOL0     H32960   5.999   9.576   5.882  0.5041  0.8190  2.5955
  985MOL0     H32961   5.561   9.595   5.673 -0.4111  1.0025  0.5333
  985MOL0     H32962   5.401   9.472   5.570 -0.0513 -0.2156  0.2276
  985MOL0     H32963   5.084   9.261   5.542 -2.5385  1.2525 -1.2200
  985MOL0     H32964   5.233   9.343   5.496  0.8382  3.0432  0.3825
  985MOL0     H32965   5.137   9.563   5.565 -0.0634  1.8115 -2.7586
  985MOL0     H32966   4.997   9.486   5.636 -1.5588  1.3798 -2.5638
  985MOL0     H32967   4.910   9.424   5.410 -0.1641 -1.7169  0.5823
  985MOL0     H32968   5.063   9.497   5.351  1.7507 -0.7331  1.9343
  985MOL0     H32969   4.859   9.634   5.528 -0.2497 -0.6369 -0.2346
  985MOL0     H32970   4.990   9.715   5.437  1.6277 -1.7424 -3.0855
  985MOL0     H32971   4.664   9.659   5.149 -2.4312 -0.0408  1.0558
  985MOL0     H32972   5.242   9.354   5.948  0.0257  0.3073 -0.8598
  985MOL0     H32973   5.550   9.444   6.121 -0.1121  0.1512 -0.9282
  985MOL0     H32974   5.388   9.490   6.161 -1.2261  1.2973  0.1703
  985MOL0     H32975   5.421   9.327   6.098 -1.9074  0.0505 -1.6207
  986MOL0     O32976   0.505   0.375   6.962 -0.1087  0.3885 -1.0872
  986MOL0     C32977   0.452   0.487   6.952  0.8404  0.7469 -0.9652
  986MOL0     O32978   0.524   0.600   6.928 -0.0917 -0.6733 -0.2100
  986MOL0     C32979   0.655   0.580   6.900  0.1471  0.5885  1.0147
  986MOL0     C32980   0.692   0.599   6.762  0.2068  1.1687  0.4217
  986MOL0     C32981   0.822   0.577   6.713  0.1302  0.5485 -0.0083
  986MOL0     C32982   0.926   0.526   6.801  0.7592 -0.9049  0.1218
  986MOL0     O32983   1.047   0.485   6.751 -0.5534 -0.6752  0.1529
  986MOL0     C32984   1.121   0.593   6.690 -0.0257 -0.0421  0.3787
  986MOL0     C32985   1.265   0.563   6.704 -0.3031 -0.1460  0.8373
  986MOL0     C32986   1.310   0.444   6.604 -0.5211  0.7695 -0.2925
  986MOL0     C32987   1.368   0.327   6.690 -0.0236 -0.9127  0.1397
  986MOL0     C32988   1.254   0.263   6.782  0.5466  0.0741 -0.0279
  986MOL0     C32989   1.286   0.130   6.842 -0.3545 -0.2596 -0.1774
  986MOL0     C32990   1.180   0.096   6.957  0.3335  0.1936 -0.3725
  986MOL0     C32991   1.062   0.003   6.920  0.6812 -0.0184 -0.5318
  986MOL0     N32992   0.954   0.001   7.028 -0.6163  0.2296 -0.0383
  986MOL0     C32993   0.843   0.073   7.030 -0.5969 -0.9935 -0.1865
  986MOL0     C32994   0.773   0.036   7.136  0.6049 -0.6839 -0.5835
  986MOL0     C32995   0.632   0.083   7.173  0.6069 -0.3907 -0.4762
  986MOL0     C32996   0.535  -0.025   7.141  0.5476  1.0229  0.3362
  986MOL0     C32997   0.429  -0.039   7.247  0.0716 -0.6037  0.9374
  986MOL0     C32998   0.313  -0.135   7.219 -0.5680  0.3380  1.5712
  986MOL0     O32999   0.219  -0.073   7.132 -0.5963 -0.1592 -0.1393
  986MOL0     C33000   0.087  -0.081   7.179 -0.4757  0.8443  0.4624
  986MOL0     C33001   0.039  -0.011   7.293 -1.1323  0.6160  0.8804
  986MOL0     C33002  -0.094  -0.012   7.323  0.5411  0.0658 -0.1723
  986MOL0     C33003  -0.185  -0.081   7.235  0.2463  0.4530 -1.7379
  986MOL0     C33004  -0.337  -0.081   7.268 -0.7170  0.2847 -0.0175
  986MOL0     O33005  -0.394   0.027   7.337 -0.0885 -0.0358 -0.3082
  986MOL0     C33006  -0.531   0.047   7.332  1.2867  0.3055 -0.0647
  986MOL0     C33007  -0.592   0.066   7.208 -0.1744  0.1827 -0.6866
  986MOL0     C33008  -0.738   0.074   7.209 -0.2353 -0.1282 -0.4888
  986MOL0     C33009  -0.811   0.075   7.330 -0.3587  0.6961 -0.6684
  986MOL0     O33010  -0.947   0.065   7.320  0.5501 -0.7454  0.3850
  986MOL0     C33011  -1.044   0.092   7.422 -0.3935  0.0197 -0.0242
  986MOL0     C33012  -1.180   0.063   7.362 -0.1385  0.4438 -0.7782
  986MOL0     C33013  -1.293   0.098   7.458  0.0384  0.1725  1.0861
  986MOL0     C33014  -1.319   0.012   7.578 -1.5336  0.8259  0.1892
  986MOL0     C33015  -1.349  -0.134   7.556 -0.1819  0.4990  0.1571
  986MOL0     C33016  -1.424  -0.196   7.678  0.3437 -0.2031 -0.2189
  986MOL0     C33017  -1.437  -0.345   7.662  0.4152  0.8938  0.4619
  986MOL0     C33018  -1.493  -0.411   7.790 -0.4309 -0.3337 -0.9241
  986MOL0    Cl33019  -1.384  -0.401   7.917 -0.3888  0.0675 -0.6316
  986MOL0     C33020  -0.742   0.051   7.445 -0.3800  0.6925 -0.0114
  986MOL0     C33021  -0.600   0.046   7.449  1.4533  0.0834  0.0618
  986MOL0     O33022  -0.400  -0.172   7.222 -0.2379  0.2665 -0.3872
  986MOL0     C33023  -0.134  -0.149   7.123  0.3296  0.6689  0.2755
  986MOL0     C33024   0.000  -0.152   7.101  0.0141 -0.1045  1.1143
  986MOL0     N33025   0.841  -0.059   7.195  0.0175  0.3495  0.4012
  986MOL0     N33026   0.944  -0.092   7.123  0.1119 -0.3610 -0.1541
  986MOL0     C33027   0.890   0.497   6.930 -0.1169 -0.8452 -0.1359
  986MOL0     C33028   0.760   0.528   6.979 -0.9516  0.5930 -0.4156
  986MOL0     C33029   0.296   0.490   6.946  0.1113 -0.0610 -0.7511
  986MOL0     C33030   0.246   0.607   6.892  0.7196  0.2526 -0.3895
  986MOL0     C33031   0.106   0.629   6.895 -0.3405 -0.7479 -0.4370
  986MOL0     C33032   0.026   0.535   6.940  0.0986 -0.2770  0.7425
  986MOL0     O33033  -0.112   0.550   6.927  0.3688  0.7000 -0.2496
  986MOL0     C33034  -0.204   0.444   6.974  0.4948 -0.9438 -0.2791
  986MOL0     C33035  -0.222   0.344   6.855 -0.2251 -0.1076 -0.0187
  986MOL0     C33036  -0.339   0.243   6.872 -0.0439 -0.8642 -0.4074
  986MOL0     C33037  -0.475   0.298   6.842 -0.4190  0.1180  0.0768
  986MOL0     C33038  -0.525   0.383   6.951  0.3187 -0.0594  0.6764
  986MOL0     C33039  -0.566   0.447   7.037  0.0034  0.0900 -0.5566
  986MOL0     C33040   0.079   0.413   6.995  0.8540 -0.2979  0.2645
  986MOL0     C33041   0.211   0.391   6.999  0.5489 -0.2225  0.4745
  986MOL0     C33042   0.250   0.251   7.043 -0.8812 -0.0526 -0.6689
  986MOL0     H33043   0.615   0.643   6.698  0.5521 -1.4002 -1.9680
  986MOL0     H33044   0.841   0.593   6.607  1.6274 -3.7516 -0.5758
  986MOL0     H33045   1.094   0.586   6.584 -0.8836  2.4200  0.3873
  986MOL0     H33046   1.087   0.689   6.729 -2.7268 -1.3625  1.5650
  986MOL0     H33047   1.284   0.539   6.809  0.9818 -0.5054  0.5415
  986MOL0     H33048   1.322   0.653   6.681 -0.5082  0.3166  2.0764
  986MOL0     H33049   1.389   0.479   6.537  0.3652 -0.3130  0.1617
  986MOL0     H33050   1.232   0.410   6.536  0.7327  1.0023 -1.9181
  986MOL0     H33051   1.398   0.258   6.610  1.3157 -1.5046  1.1250
  986MOL0     H33052   1.457   0.359   6.744  0.6812  1.3725 -2.1735
  986MOL0     H33053   1.251   0.341   6.858 -0.2719  0.5293 -0.5137
  986MOL0     H33054   1.153   0.249   6.743  0.2353 -0.3420  0.9028
  986MOL0     H33055   1.288   0.058   6.761  1.4443 -0.6078  0.1389
  986MOL0     H33056   1.385   0.130   6.889 -2.3480  0.8825  4.7476
  986MOL0     H33057   1.149   0.189   7.006  0.5210 -0.9734  2.1540
  986MOL0     H33058   1.240   0.042   7.031  0.2804  0.0003 -0.4707
  986MOL0     H33059   1.027   0.043   6.825 -0.9468 -0.3740 -0.1152
  986MOL0     H33060   1.094  -0.101   6.908 -1.2606 -0.9669  1.7737
  986MOL0     H33061   0.809   0.136   6.949  0.4670 -2.3757 -1.7717
  986MOL0     H33062   0.630   0.124   7.274  2.3283  1.8999 -1.3077
  986MOL0     H33063   0.602   0.170   7.115 -0.2608  1.0785  2.0123
  986MOL0     H33064   0.484  -0.011   7.045 -0.4301 -1.1829  0.4542
  986MOL0     H33065   0.578  -0.126   7.139  1.8952  1.5875  0.5489
  986MOL0     H33066   0.384   0.061   7.257  1.3860 -0.1498  3.0714
  986MOL0     H33067   0.465  -0.065   7.347 -1.0809 -1.3357  1.1828
  986MOL0     H33068   0.275  -0.166   7.316 -0.1870 -2.4527  0.9200
  986MOL0     H33069   0.351  -0.231   7.182 -2.0745 -0.7268  2.6353
  986MOL0     H33070   0.104   0.039   7.365  2.3212 -1.3696 -0.6059
  986MOL0     H33071  -0.128   0.027   7.418 -3.0020  2.2008 -2.1231
  986MOL0     H33072  -0.541   0.078   7.113  0.9008  1.0402 -0.0321
  986MOL0     H33073  -0.799   0.093   7.120 -2.1645 -0.0614  0.7768
  986MOL0     H33074  -1.026   0.027   7.508 -0.2361 -0.2791 -0.2782
  986MOL0     H33075  -1.047   0.198   7.449 -2.6317 -0.0005  0.0327
  986MOL0     H33076  -1.183   0.119   7.268 -1.6114  3.2743  0.8080
  986MOL0     H33077  -1.188  -0.043   7.336 -0.0861  0.3927 -0.5865
  986MOL0     H33078  -1.280   0.201   7.495 -0.9725  0.2557  1.2243
  986MOL0     H33079  -1.374   0.084   7.386  1.1878 -1.4676  0.0406
  986MOL0     H33080  -1.408   0.053   7.628  0.3225  5.1953  0.4204
  986MOL0     H33081  -1.236   0.020   7.649 -3.4705  4.8569  2.3868
  986MOL0     H33082  -1.255  -0.187   7.537  0.0499  1.1716 -0.6434
  986MOL0     H33083  -1.408  -0.145   7.465 -0.3461 -0.5364  0.3855
  986MOL0     H33084  -1.366  -0.184   7.770 -2.4413  0.1618  1.6047
  986MOL0     H33085  -1.523  -0.153   7.694  0.5126 -0.4285  1.6609
  986MOL0     H33086  -1.337  -0.382   7.639  0.2145  0.9325 -0.4905
  986MOL0     H33087  -1.507  -0.375   7.583  0.2448 -0.1689  0.9996
  986MOL0     H33088  -1.589  -0.379   7.832 -0.1450 -1.3274  0.5509
  986MOL0     H33089  -1.515  -0.516   7.768  0.0277 -0.7484  0.5178
  986MOL0     H33090  -0.798   0.019   7.533 -2.5721 -3.9823 -2.7093
  986MOL0     H33091  -0.542   0.023   7.538 -0.3206  0.2002  1.3085
  986MOL0     H33092  -0.208  -0.209   7.071 -1.1850  1.6183  1.2748
  986MOL0     H33093   0.034  -0.207   7.014 -0.3440  0.1563  0.8055
  986MOL0     H33094   0.964   0.457   6.999  0.1121 -1.3769 -0.6748
  986MOL0     H33095   0.730   0.517   7.083  0.0306 -0.0172 -0.1794
  986MOL0     H33096   0.309   0.687   6.854 -1.1758  0.7458 -2.7638
  986MOL0     H33097   0.065   0.722   6.858  1.3637  1.1990  2.1947
  986MOL0     H33098  -0.305   0.484   6.991  0.8491 -0.6319  1.2659
  986MOL0     H33099  -0.180   0.405   7.073 -3.1121 -3.0229 -0.0635
  986MOL0     H33100  -0.132   0.283   6.842 -0.9403 -2.0650  3.1147
  986MOL0     H33101  -0.242   0.401   6.764  1.3578  0.1088 -0.2588
  986MOL0     H33102  -0.344   0.209   6.976 -1.4271  0.0620 -0.1479
  986MOL0     H33103  -0.330   0.146   6.822 -0.8589 -0.7551 -0.7797
  986MOL0     H33104  -0.472   0.355   6.748 -0.2709 -0.2641 -0.1519
  986MOL0     H33105  -0.543   0.213   6.834 -2.3732  1.7237 -1.1223
  986MOL0     H33106  -0.611   0.517   7.105 -4.2892 -0.9737 -1.9836
  986MOL0     H33107   0.021   0.328   7.028  2.3469 -0.7827  1.8140
  986MOL0     H33108   0.165   0.185   7.061  1.7763 -3.7459 -0.4572
  986MOL0     H33109   0.318   0.211   6.967  0.9972 -0.7283  1.2544
  986MOL0     H33110   0.304   0.258   7.137 -0.8498  2.6786 -0.8319
  987MOL0     O33111   0.155   0.320   1.760  1.0947  0.8101  0.2762
  987MOL0     C33112   0.136   0.244   1.859  0.2104 -0.0490 -0.0412
  987MOL0     O33113   0.213   0.245   1.976 -0.8168 -0.1604  1.0288
  987MOL0     C33114   0.328   0.319   1.986  0.3849  0.0292 -0.8165
  987MOL0     C33115   0.412   0.325   1.873 -0.1648  0.2198 -0.0803
  987MOL0     C33116   0.528   0.392   1.887  0.2765 -0.8309  0.0732
  987MOL0     C33117   0.558   0.463   2.009  0.4267 -0.8241 -0.1532
  987MOL0     O33118   0.673   0.540   2.017 -0.2605  0.2675  0.0221
  987MOL0     C33119   0.653   0.673   1.969 -1.1345 -0.3755 -0.6185
  987MOL0     C33120   0.789   0.750   1.968  0.4005  1.0650 -0.9369
  987MOL0     C33121   0.872   0.719   2.098  0.6316  0.2651  0.1905
  987MOL0     C33122   1.018   0.758   2.067 -0.5064  0.4858  0.1779
  987MOL0     C33123   1.123   0.685   2.152  1.0679  0.8740  0.0399
  987MOL0     C33124   1.241   0.761   2.198 -0.7572 -0.4218  0.4176
  987MOL0     C33125   1.342   0.654   2.247  0.0124  0.9101  0.0330
  987MOL0     C33126   1.491   0.699   2.264  0.4850 -0.9928  0.2745
  987MOL0     N33127   1.580   0.580   2.302  0.6035 -0.3221 -0.0146
  987MOL0     C33128   1.664   0.507   2.225 -0.1246  0.4928 -0.3269
  987MOL0     C33129   1.724   0.420   2.311  0.8957  0.5633  0.5540
  987MOL0     C33130   1.850   0.348   2.287 -0.1330  1.2981  0.0922
  987MOL0     C33131   1.978   0.397   2.371  0.2819 -0.0680  0.9069
  987MOL0     C33132   2.076   0.276   2.357  0.2795 -0.2619  0.3050
  987MOL0     C33133   2.206   0.318   2.419  0.4123  0.3691  0.3762
  987MOL0     O33134   2.291   0.216   2.368  0.2447  0.0187  0.2562
  987MOL0     C33135   2.426   0.230   2.350 -0.4262 -0.6031 -0.2075
  987MOL0     C33136   2.489   0.114   2.307 -0.0318 -0.4758  0.2999
  987MOL0     C33137   2.630   0.123   2.282 -0.1304  0.3111  0.2076
  987MOL0     C33138   2.705   0.240   2.309  0.2002  0.5117 -0.4818
  987MOL0     C33139   2.841   0.233   2.262 -0.2725 -0.5402 -0.1683
  987MOL0     O33140   2.906   0.134   2.192  1.0641 -0.6078 -0.0490
  987MOL0     C33141   3.039   0.144   2.173  0.0843  0.0302 -0.0692
  987MOL0     C33142   3.079   0.111   2.044  0.4317  0.6165  0.9573
  987MOL0     C33143   3.219   0.097   2.015  0.8451  0.2108  0.2281
  987MOL0     C33144   3.316   0.115   2.115  0.5981 -1.0894  0.4880
  987MOL0     O33145   3.453   0.109   2.089  0.5411 -1.1118  0.1664
  987MOL0     C33146   3.501   0.016   1.989 -0.1652 -0.0709 -0.4290
  987MOL0     C33147   3.653   0.031   1.978 -0.1003 -0.0096 -0.5161
  987MOL0     C33148   3.729   0.016   2.109  0.6527 -0.1704 -0.4781
  987MOL0     C33149   3.880   0.004   2.081 -0.4262 -0.7593  0.2818
  987MOL0     C33150   3.965  -0.016   2.208 -0.2541  0.5635 -1.2640
  987MOL0     C33151   3.977  -0.166   2.249 -0.3273 -0.1272 -0.3358
  987MOL0     C33152   4.014  -0.171   2.399 -0.3910  0.6628  0.1881
  987MOL0     C33153   4.167  -0.138   2.431 -1.2205  0.2773 -0.6082
  987MOL0    Cl33154   4.274  -0.281   2.448  0.2345 -0.1673 -0.1097
  987MOL0     C33155   3.275   0.137   2.250  0.1375  0.3662 -0.5327
  987MOL0     C33156   3.137   0.157   2.275  0.0804 -1.1184 -0.8873
  987MOL0     O33157   2.901   0.330   2.306  1.0609 -0.4160 -0.2538
  987MOL0     C33158   2.643   0.348   2.371  0.8196 -1.0733  0.0167
  987MOL0     C33159   2.503   0.342   2.381 -0.3754  1.1333  0.0243
  987MOL0     N33160   1.659   0.425   2.432  0.8551  0.1494 -0.3767
  987MOL0     N33161   1.578   0.531   2.431  0.7768 -0.0674  0.0690
  987MOL0     C33162   0.472   0.464   2.112  0.0474 -0.6282  0.3751
  987MOL0     C33163   0.360   0.385   2.108  1.5322 -0.1060  0.4092
  987MOL0     C33164   0.021   0.152   1.867  0.6397 -0.4300  0.4303
  987MOL0     C33165  -0.037   0.122   1.989  0.6444  0.3583  0.2859
  987MOL0     C33166  -0.150   0.043   2.000  0.1602 -0.1688  0.2994
  987MOL0     C33167  -0.214   0.002   1.881  0.3950 -0.6628  0.5256
  987MOL0     O33168  -0.335  -0.064   1.873 -0.8572 -0.2516  0.5813
  987MOL0     C33169  -0.415  -0.067   1.996  0.0270 -0.4093  0.4909
  987MOL0     C33170  -0.550  -0.132   1.957 -0.8360  0.1753 -0.0979
  987MOL0     C33171  -0.635  -0.132   2.075  0.6331  0.7635  0.1668
  987MOL0     C33172  -0.714   0.005   2.100 -0.5829  0.7954  0.4395
  987MOL0     C33173  -0.833   0.027   2.018 -0.2233  0.4954 -0.3782
  987MOL0     C33174  -0.923   0.051   1.940 -0.5956  0.5481 -0.0494
  987MOL0     C33175  -0.165   0.037   1.759 -0.0293 -0.2996 -0.8996
  987MOL0     C33176  -0.048   0.104   1.748 -0.7241  0.3104  0.0490
  987MOL0     C33177   0.009   0.109   1.606  0.8504  0.2495 -0.0566
  987MOL0     H33178   0.381   0.265   1.788  0.8523 -1.5744  0.7508
  987MOL0     H33179   0.605   0.402   1.811  0.7417 -0.0087  0.6377
  987MOL0     H33180   0.629   0.667   1.862  0.9664  0.2164 -1.1596
  987MOL0     H33181   0.576   0.724   2.028 -1.6751  0.0609 -1.6742
  987MOL0     H33182   0.758   0.852   1.945  1.0126  1.3227 -0.6438
  987MOL0     H33183   0.862   0.734   1.888 -1.1679  0.3146 -2.2658
  987MOL0     H33184   0.870   0.615   2.131 -1.9422 -0.0820 -0.8156
  987MOL0     H33185   0.829   0.784   2.175 -0.0716 -1.5721  1.4151
  987MOL0     H33186   1.043   0.733   1.964 -0.8078 -0.4948  0.3270
  987MOL0     H33187   1.033   0.866   2.076  2.1726  0.2449 -0.7771
  987MOL0     H33188   1.074   0.655   2.245 -0.4993  0.9506 -0.7344
  987MOL0     H33189   1.153   0.593   2.101  4.7499  1.6322  0.5827
  987MOL0     H33190   1.291   0.820   2.121 -2.1126 -0.1883 -0.3223
  987MOL0     H33191   1.214   0.833   2.276 -1.9281 -0.6848  0.2724
  987MOL0     H33192   1.349   0.572   2.174  0.5537 -1.6448  2.7782
  987MOL0     H33193   1.312   0.597   2.335  0.3819 -0.4921 -0.7032
  987MOL0     H33194   1.527   0.739   2.168  1.3048 -0.2907  0.8582
  987MOL0     H33195   1.502   0.786   2.330 -4.1724  0.2737 -0.2691
  987MOL0     H33196   1.698   0.527   2.124  0.3035 -0.4208 -0.3775
  987MOL0     H33197   1.830   0.241   2.298 -0.2979  1.1090 -1.6852
  987MOL0     H33198   1.880   0.357   2.182  0.1382  0.6340  0.1053
  987MOL0     H33199   2.016   0.485   2.318 -0.1458 -0.6245 -0.3531
  987MOL0     H33200   1.960   0.425   2.475  0.1236 -2.5505  1.6130
  987MOL0     H33201   2.092   0.248   2.252 -1.8303  0.3504 -0.2254
  987MOL0     H33202   2.030   0.191   2.409  2.0416  1.7412  5.8246
  987MOL0     H33203   2.205   0.334   2.527  0.3421  4.2691 -0.0750
  987MOL0     H33204   2.242   0.408   2.369  1.9779 -1.1679 -1.4473
  987MOL0     H33205   2.424   0.033   2.275 -1.0861  0.2144  0.6190
  987MOL0     H33206   2.677   0.034   2.241  0.9169 -0.5057  2.9788
  987MOL0     H33207   3.007   0.103   1.964  0.5812 -0.3739  0.9076
  987MOL0     H33208   3.250   0.058   1.918  2.6456 -3.3180  2.0236
  987MOL0     H33209   3.470  -0.086   2.016 -3.1910  1.5289  3.0305
  987MOL0     H33210   3.459   0.046   1.892  0.9111  1.4735 -0.4477
  987MOL0     H33211   3.675  -0.047   1.904  0.0793 -0.1056 -0.3611
  987MOL0     H33212   3.671   0.134   1.945  3.2599 -1.3933 -3.6181
  987MOL0     H33213   3.710   0.096   2.180 -1.7953 -1.3832  0.3487
  987MOL0     H33214   3.691  -0.081   2.144  1.3521 -1.1897 -2.3861
  987MOL0     H33215   3.923   0.093   2.034 -0.8614 -0.9828 -0.5782
  987MOL0     H33216   3.905  -0.080   2.016  3.9185  1.1215 -0.8559
  987MOL0     H33217   3.933   0.049   2.290  2.5391 -0.2368  0.5860
  987MOL0     H33218   4.068   0.019   2.198  0.3968 -0.7269  0.4949
  987MOL0     H33219   3.887  -0.226   2.230  0.3579 -0.8309 -1.4861
  987MOL0     H33220   4.056  -0.209   2.186 -1.2079 -2.3013 -0.0577
  987MOL0     H33221   3.995  -0.277   2.420 -4.6988  1.0672 -0.8377
  987MOL0     H33222   3.952  -0.119   2.473  1.5757 -0.1276  2.5425
  987MOL0     H33223   4.205  -0.075   2.350  0.1334 -0.8994 -0.9368
  987MOL0     H33224   4.172  -0.076   2.521  1.4771  1.3378 -1.3874
  987MOL0     H33225   3.355   0.147   2.322 -1.8232 -0.1416  1.8321
  987MOL0     H33226   3.106   0.184   2.375 -0.3248 -2.5968 -0.5881
  987MOL0     H33227   2.693   0.444   2.382 -1.0503  0.2572 -2.1788
  987MOL0     H33228   2.466   0.439   2.415  0.0452  1.3729 -0.1952
  987MOL0     H33229   0.500   0.507   2.208  2.4063 -0.0605 -0.4909
  987MOL0     H33230   0.283   0.389   2.184  0.2771  0.4078 -0.8512
  987MOL0     H33231   0.016   0.159   2.076 -1.5260 -1.3321  2.4156
  987MOL0     H33232  -0.180   0.010   2.099  1.3403 -1.8814  0.1394
  987MOL0     H33233  -0.423   0.035   2.036  1.8798 -1.1936  3.0995
  987MOL0     H33234  -0.357  -0.127   2.066  0.5053 -0.9795 -0.3816
  987MOL0     H33235  -0.536  -0.235   1.922  1.8447  1.0119 -1.8613
  987MOL0     H33236  -0.597  -0.083   1.871  0.8434  0.5280 -0.8642
  987MOL0     H33237  -0.587  -0.166   2.168  0.0811 -2.4662 -0.6333
  987MOL0     H33238  -0.712  -0.206   2.054  1.0972  0.5342 -0.7810
  987MOL0     H33239  -0.754   0.000   2.202 -2.6012 -1.5605 -0.3656
  987MOL0     H33240  -0.650   0.094   2.097 -0.9558  1.1949  2.4614
  987MOL0     H33241  -0.999   0.065   1.866  0.5162 -0.4765 -1.4506
  987MOL0     H33242  -0.226   0.019   1.671  3.6698 -1.3999 -3.5000
  987MOL0     H33243   0.117   0.093   1.614  0.7110 -1.3834 -0.9232
  987MOL0     H33244  -0.027   0.027   1.543  0.0011  1.3143 -1.0205
  987MOL0     H33245  -0.012   0.208   1.563  3.2266  0.7575 -0.1591
  988MOL0     O33246   9.529   7.625   0.295 -0.1373 -0.0365 -0.0014
  988MOL0     C33247   9.515   7.655   0.415  0.0588 -0.0889  0.2169
  988MOL0     O33248   9.605   7.727   0.493  0.2448  0.2720  0.3924
  988MOL0     C33249   9.706   7.805   0.438  0.8140  0.0403  0.0565
  988MOL0     C33250   9.670   7.886   0.323 -0.3217 -0.2926  0.2076
  988MOL0     C33251   9.766   7.974   0.274  0.1943 -0.1737 -0.1716
  988MOL0     C33252   9.899   7.967   0.323 -0.1987 -0.0225 -0.3638
  988MOL0     O33253   9.989   8.030   0.246  0.6845 -0.2256  0.4249
  988MOL0     C33254  10.132   8.020   0.286  0.1872 -0.7043  0.0558
  988MOL0     C33255  10.238   8.086   0.190  0.0699  0.7453  0.1443
  988MOL0     C33256  10.380   8.059   0.228  0.2176  0.3438 -0.2684
  988MOL0     C33257  10.489   8.149   0.156 -0.3676  0.2403 -0.6422
  988MOL0     C33258  10.629   8.098   0.189  0.9767  0.5107  0.1856
  988MOL0     C33259  10.684   8.133   0.327 -0.1238  0.0611 -0.5798
  988MOL0     C33260  10.833   8.105   0.338  0.1528  0.2422 -0.3556
  988MOL0     C33261  10.869   7.960   0.363  0.1051  0.3704 -0.5079
  988MOL0     N33262  11.009   7.947   0.398  0.5215 -0.2709  0.1162
  988MOL0     C33263  11.054   7.977   0.521  0.2142  0.6110 -0.4598
  988MOL0     C33264  11.183   7.954   0.515 -0.0187 -0.3586 -0.2483
  988MOL0     C33265  11.279   7.981   0.631 -0.0713  1.3193  0.5273
  988MOL0     C33266  11.399   8.059   0.582  0.4019  0.4786 -1.1725
  988MOL0     C33267  11.485   8.104   0.701 -1.0135  0.6960  0.5899
  988MOL0     C33268  11.641   8.108   0.672  0.1834 -0.1919  0.5911
  988MOL0     O33269  11.679   7.963   0.682  1.4133 -0.4955 -0.2308
  988MOL0     C33270  11.806   7.927   0.695 -0.5875 -0.6474 -0.5173
  988MOL0     C33271  11.906   8.015   0.724  0.3807 -0.7297  0.4569
  988MOL0     C33272  12.039   7.973   0.737 -0.3945  0.3458 -0.5403
  988MOL0     C33273  12.072   7.840   0.740  0.4590  0.6646 -0.6663
  988MOL0     C33274  12.205   7.800   0.778 -0.2095  0.1034 -0.0362
  988MOL0     O33275  12.294   7.898   0.776  0.4527  0.7289 -0.0368
  988MOL0     C33276  12.435   7.882   0.793  0.8584 -0.0593 -0.6409
  988MOL0     C33277  12.502   7.988   0.752  0.9206 -0.8107 -0.7268
  988MOL0     C33278  12.640   7.997   0.759  0.4790 -0.6305  0.3899
  988MOL0     C33279  12.725   7.903   0.817  0.1759 -0.5414  0.5470
  988MOL0     O33280  12.864   7.912   0.811  0.3467 -0.2631 -0.3536
  988MOL0     C33281  12.958   7.806   0.818 -0.2555 -0.2945 -0.4483
  988MOL0     C33282  13.096   7.862   0.780  0.0449  0.7464 -0.0777
  988MOL0     C33283  13.178   7.904   0.889  0.3863 -0.3621  0.9186
  988MOL0     C33284  13.326   7.918   0.853 -0.4164 -0.0981 -0.3886
  988MOL0     C33285  13.405   7.964   0.976 -0.4521  0.2237 -0.4925
  988MOL0     C33286  13.549   7.969   0.938  0.7178  0.6341  0.0469
  988MOL0     C33287  13.628   8.011   1.062 -0.7845 -0.4952 -0.4148
  988MOL0     C33288  13.774   8.037   1.012 -0.2529 -0.6739 -0.3748
  988MOL0    Cl33289  13.884   8.087   1.142  0.3263 -0.1934 -1.0357
  988MOL0     C33290  12.654   7.785   0.858 -0.2545  0.3220  0.2414
  988MOL0     C33291  12.516   7.780   0.845 -0.3972  0.6802  0.5744
  988MOL0     O33292  12.229   7.683   0.796 -0.0583  0.1832 -0.3833
  988MOL0     C33293  11.966   7.751   0.712 -0.4878 -0.2983 -0.4560
  988MOL0     C33294  11.840   7.799   0.691 -0.1888  0.1115  0.7493
  988MOL0     N33295  11.203   7.912   0.390 -0.5916 -0.2309  0.9350
  988MOL0     N33296  11.104   7.919   0.316  0.1648 -0.2148  0.1922
  988MOL0     C33297   9.923   7.895   0.440 -0.2668 -0.4875  0.1668
  988MOL0     C33298   9.829   7.815   0.497  0.2308 -0.2777  0.4903
  988MOL0     C33299   9.404   7.594   0.493  0.4905  0.5182  0.9083
  988MOL0     C33300   9.379   7.621   0.625  0.3401 -0.1313 -0.1663
  988MOL0     C33301   9.271   7.572   0.698 -0.1050  0.1374  1.1148
  988MOL0     C33302   9.182   7.481   0.647 -0.6252  0.5439  0.2094
  988MOL0     O33303   9.084   7.423   0.727  0.5555 -0.3314  0.3295
  988MOL0     C33304   8.978   7.337   0.671  0.6484 -0.1031  0.1541
  988MOL0     C33305   9.017   7.192   0.669  0.6696 -0.1880  0.1033
  988MOL0     C33306   8.891   7.095   0.648  0.3297  0.6859 -0.1608
  988MOL0     C33307   8.938   6.950   0.642  1.0163 -0.0042  1.1030
  988MOL0     C33308   8.849   6.856   0.558 -0.1351  0.4394  0.2545
  988MOL0     C33309   8.773   6.786   0.492  0.3781  0.6578 -0.7658
  988MOL0     C33310   9.202   7.456   0.508  0.1068  0.3502  0.7861
  988MOL0     C33311   9.303   7.511   0.427 -0.9592 -0.2053  0.4515
  988MOL0     C33312   9.302   7.459   0.280  0.0660  0.2170  0.2485
  988MOL0     H33313   9.575   7.887   0.272  0.1618 -1.3237 -0.7602
  988MOL0     H33314   9.764   8.035   0.184  1.4584 -0.4482 -0.4125
  988MOL0     H33315  10.139   8.095   0.366 -0.1359  1.6030 -1.9677
  988MOL0     H33316  10.156   7.917   0.314 -1.6372 -1.6390 -1.6441
  988MOL0     H33317  10.224   8.194   0.187 -0.2834  0.7667  1.7663
  988MOL0     H33318  10.229   8.038   0.092  1.0262 -0.1050  0.4551
  988MOL0     H33319  10.396   7.953   0.209  0.5416  0.2211  0.6356
  988MOL0     H33320  10.390   8.071   0.336  0.7095  2.2526 -0.4799
  988MOL0     H33321  10.482   8.153   0.047 -0.7355 -0.4918 -0.6511
  988MOL0     H33322  10.476   8.251   0.193 -1.8288 -0.1706  0.0762
  988MOL0     H33323  10.621   7.989   0.190  1.1532  0.4250  3.3911
  988MOL0     H33324  10.703   8.144   0.123  1.3632  2.5690  1.9382
  988MOL0     H33325  10.665   8.240   0.343 -0.7921 -0.1366  0.0422
  988MOL0     H33326  10.628   8.093   0.413 -0.1858 -3.0105 -1.9263
  988MOL0     H33327  10.885   8.155   0.420  1.5315  0.8979 -1.5835
  988MOL0     H33328  10.868   8.138   0.240  3.1720  2.5699  1.3274
  988MOL0     H33329  10.812   7.929   0.450 -0.6248 -1.0829 -1.4619
  988MOL0     H33330  10.843   7.885   0.287 -1.0041 -0.4854  0.6824
  988MOL0     H33331  11.008   8.037   0.599  1.1107  1.9359 -0.9176
  988MOL0     H33332  11.229   8.029   0.717  0.3293 -2.0492  2.8163
  988MOL0     H33333  11.310   7.879   0.653 -0.1385  0.1901 -3.7572
  988MOL0     H33334  11.449   7.986   0.518 -0.0226  0.4969 -1.5274
  988MOL0     H33335  11.369   8.146   0.523 -0.3345  1.5370  0.6762
  988MOL0     H33336  11.463   8.055   0.796 -0.4693  0.0859  0.4165
  988MOL0     H33337  11.457   8.209   0.707  0.2420  1.0623  0.2701
  988MOL0     H33338  11.693   8.169   0.746  1.7846  0.4483 -0.9706
  988MOL0     H33339  11.670   8.146   0.573  0.7372  1.0762  1.2170
  988MOL0     H33340  11.885   8.121   0.728 -1.1618 -1.0130  0.5151
  988MOL0     H33341  12.113   8.046   0.768 -0.8955  1.1936 -1.2865
  988MOL0     H33342  12.441   8.060   0.699  0.2296 -0.7500  0.1245
  988MOL0     H33343  12.704   8.077   0.723  0.2314 -1.0498 -1.0596
  988MOL0     H33344  12.958   7.771   0.921  1.8566 -0.6320 -0.5213
  988MOL0     H33345  12.931   7.730   0.744  2.3440 -0.7179 -1.0461
  988MOL0     H33346  13.146   7.777   0.733 -0.8553 -1.7982  3.2032
  988MOL0     H33347  13.089   7.938   0.702  0.4855 -0.7001 -1.5820
  988MOL0     H33348  13.144   8.003   0.917  0.5277  0.8928 -2.8122
  988MOL0     H33349  13.165   7.835   0.973 -0.3532 -0.3349  0.8264
  988MOL0     H33350  13.333   7.991   0.772  2.9108 -0.7007 -0.7810
  988MOL0     H33351  13.369   7.823   0.822  1.6947 -0.2314  2.5424
  988MOL0     H33352  13.392   7.890   1.056  1.0243 -0.4967 -0.8814
  988MOL0     H33353  13.383   8.060   1.023 -1.8147 -0.2103 -0.2099
  988MOL0     H33354  13.581   7.868   0.911 -0.3732  0.6678 -1.5224
  988MOL0     H33355  13.562   8.034   0.850 -0.7176 -3.3401 -3.4587
  988MOL0     H33356  13.624   7.924   1.129 -1.8495 -1.1167 -1.2583
  988MOL0     H33357  13.590   8.095   1.122 -1.2399 -1.1714  0.2634
  988MOL0     H33358  13.821   7.960   0.950 -1.7204 -0.7969 -1.3899
  988MOL0     H33359  13.766   8.127   0.950  0.8726  0.6409  1.2858
  988MOL0     H33360  12.712   7.708   0.907 -1.4132  0.5775  2.1077
  988MOL0     H33361  12.462   7.690   0.875 -0.8157  1.1645  1.3142
  988MOL0     H33362  12.002   7.648   0.709  0.3309 -0.0546  0.4127
  988MOL0     H33363  11.759   7.729   0.668 -2.0669  2.0728  1.0540
  988MOL0     H33364  10.023   7.890   0.480 -0.7939  1.3118  1.8621
  988MOL0     H33365   9.852   7.756   0.586 -0.4375  0.7431  1.3759
  988MOL0     H33366   9.431   7.693   0.688 -0.9458  0.1796  0.5966
  988MOL0     H33367   9.256   7.605   0.800 -2.0364  1.7599  0.3667
  988MOL0     H33368   8.957   7.378   0.571  2.5697  0.2675 -0.1357
  988MOL0     H33369   8.889   7.340   0.734  0.9875 -2.6046  0.8612
  988MOL0     H33370   9.061   7.168   0.766  0.6405 -0.2776  0.0940
  988MOL0     H33371   9.083   7.180   0.582 -1.3067  0.8649 -1.6288
  988MOL0     H33372   8.840   7.126   0.556  0.7427  0.3777 -0.4985
  988MOL0     H33373   8.821   7.104   0.732  1.3273  0.4547  0.7129
  988MOL0     H33374   9.030   6.948   0.583 -1.9843  1.9411 -4.2581
  988MOL0     H33375   8.950   6.905   0.742 -0.0442 -0.3499  1.0863
  988MOL0     H33376   8.709   6.736   0.423 -1.7009  2.0396  0.0671
  988MOL0     H33377   9.134   7.392   0.453  1.3166 -0.5185  0.2563
  988MOL0     H33378   9.287   7.543   0.212  2.5070  0.8719  0.4573
  988MOL0     H33379   9.404   7.426   0.259  0.6550  1.1274  1.5677
  988MOL0     H33380   9.220   7.387   0.264 -1.2513  1.8490 -0.7109
  989MOL0     O33381   2.286   1.399   1.372  0.1662  1.0458 -0.1173
  989MOL0     C33382   2.278   1.511   1.324 -0.6286  0.2922  0.2803
  989MOL0     O33383   2.386   1.574   1.266 -0.0038 -0.0025 -0.1450
  989MOL0     C33384   2.493   1.496   1.252 -0.1034 -0.2542  0.3235
  989MOL0     C33385   2.619   1.507   1.322 -1.1121 -0.2420 -0.0287
  989MOL0     C33386   2.735   1.437   1.272 -0.3211 -0.1210 -0.1271
  989MOL0     C33387   2.727   1.352   1.158  0.1008  0.2358  0.1472
  989MOL0     O33388   2.830   1.293   1.085  0.7605 -0.0401  0.2183
  989MOL0     C33389   2.957   1.302   1.139 -0.3268  0.8933  0.0679
  989MOL0     C33390   3.030   1.422   1.075 -1.0431  0.0511  0.6636
  989MOL0     C33391   3.170   1.447   1.127  1.2155  0.4345  0.2836
  989MOL0     C33392   3.266   1.328   1.098 -0.1736  0.5623 -0.1281
  989MOL0     C33393   3.401   1.342   1.164 -0.5782  0.5601  0.6189
  989MOL0     C33394   3.485   1.214   1.172  0.2225 -0.4987  0.0652
  989MOL0     C33395   3.613   1.251   1.256 -0.2181  0.1783 -0.0137
  989MOL0     C33396   3.699   1.125   1.296  0.5345  0.7130 -0.3625
  989MOL0     N33397   3.764   1.057   1.186 -0.0593 -0.2238 -0.3137
  989MOL0     C33398   3.713   0.985   1.080 -0.1450  0.4570  0.2965
  989MOL0     C33399   3.821   0.933   1.019  0.7059  0.5556 -0.4582
  989MOL0     C33400   3.814   0.841   0.898  0.9469 -0.0399 -0.2592
  989MOL0     C33401   3.945   0.785   0.852 -0.2654 -0.1927 -0.5665
  989MOL0     C33402   3.992   0.665   0.935 -0.0551  0.3101  0.0441
  989MOL0     C33403   4.147   0.641   0.905  0.4488 -0.0118  0.1096
  989MOL0     O33404   4.193   0.527   0.980 -0.4408 -0.6250  0.0692
  989MOL0     C33405   4.327   0.492   0.968  0.9552 -0.5136 -0.0796
  989MOL0     C33406   4.422   0.577   0.909  0.3471  0.9490  0.1823
  989MOL0     C33407   4.559   0.531   0.905  1.1025  0.2472  0.0774
  989MOL0     C33408   4.596   0.406   0.963  0.1832 -1.0500 -0.8297
  989MOL0     C33409   4.732   0.365   0.957 -0.6813 -0.7538  0.5292
  989MOL0     O33410   4.779   0.251   1.018 -0.1460  0.0642  0.3589
  989MOL0     C33411   4.916   0.234   1.030  0.3423 -0.7232  0.2912
  989MOL0     C33412   5.015   0.333   1.039  0.5122  0.2847  0.3170
  989MOL0     C33413   5.153   0.297   1.051  0.0053  0.4168  0.0076
  989MOL0     C33414   5.202   0.169   1.045 -0.8244  1.3800 -0.1119
  989MOL0     O33415   5.340   0.155   1.079  0.8704 -0.2124 -0.0543
  989MOL0     C33416   5.400   0.028   1.090  0.2888  0.0735  0.0216
  989MOL0     C33417   5.537   0.037   1.157  0.4058  0.3099 -0.6192
  989MOL0     C33418   5.633   0.082   1.048  0.0388 -0.9018  0.0449
  989MOL0     C33419   5.769   0.097   1.113  0.3078 -1.2870 -0.0284
  989MOL0     C33420   5.869   0.151   1.004 -0.2815  0.1296  0.2852
  989MOL0     C33421   6.001   0.199   1.073 -0.4996 -0.4202  0.6169
  989MOL0     C33422   6.114   0.227   0.965  0.1578 -0.0993 -0.0734
  989MOL0     C33423   6.256   0.262   1.031  0.0368 -0.6846 -0.5875
  989MOL0    Cl33424   6.366   0.346   0.918  0.0974  0.4634 -0.1570
  989MOL0     C33425   5.101   0.067   1.032 -0.3809  0.3282  0.2417
  989MOL0     C33426   4.966   0.103   1.020 -0.4691 -0.0952 -0.2570
  989MOL0     O33427   4.792   0.434   0.879 -0.0717 -0.5760  0.0660
  989MOL0     C33428   4.497   0.330   1.030  0.1248 -0.5221  0.8239
  989MOL0     C33429   4.366   0.377   1.032  0.4356  0.0376  0.3816
  989MOL0     N33430   3.934   0.986   1.074  0.0837  0.0495 -0.6009
  989MOL0     N33431   3.903   1.061   1.175  0.4804  1.0354  0.9272
  989MOL0     C33432   2.603   1.330   1.099 -0.0307 -0.9453  0.2914
  989MOL0     C33433   2.491   1.402   1.148  0.0708  0.1607  0.3985
  989MOL0     C33434   2.154   1.596   1.345 -0.1544 -0.1647  0.3052
  989MOL0     C33435   2.143   1.719   1.277 -0.3716  0.2824  0.4932
  989MOL0     C33436   2.034   1.803   1.284 -1.2788 -0.0876  0.7906
  989MOL0     C33437   1.924   1.769   1.358 -0.0845  0.9874 -0.3933
  989MOL0     O33438   1.811   1.841   1.328 -0.0597  0.3322  0.3078
  989MOL0     C33439   1.704   1.823   1.410  1.0450 -0.0325 -0.0707
  989MOL0     C33440   1.580   1.910   1.369 -0.6672  0.5064 -0.5913
  989MOL0     C33441   1.492   1.861   1.261  0.1787 -0.7291 -0.0899
  989MOL0     C33442   1.360   1.932   1.278  0.4996 -0.2623 -1.0477
  989MOL0     C33443   1.279   1.950   1.147  0.2643 -0.9504 -0.1816
  989MOL0     C33444   1.196   1.962   1.060 -0.5249  0.2488 -0.0237
  989MOL0     C33445   1.934   1.654   1.446 -0.0866 -0.5830 -0.1915
  989MOL0     C33446   2.049   1.562   1.440 -0.0909 -0.5299  1.2640
  989MOL0     C33447   2.062   1.460   1.542  0.6697 -0.4333 -0.0787
  989MOL0     H33448   2.638   1.570   1.409 -0.9206  1.4971 -1.2839
  989MOL0     H33449   2.828   1.447   1.326 -0.7378 -1.0974  0.7969
  989MOL0     H33450   2.964   1.307   1.248  0.9182  0.8932  0.0125
  989MOL0     H33451   3.003   1.208   1.106 -2.3170 -0.8233  1.9085
  989MOL0     H33452   2.964   1.509   1.090 -0.7668  0.1662  1.2326
  989MOL0     H33453   3.047   1.409   0.968  1.6707 -0.6409  1.1193
  989MOL0     H33454   3.160   1.446   1.236  2.1809 -4.0880  0.5193
  989MOL0     H33455   3.221   1.541   1.100  0.7291  0.5182 -0.3790
  989MOL0     H33456   3.222   1.233   1.128 -0.0783  1.3694  2.8977
  989MOL0     H33457   3.283   1.328   0.989 -0.5639 -1.1234 -0.2066
  989MOL0     H33458   3.461   1.417   1.110  0.0533  0.5200  1.2533
  989MOL0     H33459   3.383   1.377   1.266 -0.3399 -0.5411  1.0464
  989MOL0     H33460   3.430   1.130   1.217  0.3223 -1.4653 -1.5363
  989MOL0     H33461   3.509   1.192   1.068 -0.6933 -0.3966 -0.1755
  989MOL0     H33462   3.566   1.294   1.345  0.3047  0.5009  0.1099
  989MOL0     H33463   3.686   1.317   1.209 -0.6928  0.4578 -0.3583
  989MOL0     H33464   3.780   1.162   1.358  0.1161  1.5238 -0.2797
  989MOL0     H33465   3.640   1.049   1.349 -1.8402  0.4028 -3.2130
  989MOL0     H33466   3.610   0.967   1.051  0.5214 -0.3773 -1.7469
  989MOL0     H33467   3.739   0.768   0.932 -3.8802  2.7780 -3.6532
  989MOL0     H33468   3.772   0.906   0.821 -0.8494 -0.8150  0.0125
  989MOL0     H33469   3.927   0.751   0.750 -2.6192 -0.9915  0.0597
  989MOL0     H33470   4.019   0.866   0.851  1.2750 -1.4462 -4.1947
  989MOL0     H33471   3.926   0.579   0.922 -3.5721  2.7296  0.6388
  989MOL0     H33472   3.990   0.678   1.043  1.1060 -2.0778  0.4108
  989MOL0     H33473   4.201   0.727   0.946  0.6751 -0.6674  1.2069
  989MOL0     H33474   4.173   0.642   0.799  1.1217  2.8195  0.2052
  989MOL0     H33475   4.406   0.669   0.854  0.1733  0.6286 -0.3089
  989MOL0     H33476   4.629   0.600   0.860  0.0695  1.3914  0.1678
  989MOL0     H33477   4.980   0.433   1.061 -0.8606 -0.0581 -0.2293
  989MOL0     H33478   5.224   0.378   1.063  1.0293 -0.2898 -1.0826
  989MOL0     H33479   5.343  -0.030   1.164  1.5224 -1.0350  0.1356
  989MOL0     H33480   5.394  -0.022   0.993 -0.0684 -1.1847  0.6603
  989MOL0     H33481   5.530   0.101   1.246  1.7381  1.4865 -1.3176
  989MOL0     H33482   5.568  -0.062   1.193 -0.1888 -0.2155 -1.5037
  989MOL0     H33483   5.626   0.016   0.962  0.0395 -1.4986  0.4985
  989MOL0     H33484   5.602   0.181   1.014  1.2739 -0.9271 -1.2143
  989MOL0     H33485   5.807   0.002   1.151 -1.5113 -1.6611  0.9764
  989MOL0     H33486   5.766   0.162   1.201  2.0371 -3.0875  1.4515
  989MOL0     H33487   5.829   0.233   0.945 -1.9084 -1.5896 -1.1125
  989MOL0     H33488   5.890   0.068   0.936  0.4076 -0.9095  1.6937
  989MOL0     H33489   5.982   0.289   1.133 -0.5781  0.8764 -1.2675
  989MOL0     H33490   6.045   0.119   1.132  0.0064  0.3968  1.3813
  989MOL0     H33491   6.072   0.308   0.904 -0.5851  1.7096  2.6712
  989MOL0     H33492   6.131   0.145   0.894  0.9306 -0.4111  0.4614
  989MOL0     H33493   6.237   0.321   1.121  3.2782 -0.5177  0.1020
  989MOL0     H33494   6.310   0.172   1.060  0.6548  0.6800  3.0261
  989MOL0     H33495   5.126  -0.038   1.022 -0.2492  0.4919 -1.4592
  989MOL0     H33496   4.891   0.026   1.003 -0.9526  0.0710  1.0514
  989MOL0     H33497   4.521   0.235   1.077 -0.1304  0.3271  2.7425
  989MOL0     H33498   4.283   0.325   1.078 -0.8383 -0.2247 -2.0496
  989MOL0     H33499   2.597   1.254   1.022  3.6892  0.5579 -1.7239
  989MOL0     H33500   2.399   1.383   1.092  0.0303 -0.6724  0.7338
  989MOL0     H33501   2.218   1.746   1.203  0.1789 -1.1978  0.4736
  989MOL0     H33502   2.020   1.881   1.210 -2.6413 -1.7256 -0.7945
  989MOL0     H33503   1.732   1.847   1.513 -0.2165  0.4734  0.1736
  989MOL0     H33504   1.675   1.717   1.410 -5.8709  1.3498  0.4054
  989MOL0     H33505   1.615   2.011   1.348 -1.5796  0.5697 -1.9656
  989MOL0     H33506   1.508   1.920   1.452  0.6247  2.0292  0.4044
  989MOL0     H33507   1.472   1.754   1.272 -0.3234 -0.6865 -0.5597
  989MOL0     H33508   1.538   1.882   1.164  1.1004 -2.6368 -0.1140
  989MOL0     H33509   1.295   1.887   1.354 -1.3054  3.3303 -0.2317
  989MOL0     H33510   1.386   2.033   1.309  0.0321 -0.2347 -0.7380
  989MOL0     H33511   1.124   1.958   0.981 -0.7290  1.0436  0.1129
  989MOL0     H33512   1.855   1.620   1.512 -0.6007 -1.6028 -1.2918
  989MOL0     H33513   2.165   1.469   1.579  0.3039  0.3805  0.7923
  989MOL0     H33514   1.999   1.486   1.628  0.5059 -3.1250  0.7198
  989MOL0     H33515   2.051   1.359   1.501  1.8049  0.1961 -2.0565
  990MOL0     O33516   8.967   8.361   1.713  0.7467  0.1412 -0.0123
  990MOL0     C33517   8.990   8.245   1.736  0.2764 -0.5110 -0.8273
  990MOL0     O33518   8.894   8.152   1.762 -0.5058  0.1640 -0.2076
  990MOL0     C33519   8.772   8.203   1.793 -0.3980  0.9137  0.0842
  990MOL0     C33520   8.715   8.163   1.914 -0.8814  0.9763  0.3279
  990MOL0     C33521   8.593   8.212   1.951  0.4209 -0.1880  0.2318
  990MOL0     C33522   8.515   8.287   1.852 -0.8827 -0.6895 -0.3328
  990MOL0     O33523   8.401   8.344   1.887 -0.2179  0.8338 -0.3459
  990MOL0     C33524   8.293   8.255   1.892 -0.0212  0.4671  0.7313
  990MOL0     C33525   8.161   8.321   1.884  0.8105 -0.0744  0.6388
  990MOL0     C33526   8.143   8.378   1.746  0.1886 -0.9550 -0.0322
  990MOL0     C33527   8.052   8.296   1.654 -0.3770 -0.3984  0.1842
  990MOL0     C33528   8.014   8.375   1.532  0.7218 -0.4774  1.2032
  990MOL0     C33529   7.916   8.303   1.442  0.7213 -0.0451  0.3885
  990MOL0     C33530   7.979   8.198   1.349  1.6477  0.3265 -0.7757
  990MOL0     C33531   7.906   8.176   1.216  0.1081 -0.2476 -0.2284
  990MOL0     N33532   7.770   8.130   1.239 -1.1660  0.2325  0.3668
  990MOL0     C33533   7.733   8.009   1.294  0.5186 -0.4821  0.0235
  990MOL0     C33534   7.599   8.010   1.296  0.5732 -0.2979  0.0127
  990MOL0     C33535   7.518   7.893   1.348 -0.5887 -0.0243  0.0496
  990MOL0     C33536   7.381   7.911   1.293  0.5091  0.4458 -1.1261
  990MOL0     C33537   7.285   7.818   1.363 -0.6933  0.1533 -0.1458
  990MOL0     C33538   7.139   7.847   1.335  0.2228  1.3443 -0.0870
  990MOL0     O33539   7.053   7.754   1.408 -0.5087  0.3792  0.3759
  990MOL0     C33540   6.921   7.759   1.400  0.3998 -0.1830  0.9639
  990MOL0     C33541   6.846   7.646   1.429  0.7974 -0.6043 -0.2346
  990MOL0     C33542   6.704   7.651   1.430  0.5641 -0.2685 -0.3159
  990MOL0     C33543   6.634   7.774   1.401 -1.0347  0.5688  0.6271
  990MOL0     C33544   6.489   7.787   1.412 -0.1343 -0.1334 -0.2426
  990MOL0     O33545   6.426   7.668   1.413  0.0029 -0.3429  0.1031
  990MOL0     C33546   6.284   7.670   1.438 -0.8993 -1.0658 -0.0215
  990MOL0     C33547   6.198   7.719   1.339 -0.2069 -0.1007 -0.7890
  990MOL0     C33548   6.067   7.726   1.367  0.2993  0.5867 -0.0202
  990MOL0     C33549   6.000   7.688   1.493  0.3321 -0.2855  1.1987
  990MOL0     O33550   5.874   7.704   1.534  0.4824 -0.2785  0.3376
  990MOL0     C33551   5.795   7.801   1.459 -0.8922  0.6563 -0.4074
  990MOL0     C33552   5.651   7.796   1.507 -0.7070  0.7661  0.3790
  990MOL0     C33553   5.632   7.867   1.643  0.5286  0.0239 -0.8757
  990MOL0     C33554   5.496   7.853   1.706  0.7282 -0.5307  0.1644
  990MOL0     C33555   5.404   7.951   1.634 -0.0985 -0.1907  0.1128
  990MOL0     C33556   5.268   7.912   1.686 -0.2585 -0.1275 -0.2353
  990MOL0     C33557   5.240   7.959   1.832 -0.0247 -0.3258 -0.3096
  990MOL0     C33558   5.096   7.940   1.884 -0.1019 -0.3871  0.2718
  990MOL0    Cl33559   5.037   7.769   1.857 -0.1550  0.0122 -0.2842
  990MOL0     C33560   6.084   7.630   1.594 -1.0906 -0.9302  0.0074
  990MOL0     C33561   6.230   7.622   1.562  0.7161  0.0037 -0.3277
  990MOL0     O33562   6.434   7.904   1.412  0.4799  0.5182 -0.3609
  990MOL0     C33563   6.719   7.881   1.378 -0.0121 -0.4729  0.1051
  990MOL0     C33564   6.855   7.875   1.364 -0.7946  0.2122  0.1149
  990MOL0     N33565   7.562   8.136   1.243 -0.0358 -0.0141  1.1771
  990MOL0     N33566   7.668   8.205   1.219 -0.3842  0.0175  0.2460
  990MOL0     C33567   8.573   8.327   1.734  0.0458  0.3368 -0.3394
  990MOL0     C33568   8.699   8.277   1.701  0.0297 -0.3234  0.3414
  990MOL0     C33569   9.145   8.197   1.735  0.4310 -0.4101  0.5445
  990MOL0     C33570   9.164   8.054   1.715 -0.3336 -0.7382  0.2508
  990MOL0     C33571   9.293   8.000   1.690 -0.2798 -0.5810 -0.5458
  990MOL0     C33572   9.398   8.088   1.680  0.1857 -0.2455 -0.7274
  990MOL0     O33573   9.520   8.031   1.653  0.2782 -0.2207  0.4050
  990MOL0     C33574   9.647   8.088   1.686 -0.1557  0.5756 -0.0831
  990MOL0     C33575   9.748   7.978   1.731  0.1061 -0.2713  0.8429
  990MOL0     C33576   9.886   8.043   1.781  0.8399  0.4467 -0.5269
  990MOL0     C33577   9.978   7.928   1.819 -0.0272 -0.0177  0.5255
  990MOL0     C33578  10.108   7.991   1.857 -0.6243  0.3334  0.9653
  990MOL0     C33579  10.210   8.031   1.914 -0.2059  0.2585 -0.1971
  990MOL0     C33580   9.377   8.228   1.693 -0.1076 -0.5815  1.1534
  990MOL0     C33581   9.252   8.289   1.708 -0.0098  0.5374 -0.5664
  990MOL0     C33582   9.234   8.444   1.706 -0.6344  0.3262  0.5010
  990MOL0     H33583   8.769   8.091   1.974  1.0558  1.1850 -1.0789
  990MOL0     H33584   8.565   8.199   2.055  1.0488 -1.6079  0.2428
  990MOL0     H33585   8.290   8.187   1.807  1.3141 -2.8451  3.1100
  990MOL0     H33586   8.293   8.192   1.982  0.5879  0.4242  0.7076
  990MOL0     H33587   8.148   8.391   1.967  0.6642  1.9574 -1.0070
  990MOL0     H33588   8.082   8.251   1.910 -2.9605  2.9914 -1.4470
  990MOL0     H33589   8.240   8.389   1.698  0.3712  0.8563  0.6931
  990MOL0     H33590   8.105   8.479   1.760  1.5103 -0.7944  3.2790
  990MOL0     H33591   8.099   8.202   1.624  3.8224  1.6431 -0.1920
  990MOL0     H33592   7.959   8.274   1.708 -0.5599 -0.1290 -0.0192
  990MOL0     H33593   7.954   8.458   1.573 -0.6770 -0.7565 -0.1970
  990MOL0     H33594   8.096   8.424   1.479 -0.7229 -0.9857 -1.6636
  990MOL0     H33595   7.830   8.257   1.490 -1.2777  3.9348  1.0993
  990MOL0     H33596   7.871   8.385   1.384 -0.8998 -0.3172  1.2071
  990MOL0     H33597   8.021   8.107   1.393  1.3757 -0.1382 -1.4599
  990MOL0     H33598   8.071   8.246   1.316  0.6888  2.2230 -0.8297
  990MOL0     H33599   7.905   8.261   1.147  1.7696  0.4815  0.5923
  990MOL0     H33600   7.964   8.102   1.161  3.1403  1.9524 -0.2044
  990MOL0     H33601   7.801   7.932   1.327  0.0760 -1.4969 -1.3415
  990MOL0     H33602   7.552   7.791   1.327 -1.3008 -0.1150 -0.7257
  990MOL0     H33603   7.510   7.914   1.455 -0.7346  2.0670 -0.3174
  990MOL0     H33604   7.354   8.014   1.319  0.4220  0.0492  0.4671
  990MOL0     H33605   7.374   7.910   1.183 -0.1169 -0.2087 -1.0893
  990MOL0     H33606   7.306   7.819   1.471 -1.0229  0.3702 -0.0815
  990MOL0     H33607   7.311   7.717   1.330  4.2042  1.4344 -0.9442
  990MOL0     H33608   7.115   7.833   1.229  0.7021 -0.6444  0.0394
  990MOL0     H33609   7.126   7.953   1.361  1.9743  1.0957  2.0967
  990MOL0     H33610   6.899   7.555   1.455  1.0926 -0.1633  0.7267
  990MOL0     H33611   6.664   7.555   1.461 -0.4425 -0.5078 -2.2483
  990MOL0     H33612   6.233   7.747   1.240  2.0765 -0.5375 -0.1398
  990MOL0     H33613   6.012   7.777   1.289 -1.6316 -1.1873  0.1001
  990MOL0     H33614   5.824   7.906   1.468 -1.4880  0.8172 -0.2971
  990MOL0     H33615   5.814   7.778   1.354  1.5398 -0.6680  0.2561
  990MOL0     H33616   5.587   7.844   1.432  0.5832  1.8613 -0.0670
  990MOL0     H33617   5.627   7.690   1.517  2.3135 -0.1793 -1.1272
  990MOL0     H33618   5.697   7.830   1.722  0.8253  0.1631 -1.0558
  990MOL0     H33619   5.654   7.974   1.632  1.6855 -0.1060  0.0144
  990MOL0     H33620   5.496   7.869   1.815 -5.1116 -0.4186  0.4951
  990MOL0     H33621   5.461   7.752   1.682  3.9784 -1.8631  0.5115
  990MOL0     H33622   5.410   7.917   1.531 -0.0612 -2.4251  0.8075
  990MOL0     H33623   5.432   8.055   1.656  0.3826 -0.4476  0.7472
  990MOL0     H33624   5.199   7.951   1.610  1.7177 -1.2805 -2.8003
  990MOL0     H33625   5.252   7.804   1.690  1.0377 -0.2873  2.6308
  990MOL0     H33626   5.256   8.064   1.855 -4.4140  0.5372 -0.4693
  990MOL0     H33627   5.297   7.892   1.898 -1.5569 -0.8429  0.5376
  990MOL0     H33628   5.094   7.974   1.988  2.6056 -0.4064  0.3866
  990MOL0     H33629   5.041   8.014   1.825 -1.6822 -0.7355  1.2468
  990MOL0     H33630   6.048   7.591   1.689  3.2343  0.2223  2.4244
  990MOL0     H33631   6.299   7.591   1.640  0.1685  0.8228  0.5011
  990MOL0     H33632   6.674   7.980   1.370  0.5362  0.0915  2.8968
  990MOL0     H33633   6.908   7.967   1.342 -1.0472 -0.1434 -2.2828
  990MOL0     H33634   8.526   8.392   1.661 -0.8952 -0.2473 -0.2744
  990MOL0     H33635   8.736   8.305   1.604 -0.4527  1.1248  0.5551
  990MOL0     H33636   9.072   7.998   1.706 -3.0620  3.5458 -1.3076
  990MOL0     H33637   9.297   7.892   1.678 -1.4650 -0.4322 -2.8692
  990MOL0     H33638   9.630   8.157   1.769  0.3218 -1.1911  1.5690
  990MOL0     H33639   9.685   8.149   1.604 -1.7030  1.6549 -0.0288
  990MOL0     H33640   9.763   7.928   1.635  0.7492  0.2521  0.6610
  990MOL0     H33641   9.701   7.906   1.799  2.1655 -1.9617  0.5636
  990MOL0     H33642   9.854   8.098   1.870 -1.2896 -0.2012 -0.8328
  990MOL0     H33643   9.943   8.106   1.713  1.4138  0.7721  0.2422
  990MOL0     H33644   9.932   7.868   1.898  1.1946 -1.9128 -0.1181
  990MOL0     H33645  10.000   7.866   1.731  1.2786  0.6858  0.3333
  990MOL0     H33646  10.295   8.072   1.965  0.8275  2.1714 -3.1698
  990MOL0     H33647   9.461   8.295   1.678 -0.0012 -0.6720  1.3489
  990MOL0     H33648   9.328   8.498   1.693 -2.5645  3.6669 -0.9316
  990MOL0     H33649   9.159   8.457   1.627 -0.2478 -2.4830 -0.4571
  990MOL0     H33650   9.192   8.482   1.799  1.7442 -1.6720  2.5500
  991MOL0     O33651   1.323   1.861  10.120 -0.5794  0.0083  0.2945
  991MOL0     C33652   1.237   1.930  10.072 -0.1533  0.2187  0.6932
  991MOL0     O33653   1.253   2.025   9.967 -0.2599 -0.1363 -0.3860
  991MOL0     C33654   1.378   2.048   9.929  1.1610  0.5868  0.7041
  991MOL0     C33655   1.484   2.091  10.003 -0.1764  0.5198 -0.6763
  991MOL0     C33656   1.603   2.114   9.946  0.1446 -0.5739  0.3422
  991MOL0     C33657   1.622   2.113   9.805  0.0758  1.0530  0.1008
  991MOL0     O33658   1.734   2.154   9.750  0.0840 -0.4866  0.6422
  991MOL0     C33659   1.729   2.296   9.744 -0.0167 -0.2614 -0.3658
  991MOL0     C33660   1.840   2.351   9.653  0.2160 -0.4592  0.5751
  991MOL0     C33661   1.980   2.364   9.698 -0.4677 -0.8734  0.3524
  991MOL0     C33662   2.052   2.226   9.701  0.5861 -0.1396 -0.6998
  991MOL0     C33663   2.196   2.247   9.742  0.3034 -0.2739 -0.4145
  991MOL0     C33664   2.275   2.306   9.627  0.7704  0.0053 -0.2675
  991MOL0     C33665   2.406   2.347   9.687 -0.1413 -0.4940 -0.4401
  991MOL0     C33666   2.492   2.403   9.576 -0.4513 -0.4801  0.0543
  991MOL0     N33667   2.614   2.437   9.645  0.2209  0.4111  0.2756
  991MOL0     C33668   2.639   2.550   9.716 -0.6522 -0.4723  0.0100
  991MOL0     C33669   2.764   2.540   9.759  0.3533 -0.6117 -0.3609
  991MOL0     C33670   2.837   2.625   9.853 -0.3970 -0.5345 -0.7150
  991MOL0     C33671   2.984   2.575   9.885 -0.4259 -0.1646 -0.2389
  991MOL0     C33672   3.032   2.639  10.011 -0.4647  0.9784  0.7227
  991MOL0     C33673   3.071   2.790  10.025  0.0785  0.2794 -0.4072
  991MOL0     O33674   3.151   2.835   9.911  0.1356 -0.7448 -0.9563
  991MOL0     C33675   3.181   2.968   9.910 -0.2900  0.0762  0.3218
  991MOL0     C33676   3.111   3.069   9.972  0.4366 -0.3259 -0.1636
  991MOL0     C33677   3.145   3.206   9.948  0.0841  0.6119 -0.4993
  991MOL0     C33678   3.242   3.238   9.845  0.4253 -0.1742  0.1265
  991MOL0     C33679   3.270   3.384   9.827 -0.8163 -0.1071  0.1502
  991MOL0     O33680   3.357   3.398   9.712 -0.2109 -0.4550  0.0264
  991MOL0     C33681   3.392   3.521   9.676 -0.5010  0.4649  1.1344
  991MOL0     C33682   3.307   3.619   9.635 -0.5552 -0.4817 -0.3223
  991MOL0     C33683   3.351   3.742   9.597 -0.1659 -0.6466 -0.4530
  991MOL0     C33684   3.482   3.762   9.560  0.1399  0.6548  0.7908
  991MOL0     O33685   3.534   3.878   9.504 -0.3520 -0.1274 -0.0980
  991MOL0     C33686   3.501   3.997   9.575  0.6037 -0.1084  0.4037
  991MOL0     C33687   3.631   4.065   9.614 -0.2801  0.1501 -0.3792
  991MOL0     C33688   3.709   3.989   9.725  0.1028 -0.3971  0.3702
  991MOL0     C33689   3.770   4.081   9.827 -1.0560 -0.2603  0.0980
  991MOL0     C33690   3.682   4.169   9.923 -0.8364 -0.0937 -0.0899
  991MOL0     C33691   3.562   4.100   9.982 -0.5635 -0.5169  0.5155
  991MOL0     C33692   3.481   4.200  10.063  0.5508 -0.8364 -0.0626
  991MOL0     C33693   3.341   4.142  10.096 -0.1573 -0.3555 -0.0729
  991MOL0    Cl33694   3.242   4.098   9.961  0.1753  0.0871 -0.0065
  991MOL0     C33695   3.569   3.650   9.570  0.3437 -0.3849  0.2437
  991MOL0     C33696   3.527   3.532   9.630 -0.6301  1.0263  0.3463
  991MOL0     O33697   3.219   3.476   9.897  0.1987  0.5873  0.1276
  991MOL0     C33698   3.304   3.132   9.778 -0.6312 -0.6031 -0.4163
  991MOL0     C33699   3.272   2.999   9.811 -0.2533  0.2959  0.1518
  991MOL0     N33700   2.805   2.406   9.723 -0.2670 -0.7210  0.2706
  991MOL0     N33701   2.716   2.344   9.659  0.3949 -0.2548 -0.0766
  991MOL0     C33702   1.527   2.046   9.728 -0.2457 -0.6481  0.1239
  991MOL0     C33703   1.393   2.027   9.786  0.0802 -0.0366  0.0572
  991MOL0     C33704   1.098   1.907  10.111  0.2571 -0.5125 -0.9333
  991MOL0     C33705   1.006   1.992  10.046 -0.2057  0.1203  0.0887
  991MOL0     C33706   0.872   1.979  10.074  0.1751  0.5892 -0.2072
  991MOL0     C33707   0.816   1.883  10.161 -0.5821 -0.7183 -0.2721
  991MOL0     O33708   0.674   1.884  10.172  0.0667 -0.2873 -0.2953
  991MOL0     C33709   0.612   1.804  10.274 -0.9344 -0.2125  0.9920
  991MOL0     C33710   0.460   1.828  10.275  0.3917  0.2626 -0.1101
  991MOL0     C33711   0.412   1.972  10.298  0.9771 -0.3890  0.5596
  991MOL0     C33712   0.306   1.972  10.398  0.4562  0.4992 -0.6576
  991MOL0     C33713   0.185   1.909  10.335 -0.6523  0.5628  0.2099
  991MOL0     C33714   0.097   1.846  10.284 -0.9171 -0.0061 -0.2424
  991MOL0     C33715   0.908   1.791  10.212 -0.0784  0.7935  1.0431
  991MOL0     C33716   1.046   1.797  10.188 -0.5573  0.3139 -0.7450
  991MOL0     C33717   1.136   1.692  10.255 -0.3461  0.7604 -0.1237
  991MOL0     H33718   1.477   2.101  10.111 -0.6093 -2.4599 -0.3549
  991MOL0     H33719   1.687   2.152  10.003  0.8724  1.9372 -2.1434
  991MOL0     H33720   1.636   2.323   9.693  0.0026  0.8493  0.1475
  991MOL0     H33721   1.750   2.327   9.847  1.7628 -0.0089 -0.7675
  991MOL0     H33722   1.808   2.452   9.625  1.1871  0.1534  1.5982
  991MOL0     H33723   1.826   2.291   9.562 -1.0033 -1.0357  1.1281
  991MOL0     H33724   1.975   2.420   9.792 -4.5520 -0.1725 -0.0731
  991MOL0     H33725   2.019   2.428   9.618  0.9506 -0.6223  1.1980
  991MOL0     H33726   2.003   2.156   9.769 -0.1447 -0.8820 -1.9670
  991MOL0     H33727   2.046   2.195   9.597  1.7921  2.7917 -1.7438
  991MOL0     H33728   2.199   2.320   9.823  1.0679  1.8542 -2.2505
  991MOL0     H33729   2.241   2.151   9.767 -1.6410 -1.2856 -0.5598
  991MOL0     H33730   2.291   2.237   9.543 -0.7510  0.2788 -0.8181
  991MOL0     H33731   2.222   2.393   9.586 -0.8647 -1.0753 -0.5269
  991MOL0     H33732   2.460   2.263   9.732  1.6907  0.1271 -1.3774
  991MOL0     H33733   2.394   2.415   9.772  1.3549 -1.1930  0.3724
  991MOL0     H33734   2.498   2.327   9.498 -5.3294  1.0339 -2.2139
  991MOL0     H33735   2.451   2.497   9.537  0.7214  0.1383  0.2901
  991MOL0     H33736   2.564   2.626   9.735  0.6797  0.3067  2.5864
  991MOL0     H33737   2.852   2.720   9.801  0.6528 -0.3180 -0.0351
  991MOL0     H33738   2.782   2.640   9.946  1.5018 -0.2299  0.4039
  991MOL0     H33739   2.985   2.466   9.898 -1.7896 -0.1664  0.0594
  991MOL0     H33740   3.037   2.602   9.794  1.2688  0.8910  1.0002
  991MOL0     H33741   3.123   2.582  10.033 -0.7024 -0.8024 -2.2615
  991MOL0     H33742   2.954   2.627  10.088  0.6433  0.3424  1.7770
  991MOL0     H33743   3.144   2.794  10.106  1.4102 -2.6384 -1.3274
  991MOL0     H33744   2.992   2.865  10.036 -2.8161 -2.8075  1.5607
  991MOL0     H33745   3.040   3.046  10.052  1.1618 -2.1602 -0.0202
  991MOL0     H33746   3.094   3.278  10.012  0.0001 -1.3501  1.8152
  991MOL0     H33747   3.203   3.597   9.656 -0.1122 -2.6720 -0.2700
  991MOL0     H33748   3.289   3.831   9.602 -1.1055 -1.2246 -1.3233
  991MOL0     H33749   3.441   4.069   9.520 -0.0012 -0.2537  0.8679
  991MOL0     H33750   3.439   3.974   9.662 -0.6794 -3.6143 -1.2493
  991MOL0     H33751   3.692   4.085   9.526  0.0871  0.8720  0.0261
  991MOL0     H33752   3.596   4.165   9.640  1.0047  0.5693 -0.1745
  991MOL0     H33753   3.644   3.926   9.788  1.0462 -2.2899 -0.4612
  991MOL0     H33754   3.780   3.918   9.681 -0.4716  0.1225 -1.4525
  991MOL0     H33755   3.837   4.148   9.774 -1.6310  1.3721  1.3513
  991MOL0     H33756   3.823   4.019   9.901 -0.7299 -0.2039 -0.0882
  991MOL0     H33757   3.657   4.262   9.872  0.7349  0.5470  0.2554
  991MOL0     H33758   3.735   4.193  10.016 -0.9158 -3.7452  1.0564
  991MOL0     H33759   3.497   4.057   9.905 -0.0288 -1.9191  0.8306
  991MOL0     H33760   3.593   4.014  10.041  0.2237 -1.1856 -0.8247
  991MOL0     H33761   3.467   4.294  10.010 -3.1930 -1.6852 -0.8300
  991MOL0     H33762   3.527   4.217  10.161 -0.6502  0.0127  0.3775
  991MOL0     H33763   3.351   4.051  10.156 -2.6323  0.0577  1.0778
  991MOL0     H33764   3.284   4.215  10.155 -1.5907 -1.0614 -0.5567
  991MOL0     H33765   3.671   3.672   9.539  0.2136  0.6271  0.4830
  991MOL0     H33766   3.590   3.444   9.635 -0.5583  0.7521 -3.0744
  991MOL0     H33767   3.364   3.146   9.688 -0.4206  3.1299  0.1786
  991MOL0     H33768   3.329   2.916   9.770  1.8890  0.5839  2.3181
  991MOL0     H33769   1.548   2.031   9.623 -0.2481  2.3516 -0.3849
  991MOL0     H33770   1.310   1.998   9.724  1.6635 -2.7941 -0.9534
  991MOL0     H33771   1.045   2.072   9.984  1.5374 -2.0095 -1.7257
  991MOL0     H33772   0.800   2.048  10.030 -3.0542 -2.3077  0.1284
  991MOL0     H33773   0.667   1.822  10.367 -1.8769  1.0968  1.3250
  991MOL0     H33774   0.622   1.700  10.241 -2.1768  0.4572 -1.7459
  991MOL0     H33775   0.434   1.768  10.363  2.7933  0.9464  1.1234
  991MOL0     H33776   0.412   1.783  10.188  1.7697 -0.5700 -0.4701
  991MOL0     H33777   0.383   2.013  10.200  0.2579  2.8289  1.9773
  991MOL0     H33778   0.494   2.040  10.323  0.2887  1.7974 -2.4719
  991MOL0     H33779   0.339   1.935  10.496  1.1688  2.6350 -0.0218
  991MOL0     H33780   0.288   2.076  10.429 -1.2230 -1.1009  4.8799
  991MOL0     H33781   0.023   1.781  10.242  1.0119 -1.9245 -0.8567
  991MOL0     H33782   0.881   1.700  10.265  0.2897 -0.3825 -0.7072
  991MOL0     H33783   1.173   1.619  10.182  2.3949  2.5429 -0.6561
  991MOL0     H33784   1.220   1.734  10.310  1.2745  0.1164 -1.9828
  991MOL0     H33785   1.070   1.639  10.324  0.9810 -0.9430 -0.0730
  992MOL0     O33786   8.140   3.088   4.791  0.4654 -0.2232  0.9243
  992MOL0     C33787   8.078   2.995   4.746  0.2424  0.3845  0.2039
  992MOL0     O33788   8.121   2.905   4.642 -0.0019 -0.2064 -0.3099
  992MOL0     C33789   8.257   2.900   4.609  0.4238  0.4206  0.9034
  992MOL0     C33790   8.288   2.886   4.468  0.4569  0.3880  0.2269
  992MOL0     C33791   8.416   2.894   4.425 -0.1978  0.7233  0.2039
  992MOL0     C33792   8.515   2.927   4.521 -0.5652 -0.0296 -0.2602
  992MOL0     O33793   8.644   2.946   4.482 -0.0169  0.7112 -0.1424
  992MOL0     C33794   8.685   2.870   4.362 -0.2520 -0.3891 -0.9226
  992MOL0     C33795   8.825   2.836   4.384 -0.6439 -0.1257 -0.0597
  992MOL0     C33796   8.914   2.957   4.404  0.2029 -0.6735  0.7708
  992MOL0     C33797   9.060   2.920   4.424 -0.6276 -0.3469 -0.2766
  992MOL0     C33798   9.164   3.028   4.414  0.1808 -0.4452 -0.0379
  992MOL0     C33799   9.169   3.148   4.512  0.0169 -0.0294 -0.1842
  992MOL0     C33800   9.164   3.091   4.650  0.0543 -0.5895 -0.2214
  992MOL0     C33801   9.269   2.985   4.696  0.2317 -0.3940  0.1367
  992MOL0     N33802   9.402   3.044   4.719 -0.7564 -0.6502  0.2864
  992MOL0     C33803   9.429   3.131   4.826 -0.3606 -1.1843  0.4971
  992MOL0     C33804   9.563   3.144   4.823  0.9125  0.3184 -0.8936
  992MOL0     C33805   9.645   3.212   4.921 -1.0363  0.2669 -0.5022
  992MOL0     C33806   9.795   3.240   4.881 -0.3288 -0.5892  0.0953
  992MOL0     C33807   9.871   3.324   4.989 -0.0560  0.7756 -0.4947
  992MOL0     C33808  10.027   3.314   4.972 -0.4885 -0.3766 -0.3228
  992MOL0     O33809  10.101   3.359   5.086 -0.0681  0.2684  0.0116
  992MOL0     C33810  10.239   3.356   5.076 -1.2303 -0.2784 -0.6370
  992MOL0     C33811  10.315   3.323   4.967 -1.2412 -0.0846  0.2207
  992MOL0     C33812  10.456   3.315   4.989 -0.8768 -0.7766 -0.7869
  992MOL0     C33813  10.510   3.350   5.114  0.3958  1.0702 -0.5039
  992MOL0     C33814  10.660   3.328   5.131 -0.2391  0.5894  0.0680
  992MOL0     O33815  10.736   3.325   5.020 -0.4586 -0.3617 -0.0433
  992MOL0     C33816  10.868   3.293   5.027 -0.5420  0.7573 -0.7951
  992MOL0     C33817  10.915   3.175   5.086  0.2075 -0.6665  0.7821
  992MOL0     C33818  11.050   3.152   5.089  0.5527  0.1674 -0.1931
  992MOL0     C33819  11.140   3.239   5.028  0.7529 -0.2679  0.4412
  992MOL0     O33820  11.273   3.225   5.037  0.5917  0.1964 -0.6705
  992MOL0     C33821  11.333   3.102   5.083 -0.3256  0.1681  0.2633
  992MOL0     C33822  11.486   3.094   5.055 -0.1487 -0.3200  0.8147
  992MOL0     C33823  11.556   3.180   5.155 -0.1638  0.4709  0.1269
  992MOL0     C33824  11.705   3.172   5.135  0.0774  0.1527  0.3059
  992MOL0     C33825  11.774   3.280   5.224  0.0294 -0.1178  0.2461
  992MOL0     C33826  11.929   3.294   5.194 -0.4684  0.7228 -0.5401
  992MOL0     C33827  11.972   3.417   5.284 -0.1420 -0.4746 -0.3607
  992MOL0     C33828  12.122   3.452   5.286  0.2491 -0.8772 -0.4359
  992MOL0    Cl33829  12.227   3.317   5.354  0.3384  0.2672  0.1919
  992MOL0     C33830  11.091   3.351   4.964  0.8024  0.2117  0.0754
  992MOL0     C33831  10.955   3.374   4.963 -0.1359 -0.7371 -0.1228
  992MOL0     O33832  10.703   3.327   5.243  0.1130  0.4634 -0.0847
  992MOL0     C33833  10.430   3.395   5.223 -0.0354  0.2429  0.0997
  992MOL0     C33834  10.296   3.399   5.198  0.9719  0.6754  0.6770
  992MOL0     N33835   9.615   3.056   4.725 -0.1550 -0.2900 -0.8308
  992MOL0     N33836   9.516   3.001   4.668 -0.7480 -0.1786 -0.6372
  992MOL0     C33837   8.490   2.945   4.657  0.4714 -0.4130 -0.0052
  992MOL0     C33838   8.360   2.924   4.706 -0.4108  0.2586  0.2483
  992MOL0     C33839   7.943   2.984   4.792 -0.1269  0.1939 -0.0869
  992MOL0     C33840   7.853   3.075   4.744 -0.2055  0.6783 -0.6551
  992MOL0     C33841   7.714   3.065   4.769  0.1212 -1.1202 -0.3806
  992MOL0     C33842   7.674   2.955   4.851  0.5452 -0.5006 -0.4825
  992MOL0     O33843   7.535   2.948   4.877  0.3136  0.6532 -0.7940
  992MOL0     C33844   7.487   2.827   4.953  0.6859 -0.6411 -0.2358
  992MOL0     C33845   7.336   2.821   4.990 -0.2496  0.1795 -0.1127
  992MOL0     C33846   7.278   2.962   5.010 -0.2754 -0.3090 -0.2304
  992MOL0     C33847   7.129   2.963   5.042 -0.3857  0.5244  0.2658
  992MOL0     C33848   7.077   2.873   5.142  0.3023 -0.6869  1.0580
  992MOL0     C33849   7.041   2.789   5.221  0.1247 -0.2019 -0.1510
  992MOL0     C33850   7.766   2.857   4.890  0.7512  0.2832  0.5585
  992MOL0     C33851   7.906   2.874   4.866  0.5934  0.8309  0.0606
  992MOL0     C33852   7.997   2.759   4.904 -0.1831 -0.3537  0.3331
  992MOL0     H33853   8.204   2.863   4.403 -0.8616 -1.8663  2.5656
  992MOL0     H33854   8.432   2.889   4.318 -2.6761 -4.2144 -0.2046
  992MOL0     H33855   8.632   2.775   4.350  0.5952 -0.9836 -0.0726
  992MOL0     H33856   8.682   2.937   4.276 -1.5621 -1.9875 -2.1917
  992MOL0     H33857   8.869   2.775   4.304  0.2852  1.5285 -0.8592
  992MOL0     H33858   8.841   2.781   4.477  1.3027  1.3807  0.5619
  992MOL0     H33859   8.880   3.007   4.495  2.3715 -0.0244  1.2637
  992MOL0     H33860   8.922   3.032   4.324 -3.7663 -0.0952  0.6946
  992MOL0     H33861   9.076   2.867   4.519 -1.7471 -0.8373 -0.3440
  992MOL0     H33862   9.090   2.844   4.351 -2.9965 -2.3896  0.7018
  992MOL0     H33863   9.260   2.975   4.418  0.3137 -0.3246 -1.2403
  992MOL0     H33864   9.158   3.072   4.314  0.4095  1.1369  0.6181
  992MOL0     H33865   9.254   3.215   4.496  0.4189 -1.1302 -3.2994
  992MOL0     H33866   9.085   3.217   4.503  1.4945  1.8304 -0.2198
  992MOL0     H33867   9.069   3.038   4.655 -0.8178  0.9614  0.2004
  992MOL0     H33868   9.152   3.169   4.726 -1.9417  2.5302 -3.4385
  992MOL0     H33869   9.220   2.937   4.782  1.1074  1.1988  1.5798
  992MOL0     H33870   9.281   2.905   4.622  2.6127  1.4166 -1.5845
  992MOL0     H33871   9.351   3.171   4.891 -0.1833 -0.8367  0.4960
  992MOL0     H33872   9.599   3.304   4.957  1.8996  1.4616  0.5616
  992MOL0     H33873   9.653   3.145   5.007  1.7334  0.9572 -0.1111
  992MOL0     H33874   9.847   3.146   4.862 -0.2050 -0.4046 -0.4994
  992MOL0     H33875   9.808   3.298   4.789  4.4255  0.9428  1.4387
  992MOL0     H33876   9.844   3.286   5.088 -1.1053 -0.1517 -1.1123
  992MOL0     H33877   9.838   3.428   4.994 -0.8819  0.4625  2.6352
  992MOL0     H33878  10.062   3.366   4.882  1.5281 -1.8391 -0.4573
  992MOL0     H33879  10.057   3.209   4.961  3.2034  0.4698  0.0912
  992MOL0     H33880  10.285   3.290   4.869  0.7776  2.0240 -1.2071
  992MOL0     H33881  10.525   3.286   4.910 -0.5194 -0.6325 -0.5293
  992MOL0     H33882  10.843   3.096   5.104 -1.1167 -0.3269 -2.3905
  992MOL0     H33883  11.080   3.059   5.138  0.0941  1.3035  2.4231
  992MOL0     H33884  11.311   3.091   5.190 -0.0054 -1.1387  0.2079
  992MOL0     H33885  11.272   3.026   5.033 -2.4391 -1.0211  4.2344
  992MOL0     H33886  11.532   2.995   5.065 -1.1566 -0.9133 -0.1734
  992MOL0     H33887  11.510   3.124   4.953 -0.9257  0.7814  0.9367
  992MOL0     H33888  11.520   3.283   5.160 -0.7806  0.2446  0.5405
  992MOL0     H33889  11.530   3.135   5.251 -2.7813  1.3291 -0.0771
  992MOL0     H33890  11.734   3.208   5.036 -1.5243 -0.2869 -0.3702
  992MOL0     H33891  11.731   3.070   5.161  1.2932  0.3341 -0.1253
  992MOL0     H33892  11.752   3.268   5.330 -0.1289  3.0185  0.6453
  992MOL0     H33893  11.731   3.375   5.190  2.6563  0.8808 -0.5415
  992MOL0     H33894  11.984   3.209   5.236  0.6424  1.0017 -1.3862
  992MOL0     H33895  11.959   3.301   5.089  3.8598 -1.2387  0.3449
  992MOL0     H33896  11.939   3.398   5.386  1.9318 -0.2969  0.3937
  992MOL0     H33897  11.919   3.503   5.241  0.4033  2.5836  4.3137
  992MOL0     H33898  12.153   3.475   5.183  1.0593 -0.3071 -0.0680
  992MOL0     H33899  12.134   3.539   5.351 -1.9492 -0.7026 -0.1819
  992MOL0     H33900  11.172   3.415   4.930  0.6012  0.7532  0.6057
  992MOL0     H33901  10.927   3.459   4.900  1.4523 -0.3386 -0.3374
  992MOL0     H33902  10.477   3.418   5.318 -0.4191 -2.2485  0.9850
  992MOL0     H33903  10.225   3.434   5.273  1.3086  3.1067 -0.0527
  992MOL0     H33904   8.572   2.952   4.728 -0.0052 -1.3864  0.6603
  992MOL0     H33905   8.344   2.933   4.813  0.2124 -2.2615  0.6171
  992MOL0     H33906   7.874   3.160   4.679 -1.5272  1.1339 -0.5334
  992MOL0     H33907   7.626   3.126   4.747 -1.7480 -3.0651  1.2884
  992MOL0     H33908   7.539   2.828   5.049 -1.1251  0.7873  0.7886
  992MOL0     H33909   7.513   2.736   4.898  0.9171  0.6961 -2.4654
  992MOL0     H33910   7.327   2.764   5.083 -1.9316 -0.9351 -0.9094
  992MOL0     H33911   7.274   2.775   4.912  1.9338 -0.1136 -1.7586
  992MOL0     H33912   7.292   3.018   4.917  3.6328 -1.7207 -0.7086
  992MOL0     H33913   7.326   3.015   5.094 -3.0709 -0.1012  1.3414
  992MOL0     H33914   7.112   3.066   5.078 -0.0840  0.0139  1.9913
  992MOL0     H33915   7.078   2.957   4.946  1.9281  3.7972 -1.3894
  992MOL0     H33916   7.033   2.724   5.306  2.1858  0.4348  0.5958
  992MOL0     H33917   7.739   2.768   4.945 -3.3239  0.3945 -0.9471
  992MOL0     H33918   7.993   2.764   5.014 -0.0396  2.5182  0.2964
  992MOL0     H33919   7.954   2.666   4.868  0.5159 -2.0533  3.5082
  992MOL0     H33920   8.097   2.761   4.861 -0.5215 -0.3585 -0.4680
  993MOL0     O33921   6.737   1.341   0.999  0.4564 -0.5789 -0.2462
  993MOL0     C33922   6.726   1.235   0.938  0.2370  0.6526 -0.0846
  993MOL0     O33923   6.827   1.146   0.910  0.0412 -0.3933  0.3730
  993MOL0     C33924   6.955   1.193   0.882 -0.1294 -0.1009  0.0971
  993MOL0     C33925   7.070   1.119   0.933 -0.3361  0.0783 -0.1063
  993MOL0     C33926   7.206   1.153   0.899 -0.2971 -0.2696  0.3112
  993MOL0     C33927   7.218   1.256   0.813 -0.2294 -0.6126  0.2480
  993MOL0     O33928   7.335   1.281   0.744 -0.0432 -0.2213  0.5828
  993MOL0     C33929   7.416   1.178   0.680 -1.0724 -0.3777  0.4227
  993MOL0     C33930   7.553   1.245   0.639  0.0598  0.9383 -0.2355
  993MOL0     C33931   7.667   1.141   0.629 -0.5172  0.2825  0.6497
  993MOL0     C33932   7.803   1.202   0.608  1.0648 -1.4331 -0.5088
  993MOL0     C33933   7.917   1.106   0.629 -1.5409 -0.3616  0.1008
  993MOL0     C33934   8.043   1.193   0.616  0.7652 -0.3963  0.6906
  993MOL0     C33935   8.160   1.125   0.667  0.1871 -0.1458 -0.3301
  993MOL0     C33936   8.298   1.163   0.612  0.2726  0.5099  0.4043
  993MOL0     N33937   8.405   1.101   0.699 -0.0293  0.5912  0.4551
  993MOL0     C33938   8.428   1.118   0.836 -0.4316  0.1639 -0.5360
  993MOL0     C33939   8.546   1.049   0.861 -0.8907 -0.6270  0.1121
  993MOL0     C33940   8.621   1.040   0.986  0.0016  0.9916  0.5128
  993MOL0     C33941   8.710   1.155   1.007  0.6327  0.7831 -0.7969
  993MOL0     C33942   8.776   1.134   1.137  0.0221 -0.3682 -0.5779
  993MOL0     C33943   8.923   1.080   1.128  0.3663  0.0352 -0.5418
  993MOL0     O33944   9.005   1.165   1.056  0.2655  0.1248  0.4255
  993MOL0     C33945   9.141   1.153   1.058  0.4644 -1.2115  0.1821
  993MOL0     C33946   9.217   1.064   1.132  0.1272  0.1985  0.3214
  993MOL0     C33947   9.360   1.068   1.119 -0.1723 -0.5624  0.7857
  993MOL0     C33948   9.430   1.158   1.030  0.0862  0.2390  0.8043
  993MOL0     C33949   9.577   1.159   1.007  0.0922  0.3118  0.1570
  993MOL0     O33950   9.650   1.102   1.107 -0.2064  0.3047  0.4410
  993MOL0     C33951   9.787   1.115   1.109 -0.7488 -0.4583 -0.4445
  993MOL0     C33952   9.869   1.038   1.028  0.5066 -0.0666 -0.3367
  993MOL0     C33953  10.002   1.024   1.057  0.6868  0.5317 -0.1053
  993MOL0     C33954  10.055   1.089   1.168 -0.7555  0.1908  0.3981
  993MOL0     O33955  10.186   1.039   1.197  0.2627 -0.2677  0.5879
  993MOL0     C33956  10.264   1.100   1.304  0.5604 -0.1176 -0.6061
  993MOL0     C33957  10.405   1.036   1.310  0.8907  0.8483 -0.2581
  993MOL0     C33958  10.495   1.102   1.408 -0.6438  0.1288 -0.9276
  993MOL0     C33959  10.537   1.235   1.377  0.3872 -0.7819  0.1326
  993MOL0     C33960  10.623   1.304   1.480 -0.3105 -0.0599  0.3585
  993MOL0     C33961  10.535   1.353   1.592 -0.4694  0.0897  0.2223
  993MOL0     C33962  10.612   1.431   1.695 -0.5185 -0.7362  0.2421
  993MOL0     C33963  10.547   1.450   1.829  0.3483  0.3043  0.2838
  993MOL0    Cl33964  10.613   1.590   1.913 -0.0377  0.1793  0.2177
  993MOL0     C33965   9.977   1.176   1.249 -0.2814 -0.4558  0.5540
  993MOL0     C33966   9.839   1.183   1.216  0.1432  0.3905 -0.0460
  993MOL0     O33967   9.618   1.229   0.919  0.3851  0.0817  0.5941
  993MOL0     C33968   9.345   1.253   0.967  0.5281  0.8416 -1.0018
  993MOL0     C33969   9.206   1.247   0.978 -0.1664  0.0788 -0.5012
  993MOL0     N33970   8.592   0.996   0.743 -0.8987 -0.0425 -0.2407
  993MOL0     N33971   8.513   1.029   0.645  0.3247 -0.0389 -0.0429
  993MOL0     C33972   7.113   1.326   0.764 -0.3837 -0.2454 -0.0071
  993MOL0     C33973   6.989   1.303   0.808  0.4304 -1.0048  0.3589
  993MOL0     C33974   6.596   1.165   0.935 -0.2807  0.7836  0.5199
  993MOL0     C33975   6.516   1.129   1.046  0.1039 -0.4077 -0.4212
  993MOL0     C33976   6.392   1.079   1.027  0.1266 -0.0478  0.4059
  993MOL0     C33977   6.339   1.053   0.897  0.6418 -0.6323  0.5514
  993MOL0     O33978   6.215   1.002   0.873  0.4819 -0.2177 -0.1195
  993MOL0     C33979   6.125   0.977   0.983  0.0883  0.2847 -0.0930
  993MOL0     C33980   6.003   0.903   0.926  0.0396 -0.5910  0.0819
  993MOL0     C33981   5.930   0.988   0.819  0.1525 -0.3305 -0.2967
  993MOL0     C33982   5.854   0.889   0.722  0.5435  0.5928  0.6564
  993MOL0     C33983   5.744   0.831   0.798 -0.2504  0.0252 -0.3537
  993MOL0     C33984   5.661   0.768   0.851 -0.6479  0.3562 -0.1942
  993MOL0     C33985   6.414   1.086   0.790  1.0531 -0.0792 -0.1074
  993MOL0     C33986   6.547   1.145   0.805 -0.4487  1.0003 -0.5300
  993MOL0     C33987   6.630   1.167   0.681  0.0913 -0.2436  0.2166
  993MOL0     H33988   7.039   1.044   1.005 -1.5589  1.1999  0.5775
  993MOL0     H33989   7.282   1.095   0.951  0.7616  0.6922 -0.1286
  993MOL0     H33990   7.414   1.099   0.755 -2.9228  0.5668  1.4321
  993MOL0     H33991   7.374   1.137   0.587 -0.3301  1.1345 -0.6274
  993MOL0     H33992   7.596   1.314   0.712  1.1313  2.8659 -2.5537
  993MOL0     H33993   7.547   1.299   0.545 -0.6230 -0.3502 -0.9530
  993MOL0     H33994   7.647   1.072   0.547  2.3919  0.2598 -0.1804
  993MOL0     H33995   7.667   1.084   0.723  1.5912  1.2322  1.3137
  993MOL0     H33996   7.814   1.245   0.508  0.3307  1.7768  0.6525
  993MOL0     H33997   7.802   1.292   0.671 -0.4944 -0.8179 -1.3537
  993MOL0     H33998   7.913   1.080   0.736  1.9736  0.9114  0.6839
  993MOL0     H33999   7.906   1.022   0.561 -0.5171  0.5253 -1.2060
  993MOL0     H34000   8.049   1.235   0.515  2.6001 -1.3979  0.3437
  993MOL0     H34001   8.034   1.284   0.676  4.2154  0.5379 -0.0136
  993MOL0     H34002   8.143   1.018   0.650 -2.5315  0.2597 -0.5240
  993MOL0     H34003   8.154   1.154   0.773 -1.2184  3.0315 -1.1598
  993MOL0     H34004   8.315   1.132   0.508 -1.3799 -1.0497  0.5522
  993MOL0     H34005   8.307   1.272   0.615  0.7084  0.5545 -1.1614
  993MOL0     H34006   8.369   1.178   0.905 -0.7827  0.2838 -0.9353
  993MOL0     H34007   8.543   1.050   1.061  0.0003  3.4499  0.2471
  993MOL0     H34008   8.679   0.948   0.997  2.0100  2.3033  1.5227
  993MOL0     H34009   8.787   1.159   0.930  2.2072  1.1979  0.7296
  993MOL0     H34010   8.654   1.249   1.004  0.4079  0.6217 -2.6785
  993MOL0     H34011   8.716   1.079   1.210  2.2835  0.4327  2.0464
  993MOL0     H34012   8.794   1.231   1.185  1.8388 -0.5011 -0.9129
  993MOL0     H34013   8.924   0.980   1.084  0.5101  0.1319 -0.7588
  993MOL0     H34014   8.968   1.074   1.228  1.5848 -1.2894 -1.1258
  993MOL0     H34015   9.166   1.000   1.203 -1.4944  1.1044  0.0257
  993MOL0     H34016   9.417   1.004   1.185  3.1502 -0.0411 -1.2779
  993MOL0     H34017   9.819   0.988   0.945 -2.1229  1.7763  0.0242
  993MOL0     H34018  10.074   0.965   1.001  2.7702  2.3074  0.5497
  993MOL0     H34019  10.268   1.208   1.290  2.5386 -0.3066 -1.8695
  993MOL0     H34020  10.213   1.089   1.400  0.2549  3.7848 -0.1487
  993MOL0     H34021  10.403   0.932   1.344  0.9600  1.2887  1.1273
  993MOL0     H34022  10.445   1.034   1.208 -0.1488 -1.1027 -0.6842
  993MOL0     H34023  10.451   1.099   1.508 -0.6724  0.0459 -0.9426
  993MOL0     H34024  10.586   1.041   1.418  0.0689  0.9814 -2.0474
  993MOL0     H34025  10.453   1.303   1.362 -1.7053 -1.7140  5.3886
  993MOL0     H34026  10.587   1.229   1.279 -1.4612 -1.4036 -0.8223
  993MOL0     H34027  10.659   1.390   1.423 -0.5271 -0.2573 -0.0812
  993MOL0     H34028  10.716   1.255   1.509 -0.7937 -0.9736  0.4025
  993MOL0     H34029  10.465   1.429   1.556  0.1444  0.5581  0.0134
  993MOL0     H34030  10.486   1.264   1.633  1.7994 -1.3183  0.0762
  993MOL0     H34031  10.626   1.530   1.650 -0.2080 -0.1509  1.5692
  993MOL0     H34032  10.711   1.386   1.711  1.8062  3.3146 -1.1912
  993MOL0     H34033  10.438   1.446   1.828  0.3771 -1.5239  0.7599
  993MOL0     H34034  10.572   1.364   1.891  0.1662  0.4130  0.5103
  993MOL0     H34035  10.020   1.227   1.334  0.8890  1.0321 -0.8574
  993MOL0     H34036   9.778   1.244   1.282  0.5318  1.4185 -0.6190
  993MOL0     H34037   9.382   1.320   0.890  0.6719  1.0416 -0.7628
  993MOL0     H34038   9.149   1.322   0.923 -3.4371 -1.9791 -0.2039
  993MOL0     H34039   7.134   1.404   0.691 -1.5081 -0.4318 -0.5391
  993MOL0     H34040   6.909   1.371   0.779  1.5595  1.0884  1.9019
  993MOL0     H34041   6.547   1.145   1.148 -0.1496  2.6659 -0.7575
  993MOL0     H34042   6.338   1.058   1.119  0.6795 -1.2848  0.4744
  993MOL0     H34043   6.092   1.077   1.013 -0.2786  1.2453 -3.2583
  993MOL0     H34044   6.164   0.915   1.064 -2.9141  2.8286  3.6781
  993MOL0     H34045   5.940   0.876   1.012  0.3130  0.7269  0.7162
  993MOL0     H34046   6.044   0.809   0.887 -0.2620 -1.3525  1.5171
  993MOL0     H34047   5.999   1.043   0.754 -1.4212  1.3515 -0.6302
  993MOL0     H34048   5.862   1.060   0.866 -0.0061 -0.6570 -0.0216
  993MOL0     H34049   5.809   0.936   0.634 -2.8253 -3.3832 -0.1173
  993MOL0     H34050   5.922   0.811   0.687 -1.3693 -0.5618 -0.7208
  993MOL0     H34051   5.593   0.722   0.918 -1.2856  1.9814  0.3289
  993MOL0     H34052   6.375   1.065   0.691 -0.0065  2.7661 -0.3693
  993MOL0     H34053   6.569   1.170   0.591 -0.0968 -4.6707 -0.0025
  993MOL0     H34054   6.708   1.243   0.690  1.0405 -1.1460 -0.2145
  993MOL0     H34055   6.704   1.090   0.658 -0.7200 -0.0854 -3.3927
  994MOL0     O34056   1.759  11.254   8.045  0.3061  0.0882 -0.7974
  994MOL0     C34057   1.754  11.158   8.117  0.2220  1.4735  0.0487
  994MOL0     O34058   1.862  11.075   8.142 -0.3227 -0.1761  0.1684
  994MOL0     C34059   1.984  11.087   8.071  0.2100 -0.3060  0.1626
  994MOL0     C34060   2.090  11.018   8.126  0.0831 -0.2530 -0.5926
  994MOL0     C34061   2.216  11.015   8.066  0.2696 -0.5598  0.3626
  994MOL0     C34062   2.235  11.097   7.950  0.2247  0.6211  0.3403
  994MOL0     O34063   2.365  11.089   7.901  0.1872 -0.2586 -0.3464
  994MOL0     C34064   2.405  11.211   7.825 -0.0579  0.8785 -0.2785
  994MOL0     C34065   2.555  11.200   7.808 -0.5314  0.8427 -0.2762
  994MOL0     C34066   2.627  11.249   7.933 -1.0962 -0.2315  0.6343
  994MOL0     C34067   2.775  11.226   7.916  0.7240 -0.1640  0.3065
  994MOL0     C34068   2.860  11.229   8.045 -0.1480  1.4610  0.4564
  994MOL0     C34069   3.007  11.178   8.023 -0.1706  0.2585  0.4128
  994MOL0     C34070   3.088  11.274   7.935  0.1071 -0.1317 -0.0091
  994MOL0     C34071   3.222  11.212   7.902  0.2778  1.3231 -0.1095
  994MOL0     N34072   3.302  11.311   7.819 -0.1187 -0.4202 -0.0796
  994MOL0     C34073   3.420  11.278   7.752  0.2436 -0.8594  0.1842
  994MOL0     C34074   3.470  11.400   7.705  0.7344 -0.0126 -0.6944
  994MOL0     C34075   3.595  11.427   7.630 -0.2826 -0.1252  0.0456
  994MOL0     C34076   3.721  11.384   7.714  0.8660  0.1306  0.5688
  994MOL0     C34077   3.848  11.427   7.637 -0.2879  0.0464 -0.4513
  994MOL0     C34078   3.893  11.356   7.515 -0.2198 -0.5551 -0.0866
  994MOL0     O34079   3.898  11.212   7.535 -0.0801 -0.5691  0.5668
  994MOL0     C34080   4.016  11.145   7.561 -0.1336  0.6150 -0.3251
  994MOL0     C34081   4.125  11.213   7.626  0.1284 -0.3216 -0.0405
  994MOL0     C34082   4.246  11.149   7.659 -0.1450  0.4937 -0.0125
  994MOL0     C34083   4.264  11.025   7.604  0.1864 -0.2232  0.4901
  994MOL0     C34084   4.392  10.961   7.613 -0.3781  0.1672 -0.3712
  994MOL0     O34085   4.494  11.034   7.666 -0.1261 -0.6889 -0.1443
  994MOL0     C34086   4.609  10.965   7.689 -0.1877 -0.0248 -0.2429
  994MOL0     C34087   4.616  10.845   7.768  0.3808 -0.6575  0.0270
  994MOL0     C34088   4.736  10.772   7.791 -1.0693  0.1675 -0.5143
  994MOL0     C34089   4.859  10.834   7.750  0.4832  1.0211 -0.0682
  994MOL0     O34090   4.974  10.763   7.757 -0.8273  0.7717  0.5771
  994MOL0     C34091   5.110  10.816   7.759 -0.4816  0.3697  1.4766
  994MOL0     C34092   5.170  10.774   7.618  0.8431  0.2090 -0.3060
  994MOL0     C34093   5.308  10.839   7.599 -0.0220 -0.0841  0.7026
  994MOL0     C34094   5.402  10.798   7.713  0.6525  0.7427  0.8583
  994MOL0     C34095   5.551  10.818   7.677 -0.0594  0.9498 -0.7114
  994MOL0     C34096   5.651  10.833   7.795  0.4863 -0.1578 -0.1558
  994MOL0     C34097   5.785  10.852   7.737  0.7563 -0.2234  0.2295
  994MOL0     C34098   5.886  10.882   7.842  1.6504 -0.7003  0.0935
  994MOL0    Cl34099   6.038  10.919   7.765 -0.2329  0.4399  0.3633
  994MOL0     C34100   4.854  10.958   7.692  0.5557 -0.3772  0.1368
  994MOL0     C34101   4.733  11.030   7.666  0.4432  0.2567 -0.1196
  994MOL0     O34102   4.413  10.850   7.561  0.1486 -0.0737 -0.3601
  994MOL0     C34103   4.156  10.955   7.539 -0.1692  0.2058 -0.2515
  994MOL0     C34104   4.031  11.009   7.523 -0.1502  0.2019  0.0038
  994MOL0     N34105   3.377  11.498   7.737 -0.1047  0.6141 -0.3173
  994MOL0     N34106   3.284  11.442   7.810 -0.1169  0.3272  0.2174
  994MOL0     C34107   2.127  11.154   7.891 -0.1917  0.1504 -0.0607
  994MOL0     C34108   2.001  11.148   7.950  0.1375 -0.6965  0.2160
  994MOL0     C34109   1.634  11.135   8.190  0.8257 -0.1059  0.3396
  994MOL0     C34110   1.534  11.072   8.112  0.0818 -0.4417  0.4085
  994MOL0     C34111   1.413  11.036   8.172 -0.2739 -0.3868 -0.0415
  994MOL0     C34112   1.390  11.062   8.304 -0.1207  0.4343 -0.5996
  994MOL0     O34113   1.284  11.013   8.371 -0.0600 -0.0794 -0.5303
  994MOL0     C34114   1.189  10.927   8.304  0.0087  0.5457 -0.9807
  994MOL0     C34115   1.056  10.917   8.377 -0.2735  0.5180 -0.3867
  994MOL0     C34116   1.021  11.046   8.438 -0.7418  0.2505 -0.2814
  994MOL0     C34117   0.881  11.049   8.504  0.6029  0.4679  0.8592
  994MOL0     C34118   0.876  10.961   8.619  0.2746  0.3066 -0.0217
  994MOL0     C34119   0.878  10.894   8.724  0.4683  0.3898  1.0914
  994MOL0     C34120   1.487  11.132   8.373 -0.0683 -0.2923  0.5609
  994MOL0     C34121   1.613  11.172   8.320  0.3340  0.1650  0.6529
  994MOL0     C34122   1.724  11.229   8.405  0.8103  0.0376  0.1056
  994MOL0     H34123   2.078  10.963   8.218 -1.0843 -2.0824 -1.7786
  994MOL0     H34124   2.303  10.970   8.114  1.1598 -2.0393 -2.3785
  994MOL0     H34125   2.358  11.200   7.726  0.1319  1.4796 -0.4394
  994MOL0     H34126   2.369  11.307   7.861 -0.4366  0.4060  0.6299
  994MOL0     H34127   2.576  11.263   7.722 -1.4903 -1.5749 -2.3940
  994MOL0     H34128   2.579  11.096   7.785 -1.7851  0.4096  0.2617
  994MOL0     H34129   2.590  11.206   8.026  1.2841  0.9116  2.2166
  994MOL0     H34130   2.608  11.355   7.948 -0.6584  0.1346 -1.1507
  994MOL0     H34131   2.784  11.120   7.894  0.8850  0.5171 -3.5936
  994MOL0     H34132   2.807  11.284   7.828  1.4293 -0.0734  0.6113
  994MOL0     H34133   2.867  11.333   8.079 -3.2274  1.3940  1.5654
  994MOL0     H34134   2.811  11.158   8.111  0.4193 -1.6907 -2.2535
  994MOL0     H34135   3.057  11.157   8.118 -0.4993 -2.1096  0.1303
  994MOL0     H34136   3.007  11.079   7.975  2.0317 -0.4172  1.6631
  994MOL0     H34137   3.102  11.367   7.992  1.5581 -1.8747  2.6761
  994MOL0     H34138   3.027  11.294   7.846  1.6104 -1.6927 -1.4591
  994MOL0     H34139   3.287  11.173   7.982  0.1850  0.0434 -0.6211
  994MOL0     H34140   3.201  11.120   7.845  0.8667  2.1403 -1.7142
  994MOL0     H34141   3.471  11.182   7.758 -1.8163 -2.0954 -0.9170
  994MOL0     H34142   3.603  11.368   7.538 -1.2319 -1.3242  0.7049
  994MOL0     H34143   3.599  11.532   7.601  1.0677 -0.5321 -1.3763
  994MOL0     H34144   3.720  11.437   7.809 -0.6163 -0.0253  0.6654
  994MOL0     H34145   3.711  11.277   7.738 -3.2941  0.3274  0.3174
  994MOL0     H34146   3.922  11.429   7.718 -1.3438 -1.6333  0.6165
  994MOL0     H34147   3.837  11.531   7.606  2.7472 -0.1279 -2.6460
  994MOL0     H34148   3.988  11.403   7.490 -0.2393  1.3618  2.9479
  994MOL0     H34149   3.826  11.379   7.432  0.2266  1.4795  0.0726
  994MOL0     H34150   4.130  11.318   7.654 -1.1647 -0.1718 -0.3178
  994MOL0     H34151   4.321  11.197   7.721 -1.3148  1.2944  0.8186
  994MOL0     H34152   4.529  10.796   7.810  0.6927 -1.7099 -0.5256
  994MOL0     H34153   4.741  10.676   7.840 -0.0799  0.0315 -0.8646
  994MOL0     H34154   5.105  10.925   7.769 -1.0626  0.5250 -0.2682
  994MOL0     H34155   5.176  10.773   7.836  0.2691 -0.5915  0.3360
  994MOL0     H34156   5.192  10.668   7.607 -1.7523 -0.2604 -1.6371
  994MOL0     H34157   5.097  10.808   7.545 -1.9652 -0.0442  2.1987
  994MOL0     H34158   5.349  10.818   7.500  0.3621 -1.4967  1.1282
  994MOL0     H34159   5.295  10.947   7.606  0.3951 -0.1099  2.4760
  994MOL0     H34160   5.382  10.692   7.729 -4.8593  1.4973  0.9963
  994MOL0     H34161   5.389  10.854   7.806  2.4636  0.1541  1.5171
  994MOL0     H34162   5.561  10.908   7.614 -0.3648  2.5168  1.3777
  994MOL0     H34163   5.578  10.732   7.616 -0.2007  0.8505 -0.6338
  994MOL0     H34164   5.623  10.913   7.864  0.4018 -0.0778 -0.2820
  994MOL0     H34165   5.646  10.738   7.850 -0.5158 -0.1206 -0.1552
  994MOL0     H34166   5.776  10.937   7.669 -2.6451  0.1362  0.9515
  994MOL0     H34167   5.815  10.770   7.672  2.5474  0.0157  0.6690
  994MOL0     H34168   5.863  10.971   7.902  1.2499 -1.4810  1.1256
  994MOL0     H34169   5.898  10.791   7.901 -0.9953 -0.1656  1.6067
  994MOL0     H34170   4.949  11.003   7.665  1.1626 -1.4364  0.4462
  994MOL0     H34171   4.733  11.130   7.624 -2.7754 -0.2143 -1.6028
  994MOL0     H34172   4.164  10.853   7.502 -0.2306  0.4049 -0.8300
  994MOL0     H34173   3.952  10.947   7.481  0.3756 -0.2658 -0.3145
  994MOL0     H34174   2.141  11.188   7.789  1.6481 -0.6170 -0.1041
  994MOL0     H34175   1.915  11.173   7.888  2.1932 -1.8266 -3.4233
  994MOL0     H34176   1.548  11.044   8.008  1.9422  1.7282  0.0085
  994MOL0     H34177   1.343  10.978   8.113 -1.7089  0.3077  0.9123
  994MOL0     H34178   1.228  10.826   8.291 -1.1191  0.1167 -1.0644
  994MOL0     H34179   1.160  10.972   8.208 -2.3828  0.8593 -0.1657
  994MOL0     H34180   1.045  10.842   8.456 -4.0199 -0.4995 -1.6530
  994MOL0     H34181   0.974  10.886   8.312 -1.0467  0.3841  0.6257
  994MOL0     H34182   1.017  11.130   8.368 -1.0101  0.5629  0.0975
  994MOL0     H34183   1.094  11.071   8.516 -0.9792 -1.8244  0.6706
  994MOL0     H34184   0.852  11.152   8.528 -0.3451  1.4051 -3.3982
  994MOL0     H34185   0.793  11.038   8.440 -1.4024  1.1540  3.3226
  994MOL0     H34186   0.884  10.833   8.812 -2.9607 -1.1481  0.4223
  994MOL0     H34187   1.461  11.147   8.477 -2.0101 -2.2684  0.4393
  994MOL0     H34188   1.695  11.333   8.422 -0.1387 -0.2564  0.3337
  994MOL0     H34189   1.729  11.171   8.498  2.3613 -0.7819 -0.4600
  994MOL0     H34190   1.824  11.233   8.360 -0.8576  0.0727 -4.1170
  995MOL0     O34191   5.528   5.776   0.690 -0.4304  0.6426  0.3637
  995MOL0     C34192   5.541   5.664   0.738  0.2433  0.1876 -0.1686
  995MOL0     O34193   5.641   5.639   0.828 -0.0961  0.5172 -0.1152
  995MOL0     C34194   5.693   5.735   0.904  0.7296 -0.4565  0.0912
  995MOL0     C34195   5.642   5.775   1.023 -0.1929  0.4109  0.4669
  995MOL0     C34196   5.713   5.870   1.099 -0.2005 -0.6411  0.1958
  995MOL0     C34197   5.840   5.917   1.054 -0.2808 -0.2213  0.6296
  995MOL0     O34198   5.899   6.015   1.134  0.6947  0.4319  0.9351
  995MOL0     C34199   6.011   6.094   1.071 -0.1771 -0.2047 -0.7717
  995MOL0     C34200   6.157   6.041   1.085 -0.8858  0.1087  0.3805
  995MOL0     C34201   6.249   6.112   0.990 -0.6184  0.4905 -0.4175
  995MOL0     C34202   6.376   6.035   0.959 -0.4567  0.7471  0.1757
  995MOL0     C34203   6.477   6.123   0.892  0.0143  0.7272  0.2361
  995MOL0     C34204   6.581   6.035   0.824 -0.0373 -0.2413 -0.8609
  995MOL0     C34205   6.694   6.113   0.763  0.1360 -0.6522 -0.8046
  995MOL0     C34206   6.783   6.019   0.686 -0.0861  0.0723  0.2400
  995MOL0     N34207   6.908   6.085   0.640 -0.6819  0.1859 -0.2545
  995MOL0     C34208   7.005   6.023   0.565 -0.1964 -0.0210 -1.0361
  995MOL0     C34209   7.106   6.113   0.558  0.3565 -0.0515 -0.5505
  995MOL0     C34210   7.218   6.096   0.464 -0.4983  0.2153 -0.2523
  995MOL0     C34211   7.262   6.215   0.380  0.9845 -0.3819  0.3166
  995MOL0     C34212   7.361   6.176   0.275 -0.6342 -0.1192 -0.8808
  995MOL0     C34213   7.512   6.212   0.306 -0.5751  0.6208 -0.0954
  995MOL0     O34214   7.547   6.164   0.436 -0.1398  0.4290  0.0300
  995MOL0     C34215   7.677   6.165   0.454  0.6410 -0.5542  0.5520
  995MOL0     C34216   7.740   6.288   0.473 -0.3150  0.4358  0.0415
  995MOL0     C34217   7.873   6.285   0.515 -0.3651  0.0526  0.4322
  995MOL0     C34218   7.955   6.167   0.524 -0.1211  0.6139  0.6623
  995MOL0     C34219   8.098   6.172   0.547 -1.2156 -0.2081 -0.8637
  995MOL0     O34220   8.177   6.279   0.530 -0.0160  0.7651  0.3697
  995MOL0     C34221   8.294   6.295   0.604 -0.0120 -0.3784 -0.2567
  995MOL0     C34222   8.376   6.403   0.575 -1.1201 -0.0208  0.2199
  995MOL0     C34223   8.502   6.418   0.638 -0.2097 -0.7442 -0.4192
  995MOL0     C34224   8.534   6.336   0.746 -0.8050  0.9227  0.6434
  995MOL0     O34225   8.657   6.355   0.805  0.2545  0.0212  0.0037
  995MOL0     C34226   8.773   6.389   0.728  0.3854 -0.1125 -0.3251
  995MOL0     C34227   8.895   6.367   0.823  0.6851 -0.2113  0.4482
  995MOL0     C34228   9.029   6.377   0.755 -0.4989 -0.1781 -0.0623
  995MOL0     C34229   9.075   6.524   0.735  0.4300  0.2138  0.9121
  995MOL0     C34230   9.224   6.537   0.680  0.9369 -0.3805 -0.5010
  995MOL0     C34231   9.271   6.685   0.701  0.2569 -0.4236 -0.0278
  995MOL0     C34232   9.424   6.712   0.674 -0.1852  1.0168 -0.9898
  995MOL0     C34233   9.455   6.665   0.525  0.8792 -0.4932 -0.3829
  995MOL0    Cl34234   9.630   6.692   0.485  0.3226  0.2102  0.3678
  995MOL0     C34235   8.452   6.229   0.783  0.6009  0.2843 -0.3112
  995MOL0     C34236   8.338   6.214   0.706 -0.1543  0.1363 -0.3500
  995MOL0     O34237   8.138   6.063   0.587 -0.8612  0.2226  0.0477
  995MOL0     C34238   7.890   6.043   0.496  0.1829 -0.2488  0.1687
  995MOL0     C34239   7.749   6.039   0.469  0.9558 -0.4767  0.0047
  995MOL0     N34240   7.062   6.234   0.621  0.3896  0.3083 -0.6280
  995MOL0     N34241   6.945   6.212   0.667  0.3327  1.2369  0.3321
  995MOL0     C34242   5.889   5.869   0.931 -0.7209  0.6881  0.1369
  995MOL0     C34243   5.815   5.790   0.853  0.0572  0.6647 -1.3786
  995MOL0     C34244   5.450   5.555   0.700 -0.0592 -0.1323 -0.5459
  995MOL0     C34245   5.348   5.590   0.605 -0.9693  0.0176 -0.1034
  995MOL0     C34246   5.279   5.492   0.544  0.1559  0.5588 -0.2213
  995MOL0     C34247   5.289   5.359   0.590  0.1084 -0.4844  0.3101
  995MOL0     O34248   5.224   5.258   0.534 -0.4031  0.3689 -0.4142
  995MOL0     C34249   5.168   5.265   0.396  0.2477 -0.4021  0.7085
  995MOL0     C34250   5.271   5.299   0.290 -0.4356 -0.4448  0.0299
  995MOL0     C34251   5.356   5.169   0.283  0.7571 -0.8054  1.0642
  995MOL0     C34252   5.454   5.194   0.173  0.7162  0.1198 -0.5724
  995MOL0     C34253   5.398   5.179   0.044  0.0564  0.3307 -0.0781
  995MOL0     C34254   5.331   5.178  -0.051  0.2548  0.3801  0.0497
  995MOL0     C34255   5.382   5.329   0.689  0.3935 -0.8025  0.7259
  995MOL0     C34256   5.463   5.424   0.746 -0.2357 -0.3669 -0.4801
  995MOL0     C34257   5.562   5.374   0.851  0.2066  0.4358  0.0975
  995MOL0     H34258   5.544   5.749   1.064 -0.2040 -0.3353 -0.0177
  995MOL0     H34259   5.665   5.905   1.190 -0.3302  2.1977 -0.8621
  995MOL0     H34260   5.996   6.118   0.965 -0.6550  1.9159 -0.2661
  995MOL0     H34261   6.014   6.190   1.123  4.5892 -0.4708 -0.1139
  995MOL0     H34262   6.159   5.935   1.058  1.1470 -0.4442  2.3945
  995MOL0     H34263   6.190   6.051   1.189  2.2066  0.6975 -0.5634
  995MOL0     H34264   6.276   6.207   1.036 -3.4973  0.7616  0.9162
  995MOL0     H34265   6.195   6.143   0.900 -0.3975  0.7172 -0.4716
  995MOL0     H34266   6.411   5.996   1.055 -1.3055 -2.2586 -0.6359
  995MOL0     H34267   6.353   5.950   0.893  1.4195  0.4277 -0.1379
  995MOL0     H34268   6.430   6.193   0.821 -0.5117 -0.1241 -0.2756
  995MOL0     H34269   6.529   6.179   0.970  0.5940  0.8499 -0.2337
  995MOL0     H34270   6.623   5.968   0.900  0.6161 -0.9512 -1.8300
  995MOL0     H34271   6.536   5.975   0.745 -1.3453 -0.2105 -0.1680
  995MOL0     H34272   6.760   6.166   0.832  1.6772  1.2362 -3.5224
  995MOL0     H34273   6.645   6.177   0.688 -1.3032 -1.7990 -0.8782
  995MOL0     H34274   6.793   5.936   0.757  1.1962  0.0812  0.0981
  995MOL0     H34275   6.725   5.994   0.596  0.1842 -0.4359  0.2017
  995MOL0     H34276   6.988   5.935   0.505 -1.7280  0.0233 -0.7012
  995MOL0     H34277   7.300   6.058   0.526 -0.7054  0.8854  0.4483
  995MOL0     H34278   7.189   6.021   0.390 -1.2887 -1.6668  1.8686
  995MOL0     H34279   7.174   6.250   0.325  0.4647 -1.8768  0.1640
  995MOL0     H34280   7.304   6.286   0.452 -0.6855  1.0772 -0.0526
  995MOL0     H34281   7.336   6.214   0.176 -0.7564 -1.5213 -1.4091
  995MOL0     H34282   7.355   6.067   0.264  0.2672 -0.4263  1.1727
  995MOL0     H34283   7.505   6.321   0.317 -0.1053  0.4780  1.8685
  995MOL0     H34284   7.587   6.174   0.236 -4.4318 -3.7051 -2.4621
  995MOL0     H34285   7.688   6.383   0.470 -0.3645  0.4774 -4.4523
  995MOL0     H34286   7.926   6.378   0.535  1.6300 -1.0939  0.7734
  995MOL0     H34287   8.345   6.471   0.496  1.7874  0.7370 -0.3588
  995MOL0     H34288   8.559   6.506   0.613 -2.3106  0.5475 -0.9389
  995MOL0     H34289   8.790   6.335   0.635  3.8131  0.6279 -0.2457
  995MOL0     H34290   8.765   6.498   0.715  0.3635 -0.0465  0.1971
  995MOL0     H34291   8.886   6.426   0.914 -1.3296 -1.8443  1.3947
  995MOL0     H34292   8.880   6.262   0.851  2.9651 -1.1843 -1.5783
  995MOL0     H34293   9.105   6.338   0.824  2.7411  1.7583 -2.2514
  995MOL0     H34294   9.038   6.326   0.659  4.5335 -1.2074  0.6634
  995MOL0     H34295   9.068   6.579   0.830  0.9707  1.8213  0.0692
  995MOL0     H34296   9.009   6.567   0.659  1.2906 -0.7681 -0.4214
  995MOL0     H34297   9.228   6.511   0.574 -0.1177  2.8462 -1.4594
  995MOL0     H34298   9.288   6.461   0.725 -0.6269 -2.2264 -1.2634
  995MOL0     H34299   9.204   6.754   0.648 -2.7607 -1.9550  1.5022
  995MOL0     H34300   9.254   6.719   0.804 -0.2960  2.2474 -0.9069
  995MOL0     H34301   9.482   6.654   0.746 -2.1057 -0.2688 -0.3818
  995MOL0     H34302   9.452   6.816   0.695  3.3614 -0.3341  2.0388
  995MOL0     H34303   9.444   6.559   0.500 -1.4997 -0.1719 -0.9729
  995MOL0     H34304   9.395   6.723   0.453  0.9162  2.4775  1.8271
  995MOL0     H34305   8.467   6.163   0.868  1.4394 -2.9607 -2.8218
  995MOL0     H34306   8.287   6.126   0.745  3.8483 -0.9700  3.1518
  995MOL0     H34307   7.952   5.955   0.515  0.2530 -0.1338  0.4790
  995MOL0     H34308   7.690   5.948   0.471 -3.2731  2.0266  2.0675
  995MOL0     H34309   5.988   5.897   0.900 -1.1675  0.2359 -1.8494
  995MOL0     H34310   5.858   5.758   0.759 -1.0232 -2.9572 -0.7823
  995MOL0     H34311   5.329   5.694   0.580  0.5783  0.3576  0.0203
  995MOL0     H34312   5.207   5.535   0.475  2.6300  2.0715 -2.0034
  995MOL0     H34313   5.080   5.331   0.394 -0.8073 -1.6800 -3.2768
  995MOL0     H34314   5.116   5.170   0.378  1.9542 -1.2529  0.0932
  995MOL0     H34315   5.332   5.378   0.334 -1.2890  0.6814 -0.7620
  995MOL0     H34316   5.222   5.339   0.201 -0.2565  0.5606  0.3716
  995MOL0     H34317   5.303   5.074   0.275 -0.1794 -0.1848 -0.6817
  995MOL0     H34318   5.419   5.166   0.372  0.3097 -1.2722  1.3744
  995MOL0     H34319   5.494   5.295   0.185  0.6222 -0.1062  2.5817
  995MOL0     H34320   5.543   5.131   0.185 -0.0053 -0.6819  0.9135
  995MOL0     H34321   5.275   5.172  -0.143 -3.1016  1.3910  1.8392
  995MOL0     H34322   5.386   5.227   0.727 -1.1997 -0.1927  2.7067
  995MOL0     H34323   5.662   5.376   0.808  0.7667 -1.9572  1.0894
  995MOL0     H34324   5.555   5.435   0.942 -1.0983 -0.1936  0.4599
  995MOL0     H34325   5.545   5.273   0.892  2.1672  0.6839  1.6688
  996MOL0     O34326   2.523   8.191   9.657  1.1269 -0.5095  0.8491
  996MOL0     C34327   2.469   8.101   9.725  0.2240 -0.4659 -0.0059
  996MOL0     O34328   2.534   8.017   9.799 -0.5340  0.0345  0.1694
  996MOL0     C34329   2.668   7.989   9.772  0.6426 -0.5208 -0.7589
  996MOL0     C34330   2.764   8.070   9.818  0.2284 -0.3452 -0.6946
  996MOL0     C34331   2.895   8.033   9.786  0.3038 -0.2294  0.0433
  996MOL0     C34332   2.931   7.914   9.711  0.1939 -0.2901 -1.5115
  996MOL0     O34333   3.069   7.898   9.690 -0.1971 -0.3872  0.5771
  996MOL0     C34334   3.114   7.768   9.646 -0.6118  0.3539 -0.0711
  996MOL0     C34335   3.269   7.744   9.651 -0.1839  0.5758  0.5588
  996MOL0     C34336   3.344   7.825   9.541 -1.3750  0.1132  0.2169
  996MOL0     C34337   3.496   7.803   9.563 -0.7937  0.5310 -0.2430
  996MOL0     C34338   3.579   7.879   9.456  0.3819  0.0202  0.8043
  996MOL0     C34339   3.541   7.863   9.309  0.4300  0.3391  0.9425
  996MOL0     C34340   3.645   7.934   9.218 -0.9747 -0.5875  0.6062
  996MOL0     C34341   3.608   7.928   9.072 -0.3584 -0.7883  0.9221
  996MOL0     N34342   3.698   8.000   8.981 -0.2912  0.0361  0.0547
  996MOL0     C34343   3.755   7.931   8.874 -0.3431 -0.6070  0.4843
  996MOL0     C34344   3.819   8.026   8.798 -0.1753  0.9819  0.7814
  996MOL0     C34345   3.900   7.994   8.667  0.2754 -0.3132 -0.5772
  996MOL0     C34346   3.842   8.086   8.559  0.1852 -0.0096  0.1274
  996MOL0     C34347   3.896   8.232   8.554 -0.5143  0.9667 -0.5684
  996MOL0     C34348   4.047   8.251   8.548  0.1385  0.0705 -0.1097
  996MOL0     O34349   4.114   8.166   8.458  0.0985  0.1819 -0.0198
  996MOL0     C34350   4.252   8.183   8.438 -0.2325 -0.9864  0.3479
  996MOL0     C34351   4.299   8.129   8.315 -0.4902 -0.3672  0.2105
  996MOL0     C34352   4.434   8.126   8.286  0.9422  0.1381  1.3505
  996MOL0     C34353   4.522   8.195   8.367 -0.6477  0.1985 -0.4958
  996MOL0     C34354   4.659   8.216   8.322 -0.0711  0.7398 -0.6215
  996MOL0     O34355   4.679   8.173   8.190 -1.1038  0.4873 -0.7244
  996MOL0     C34356   4.811   8.173   8.139 -0.3138  0.2163  0.6529
  996MOL0     C34357   4.860   8.270   8.050 -0.4419 -0.5894  0.8020
  996MOL0     C34358   4.989   8.260   7.995 -0.1403  1.0513  0.8186
  996MOL0     C34359   5.072   8.145   8.023  0.1610 -0.4039 -0.6999
  996MOL0     O34360   5.207   8.136   7.984  0.1914  0.6453  1.1836
  996MOL0     C34361   5.235   8.123   7.841  0.3803 -0.3643  0.3937
  996MOL0     C34362   5.380   8.089   7.830  0.0147  0.0578 -0.3978
  996MOL0     C34363   5.433   8.046   7.696 -0.0677 -0.3685  1.3771
  996MOL0     C34364   5.582   8.027   7.694  0.6389  0.3375 -0.2397
  996MOL0     C34365   5.633   8.051   7.550 -0.0190  0.0626 -0.5105
  996MOL0     C34366   5.791   8.056   7.553  0.1496  0.5181  0.7950
  996MOL0     C34367   5.866   8.077   7.419  0.1775  0.1706 -0.4256
  996MOL0     C34368   5.825   7.981   7.300  0.4546  0.2130 -0.6893
  996MOL0    Cl34369   5.870   7.814   7.334 -0.1201  0.3022  0.4390
  996MOL0     C34370   5.024   8.051   8.119  0.4175 -0.1408 -0.7115
  996MOL0     C34371   4.893   8.068   8.175 -0.3559 -0.0077  0.1091
  996MOL0     O34372   4.745   8.274   8.387 -0.4513 -0.0432  0.0294
  996MOL0     C34373   4.475   8.255   8.487  0.7169  0.9096 -0.6199
  996MOL0     C34374   4.337   8.252   8.522 -0.1795  0.9872  0.0636
  996MOL0     N34375   3.806   8.143   8.863  0.5679  0.0984  0.0400
  996MOL0     N34376   3.728   8.133   8.974 -0.3654  0.8225 -0.2548
  996MOL0     C34377   2.822   7.827   9.680 -0.1485 -0.5705  0.6537
  996MOL0     C34378   2.689   7.870   9.706  0.4247  0.1057  1.1538
  996MOL0     C34379   2.322   8.115   9.748  0.9929 -0.2274 -0.1420
  996MOL0     C34380   2.257   8.236   9.785 -0.1124  0.2346 -0.1881
  996MOL0     C34381   2.118   8.249   9.798 -0.0803 -0.4100  0.5797
  996MOL0     C34382   2.038   8.135   9.800  0.1488  0.2978  0.0353
  996MOL0     O34383   1.907   8.135   9.826 -0.7436  0.3857 -0.2886
  996MOL0     C34384   1.830   8.261   9.811 -0.2910  0.3759  0.6689
  996MOL0     C34385   1.840   8.337   9.943  0.2140 -0.0099 -0.3285
  996MOL0     C34386   1.702   8.309  10.008  0.0734 -0.0610  0.0618
  996MOL0     C34387   1.688   8.407  10.123 -1.6241  0.1100 -0.5127
  996MOL0     C34388   1.562   8.393  10.190 -0.5695 -0.2964  0.2156
  996MOL0     C34389   1.454   8.385  10.234 -0.1647 -0.1309  0.1443
  996MOL0     C34390   2.101   8.016   9.781  0.7557  0.2908  0.4660
  996MOL0     C34391   2.238   8.006   9.755 -0.4735 -0.1434  1.0504
  996MOL0     C34392   2.286   7.869   9.733  0.4207 -0.0493 -0.2586
  996MOL0     H34393   2.734   8.158   9.874 -0.4214 -0.6200 -0.5957
  996MOL0     H34394   2.972   8.107   9.803  0.8827  0.0010 -2.9214
  996MOL0     H34395   3.070   7.700   9.720  1.7637 -0.7780  0.3861
  996MOL0     H34396   3.085   7.747   9.543 -0.7006  0.6876 -0.1143
  996MOL0     H34397   3.274   7.638   9.627 -3.5101  0.2431  0.9013
  996MOL0     H34398   3.316   7.759   9.748 -0.9921  2.0754  0.7549
  996MOL0     H34399   3.310   7.929   9.554 -0.3268  0.6341 -0.9752
  996MOL0     H34400   3.320   7.792   9.439  1.3762  0.8508 -0.7678
  996MOL0     H34401   3.529   7.831   9.664  0.6280 -2.1469  0.1180
  996MOL0     H34402   3.512   7.695   9.565 -4.1502 -0.0552  0.5141
  996MOL0     H34403   3.563   7.983   9.486  1.2073  0.0913  1.0107
  996MOL0     H34404   3.682   7.843   9.455 -0.1679 -1.6269  0.1865
  996MOL0     H34405   3.546   7.756   9.288 -0.0441  0.3741  0.6484
  996MOL0     H34406   3.445   7.911   9.290 -0.7777 -1.9636  0.9696
  996MOL0     H34407   3.731   7.867   9.227 -0.8926 -0.2138  3.6873
  996MOL0     H34408   3.682   8.029   9.256  0.0087 -0.7184  0.0105
  996MOL0     H34409   3.599   7.826   9.034  1.3888  0.3706 -3.1006
  996MOL0     H34410   3.514   7.984   9.073 -1.1356 -2.0123  0.1625
  996MOL0     H34411   3.739   7.828   8.846 -0.9044  0.0664 -1.8700
  996MOL0     H34412   4.006   8.007   8.692  0.4285  0.1989 -1.4715
  996MOL0     H34413   3.886   7.895   8.621 -2.0166 -0.1413 -0.3896
  996MOL0     H34414   3.860   8.046   8.459 -2.6881  1.2241 -0.9898
  996MOL0     H34415   3.733   8.096   8.567  0.2122  0.8073 -0.4180
  996MOL0     H34416   3.856   8.281   8.644 -2.6502  1.2094 -1.6039
  996MOL0     H34417   3.851   8.273   8.464 -1.6173  1.8745  0.3748
  996MOL0     H34418   4.078   8.242   8.652 -1.1612  0.9067  0.3640
  996MOL0     H34419   4.061   8.355   8.519 -1.1577  0.7564  1.5442
  996MOL0     H34420   4.225   8.068   8.263 -0.7827 -0.0894  0.3003
  996MOL0     H34421   4.469   8.074   8.197  0.8353  0.8811  0.8565
  996MOL0     H34422   4.796   8.349   8.011 -0.9036 -0.9352  0.8541
  996MOL0     H34423   5.037   8.334   7.932  2.8479  1.5600  3.4362
  996MOL0     H34424   5.178   8.044   7.791  0.3209  0.3470 -0.6935
  996MOL0     H34425   5.211   8.215   7.786 -1.4278  0.6994  2.7546
  996MOL0     H34426   5.440   8.174   7.863  1.6418 -0.5701 -1.5721
  996MOL0     H34427   5.403   8.011   7.903  1.0926  0.6271 -0.0996
  996MOL0     H34428   5.389   7.951   7.666 -1.3800  0.8781 -0.8878
  996MOL0     H34429   5.398   8.115   7.619  0.5016  0.3857  1.7778
  996MOL0     H34430   5.611   7.928   7.728  4.8366  1.2716 -0.4935
  996MOL0     H34431   5.628   8.101   7.761  2.5024  1.8786 -3.0202
  996MOL0     H34432   5.606   8.153   7.520  1.0989  1.2103  2.0809
  996MOL0     H34433   5.599   7.978   7.477 -0.8067  1.4537 -1.6001
  996MOL0     H34434   5.833   8.129   7.623  0.5708  2.3545 -1.2928
  996MOL0     H34435   5.819   7.956   7.589 -0.7755  0.2741  0.8796
  996MOL0     H34436   5.972   8.057   7.435 -0.1662 -0.3754  1.4486
  996MOL0     H34437   5.850   8.183   7.397 -0.0807  0.8032  2.4284
  996MOL0     H34438   5.717   7.988   7.283  0.5061  0.7068 -0.8224
  996MOL0     H34439   5.875   8.017   7.209 -1.9088  1.4304 -1.6090
  996MOL0     H34440   5.091   7.968   8.142 -0.3528 -0.7982 -0.8020
  996MOL0     H34441   4.835   8.006   8.242 -2.0896  0.9330 -0.4479
  996MOL0     H34442   4.564   8.292   8.538  1.4562 -1.1356 -0.3079
  996MOL0     H34443   4.299   8.279   8.620  1.8049  2.0628  0.5891
  996MOL0     H34444   2.848   7.731   9.636  0.5723 -0.3069  0.4934
  996MOL0     H34445   2.613   7.801   9.668  3.0407 -0.9111 -2.8729
  996MOL0     H34446   2.320   8.323   9.801 -1.2256  1.3468 -1.5972
  996MOL0     H34447   2.090   8.353   9.806  3.9065  0.8488  0.2258
  996MOL0     H34448   1.730   8.229   9.779  0.4274 -1.8072  0.4336
  996MOL0     H34449   1.874   8.308   9.722 -1.4870  0.6218  0.1800
  996MOL0     H34450   1.855   8.442   9.913 -0.2346 -0.7085 -3.4014
  996MOL0     H34451   1.919   8.298  10.007 -0.3161 -2.8321 -1.2732
  996MOL0     H34452   1.716   8.210  10.052 -2.3985 -0.5595 -0.1583
  996MOL0     H34453   1.618   8.316   9.939 -0.6949 -1.1059  0.8732
  996MOL0     H34454   1.773   8.398  10.192 -2.8525 -2.6093  0.8260
  996MOL0     H34455   1.685   8.514  10.101  0.5643  0.8866  2.2292
  996MOL0     H34456   1.353   8.375  10.268 -0.1365  0.0543  0.2866
  996MOL0     H34457   2.034   7.930   9.773  1.1636  0.1450 -2.5419
  996MOL0     H34458   2.213   7.813   9.673 -0.3829 -2.4706  2.7548
  996MOL0     H34459   2.377   7.874   9.672  0.3585  2.6213 -0.2316
  996MOL0     H34460   2.305   7.818   9.827 -0.7349  0.5401  0.3124
  997MOL0     O34461   6.835   4.540   7.940 -0.1024  0.3878  0.1676
  997MOL0     C34462   6.787   4.616   7.844  0.0879  0.2517 -0.5370
  997MOL0     O34463   6.854   4.725   7.795 -0.2799 -0.2859 -0.2489
  997MOL0     C34464   6.990   4.718   7.813 -1.1660 -0.2993  0.4309
  997MOL0     C34465   7.057   4.810   7.899  0.4548 -0.6348  0.0049
  997MOL0     C34466   7.196   4.795   7.912 -0.0638 -0.3655 -0.6083
  997MOL0     C34467   7.258   4.693   7.854 -0.0794  0.2576 -0.3408
  997MOL0     O34468   7.392   4.681   7.877  0.3650  0.1739 -0.6726
  997MOL0     C34469   7.465   4.640   7.749  0.1563 -0.2684  0.3470
  997MOL0     C34470   7.619   4.646   7.762 -0.2235 -0.3761 -0.3684
  997MOL0     C34471   7.666   4.551   7.870  0.4649 -0.0141  0.1679
  997MOL0     C34472   7.791   4.605   7.937 -0.2568  0.1220 -0.4853
  997MOL0     C34473   7.859   4.487   8.019 -0.4196 -0.1123 -0.6985
  997MOL0     C34474   7.991   4.533   8.074  0.5113  0.2692 -0.3627
  997MOL0     C34475   8.108   4.507   7.983  0.1688 -0.2376  0.4221
  997MOL0     C34476   8.246   4.521   8.063 -0.3006 -0.3326  0.5109
  997MOL0     N34477   8.362   4.478   7.982  0.7013 -0.4399  0.3460
  997MOL0     C34478   8.418   4.543   7.877  0.3655 -0.2258  0.2572
  997MOL0     C34479   8.532   4.471   7.851  0.7184  0.2618 -0.3006
  997MOL0     C34480   8.632   4.492   7.740 -1.6249 -0.5641 -0.0639
  997MOL0     C34481   8.741   4.604   7.773  0.0169  0.1224 -0.0594
  997MOL0     C34482   8.817   4.653   7.644 -0.2196 -0.3180  0.0996
  997MOL0     C34483   8.899   4.777   7.675 -0.7857  0.0033 -0.5178
  997MOL0     O34484   8.974   4.797   7.551  0.4019 -0.1009 -0.1001
  997MOL0     C34485   9.102   4.846   7.555 -0.0206  0.4079  0.0812
  997MOL0     C34486   9.146   4.922   7.664  0.7444  0.0278 -0.5570
  997MOL0     C34487   9.276   4.976   7.663  0.3586 -0.0978  0.0323
  997MOL0     C34488   9.362   4.958   7.549 -0.0758  0.2593 -0.7177
  997MOL0     C34489   9.507   4.983   7.564 -0.3837 -1.8159  0.0831
  997MOL0     O34490   9.594   4.941   7.474  0.3597 -0.3865 -0.0674
  997MOL0     C34491   9.722   4.983   7.476 -0.4791 -0.0846  0.3558
  997MOL0     C34492   9.767   5.087   7.392  0.2625  0.0771 -0.0021
  997MOL0     C34493   9.893   5.132   7.387 -0.5771 -0.6821 -0.4511
  997MOL0     C34494   9.991   5.080   7.478 -0.2991  0.0011 -0.0945
  997MOL0     O34495  10.119   5.129   7.481 -0.7465  0.5174  0.8212
  997MOL0     C34496  10.215   5.074   7.565 -0.5358  0.3213  0.3911
  997MOL0     C34497  10.336   5.173   7.580  0.1747 -0.1134 -0.1808
  997MOL0     C34498  10.443   5.119   7.664 -0.4898 -0.1325 -0.3247
  997MOL0     C34499  10.554   5.229   7.674 -0.7948  0.0448 -0.5009
  997MOL0     C34500  10.688   5.185   7.739 -0.3470  0.6810 -0.2868
  997MOL0     C34501  10.811   5.281   7.736 -0.2415 -0.3555  0.2627
  997MOL0     C34502  10.885   5.270   7.595  0.8139 -0.3427  0.7755
  997MOL0     C34503  10.987   5.377   7.565  0.4795 -0.6204  0.4432
  997MOL0    Cl34504  11.075   5.406   7.704  0.0871  0.0988  0.1433
  997MOL0     C34505   9.948   4.969   7.556  0.0966  0.3799  0.4709
  997MOL0     C34506   9.818   4.919   7.553 -0.1798 -0.1287 -0.3032
  997MOL0     O34507   9.539   5.050   7.666 -0.0552 -0.0569  0.1584
  997MOL0     C34508   9.320   4.885   7.435  0.3033  0.4826  0.1803
  997MOL0     C34509   9.186   4.831   7.438  0.3102  0.1057 -0.1095
  997MOL0     N34510   8.543   4.369   7.939  0.2281  0.6727 -0.5230
  997MOL0     N34511   8.439   4.377   8.015 -0.2524 -0.4913  0.4653
  997MOL0     C34512   7.189   4.591   7.786 -0.1905 -0.3686 -0.4111
  997MOL0     C34513   7.057   4.607   7.752  0.2485 -0.2263 -0.5027
  997MOL0     C34514   6.647   4.605   7.789  0.6620 -0.0267 -0.2502
  997MOL0     C34515   6.605   4.674   7.675  0.2968 -0.2263  1.0583
  997MOL0     C34516   6.477   4.661   7.621 -0.6328 -0.1116  0.5817
  997MOL0     C34517   6.381   4.583   7.682 -0.1629  0.4539 -0.4957
  997MOL0     O34518   6.251   4.577   7.630 -0.8711 -0.1562 -0.4249
  997MOL0     C34519   6.185   4.450   7.628  0.1835 -0.1280  0.0525
  997MOL0     C34520   6.062   4.452   7.535  1.3761  0.0000 -0.2208
  997MOL0     C34521   5.985   4.317   7.523 -0.8145 -0.6205  0.4960
  997MOL0     C34522   5.859   4.339   7.436  0.6635 -0.3099  0.3476
  997MOL0     C34523   5.779   4.220   7.423  0.3065  0.1180 -0.5873
  997MOL0     C34524   5.702   4.118   7.423 -0.2178 -0.3798  0.0547
  997MOL0     C34525   6.421   4.508   7.796 -0.1374  0.1518  1.1059
  997MOL0     C34526   6.550   4.515   7.849 -0.5974 -0.3222  0.6771
  997MOL0     C34527   6.579   4.439   7.974 -0.4773 -0.2649  0.2595
  997MOL0     H34528   7.003   4.888   7.952  0.0461  0.1640 -1.5175
  997MOL0     H34529   7.256   4.851   7.984 -1.0711 -0.5585  0.4064
  997MOL0     H34530   7.439   4.541   7.710 -0.9338 -0.2014  0.8754
  997MOL0     H34531   7.434   4.708   7.669  0.2880 -1.5949 -0.8809
  997MOL0     H34532   7.637   4.752   7.778  1.5139 -0.6852 -0.0374
  997MOL0     H34533   7.670   4.619   7.669 -0.5995 -3.3359  0.1841
  997MOL0     H34534   7.676   4.453   7.823 -0.6189 -0.0322 -0.0459
  997MOL0     H34535   7.600   4.540   7.956  0.1132 -1.2982 -0.2559
  997MOL0     H34536   7.866   4.648   7.870  0.5192 -0.7231 -0.1653
  997MOL0     H34537   7.763   4.686   8.004  1.6674  1.0014 -0.6667
  997MOL0     H34538   7.795   4.456   8.102  0.7933  2.3021  1.2571
  997MOL0     H34539   7.876   4.406   7.947  0.2094 -0.7731  0.1704
  997MOL0     H34540   7.978   4.638   8.100 -1.0981 -0.2837  1.2036
  997MOL0     H34541   8.017   4.468   8.158 -0.8718 -2.6003 -1.9914
  997MOL0     H34542   8.094   4.573   7.897 -0.4338 -0.4593  0.3479
  997MOL0     H34543   8.102   4.402   7.954  1.0720 -1.7384  4.8747
  997MOL0     H34544   8.260   4.622   8.102  1.5307 -1.7302  3.8935
  997MOL0     H34545   8.251   4.457   8.152  2.3576 -1.6233 -0.4737
  997MOL0     H34546   8.390   4.634   7.825 -0.1006 -0.9828 -0.8547
  997MOL0     H34547   8.680   4.396   7.719  1.4485  0.9906 -0.7887
  997MOL0     H34548   8.571   4.521   7.654 -1.8774 -2.8463 -0.7053
  997MOL0     H34549   8.690   4.687   7.823 -1.3259 -0.5881 -0.1880
  997MOL0     H34550   8.799   4.565   7.857 -2.7185  0.5325  2.1906
  997MOL0     H34551   8.750   4.690   7.566 -1.2600 -0.0930  1.0707
  997MOL0     H34552   8.882   4.569   7.617  0.8350 -0.3861  2.5393
  997MOL0     H34553   8.964   4.750   7.759 -0.2225  1.8976 -0.2905
  997MOL0     H34554   8.834   4.859   7.707 -2.3329 -0.6761 -1.8192
  997MOL0     H34555   9.070   4.939   7.739  1.8574  1.4683  0.3170
  997MOL0     H34556   9.301   5.032   7.752  1.1918  2.7718 -1.8457
  997MOL0     H34557   9.684   5.131   7.338 -1.2769 -2.8530 -0.2314
  997MOL0     H34558   9.908   5.218   7.324 -0.2878  1.0295  1.8189
  997MOL0     H34559  10.174   5.047   7.663 -1.3272 -1.1133 -0.3108
  997MOL0     H34560  10.261   4.984   7.523 -0.5583  0.8417 -0.7888
  997MOL0     H34561  10.369   5.180   7.476 -1.8640  0.1925 -0.8651
  997MOL0     H34562  10.308   5.271   7.621  3.6401  0.6161  0.7459
  997MOL0     H34563  10.411   5.077   7.759 -0.0645  0.2720  0.0035
  997MOL0     H34564  10.486   5.033   7.611  1.1322  0.3196  0.1858
  997MOL0     H34565  10.521   5.312   7.737 -0.1011 -0.3279  0.3887
  997MOL0     H34566  10.560   5.263   7.571  1.3456 -0.7161 -0.6897
  997MOL0     H34567  10.731   5.094   7.695 -1.2699  0.9787 -1.9020
  997MOL0     H34568  10.668   5.164   7.844  2.3003 -4.5376 -0.5148
  997MOL0     H34569  10.770   5.379   7.765 -3.3147 -1.1235 -1.0582
  997MOL0     H34570  10.874   5.240   7.816  1.1652 -5.7503 -3.1371
  997MOL0     H34571  10.807   5.281   7.519  0.0535 -1.6397  1.3351
  997MOL0     H34572  10.945   5.180   7.582 -0.1868 -1.2561  2.1135
  997MOL0     H34573  11.042   5.362   7.472 -1.4134 -1.0226 -0.6514
  997MOL0     H34574  10.934   5.473   7.560 -1.0650 -1.3833  1.4122
  997MOL0     H34575  10.027   4.913   7.604  1.3904  0.2643 -1.6602
  997MOL0     H34576   9.790   4.828   7.605 -0.4598  0.8635  1.3681
  997MOL0     H34577   9.393   4.860   7.360  0.5611 -0.9877  0.8823
  997MOL0     H34578   9.146   4.774   7.354  1.0862  0.7479 -0.9347
  997MOL0     H34579   7.227   4.497   7.748  0.5117  0.5647 -2.1399
  997MOL0     H34580   6.995   4.541   7.692 -0.6518  1.2305 -1.2310
  997MOL0     H34581   6.658   4.758   7.632 -1.9205  0.4858 -0.5010
  997MOL0     H34582   6.457   4.732   7.542 -0.6697 -1.0278 -0.2602
  997MOL0     H34583   6.155   4.423   7.730  2.0952  0.4466  0.8120
  997MOL0     H34584   6.262   4.379   7.596 -0.2150 -0.0850 -1.0654
  997MOL0     H34585   6.094   4.483   7.435 -1.5264 -0.3443 -1.3429
  997MOL0     H34586   5.998   4.530   7.577  2.2238  0.7118 -0.2250
  997MOL0     H34587   5.956   4.274   7.619  1.4141 -0.0781  1.4688
  997MOL0     H34588   6.042   4.244   7.465 -0.2537  0.3920 -0.2552
  997MOL0     H34589   5.798   4.425   7.467  3.6276  2.2080 -0.3454
  997MOL0     H34590   5.894   4.370   7.337  0.9844 -0.6201  0.3610
  997MOL0     H34591   5.647   4.027   7.413 -3.2017  1.5581 -3.3216
  997MOL0     H34592   6.345   4.447   7.845  0.3237 -2.3952 -1.0927
  997MOL0     H34593   6.487   4.388   8.005 -1.5823  0.8798 -1.0182
  997MOL0     H34594   6.657   4.362   7.973 -0.9216 -0.9166  3.6279
  997MOL0     H34595   6.609   4.514   8.049 -0.3620 -0.7339  0.6929
  998MOL0     O34596   5.222   7.693   7.176 -0.4927  0.3395 -0.9095
  998MOL0     C34597   5.136   7.599   7.160  0.0781 -0.8320 -0.7128
  998MOL0     O34598   5.111   7.537   7.048  0.2088  0.1955 -0.7354
  998MOL0     C34599   5.192   7.559   6.942  0.3157 -0.7412  0.3732
  998MOL0     C34600   5.174   7.682   6.877 -0.2429 -0.2770  0.8342
  998MOL0     C34601   5.268   7.715   6.778  0.2630  0.6436  1.0034
  998MOL0     C34602   5.371   7.629   6.742 -0.1793 -0.0722 -0.2518
  998MOL0     O34603   5.466   7.658   6.648 -0.6585 -0.1779 -0.1302
  998MOL0     C34604   5.446   7.779   6.564 -0.1355  0.3825 -0.2103
  998MOL0     C34605   5.551   7.779   6.450 -0.3369  0.5479  0.3963
  998MOL0     C34606   5.554   7.647   6.358 -0.3083 -0.5092  0.5636
  998MOL0     C34607   5.671   7.646   6.250  0.4052  0.2560  0.3598
  998MOL0     C34608   5.807   7.674   6.313 -0.5672  0.1504  1.0408
  998MOL0     C34609   5.919   7.653   6.207 -0.7784  0.1502  0.6220
  998MOL0     C34610   6.029   7.755   6.232 -0.2067  0.2806 -0.8515
  998MOL0     C34611   6.153   7.718   6.149 -0.5560 -0.6489 -0.2433
  998MOL0     N34612   6.253   7.830   6.160  0.3096  0.1774  0.4215
  998MOL0     C34613   6.229   7.954   6.107 -0.2528  0.1686 -1.0451
  998MOL0     C34614   6.357   8.012   6.093  0.0453 -0.1391 -0.3566
  998MOL0     C34615   6.371   8.151   6.040 -0.2807  0.7997  0.0657
  998MOL0     C34616   6.347   8.259   6.145  0.4625  0.5283  0.0846
  998MOL0     C34617   6.456   8.257   6.250  0.2620  0.2478 -0.2171
  998MOL0     C34618   6.431   8.369   6.354  0.2536 -0.1200 -0.5452
  998MOL0     O34619   6.546   8.369   6.449 -0.1312 -0.3851  0.3575
  998MOL0     C34620   6.664   8.437   6.420  0.5777  0.3362  0.5286
  998MOL0     C34621   6.679   8.537   6.323 -0.4614 -0.0913  0.5889
  998MOL0     C34622   6.788   8.619   6.317  0.2265 -0.1733 -0.4207
  998MOL0     C34623   6.888   8.610   6.414 -0.8326 -0.0210  0.3311
  998MOL0     C34624   7.015   8.684   6.400  0.4345 -0.2694 -0.4309
  998MOL0     O34625   7.123   8.629   6.467  0.0470  0.2145  0.0887
  998MOL0     C34626   7.240   8.705   6.482  0.2929 -0.1764 -0.6301
  998MOL0     C34627   7.265   8.800   6.581  0.1139 -0.8566 -0.1111
  998MOL0     C34628   7.385   8.873   6.585  0.2956 -0.2950  0.9576
  998MOL0     C34629   7.484   8.847   6.486 -0.7098 -0.6087  0.4693
  998MOL0     O34630   7.603   8.919   6.494  0.1423  0.1488 -0.2372
  998MOL0     C34631   7.705   8.904   6.396 -0.0227  0.3584  0.9045
  998MOL0     C34632   7.826   8.994   6.423  0.0637  0.0806  0.8014
  998MOL0     C34633   7.892   9.056   6.300  0.1905 -1.1964  0.4962
  998MOL0     C34634   8.005   9.146   6.338  0.0522 -0.1656  0.1449
  998MOL0     C34635   8.054   9.223   6.219  0.1742 -0.1997 -0.1925
  998MOL0     C34636   8.133   9.123   6.116  0.0411 -0.4024  0.4056
  998MOL0     C34637   8.192   9.213   5.998 -0.2237  0.3328  0.3879
  998MOL0     C34638   8.296   9.154   5.913 -0.7674 -0.3637 -0.3947
  998MOL0    Cl34639   8.271   9.218   5.748  0.3559 -0.1680 -0.1150
  998MOL0     C34640   7.470   8.748   6.385  1.1106 -0.0971 -0.4383
  998MOL0     C34641   7.346   8.674   6.392 -0.7619 -0.4347 -0.6595
  998MOL0     O34642   7.019   8.793   6.331  0.0034  0.0974 -0.3025
  998MOL0     C34643   6.881   8.502   6.509 -0.5833  0.7788 -0.2739
  998MOL0     C34644   6.770   8.421   6.515 -0.1122  0.4827  0.5269
  998MOL0     N34645   6.447   7.920   6.134  0.1998 -0.1287 -0.2495
  998MOL0     N34646   6.388   7.810   6.173  0.9583  0.6194 -0.6029
  998MOL0     C34647   5.383   7.504   6.802 -0.2138  0.1464 -0.9683
  998MOL0     C34648   5.291   7.468   6.906 -0.2376 -0.6107  0.4970
  998MOL0     C34649   5.055   7.566   7.273  0.5268  0.2447 -0.4030
  998MOL0     C34650   4.945   7.650   7.307  0.3273 -0.0456 -0.2037
  998MOL0     C34651   4.872   7.625   7.427  0.1414  0.6476  0.6085
  998MOL0     C34652   4.881   7.502   7.488  0.0572 -0.2149 -0.6372
  998MOL0     O34653   4.792   7.449   7.587 -0.0465 -0.1059 -0.8743
  998MOL0     C34654   4.732   7.544   7.676 -0.7906 -0.2353  0.4686
  998MOL0     C34655   4.658   7.463   7.778  0.1317  0.5588  0.4461
  998MOL0     C34656   4.566   7.362   7.704  0.8428 -0.4252 -0.7607
  998MOL0     C34657   4.428   7.332   7.769 -0.0255 -0.0997  0.9029
  998MOL0     C34658   4.326   7.436   7.726  0.0437  0.1571  0.8710
  998MOL0     C34659   4.232   7.500   7.678  0.1402  0.5668  0.1425
  998MOL0     C34660   4.973   7.409   7.441 -0.5408  0.1690 -1.2807
  998MOL0     C34661   5.058   7.434   7.334 -0.5750  0.1573  1.0616
  998MOL0     C34662   5.153   7.321   7.284  0.1000  0.2250 -0.9731
  998MOL0     H34663   5.090   7.746   6.899 -0.6045 -0.6080  0.4325
  998MOL0     H34664   5.258   7.811   6.729  0.7332 -0.0722 -0.5393
  998MOL0     H34665   5.347   7.776   6.516  0.7967  1.2221 -2.2791
  998MOL0     H34666   5.459   7.872   6.620  1.7928 -0.5332  0.9730
  998MOL0     H34667   5.652   7.798   6.487  0.3227 -0.7885 -0.6480
  998MOL0     H34668   5.532   7.859   6.379  3.7428 -0.5293 -2.2038
  998MOL0     H34669   5.467   7.644   6.292  0.8789 -2.6902 -1.0332
  998MOL0     H34670   5.556   7.562   6.428  1.2977 -0.3322  0.7734
  998MOL0     H34671   5.662   7.559   6.184 -0.2694  1.0742 -0.6621
  998MOL0     H34672   5.646   7.733   6.190  1.2664  0.4930  0.3429
  998MOL0     H34673   5.800   7.775   6.353 -0.8721  0.2452  0.7423
  998MOL0     H34674   5.830   7.614   6.402 -0.4038  2.2872  2.4978
  998MOL0     H34675   5.952   7.549   6.211 -2.4929 -0.5068 -1.0462
  998MOL0     H34676   5.874   7.673   6.110  1.7856  1.3615 -0.4201
  998MOL0     H34677   6.060   7.751   6.337 -1.1890 -2.5946 -0.6027
  998MOL0     H34678   5.989   7.854   6.211 -3.4079 -1.4341 -3.7016
  998MOL0     H34679   6.212   7.633   6.185  0.4072 -0.0825 -0.4478
  998MOL0     H34680   6.129   7.699   6.044 -0.3416 -2.3141 -0.0257
  998MOL0     H34681   6.133   7.999   6.082  0.2621  0.4870 -2.6306
  998MOL0     H34682   6.476   8.148   6.009 -0.7713 -2.1383 -1.6140
  998MOL0     H34683   6.302   8.166   5.957 -0.0739 -0.6898 -0.3937
  998MOL0     H34684   6.346   8.356   6.094 -1.0481 -0.2830 -1.5605
  998MOL0     H34685   6.247   8.263   6.189  0.2656 -1.2651 -0.1430
  998MOL0     H34686   6.559   8.262   6.211  0.8831  0.1195  1.3259
  998MOL0     H34687   6.459   8.162   6.304 -0.9284 -0.5825 -1.5651
  998MOL0     H34688   6.346   8.344   6.419  2.8198 -1.5838  2.5430
  998MOL0     H34689   6.415   8.473   6.323  0.8156  0.5118  1.1355
  998MOL0     H34690   6.591   8.555   6.263  0.5100 -1.5061 -1.3533
  998MOL0     H34691   6.781   8.690   6.235  2.6754 -0.3294 -0.8492
  998MOL0     H34692   7.193   8.825   6.659 -2.3613  2.1788 -3.0679
  998MOL0     H34693   7.398   8.962   6.646 -0.1224 -0.7221  1.6940
  998MOL0     H34694   7.746   8.803   6.392  3.0090  1.4770  0.9776
  998MOL0     H34695   7.670   8.937   6.297 -0.0069 -1.6213  0.1983
  998MOL0     H34696   7.794   9.066   6.499 -0.8445  0.4109  0.1183
  998MOL0     H34697   7.896   8.937   6.485  0.4389 -0.0530  0.2610
  998MOL0     H34698   7.928   8.978   6.233  2.0732 -0.4374  0.5624
  998MOL0     H34699   7.825   9.115   6.238  0.6011  0.8842  1.9126
  998MOL0     H34700   8.086   9.097   6.392 -1.4190 -1.4062  1.3121
  998MOL0     H34701   7.968   9.213   6.416 -0.7153 -0.5679  0.1358
  998MOL0     H34702   8.123   9.305   6.241  1.2499 -0.9395 -0.6867
  998MOL0     H34703   7.977   9.288   6.176  0.4642  1.3098  1.4745
  998MOL0     H34704   8.217   9.071   6.162 -0.6786 -0.4680  1.7060
  998MOL0     H34705   8.069   9.043   6.077  1.8045 -1.5826 -0.1939
  998MOL0     H34706   8.246   9.299   6.040  2.9814 -2.0753  1.6060
  998MOL0     H34707   8.105   9.241   5.938 -1.2633 -0.1031  1.6423
  998MOL0     H34708   8.396   9.184   5.943 -0.8814 -2.0968  2.0663
  998MOL0     H34709   8.287   9.045   5.909  0.4968 -0.5842  1.5166
  998MOL0     H34710   7.547   8.724   6.312 -0.3357 -1.2094 -1.6842
  998MOL0     H34711   7.323   8.599   6.317 -0.7293  0.2159 -1.3253
  998MOL0     H34712   6.964   8.479   6.575 -1.8941 -0.5531  0.9887
  998MOL0     H34713   6.761   8.341   6.588  1.7261 -0.8793 -0.6396
  998MOL0     H34714   5.475   7.456   6.769  0.8752 -0.5414  2.6544
  998MOL0     H34715   5.304   7.369   6.948 -3.8003 -2.1644 -1.6614
  998MOL0     H34716   4.933   7.739   7.247 -1.0702 -2.1125 -3.2668
  998MOL0     H34717   4.799   7.697   7.462 -2.7725 -0.7763 -2.0149
  998MOL0     H34718   4.665   7.619   7.632 -1.1420  1.2075  3.2638
  998MOL0     H34719   4.804   7.601   7.735 -1.6844  0.5114  0.8653
  998MOL0     H34720   4.598   7.526   7.844  0.1592  0.0127  1.0044
  998MOL0     H34721   4.726   7.415   7.849 -1.1100  1.6752  2.4896
  998MOL0     H34722   4.621   7.268   7.702  0.3170 -0.7284 -1.8623
  998MOL0     H34723   4.547   7.404   7.604  1.9457 -1.1938 -1.3159
  998MOL0     H34724   4.400   7.240   7.717  0.1300  1.0536 -1.3342
  998MOL0     H34725   4.437   7.327   7.878 -0.3519 -0.6017  0.9115
  998MOL0     H34726   4.165   7.568   7.629 -1.3359  0.2816  1.6504
  998MOL0     H34727   4.969   7.310   7.486  0.5071  0.5566 -0.2516
  998MOL0     H34728   5.252   7.360   7.307 -1.8601  5.0401  0.6979
  998MOL0     H34729   5.133   7.233   7.346 -1.4120  0.6717 -0.7912
  998MOL0     H34730   5.137   7.297   7.179  0.7754  1.2433 -1.3234
  999MOL0     O34731  10.473   1.200   9.083 -0.8445  0.2234 -0.2898
  999MOL0     C34732  10.410   1.096   9.063 -0.5865 -0.3707  0.9430
  999MOL0     O34733  10.464   0.979   9.011 -0.5765 -0.3033 -0.1759
  999MOL0     C34734  10.597   0.964   8.988 -0.5301 -0.5506  0.3950
  999MOL0     C34735  10.681   0.936   9.098 -0.5465  0.1284  0.3779
  999MOL0     C34736  10.823   0.927   9.071  0.3167 -0.0707 -0.1155
  999MOL0     C34737  10.873   0.919   8.949 -0.4450  0.4759  0.0251
  999MOL0     O34738  11.010   0.899   8.938  0.5011 -0.1106 -0.1666
  999MOL0     C34739  11.051   0.811   8.831 -0.0596  0.4521  0.1296
  999MOL0     C34740  11.207   0.795   8.853  0.6053 -0.1899 -0.1986
  999MOL0     C34741  11.284   0.927   8.862 -0.2699  0.1887  1.2223
  999MOL0     C34742  11.276   1.028   8.739  0.5002 -0.0951  0.5695
  999MOL0     C34743  11.296   1.174   8.784  0.0449  0.4849  0.3074
  999MOL0     C34744  11.288   1.266   8.662 -0.0348  0.1432  0.7171
  999MOL0     C34745  11.329   1.409   8.690  0.2134  0.0508  1.1760
  999MOL0     C34746  11.459   1.440   8.759  0.1495 -0.4109 -0.0561
  999MOL0     N34747  11.565   1.381   8.672  0.3612 -0.7944 -0.6804
  999MOL0     C34748  11.633   1.460   8.583  0.0022 -0.2865 -0.2172
  999MOL0     C34749  11.708   1.372   8.508  0.6718 -0.1298 -0.3906
  999MOL0     C34750  11.801   1.407   8.396  0.1863 -0.2421 -0.9138
  999MOL0     C34751  11.934   1.338   8.406 -0.4499  0.1440  0.6385
  999MOL0     C34752  12.031   1.342   8.283  0.7693 -0.1945 -0.5681
  999MOL0     C34753  12.164   1.279   8.325  1.2372  0.0145 -0.4253
  999MOL0     O34754  12.267   1.356   8.281 -0.1193 -0.2151 -0.3019
  999MOL0     C34755  12.359   1.301   8.185 -0.4187 -0.6241 -0.1902
  999MOL0     C34756  12.352   1.186   8.100  0.0082  0.1095  0.0927
  999MOL0     C34757  12.461   1.163   8.015  0.2822  0.2698 -0.6152
  999MOL0     C34758  12.569   1.256   8.008  0.5013 -0.2341 -0.0454
  999MOL0     C34759  12.679   1.223   7.922  0.5265 -0.1062  0.8737
  999MOL0     O34760  12.793   1.285   7.957  0.6291 -0.1475 -0.3475
  999MOL0     C34761  12.899   1.293   7.870 -0.1413  0.6591 -0.0706
  999MOL0     C34762  12.885   1.329   7.733 -0.3741  0.5421 -1.3721
  999MOL0     C34763  12.999   1.345   7.655  0.4997 -0.7502 -0.7796
  999MOL0     C34764  13.127   1.323   7.705  0.6179  0.6959  0.1928
  999MOL0     O34765  13.244   1.351   7.638  0.0392 -0.8181  0.5839
  999MOL0     C34766  13.270   1.293   7.512 -0.1153 -0.3737  0.0001
  999MOL0     C34767  13.422   1.282   7.488 -1.0425  0.0137 -0.5819
  999MOL0     C34768  13.507   1.200   7.585 -0.4638 -0.3269  0.1068
  999MOL0     C34769  13.514   1.046   7.540  0.2828 -0.4325 -0.4009
  999MOL0     C34770  13.619   0.961   7.608  0.6793 -0.7405  0.3691
  999MOL0     C34771  13.596   0.813   7.581 -0.0750 -0.4119 -0.6570
  999MOL0     C34772  13.652   0.725   7.693 -0.4875 -0.0354  0.3120
  999MOL0     C34773  13.797   0.767   7.717  0.0375  0.2084 -0.3791
  999MOL0    Cl34774  13.889   0.770   7.561 -0.0568 -0.5191  0.3522
  999MOL0     C34775  13.141   1.289   7.839 -0.0113  0.1700 -1.0290
  999MOL0     C34776  13.026   1.279   7.920 -0.6280  0.4069 -0.0069
  999MOL0     O34777  12.663   1.149   7.829 -0.2676  0.4275 -0.6644
  999MOL0     C34778  12.575   1.365   8.090  0.2171 -0.0458 -0.6448
  999MOL0     C34779  12.474   1.381   8.188 -0.7918  0.2713  0.3171
  999MOL0     N34780  11.684   1.248   8.560  0.1712 -0.8991 -1.1797
  999MOL0     N34781  11.595   1.251   8.669 -0.3771  0.5913  0.4668
  999MOL0     C34782  10.786   0.926   8.837 -0.7095 -0.9407 -1.2121
  999MOL0     C34783  10.647   0.947   8.857  0.4176 -0.5276 -0.2548
  999MOL0     C34784  10.264   1.090   9.080 -0.5158  0.4919  0.0419
  999MOL0     C34785  10.193   1.191   9.024  0.4957  0.3190  1.0196
  999MOL0     C34786  10.057   1.194   9.031 -0.0220  0.1981 -0.4389
  999MOL0     C34787   9.986   1.106   9.116  0.2013 -0.5967 -0.5290
  999MOL0     O34788   9.851   1.113   9.114 -0.1675 -0.0806  0.8341
  999MOL0     C34789   9.794   1.084   9.242 -0.2468 -0.5788  0.0470
  999MOL0     C34790   9.671   1.164   9.255 -0.1887 -0.2390  0.3422
  999MOL0     C34791   9.570   1.125   9.150 -0.3292  0.4735 -0.5746
  999MOL0     C34792   9.455   1.220   9.147  0.4730  0.1317 -0.5137
  999MOL0     C34793   9.344   1.185   9.241 -0.6973 -0.7001  0.4573
  999MOL0     C34794   9.263   1.177   9.319  0.2868  0.1673 -0.2206
  999MOL0     C34795  10.064   0.998   9.174  0.4902  0.0091  0.4598
  999MOL0     C34796  10.198   0.988   9.145 -0.5895  0.7569 -1.0337
  999MOL0     C34797  10.274   0.863   9.190 -0.8166  0.4406 -0.1480
  999MOL0     H34798  10.638   0.901   9.191  1.6583  1.4373  1.9874
  999MOL0     H34799  10.884   0.884   9.151 -0.6821 -0.6791  0.3309
  999MOL0     H34800  10.998   0.716   8.844  0.9060  0.1474  2.2848
  999MOL0     H34801  11.046   0.843   8.727  4.2074  0.3961 -0.3055
  999MOL0     H34802  11.247   0.734   8.771 -1.8122  1.9314 -3.2378
  999MOL0     H34803  11.226   0.737   8.944 -0.1113  0.2831  0.2685
  999MOL0     H34804  11.391   0.911   8.879 -0.3902  1.0189  3.0313
  999MOL0     H34805  11.251   0.978   8.953 -1.8602  0.7792  0.3523
  999MOL0     H34806  11.350   1.003   8.661  0.7277  0.2542  0.6693
  999MOL0     H34807  11.176   1.020   8.696 -0.1648 -2.3132  2.3361
  999MOL0     H34808  11.230   1.202   8.867 -1.3385  1.9537 -1.2193
  999MOL0     H34809  11.395   1.165   8.830 -0.2367  0.6984  0.9744
  999MOL0     H34810  11.351   1.224   8.582 -0.8891 -2.3222  1.2378
  999MOL0     H34811  11.188   1.266   8.617  1.1227 -2.9414 -2.3422
  999MOL0     H34812  11.253   1.452   8.756  0.4716  0.3409  1.2879
  999MOL0     H34813  11.338   1.458   8.592 -0.8394 -3.8098 -1.0421
  999MOL0     H34814  11.472   1.548   8.770 -0.9246 -0.4379  2.1855
  999MOL0     H34815  11.460   1.391   8.857 -0.3183 -0.1085  0.1045
  999MOL0     H34816  11.616   1.564   8.556 -1.2765 -0.4977 -0.2906
  999MOL0     H34817  11.748   1.396   8.300 -1.8450  1.0787 -0.0236
  999MOL0     H34818  11.825   1.514   8.396  1.0816 -0.4350 -1.4893
  999MOL0     H34819  11.993   1.388   8.483  0.7938  1.4199 -1.0642
  999MOL0     H34820  11.920   1.237   8.444  0.8627 -1.2039 -2.1370
  999MOL0     H34821  12.045   1.449   8.264 -0.3004 -0.1135 -0.9870
  999MOL0     H34822  11.990   1.288   8.197  3.5558 -0.7130 -1.7047
  999MOL0     H34823  12.167   1.176   8.288  1.3678  0.7469 -2.6069
  999MOL0     H34824  12.176   1.278   8.434  1.5043  2.2089 -0.3983
  999MOL0     H34825  12.269   1.118   8.115  0.9969 -1.1750 -0.0791
  999MOL0     H34826  12.450   1.080   7.947 -0.7573  1.0020 -1.3687
  999MOL0     H34827  12.789   1.350   7.687 -0.5820 -0.8000 -1.5981
  999MOL0     H34828  12.982   1.367   7.551  2.2970  0.5555 -0.8459
  999MOL0     H34829  13.228   1.192   7.518  0.8983 -0.8924 -1.1776
  999MOL0     H34830  13.219   1.363   7.445  0.8878  1.4170  1.0458
  999MOL0     H34831  13.443   1.260   7.383  1.7328  0.4099 -0.1840
  999MOL0     H34832  13.463   1.383   7.503  2.5745 -1.4989  0.9316
  999MOL0     H34833  13.607   1.244   7.578  0.1566 -1.7858 -0.5432
  999MOL0     H34834  13.491   1.214   7.692  2.6384  0.5908  0.5205
  999MOL0     H34835  13.538   1.037   7.433 -1.3556  0.8586 -0.9269
  999MOL0     H34836  13.415   1.003   7.558 -0.0774  1.4764  3.1029
  999MOL0     H34837  13.610   0.979   7.715 -2.1477 -1.7734  0.3714
  999MOL0     H34838  13.720   0.986   7.573  0.7240 -0.7347  0.5011
  999MOL0     H34839  13.490   0.790   7.577 -1.0965  3.7200 -2.5530
  999MOL0     H34840  13.628   0.770   7.486  0.6516 -1.8653  0.2039
  999MOL0     H34841  13.651   0.623   7.656  1.4847  0.7127 -2.0481
  999MOL0     H34842  13.589   0.724   7.783 -0.3016  1.7485  0.5076
  999MOL0     H34843  13.812   0.862   7.769  0.9326 -0.6273  0.9276
  999MOL0     H34844  13.833   0.685   7.780  1.2169  1.1431  0.2114
  999MOL0     H34845  13.239   1.270   7.883 -1.3597 -3.7326  0.7427
  999MOL0     H34846  13.038   1.255   8.025  0.8760  2.0381  0.2452
  999MOL0     H34847  12.657   1.436   8.085  1.1936 -1.1695 -0.9994
  999MOL0     H34848  12.484   1.466   8.255 -1.5363  0.3717  0.3055
  999MOL0     H34849  10.830   0.924   8.737  0.5269  0.6713 -0.7468
  999MOL0     H34850  10.581   0.955   8.771  0.3134 -0.0735 -0.1327
  999MOL0     H34851  10.240   1.269   8.965 -0.5068  1.0257  1.1275
  999MOL0     H34852   9.994   1.272   8.991 -1.3013  0.3433  1.7125
  999MOL0     H34853   9.861   1.108   9.325 -1.9206 -0.4026  1.3902
  999MOL0     H34854   9.768   0.978   9.251 -2.5843 -0.1145 -0.5980
  999MOL0     H34855   9.702   1.267   9.236 -1.8323  0.0043 -1.3318
  999MOL0     H34856   9.632   1.151   9.356  2.7169 -0.4331  1.5333
  999MOL0     H34857   9.532   1.025   9.172  2.9016 -1.4629 -2.8823
  999MOL0     H34858   9.622   1.133   9.054  3.5527  0.9237  1.3864
  999MOL0     H34859   9.491   1.322   9.160  0.9779 -0.2558  1.3996
  999MOL0     H34860   9.415   1.214   9.045 -2.1781  0.9618  0.3887
  999MOL0     H34861   9.187   1.169   9.393 -1.0522  1.5006 -1.3886
  999MOL0     H34862  10.021   0.908   9.217  0.2170 -0.1490 -0.1307
  999MOL0     H34863  10.375   0.885   9.226 -0.3436 -0.9998 -0.5236
  999MOL0     H34864  10.219   0.820   9.273 -0.0032  0.7555  0.5688
  999MOL0     H34865  10.287   0.796   9.105  1.4089 -1.7959  1.8221
 1000MOL0     O34866   7.293   8.146   7.030 -0.1112  0.0494 -0.4472
 1000MOL0     C34867   7.198   8.118   6.954  0.0999  0.1157  1.1392
 1000MOL0     O34868   7.219   8.080   6.825  0.5664 -0.9021  0.6662
 1000MOL0     C34869   7.349   8.087   6.772 -0.2237  0.2598  0.2085
 1000MOL0     C34870   7.448   8.183   6.781  0.2680  0.7347 -0.3220
 1000MOL0     C34871   7.564   8.168   6.706  0.2481 -1.2778  1.0915
 1000MOL0     C34872   7.592   8.065   6.622  0.4834  0.0767 -0.7065
 1000MOL0     O34873   7.702   8.066   6.542 -0.3552  0.2624  0.6010
 1000MOL0     C34874   7.814   8.154   6.565 -0.0699  0.3736  0.4035
 1000MOL0     C34875   7.925   8.122   6.475  0.4258 -0.1358  1.1353
 1000MOL0     C34876   8.022   8.236   6.456 -0.1508  0.0393 -0.1098
 1000MOL0     C34877   8.165   8.182   6.423 -0.2835  0.0500  0.2459
 1000MOL0     C34878   8.259   8.303   6.418 -0.3504  0.2878 -0.3405
 1000MOL0     C34879   8.405   8.243   6.412  0.3841 -0.0544 -0.3323
 1000MOL0     C34880   8.520   8.351   6.439  0.9446 -0.2600 -0.1742
 1000MOL0     C34881   8.514   8.474   6.354 -0.3907 -0.5885  0.0678
 1000MOL0     N34882   8.618   8.570   6.387 -0.6481 -0.5616  0.1976
 1000MOL0     C34883   8.651   8.607   6.516  0.1132  0.4213 -0.0551
 1000MOL0     C34884   8.764   8.682   6.498  0.3525 -0.4728  0.3249
 1000MOL0     C34885   8.849   8.735   6.611  0.6205 -0.2061  0.3650
 1000MOL0     C34886   8.993   8.736   6.556 -0.3613 -0.0225  0.1531
 1000MOL0     C34887   9.085   8.728   6.680 -0.2011  0.1873  0.3187
 1000MOL0     C34888   9.230   8.756   6.634  0.1756  0.7929  0.2214
 1000MOL0     O34889   9.269   8.897   6.626  0.3889  0.3537 -0.0898
 1000MOL0     C34890   9.378   8.943   6.557  0.5658  0.4507  0.5532
 1000MOL0     C34891   9.484   8.853   6.522  0.0178 -1.4105  0.0075
 1000MOL0     C34892   9.580   8.894   6.432  0.9204 -0.9563 -0.3109
 1000MOL0     C34893   9.593   9.033   6.398 -0.1172  0.0610  0.0820
 1000MOL0     C34894   9.718   9.081   6.331  0.4252  0.3114 -0.1099
 1000MOL0     O34895   9.813   8.996   6.308  0.5804  0.3843  0.8007
 1000MOL0     C34896   9.937   9.029   6.256  0.3732 -0.0384 -0.1680
 1000MOL0     C34897  10.000   8.931   6.177 -0.2518  0.8369 -0.1007
 1000MOL0     C34898  10.127   8.948   6.117 -0.5743 -0.6417  0.1125
 1000MOL0     C34899  10.204   9.065   6.147 -0.0262  0.5504  0.3621
 1000MOL0     O34900  10.332   9.067   6.093  0.0070  0.6118 -0.5094
 1000MOL0     C34901  10.371   9.194   6.032 -1.0848  0.1099  0.3177
 1000MOL0     C34902  10.524   9.201   6.014  0.1714 -0.7352  0.1243
 1000MOL0     C34903  10.601   9.183   6.137  0.3483  0.0646 -0.9923
 1000MOL0     C34904  10.747   9.217   6.124  0.1587 -0.4430 -0.8569
 1000MOL0     C34905  10.807   9.132   6.016 -0.6821  0.5716  0.2197
 1000MOL0     C34906  10.853   8.992   6.076 -0.5432 -1.1946  0.3718
 1000MOL0     C34907  10.937   8.915   5.977 -0.6274  0.1797  0.3440
 1000MOL0     C34908  11.087   8.915   6.015 -0.1306 -0.3222  0.1491
 1000MOL0    Cl34909  11.099   8.779   6.143 -0.1365 -0.0219 -0.3512
 1000MOL0     C34910  10.143   9.162   6.233 -0.5104  0.5052 -0.3460
 1000MOL0     C34911  10.018   9.140   6.288 -0.2656  0.5405 -1.2641
 1000MOL0     O34912   9.719   9.200   6.304 -0.7672  0.6547 -0.5235
 1000MOL0     C34913   9.488   9.122   6.433 -0.6098 -0.4076  0.4187
 1000MOL0     C34914   9.378   9.070   6.505  0.6805 -0.6482  0.3508
 1000MOL0     N34915   8.794   8.673   6.360 -0.1506  0.3020 -0.9674
 1000MOL0     N34916   8.710   8.608   6.295 -0.6061  0.2084 -0.3882
 1000MOL0     C34917   7.491   7.968   6.607  0.0203  0.4444  0.3780
 1000MOL0     C34918   7.376   7.984   6.682  0.0229 -0.4712  0.1253
 1000MOL0     C34919   7.055   8.122   7.007 -0.0650  0.0091  0.0916
 1000MOL0     C34920   6.945   8.111   6.919 -0.7178 -0.0723 -0.5261
 1000MOL0     C34921   6.812   8.111   6.967 -0.3566 -0.7086  0.8121
 1000MOL0     C34922   6.782   8.115   7.106  0.0809 -0.1360  0.2076
 1000MOL0     O34923   6.652   8.137   7.137 -0.0672 -0.0289  0.1352
 1000MOL0     C34924   6.619   8.175   7.275  0.2218  0.1125  0.1106
 1000MOL0     C34925   6.468   8.138   7.306  0.2855 -0.7794 -0.7104
 1000MOL0     C34926   6.384   8.195   7.189  0.7401  0.3169  0.6113
 1000MOL0     C34927   6.238   8.137   7.201 -0.4677 -0.5274 -0.0577
 1000MOL0     C34928   6.180   8.203   7.317 -0.2147  0.1882  0.6910
 1000MOL0     C34929   6.151   8.270   7.419 -0.3059  0.3399 -0.3215
 1000MOL0     C34930   6.891   8.134   7.194  0.8146 -0.2580  0.1626
 1000MOL0     C34931   7.020   8.142   7.146  0.6065  0.4249 -1.4376
 1000MOL0     C34932   7.117   8.177   7.262  0.1078  0.0201  0.4551
 1000MOL0     H34933   7.446   8.262   6.856 -0.2798 -0.4214  0.9256
 1000MOL0     H34934   7.626   8.256   6.720 -1.1173  0.0838 -0.7962
 1000MOL0     H34935   7.770   8.253   6.547 -1.2355 -0.0567  0.7968
 1000MOL0     H34936   7.845   8.163   6.670 -0.8831 -0.6634  0.7488
 1000MOL0     H34937   7.875   8.114   6.377 -0.0126  1.5880  1.1872
 1000MOL0     H34938   7.967   8.026   6.505 -1.5182 -1.7807 -1.0249
 1000MOL0     H34939   8.040   8.298   6.544  0.7059 -0.4527  0.0656
 1000MOL0     H34940   7.985   8.301   6.376 -2.8951  0.2254  1.1981
 1000MOL0     H34941   8.203   8.109   6.495  2.3514  1.9011  0.8718
 1000MOL0     H34942   8.174   8.125   6.330  4.2508 -2.2924  1.8289
 1000MOL0     H34943   8.227   8.374   6.341 -0.1589  3.7101  2.4275
 1000MOL0     H34944   8.248   8.361   6.511  4.0339  2.6010 -0.9896
 1000MOL0     H34945   8.421   8.166   6.488  1.2374 -0.1906 -0.6344
 1000MOL0     H34946   8.422   8.185   6.322 -0.3772 -0.4704 -0.2130
 1000MOL0     H34947   8.613   8.295   6.424  1.4497  0.0503  1.5780
 1000MOL0     H34948   8.529   8.375   6.545  1.7158 -0.4544 -0.1909
 1000MOL0     H34949   8.505   8.443   6.250 -2.3542 -0.0897  0.0585
 1000MOL0     H34950   8.420   8.527   6.371 -0.3343 -1.2030  2.7158
 1000MOL0     H34951   8.596   8.585   6.607 -0.1593 -1.5722 -0.6394
 1000MOL0     H34952   8.816   8.839   6.624 -1.9844 -1.0382  1.1547
 1000MOL0     H34953   8.817   8.686   6.703 -1.6471  0.6330  0.1139
 1000MOL0     H34954   9.012   8.648   6.493 -3.1378  0.9055 -2.2117
 1000MOL0     H34955   9.018   8.825   6.498 -0.1101 -1.7535 -2.5727
 1000MOL0     H34956   9.073   8.636   6.737 -1.4358 -1.0973 -1.8510
 1000MOL0     H34957   9.064   8.813   6.745 -0.2181  1.4666 -1.2779
 1000MOL0     H34958   9.238   8.708   6.536 -2.0796 -1.6362  1.1272
 1000MOL0     H34959   9.313   8.707   6.685  0.1860  0.2752 -0.2922
 1000MOL0     H34960   9.483   8.749   6.555 -2.1795 -0.2207  4.3958
 1000MOL0     H34961   9.651   8.822   6.392  0.9701 -0.4701 -1.0968
 1000MOL0     H34962   9.948   8.837   6.161 -1.8468  2.0319 -2.7744
 1000MOL0     H34963  10.174   8.887   6.041  4.0102  0.0163  2.0644
 1000MOL0     H34964  10.306   9.202   5.944 -2.3198  0.3316  1.2127
 1000MOL0     H34965  10.338   9.286   6.081  1.0904  1.3780 -0.4673
 1000MOL0     H34966  10.546   9.136   5.929 -1.4528  0.2808 -1.1484
 1000MOL0     H34967  10.553   9.294   5.965  1.9186 -1.2613  0.1182
 1000MOL0     H34968  10.553   9.247   6.212 -1.8149 -1.0622 -1.3306
 1000MOL0     H34969  10.584   9.082   6.176 -1.0608  1.0874  1.2470
 1000MOL0     H34970  10.802   9.200   6.217  0.8975  3.2098 -0.4873
 1000MOL0     H34971  10.761   9.323   6.103  1.3005 -0.0207  1.7043
 1000MOL0     H34972  10.900   9.186   5.993 -0.0107  0.3837  2.3437
 1000MOL0     H34973  10.751   9.114   5.924 -2.1589 -2.2485  1.5475
 1000MOL0     H34974  10.909   9.005   6.170  1.3065 -0.7046 -0.7459
 1000MOL0     H34975  10.773   8.928   6.113  1.1072 -3.0751  0.9006
 1000MOL0     H34976  10.930   8.973   5.885 -1.1943 -1.7442 -0.8858
 1000MOL0     H34977  10.910   8.810   5.961 -0.3553  0.0884  0.4822
 1000MOL0     H34978  11.128   8.897   5.915  0.0870 -0.7748  0.3148
 1000MOL0     H34979  11.114   9.014   6.054  0.0494 -0.0360 -0.6709
 1000MOL0     H34980  10.209   9.246   6.251  2.2088 -1.6501  0.3785
 1000MOL0     H34981   9.975   9.204   6.364 -0.1778 -2.1549  1.2129
 1000MOL0     H34982   9.491   9.228   6.410 -0.6170 -0.3216  0.8091
 1000MOL0     H34983   9.291   9.133   6.521  0.2666 -0.8686 -0.9224
 1000MOL0     H34984   7.496   7.898   6.525 -2.6483  0.0119  0.4976
 1000MOL0     H34985   7.295   7.912   6.668 -1.1177  0.8319 -0.2320
 1000MOL0     H34986   6.965   8.126   6.814 -0.6605  0.5153 -0.4320
 1000MOL0     H34987   6.722   8.120   6.908  0.9926  1.4536 -1.0774
 1000MOL0     H34988   6.641   8.281   7.296  0.3136  0.2711 -0.7592
 1000MOL0     H34989   6.677   8.114   7.344 -0.1045 -1.0850 -0.6468
 1000MOL0     H34990   6.443   8.191   7.399 -1.9404  1.5047 -2.4511
 1000MOL0     H34991   6.455   8.030   7.312 -0.1971 -0.6490  1.7759
 1000MOL0     H34992   6.423   8.185   7.088  1.7601 -1.1782  1.1250
 1000MOL0     H34993   6.380   8.303   7.206 -3.1225  0.2197  1.3072
 1000MOL0     H34994   6.183   8.166   7.110  1.3367  0.4851 -0.8697
 1000MOL0     H34995   6.232   8.028   7.211 -1.3847 -0.6738 -1.7165
 1000MOL0     H34996   6.119   8.329   7.502  1.8240  1.1666 -0.0189
 1000MOL0     H34997   6.878   8.158   7.299  0.9151 -0.5562  0.2451
 1000MOL0     H34998   7.057   8.236   7.331 -1.1828 -0.7709  0.0284
 1000MOL0     H34999   7.159   8.087   7.309 -1.8059 -0.6560  0.9544
 1000MOL0     H35000   7.200   8.239   7.225  1.0141 -1.7109 -0.5634
 1001MOL0     O35001   8.104   9.451   1.578  0.4691  0.1848  0.5665
 1001MOL0     C35002   8.161   9.399   1.482  0.6185  1.0414  0.2354
 1001MOL0     O35003   8.091   9.325   1.383 -0.1799 -0.3250  0.0235
 1001MOL0     C35004   7.957   9.312   1.369 -0.4519  0.0206 -1.2362
 1001MOL0     C35005   7.860   9.389   1.431  0.1412  0.4821 -0.1707
 1001MOL0     C35006   7.728   9.357   1.436 -0.3199 -0.1543  0.1275
 1001MOL0     C35007   7.684   9.235   1.367  0.5887 -0.4818  0.7972
 1001MOL0     O35008   7.556   9.199   1.362 -0.4543 -0.1624  0.4183
 1001MOL0     C35009   7.454   9.292   1.334 -0.2060  0.5404  0.0780
 1001MOL0     C35010   7.325   9.247   1.263 -0.3156 -0.4668 -0.6751
 1001MOL0     C35011   7.222   9.162   1.339 -0.1886 -0.2769 -0.7282
 1001MOL0     C35012   7.145   9.230   1.451 -0.7123 -0.4329 -0.3215
 1001MOL0     C35013   7.025   9.131   1.485  0.1204 -0.3379  0.0132
 1001MOL0     C35014   6.946   9.171   1.606  0.7043 -0.4269 -0.3290
 1001MOL0     C35015   6.853   9.055   1.647  0.9501  0.0291  0.1876
 1001MOL0     C35016   6.744   9.100   1.748 -0.4462 -0.5732 -1.0859
 1001MOL0     N35017   6.798   9.183   1.854 -0.4311  0.3199 -0.3266
 1001MOL0     C35018   6.883   9.130   1.950 -0.2782 -0.3339  0.3657
 1001MOL0     C35019   6.920   9.245   2.016 -1.2392 -0.0982  0.2537
 1001MOL0     C35020   7.011   9.255   2.134 -0.1043  0.5137 -0.2250
 1001MOL0     C35021   7.158   9.221   2.115  0.4899  0.1835  0.0157
 1001MOL0     C35022   7.227   9.317   2.018  0.5799  0.2910 -0.4140
 1001MOL0     C35023   7.296   9.231   1.919 -0.4224 -0.7417  0.4446
 1001MOL0     O35024   7.372   9.321   1.834  0.8962 -0.3505  0.4984
 1001MOL0     C35025   7.503   9.355   1.873  0.7570 -1.1607 -0.0471
 1001MOL0     C35026   7.558   9.464   1.802 -0.0039 -0.7066  0.0778
 1001MOL0     C35027   7.682   9.511   1.840 -0.5832  0.1915 -0.0768
 1001MOL0     C35028   7.761   9.454   1.947 -0.1692  0.4050  0.5218
 1001MOL0     C35029   7.887   9.502   1.994 -0.1428 -0.4390  0.3541
 1001MOL0     O35030   7.960   9.589   1.909  0.4652 -0.1166 -0.2671
 1001MOL0     C35031   8.078   9.646   1.955 -0.0105  0.6650 -0.4288
 1001MOL0     C35032   8.190   9.637   1.875  0.0597 -0.9984 -0.4737
 1001MOL0     C35033   8.318   9.680   1.913 -0.5228  0.5268 -0.7963
 1001MOL0     C35034   8.339   9.742   2.034 -0.1252  1.3627 -0.2333
 1001MOL0     O35035   8.457   9.794   2.080  0.6355 -0.6013 -0.6929
 1001MOL0     C35036   8.570   9.802   1.993 -0.3436  0.5257 -0.2431
 1001MOL0     C35037   8.629   9.658   1.994  0.0120 -0.0830 -0.5910
 1001MOL0     C35038   8.724   9.642   1.869 -0.1246  0.4102 -0.5456
 1001MOL0     C35039   8.839   9.744   1.885  0.1724  0.9415 -0.4937
 1001MOL0     C35040   8.963   9.699   1.964  0.7490 -0.0180  1.1607
 1001MOL0     C35041   9.060   9.814   1.951  0.3963 -0.0744  0.7814
 1001MOL0     C35042   9.195   9.781   2.016  0.7270 -0.7600  0.3296
 1001MOL0     C35043   9.296   9.895   2.008  0.1409  0.3161 -0.0517
 1001MOL0    Cl35044   9.452   9.818   2.010  0.1356  0.3091  0.3263
 1001MOL0     C35045   8.228   9.756   2.119  0.2567  0.8593  0.2720
 1001MOL0     C35046   8.097   9.695   2.086  0.5382 -0.5272 -0.6641
 1001MOL0     O35047   7.914   9.477   2.111  0.5643 -0.3326 -0.0478
 1001MOL0     C35048   7.716   9.336   1.996  0.3524  0.8079  0.3391
 1001MOL0     C35049   7.581   9.299   1.978  0.3781 -0.0987 -0.0751
 1001MOL0     N35050   6.870   9.356   1.955  0.1166  0.1597  0.2082
 1001MOL0     N35051   6.796   9.315   1.859 -0.0259  0.2739 -0.0800
 1001MOL0     C35052   7.778   9.160   1.300 -0.2479 -0.7282  0.2304
 1001MOL0     C35053   7.914   9.194   1.304 -0.2116  0.5676 -0.2555
 1001MOL0     C35054   8.304   9.404   1.490 -0.4935 -0.5097  0.1090
 1001MOL0     C35055   8.371   9.347   1.600 -1.1219  0.3353  0.0136
 1001MOL0     C35056   8.512   9.365   1.609 -0.5418 -0.5585  0.2791
 1001MOL0     C35057   8.592   9.420   1.504  0.4076  0.3280 -0.4523
 1001MOL0     O35058   8.727   9.446   1.520  0.7450  0.3230 -0.2358
 1001MOL0     C35059   8.803   9.353   1.589 -0.8321  1.0171 -0.1728
 1001MOL0     C35060   8.948   9.378   1.568 -0.6660 -0.1213  0.1067
 1001MOL0     C35061   8.988   9.522   1.594 -0.2912 -0.0918  0.0501
 1001MOL0     C35062   9.141   9.522   1.628  0.4759  0.0069  0.3963
 1001MOL0     C35063   9.191   9.661   1.623 -1.1390 -0.2842  0.0381
 1001MOL0     C35064   9.241   9.772   1.622  0.0595 -0.4162 -0.4176
 1001MOL0     C35065   8.513   9.472   1.401 -0.9613  0.3876 -0.3314
 1001MOL0     C35066   8.379   9.464   1.392 -0.1878 -0.5367  1.0695
 1001MOL0     C35067   8.313   9.524   1.272 -0.3515 -0.4809  0.7070
 1001MOL0     H35068   7.879   9.479   1.489  1.2068  1.4775 -1.9349
 1001MOL0     H35069   7.669   9.415   1.506 -0.5588 -0.2156 -0.0234
 1001MOL0     H35070   7.419   9.338   1.427  2.1196  1.9939  0.3182
 1001MOL0     H35071   7.497   9.366   1.266  1.0770  0.1476  0.4258
 1001MOL0     H35072   7.341   9.208   1.162 -2.2028 -3.2039 -0.0151
 1001MOL0     H35073   7.273   9.342   1.244  2.9691  1.4199 -1.0764
 1001MOL0     H35074   7.280   9.081   1.384 -2.1486 -1.4619 -0.2137
 1001MOL0     H35075   7.150   9.134   1.261 -1.1285  0.5326 -0.1796
 1001MOL0     H35076   7.203   9.228   1.543 -0.7990  2.9758 -0.0904
 1001MOL0     H35077   7.118   9.334   1.431 -0.8621 -0.8171 -2.3220
 1001MOL0     H35078   6.954   9.140   1.403 -0.2410  1.8932  0.5071
 1001MOL0     H35079   7.069   9.031   1.478  0.8552  0.0500 -1.1423
 1001MOL0     H35080   6.997   9.194   1.700 -2.2566 -0.6745  1.4875
 1001MOL0     H35081   6.888   9.263   1.591  1.5518  0.7087  2.6259
 1001MOL0     H35082   6.919   8.979   1.690  2.0037  0.9223  0.1846
 1001MOL0     H35083   6.804   9.011   1.559  3.4340 -0.3662 -1.0719
 1001MOL0     H35084   6.674   9.163   1.692 -3.5424 -1.1932  1.8089
 1001MOL0     H35085   6.699   9.014   1.799  1.6130 -0.4347  1.1348
 1001MOL0     H35086   6.908   9.027   1.974 -2.7888 -0.4601  2.9704
 1001MOL0     H35087   6.995   9.351   2.184  0.8323 -0.7503  2.7839
 1001MOL0     H35088   6.968   9.175   2.195  4.9027 -2.7184 -0.3820
 1001MOL0     H35089   7.207   9.232   2.212  3.0898  0.4727 -1.2513
 1001MOL0     H35090   7.157   9.118   2.079  1.3967  0.3670 -0.5617
 1001MOL0     H35091   7.297   9.389   2.063 -0.4982  1.8428 -1.1409
 1001MOL0     H35092   7.149   9.369   1.962 -1.6560 -0.4542  1.8440
 1001MOL0     H35093   7.221   9.186   1.853 -1.7908 -0.4867  1.7797
 1001MOL0     H35094   7.359   9.156   1.970 -1.0330  0.0355  2.4317
 1001MOL0     H35095   7.500   9.526   1.735 -0.9387 -0.9556  0.6389
 1001MOL0     H35096   7.712   9.603   1.791 -0.8077 -0.7125 -1.9795
 1001MOL0     H35097   8.172   9.614   1.771  0.8781  1.3465 -1.2209
 1001MOL0     H35098   8.396   9.677   1.839  0.4396  1.0831  0.1677
 1001MOL0     H35099   8.550   9.823   1.887 -3.1325  2.4752  0.5612
 1001MOL0     H35100   8.643   9.868   2.039 -0.6369 -0.6237  2.0111
 1001MOL0     H35101   8.692   9.646   2.083  0.6993  1.5947 -0.8168
 1001MOL0     H35102   8.545   9.590   2.008 -1.3477  1.9693  2.3931
 1001MOL0     H35103   8.755   9.537   1.868  3.6447  1.3680 -0.6377
 1001MOL0     H35104   8.663   9.655   1.779  1.2537  2.6367 -1.2388
 1001MOL0     H35105   8.807   9.839   1.927 -0.4673  0.7942 -0.6324
 1001MOL0     H35106   8.863   9.764   1.780  1.6325  1.8341 -0.0189
 1001MOL0     H35107   9.001   9.609   1.916 -2.4222 -1.2454  0.6980
 1001MOL0     H35108   8.938   9.675   2.068 -0.6076 -1.9638  0.4395
 1001MOL0     H35109   9.076   9.835   1.844  0.0109  0.4453  0.8190
 1001MOL0     H35110   9.027   9.904   2.003 -0.3792  1.2674 -1.8190
 1001MOL0     H35111   9.239   9.692   1.971 -0.0551 -0.3537 -1.3095
 1001MOL0     H35112   9.173   9.752   2.119 -0.3059 -0.2745  0.2597
 1001MOL0     H35113   9.311   9.940   1.909  1.8782 -2.3583 -1.1216
 1001MOL0     H35114   9.275   9.962   2.091 -2.5415  1.7577 -1.7536
 1001MOL0     H35115   8.238   9.807   2.214 -1.1559  1.1185  0.3115
 1001MOL0     H35116   8.015   9.714   2.155 -0.3541 -1.1882 -1.5246
 1001MOL0     H35117   7.773   9.265   2.056 -1.7129 -2.6302 -1.4218
 1001MOL0     H35118   7.534   9.228   2.045  0.8332  2.1631  2.8353
 1001MOL0     H35119   7.744   9.075   1.241  1.0797 -1.7536  0.9022
 1001MOL0     H35120   7.985   9.130   1.252 -0.3907 -0.5588  0.8567
 1001MOL0     H35121   8.317   9.314   1.688  1.2253  2.0160  2.2207
 1001MOL0     H35122   8.550   9.336   1.707  0.4662 -0.9868 -0.2198
 1001MOL0     H35123   8.785   9.250   1.555  0.7989  0.9316 -0.8488
 1001MOL0     H35124   8.784   9.364   1.697  0.5308  4.5506 -0.1886
 1001MOL0     H35125   8.979   9.352   1.466  1.9479  0.0873  0.7688
 1001MOL0     H35126   9.010   9.318   1.636  2.2085  0.3820 -1.8637
 1001MOL0     H35127   8.925   9.560   1.675 -0.4434  1.8860 -0.9402
 1001MOL0     H35128   8.961   9.586   1.510  3.5630  1.4136 -0.2814
 1001MOL0     H35129   9.162   9.477   1.726  0.0056 -0.5339  0.2541
 1001MOL0     H35130   9.192   9.469   1.548 -1.2457 -1.0033 -0.0802
 1001MOL0     H35131   9.298   9.862   1.610 -2.1344  0.8744 -1.9765
 1001MOL0     H35132   8.561   9.537   1.328 -1.4307 -1.2021 -2.1153
 1001MOL0     H35133   8.343   9.630   1.268  0.6005 -0.7696 -1.4169
 1001MOL0     H35134   8.345   9.465   1.186 -2.0192 -0.9312  0.3739
 1001MOL0     H35135   8.204   9.515   1.278 -0.4894 -0.4586 -1.1984
 1002MOL0     O35136   9.306   1.741   7.322  0.6154 -0.0390 -0.0361
 1002MOL0     C35137   9.282   1.634   7.368 -0.4473  0.1140 -0.3432
 1002MOL0     O35138   9.346   1.514   7.343  0.2440 -0.6217  0.7117
 1002MOL0     C35139   9.420   1.486   7.232  0.2449 -0.4431 -0.3950
 1002MOL0     C35140   9.418   1.565   7.115 -0.5689  0.5507  0.2995
 1002MOL0     C35141   9.488   1.534   7.004 -0.2537 -0.0874  0.0782
 1002MOL0     C35142   9.546   1.410   6.989 -0.8563 -0.5492  0.1537
 1002MOL0     O35143   9.600   1.385   6.864 -0.1718  0.1841 -1.0305
 1002MOL0     C35144   9.544   1.276   6.794 -0.8672 -0.0571  0.5722
 1002MOL0     C35145   9.408   1.321   6.740 -1.0163 -0.1361 -0.1467
 1002MOL0     C35146   9.342   1.207   6.671 -0.1402  0.4822  0.9387
 1002MOL0     C35147   9.249   1.250   6.553 -0.3951  0.3004 -0.0585
 1002MOL0     C35148   9.319   1.256   6.411  0.3331  0.3882 -1.0993
 1002MOL0     C35149   9.406   1.380   6.390 -0.0881  0.2360 -0.3111
 1002MOL0     C35150   9.446   1.399   6.238 -0.0890 -0.6099 -0.8287
 1002MOL0     C35151   9.512   1.272   6.177  0.5538 -0.4971 -0.2299
 1002MOL0     N35152   9.640   1.234   6.245  0.5728  0.3076  0.2684
 1002MOL0     C35153   9.746   1.322   6.255 -0.1650 -0.5767 -0.4178
 1002MOL0     C35154   9.827   1.258   6.337 -0.1945  0.2425  0.2951
 1002MOL0     C35155   9.954   1.312   6.399 -0.1802  0.1011  0.0641
 1002MOL0     C35156   9.919   1.353   6.547  0.1110 -0.8996  0.3449
 1002MOL0     C35157   9.934   1.229   6.641 -0.1085  0.2049 -0.4668
 1002MOL0     C35158  10.076   1.185   6.652  0.0798  0.7996 -1.0089
 1002MOL0     O35159  10.100   1.111   6.776 -0.4038  0.9378  0.2475
 1002MOL0     C35160  10.238   1.091   6.806  0.2913 -0.5004 -0.1433
 1002MOL0     C35161  10.339   1.095   6.711  0.8597 -0.1590 -0.9602
 1002MOL0     C35162  10.474   1.085   6.751 -0.0492 -0.0976  0.6777
 1002MOL0     C35163  10.512   1.071   6.886  0.5018  1.1895  0.1753
 1002MOL0     C35164  10.657   1.053   6.920  0.1794 -0.1365 -0.6210
 1002MOL0     O35165  10.689   0.978   7.021 -0.2966 -0.6817 -0.1467
 1002MOL0     C35166  10.818   0.973   7.062  0.2681 -0.2401  0.4102
 1002MOL0     C35167  10.896   1.097   7.077  0.2908  0.1578  0.6288
 1002MOL0     C35168  11.028   1.078   7.130  0.0104 -0.5630 -0.0118
 1002MOL0     C35169  11.083   0.951   7.161 -0.4006  0.0964  0.5390
 1002MOL0     O35170  11.208   0.932   7.206 -0.4280 -0.5068 -0.4545
 1002MOL0     C35171  11.318   1.008   7.152 -0.7064  0.2843 -0.2419
 1002MOL0     C35172  11.461   0.965   7.197 -0.5070  0.0428  0.6064
 1002MOL0     C35173  11.565   1.037   7.113  0.0339  0.0803  0.1430
 1002MOL0     C35174  11.704   0.969   7.130 -0.4513 -0.3579  0.1332
 1002MOL0     C35175  11.817   1.069   7.097  0.7062 -0.3290  0.8082
 1002MOL0     C35176  11.950   0.996   7.078  0.5201 -0.2131 -0.6309
 1002MOL0     C35177  12.064   1.096   7.097  0.0003  0.8987 -0.0666
 1002MOL0     C35178  12.195   1.043   7.042  0.1460 -0.5740 -0.4675
 1002MOL0    Cl35179  12.276   0.960   7.162 -0.0926  0.1259 -0.2840
 1002MOL0     C35180  11.000   0.841   7.145  0.2660 -0.2753 -0.1818
 1002MOL0     C35181  10.872   0.848   7.100 -0.4659 -1.3000  0.4812
 1002MOL0     O35182  10.733   1.120   6.849  0.1891  0.1995 -0.4395
 1002MOL0     C35183  10.414   1.063   6.976  0.3005 -0.2937 -1.0981
 1002MOL0     C35184  10.274   1.070   6.937 -0.3325  0.3598  0.0119
 1002MOL0     N35185   9.783   1.135   6.363  0.3889  0.3036 -0.3590
 1002MOL0     N35186   9.669   1.116   6.308  0.7709 -0.0948  0.0668
 1002MOL0     C35187   9.558   1.326   7.104 -0.0324 -0.0232 -0.4969
 1002MOL0     C35188   9.505   1.372   7.230 -0.2003 -0.0451  0.4583
 1002MOL0     C35189   9.184   1.645   7.471 -0.4714 -0.3693  0.0183
 1002MOL0     C35190   9.214   1.581   7.596  0.9380  0.1968  1.1718
 1002MOL0     C35191   9.123   1.579   7.700  0.1548  0.1257  0.6107
 1002MOL0     C35192   9.006   1.656   7.698 -0.4493 -1.0272  0.0418
 1002MOL0     O35193   8.927   1.655   7.809  0.4242 -0.0495 -0.7741
 1002MOL0     C35194   8.805   1.731   7.816 -0.6105 -0.2611  0.8224
 1002MOL0     C35195   8.728   1.665   7.940 -0.2018  0.3762 -0.1741
 1002MOL0     C35196   8.771   1.734   8.066  0.1897 -0.1143  0.2724
 1002MOL0     C35197   8.710   1.655   8.191  0.4098 -0.0866  0.8691
 1002MOL0     C35198   8.784   1.687   8.312 -0.8540  0.1809  0.1027
 1002MOL0     C35199   8.847   1.711   8.414  0.3995  0.5002  0.1464
 1002MOL0     C35200   8.977   1.720   7.572  0.2134 -0.6916 -0.4681
 1002MOL0     C35201   9.066   1.726   7.465 -0.1009  0.3350 -0.3302
 1002MOL0     C35202   9.027   1.792   7.342  0.4771 -0.5591  0.6363
 1002MOL0     H35203   9.352   1.652   7.111  0.9812  1.7396 -1.3306
 1002MOL0     H35204   9.481   1.595   6.915 -2.1670  1.6999  1.3615
 1002MOL0     H35205   9.613   1.243   6.716 -2.2124 -0.1225 -0.6273
 1002MOL0     H35206   9.530   1.194   6.866 -0.1916 -1.1065 -0.4437
 1002MOL0     H35207   9.421   1.407   6.673  2.2561  0.9031  1.6019
 1002MOL0     H35208   9.342   1.356   6.819 -0.8996 -1.8751  0.7583
 1002MOL0     H35209   9.283   1.153   6.744 -0.9338  0.0586  0.0101
 1002MOL0     H35210   9.417   1.141   6.627 -2.0624 -0.6191 -0.8475
 1002MOL0     H35211   9.165   1.180   6.542  1.1549 -1.4073 -2.0144
 1002MOL0     H35212   9.207   1.348   6.576  2.0272  0.7597  2.9913
 1002MOL0     H35213   9.378   1.166   6.394  3.8470  2.6191 -1.6893
 1002MOL0     H35214   9.230   1.262   6.347 -0.3823  0.1277 -0.1498
 1002MOL0     H35215   9.347   1.460   6.437  0.0930 -0.7660  1.7591
 1002MOL0     H35216   9.501   1.367   6.443 -0.1514 -0.6229 -0.4013
 1002MOL0     H35217   9.513   1.483   6.222 -1.2019  0.3333 -0.6587
 1002MOL0     H35218   9.357   1.420   6.179 -1.6703 -1.5939  1.0642
 1002MOL0     H35219   9.449   1.183   6.191  0.0874  0.0308  1.2727
 1002MOL0     H35220   9.522   1.292   6.070  0.6769  0.5627 -0.0240
 1002MOL0     H35221   9.747   1.427   6.226  0.0966 -0.8890 -1.6155
 1002MOL0     H35222  10.042   1.252   6.375 -1.2238 -1.1015 -0.9078
 1002MOL0     H35223   9.960   1.415   6.360 -2.2259 -0.1824 -1.1644
 1002MOL0     H35224   9.990   1.431   6.575  0.2669 -1.2803  1.0570
 1002MOL0     H35225   9.816   1.387   6.552 -0.8839 -3.7259  3.6013
 1002MOL0     H35226   9.882   1.147   6.591 -0.9114  0.8595 -0.7229
 1002MOL0     H35227   9.888   1.248   6.738  2.1872  0.8526  0.5642
 1002MOL0     H35228  10.135   1.277   6.660 -0.1706  1.2774 -3.5605
 1002MOL0     H35229  10.104   1.129   6.562 -0.6253 -0.0378 -0.7258
 1002MOL0     H35230  10.316   1.125   6.609  0.9220 -0.0696 -0.9473
 1002MOL0     H35231  10.548   1.105   6.674 -0.9565 -0.8929 -0.4329
 1002MOL0     H35232  10.860   1.194   7.045 -0.1616  0.4014  1.8290
 1002MOL0     H35233  11.082   1.167   7.159  1.4695 -2.0355  2.0654
 1002MOL0     H35234  11.308   0.996   7.043  2.6057 -2.2251 -0.4397
 1002MOL0     H35235  11.302   1.113   7.176  0.4188  0.3136  0.4087
 1002MOL0     H35236  11.476   1.001   7.300 -0.9121 -0.3461  0.8047
 1002MOL0     H35237  11.474   0.857   7.187 -1.0902 -0.0145  0.4413
 1002MOL0     H35238  11.543   1.038   7.006 -0.3116  2.8192  0.1627
 1002MOL0     H35239  11.573   1.142   7.142 -0.2872  0.5342 -1.3221
 1002MOL0     H35240  11.705   0.884   7.061  2.2304  0.8542 -1.4797
 1002MOL0     H35241  11.708   0.924   7.229 -3.7951 -4.9560 -1.4614
 1002MOL0     H35242  11.817   1.140   7.181  1.4797  1.8072 -0.9111
 1002MOL0     H35243  11.796   1.119   7.003 -2.3919 -2.7601  0.0368
 1002MOL0     H35244  11.960   0.925   7.161 -1.1325 -0.3476 -0.5029
 1002MOL0     H35245  11.970   0.947   6.982  0.3130 -1.2217 -0.1774
 1002MOL0     H35246  12.072   1.139   7.197  3.4624  2.3085 -0.7933
 1002MOL0     H35247  12.043   1.174   7.023 -2.6245  0.8902  0.6021
 1002MOL0     H35248  12.192   0.993   6.945  2.6191 -0.0088 -0.9082
 1002MOL0     H35249  12.251   1.133   7.013 -2.7321  1.6787  0.4917
 1002MOL0     H35250  11.025   0.738   7.171  1.2701 -0.1002 -0.3838
 1002MOL0     H35251  10.826   0.751   7.087  0.4495 -1.6425 -0.2846
 1002MOL0     H35252  10.427   1.042   7.081 -5.3446  0.2640  0.0136
 1002MOL0     H35253  10.197   1.060   7.012 -2.4887  6.6416 -0.7605
 1002MOL0     H35254   9.604   1.230   7.085  0.3753  0.2589 -0.9486
 1002MOL0     H35255   9.509   1.307   7.317 -1.7579 -2.3806 -1.1027
 1002MOL0     H35256   9.305   1.525   7.614  0.7084  0.0752  1.9678
 1002MOL0     H35257   9.141   1.530   7.794 -1.1737 -3.0922 -0.6733
 1002MOL0     H35258   8.731   1.712   7.737 -2.2830  2.2582  1.6643
 1002MOL0     H35259   8.830   1.837   7.809 -3.5583  0.8068  3.7394
 1002MOL0     H35260   8.750   1.558   7.943  1.5603  0.6460 -1.5326
 1002MOL0     H35261   8.622   1.692   7.933 -0.0228  0.6540 -2.7284
 1002MOL0     H35262   8.749   1.841   8.067 -1.5748 -0.3087  4.2767
 1002MOL0     H35263   8.879   1.717   8.073  0.1783 -0.5330 -0.5033
 1002MOL0     H35264   8.615   1.708   8.202  0.8262  0.8838 -0.1211
 1002MOL0     H35265   8.703   1.546   8.178  2.9855 -0.2472  0.4689
 1002MOL0     H35266   8.911   1.736   8.496 -1.8049  0.5752  1.9697
 1002MOL0     H35267   8.884   1.776   7.575 -0.3282 -1.6039  0.2674
 1002MOL0     H35268   9.065   1.895   7.334 -3.3351  1.1109  1.5239
 1002MOL0     H35269   9.061   1.737   7.254  0.6837  0.5947 -0.0226
 1002MOL0     H35270   8.918   1.787   7.334  0.6220 -0.8532 -2.0695
 1003MOL0     O35271   9.081   2.857   0.974 -0.2040  0.4405 -0.1245
 1003MOL0     C35272   9.049   2.756   1.037 -1.1525 -1.2567  0.0726
 1003MOL0     O35273   9.126   2.704   1.134  0.0436  0.5803  0.0648
 1003MOL0     C35274   9.256   2.738   1.171  1.3447  0.3620 -0.9648
 1003MOL0     C35275   9.282   2.723   1.305 -0.2023 -0.0567 -0.0592
 1003MOL0     C35276   9.397   2.763   1.359 -0.6500 -1.6530  0.0501
 1003MOL0     C35277   9.496   2.825   1.283 -0.1416  0.3117 -0.1331
 1003MOL0     O35278   9.621   2.862   1.317 -0.5701 -0.4028 -0.0248
 1003MOL0     C35279   9.658   2.894   1.453  0.3062  0.2170  0.4439
 1003MOL0     C35280   9.794   2.950   1.462  0.8430 -0.3234 -0.5817
 1003MOL0     C35281   9.841   2.919   1.605  0.0165  0.5775  0.7181
 1003MOL0     C35282   9.993   2.930   1.604 -0.8334 -1.0254 -0.1661
 1003MOL0     C35283  10.045   2.882   1.737  0.1184 -0.6893  0.3689
 1003MOL0     C35284  10.199   2.892   1.760  0.1873 -0.5783  0.4176
 1003MOL0     C35285  10.248   3.037   1.763  0.1018 -0.1282  0.4798
 1003MOL0     C35286  10.403   3.028   1.755 -0.1310  0.2489 -0.4252
 1003MOL0     N35287  10.469   3.156   1.794 -0.1059  1.0584  0.1698
 1003MOL0     C35288  10.467   3.215   1.916 -0.6564  0.2262 -0.4723
 1003MOL0     C35289  10.556   3.310   1.899  0.1093  0.3484 -0.9567
 1003MOL0     C35290  10.625   3.387   2.008  0.0835 -0.0930  0.5055
 1003MOL0     C35291  10.759   3.320   2.037  0.3732  0.0707 -0.3034
 1003MOL0     C35292  10.807   3.364   2.176  0.2326 -0.4479  0.0277
 1003MOL0     C35293  10.950   3.335   2.187  0.2441 -0.3778  0.3220
 1003MOL0     O35294  11.006   3.399   2.309 -0.0566 -0.3610 -0.5018
 1003MOL0     C35295  11.141   3.379   2.341  0.1261  0.0737  0.5955
 1003MOL0     C35296  11.229   3.305   2.262 -0.9141  0.6620  0.5573
 1003MOL0     C35297  11.368   3.300   2.295  0.3177 -0.0641  0.6366
 1003MOL0     C35298  11.418   3.363   2.407 -0.1146 -0.8993 -0.0523
 1003MOL0     C35299  11.565   3.371   2.427 -0.3730 -1.0170  1.0697
 1003MOL0     O35300  11.614   3.444   2.532 -0.2226 -0.1358 -0.5339
 1003MOL0     C35301  11.745   3.476   2.522  0.3962 -0.2243  0.1012
 1003MOL0     C35302  11.799   3.545   2.412 -1.0633  0.2837 -0.3019
 1003MOL0     C35303  11.941   3.565   2.393  0.1505 -0.4771  0.3031
 1003MOL0     C35304  12.022   3.525   2.497 -0.1071  0.3786  0.2389
 1003MOL0     O35305  12.160   3.532   2.469 -0.5920  0.2894  0.2005
 1003MOL0     C35306  12.233   3.427   2.532 -0.6632 -0.1716 -0.3334
 1003MOL0     C35307  12.360   3.385   2.457  0.3800  0.7575  0.9449
 1003MOL0     C35308  12.475   3.492   2.454  0.2616  0.3874 -0.6169
 1003MOL0     C35309  12.521   3.529   2.592 -1.1974 -0.4724 -0.0256
 1003MOL0     C35310  12.637   3.624   2.594  0.2647 -0.2228 -0.3238
 1003MOL0     C35311  12.686   3.655   2.736  0.2283  0.1384 -0.6185
 1003MOL0     C35312  12.798   3.763   2.727 -0.1172  0.0647  0.4618
 1003MOL0     C35313  12.921   3.687   2.669 -0.5135  0.6863 -0.0817
 1003MOL0    Cl35314  12.969   3.537   2.759  0.2343  0.3682 -0.1437
 1003MOL0     C35315  11.964   3.467   2.612  0.6612 -0.4316 -0.4995
 1003MOL0     C35316  11.823   3.446   2.623 -0.7369  0.4725 -0.3766
 1003MOL0     O35317  11.640   3.303   2.352  0.3772  0.0183 -0.5654
 1003MOL0     C35318  11.328   3.438   2.482  0.1037  0.4636 -0.1628
 1003MOL0     C35319  11.195   3.453   2.444 -0.2835 -0.4848 -0.9282
 1003MOL0     N35320  10.615   3.317   1.771 -0.2650  0.0801 -0.7481
 1003MOL0     N35321  10.569   3.210   1.713  0.2636 -0.5273 -0.3942
 1003MOL0     C35322   9.468   2.847   1.151  0.3315  0.0464  0.7964
 1003MOL0     C35323   9.347   2.804   1.097 -0.3663 -0.6855  0.0213
 1003MOL0     C35324   8.907   2.709   1.017 -0.7028  0.2019 -0.1096
 1003MOL0     C35325   8.844   2.746   0.898 -0.2564 -0.6188  0.2207
 1003MOL0     C35326   8.706   2.728   0.866  0.1631 -0.2924 -0.3400
 1003MOL0     C35327   8.634   2.671   0.966  0.2563  1.1560  0.9120
 1003MOL0     O35328   8.500   2.648   0.932  0.2406 -0.4935  0.2837
 1003MOL0     C35329   8.453   2.517   0.943 -1.0490  0.4666  0.2999
 1003MOL0     C35330   8.352   2.491   0.838  0.5248 -0.0502  0.1300
 1003MOL0     C35331   8.233   2.590   0.864 -0.6024  0.2519  0.7024
 1003MOL0     C35332   8.108   2.538   0.797 -0.1586  0.2026 -0.9281
 1003MOL0     C35333   8.125   2.552   0.654 -0.1169  0.2680  0.5471
 1003MOL0     C35334   8.130   2.563   0.535  0.7502  0.2234 -0.2646
 1003MOL0     C35335   8.693   2.649   1.092 -0.6006 -0.2247 -0.2225
 1003MOL0     C35336   8.831   2.655   1.119 -0.6836 -0.5308 -0.8530
 1003MOL0     C35337   8.879   2.628   1.259 -0.6468 -0.0070  0.5416
 1003MOL0     H35338   9.207   2.677   1.368 -1.1740 -0.7519 -1.6589
 1003MOL0     H35339   9.422   2.746   1.463 -3.4286  1.8617  1.5046
 1003MOL0     H35340   9.588   2.967   1.493  0.8260  0.5751  0.7124
 1003MOL0     H35341   9.658   2.800   1.509  0.9833  1.1868  2.1397
 1003MOL0     H35342   9.800   3.057   1.444  3.8689 -0.3610 -0.2094
 1003MOL0     H35343   9.860   2.895   1.394  0.1923 -3.8047  1.3220
 1003MOL0     H35344   9.829   2.812   1.628  4.2372  0.1148  1.5486
 1003MOL0     H35345   9.801   2.982   1.685  0.1267  0.2841  1.0091
 1003MOL0     H35346  10.029   2.865   1.524  0.8684 -1.4622  0.8968
 1003MOL0     H35347  10.023   3.033   1.584  0.4503 -1.5125 -0.8573
 1003MOL0     H35348   9.994   2.938   1.816 -1.6435 -2.1624  0.3565
 1003MOL0     H35349  10.005   2.780   1.741 -2.3126  0.1421 -0.7882
 1003MOL0     H35350  10.235   2.841   1.849  0.9580  0.9928  1.0423
 1003MOL0     H35351  10.251   2.834   1.682  2.5036 -0.0054  1.4578
 1003MOL0     H35352  10.200   3.069   1.856 -1.5747  0.1690 -0.4454
 1003MOL0     H35353  10.206   3.102   1.686  2.2022  0.3000 -0.3713
 1003MOL0     H35354  10.441   2.947   1.818  0.4672 -0.2455 -1.4109
 1003MOL0     H35355  10.436   3.003   1.654 -0.7341 -1.3669 -0.2455
 1003MOL0     H35356  10.415   3.179   2.003 -2.8025  1.3150 -1.2368
 1003MOL0     H35357  10.647   3.489   1.974  1.4327 -0.3671  0.5135
 1003MOL0     H35358  10.559   3.392   2.095  1.1206  1.1766  1.2490
 1003MOL0     H35359  10.754   3.213   2.015 -0.2875  0.4137 -1.9590
 1003MOL0     H35360  10.819   3.362   1.957 -1.9556  0.6613 -1.8180
 1003MOL0     H35361  10.753   3.312   2.256 -2.4539  1.0793 -0.6709
 1003MOL0     H35362  10.787   3.470   2.194  2.2218  0.2756 -1.6777
 1003MOL0     H35363  11.007   3.363   2.097 -2.5853  3.5966 -0.5042
 1003MOL0     H35364  10.964   3.227   2.190 -2.3102 -0.7397  0.8951
 1003MOL0     H35365  11.199   3.240   2.181  0.7022 -2.6750  2.4378
 1003MOL0     H35366  11.434   3.242   2.231  0.8481  2.6649 -1.4729
 1003MOL0     H35367  11.735   3.583   2.333  0.6794  3.8481 -0.2331
 1003MOL0     H35368  11.977   3.598   2.296 -3.5054 -0.7022 -1.3105
 1003MOL0     H35369  12.254   3.458   2.635 -4.5354  2.2749 -0.1004
 1003MOL0     H35370  12.177   3.333   2.530  0.1151 -0.6634  0.4410
 1003MOL0     H35371  12.401   3.294   2.502  3.2523  0.9242 -1.0485
 1003MOL0     H35372  12.340   3.352   2.354 -0.3269  1.9859  0.6678
 1003MOL0     H35373  12.562   3.452   2.402  1.6655 -1.1641  2.6620
 1003MOL0     H35374  12.428   3.579   2.407 -1.0638  0.4365  0.7416
 1003MOL0     H35375  12.549   3.434   2.640  0.9374 -0.9778 -2.0897
 1003MOL0     H35376  12.439   3.568   2.654 -0.8952 -1.9452  1.3874
 1003MOL0     H35377  12.609   3.713   2.538  0.1452 -1.1088 -1.7099
 1003MOL0     H35378  12.716   3.582   2.530 -1.2901 -3.1354 -0.4946
 1003MOL0     H35379  12.603   3.683   2.801 -0.0364 -1.0031 -0.4480
 1003MOL0     H35380  12.721   3.567   2.790  0.5128  1.4556  1.4848
 1003MOL0     H35381  12.822   3.804   2.826 -1.2446  0.9241  0.4074
 1003MOL0     H35382  12.776   3.851   2.666  2.2064  0.3830  0.0181
 1003MOL0     H35383  12.910   3.657   2.564  1.7754 -4.1385  0.7787
 1003MOL0     H35384  13.005   3.756   2.677 -1.1282  1.3716  0.7288
 1003MOL0     H35385  12.020   3.434   2.699 -0.3116  1.4609  0.9048
 1003MOL0     H35386  11.797   3.387   2.710 -2.1325 -1.6675 -2.1621
 1003MOL0     H35387  11.351   3.491   2.575  4.7800 -1.5814  0.1113
 1003MOL0     H35388  11.127   3.526   2.487  0.0263 -0.0297 -1.1932
 1003MOL0     H35389   9.542   2.897   1.090 -0.6812  2.3105  1.3098
 1003MOL0     H35390   9.335   2.804   0.989 -3.6391  0.5108  0.2790
 1003MOL0     H35391   8.911   2.781   0.820 -0.5314 -4.1083 -1.7893
 1003MOL0     H35392   8.665   2.751   0.769  2.8049 -0.8404 -1.6682
 1003MOL0     H35393   8.422   2.490   1.044  0.5348 -1.6125  0.2941
 1003MOL0     H35394   8.530   2.441   0.930 -0.6329  0.3553  2.9135
 1003MOL0     H35395   8.305   2.393   0.842  1.5616 -0.6256 -1.1102
 1003MOL0     H35396   8.407   2.509   0.746  0.1878  0.1389 -0.0368
 1003MOL0     H35397   8.264   2.688   0.828  1.0385 -0.6759 -0.5266
 1003MOL0     H35398   8.202   2.594   0.969  1.8696 -1.3098  1.5577
 1003MOL0     H35399   8.095   2.433   0.823  2.2201  0.2109  0.5798
 1003MOL0     H35400   8.022   2.600   0.825  0.5778  1.7817 -1.9643
 1003MOL0     H35401   8.141   2.591   0.433 -0.3099 -1.3627 -0.8480
 1003MOL0     H35402   8.632   2.608   1.172  1.1677 -0.9899  0.7693
 1003MOL0     H35403   8.798   2.599   1.326  0.1773 -2.0501  0.7243
 1003MOL0     H35404   8.944   2.541   1.245 -1.9322 -0.5454 -3.2579
 1003MOL0     H35405   8.927   2.715   1.304 -0.8474 -0.0004  0.7438
 1004MOL0     O35406   9.437   6.313   6.236 -0.7517  0.1867  0.2142
 1004MOL0     C35407   9.368   6.400   6.280  0.7139 -1.1526  0.2818
 1004MOL0     O35408   9.385   6.457   6.400  0.0496 -0.1341  0.0666
 1004MOL0     C35409   9.502   6.446   6.461  0.4549  0.7126  0.0383
 1004MOL0     C35410   9.499   6.409   6.597  0.2729 -0.1052 -0.5131
 1004MOL0     C35411   9.625   6.397   6.657 -0.3311  0.6124 -0.2263
 1004MOL0     C35412   9.752   6.421   6.588  0.1455  0.4158 -0.3385
 1004MOL0     O35413   9.872   6.402   6.643  0.3903 -0.2623  0.2341
 1004MOL0     C35414   9.886   6.406   6.779  0.4450  0.5394 -0.6808
 1004MOL0     C35415  10.032   6.378   6.812  0.4507  0.9674 -0.5929
 1004MOL0     C35416  10.059   6.388   6.965  0.2060  0.4722  0.8902
 1004MOL0     C35417  10.181   6.303   7.009 -0.6572 -0.1657  0.7255
 1004MOL0     C35418  10.216   6.337   7.157 -0.1262  0.9167  1.2748
 1004MOL0     C35419  10.344   6.251   7.179 -0.2483 -0.6852  0.5104
 1004MOL0     C35420  10.374   6.267   7.328  0.1790  0.0439 -0.5292
 1004MOL0     C35421  10.511   6.194   7.361  0.7444  0.2695 -0.8178
 1004MOL0     N35422  10.618   6.271   7.303  0.2788 -0.2659  0.4295
 1004MOL0     C35423  10.718   6.221   7.224  0.0876  0.0713  0.5649
 1004MOL0     C35424  10.824   6.303   7.240  0.0209  0.1168  0.7130
 1004MOL0     C35425  10.960   6.290   7.178  0.0372  0.7368 -0.0986
 1004MOL0     C35426  11.070   6.275   7.289 -0.3844  0.3527 -1.2584
 1004MOL0     C35427  11.054   6.149   7.380 -0.2274  0.7692  0.0106
 1004MOL0     C35428  11.041   6.023   7.302 -0.1847 -0.6855  0.1196
 1004MOL0     O35429  11.073   5.914   7.388 -0.2489 -0.2245 -0.0318
 1004MOL0     C35430  11.203   5.891   7.413  0.1424 -0.0974 -0.5867
 1004MOL0     C35431  11.223   5.779   7.492  0.0361 -0.0582  0.0807
 1004MOL0     C35432  11.347   5.726   7.512  0.0344 -0.3573 -0.0443
 1004MOL0     C35433  11.458   5.803   7.476 -0.0407 -0.4175 -0.4708
 1004MOL0     C35434  11.597   5.758   7.514  0.1134 -0.7879 -0.5717
 1004MOL0     O35435  11.691   5.822   7.457 -0.9220 -0.4288  0.2988
 1004MOL0     C35436  11.823   5.770   7.442  0.1655  0.0486 -0.0819
 1004MOL0     C35437  11.847   5.636   7.440  0.3798  0.7248 -0.1178
 1004MOL0     C35438  11.980   5.593   7.426  0.3058  0.0985  0.4422
 1004MOL0     C35439  12.090   5.677   7.431 -0.0608  0.2241 -0.4160
 1004MOL0     O35440  12.225   5.635   7.418 -0.7669  0.4865 -0.4713
 1004MOL0     C35441  12.293   5.568   7.533  0.0164  0.3819  0.2201
 1004MOL0     C35442  12.442   5.543   7.507  0.6567 -0.4416 -0.1214
 1004MOL0     C35443  12.523   5.666   7.467 -0.0889 -0.7285  0.7764
 1004MOL0     C35444  12.678   5.643   7.460 -0.3709  0.4363  0.1747
 1004MOL0     C35445  12.755   5.735   7.375 -0.7459 -1.0492 -0.3776
 1004MOL0     C35446  12.747   5.881   7.437 -0.3100 -0.0741 -0.0126
 1004MOL0     C35447  12.867   5.953   7.364 -0.4960  0.4529 -0.5173
 1004MOL0     C35448  12.863   6.104   7.400 -0.0125  0.0377 -0.3416
 1004MOL0    Cl35449  12.962   6.197   7.284 -0.1681  0.2281  0.0086
 1004MOL0     C35450  12.063   5.814   7.444 -0.2292 -0.4316 -0.3564
 1004MOL0     C35451  11.930   5.866   7.453  0.7603  0.6913 -0.7929
 1004MOL0     O35452  11.609   5.675   7.606 -0.4916 -0.0466  0.0378
 1004MOL0     C35453  11.437   5.923   7.401  0.8293  0.8301  0.1313
 1004MOL0     C35454  11.313   5.957   7.364  0.5222 -0.2476  0.3237
 1004MOL0     N35455  10.786   6.409   7.310  0.3985 -0.7994  0.1064
 1004MOL0     N35456  10.661   6.397   7.340 -0.1253 -1.1613 -0.5852
 1004MOL0     C35457   9.746   6.452   6.448  0.3381 -0.1945  0.6841
 1004MOL0     C35458   9.619   6.475   6.389 -0.6006  0.1170 -0.6732
 1004MOL0     C35459   9.246   6.424   6.202 -0.0458 -0.5237 -0.1597
 1004MOL0     C35460   9.197   6.322   6.115  0.1001  0.3607  0.5670
 1004MOL0     C35461   9.083   6.343   6.035  0.5124  0.5321  0.2710
 1004MOL0     C35462   9.001   6.460   6.039 -0.4966  0.3407 -0.2114
 1004MOL0     O35463   8.898   6.482   5.954 -0.8685 -0.1537  0.3114
 1004MOL0     C35464   8.815   6.377   5.904  0.0818  0.9566 -0.5721
 1004MOL0     C35465   8.674   6.432   5.857  0.1580 -0.8197  0.4112
 1004MOL0     C35466   8.709   6.520   5.733 -0.2431  0.6296 -0.5907
 1004MOL0     C35467   8.587   6.588   5.664 -0.2093  0.0735  0.5635
 1004MOL0     C35468   8.646   6.677   5.563  0.5357  0.3348 -0.2257
 1004MOL0     C35469   8.691   6.746   5.477 -0.4612  0.7931  0.5394
 1004MOL0     C35470   9.044   6.558   6.129  0.0389  0.1634  0.1116
 1004MOL0     C35471   9.168   6.545   6.207 -0.0359 -0.0405 -0.0863
 1004MOL0     C35472   9.213   6.661   6.289 -0.1690 -0.6332  0.4562
 1004MOL0     H35473   9.410   6.381   6.654 -0.3698  1.0450 -0.9308
 1004MOL0     H35474   9.624   6.344   6.751  0.0983 -0.1609 -0.6439
 1004MOL0     H35475   9.845   6.503   6.810  0.3283 -0.0861  1.2147
 1004MOL0     H35476   9.825   6.325   6.818  1.2931  0.2182  0.0054
 1004MOL0     H35477  10.089   6.459   6.765  2.3513  0.0054 -0.0444
 1004MOL0     H35478  10.061   6.282   6.769 -1.2744  0.1908 -0.0779
 1004MOL0     H35479   9.971   6.361   7.026 -2.2397  0.7570 -2.2506
 1004MOL0     H35480  10.071   6.495   6.987  0.3356  0.8897 -1.0528
 1004MOL0     H35481  10.167   6.195   6.997  1.0866 -0.7876  3.3131
 1004MOL0     H35482  10.256   6.320   6.932 -1.0781  0.1319  0.3762
 1004MOL0     H35483  10.231   6.445   7.164 -0.6509  0.9847  1.3646
 1004MOL0     H35484  10.132   6.304   7.218 -0.8281 -1.8351 -0.9812
 1004MOL0     H35485  10.324   6.148   7.150  2.1045 -1.0501 -0.0621
 1004MOL0     H35486  10.425   6.290   7.117  0.1492  1.1143  2.0323
 1004MOL0     H35487  10.289   6.230   7.385 -0.1715 -0.4924 -1.3809
 1004MOL0     H35488  10.392   6.371   7.359  0.1228  0.0323 -0.4567
 1004MOL0     H35489  10.533   6.189   7.468  0.6215  0.3310 -0.7884
 1004MOL0     H35490  10.523   6.091   7.326 -0.0962 -1.0975  2.5779
 1004MOL0     H35491  10.729   6.127   7.172  1.8927 -0.1496  1.2891
 1004MOL0     H35492  10.970   6.203   7.113  0.6538 -0.1427  1.1420
 1004MOL0     H35493  10.968   6.379   7.115 -0.0753 -2.1775 -4.7057
 1004MOL0     H35494  11.171   6.264   7.248 -0.0362 -1.4464 -0.0606
 1004MOL0     H35495  11.074   6.365   7.351  3.2042  0.1966 -1.0345
 1004MOL0     H35496  10.965   6.159   7.444 -0.0995  0.8094  0.1815
 1004MOL0     H35497  11.131   6.130   7.455 -0.1021  1.8310  0.1725
 1004MOL0     H35498  11.089   6.028   7.204 -0.9331 -0.2791 -0.2352
 1004MOL0     H35499  10.937   6.004   7.273 -1.2860  3.5088  0.6514
 1004MOL0     H35500  11.141   5.716   7.526  0.0487  0.0390  0.2961
 1004MOL0     H35501  11.354   5.625   7.549 -2.1365  0.1085  1.8376
 1004MOL0     H35502  11.759   5.573   7.451 -0.8935  1.8476 -2.8170
 1004MOL0     H35503  11.988   5.485   7.425 -0.6098  0.0119 -0.8473
 1004MOL0     H35504  12.271   5.633   7.618  1.4743  0.3601  0.6228
 1004MOL0     H35505  12.250   5.468   7.548  4.2070 -1.7939 -0.8903
 1004MOL0     H35506  12.491   5.515   7.601  2.1044  1.1036 -0.3573
 1004MOL0     H35507  12.455   5.464   7.432  1.4958 -1.3194  0.9105
 1004MOL0     H35508  12.485   5.694   7.368 -5.4826 -1.2055  2.3965
 1004MOL0     H35509  12.504   5.747   7.539 -1.0832  0.2981 -0.5857
 1004MOL0     H35510  12.706   5.545   7.421  3.1846  0.3124  2.5319
 1004MOL0     H35511  12.714   5.647   7.563 -0.6762 -0.1574  0.3090
 1004MOL0     H35512  12.713   5.735   7.274 -2.2443 -1.5449  0.2299
 1004MOL0     H35513  12.859   5.701   7.379  0.0027  0.8988  5.0283
 1004MOL0     H35514  12.643   5.912   7.424 -0.5092 -0.8890 -0.4493
 1004MOL0     H35515  12.763   5.872   7.545  1.8142 -2.4610 -0.4469
 1004MOL0     H35516  12.879   5.942   7.256  1.7069 -0.3427 -0.2444
 1004MOL0     H35517  12.949   5.901   7.415 -0.4837 -1.9108 -2.7820
 1004MOL0     H35518  12.759   6.137   7.392 -0.6110 -2.0751 -4.7191
 1004MOL0     H35519  12.888   6.112   7.506 -1.1876 -2.3315  0.1852
 1004MOL0     H35520  12.139   5.889   7.463 -1.0494  0.0411  1.3017
 1004MOL0     H35521  11.899   5.968   7.473  1.8942  1.3343 -2.1307
 1004MOL0     H35522  11.514   5.990   7.363  1.5126  1.0151  1.7844
 1004MOL0     H35523  11.303   6.035   7.289  2.9864 -0.4648 -0.3161
 1004MOL0     H35524   9.833   6.469   6.385 -1.4553 -0.8620 -2.1544
 1004MOL0     H35525   9.605   6.507   6.286 -3.2289 -0.6654 -0.6409
 1004MOL0     H35526   9.251   6.228   6.101 -0.2731  0.1048  0.8211
 1004MOL0     H35527   9.034   6.262   5.982  1.1010  0.8256 -0.7278
 1004MOL0     H35528   8.792   6.302   5.980  0.2727 -0.2989 -1.7085
 1004MOL0     H35529   8.859   6.331   5.815 -0.8754  1.2797 -1.2406
 1004MOL0     H35530   8.627   6.497   5.930  0.8141  0.4616 -0.2727
 1004MOL0     H35531   8.614   6.350   5.815 -1.2163  0.5368 -0.3713
 1004MOL0     H35532   8.754   6.446   5.666 -0.3635 -1.7662  1.7979
 1004MOL0     H35533   8.774   6.601   5.766 -1.2679  1.3433 -0.2712
 1004MOL0     H35534   8.518   6.513   5.624 -0.2521  0.5140 -0.2114
 1004MOL0     H35535   8.532   6.648   5.737 -1.2685 -1.8295  1.4198
 1004MOL0     H35536   8.731   6.807   5.399  0.5614  0.7904  1.0352
 1004MOL0     H35537   8.982   6.647   6.131 -3.7738 -2.2470  2.4048
 1004MOL0     H35538   9.143   6.741   6.262  0.9070 -0.2346 -1.2742
 1004MOL0     H35539   9.210   6.625   6.392  1.3929 -2.0760  0.0421
 1004MOL0     H35540   9.310   6.702   6.263 -0.0835 -1.2460 -0.2228
 1005MOL0     O35541   0.647   7.647   2.134  0.0179  0.2693  0.4261
 1005MOL0     C35542   0.668   7.697   2.247  0.3984  0.6507 -0.1820
 1005MOL0     O35543   0.787   7.740   2.287 -0.4080 -0.5867 -0.4781
 1005MOL0     C35544   0.902   7.703   2.225  0.3281  0.6631  0.5639
 1005MOL0     C35545   0.975   7.799   2.160 -0.5054 -0.5338  0.1504
 1005MOL0     C35546   1.072   7.761   2.072  0.5018 -0.0655 -0.4222
 1005MOL0     C35547   1.106   7.628   2.058  0.0319  0.0632  0.0423
 1005MOL0     O35548   1.194   7.604   1.958 -0.0728 -0.9380  0.1487
 1005MOL0     C35549   1.246   7.471   1.946 -0.0159  0.0645 -0.2383
 1005MOL0     C35550   1.372   7.458   1.861  0.4652 -0.3102 -0.6276
 1005MOL0     C35551   1.491   7.541   1.918 -0.4755 -1.0586  0.4455
 1005MOL0     C35552   1.629   7.505   1.865  0.0956  0.1448  0.9414
 1005MOL0     C35553   1.739   7.586   1.931 -0.4939 -0.6583 -0.1729
 1005MOL0     C35554   1.879   7.528   1.893 -0.6660  0.6968  0.6927
 1005MOL0     C35555   1.999   7.611   1.932  0.0420 -0.3731 -0.7278
 1005MOL0     C35556   2.129   7.584   1.844 -0.1199 -0.3223  0.4952
 1005MOL0     N35557   2.164   7.705   1.775  0.0914 -0.4730 -0.1560
 1005MOL0     C35558   2.276   7.776   1.800  0.0482  0.4852 -0.8369
 1005MOL0     C35559   2.277   7.883   1.719  0.2571  0.0159  0.7502
 1005MOL0     C35560   2.389   7.989   1.715  1.0184 -0.9431  0.5514
 1005MOL0     C35561   2.511   7.932   1.638  0.4302 -0.5017  0.1781
 1005MOL0     C35562   2.489   7.928   1.487 -0.2335 -0.3293  0.1354
 1005MOL0     C35563   2.624   7.931   1.417 -0.6062  0.7776 -0.7173
 1005MOL0     O35564   2.702   8.048   1.427  0.1169 -0.1284 -0.0603
 1005MOL0     C35565   2.843   8.039   1.422  0.6087  0.2860 -0.0115
 1005MOL0     C35566   2.919   8.070   1.534 -0.0475  0.0686 -0.9294
 1005MOL0     C35567   3.060   8.060   1.545 -0.8427  0.6114 -0.5411
 1005MOL0     C35568   3.136   8.009   1.441  0.3022 -0.1546  0.1999
 1005MOL0     C35569   3.281   7.996   1.454 -0.3729  0.5826 -1.5110
 1005MOL0     O35570   3.348   7.928   1.362 -0.5850  0.0804  0.2438
 1005MOL0     C35571   3.474   7.873   1.375 -0.7800  0.2582 -0.7339
 1005MOL0     C35572   3.554   7.845   1.261  0.6500 -0.4277 -0.3804
 1005MOL0     C35573   3.678   7.789   1.273  0.2881 -0.2146 -0.3982
 1005MOL0     C35574   3.733   7.760   1.394 -0.2530  0.5291  0.1822
 1005MOL0     O35575   3.858   7.714   1.382  0.1096  0.5704  0.1031
 1005MOL0     C35576   3.926   7.714   1.507  0.7536 -0.8948  0.1591
 1005MOL0     C35577   4.070   7.735   1.492  0.0885  0.3519 -0.0577
 1005MOL0     C35578   4.142   7.632   1.400 -0.5799 -0.4808 -0.7867
 1005MOL0     C35579   4.284   7.657   1.391 -0.5093 -0.9134 -0.4554
 1005MOL0     C35580   4.349   7.555   1.308 -0.5641 -0.1455  0.3334
 1005MOL0     C35581   4.502   7.560   1.322 -0.0564 -0.3058 -0.8449
 1005MOL0     C35582   4.554   7.445   1.234 -0.0689 -0.3336  0.4675
 1005MOL0     C35583   4.708   7.442   1.229  0.0698 -0.6405 -0.0462
 1005MOL0    Cl35584   4.767   7.594   1.147 -0.1695 -0.1073 -0.0429
 1005MOL0     C35585   3.643   7.760   1.509 -0.3198  0.0352  0.7065
 1005MOL0     C35586   3.525   7.836   1.498  0.3842 -0.0685  0.4366
 1005MOL0     O35587   3.326   8.053   1.555 -0.3398  0.1501  0.1797
 1005MOL0     C35588   3.060   7.975   1.320 -0.9790 -0.0268 -0.3430
 1005MOL0     C35589   2.917   7.993   1.313  0.9005  0.3331  0.0802
 1005MOL0     N35590   2.159   7.881   1.650 -0.5192  0.3654  0.4118
 1005MOL0     N35591   2.098   7.766   1.675 -0.5066 -0.2846 -0.2565
 1005MOL0     C35592   1.033   7.528   2.129  0.2847  0.7275  0.5225
 1005MOL0     C35593   0.936   7.564   2.211  0.4937 -1.4509  0.5116
 1005MOL0     C35594   0.547   7.707   2.345  0.8343  0.0826  0.9821
 1005MOL0     C35595   0.569   7.802   2.443  0.3612 -0.5355  0.2008
 1005MOL0     C35596   0.473   7.833   2.538  0.1825 -0.0485 -0.3921
 1005MOL0     C35597   0.348   7.761   2.535  0.0167 -0.2382 -0.1897
 1005MOL0     O35598   0.245   7.778   2.625  0.4257 -0.5527  0.4143
 1005MOL0     C35599   0.258   7.879   2.721 -0.0022 -0.5634  0.6234
 1005MOL0     C35600   0.133   7.889   2.806 -0.0110  0.5451  0.3074
 1005MOL0     C35601   0.014   7.952   2.729 -0.8996  0.3950  0.0835
 1005MOL0     C35602  -0.102   7.991   2.822 -0.2553  0.1013 -0.5685
 1005MOL0     C35603  -0.154   7.875   2.893 -0.5794 -0.0624  0.2928
 1005MOL0     C35604  -0.205   7.783   2.952  0.5768  0.2510  0.0338
 1005MOL0     C35605   0.334   7.664   2.450 -0.3762  0.6857  0.0713
 1005MOL0     C35606   0.425   7.635   2.344  0.0916  0.9276 -0.3330
 1005MOL0     C35607   0.390   7.521   2.247  0.0324 -0.1434 -0.4040
 1005MOL0     H35608   0.946   7.904   2.162  0.6784  0.1001 -4.1565
 1005MOL0     H35609   1.125   7.835   2.012  0.4319  1.2366  1.0442
 1005MOL0     H35610   1.288   7.430   2.039  2.7072 -0.7228 -1.6881
 1005MOL0     H35611   1.170   7.402   1.909 -0.8298  1.6847 -1.7398
 1005MOL0     H35612   1.346   7.482   1.758 -0.7263 -0.5869 -0.4020
 1005MOL0     H35613   1.408   7.355   1.853  1.6090  0.2092 -3.5377
 1005MOL0     H35614   1.493   7.549   2.027  0.5289 -0.9531  0.4303
 1005MOL0     H35615   1.474   7.645   1.888 -0.4710 -1.8390 -2.5706
 1005MOL0     H35616   1.658   7.401   1.883  2.3821  0.2610 -1.5472
 1005MOL0     H35617   1.625   7.518   1.757 -5.0817 -1.1885  0.7303
 1005MOL0     H35618   1.736   7.689   1.894  2.3982 -0.2341  0.5194
 1005MOL0     H35619   1.737   7.609   2.038  1.7652  0.3545 -0.2719
 1005MOL0     H35620   1.880   7.436   1.952  0.6137  0.0549 -0.2775
 1005MOL0     H35621   1.883   7.505   1.786  1.1015 -0.9372  1.0677
 1005MOL0     H35622   2.033   7.614   2.036  0.2885 -2.0668 -0.7356
 1005MOL0     H35623   1.969   7.714   1.910 -0.5398 -0.6720 -1.3436
 1005MOL0     H35624   2.213   7.555   1.908 -2.4500 -0.1844  3.8922
 1005MOL0     H35625   2.104   7.510   1.768 -0.3572 -1.2811  1.4664
 1005MOL0     H35626   2.350   7.747   1.874 -1.0158  0.2188  0.1535
 1005MOL0     H35627   2.338   8.078   1.675 -0.0505 -2.6086 -2.1085
 1005MOL0     H35628   2.417   8.018   1.816 -2.1378 -1.4731  1.6898
 1005MOL0     H35629   2.596   7.998   1.658  1.7468 -1.0788 -2.8450
 1005MOL0     H35630   2.533   7.831   1.675  0.8008 -0.3938  0.2594
 1005MOL0     H35631   2.431   8.018   1.464 -2.2211 -1.2761  1.2627
 1005MOL0     H35632   2.449   7.834   1.449  2.2585 -0.9034 -1.3249
 1005MOL0     H35633   2.593   7.895   1.319 -0.0764 -1.3541 -0.1578
 1005MOL0     H35634   2.679   7.844   1.452 -2.2666  0.4715  1.3740
 1005MOL0     H35635   2.866   8.102   1.623  0.5718 -0.4205 -0.3767
 1005MOL0     H35636   3.099   8.079   1.645 -1.9803  0.5837 -0.0813
 1005MOL0     H35637   3.512   7.875   1.166 -1.3208  1.4244  0.9804
 1005MOL0     H35638   3.732   7.763   1.182 -0.1314 -3.5543  0.1939
 1005MOL0     H35639   3.883   7.789   1.573 -0.5070 -1.5364  0.1088
 1005MOL0     H35640   3.900   7.616   1.549  0.7833 -0.7286  0.5709
 1005MOL0     H35641   4.083   7.840   1.464  2.5763 -0.2044 -1.2204
 1005MOL0     H35642   4.117   7.725   1.590  1.2097  0.2774 -0.5833
 1005MOL0     H35643   4.131   7.531   1.440 -2.7377 -0.2042 -0.5311
 1005MOL0     H35644   4.087   7.624   1.305 -2.7748 -0.6355  0.4163
 1005MOL0     H35645   4.326   7.650   1.492 -2.2367 -3.0898  0.1772
 1005MOL0     H35646   4.305   7.763   1.373 -0.4034 -0.0939  3.4443
 1005MOL0     H35647   4.323   7.575   1.203  1.7277  1.2296 -0.0225
 1005MOL0     H35648   4.314   7.452   1.322 -0.4657 -0.4334 -1.3466
 1005MOL0     H35649   4.551   7.653   1.293 -0.5246  0.2028 -0.0363
 1005MOL0     H35650   4.528   7.551   1.428  0.3274 -0.5143 -0.9582
 1005MOL0     H35651   4.518   7.438   1.131  2.2849 -3.0336 -0.3172
 1005MOL0     H35652   4.522   7.352   1.283 -0.8235 -0.0742  0.4785
 1005MOL0     H35653   4.750   7.441   1.330  0.9836  2.6495 -0.2580
 1005MOL0     H35654   4.733   7.347   1.182 -0.4261 -2.3934  2.9920
 1005MOL0     H35655   3.665   7.704   1.599 -4.4015 -1.5414  0.9242
 1005MOL0     H35656   3.465   7.845   1.588  1.2588 -0.1429  1.0433
 1005MOL0     H35657   3.104   7.932   1.230  0.2519  0.9122 -0.2009
 1005MOL0     H35658   2.873   7.970   1.217  1.4531 -0.2408 -0.0434
 1005MOL0     H35659   1.050   7.420   2.126 -3.8100 -0.1142  1.9504
 1005MOL0     H35660   0.885   7.487   2.268  1.0617 -0.5791  2.2502
 1005MOL0     H35661   0.651   7.872   2.436 -1.5382  1.8075  0.0943
 1005MOL0     H35662   0.493   7.907   2.615 -0.7294  0.0013 -0.1929
 1005MOL0     H35663   0.273   7.981   2.683 -0.3983 -0.3247  1.0990
 1005MOL0     H35664   0.346   7.863   2.785  0.1779 -1.0773  0.2574
 1005MOL0     H35665   0.147   7.933   2.906 -0.8147 -1.9908  1.6259
 1005MOL0     H35666   0.094   7.790   2.832  0.4041  0.3447  0.1643
 1005MOL0     H35667  -0.028   7.875   2.662  0.0316 -0.0086 -0.0457
 1005MOL0     H35668   0.049   8.035   2.667 -1.3473  1.5058  1.2714
 1005MOL0     H35669  -0.083   8.070   2.895 -2.3856 -1.5095  1.9561
 1005MOL0     H35670  -0.190   8.024   2.766 -2.6420 -0.8592  2.3495
 1005MOL0     H35671  -0.272   7.713   2.999 -1.9377  2.0870 -0.5684
 1005MOL0     H35672   0.244   7.602   2.447  1.4379 -2.0860 -0.6635
 1005MOL0     H35673   0.481   7.463   2.227 -0.6051 -0.6159 -2.0915
 1005MOL0     H35674   0.314   7.451   2.281 -0.7481  0.6018 -0.5708
 1005MOL0     H35675   0.359   7.574   2.156 -3.0821  0.9781  1.1501
 1006MOL0     O35676   3.031   7.502   3.310  0.3106 -0.3836 -0.3764
 1006MOL0     C35677   3.057   7.500   3.190  0.2560  0.1627 -0.6467
 1006MOL0     O35678   2.968   7.537   3.095  0.3654 -0.7272  0.6088
 1006MOL0     C35679   2.851   7.588   3.115  0.4635 -0.5275 -0.2050
 1006MOL0     C35680   2.788   7.642   3.001 -0.6124  0.5141  0.4121
 1006MOL0     C35681   2.658   7.689   2.997 -0.3474  0.0073 -0.5170
 1006MOL0     C35682   2.577   7.672   3.115  0.2589  0.5115  0.4026
 1006MOL0     O35683   2.446   7.703   3.107 -0.4890 -0.6685 -0.3184
 1006MOL0     C35684   2.407   7.834   3.074  0.4456 -0.3998 -0.4079
 1006MOL0     C35685   2.264   7.844   3.103 -0.0982  0.1344  0.0141
 1006MOL0     C35686   2.190   7.720   3.064  0.7642  0.1490 -0.0023
 1006MOL0     C35687   2.043   7.754   3.052  0.7391  0.4015 -0.7392
 1006MOL0     C35688   1.960   7.622   3.065  0.6310 -0.3787  0.4783
 1006MOL0     C35689   1.805   7.638   3.037 -1.3092  0.6057 -0.8444
 1006MOL0     C35690   1.729   7.693   3.154  0.8188 -0.1667 -0.6780
 1006MOL0     C35691   1.704   7.602   3.271 -0.0880  0.3471 -0.7128
 1006MOL0     N35692   1.580   7.624   3.342  1.0150 -0.7317 -0.1258
 1006MOL0     C35693   1.462   7.552   3.360 -0.1857  0.1600  0.2633
 1006MOL0     C35694   1.392   7.639   3.441  0.1045 -0.4047  0.0303
 1006MOL0     C35695   1.257   7.623   3.497  0.0361 -0.2604 -0.7203
 1006MOL0     C35696   1.241   7.488   3.561  0.8413 -0.4946  0.1536
 1006MOL0     C35697   1.182   7.388   3.449  0.3009 -0.2315 -0.7059
 1006MOL0     C35698   1.202   7.238   3.485  0.1808  0.0414 -0.5550
 1006MOL0     O35699   1.334   7.209   3.529  0.1072 -0.7037  0.3270
 1006MOL0     C35700   1.437   7.222   3.440 -0.3787 -0.1573  0.4848
 1006MOL0     C35701   1.569   7.243   3.491  1.3402 -0.1653 -0.7366
 1006MOL0     C35702   1.682   7.257   3.414  0.2712  0.0894  0.1095
 1006MOL0     C35703   1.665   7.241   3.270  0.1456 -0.1885  0.0102
 1006MOL0     C35704   1.778   7.263   3.178 -0.0969 -0.4196  0.2443
 1006MOL0     O35705   1.892   7.297   3.237  0.3838 -0.0738  0.0555
 1006MOL0     C35706   2.013   7.287   3.169  0.8908 -0.1020  0.1842
 1006MOL0     C35707   2.128   7.352   3.222 -0.8655  0.3338 -0.4477
 1006MOL0     C35708   2.259   7.334   3.163  0.6598 -0.6581  0.4026
 1006MOL0     C35709   2.281   7.265   3.048 -0.0835 -0.8912  0.5822
 1006MOL0     O35710   2.405   7.252   2.993 -0.0454  0.0900  0.2625
 1006MOL0     C35711   2.511   7.340   3.040 -0.4506  0.5979  0.2111
 1006MOL0     C35712   2.648   7.320   2.963  0.1396 -0.0145 -0.1107
 1006MOL0     C35713   2.721   7.193   3.015 -0.3737  0.3414 -0.9166
 1006MOL0     C35714   2.851   7.172   2.925  0.5821  0.0297  0.4346
 1006MOL0     C35715   2.968   7.100   2.974 -0.1393  0.3265 -0.6367
 1006MOL0     C35716   3.028   7.175   3.089  0.5194 -0.4856 -0.0341
 1006MOL0     C35717   3.158   7.103   3.141  0.4070  1.0098 -0.0441
 1006MOL0     C35718   3.123   6.981   3.233  0.5851 -0.0812 -0.0724
 1006MOL0    Cl35719   3.013   7.025   3.369  0.2062  0.0460 -0.0780
 1006MOL0     C35720   2.172   7.195   2.998  0.9487  0.2333 -0.3010
 1006MOL0     C35721   2.045   7.193   3.065  0.0187  0.0770 -0.1346
 1006MOL0     O35722   1.754   7.253   3.061 -0.3781 -0.7410  1.1163
 1006MOL0     C35723   1.537   7.214   3.220  0.8587  0.5923 -1.0110
 1006MOL0     C35724   1.427   7.209   3.304 -0.0532 -0.0426 -0.2074
 1006MOL0     N35725   1.466   7.744   3.480 -0.0421 -0.7248 -0.7769
 1006MOL0     N35726   1.580   7.737   3.424 -1.0015 -0.1363  0.1024
 1006MOL0     C35727   2.634   7.617   3.226 -0.5763 -0.3760 -0.0245
 1006MOL0     C35728   2.771   7.581   3.226 -0.1767 -0.2959 -0.9500
 1006MOL0     C35729   3.207   7.479   3.153  0.2347  0.5762 -0.0456
 1006MOL0     C35730   3.295   7.439   3.253 -0.3826 -0.4526  0.0931
 1006MOL0     C35731   3.431   7.416   3.225 -0.1212  0.2785  0.2908
 1006MOL0     C35732   3.492   7.446   3.098  0.1193 -0.4277 -0.2529
 1006MOL0     O35733   3.627   7.437   3.065  0.1277 -0.1716 -0.4378
 1006MOL0     C35734   3.705   7.359   3.152 -0.8560  0.9206  0.0853
 1006MOL0     C35735   3.827   7.300   3.075  0.1431  0.0914 -0.3553
 1006MOL0     C35736   3.911   7.404   3.002 -0.3020  0.3542  0.0017
 1006MOL0     C35737   3.989   7.500   3.093  0.0135  0.8232  0.0959
 1006MOL0     C35738   4.101   7.430   3.164 -0.1421 -0.1308  0.5348
 1006MOL0     C35739   4.208   7.393   3.210 -0.3924 -0.4902  0.4409
 1006MOL0     C35740   3.402   7.500   3.003  0.7335 -0.1013 -0.5405
 1006MOL0     C35741   3.258   7.512   3.019 -0.7820 -0.5364  0.1679
 1006MOL0     C35742   3.174   7.560   2.903 -0.5297 -0.5415  0.1223
 1006MOL0     H35743   2.850   7.644   2.911 -0.0338 -3.4875  0.5757
 1006MOL0     H35744   2.612   7.732   2.909  0.5152 -0.7684 -1.3751
 1006MOL0     H35745   2.460   7.915   3.125 -1.4788  0.3422  0.5079
 1006MOL0     H35746   2.433   7.845   2.968  3.7948 -0.3714  0.3071
 1006MOL0     H35747   2.226   7.924   3.039 -1.5818  0.3110  1.0565
 1006MOL0     H35748   2.240   7.879   3.204 -1.1547 -0.3612 -0.0481
 1006MOL0     H35749   2.202   7.644   3.142 -3.1644 -0.9864 -0.2876
 1006MOL0     H35750   2.214   7.673   2.968  0.5481  2.4587 -1.2432
 1006MOL0     H35751   2.020   7.824   3.132 -1.5668 -1.6999  0.5581
 1006MOL0     H35752   2.002   7.797   2.960 -2.8570 -2.2443 -0.5888
 1006MOL0     H35753   2.004   7.549   2.997  0.5259 -0.3282  0.3563
 1006MOL0     H35754   1.970   7.576   3.164 -1.2825 -3.0440 -0.4669
 1006MOL0     H35755   1.791   7.703   2.950 -1.4289 -0.6769 -1.8133
 1006MOL0     H35756   1.766   7.543   3.001  0.8919 -0.6839 -0.0320
 1006MOL0     H35757   1.633   7.730   3.116  1.4835  0.4353 -1.8371
 1006MOL0     H35758   1.780   7.782   3.194  2.2666 -0.5284 -1.6440
 1006MOL0     H35759   1.697   7.497   3.242 -0.5948 -0.3442  1.6798
 1006MOL0     H35760   1.793   7.605   3.335 -1.8082 -0.0514  1.8611
 1006MOL0     H35761   1.423   7.457   3.325 -2.1376  1.0740 -0.1585
 1006MOL0     H35762   1.247   7.688   3.584 -1.8068 -1.8957  0.3853
 1006MOL0     H35763   1.177   7.644   3.425 -0.2203  0.4528 -0.2347
 1006MOL0     H35764   1.338   7.452   3.596  1.7713 -0.4977 -2.2380
 1006MOL0     H35765   1.165   7.494   3.639 -1.8078 -0.7024 -2.2134
 1006MOL0     H35766   1.234   7.411   3.356 -1.0700 -0.1928 -1.5027
 1006MOL0     H35767   1.075   7.408   3.438  0.1900 -1.2585 -1.6703
 1006MOL0     H35768   1.172   7.171   3.404  1.0746 -1.4901  0.3498
 1006MOL0     H35769   1.128   7.210   3.561 -0.8371 -0.3005 -1.6491
 1006MOL0     H35770   1.580   7.250   3.598  0.8805  0.6802 -0.7389
 1006MOL0     H35771   1.777   7.259   3.466  0.4232  0.5860 -0.1861
 1006MOL0     H35772   2.111   7.418   3.306 -0.6740 -0.3936  0.1720
 1006MOL0     H35773   2.333   7.402   3.203 -0.1314  0.3195  0.2395
 1006MOL0     H35774   2.482   7.445   3.032  2.4838  1.4300 -0.9069
 1006MOL0     H35775   2.533   7.317   3.145 -0.6053  2.3781  0.6696
 1006MOL0     H35776   2.625   7.301   2.858  0.4158 -2.2434  0.1946
 1006MOL0     H35777   2.712   7.409   2.971  3.3251 -2.0898 -0.6767
 1006MOL0     H35778   2.756   7.210   3.117  2.1291 -3.4837 -0.9662
 1006MOL0     H35779   2.650   7.111   3.004  1.3639 -1.0308 -2.4781
 1006MOL0     H35780   2.895   7.270   2.906  1.2945  0.4971  3.8550
 1006MOL0     H35781   2.815   7.125   2.833  0.8214 -0.2228  0.4686
 1006MOL0     H35782   3.049   7.081   2.902 -0.8191  0.0531 -1.3399
 1006MOL0     H35783   2.938   7.000   3.005  3.4068 -0.9948 -1.0521
 1006MOL0     H35784   3.058   7.273   3.050 -2.0746  1.0057  1.4239
 1006MOL0     H35785   2.966   7.200   3.175 -0.3868 -0.1148 -0.7785
 1006MOL0     H35786   3.235   7.169   3.182  1.6162  0.1602 -0.8679
 1006MOL0     H35787   3.210   7.056   3.057 -2.3257 -1.2066 -0.6309
 1006MOL0     H35788   3.079   6.909   3.162  1.8025 -0.3934 -0.5431
 1006MOL0     H35789   3.210   6.926   3.269 -0.7804 -2.5386 -0.2851
 1006MOL0     H35790   2.197   7.129   2.915  5.6658 -0.9556  1.7383
 1006MOL0     H35791   1.970   7.119   3.037 -0.8733  1.8561 -2.8188
 1006MOL0     H35792   1.529   7.190   3.114  2.9460 -0.6016 -0.9480
 1006MOL0     H35793   1.347   7.159   3.251  2.9259 -2.1017 -3.1977
 1006MOL0     H35794   2.569   7.587   3.307 -1.7454  1.0434 -0.4126
 1006MOL0     H35795   2.820   7.560   3.320  1.1069 -2.0883 -1.9670
 1006MOL0     H35796   3.263   7.409   3.352  0.5637 -1.6376  0.0676
 1006MOL0     H35797   3.491   7.390   3.312  2.8790  1.0131 -1.3825
 1006MOL0     H35798   3.646   7.278   3.196 -0.5082  2.1536  3.1176
 1006MOL0     H35799   3.734   7.422   3.236 -2.1933 -1.8027  2.8084
 1006MOL0     H35800   3.786   7.238   2.995 -0.1245 -0.6269  0.3280
 1006MOL0     H35801   3.889   7.232   3.133 -0.0727  0.0277 -0.2002
 1006MOL0     H35802   3.835   7.459   2.946 -1.3135  0.3566  1.3343
 1006MOL0     H35803   3.982   7.344   2.944  0.7018 -1.7511  3.1246
 1006MOL0     H35804   4.031   7.574   3.023  2.5429 -1.2987 -0.7757
 1006MOL0     H35805   3.917   7.552   3.156 -1.7116  3.2701 -3.4971
 1006MOL0     H35806   4.297   7.363   3.263 -2.2907 -1.8658  3.0836
 1006MOL0     H35807   3.462   7.503   2.912  0.9840 -2.4728 -0.4997
 1006MOL0     H35808   3.239   7.590   2.820  0.5793  0.7987  1.4238
 1006MOL0     H35809   3.085   7.503   2.874 -0.9374  1.0011 -1.8667
 1006MOL0     H35810   3.131   7.655   2.935  0.6761  1.0680 -2.6360
 1007MOL0     O35811   9.246   5.536  10.533 -0.2380 -0.3886  0.1278
 1007MOL0     C35812   9.273   5.472  10.628  0.1671 -0.9554  1.3742
 1007MOL0     O35813   9.189   5.435  10.726  0.4640  0.8322  0.1961
 1007MOL0     C35814   9.051   5.455  10.731 -0.6968 -0.4249  1.0003
 1007MOL0     C35815   8.984   5.561  10.663 -0.2282  1.1808  0.5237
 1007MOL0     C35816   8.844   5.561  10.676  0.6283 -0.4518  1.0561
 1007MOL0     C35817   8.772   5.466  10.753  0.1034 -0.3902  0.6452
 1007MOL0     O35818   8.633   5.486  10.742  0.3873 -0.0146  0.1478
 1007MOL0     C35819   8.553   5.404  10.832 -0.5778 -0.4557  0.6874
 1007MOL0     C35820   8.411   5.434  10.787  0.6617 -0.0293  0.7246
 1007MOL0     C35821   8.306   5.358  10.870 -0.4065  0.6161  0.5891
 1007MOL0     C35822   8.172   5.375  10.798 -0.2988 -0.7942 -0.1819
 1007MOL0     C35823   8.054   5.302  10.869  0.3994 -0.1768  0.2054
 1007MOL0     C35824   7.923   5.307  10.792  0.1674 -0.7771 -0.0874
 1007MOL0     C35825   7.847   5.439  10.819  0.1068 -0.5550 -0.1971
 1007MOL0     C35826   7.704   5.423  10.789 -0.1514 -0.4972  0.2940
 1007MOL0     N35827   7.638   5.560  10.780  0.5712  0.0644 -0.4157
 1007MOL0     C35828   7.619   5.646  10.667  0.4100  0.0742  0.5856
 1007MOL0     C35829   7.552   5.757  10.714  0.3881 -0.2395 -0.5763
 1007MOL0     C35830   7.515   5.881  10.635 -0.1015 -0.3398  0.6298
 1007MOL0     C35831   7.559   6.006  10.715  0.2333  0.0745  0.2043
 1007MOL0     C35832   7.689   6.063  10.658  0.4666  0.1042  0.0135
 1007MOL0     C35833   7.818   5.993  10.697 -0.8464 -0.3266 -0.2016
 1007MOL0     O35834   7.813   5.969  10.838 -0.8905  0.8247 -0.7871
 1007MOL0     C35835   7.934   5.917  10.883 -0.1078  0.3641  0.7143
 1007MOL0     C35836   8.035   6.010  10.901  0.2455 -0.2554 -0.1953
 1007MOL0     C35837   8.156   5.965  10.957  0.3534 -0.2705 -0.3439
 1007MOL0     C35838   8.176   5.835  10.993  0.5165 -0.2083  0.1247
 1007MOL0     C35839   8.309   5.778  11.050  0.4131  0.5629  0.6865
 1007MOL0     O35840   8.416   5.857  11.066  0.1993  0.1671  0.0287
 1007MOL0     C35841   8.543   5.810  11.093  0.6560 -0.5697 -0.5680
 1007MOL0     C35842   8.622   5.898  11.166  0.5372  0.2057  0.7973
 1007MOL0     C35843   8.758   5.875  11.196 -0.4956 -0.1098  0.5053
 1007MOL0     C35844   8.799   5.745  11.164  0.6502 -0.2085 -0.6202
 1007MOL0     O35845   8.924   5.722  11.193 -0.4869 -0.3282 -0.5206
 1007MOL0     C35846   8.988   5.598  11.182  0.1545 -0.4696 -0.6007
 1007MOL0     C35847   9.131   5.609  11.238 -0.2321 -0.7592  0.7732
 1007MOL0     C35848   9.192   5.473  11.225  0.4431  0.5318 -0.2951
 1007MOL0     C35849   9.335   5.475  11.284 -0.2679 -0.3968  0.1416
 1007MOL0     C35850   9.387   5.334  11.320 -0.5453 -1.0159 -0.1956
 1007MOL0     C35851   9.448   5.274  11.196 -0.3351 -0.0946  0.1270
 1007MOL0     C35852   9.459   5.125  11.230  0.4505 -0.2533  0.1839
 1007MOL0     C35853   9.333   5.045  11.266 -0.4630 -0.3788 -0.4165
 1007MOL0    Cl35854   9.198   5.083  11.154 -0.0737  0.1657  0.2297
 1007MOL0     C35855   8.710   5.650  11.101 -0.2769  1.2405 -0.3167
 1007MOL0     C35856   8.585   5.682  11.063  0.8893  0.3309 -0.0961
 1007MOL0     O35857   8.301   5.661  11.083  0.9493  0.3658  0.0743
 1007MOL0     C35858   8.064   5.746  10.987 -0.3730 -0.2111 -0.1480
 1007MOL0     C35859   7.946   5.792  10.939 -0.1846  1.0740  0.3630
 1007MOL0     N35860   7.536   5.746  10.853  0.4608  0.3111 -0.3744
 1007MOL0     N35861   7.590   5.638  10.891 -0.0427 -0.0773  0.4012
 1007MOL0     C35862   8.836   5.357  10.810 -1.1840  0.9485  0.6263
 1007MOL0     C35863   8.974   5.347  10.798 -0.0432  0.4182  0.9827
 1007MOL0     C35864   9.417   5.437  10.645 -0.7134  0.5613 -0.4333
 1007MOL0     C35865   9.509   5.494  10.552  0.4000  0.2169 -0.8360
 1007MOL0     C35866   9.644   5.459  10.572  0.5381  0.3346  0.7946
 1007MOL0     C35867   9.686   5.371  10.672  0.6150 -1.2769  0.5693
 1007MOL0     O35868   9.819   5.340  10.684  0.5738  1.5510  0.4633
 1007MOL0     C35869   9.890   5.262  10.580  0.2393 -0.0271 -1.2700
 1007MOL0     C35870  10.024   5.318  10.565 -0.8374 -0.4705  0.0535
 1007MOL0     C35871  10.101   5.293  10.693  1.1364 -0.0402  0.6635
 1007MOL0     C35872  10.236   5.355  10.677 -0.0297 -0.0315 -0.0841
 1007MOL0     C35873  10.297   5.354  10.809  0.0331 -0.4887  0.3676
 1007MOL0     C35874  10.329   5.373  10.925  0.4971  0.4944  0.8656
 1007MOL0     C35875   9.595   5.316  10.754 -0.1615  0.3884 -0.3131
 1007MOL0     C35876   9.464   5.346  10.743  0.6416 -0.9061  0.3379
 1007MOL0     C35877   9.372   5.276  10.842  0.9520  0.1030 -0.2039
 1007MOL0     H35878   9.042   5.634  10.607  2.3384 -0.7854  0.4223
 1007MOL0     H35879   8.786   5.640  10.629 -2.5295 -0.9215  3.8449
 1007MOL0     H35880   8.567   5.297  10.814  2.2503 -0.5777  2.9173
 1007MOL0     H35881   8.570   5.419  10.939  3.9835  1.3132 -0.0704
 1007MOL0     H35882   8.395   5.401  10.684 -2.9470 -0.1265  1.1673
 1007MOL0     H35883   8.379   5.538  10.790 -0.3487 -0.1847 -1.8084
 1007MOL0     H35884   8.301   5.391  10.975  1.6493 -0.6757  1.1458
 1007MOL0     H35885   8.331   5.252  10.868  0.6143  0.8559 -1.2377
 1007MOL0     H35886   8.154   5.481  10.780 -0.1800 -0.6961  0.2696
 1007MOL0     H35887   8.196   5.329  10.701 -0.6064 -1.0045 -0.1597
 1007MOL0     H35888   8.094   5.200  10.881  1.8188  0.2402 -0.7099
 1007MOL0     H35889   8.045   5.339  10.972 -0.4671  3.2674 -0.9905
 1007MOL0     H35890   7.942   5.284  10.687 -1.0110 -2.7901  0.0808
 1007MOL0     H35891   7.857   5.226  10.828 -1.8412  1.5160  1.7376
 1007MOL0     H35892   7.896   5.514  10.756 -0.8820  0.3373  0.0620
 1007MOL0     H35893   7.852   5.478  10.922 -1.3497  0.9699 -0.6446
 1007MOL0     H35894   7.699   5.365  10.697  0.1778 -0.9890  0.5829
 1007MOL0     H35895   7.647   5.364  10.861 -2.1235  0.2495 -0.5874
 1007MOL0     H35896   7.645   5.622  10.564 -4.9740 -0.3303 -1.0443
 1007MOL0     H35897   7.564   5.878  10.537  0.7271 -1.1860  1.0580
 1007MOL0     H35898   7.410   5.876  10.603  0.3182 -0.7686 -0.7761
 1007MOL0     H35899   7.476   6.074  10.695 -0.7603 -0.1851  2.9827
 1007MOL0     H35900   7.557   5.997  10.824 -4.1410  5.1855  0.9291
 1007MOL0     H35901   7.696   6.166  10.695  0.0540  1.1649 -2.6263
 1007MOL0     H35902   7.684   6.075  10.549  0.2948  1.3077  0.1345
 1007MOL0     H35903   7.896   6.069  10.684  1.8917 -2.9808 -0.4849
 1007MOL0     H35904   7.832   5.901  10.640  2.2892  0.4239 -0.8195
 1007MOL0     H35905   8.020   6.113  10.868 -1.6267 -1.2259 -2.6997
 1007MOL0     H35906   8.241   6.028  10.982 -2.6927  3.4435  1.6985
 1007MOL0     H35907   8.574   5.993  11.185 -0.7744 -0.7914  2.8005
 1007MOL0     H35908   8.825   5.948  11.239 -0.5343  0.1318  0.1593
 1007MOL0     H35909   8.937   5.520  11.239  0.8587 -0.5773 -0.0961
 1007MOL0     H35910   8.988   5.567  11.077  0.7183  1.7186 -1.3132
 1007MOL0     H35911   9.193   5.678  11.181 -1.3966  0.7074  1.2271
 1007MOL0     H35912   9.125   5.640  11.343 -1.7506  3.0297 -0.2756
 1007MOL0     H35913   9.135   5.399  11.282  2.3120 -0.4318  0.4041
 1007MOL0     H35914   9.202   5.440  11.121  0.1775 -0.1258 -0.1135
 1007MOL0     H35915   9.336   5.531  11.378  5.3175 -0.4126  0.4359
 1007MOL0     H35916   9.404   5.525  11.216  0.1179 -3.4714 -1.8889
 1007MOL0     H35917   9.301   5.276  11.353 -1.2683  0.0656 -0.1163
 1007MOL0     H35918   9.459   5.324  11.403 -2.6172 -1.2778  1.6559
 1007MOL0     H35919   9.381   5.289  11.111  0.5713  0.8273 -0.4477
 1007MOL0     H35920   9.549   5.310  11.174  0.5983 -3.2609 -1.3835
 1007MOL0     H35921   9.533   5.123  11.310  1.7157 -1.5994 -0.9471
 1007MOL0     H35922   9.494   5.068  11.143  3.1772 -0.3773  1.2518
 1007MOL0     H35923   9.366   4.941  11.259  2.0841  0.2227  1.2843
 1007MOL0     H35924   9.302   5.060  11.369 -1.3121  0.8794 -0.8244
 1007MOL0     H35925   8.746   5.548  11.088  0.2804  1.4437 -0.4227
 1007MOL0     H35926   8.516   5.608  11.022  1.0362 -0.2052  0.5974
 1007MOL0     H35927   8.070   5.643  11.021  1.2068 -0.5329 -1.2930
 1007MOL0     H35928   7.865   5.720  10.928  1.2126 -0.7997  1.5934
 1007MOL0     H35929   8.784   5.275  10.856 -0.3843  0.2799  0.3598
 1007MOL0     H35930   9.027   5.264  10.844  0.6214  0.9044  1.1104
 1007MOL0     H35931   9.471   5.565  10.480 -2.0254  1.9580  1.9453
 1007MOL0     H35932   9.714   5.498  10.500  0.4727  2.5689  1.8490
 1007MOL0     H35933   9.842   5.253  10.482 -0.0682 -1.2072 -1.0204
 1007MOL0     H35934   9.894   5.161  10.620 -1.8783  0.1438 -0.4799
 1007MOL0     H35935  10.015   5.426  10.551 -0.6793 -0.2946  1.1862
 1007MOL0     H35936  10.068   5.271  10.477 -0.0433  0.7569 -0.2329
 1007MOL0     H35937  10.108   5.185  10.709 -0.6224 -0.3042 -0.0310
 1007MOL0     H35938  10.043   5.337  10.774  0.9955  1.4567 -0.2115
 1007MOL0     H35939  10.294   5.295  10.605 -0.0726  1.6638 -1.6142
 1007MOL0     H35940  10.229   5.455  10.633  0.0847  0.6416  1.4006
 1007MOL0     H35941  10.342   5.384  11.031  1.8635  1.6969  0.6125
 1007MOL0     H35942   9.620   5.241  10.828  1.0587  1.2725  0.1987
 1007MOL0     H35943   9.312   5.353  10.891  2.3681  0.8158  0.4783
 1007MOL0     H35944   9.304   5.207  10.793 -0.0661  1.0238 -0.1115
 1007MOL0     H35945   9.425   5.222  10.921 -2.5375 -0.5796  1.8588
 1008MOL0     O35946   8.705   0.336  10.536 -0.3463 -0.4966  0.3172
 1008MOL0     C35947   8.659   0.251  10.611  0.1120  0.3601  0.5090
 1008MOL0     O35948   8.737   0.164  10.689 -0.0325  0.0169 -0.1517
 1008MOL0     C35949   8.868   0.201  10.722 -0.6904 -0.2822  0.0101
 1008MOL0     C35950   8.889   0.300  10.815  0.2445 -1.2163  0.5386
 1008MOL0     C35951   9.027   0.329  10.847 -0.3242  0.1119 -0.1381
 1008MOL0     C35952   9.135   0.259  10.776 -0.2202 -0.0286 -0.5994
 1008MOL0     O35953   9.277   0.266  10.804 -0.3401  0.9223  0.5031
 1008MOL0     C35954   9.295   0.381  10.890 -0.5488  0.0671 -0.6083
 1008MOL0     C35955   9.440   0.406  10.940 -0.4104  0.1818 -0.4403
 1008MOL0     C35956   9.516   0.278  10.985 -0.7433 -0.3272 -0.7585
 1008MOL0     C35957   9.656   0.314  11.044 -0.2254 -0.6587 -0.2108
 1008MOL0     C35958   9.740   0.194  11.089  0.4188  0.1892  0.4232
 1008MOL0     C35959   9.872   0.231  11.160 -0.5718  0.0476 -0.0053
 1008MOL0     C35960   9.984   0.269  11.066 -0.7057  1.1811  0.1755
 1008MOL0     C35961  10.107   0.321  11.138 -0.0865  0.3278  0.3325
 1008MOL0     N35962  10.190   0.217  11.199  0.1713  0.2064 -0.4448
 1008MOL0     C35963  10.296   0.156  11.132  0.9872 -0.0577  0.7429
 1008MOL0     C35964  10.337   0.063  11.216 -0.1979 -0.1466  0.5994
 1008MOL0     C35965  10.448  -0.034  11.182 -0.0723 -0.2507 -0.0625
 1008MOL0     C35966  10.568   0.043  11.116 -0.9753 -0.4900 -0.2327
 1008MOL0     C35967  10.698  -0.019  11.159  0.1344  0.0362  0.4935
 1008MOL0     C35968  10.733  -0.161  11.108 -0.6414 -0.4147 -0.5933
 1008MOL0     O35969  10.719  -0.165  10.961  0.2422  0.6006 -0.4178
 1008MOL0     C35970  10.821  -0.227  10.895 -1.0498  0.3938 -0.2419
 1008MOL0     C35971  10.958  -0.190  10.898 -0.7059  0.0663 -0.6972
 1008MOL0     C35972  11.047  -0.245  10.809 -0.1326 -1.0484  0.6664
 1008MOL0     C35973  11.008  -0.341  10.717  0.1417  0.6217 -0.5068
 1008MOL0     C35974  11.111  -0.388  10.618 -0.7445  1.1717 -0.4351
 1008MOL0     O35975  11.244  -0.350  10.640 -0.2397  0.1855 -0.6316
 1008MOL0     C35976  11.340  -0.387  10.548  0.0667  0.0854 -0.1649
 1008MOL0     C35977  11.338  -0.376  10.410  0.0745  0.1968 -0.1015
 1008MOL0     C35978  11.452  -0.402  10.332  0.2046 -0.5892 -0.3889
 1008MOL0     C35979  11.578  -0.423  10.393  0.4132  0.3909  0.0909
 1008MOL0     O35980  11.701  -0.442  10.329 -0.0474  0.0887  0.5789
 1008MOL0     C35981  11.705  -0.459  10.181  0.7628 -0.0956  0.0477
 1008MOL0     C35982  11.826  -0.546  10.135 -0.8936  0.2437 -0.9011
 1008MOL0     C35983  11.958  -0.465  10.149  0.6121  0.4639 -0.4268
 1008MOL0     C35984  12.089  -0.544  10.110 -0.2769 -0.0475 -0.6901
 1008MOL0     C35985  12.200  -0.428  10.091 -0.2859  0.0538  0.8731
 1008MOL0     C35986  12.337  -0.496  10.079 -0.3156 -0.0434 -0.3015
 1008MOL0     C35987  12.447  -0.396  10.042  0.6224 -1.3418  0.0019
 1008MOL0     C35988  12.581  -0.461  10.022 -0.6840  0.0083  0.1169
 1008MOL0    Cl35989  12.595  -0.544   9.870  0.2988 -0.5990  0.0513
 1008MOL0     C35990  11.579  -0.434  10.535  0.1167  0.4636  0.1650
 1008MOL0     C35991  11.462  -0.426  10.600  0.6125 -1.0326 -0.6101
 1008MOL0     O35992  11.072  -0.444  10.519  0.3855  0.4883 -0.2002
 1008MOL0     C35993  10.873  -0.381  10.704  0.2185 -0.1827 -0.2355
 1008MOL0     C35994  10.774  -0.325  10.799 -0.3883  0.2029  0.6573
 1008MOL0     N35995  10.262   0.073  11.328  0.3905 -0.2926  0.6511
 1008MOL0     N35996  10.163   0.156  11.314  0.0952 -0.0752  0.3365
 1008MOL0     C35997   9.106   0.171  10.678 -0.0100  0.4464 -0.3107
 1008MOL0     C35998   8.974   0.137  10.658  0.6161 -0.0388  0.3070
 1008MOL0     C35999   8.510   0.224  10.610  0.2489  0.0903  0.2104
 1008MOL0     C36000   8.476   0.093  10.656  0.0461 -0.1214 -0.3265
 1008MOL0     C36001   8.348   0.050  10.647 -0.6216  0.2642  0.5289
 1008MOL0     C36002   8.247   0.127  10.605  0.2054  0.1406 -1.0856
 1008MOL0     O36003   8.119   0.069  10.619 -0.3637 -0.4611 -1.0175
 1008MOL0     C36004   8.013   0.160  10.630  0.3986 -0.4159  0.4599
 1008MOL0     C36005   7.896   0.077  10.666 -0.6617  0.1581  0.4174
 1008MOL0     C36006   7.776   0.155  10.709  0.8730  0.6086 -0.1118
 1008MOL0     C36007   7.650   0.071  10.715 -0.3355  0.7583  0.1673
 1008MOL0     C36008   7.528   0.152  10.728  0.1579 -0.1791 -0.2303
 1008MOL0     C36009   7.437   0.227  10.745 -0.3437 -0.0956 -0.6317
 1008MOL0     C36010   8.274   0.249  10.559  0.2195 -0.2751  0.2836
 1008MOL0     C36011   8.403   0.313  10.572 -0.2381 -0.7302 -0.0616
 1008MOL0     C36012   8.418   0.449  10.529  1.1685  0.2307  0.6359
 1008MOL0     H36013   8.809   0.349  10.871 -0.1086 -0.0111 -0.9520
 1008MOL0     H36014   9.048   0.410  10.916  2.6731  2.1872 -3.1772
 1008MOL0     H36015   9.265   0.470  10.834  0.4710 -1.0958 -3.1810
 1008MOL0     H36016   9.245   0.372  10.987  1.3257  0.4736  0.4422
 1008MOL0     H36017   9.442   0.478  11.023  2.1048 -2.2550  1.8188
 1008MOL0     H36018   9.492   0.446  10.853 -2.9702  0.5108 -1.9003
 1008MOL0     H36019   9.526   0.205  10.904  0.0349 -0.8103 -0.2409
 1008MOL0     H36020   9.460   0.230  11.066  0.5231 -0.0523  0.3095
 1008MOL0     H36021   9.710   0.375  10.970  0.8492  2.5037  2.8691
 1008MOL0     H36022   9.646   0.388  11.124  0.8922 -1.4830  0.7261
 1008MOL0     H36023   9.676   0.144  11.162 -5.1732  4.4892 -0.8082
 1008MOL0     H36024   9.765   0.121  11.012  0.8444 -0.2202  0.9446
 1008MOL0     H36025   9.860   0.310  11.235  2.8321  2.0253 -1.3410
 1008MOL0     H36026   9.906   0.137  11.205  0.6006 -0.4169 -1.7356
 1008MOL0     H36027   9.958   0.348  10.996  1.7247  0.1227 -2.0665
 1008MOL0     H36028  10.006   0.181  11.004 -1.6818  0.5488  0.6918
 1008MOL0     H36029  10.171   0.367  11.062 -1.4452 -0.8189 -1.6079
 1008MOL0     H36030  10.071   0.394  11.211  1.3031  1.3219  0.0614
 1008MOL0     H36031  10.336   0.183  11.034 -0.2130  1.7100  0.6951
 1008MOL0     H36032  10.475  -0.080  11.277 -0.4445  0.1229  0.2295
 1008MOL0     H36033  10.413  -0.112  11.114 -2.8961  0.3657  0.5256
 1008MOL0     H36034  10.565   0.043  11.007  2.0495 -2.8140 -0.4553
 1008MOL0     H36035  10.566   0.147  11.152 -1.5662 -0.6911  0.3264
 1008MOL0     H36036  10.704  -0.021  11.268  3.0499  0.7069  0.4416
 1008MOL0     H36037  10.763   0.059  11.118 -0.4712 -1.7406 -4.6381
 1008MOL0     H36038  10.668  -0.234  11.158 -0.8380  0.4209  0.3873
 1008MOL0     H36039  10.839  -0.180  11.130 -0.9724  0.4294  1.9415
 1008MOL0     H36040  10.994  -0.116  10.968 -0.9600 -2.1253  1.9202
 1008MOL0     H36041  11.148  -0.204  10.806 -0.4902 -0.2086 -1.8010
 1008MOL0     H36042  11.251  -0.343  10.355  1.2852  3.5788 -0.2736
 1008MOL0     H36043  11.442  -0.387  10.224  1.3447 -3.0784 -0.9073
 1008MOL0     H36044  11.614  -0.517  10.160  0.6201 -0.6874  2.0341
 1008MOL0     H36045  11.707  -0.365  10.127 -0.5705  1.0597  1.8853
 1008MOL0     H36046  11.827  -0.643  10.185  1.4133  1.1941  1.0567
 1008MOL0     H36047  11.819  -0.557  10.026 -1.3525  0.3609 -0.8851
 1008MOL0     H36048  11.952  -0.385  10.074  0.4796 -1.2093 -2.2794
 1008MOL0     H36049  11.967  -0.415  10.246 -1.8318  0.0750  0.0782
 1008MOL0     H36050  12.067  -0.596  10.016  2.7565 -1.6850 -0.6229
 1008MOL0     H36051  12.115  -0.620  10.184 -1.6641  0.0267 -0.0923
 1008MOL0     H36052  12.211  -0.355  10.171  0.0836 -0.0340  0.9027
 1008MOL0     H36053  12.181  -0.376   9.997  0.2317  2.5955  2.0803
 1008MOL0     H36054  12.353  -0.552  10.171  0.6342 -1.1061 -1.0835
 1008MOL0     H36055  12.338  -0.564   9.993 -1.6247  2.7377 -2.7135
 1008MOL0     H36056  12.454  -0.327  10.126 -0.4002 -1.8471  0.5198
 1008MOL0     H36057  12.425  -0.336   9.953  1.6437  1.4523  1.5335
 1008MOL0     H36058  12.656  -0.383  10.041 -0.9933  1.1178 -2.7227
 1008MOL0     H36059  12.595  -0.546  10.089 -0.4372 -2.9335 -3.3760
 1008MOL0     H36060  11.674  -0.458  10.580  1.5322  2.7581 -1.4271
 1008MOL0     H36061  11.468  -0.435  10.708  0.0567  1.1035 -0.3442
 1008MOL0     H36062  10.843  -0.446  10.623 -2.6169 -1.2570  1.4906
 1008MOL0     H36063  10.668  -0.344  10.808 -0.3192 -0.3595  0.3480
 1008MOL0     H36064   9.177   0.122  10.613 -0.1034  0.2204 -0.2428
 1008MOL0     H36065   8.951   0.065  10.580 -1.3104  2.6860 -1.8187
 1008MOL0     H36066   8.549   0.030  10.706 -1.6941 -1.9438  0.0704
 1008MOL0     H36067   8.311  -0.045  10.685 -2.7069  0.9502  0.3483
 1008MOL0     H36068   7.996   0.215  10.537  0.3697  0.2725  0.8650
 1008MOL0     H36069   8.023   0.221  10.720 -1.0558 -1.9755  1.7525
 1008MOL0     H36070   7.933   0.018  10.750 -0.9309 -3.0539 -1.5580
 1008MOL0     H36071   7.875   0.001  10.590 -2.4861  0.4979  0.5340
 1008MOL0     H36072   7.756   0.235  10.636  1.1150  1.8849  1.1731
 1008MOL0     H36073   7.804   0.201  10.804  2.4175 -3.3422  1.5586
 1008MOL0     H36074   7.640   0.013  10.623 -4.6694  0.3154  0.7074
 1008MOL0     H36075   7.658   0.001  10.799  0.4683  2.6664  1.7580
 1008MOL0     H36076   7.353   0.292  10.758 -0.3378 -0.4946  1.7688
 1008MOL0     H36077   8.191   0.309  10.524  0.9677  1.4126  1.2578
 1008MOL0     H36078   8.521   0.485  10.521  0.5159  2.5580  1.6900
 1008MOL0     H36079   8.365   0.455  10.433  6.0240 -3.7242 -2.8402
 1008MOL0     H36080   8.369   0.513  10.602  2.0192  0.7596  0.7556
 1009MOL0     O36081   2.429   4.040  11.231  0.5462  0.8804  0.2666
 1009MOL0     C36082   2.338   4.001  11.309 -0.0754  0.9496 -0.0588
 1009MOL0     O36083   2.365   3.918  11.418  0.8669  0.1320 -0.5595
 1009MOL0     C36084   2.490   3.869  11.433 -0.1525  0.2041 -0.2999
 1009MOL0     C36085   2.562   3.793  11.334  0.0334 -0.7897  0.2903
 1009MOL0     C36086   2.691   3.742  11.356 -0.5791 -0.8341 -0.7978
 1009MOL0     C36087   2.751   3.759  11.487  0.7185 -0.2701 -0.5084
 1009MOL0     O36088   2.878   3.733  11.517 -0.5397 -0.1715 -0.4501
 1009MOL0     C36089   2.973   3.774  11.417  0.1517 -0.7865  0.0113
 1009MOL0     C36090   3.052   3.667  11.350  0.0122  0.4246 -0.6406
 1009MOL0     C36091   3.147   3.720  11.242 -0.3116  0.4913  0.7722
 1009MOL0     C36092   3.208   3.603  11.152  0.0783  1.3285 -0.2506
 1009MOL0     C36093   3.310   3.656  11.049  0.1356  0.0603  0.3446
 1009MOL0     C36094   3.366   3.527  10.966 -0.6283  0.3344 -0.0073
 1009MOL0     C36095   3.495   3.562  10.873 -0.3204 -0.1786  0.0272
 1009MOL0     C36096   3.469   3.656  10.753 -1.0745  0.6711 -1.1111
 1009MOL0     N36097   3.592   3.653  10.675  0.7249 -1.2848  0.3095
 1009MOL0     C36098   3.638   3.555  10.597  0.8377  0.9668  0.4629
 1009MOL0     C36099   3.757   3.595  10.561  0.5288 -1.0793  0.8102
 1009MOL0     C36100   3.854   3.509  10.480  0.2398 -0.8546 -0.0377
 1009MOL0     C36101   3.987   3.497  10.551  0.3916  0.2007 -0.4191
 1009MOL0     C36102   4.075   3.381  10.503  0.5611  0.0415  0.6904
 1009MOL0     C36103   4.153   3.413  10.375  1.0992  0.3912 -0.3097
 1009MOL0     O36104   4.251   3.520  10.407  0.0856  0.5289  0.1766
 1009MOL0     C36105   4.354   3.525  10.318  0.6098 -0.1424  0.3282
 1009MOL0     C36106   4.479   3.561  10.359  0.0491  0.3025 -1.0549
 1009MOL0     C36107   4.586   3.580  10.276 -0.4575  0.1599  0.5609
 1009MOL0     C36108   4.565   3.575  10.136 -0.8392  0.5672 -0.3325
 1009MOL0     C36109   4.676   3.610  10.045 -0.2672 -0.1912 -0.7064
 1009MOL0     O36110   4.793   3.678  10.094 -0.7746 -0.0963  0.1160
 1009MOL0     C36111   4.899   3.695  10.007 -0.6421  0.1531  0.1993
 1009MOL0     C36112   4.966   3.816  10.007  0.0097 -0.9888 -0.0240
 1009MOL0     C36113   5.078   3.836   9.927 -0.3624 -0.1370  0.7728
 1009MOL0     C36114   5.119   3.725   9.847  0.1419 -0.5665 -1.2108
 1009MOL0     O36115   5.208   3.741   9.749  0.3900 -0.0842  0.0641
 1009MOL0     C36116   5.217   3.858   9.673  0.2376 -0.4554 -0.2376
 1009MOL0     C36117   5.293   3.841   9.543  0.1816 -0.0813 -1.0828
 1009MOL0     C36118   5.316   3.977   9.470 -0.1592 -0.2378 -0.4487
 1009MOL0     C36119   5.384   3.948   9.335  0.6201  0.3030  0.3527
 1009MOL0     C36120   5.451   4.067   9.296 -0.0259 -1.4248 -0.7724
 1009MOL0     C36121   5.588   4.102   9.365 -0.0872 -0.0068  0.1823
 1009MOL0     C36122   5.698   3.993   9.349  0.5046 -0.7059  0.5275
 1009MOL0     C36123   5.835   4.063   9.360  0.1819  0.4124 -0.0426
 1009MOL0    Cl36124   5.869   4.156   9.214 -0.2346 -0.0344 -0.1200
 1009MOL0     C36125   5.057   3.599   9.856  0.2698 -0.0767  0.9445
 1009MOL0     C36126   4.953   3.585   9.942  0.9420 -0.0372  0.0968
 1009MOL0     O36127   4.659   3.585   9.928  0.2491  0.9896 -0.2125
 1009MOL0     C36128   4.440   3.528  10.088 -0.4165 -0.1427  0.2397
 1009MOL0     C36129   4.336   3.510  10.180  0.9602  0.1109  0.5724
 1009MOL0     N36130   3.779   3.722  10.611  0.0515 -0.4630 -0.2287
 1009MOL0     N36131   3.678   3.758  10.682  0.5480 -0.8316  0.1366
 1009MOL0     C36132   2.678   3.821  11.581 -0.3737 -0.1452  0.5664
 1009MOL0     C36133   2.550   3.880  11.554  0.3103  0.1720  0.0305
 1009MOL0     C36134   2.194   4.050  11.303  0.2088  0.1912  0.3584
 1009MOL0     C36135   2.091   3.998  11.387 -0.8327 -0.4554 -0.2299
 1009MOL0     C36136   1.955   4.041  11.381 -0.0291  0.4115 -0.4024
 1009MOL0     C36137   1.918   4.128  11.282 -0.1511  0.1909 -0.0614
 1009MOL0     O36138   1.794   4.174  11.254 -0.5209 -0.3082 -0.0113
 1009MOL0     C36139   1.692   4.158  11.349  0.4355 -0.4934  0.1802
 1009MOL0     C36140   1.573   4.248  11.312 -0.2757  0.1873  0.0783
 1009MOL0     C36141   1.540   4.260  11.166  0.1728 -0.1599  0.6636
 1009MOL0     C36142   1.394   4.294  11.138 -0.0919 -0.0516  0.2258
 1009MOL0     C36143   1.340   4.407  11.215 -0.3251  0.2291 -0.2951
 1009MOL0     C36144   1.280   4.502  11.262 -0.3901  0.1355  0.4612
 1009MOL0     C36145   2.014   4.181  11.196 -0.6473 -0.7235 -0.3862
 1009MOL0     C36146   2.144   4.146  11.209  0.2134  0.2879  0.2736
 1009MOL0     C36147   2.237   4.208  11.111 -0.3600  0.3971 -1.4215
 1009MOL0     H36148   2.514   3.775  11.238  1.6134 -1.9942 -0.3308
 1009MOL0     H36149   2.738   3.691  11.272 -0.3106 -1.7261 -0.1140
 1009MOL0     H36150   2.935   3.838  11.337 -1.4299 -0.1384  1.2202
 1009MOL0     H36151   3.048   3.840  11.463  0.2158 -1.1297  0.4115
 1009MOL0     H36152   2.987   3.598  11.295  0.6892 -0.9638  0.2583
 1009MOL0     H36153   3.110   3.609  11.422  2.9586  2.4924 -1.2070
 1009MOL0     H36154   3.231   3.769  11.292  0.6689 -1.8192  1.5453
 1009MOL0     H36155   3.101   3.792  11.174  1.1396  0.6487 -0.0886
 1009MOL0     H36156   3.256   3.530  11.219  0.6325 -0.3720 -2.3883
 1009MOL0     H36157   3.129   3.549  11.100  0.6669 -1.1266  1.1972
 1009MOL0     H36158   3.261   3.725  10.980 -1.1887 -2.7197 -1.6690
 1009MOL0     H36159   3.392   3.706  11.101 -0.0371  0.7649 -0.0462
 1009MOL0     H36160   3.396   3.453  11.041 -1.7300  1.2201  1.3610
 1009MOL0     H36161   3.292   3.488  10.897  2.3988  0.3517 -3.5868
 1009MOL0     H36162   3.527   3.462  10.840 -1.1018 -0.1333 -0.8921
 1009MOL0     H36163   3.561   3.591  10.955 -1.1395 -0.8981  0.9630
 1009MOL0     H36164   3.381   3.629  10.694 -2.0531  0.4308  0.4181
 1009MOL0     H36165   3.458   3.754  10.800  0.0592  1.1863 -1.8619
 1009MOL0     H36166   3.600   3.456  10.571  0.4272  0.8792  1.3306
 1009MOL0     H36167   3.812   3.410  10.462 -1.2839 -0.6017  1.7014
 1009MOL0     H36168   3.879   3.557  10.385 -2.5564 -0.9481 -0.9365
 1009MOL0     H36169   4.052   3.584  10.561  0.9205 -0.4607  3.5196
 1009MOL0     H36170   3.953   3.472  10.652 -0.2671  1.1776 -0.3903
 1009MOL0     H36171   4.011   3.295  10.479  0.8448 -0.0095  0.0824
 1009MOL0     H36172   4.146   3.336  10.572  1.1640 -1.5625 -0.8932
 1009MOL0     H36173   4.082   3.454  10.303 -0.0319  2.3979  1.8145
 1009MOL0     H36174   4.197   3.320  10.339 -0.7016 -1.0906  1.0957
 1009MOL0     H36175   4.488   3.595  10.462 -4.2461  1.5497 -0.9359
 1009MOL0     H36176   4.672   3.630  10.319 -1.9939  0.9355  2.8998
 1009MOL0     H36177   4.923   3.896  10.067  0.1215  0.2135 -1.4905
 1009MOL0     H36178   5.120   3.936   9.922  0.5002 -0.5414 -1.2641
 1009MOL0     H36179   5.116   3.887   9.644  0.7098  1.6685  0.0651
 1009MOL0     H36180   5.270   3.937   9.728 -0.8711 -0.0122  0.2101
 1009MOL0     H36181   5.388   3.792   9.567 -0.5503 -0.9587  0.0648
 1009MOL0     H36182   5.235   3.781   9.472 -0.5166 -0.6911 -0.0255
 1009MOL0     H36183   5.219   4.023   9.452 -0.4812 -1.5234 -2.3216
 1009MOL0     H36184   5.370   4.047   9.535 -0.0637  1.3492 -2.1612
 1009MOL0     H36185   5.317   3.920   9.253 -0.3534  0.8248  0.9472
 1009MOL0     H36186   5.458   3.869   9.351  0.8564  0.0097 -1.8867
 1009MOL0     H36187   5.383   4.152   9.293  0.1572 -1.3024 -1.5593
 1009MOL0     H36188   5.478   4.052   9.191 -1.8913 -0.7548 -1.3827
 1009MOL0     H36189   5.618   4.200   9.325 -0.9384  0.4306  0.5969
 1009MOL0     H36190   5.578   4.122   9.472  1.7943 -1.9358  0.7833
 1009MOL0     H36191   5.680   3.948   9.250  0.2868  0.2622  0.1169
 1009MOL0     H36192   5.697   3.911   9.421 -0.9871  0.0593  1.4229
 1009MOL0     H36193   5.832   4.124   9.451 -0.1561  0.8076 -0.3138
 1009MOL0     H36194   5.921   3.998   9.376  1.4329  2.2632  1.0681
 1009MOL0     H36195   5.083   3.514   9.793  0.0547 -0.2367  1.0664
 1009MOL0     H36196   4.904   3.487   9.940  0.1715  0.3053  1.1653
 1009MOL0     H36197   4.430   3.525   9.980  1.6937 -1.1946  0.0193
 1009MOL0     H36198   4.238   3.491  10.138  0.8496  1.2679  0.2815
 1009MOL0     H36199   2.725   3.841  11.676  0.1686 -0.2103  0.3167
 1009MOL0     H36200   2.504   3.935  11.636  0.2469  1.8412 -1.0815
 1009MOL0     H36201   2.115   3.931  11.469 -0.3884 -0.3259 -0.2494
 1009MOL0     H36202   1.888   4.002  11.457  0.7144 -0.4010 -0.1467
 1009MOL0     H36203   1.712   4.178  11.454 -3.5379 -0.9518  1.1938
 1009MOL0     H36204   1.663   4.053  11.338 -3.0586  0.3737 -0.0875
 1009MOL0     H36205   1.585   4.346  11.359  1.5873 -1.5081  3.5282
 1009MOL0     H36206   1.481   4.214  11.362  0.6255 -1.4812  0.6744
 1009MOL0     H36207   1.571   4.160  11.133 -1.1740 -1.1948  2.3230
 1009MOL0     H36208   1.604   4.334  11.119  1.5446 -1.1241  0.9262
 1009MOL0     H36209   1.377   4.321  11.033  4.4161  1.8975 -0.2375
 1009MOL0     H36210   1.328   4.209  11.155  0.3223 -0.4512 -0.1490
 1009MOL0     H36211   1.230   4.578  11.320  0.0815 -1.1489  2.6861
 1009MOL0     H36212   1.976   4.251  11.123  0.4443  0.4474  0.1441
 1009MOL0     H36213   2.310   4.264  11.169 -1.6401 -1.2001  1.9546
 1009MOL0     H36214   2.289   4.131  11.054 -1.5366 -1.8935  0.4655
 1009MOL0     H36215   2.184   4.270  11.038 -2.6014 -0.3400 -0.5118
 1010MOL0     O36216   8.063   9.386   0.777 -0.1040  0.5397  0.0531
 1010MOL0     C36217   7.965   9.351   0.835 -0.3255  0.1831  0.3123
 1010MOL0     O36218   7.969   9.297   0.951 -0.2525  0.4015  0.1862
 1010MOL0     C36219   8.077   9.220   0.987  0.5593  1.5646 -0.3790
 1010MOL0     C36220   8.200   9.268   1.031  0.4917  0.2717  0.8752
 1010MOL0     C36221   8.307   9.181   1.040 -0.1894 -0.7401  0.3860
 1010MOL0     C36222   8.284   9.039   1.051 -0.2835  0.0577  1.2600
 1010MOL0     O36223   8.376   8.943   1.069  0.0583  0.4560  0.1132
 1010MOL0     C36224   8.502   8.978   0.996 -0.2500 -0.0016 -0.4786
 1010MOL0     C36225   8.609   8.865   1.019 -0.1679  0.7547 -0.4001
 1010MOL0     C36226   8.730   8.889   0.933 -0.8406  0.1336  0.2400
 1010MOL0     C36227   8.851   8.840   0.999  0.0347  0.3199  0.4981
 1010MOL0     C36228   8.973   8.886   0.919 -0.4788  0.2985 -0.0942
 1010MOL0     C36229   9.106   8.870   1.001  0.8792  0.2450 -0.7613
 1010MOL0     C36230   9.228   8.910   0.912  0.0037  0.4114  0.3043
 1010MOL0     C36231   9.356   8.854   0.966 -0.0671 -0.2123  0.2781
 1010MOL0     N36232   9.368   8.713   0.935 -0.1252 -0.7821 -0.6011
 1010MOL0     C36233   9.402   8.655   0.814 -0.1619 -1.2480 -0.3552
 1010MOL0     C36234   9.423   8.524   0.831 -0.2690  0.6715  0.9713
 1010MOL0     C36235   9.472   8.416   0.743 -0.1758  0.3537 -0.7714
 1010MOL0     C36236   9.615   8.382   0.793  0.4694  0.8612  0.1482
 1010MOL0     C36237   9.627   8.288   0.910  0.5929  0.5886 -0.1975
 1010MOL0     C36238   9.765   8.245   0.946 -0.5460 -1.0371 -0.7875
 1010MOL0     O36239   9.829   8.186   0.831 -0.3525  0.6741  0.1498
 1010MOL0     C36240   9.960   8.167   0.828 -0.0539 -0.0134 -0.7382
 1010MOL0     C36241  10.048   8.185   0.942  0.4552  0.0136 -0.1738
 1010MOL0     C36242  10.187   8.168   0.924  0.0511  0.1299 -0.2246
 1010MOL0     C36243  10.239   8.137   0.796  0.4256  0.4635  0.4265
 1010MOL0     C36244  10.389   8.131   0.776 -0.5672  0.1236  0.0960
 1010MOL0     O36245  10.478   8.130   0.882  0.1706 -0.3647  0.7544
 1010MOL0     C36246  10.614   8.152   0.871  0.3095 -0.9206 -0.0888
 1010MOL0     C36247  10.678   8.103   0.986 -0.0163 -0.4140  0.5632
 1010MOL0     C36248  10.818   8.096   0.994 -0.7755  0.3602 -0.6580
 1010MOL0     C36249  10.887   8.174   0.896  0.7878 -0.6666  0.1842
 1010MOL0     O36250  11.024   8.195   0.892  0.3731 -0.1187  0.0848
 1010MOL0     C36251  11.100   8.186   1.019 -0.0147 -0.0928  0.0493
 1010MOL0     C36252  11.248   8.217   1.014 -0.6802 -0.5051 -0.5866
 1010MOL0     C36253  11.274   8.356   0.959  0.2262 -1.5531 -0.7031
 1010MOL0     C36254  11.415   8.396   0.995 -1.0268  0.7261 -0.4228
 1010MOL0     C36255  11.433   8.547   0.969  0.7037 -0.6239 -0.1785
 1010MOL0     C36256  11.575   8.589   0.981 -0.6879  0.1657 -0.5689
 1010MOL0     C36257  11.595   8.738   1.006  0.0079 -1.3254 -0.7014
 1010MOL0     C36258  11.746   8.779   1.022 -0.1333 -0.3016  0.3480
 1010MOL0    Cl36259  11.800   8.753   1.189 -0.0852 -0.0923  0.1540
 1010MOL0     C36260  10.824   8.224   0.785 -0.8016 -0.0190  0.4960
 1010MOL0     C36261  10.687   8.218   0.769 -0.1766 -0.4739 -0.1754
 1010MOL0     O36262  10.420   8.125   0.662  0.2513  0.6623 -0.0589
 1010MOL0     C36263  10.151   8.114   0.686  0.2929  0.4578  0.1111
 1010MOL0     C36264  10.020   8.129   0.706  0.0731  0.2989  0.1832
 1010MOL0     N36265   9.386   8.496   0.956  1.1599 -0.2020 -0.0081
 1010MOL0     N36266   9.357   8.602   1.013  0.1038  0.8723 -0.3305
 1010MOL0     C36267   8.156   8.995   1.035  0.7008  1.1638 -0.0737
 1010MOL0     C36268   8.055   9.080   0.992 -0.1734  0.1632  0.3252
 1010MOL0     C36269   7.838   9.403   0.775 -0.5640 -0.3160 -0.4699
 1010MOL0     C36270   7.837   9.467   0.651 -0.0049  0.0456 -0.4066
 1010MOL0     C36271   7.726   9.504   0.579  0.0225  0.5179 -1.2664
 1010MOL0     C36272   7.600   9.484   0.639  0.3606 -0.0198  0.1850
 1010MOL0     O36273   7.506   9.540   0.566 -0.0495  0.5474  0.6251
 1010MOL0     C36274   7.375   9.563   0.618  0.2159 -0.0347  0.3650
 1010MOL0     C36275   7.316   9.687   0.543  0.2048 -0.8633 -0.6197
 1010MOL0     C36276   7.167   9.707   0.570 -0.8149  0.5614 -0.6852
 1010MOL0     C36277   7.098   9.833   0.507  0.2300  0.5616 -0.5825
 1010MOL0     C36278   6.957   9.840   0.540  0.2677 -0.3748  0.3285
 1010MOL0     C36279   6.848   9.870   0.583  0.2397 -0.9907  0.6398
 1010MOL0     C36280   7.592   9.421   0.765  0.6582 -0.1556 -0.2223
 1010MOL0     C36281   7.708   9.369   0.827 -0.3070 -0.6511 -0.0327
 1010MOL0     C36282   7.684   9.308   0.966  0.0974 -0.7975 -0.8233
 1010MOL0     H36283   8.206   9.377   1.034 -4.6826  0.8549 -0.8736
 1010MOL0     H36284   8.406   9.223   1.058 -1.4691  3.0187 -0.3523
 1010MOL0     H36285   8.476   8.978   0.890 -1.1977 -1.4805 -0.2839
 1010MOL0     H36286   8.543   9.070   1.038 -2.8059  0.1387  2.0550
 1010MOL0     H36287   8.569   8.768   0.986 -2.2039  1.2390  0.4633
 1010MOL0     H36288   8.635   8.859   1.125  1.0444  0.0525 -0.7138
 1010MOL0     H36289   8.748   8.996   0.921  1.4205 -0.2907 -0.8144
 1010MOL0     H36290   8.722   8.842   0.834  1.7494  0.1865 -0.0765
 1010MOL0     H36291   8.845   8.879   1.101  2.3571 -1.0264  1.2398
 1010MOL0     H36292   8.842   8.731   0.999 -0.4053  0.3557  0.0414
 1010MOL0     H36293   8.986   8.841   0.820 -1.7054  1.8755 -1.0078
 1010MOL0     H36294   8.970   8.991   0.889 -1.1349  0.2283 -0.2732
 1010MOL0     H36295   9.097   8.934   1.089 -0.0911  0.4052 -0.9592
 1010MOL0     H36296   9.123   8.765   1.026  0.3325  0.6111  1.2732
 1010MOL0     H36297   9.237   9.018   0.893  1.6743 -0.0966 -2.3687
 1010MOL0     H36298   9.196   8.866   0.817 -2.4888  1.8071  0.4028
 1010MOL0     H36299   9.445   8.910   0.936 -0.8060  1.0309  0.3444
 1010MOL0     H36300   9.363   8.879   1.072 -0.1363  1.6148 -0.1192
 1010MOL0     H36301   9.422   8.713   0.724  0.0994  0.3289  0.6681
 1010MOL0     H36302   9.404   8.332   0.758 -0.5481  1.1023  2.2697
 1010MOL0     H36303   9.477   8.440   0.636 -0.0814  3.1686 -0.2235
 1010MOL0     H36304   9.661   8.332   0.707 -0.1843  1.9922 -0.8905
 1010MOL0     H36305   9.659   8.480   0.815 -0.6499  1.1061  1.4659
 1010MOL0     H36306   9.569   8.198   0.891 -1.1523  1.1955  1.8606
 1010MOL0     H36307   9.592   8.328   1.006  0.6543 -0.5464  0.3189
 1010MOL0     H36308   9.760   8.166   1.021 -1.0963 -1.7707 -1.5832
 1010MOL0     H36309   9.817   8.329   0.995  0.9832 -2.3881  0.0025
 1010MOL0     H36310   9.989   8.213   1.029 -3.3965 -4.4351 -0.9236
 1010MOL0     H36311  10.254   8.177   1.010 -1.4274  2.1090  0.8047
 1010MOL0     H36312  10.622   8.057   1.067 -2.1445  0.6276 -0.2405
 1010MOL0     H36313  10.870   8.054   1.079  2.3628 -0.9317 -3.0203
 1010MOL0     H36314  11.059   8.252   1.095 -0.3980 -0.9863  0.6384
 1010MOL0     H36315  11.101   8.080   1.048  0.4515 -0.0042  0.3720
 1010MOL0     H36316  11.284   8.217   1.117 -2.1847 -0.9263 -0.0450
 1010MOL0     H36317  11.311   8.146   0.959  2.2198  2.3427 -1.2986
 1010MOL0     H36318  11.271   8.355   0.849 -1.1358 -1.9667 -0.6786
 1010MOL0     H36319  11.205   8.426   1.007 -2.0884 -2.9909 -1.7627
 1010MOL0     H36320  11.479   8.344   0.922  2.7794  2.0969  1.6304
 1010MOL0     H36321  11.444   8.369   1.097 -1.2222 -1.3336 -0.8743
 1010MOL0     H36322  11.375   8.609   1.039  3.0328 -0.0773  1.3860
 1010MOL0     H36323  11.402   8.572   0.867  1.1937 -1.2151 -0.4744
 1010MOL0     H36324  11.619   8.541   1.069  2.5727 -0.8339 -2.5609
 1010MOL0     H36325  11.639   8.561   0.896 -0.9514 -2.3813 -0.0294
 1010MOL0     H36326  11.543   8.771   1.096  1.3548 -1.7460  0.2564
 1010MOL0     H36327  11.560   8.786   0.914  0.7916 -2.3928 -1.5988
 1010MOL0     H36328  11.803   8.731   0.942 -0.0114 -0.6035  0.6155
 1010MOL0     H36329  11.739   8.885   0.999 -3.2900 -0.2276  1.1658
 1010MOL0     H36330  10.890   8.272   0.714 -1.8391  1.5817  0.5522
 1010MOL0     H36331  10.647   8.263   0.679 -0.7910 -0.5110  0.0789
 1010MOL0     H36332  10.193   8.083   0.591  1.5228  2.7482 -0.1574
 1010MOL0     H36333   9.955   8.114   0.621 -1.7005  0.9858  1.3385
 1010MOL0     H36334   8.141   8.887   1.029  1.9170  1.0518 -2.0026
 1010MOL0     H36335   7.952   9.048   0.979  0.1508 -1.0678  0.5757
 1010MOL0     H36336   7.934   9.480   0.603 -0.9817  1.9823 -2.0219
 1010MOL0     H36337   7.731   9.554   0.483 -2.3148 -0.3321 -1.9020
 1010MOL0     H36338   7.378   9.576   0.727 -1.1388 -0.8360  0.5065
 1010MOL0     H36339   7.309   9.478   0.601 -1.8631  0.7413  3.6542
 1010MOL0     H36340   7.330   9.670   0.436  1.3456  2.6964 -1.1819
 1010MOL0     H36341   7.370   9.775   0.580 -0.4751 -0.2892 -0.9486
 1010MOL0     H36342   7.144   9.710   0.677 -0.5709  1.0692 -0.6442
 1010MOL0     H36343   7.123   9.615   0.529 -1.3521  0.4242  0.1624
 1010MOL0     H36344   7.154   9.921   0.540  0.0326  0.5889 -0.3198
 1010MOL0     H36345   7.106   9.832   0.398  2.5040 -0.9577 -0.4745
 1010MOL0     H36346   6.748   9.888   0.617 -0.0167  2.2419 -1.3352
 1010MOL0     H36347   7.499   9.418   0.821  1.9525  2.3535  2.3666
 1010MOL0     H36348   7.742   9.356   1.045  1.4644 -0.1827 -2.1430
 1010MOL0     H36349   7.577   9.304   0.985  0.3457  0.5440  1.1495
 1010MOL0     H36350   7.723   9.206   0.976  1.5146 -0.0502  2.7728
 1011MOL0     O36351   0.716   7.086   4.650 -0.6931  0.4030 -0.0217
 1011MOL0     C36352   0.707   7.151   4.754  0.3488  0.1717 -0.3315
 1011MOL0     O36353   0.811   7.186   4.841  0.9153  0.2094 -0.4062
 1011MOL0     C36354   0.942   7.155   4.819 -0.3220 -0.1841 -0.4171
 1011MOL0     C36355   1.036   7.250   4.865 -0.7534  0.2662 -0.2878
 1011MOL0     C36356   1.171   7.232   4.854 -0.0949  0.3010 -0.1388
 1011MOL0     C36357   1.218   7.120   4.791  0.4217 -0.0974 -0.0783
 1011MOL0     O36358   1.342   7.096   4.765  0.2804  0.2585  0.4069
 1011MOL0     C36359   1.435   7.206   4.744  0.5277  0.0049  0.0197
 1011MOL0     C36360   1.530   7.221   4.858  0.4833  0.0073 -0.4166
 1011MOL0     C36361   1.634   7.110   4.869 -0.5693  0.0053 -0.5049
 1011MOL0     C36362   1.736   7.083   4.753 -0.0589 -0.8408  0.2787
 1011MOL0     C36363   1.848   6.989   4.793 -0.0953 -0.2533 -0.5179
 1011MOL0     C36364   1.944   6.966   4.686 -0.2152  0.2124  0.2688
 1011MOL0     C36365   2.042   6.852   4.715  0.1902 -0.8030 -0.1785
 1011MOL0     C36366   2.127   6.831   4.595 -0.5544 -1.3274  0.2093
 1011MOL0     N36367   2.226   6.729   4.632 -0.9473 -0.7047  0.1432
 1011MOL0     C36368   2.218   6.621   4.721  0.2083  0.0253  0.3160
 1011MOL0     C36369   2.340   6.570   4.722  0.1400 -0.9626 -0.8260
 1011MOL0     C36370   2.379   6.449   4.791 -0.4824 -0.4290  0.0111
 1011MOL0     C36371   2.512   6.456   4.864 -0.8156 -0.4003 -0.0146
 1011MOL0     C36372   2.517   6.546   4.989 -0.3414 -0.3301 -0.3322
 1011MOL0     C36373   2.634   6.517   5.077  0.0267 -0.3053  0.0476
 1011MOL0     O36374   2.639   6.617   5.183 -0.2727  0.1466  0.5598
 1011MOL0     C36375   2.716   6.594   5.291  0.4250 -0.1692  0.6463
 1011MOL0     C36376   2.825   6.510   5.285  0.2863  0.3632 -0.0010
 1011MOL0     C36377   2.908   6.502   5.397 -0.5550  0.2408 -0.4400
 1011MOL0     C36378   2.895   6.574   5.517  0.2149 -0.0016  0.1873
 1011MOL0     C36379   2.992   6.566   5.626 -0.0079 -0.0139 -0.8705
 1011MOL0     O36380   2.951   6.593   5.756  0.5989 -0.2537 -0.0174
 1011MOL0     C36381   3.042   6.579   5.859 -0.0308 -0.7009  0.2354
 1011MOL0     C36382   3.109   6.697   5.902 -0.4199  0.3277  0.5273
 1011MOL0     C36383   3.201   6.686   6.006  1.2687  0.4523 -0.3261
 1011MOL0     C36384   3.220   6.566   6.074  0.7118 -0.1844  0.8237
 1011MOL0     O36385   3.306   6.559   6.185  0.2034 -0.8918  0.5478
 1011MOL0     C36386   3.434   6.500   6.163 -0.7131  0.3175  0.0765
 1011MOL0     C36387   3.531   6.530   6.276 -0.1035  0.3125  0.6116
 1011MOL0     C36388   3.676   6.477   6.247  0.0199 -0.1779 -0.0212
 1011MOL0     C36389   3.776   6.546   6.339 -0.2519 -0.6022  0.0165
 1011MOL0     C36390   3.921   6.519   6.293  0.2137 -0.0881  0.0014
 1011MOL0     C36391   4.022   6.563   6.397  0.5856 -0.2830  0.3090
 1011MOL0     C36392   4.171   6.533   6.365 -0.6622  0.9128  0.1293
 1011MOL0     C36393   4.207   6.391   6.391 -0.4857  0.1121 -0.2243
 1011MOL0    Cl36394   4.367   6.350   6.314 -0.0875 -0.0873 -0.0980
 1011MOL0     C36395   3.154   6.452   6.024  0.1057 -0.4952 -0.0383
 1011MOL0     C36396   3.073   6.456   5.917 -0.1352 -0.1199  0.7082
 1011MOL0     O36397   3.098   6.521   5.597 -0.4127  0.3970  0.3672
 1011MOL0     C36398   2.784   6.659   5.516  0.2755 -0.1868 -0.0095
 1011MOL0     C36399   2.691   6.665   5.408  0.4177  0.4642  0.4880
 1011MOL0     N36400   2.415   6.636   4.628  0.2898 -0.2947  0.0821
 1011MOL0     N36401   2.346   6.721   4.572 -0.4835 -0.1220 -0.4716
 1011MOL0     C36402   1.128   7.026   4.745 -0.3826  0.2613 -0.7783
 1011MOL0     C36403   0.990   7.040   4.756 -0.8517  0.0523  0.0298
 1011MOL0     C36404   0.572   7.207   4.791  0.4686  0.1210  0.5744
 1011MOL0     C36405   0.559   7.318   4.878  0.2332  0.2952  0.0662
 1011MOL0     C36406   0.433   7.365   4.900 -0.2885  0.3627 -0.8033
 1011MOL0     C36407   0.325   7.313   4.852 -0.0949  0.6585  0.8442
 1011MOL0     O36408   0.207   7.374   4.889 -0.2446  0.0107  0.6216
 1011MOL0     C36409   0.084   7.359   4.810  0.7366  0.3395 -0.3778
 1011MOL0     C36410   0.029   7.500   4.792  0.1182 -0.1607 -0.9341
 1011MOL0     C36411  -0.117   7.503   4.737 -0.2196 -0.4819  0.4170
 1011MOL0     C36412  -0.180   7.639   4.757  1.1617 -0.2888  0.8310
 1011MOL0     C36413  -0.324   7.637   4.761  0.2472 -0.5215 -0.2303
 1011MOL0     C36414  -0.442   7.648   4.770 -0.2092  0.6218 -0.9525
 1011MOL0     C36415   0.335   7.204   4.758  0.5708  0.5182 -0.6294
 1011MOL0     C36416   0.455   7.145   4.727  0.6452 -0.5822 -0.0005
 1011MOL0     C36417   0.459   7.011   4.652  0.0509 -1.1274 -0.2184
 1011MOL0     H36418   0.998   7.343   4.907 -1.1381  0.0463 -0.1520
 1011MOL0     H36419   1.234   7.309   4.898 -0.4102 -0.2418  1.3292
 1011MOL0     H36420   1.492   7.173   4.657  0.7945 -0.8618  0.5082
 1011MOL0     H36421   1.390   7.301   4.716  1.0632  0.3783  0.3975
 1011MOL0     H36422   1.484   7.232   4.956  1.4907 -1.7606  0.2922
 1011MOL0     H36423   1.589   7.311   4.842  0.4829  0.0352 -0.2582
 1011MOL0     H36424   1.588   7.016   4.900 -2.5096  0.3257 -2.1981
 1011MOL0     H36425   1.693   7.143   4.956 -1.6117 -1.6352  0.8918
 1011MOL0     H36426   1.675   7.029   4.680  0.3846 -0.4447 -0.3989
 1011MOL0     H36427   1.764   7.179   4.709  1.5089 -0.4128  2.0670
 1011MOL0     H36428   1.908   7.033   4.874  1.8614 -1.3927 -1.2763
 1011MOL0     H36429   1.803   6.894   4.825 -0.8588  0.1854 -0.2638
 1011MOL0     H36430   1.893   6.930   4.596  1.8823  0.2929 -1.0279
 1011MOL0     H36431   1.985   7.065   4.666 -0.7633  0.3610 -0.1608
 1011MOL0     H36432   1.986   6.759   4.731 -0.3606 -0.3099  0.8466
 1011MOL0     H36433   2.101   6.885   4.801 -0.7530  0.3777  0.0394
 1011MOL0     H36434   2.067   6.797   4.510 -1.8322 -0.7284  0.8336
 1011MOL0     H36435   2.182   6.924   4.580 -2.1045 -0.6202 -1.3587
 1011MOL0     H36436   2.135   6.592   4.785 -0.7822  1.3165 -0.3280
 1011MOL0     H36437   2.304   6.422   4.866 -1.6402  0.2286 -0.8753
 1011MOL0     H36438   2.384   6.365   4.722 -0.8672 -1.2138  0.9163
 1011MOL0     H36439   2.534   6.351   4.886  1.6296 -0.0439 -0.4488
 1011MOL0     H36440   2.588   6.498   4.797 -0.5448 -1.8101 -0.6248
 1011MOL0     H36441   2.428   6.514   5.044 -0.2590 -1.2871 -0.7328
 1011MOL0     H36442   2.519   6.650   4.957 -0.3436 -0.4948 -0.8763
 1011MOL0     H36443   2.724   6.523   5.016 -1.1809  1.0248 -1.7034
 1011MOL0     H36444   2.630   6.418   5.124 -4.3603  0.1279  1.0800
 1011MOL0     H36445   2.851   6.450   5.198  0.2692 -0.1757  0.3636
 1011MOL0     H36446   2.992   6.433   5.389 -1.4426 -0.7528 -1.5536
 1011MOL0     H36447   3.099   6.792   5.851  0.0905  1.4704  2.4397
 1011MOL0     H36448   3.259   6.768   6.046  2.4827  0.8738 -2.7649
 1011MOL0     H36449   3.418   6.392   6.168 -0.1082  0.2960  2.8903
 1011MOL0     H36450   3.479   6.517   6.065  1.5320 -0.0917  0.9835
 1011MOL0     H36451   3.545   6.639   6.279 -0.8266  0.4750 -1.1784
 1011MOL0     H36452   3.497   6.490   6.372 -1.0264 -2.6334 -0.8320
 1011MOL0     H36453   3.681   6.367   6.245  1.1138 -0.1543  0.7723
 1011MOL0     H36454   3.705   6.504   6.145  1.3207 -1.2161  0.0501
 1011MOL0     H36455   3.767   6.496   6.437 -1.3172  0.1202  0.2935
 1011MOL0     H36456   3.756   6.652   6.357 -0.0476 -0.9546  2.8105
 1011MOL0     H36457   3.925   6.574   6.198 -0.7943 -3.0889 -1.8911
 1011MOL0     H36458   3.933   6.413   6.272 -0.2241 -0.1122 -0.1421
 1011MOL0     H36459   4.015   6.672   6.403 -0.2510 -0.3231  0.1314
 1011MOL0     H36460   4.000   6.523   6.496 -1.7413 -1.6095 -0.6764
 1011MOL0     H36461   4.239   6.604   6.413 -1.2858  0.7079  1.3775
 1011MOL0     H36462   4.182   6.541   6.257  0.8327 -1.4526  0.0266
 1011MOL0     H36463   4.205   6.371   6.499  0.0094  0.1185 -0.2109
 1011MOL0     H36464   4.130   6.330   6.343 -0.1738 -0.3665 -0.1220
 1011MOL0     H36465   3.170   6.352   6.062  1.9746 -0.3425 -0.3003
 1011MOL0     H36466   3.029   6.369   5.869  3.5793 -2.1568  0.6401
 1011MOL0     H36467   2.792   6.720   5.606  3.0946 -0.5321  0.0768
 1011MOL0     H36468   2.605   6.731   5.417 -0.2541  0.1875 -2.7232
 1011MOL0     H36469   1.162   6.932   4.703  0.1844  0.2027 -0.2028
 1011MOL0     H36470   0.923   6.965   4.715 -1.5783  0.2898  0.7454
 1011MOL0     H36471   0.641   7.374   4.922 -0.2525  0.5118  0.7110
 1011MOL0     H36472   0.420   7.449   4.968  0.9301 -2.0397  2.7105
 1011MOL0     H36473   0.018   7.291   4.865 -0.3585  1.8815  0.3096
 1011MOL0     H36474   0.093   7.323   4.708  0.3611  0.5123 -0.4752
 1011MOL0     H36475   0.102   7.543   4.722  1.6789 -2.6056 -0.9232
 1011MOL0     H36476   0.035   7.555   4.886  1.4816 -0.8107 -0.6026
 1011MOL0     H36477  -0.179   7.436   4.797 -1.0197 -0.0072  0.1388
 1011MOL0     H36478  -0.127   7.473   4.632  0.9283  0.9891 -0.1368
 1011MOL0     H36479  -0.158   7.681   4.856  1.2895  3.0055 -0.4782
 1011MOL0     H36480  -0.151   7.721   4.692  0.5850  0.3831  1.4072
 1011MOL0     H36481  -0.547   7.638   4.755 -0.1829  0.2744 -0.8947
 1011MOL0     H36482   0.240   7.160   4.729 -0.5692  1.1269  1.9460
 1011MOL0     H36483   0.523   6.932   4.693  2.1756  0.9314  0.6019
 1011MOL0     H36484   0.362   6.962   4.671 -0.2600 -0.3266  0.3060
 1011MOL0     H36485   0.477   7.012   4.545  3.5209  0.7679  0.2575
 1012MOL0     O36486   0.241   1.900   0.147  0.5908  0.1545  0.7047
 1012MOL0     C36487   0.146   1.859   0.206  0.9415 -0.1037  0.0111
 1012MOL0     O36488   0.152   1.833   0.337 -0.3846  0.4693 -0.8910
 1012MOL0     C36489   0.265   1.790   0.398  0.2593 -0.0031  1.1510
 1012MOL0     C36490   0.301   1.835   0.521  0.3478 -0.6888 -0.4355
 1012MOL0     C36491   0.424   1.789   0.582  1.5255  0.0787 -0.7405
 1012MOL0     C36492   0.496   1.683   0.532 -0.9374  0.6269  0.0169
 1012MOL0     O36493   0.622   1.653   0.586 -0.1160  0.4590 -0.2118
 1012MOL0     C36494   0.706   1.552   0.524  0.2089 -0.3231 -0.3221
 1012MOL0     C36495   0.830   1.521   0.601 -0.6227 -1.4750 -0.5107
 1012MOL0     C36496   0.955   1.614   0.569  0.3675  0.7348  0.5392
 1012MOL0     C36497   1.037   1.644   0.699 -0.6328  0.1448 -0.1950
 1012MOL0     C36498   1.185   1.680   0.665 -0.1874 -0.4569 -0.7271
 1012MOL0     C36499   1.254   1.713   0.789  0.3378 -0.4280 -0.7651
 1012MOL0     C36500   1.404   1.722   0.760  0.2887  0.4990  0.7257
 1012MOL0     C36501   1.477   1.767   0.883 -1.1762  0.3812  0.1141
 1012MOL0     N36502   1.627   1.773   0.858  0.3809 -0.5716 -0.4362
 1012MOL0     C36503   1.713   1.676   0.807  1.3903  0.8461 -0.2323
 1012MOL0     C36504   1.834   1.727   0.802  0.4009  0.9936  0.9247
 1012MOL0     C36505   1.953   1.643   0.770 -0.4696  0.0407 -0.8546
 1012MOL0     C36506   2.076   1.705   0.835 -0.7743  0.0773 -0.0795
 1012MOL0     C36507   2.189   1.606   0.846  0.5598  0.7129 -0.3407
 1012MOL0     C36508   2.323   1.682   0.861 -0.3593  0.5634 -0.0707
 1012MOL0     O36509   2.432   1.603   0.876 -0.9978 -0.8992 -0.2607
 1012MOL0     C36510   2.555   1.665   0.887 -0.4576  0.2638 -0.4190
 1012MOL0     C36511   2.598   1.798   0.882  0.7084 -0.2085  0.7197
 1012MOL0     C36512   2.739   1.826   0.859 -0.1976  0.1062  0.5790
 1012MOL0     C36513   2.836   1.723   0.851 -0.5965  0.3126  0.6896
 1012MOL0     C36514   2.982   1.751   0.840 -0.0585 -0.9239 -0.5979
 1012MOL0     O36515   3.058   1.648   0.785 -0.0344 -0.3430  0.5880
 1012MOL0     C36516   3.193   1.639   0.785 -0.9444 -0.0487 -0.5562
 1012MOL0     C36517   3.240   1.508   0.768  0.1978  0.4619 -0.4462
 1012MOL0     C36518   3.376   1.481   0.790  0.2610 -0.2524 -0.5205
 1012MOL0     C36519   3.472   1.583   0.791  0.2608  0.3136  0.7762
 1012MOL0     O36520   3.599   1.535   0.796 -0.0592  0.4112  0.0504
 1012MOL0     C36521   3.709   1.613   0.838 -0.3772 -0.8158 -1.0262
 1012MOL0     C36522   3.815   1.530   0.907  0.8308 -0.0806  0.0729
 1012MOL0     C36523   3.890   1.433   0.809  0.1587  0.4011 -0.2855
 1012MOL0     C36524   3.945   1.314   0.876 -0.6107  0.3730 -0.9424
 1012MOL0     C36525   4.033   1.227   0.775  0.3937  0.6793 -0.0569
 1012MOL0     C36526   3.971   1.206   0.634  0.6215  0.6062 -0.6337
 1012MOL0     C36527   4.000   1.062   0.575 -0.7891  0.4508 -0.2467
 1012MOL0     C36528   4.147   1.040   0.540 -0.3432  0.1652  0.1766
 1012MOL0    Cl36529   4.177   0.886   0.448 -0.4489  0.0733  0.0735
 1012MOL0     C36530   3.426   1.711   0.787 -0.1989  0.8698  0.5517
 1012MOL0     C36531   3.292   1.736   0.795  0.6843  0.0735 -0.3706
 1012MOL0     O36532   3.029   1.846   0.905 -0.4449 -0.5959 -0.1532
 1012MOL0     C36533   2.791   1.589   0.861  0.3697  0.0175 -0.4261
 1012MOL0     C36534   2.655   1.568   0.879 -0.0251  0.0634  0.2821
 1012MOL0     N36535   1.825   1.859   0.840 -0.2616 -0.4066 -0.8871
 1012MOL0     N36536   1.705   1.882   0.882 -0.1075  0.7372 -0.0978
 1012MOL0     C36537   0.450   1.631   0.406 -0.0635 -0.0201  0.6610
 1012MOL0     C36538   0.336   1.688   0.343 -0.4091  0.1492 -0.0756
 1012MOL0     C36539   0.015   1.810   0.139 -0.4794 -0.1397  0.2805
 1012MOL0     C36540  -0.107   1.786   0.207 -0.0481  0.2279 -0.0514
 1012MOL0     C36541  -0.214   1.743   0.141  0.0769  0.1466 -0.8589
 1012MOL0     C36542  -0.226   1.734   0.008 -0.1725  0.0450  0.7701
 1012MOL0     O36543  -0.350   1.716  -0.040 -0.4648 -0.6036  0.5094
 1012MOL0     C36544  -0.362   1.697  -0.180 -0.3193 -0.8468 -0.0324
 1012MOL0     C36545  -0.506   1.658  -0.216  0.7964  0.4599 -0.4946
 1012MOL0     C36546  -0.587   1.767  -0.287  1.2569 -0.9627 -0.3259
 1012MOL0     C36547  -0.598   1.886  -0.194  0.7636 -0.2800  0.1687
 1012MOL0     C36548  -0.702   1.977  -0.247 -0.1583 -0.5132 -0.2770
 1012MOL0     C36549  -0.777   2.063  -0.295 -0.4870 -0.4913  0.5674
 1012MOL0     C36550  -0.110   1.749  -0.056 -0.3825 -0.6334  0.4742
 1012MOL0     C36551   0.012   1.783   0.002  1.0439  0.3664  0.0543
 1012MOL0     C36552   0.131   1.783  -0.085  0.1217  0.0641  0.3231
 1012MOL0     H36553   0.251   1.914   0.576  1.3771 -0.0506 -0.3784
 1012MOL0     H36554   0.464   1.836   0.671  0.1394 -3.5576  2.0410
 1012MOL0     H36555   0.640   1.467   0.503 -0.0847 -0.1857  0.0382
 1012MOL0     H36556   0.731   1.586   0.423 -2.6273  2.6783 -0.1547
 1012MOL0     H36557   0.860   1.417   0.585  0.7002 -1.5158  1.7705
 1012MOL0     H36558   0.812   1.540   0.707  0.5736  0.1055 -0.5489
 1012MOL0     H36559   0.934   1.716   0.536  1.2137  0.9163  0.5514
 1012MOL0     H36560   1.022   1.562   0.500  1.4214  1.4242  1.0270
 1012MOL0     H36561   0.990   1.728   0.749 -1.1284 -0.2800  0.0595
 1012MOL0     H36562   1.042   1.553   0.760  2.5311 -2.2467 -3.4958
 1012MOL0     H36563   1.237   1.593   0.624  0.2837 -0.3312 -0.3965
 1012MOL0     H36564   1.200   1.763   0.595  1.2670 -0.5183 -0.5150
 1012MOL0     H36565   1.220   1.812   0.822  2.8894  0.6854 -1.2234
 1012MOL0     H36566   1.236   1.635   0.863 -0.9671 -0.0725 -0.6796
 1012MOL0     H36567   1.404   1.790   0.675 -4.2058  0.1241  0.2310
 1012MOL0     H36568   1.441   1.621   0.741 -2.0045 -0.9908  3.3808
 1012MOL0     H36569   1.446   1.868   0.912 -0.6559  0.2114  1.3053
 1012MOL0     H36570   1.452   1.705   0.969  1.3191  3.0208  2.9617
 1012MOL0     H36571   1.676   1.576   0.787 -0.2962  1.4379 -0.2281
 1012MOL0     H36572   1.949   1.538   0.799 -0.2445 -0.5335 -2.7450
 1012MOL0     H36573   1.973   1.648   0.662 -1.1082 -1.9735 -1.0996
 1012MOL0     H36574   2.106   1.791   0.774  2.9301  1.3628  3.1522
 1012MOL0     H36575   2.048   1.747   0.933 -2.5698  1.1442 -0.9892
 1012MOL0     H36576   2.199   1.546   0.755  0.0834 -1.0588  0.7326
 1012MOL0     H36577   2.161   1.543   0.931 -0.3588 -0.1324 -1.2295
 1012MOL0     H36578   2.314   1.739   0.954 -2.2083  2.9910 -1.6025
 1012MOL0     H36579   2.343   1.751   0.779  1.2795 -1.9282 -1.8925
 1012MOL0     H36580   2.525   1.878   0.873  0.7567 -0.0774  1.4512
 1012MOL0     H36581   2.775   1.927   0.844 -0.0328  0.1614  1.3043
 1012MOL0     H36582   3.165   1.429   0.760 -1.2958  1.7640  0.3072
 1012MOL0     H36583   3.408   1.378   0.803  2.9550  0.5276 -0.3994
 1012MOL0     H36584   3.752   1.662   0.750  0.7793  0.8466  0.4042
 1012MOL0     H36585   3.690   1.691   0.912 -0.8028 -2.2841  0.4762
 1012MOL0     H36586   3.890   1.595   0.954  2.7771 -1.0971 -1.4613
 1012MOL0     H36587   3.752   1.475   0.978 -0.2016 -0.1010 -0.8296
 1012MOL0     H36588   3.825   1.398   0.728  0.0128  1.5627 -0.6921
 1012MOL0     H36589   3.969   1.487   0.755  1.9723 -2.4908 -0.7197
 1012MOL0     H36590   3.864   1.252   0.915  0.3613 -0.8390 -0.7872
 1012MOL0     H36591   4.014   1.342   0.956 -1.5239  1.0883 -0.3865
 1012MOL0     H36592   4.032   1.130   0.825  1.4234 -1.3412 -3.6173
 1012MOL0     H36593   4.137   1.261   0.777  1.2075 -1.4859 -1.6730
 1012MOL0     H36594   3.862   1.195   0.642  0.3041  2.2181 -2.1832
 1012MOL0     H36595   3.978   1.286   0.560 -0.5266 -0.4924 -1.9929
 1012MOL0     H36596   3.934   1.038   0.491 -1.5685  0.2766  0.3989
 1012MOL0     H36597   3.973   0.982   0.645 -1.9737  0.3576 -0.7841
 1012MOL0     H36598   4.176   1.121   0.473  1.7749 -0.8520 -0.2376
 1012MOL0     H36599   4.203   1.051   0.634 -1.6050  1.2093  0.8486
 1012MOL0     H36600   3.497   1.794   0.787  0.4703  0.3106  0.3424
 1012MOL0     H36601   3.265   1.840   0.807  1.0621 -0.0305  1.7903
 1012MOL0     H36602   2.857   1.503   0.856  0.0848 -0.2912  0.8340
 1012MOL0     H36603   2.615   1.467   0.885  1.9454 -0.6861  1.7273
 1012MOL0     H36604   0.503   1.559   0.344 -1.0734  1.3052 -1.9183
 1012MOL0     H36605   0.309   1.678   0.238 -0.2044  1.3068 -0.2510
 1012MOL0     H36606  -0.112   1.785   0.316  0.8161 -0.8247 -0.0048
 1012MOL0     H36607  -0.305   1.728   0.199  0.0487  0.6177 -0.7754
 1012MOL0     H36608  -0.295   1.613  -0.199  1.0785  0.0192  0.8592
 1012MOL0     H36609  -0.329   1.778  -0.245 -1.9010  0.9191  1.2462
 1012MOL0     H36610  -0.566   1.631  -0.128 -1.1365 -1.4416 -2.2743
 1012MOL0     H36611  -0.513   1.570  -0.281 -1.1954 -0.8764  1.3797
 1012MOL0     H36612  -0.688   1.738  -0.315  0.8431  0.3625 -0.2688
 1012MOL0     H36613  -0.548   1.809  -0.380 -0.2753  2.5539  0.4772
 1012MOL0     H36614  -0.637   1.860  -0.095 -2.4088  1.1240 -0.5702
 1012MOL0     H36615  -0.501   1.933  -0.177 -0.3158  1.7030  1.1871
 1012MOL0     H36616  -0.845   2.133  -0.339  0.3030  1.2154  1.9210
 1012MOL0     H36617  -0.104   1.729  -0.163  1.2575  0.4419  0.3387
 1012MOL0     H36618   0.111   1.729  -0.178 -1.0634 -0.2303  0.7289
 1012MOL0     H36619   0.149   1.886  -0.120 -1.2942  1.0976  2.4580
 1012MOL0     H36620   0.216   1.739  -0.032 -0.0638  0.6621  1.1413
 1013MOL0     O36621   2.209   4.277   4.463  0.4212 -0.6683  0.1438
 1013MOL0     C36622   2.189   4.312   4.579 -1.4162  0.4820  0.5484
 1013MOL0     O36623   2.292   4.338   4.674 -0.3693  0.4948 -0.8478
 1013MOL0     C36624   2.415   4.359   4.619 -0.1730  0.4172 -0.5272
 1013MOL0     C36625   2.441   4.486   4.566 -0.3054  0.3241 -0.8435
 1013MOL0     C36626   2.578   4.506   4.535 -1.1279  0.1357  0.4694
 1013MOL0     C36627   2.681   4.409   4.533 -0.6352 -0.5522  0.1589
 1013MOL0     O36628   2.804   4.452   4.488 -0.0990  0.7033 -0.5543
 1013MOL0     C36629   2.916   4.362   4.518  0.4795  0.0858 -0.2056
 1013MOL0     C36630   3.033   4.444   4.463  0.8575  0.5145  1.0622
 1013MOL0     C36631   3.174   4.388   4.504  0.3034 -0.7255  0.3878
 1013MOL0     C36632   3.273   4.495   4.507  0.4954  0.0008 -0.0547
 1013MOL0     C36633   3.369   4.455   4.616 -0.0270 -0.5799 -0.1795
 1013MOL0     C36634   3.495   4.538   4.599 -0.0746  0.1019 -0.0008
 1013MOL0     C36635   3.466   4.690   4.613  0.4643 -1.2300  0.0754
 1013MOL0     C36636   3.591   4.777   4.581  0.6879  0.0409 -0.2649
 1013MOL0     N36637   3.705   4.737   4.669 -0.0094 -0.2791  0.5131
 1013MOL0     C36638   3.818   4.695   4.619  0.3282  0.0056  0.4045
 1013MOL0     C36639   3.902   4.684   4.727  0.4905 -0.2539  0.0490
 1013MOL0     C36640   4.049   4.651   4.711  0.9129  0.0153  0.2328
 1013MOL0     C36641   4.083   4.563   4.585  0.2061 -1.0803 -1.1951
 1013MOL0     C36642   4.223   4.496   4.600  0.1441  0.0148  0.0217
 1013MOL0     C36643   4.338   4.602   4.613  0.1434  0.0495 -0.1345
 1013MOL0     O36644   4.474   4.547   4.615  0.1171 -0.6146 -0.8442
 1013MOL0     C36645   4.583   4.641   4.605  0.2835 -0.3034  0.5233
 1013MOL0     C36646   4.581   4.755   4.676 -0.5644  0.5805 -0.3391
 1013MOL0     C36647   4.686   4.850   4.665 -0.7938 -0.4752 -0.9715
 1013MOL0     C36648   4.792   4.828   4.573 -0.4569 -0.2883 -0.9291
 1013MOL0     C36649   4.901   4.923   4.549  0.3086 -0.7797 -0.4956
 1013MOL0     O36650   4.898   5.035   4.626 -0.4292 -0.0857  0.3689
 1013MOL0     C36651   5.007   5.107   4.649  0.4233  0.1579  0.0175
 1013MOL0     C36652   4.984   5.246   4.678  0.1180  0.5314 -0.0867
 1013MOL0     C36653   5.089   5.330   4.713  0.9787 -0.3338 -0.1281
 1013MOL0     C36654   5.219   5.271   4.723  0.2803  0.9626 -0.3982
 1013MOL0     O36655   5.314   5.357   4.761 -0.3265  0.2158  0.7926
 1013MOL0     C36656   5.449   5.325   4.730  0.2450  0.1928  0.3810
 1013MOL0     C36657   5.526   5.454   4.743 -0.5966 -0.5215  0.8113
 1013MOL0     C36658   5.664   5.445   4.682  0.0962 -0.3003 -0.1239
 1013MOL0     C36659   5.737   5.584   4.701  0.4080  0.9820 -0.8243
 1013MOL0     C36660   5.868   5.578   4.635  0.4136 -0.4710  0.0173
 1013MOL0     C36661   5.958   5.683   4.688  1.0523  0.0469  0.0575
 1013MOL0     C36662   6.082   5.714   4.614 -0.6146  0.2205  0.7402
 1013MOL0     C36663   6.140   5.848   4.652 -0.3121 -0.4314  0.4324
 1013MOL0    Cl36664   6.041   5.985   4.588  0.0648 -0.1033  0.2211
 1013MOL0     C36665   5.243   5.132   4.709  0.7578 -0.0172  0.9629
 1013MOL0     C36666   5.132   5.047   4.672  0.7594  0.5815  0.1832
 1013MOL0     O36667   4.980   4.892   4.462  0.4167 -0.0949  0.1598
 1013MOL0     C36668   4.787   4.707   4.493 -0.7060  0.5859 -0.5407
 1013MOL0     C36669   4.691   4.614   4.520  0.5430  0.4693 -0.4299
 1013MOL0     N36670   3.843   4.735   4.836  0.8063 -0.7306  0.2590
 1013MOL0     N36671   3.721   4.774   4.798  0.1258  0.4333  0.9802
 1013MOL0     C36672   2.648   4.288   4.585 -0.2527 -0.3800  0.0182
 1013MOL0     C36673   2.512   4.256   4.618 -0.3326  0.2386  0.4316
 1013MOL0     C36674   2.059   4.368   4.614  0.8344 -0.4047 -0.5912
 1013MOL0     C36675   2.056   4.495   4.667 -0.5509  0.2735 -0.4396
 1013MOL0     C36676   1.943   4.561   4.699 -0.1038 -0.1170 -0.2416
 1013MOL0     C36677   1.817   4.497   4.686  0.2146 -1.6114  0.7567
 1013MOL0     O36678   1.703   4.566   4.738 -0.2309  1.0598 -0.3167
 1013MOL0     C36679   1.581   4.489   4.754 -0.3283 -0.0548  0.5934
 1013MOL0     C36680   1.462   4.576   4.783 -0.1466 -0.8777 -0.2058
 1013MOL0     C36681   1.491   4.616   4.940 -0.0031 -0.5347 -0.1489
 1013MOL0     C36682   1.361   4.683   5.006 -0.2917  0.0044  0.3169
 1013MOL0     C36683   1.369   4.829   4.966  0.3650  0.5117 -0.5561
 1013MOL0     C36684   1.372   4.946   4.941  0.8097  0.5015 -0.8806
 1013MOL0     C36685   1.814   4.376   4.625 -0.1649  0.0495  0.4196
 1013MOL0     C36686   1.937   4.311   4.583 -0.1219 -1.1777 -0.7776
 1013MOL0     C36687   1.920   4.177   4.514 -0.3354  0.6920 -1.2536
 1013MOL0     H36688   2.380   4.576   4.561  0.8592  1.3016  1.3097
 1013MOL0     H36689   2.606   4.605   4.502  1.5368 -1.0351 -1.0888
 1013MOL0     H36690   2.918   4.336   4.624  0.6008  1.4453  0.1450
 1013MOL0     H36691   2.910   4.274   4.454  1.7201  0.2301 -0.5417
 1013MOL0     H36692   3.020   4.552   4.476  0.7915  0.9802 -2.0069
 1013MOL0     H36693   3.022   4.433   4.354  2.7982 -2.9932  1.0904
 1013MOL0     H36694   3.206   4.298   4.451 -1.2614 -1.1012  0.0302
 1013MOL0     H36695   3.167   4.345   4.604  1.6031 -1.9444 -0.0079
 1013MOL0     H36696   3.316   4.516   4.409  2.5638  0.8846  0.9690
 1013MOL0     H36697   3.222   4.581   4.550  1.8032  0.7740  0.0100
 1013MOL0     H36698   3.331   4.459   4.718  4.3634  0.4832  1.6736
 1013MOL0     H36699   3.399   4.350   4.609 -1.4723 -0.9975 -0.3355
 1013MOL0     H36700   3.566   4.508   4.676  0.3123 -0.3794 -0.5362
 1013MOL0     H36701   3.544   4.522   4.502 -1.2989 -0.2803 -0.5805
 1013MOL0     H36702   3.433   4.700   4.717  1.0318  1.0136  0.0831
 1013MOL0     H36703   3.387   4.729   4.548 -0.2416 -0.8723  1.1153
 1013MOL0     H36704   3.623   4.775   4.476 -1.0011  1.3095 -0.8334
 1013MOL0     H36705   3.563   4.881   4.601 -0.2662 -0.5928  1.9670
 1013MOL0     H36706   3.834   4.670   4.515 -0.6796 -1.0554  0.4806
 1013MOL0     H36707   4.109   4.742   4.697  2.0556 -0.9834 -1.6817
 1013MOL0     H36708   4.077   4.589   4.797 -1.3035 -1.6056 -0.1166
 1013MOL0     H36709   4.013   4.480   4.593  0.5013 -1.1657  1.8470
 1013MOL0     H36710   4.074   4.621   4.493 -2.3337 -0.0731 -0.3940
 1013MOL0     H36711   4.241   4.425   4.519  0.0972  0.3692 -0.3017
 1013MOL0     H36712   4.226   4.440   4.694 -0.8564 -0.6512 -0.3335
 1013MOL0     H36713   4.325   4.672   4.697  1.0740 -0.2930  0.3017
 1013MOL0     H36714   4.311   4.665   4.528 -1.9674 -0.8869 -0.2233
 1013MOL0     H36715   4.506   4.782   4.750 -0.6969 -0.4444 -0.0930
 1013MOL0     H36716   4.679   4.938   4.728 -1.6686 -0.5919 -0.9022
 1013MOL0     H36717   4.886   5.285   4.651 -0.3172 -0.2651  0.3039
 1013MOL0     H36718   5.081   5.434   4.742  3.4862 -0.3568  0.8858
 1013MOL0     H36719   5.485   5.250   4.800 -1.1879  0.1300  1.0893
 1013MOL0     H36720   5.448   5.288   4.627 -3.8770  2.2113 -0.5192
 1013MOL0     H36721   5.470   5.533   4.691 -1.6723 -0.5433  1.8979
 1013MOL0     H36722   5.529   5.474   4.850  1.2700 -0.8256  0.8502
 1013MOL0     H36723   5.729   5.372   4.730  3.1587  2.6754  0.6874
 1013MOL0     H36724   5.654   5.414   4.577  0.8306 -0.2586 -0.2136
 1013MOL0     H36725   5.745   5.612   4.806  0.9032  0.2144 -0.6485
 1013MOL0     H36726   5.685   5.659   4.640 -0.3081  0.3366 -1.0174
 1013MOL0     H36727   5.862   5.588   4.526  0.2700 -0.0449  0.0628
 1013MOL0     H36728   5.917   5.483   4.655 -0.1421 -0.9470 -0.8112
 1013MOL0     H36729   5.895   5.772   4.697  1.6395  0.2800  3.2029
 1013MOL0     H36730   5.991   5.654   4.789 -0.4132 -1.3662  0.1599
 1013MOL0     H36731   6.083   5.699   4.505  0.6293  0.0389  0.7591
 1013MOL0     H36732   6.154   5.638   4.644 -0.3490 -0.7532 -2.0415
 1013MOL0     H36733   6.155   5.869   4.758  1.3851  2.7696 -0.3141
 1013MOL0     H36734   6.242   5.856   4.614 -0.1968  1.9430  1.0762
 1013MOL0     H36735   5.341   5.090   4.728  0.9846  0.9839  2.1404
 1013MOL0     H36736   5.150   4.941   4.653  1.9885  0.5379  1.4280
 1013MOL0     H36737   4.867   4.684   4.424  0.5217  0.1368  0.9633
 1013MOL0     H36738   4.692   4.523   4.461 -4.8759  0.9874 -1.8117
 1013MOL0     H36739   2.704   4.195   4.581 -0.8639 -0.7716  0.4059
 1013MOL0     H36740   2.476   4.159   4.651 -1.7257  0.8106  0.6482
 1013MOL0     H36741   2.146   4.555   4.677 -1.9508  2.3672 -0.0266
 1013MOL0     H36742   1.968   4.656   4.745  2.7925  0.0691 -1.9167
 1013MOL0     H36743   1.593   4.415   4.833 -5.0208 -0.8617  0.8586
 1013MOL0     H36744   1.548   4.433   4.666 -2.2747  0.6560  0.8122
 1013MOL0     H36745   1.368   4.520   4.781 -1.5624  1.4246 -1.9342
 1013MOL0     H36746   1.457   4.663   4.718 -1.1431 -1.4461 -0.9085
 1013MOL0     H36747   1.573   4.689   4.944 -0.4635  0.0747 -1.3756
 1013MOL0     H36748   1.533   4.528   4.990 -1.3865 -2.4263 -2.1327
 1013MOL0     H36749   1.270   4.639   4.965  1.5909 -0.3277 -3.9754
 1013MOL0     H36750   1.373   4.671   5.114  0.2208  0.3731  0.3038
 1013MOL0     H36751   1.374   5.052   4.927 -1.7040  0.3771 -2.9185
 1013MOL0     H36752   1.716   4.328   4.619  0.1870 -0.5685 -0.5527
 1013MOL0     H36753   1.826   4.131   4.545  0.1657  0.3651 -0.2001
 1013MOL0     H36754   1.921   4.180   4.404 -1.0109  2.8701 -1.2474
 1013MOL0     H36755   2.005   4.112   4.538 -1.0490  0.9390  2.4821
 1014MOL0     O36756  10.351   7.877   7.175  0.0487 -0.5758 -0.7261
 1014MOL0     C36757  10.349   7.985   7.120 -0.4181 -0.4521  0.4809
 1014MOL0     O36758  10.235   8.043   7.075 -0.4158 -0.1539  0.2388
 1014MOL0     C36759  10.120   7.972   7.064  0.0828  0.6539 -0.5484
 1014MOL0     C36760  10.006   8.024   7.137 -0.1858  0.5780  0.6595
 1014MOL0     C36761   9.876   7.970   7.109 -0.5380 -0.6601 -0.4326
 1014MOL0     C36762   9.856   7.867   7.009 -0.0750 -0.5235  0.8857
 1014MOL0     O36763   9.739   7.808   6.976  0.2106 -0.0931 -0.2454
 1014MOL0     C36764   9.619   7.882   7.005 -0.0788 -0.9337  1.0670
 1014MOL0     C36765   9.520   7.840   6.903  0.3252  0.2368  0.1766
 1014MOL0     C36766   9.381   7.815   6.962  0.0382 -0.1582  0.4597
 1014MOL0     C36767   9.280   7.819   6.851 -0.4385  0.0666  0.0503
 1014MOL0     C36768   9.137   7.778   6.890  0.4484  0.1002 -0.1354
 1014MOL0     C36769   9.047   7.767   6.768 -0.5535 -0.2486  0.3805
 1014MOL0     C36770   8.917   7.694   6.786  0.2768  0.1652  0.3665
 1014MOL0     C36771   8.808   7.790   6.831 -0.3999  0.3645 -0.1172
 1014MOL0     N36772   8.682   7.717   6.856  0.4334 -0.6638  0.2137
 1014MOL0     C36773   8.578   7.690   6.774  0.0027  0.0612 -0.2066
 1014MOL0     C36774   8.495   7.612   6.844 -0.1736 -0.2030  0.5824
 1014MOL0     C36775   8.356   7.568   6.803 -0.3415  0.6630  0.5418
 1014MOL0     C36776   8.346   7.472   6.679  0.2335  0.1348 -0.3944
 1014MOL0     C36777   8.379   7.322   6.709 -0.5425 -0.5831  0.1314
 1014MOL0     C36778   8.520   7.304   6.781  0.6311  0.5660  0.4990
 1014MOL0     O36779   8.622   7.353   6.691  0.1457 -0.3099 -0.1388
 1014MOL0     C36780   8.758   7.330   6.723  0.3996  0.0249 -0.1682
 1014MOL0     C36781   8.805   7.293   6.854 -0.3034 -0.2324  0.2197
 1014MOL0     C36782   8.944   7.277   6.870 -1.0660 -0.8745 -0.2826
 1014MOL0     C36783   9.037   7.316   6.771  0.1349 -0.7911 -0.3048
 1014MOL0     C36784   9.185   7.296   6.786 -0.0493 -0.1299 -0.4581
 1014MOL0     O36785   9.267   7.386   6.722 -0.1383 -0.1806  0.3807
 1014MOL0     C36786   9.401   7.362   6.725  0.5181  0.5192 -0.5119
 1014MOL0     C36787   9.458   7.262   6.645 -0.6248 -0.4399 -0.3381
 1014MOL0     C36788   9.595   7.244   6.653 -0.3292  0.2316 -0.6186
 1014MOL0     C36789   9.667   7.323   6.740 -0.1780 -0.9265 -0.5024
 1014MOL0     O36790   9.806   7.308   6.760  0.1056 -0.0840 -0.1723
 1014MOL0     C36791   9.893   7.415   6.717 -0.3188 -0.0351  0.4476
 1014MOL0     C36792   9.978   7.463   6.831  0.2172  0.2314  0.7420
 1014MOL0     C36793  10.046   7.338   6.900  0.0014 -0.1096  0.6132
 1014MOL0     C36794  10.153   7.384   6.993 -0.0479 -1.1712  0.1081
 1014MOL0     C36795  10.283   7.410   6.915  0.1217 -0.1607 -0.4067
 1014MOL0     C36796  10.381   7.496   6.985 -0.1286  0.0314  0.2941
 1014MOL0     C36797  10.448   7.423   7.108 -0.2851 -0.6908 -0.0628
 1014MOL0     C36798  10.581   7.348   7.076  0.3222 -0.2930  0.0926
 1014MOL0    Cl36799  10.545   7.191   6.996  0.4000 -0.2007  0.0753
 1014MOL0     C36800   9.613   7.403   6.837 -0.6677 -0.0206  0.0583
 1014MOL0     C36801   9.478   7.427   6.817 -0.3053  0.2865 -0.4878
 1014MOL0     O36802   9.224   7.188   6.830  0.3975 -0.0762  0.9416
 1014MOL0     C36803   8.983   7.360   6.647  0.6481 -0.3704 -0.2683
 1014MOL0     C36804   8.846   7.351   6.622  0.3607 -0.0880  0.3982
 1014MOL0     N36805   8.542   7.610   6.974  0.8665 -0.2890 -0.2029
 1014MOL0     N36806   8.663   7.666   6.982  0.1652 -1.1023  0.2684
 1014MOL0     C36807   9.969   7.823   6.938  0.9138 -0.1843 -0.0505
 1014MOL0     C36808  10.097   7.865   6.977  0.1917 -0.7519 -0.7871
 1014MOL0     C36809  10.473   8.062   7.114  0.3948 -0.2778 -0.5071
 1014MOL0     C36810  10.444   8.203   7.129 -0.3448  0.1348 -0.1921
 1014MOL0     C36811  10.551   8.301   7.132 -0.3488  0.0619  0.5477
 1014MOL0     C36812  10.681   8.249   7.124  0.5492 -0.5414 -0.2935
 1014MOL0     O36813  10.790   8.326   7.164 -0.4029 -0.1499 -0.7137
 1014MOL0     C36814  10.790   8.462   7.105 -0.1776  0.4665  0.0546
 1014MOL0     C36815  10.935   8.499   7.097 -0.3613  0.1049 -0.7266
 1014MOL0     C36816  11.009   8.389   7.013  0.9665  0.9453  1.4109
 1014MOL0     C36817  11.161   8.415   7.003 -0.8527  0.7322 -0.6704
 1014MOL0     C36818  11.229   8.298   6.947  0.1647 -0.4267 -0.3418
 1014MOL0     C36819  11.255   8.189   6.899  0.3726  0.5993  0.7610
 1014MOL0     C36820  10.709   8.120   7.121 -0.5671  0.0699 -0.2638
 1014MOL0     C36821  10.607   8.024   7.117 -0.3836 -0.0920 -0.0253
 1014MOL0     C36822  10.630   7.881   7.108 -0.5641  0.4605 -0.1755
 1014MOL0     H36823  10.021   8.114   7.196 -0.5557  0.7532  0.4874
 1014MOL0     H36824   9.797   8.005   7.174 -1.2333 -1.6872 -0.6894
 1014MOL0     H36825   9.583   7.882   7.108 -0.0823 -0.6278  1.0675
 1014MOL0     H36826   9.642   7.989   6.995  0.3609 -0.9464  1.8386
 1014MOL0     H36827   9.542   7.742   6.861 -1.6925 -0.6202  0.9910
 1014MOL0     H36828   9.524   7.913   6.821  1.2484 -3.1040 -3.0037
 1014MOL0     H36829   9.359   7.886   7.042 -4.4313  0.2869 -0.8702
 1014MOL0     H36830   9.389   7.711   6.994  0.4414 -0.2897 -0.0366
 1014MOL0     H36831   9.286   7.917   6.802 -1.3288 -0.5557 -1.3725
 1014MOL0     H36832   9.324   7.747   6.781  1.2424  1.6404 -0.6082
 1014MOL0     H36833   9.145   7.682   6.942  0.5814  1.4820  2.5895
 1014MOL0     H36834   9.094   7.852   6.958 -0.4710 -1.2672  0.8237
 1014MOL0     H36835   9.028   7.871   6.739  3.2642  0.0988 -1.5239
 1014MOL0     H36836   9.109   7.725   6.687  3.4183 -0.6739  3.3353
 1014MOL0     H36837   8.929   7.613   6.858  2.5524 -1.7934 -2.0232
 1014MOL0     H36838   8.898   7.639   6.694  1.5363  0.5686 -0.1558
 1014MOL0     H36839   8.837   7.834   6.928 -2.2330 -2.8116  2.0340
 1014MOL0     H36840   8.791   7.868   6.756 -1.6507 -1.0955 -1.4048
 1014MOL0     H36841   8.563   7.726   6.672 -0.4897  0.3776 -0.0268
 1014MOL0     H36842   8.319   7.510   6.888 -0.4433 -1.6855 -1.0250
 1014MOL0     H36843   8.298   7.661   6.790  0.9940  1.2264 -1.8238
 1014MOL0     H36844   8.245   7.466   6.637 -0.1939 -1.5763  0.7744
 1014MOL0     H36845   8.410   7.509   6.598 -0.0750  2.1202  0.2346
 1014MOL0     H36846   8.365   7.267   6.616  0.6001 -2.0730  0.7952
 1014MOL0     H36847   8.304   7.286   6.780 -0.8248  0.5236  0.4117
 1014MOL0     H36848   8.537   7.199   6.809 -2.0699  1.0261  4.8055
 1014MOL0     H36849   8.520   7.360   6.875 -0.0234 -1.3261  1.6812
 1014MOL0     H36850   8.742   7.256   6.934 -0.4983 -0.5118 -0.0638
 1014MOL0     H36851   8.984   7.226   6.957  1.0149  1.8562  0.5137
 1014MOL0     H36852   9.400   7.206   6.573 -2.2016 -0.3621  0.8260
 1014MOL0     H36853   9.641   7.182   6.577 -1.4437 -0.7289 -0.5313
 1014MOL0     H36854   9.968   7.370   6.652  0.4068  1.3307  0.2984
 1014MOL0     H36855   9.838   7.490   6.659 -0.7077 -0.5026  0.2052
 1014MOL0     H36856  10.061   7.522   6.790  0.1334  2.0644  2.9957
 1014MOL0     H36857   9.940   7.525   6.913  0.1637 -0.7805  1.5135
 1014MOL0     H36858   9.978   7.289   6.971  1.4188  1.6870  3.4225
 1014MOL0     H36859  10.084   7.267   6.827  1.5107  0.2726  0.9937
 1014MOL0     H36860  10.176   7.303   7.062 -0.4050  0.3723  2.1221
 1014MOL0     H36861  10.120   7.475   7.045 -0.3803 -1.9894  1.3665
 1014MOL0     H36862  10.259   7.467   6.825  2.1095 -2.2612 -2.4233
 1014MOL0     H36863  10.333   7.318   6.884  1.4418 -0.5900  2.6229
 1014MOL0     H36864  10.460   7.538   6.920 -1.4079  1.0061 -0.6910
 1014MOL0     H36865  10.345   7.593   7.022  1.0278  0.8279 -0.5662
 1014MOL0     H36866  10.368   7.362   7.152 -2.3539  1.8094 -0.0776
 1014MOL0     H36867  10.479   7.509   7.167  0.4701 -1.1046  0.1554
 1014MOL0     H36868  10.657   7.406   7.023  1.4409 -1.4250  0.4152
 1014MOL0     H36869  10.621   7.326   7.175  2.8334 -0.8395 -0.9587
 1014MOL0     H36870   9.666   7.467   6.907  0.0406  1.0100 -1.3470
 1014MOL0     H36871   9.421   7.482   6.890  0.6281  0.6443 -0.0122
 1014MOL0     H36872   9.054   7.388   6.569 -1.7945  1.3921 -2.0251
 1014MOL0     H36873   8.819   7.360   6.517  0.9653  0.8291  0.3148
 1014MOL0     H36874   9.955   7.745   6.864  1.1835  1.3917 -1.8382
 1014MOL0     H36875  10.172   7.802   6.931  1.0223 -0.2338 -0.1817
 1014MOL0     H36876  10.347   8.251   7.139 -0.3529 -0.0748  0.8249
 1014MOL0     H36877  10.536   8.408   7.144 -1.6854  0.2301 -1.8307
 1014MOL0     H36878  10.732   8.528   7.170 -1.1333  0.1349 -0.4384
 1014MOL0     H36879  10.754   8.461   7.002  0.9121  2.1500 -0.3826
 1014MOL0     H36880  10.974   8.520   7.197  0.2397  2.0042 -1.3075
 1014MOL0     H36881  10.938   8.585   7.028 -0.9037  0.7605  0.0488
 1014MOL0     H36882  10.973   8.399   6.910 -1.1283 -0.2422  1.9709
 1014MOL0     H36883  10.994   8.287   7.048 -0.2869  0.7195  0.3048
 1014MOL0     H36884  11.166   8.502   6.937 -2.7852  2.3127  1.1495
 1014MOL0     H36885  11.202   8.431   7.102 -1.8167  1.0408 -0.3048
 1014MOL0     H36886  11.291   8.095   6.862 -3.7572 -1.2712  0.9421
 1014MOL0     H36887  10.802   8.065   7.115 -2.2539 -3.0019 -0.3641
 1014MOL0     H36888  10.568   7.846   7.025  1.0266 -1.7769 -0.4835
 1014MOL0     H36889  10.734   7.853   7.090 -0.5966 -0.8939  1.4561
 1014MOL0     H36890  10.594   7.827   7.196 -0.2246  0.6851  0.1061
 1015MOL0     O36891   2.611   0.146   9.624 -0.2037  0.3467 -0.1604
 1015MOL0     C36892   2.540   0.210   9.549  0.7414 -0.6729  0.3896
 1015MOL0     O36893   2.580   0.273   9.431  0.6740 -0.5610  0.5366
 1015MOL0     C36894   2.712   0.261   9.403 -0.2817 -0.0995  0.7194
 1015MOL0     C36895   2.772   0.139   9.375 -0.1454  0.1372 -0.3907
 1015MOL0     C36896   2.904   0.131   9.324 -0.0839 -0.2159  0.4651
 1015MOL0     C36897   2.968   0.245   9.285 -0.1409  0.3676  0.3042
 1015MOL0     O36898   3.074   0.231   9.202 -0.0320  0.0646 -0.1364
 1015MOL0     C36899   3.052   0.243   9.061  0.1867  0.7123  0.1423
 1015MOL0     C36900   3.176   0.228   8.981 -0.4739 -0.6827 -0.1651
 1015MOL0     C36901   3.290   0.326   9.023  0.1719  0.8426  0.4024
 1015MOL0     C36902   3.392   0.330   8.906  0.1280 -0.2160  0.3680
 1015MOL0     C36903   3.504   0.424   8.940 -1.0055 -0.6979  0.7186
 1015MOL0     C36904   3.597   0.462   8.821  0.0206  0.2266 -0.5681
 1015MOL0     C36905   3.694   0.574   8.854  0.3904 -1.0358 -0.7080
 1015MOL0     C36906   3.816   0.583   8.760 -0.3842 -0.5730 -0.0288
 1015MOL0     N36907   3.892   0.452   8.741  0.1265  0.5408 -0.4037
 1015MOL0     C36908   3.968   0.404   8.849 -0.5763 -0.0850  0.5932
 1015MOL0     C36909   4.030   0.293   8.794 -0.4547 -0.6123  0.9869
 1015MOL0     C36910   4.132   0.212   8.857 -0.4057 -0.1428 -0.0537
 1015MOL0     C36911   4.275   0.257   8.834 -0.0087 -0.3751  0.3651
 1015MOL0     C36912   4.302   0.247   8.687 -0.5752 -0.5314  1.0318
 1015MOL0     C36913   4.453   0.250   8.656  0.1620  0.1580 -0.0315
 1015MOL0     O36914   4.479   0.192   8.529 -0.7157  0.1515  0.1120
 1015MOL0     C36915   4.601   0.167   8.470 -0.0961 -0.2179 -0.1788
 1015MOL0     C36916   4.608   0.053   8.383  1.0972 -0.5713 -0.3449
 1015MOL0     C36917   4.731   0.017   8.343 -0.1618  0.3823  0.1416
 1015MOL0     C36918   4.851   0.096   8.366  0.2849 -0.7628  0.0578
 1015MOL0     C36919   4.984   0.057   8.348 -0.8406  0.0982  0.6474
 1015MOL0     O36920   5.072   0.150   8.305  0.4148 -0.1388 -0.0538
 1015MOL0     C36921   5.204   0.129   8.290 -0.0625  0.4533  0.1490
 1015MOL0     C36922   5.286   0.098   8.395 -0.9978  0.2542 -0.0236
 1015MOL0     C36923   5.426   0.085   8.383 -0.4266  0.9448  1.9796
 1015MOL0     C36924   5.483   0.084   8.252  0.1163  0.0683  0.1528
 1015MOL0     O36925   5.617   0.071   8.224 -0.5090 -0.8209 -0.0961
 1015MOL0     C36926   5.713   0.090   8.337  0.0366  0.3370  0.0088
 1015MOL0     C36927   5.854   0.108   8.266 -0.1747  0.6318 -0.7133
 1015MOL0     C36928   5.952   0.172   8.374 -0.5724 -0.3501 -0.5967
 1015MOL0     C36929   6.099   0.188   8.331  0.0819  0.0974  0.6889
 1015MOL0     C36930   6.200   0.293   8.391 -0.6412  0.0945  1.0879
 1015MOL0     C36931   6.144   0.433   8.362 -0.3692 -0.1623  0.2065
 1015MOL0     C36932   6.238   0.539   8.413  0.6486  0.2143 -0.2137
 1015MOL0     C36933   6.361   0.576   8.323  0.8565  0.5502 -0.7058
 1015MOL0    Cl36934   6.473   0.694   8.404 -0.3543 -0.0916 -0.5006
 1015MOL0     C36935   5.397   0.120   8.139 -0.2250 -1.0334  0.2565
 1015MOL0     C36936   5.261   0.147   8.156 -0.1432 -0.4283 -0.5400
 1015MOL0     O36937   5.009  -0.068   8.349  0.6063 -0.1951  1.2797
 1015MOL0     C36938   4.833   0.213   8.435  0.0108 -0.4834  0.4224
 1015MOL0     C36939   4.712   0.243   8.496  0.0460 -0.5650 -0.0721
 1015MOL0     N36940   4.001   0.286   8.660  0.6202 -0.3171 -0.3923
 1015MOL0     N36941   3.917   0.377   8.628 -0.7650 -0.7524 -0.1524
 1015MOL0     C36942   2.894   0.368   9.283  0.3710  0.8105 -0.6112
 1015MOL0     C36943   2.783   0.371   9.362  0.4169 -0.8953 -0.1788
 1015MOL0     C36944   2.393   0.236   9.587 -0.9045 -0.0622  0.4721
 1015MOL0     C36945   2.308   0.286   9.482  0.5162 -0.2169 -0.4745
 1015MOL0     C36946   2.172   0.298   9.503  0.1209 -0.2516 -0.7453
 1015MOL0     C36947   2.109   0.276   9.631  0.2042 -0.3923  0.0757
 1015MOL0     O36948   1.978   0.295   9.645  0.1231  0.2420 -0.4552
 1015MOL0     C36949   1.913   0.214   9.749  0.2404 -0.8944 -0.2620
 1015MOL0     C36950   1.761   0.227   9.736 -0.3071 -0.1519 -0.3113
 1015MOL0     C36951   1.714   0.372   9.734 -0.1489 -0.2118  0.2550
 1015MOL0     C36952   1.596   0.383   9.638  0.4436  0.3267 -0.3991
 1015MOL0     C36953   1.466   0.333   9.695 -0.0201 -0.7007  1.0965
 1015MOL0     C36954   1.376   0.266   9.742  0.0929 -0.4875  0.0169
 1015MOL0     C36955   2.197   0.226   9.733  0.5108 -0.3293 -0.9757
 1015MOL0     C36956   2.335   0.210   9.717 -0.3997  0.0079 -0.2384
 1015MOL0     C36957   2.416   0.162   9.834 -0.9983 -0.6703 -0.7104
 1015MOL0     H36958   2.730   0.043   9.402 -0.5043  0.7798  1.4868
 1015MOL0     H36959   2.942   0.030   9.315 -1.8252 -0.8984  0.4711
 1015MOL0     H36960   2.996   0.152   9.038  3.4249 -0.8326 -2.4702
 1015MOL0     H36961   2.998   0.336   9.039  0.4621  0.5886 -1.0801
 1015MOL0     H36962   3.152   0.241   8.875  0.7299  2.4522 -0.1634
 1015MOL0     H36963   3.220   0.130   8.999  2.3105  0.6375  0.9138
 1015MOL0     H36964   3.348   0.291   9.109 -2.7170 -0.6678  1.8935
 1015MOL0     H36965   3.258   0.428   9.042  0.0042  0.5551  1.7791
 1015MOL0     H36966   3.424   0.225   8.901 -0.0298 -0.2986  1.0541
 1015MOL0     H36967   3.345   0.366   8.814  1.0176  1.5488  0.5655
 1015MOL0     H36968   3.456   0.515   8.976  1.6653  0.0541  2.6217
 1015MOL0     H36969   3.564   0.373   9.016  1.0646 -0.5397 -0.7332
 1015MOL0     H36970   3.649   0.375   8.779 -1.1337 -0.3066 -0.9325
 1015MOL0     H36971   3.529   0.482   8.738  0.5834 -0.8697 -1.3290
 1015MOL0     H36972   3.726   0.551   8.956 -2.4167 -0.1934  0.4417
 1015MOL0     H36973   3.648   0.673   8.860  1.4801 -0.5519  0.1076
 1015MOL0     H36974   3.781   0.618   8.662  2.5914 -2.1307 -1.7912
 1015MOL0     H36975   3.873   0.666   8.803 -0.5014  0.4768 -1.7871
 1015MOL0     H36976   3.981   0.438   8.952 -0.0915  2.0373 -0.1194
 1015MOL0     H36977   4.129   0.234   8.965  0.0848 -0.6520  0.0698
 1015MOL0     H36978   4.108   0.109   8.832 -1.5856  0.5417 -1.9759
 1015MOL0     H36979   4.298   0.359   8.868 -0.2136 -0.6216  1.2722
 1015MOL0     H36980   4.341   0.188   8.888 -2.9995 -0.4371  4.3786
 1015MOL0     H36981   4.245   0.315   8.623 -0.5867 -3.2840 -2.1369
 1015MOL0     H36982   4.267   0.146   8.664 -0.9036 -0.3325  0.6535
 1015MOL0     H36983   4.511   0.199   8.733 -2.3818  0.1845  2.0631
 1015MOL0     H36984   4.485   0.355   8.650  0.9592 -0.0550  0.3989
 1015MOL0     H36985   4.514   0.001   8.371 -1.2598  2.6158  2.5737
 1015MOL0     H36986   4.748  -0.072   8.283  1.6587 -0.3773  1.6963
 1015MOL0     H36987   5.245   0.088   8.495 -0.6256  0.2378  0.1278
 1015MOL0     H36988   5.489   0.052   8.465 -2.0011 -1.2573  2.4001
 1015MOL0     H36989   5.685   0.183   8.387 -0.2864 -0.1317  0.7140
 1015MOL0     H36990   5.702   0.006   8.406 -0.6423 -0.4798 -1.0585
 1015MOL0     H36991   5.883   0.012   8.222  0.9577 -0.4992  2.2390
 1015MOL0     H36992   5.846   0.177   8.181 -2.9961  1.2878 -0.0143
 1015MOL0     H36993   5.922   0.275   8.398  4.5399  0.9849  1.4018
 1015MOL0     H36994   5.965   0.106   8.461  0.0127 -1.1728 -1.2936
 1015MOL0     H36995   6.087   0.211   8.225  0.1781  1.3127  0.9277
 1015MOL0     H36996   6.136   0.085   8.327  0.4977  0.2905 -1.5151
 1015MOL0     H36997   6.300   0.284   8.347 -0.8611  3.3657 -0.3581
 1015MOL0     H36998   6.200   0.283   8.500 -0.5402 -0.1526  1.0659
 1015MOL0     H36999   6.144   0.435   8.253  0.5221 -1.7189  0.1494
 1015MOL0     H37000   6.048   0.446   8.411  0.4650  2.2960  1.3637
 1015MOL0     H37001   6.274   0.504   8.510 -0.0483 -2.6364 -0.9028
 1015MOL0     H37002   6.174   0.627   8.418 -0.5226 -0.6504  0.5954
 1015MOL0     H37003   6.414   0.482   8.304 -0.7920 -0.2862 -1.3650
 1015MOL0     H37004   6.330   0.604   8.222  2.6171  0.6304 -1.2670
 1015MOL0     H37005   5.434   0.124   8.037 -1.9667 -0.1718 -0.3853
 1015MOL0     H37006   5.199   0.180   8.074 -3.2653 -3.2438  0.4302
 1015MOL0     H37007   4.911   0.283   8.462 -0.9782 -0.3390  3.3267
 1015MOL0     H37008   4.703   0.326   8.565  0.5468 -0.6372  0.0901
 1015MOL0     H37009   2.934   0.456   9.234  0.6936  0.5532 -0.8199
 1015MOL0     H37010   2.728   0.462   9.385 -0.5830 -0.8623 -2.4068
 1015MOL0     H37011   2.340   0.318   9.384 -2.0017 -0.3945 -1.4167
 1015MOL0     H37012   2.102   0.318   9.422 -0.4202  1.3617  0.0674
 1015MOL0     H37013   1.945   0.240   9.850 -3.0774 -1.0454  0.9595
 1015MOL0     H37014   1.933   0.108   9.728 -0.1841 -1.0228 -0.0171
 1015MOL0     H37015   1.725   0.166   9.820  2.9476 -3.1836 -0.8767
 1015MOL0     H37016   1.723   0.172   9.649  4.1953  0.2528 -2.8504
 1015MOL0     H37017   1.793   0.443   9.708  0.3358 -0.4767  0.9754
 1015MOL0     H37018   1.678   0.405   9.832 -1.5259  2.0896 -0.9279
 1015MOL0     H37019   1.577   0.489   9.619 -1.0876  0.2514  0.5425
 1015MOL0     H37020   1.610   0.339   9.539  0.9845  0.8324 -0.5490
 1015MOL0     H37021   1.304   0.205   9.792  0.5930 -1.5960 -0.5831
 1015MOL0     H37022   2.153   0.206   9.830 -3.7733  0.4119 -2.5468
 1015MOL0     H37023   2.369   0.178   9.932  1.5728 -0.4750  0.5552
 1015MOL0     H37024   2.423   0.055   9.815 -0.1069 -1.3544  2.7919
 1015MOL0     H37025   2.511   0.215   9.846  0.4570 -2.7765 -2.2391
 1016MOL0     O37026   4.087   4.092   7.422  0.1012  0.0490  0.2379
 1016MOL0     C37027   4.090   4.151   7.532  0.3117 -0.2808 -0.0818
 1016MOL0     O37028   3.984   4.194   7.604  0.2214 -0.5331 -0.0864
 1016MOL0     C37029   3.872   4.125   7.568 -0.0810 -0.4030  0.0418
 1016MOL0     C37030   3.807   4.033   7.655 -0.1633 -0.0812  0.9354
 1016MOL0     C37031   3.673   4.004   7.630 -0.5309 -0.3085 -0.4737
 1016MOL0     C37032   3.596   4.056   7.531 -0.8609 -0.2225  0.1230
 1016MOL0     O37033   3.467   4.014   7.511  0.1020 -0.9702  0.0598
 1016MOL0     C37034   3.447   3.963   7.372  0.3216 -0.5170 -0.0484
 1016MOL0     C37035   3.333   3.862   7.369  0.5274 -0.2396 -0.2937
 1016MOL0     C37036   3.305   3.804   7.233 -0.2715  0.9171  0.5749
 1016MOL0     C37037   3.198   3.699   7.242 -0.4542  0.4852 -0.7670
 1016MOL0     C37038   3.146   3.657   7.104 -0.4508 -0.0237 -0.1531
 1016MOL0     C37039   3.239   3.556   7.028 -0.3687  0.5873  0.1883
 1016MOL0     C37040   3.187   3.494   6.899  0.3325 -0.0313  0.7714
 1016MOL0     C37041   3.293   3.406   6.822  0.2236  0.3302 -0.4372
 1016MOL0     N37042   3.320   3.285   6.903  0.1094  0.5846  0.5647
 1016MOL0     C37043   3.439   3.230   6.887 -0.2388 -0.7680  0.3520
 1016MOL0     C37044   3.446   3.115   6.961  0.4469 -0.2093 -0.7329
 1016MOL0     C37045   3.564   3.030   6.990 -0.1659  0.1456  0.7516
 1016MOL0     C37046   3.525   2.916   7.094 -0.7644 -0.6241 -0.1632
 1016MOL0     C37047   3.633   2.806   7.125 -0.1701 -0.3469 -0.3971
 1016MOL0     C37048   3.567   2.686   7.177  0.0025 -0.9403 -0.1386
 1016MOL0     O37049   3.486   2.731   7.290 -0.0961 -0.2936  0.1980
 1016MOL0     C37050   3.367   2.675   7.297  0.3527  0.3941 -0.1335
 1016MOL0     C37051   3.356   2.556   7.369  0.6568  0.4629  0.0615
 1016MOL0     C37052   3.238   2.485   7.371 -0.4025  0.6652 -0.2987
 1016MOL0     C37053   3.123   2.545   7.322  0.6312 -0.1156  0.0327
 1016MOL0     C37054   3.000   2.478   7.326  0.6457  0.2756  0.3939
 1016MOL0     O37055   2.895   2.562   7.322  0.2788 -0.6002  0.1853
 1016MOL0     C37056   2.760   2.528   7.331 -0.0482 -0.1318  0.3222
 1016MOL0     C37057   2.671   2.587   7.237  0.0279 -0.7360 -0.5526
 1016MOL0     C37058   2.531   2.560   7.262  0.6797 -0.6309  0.3651
 1016MOL0     C37059   2.483   2.496   7.373 -0.2251 -0.2971 -0.3078
 1016MOL0     O37060   2.354   2.465   7.377  0.5985 -0.4941 -0.9232
 1016MOL0     C37061   2.277   2.543   7.477 -0.1138  0.6764  1.0183
 1016MOL0     C37062   2.164   2.450   7.519 -0.5930 -0.1058  0.1715
 1016MOL0     C37063   2.061   2.512   7.612  0.5122 -0.0271  0.0850
 1016MOL0     C37064   1.999   2.405   7.700  0.1472 -0.2315  0.0289
 1016MOL0     C37065   1.903   2.463   7.806  0.2313  0.0097 -0.4728
 1016MOL0     C37066   1.828   2.350   7.885  0.2947 -0.0195  0.1932
 1016MOL0     C37067   1.791   2.225   7.796  0.3619 -0.6649 -0.6469
 1016MOL0     C37068   1.686   2.138   7.870  0.4071 -0.3339  0.0072
 1016MOL0    Cl37069   1.665   1.993   7.768  0.2685  0.0776  0.2193
 1016MOL0     C37070   2.575   2.443   7.465 -0.4329 -0.2113  0.1640
 1016MOL0     C37071   2.716   2.452   7.435  0.0418  0.1693  0.2548
 1016MOL0     O37072   2.993   2.358   7.327 -0.5933  0.6349 -0.4006
 1016MOL0     C37073   3.128   2.666   7.253 -0.4456 -0.0807  1.0056
 1016MOL0     C37074   3.251   2.727   7.244  0.1291  0.6775  0.9488
 1016MOL0     N37075   3.316   3.101   7.021  0.1372 -1.0631  0.2344
 1016MOL0     N37076   3.247   3.205   6.987 -0.0604 -0.5736 -0.4297
 1016MOL0     C37077   3.657   4.142   7.444 -0.2838  0.3685  0.4200
 1016MOL0     C37078   3.793   4.177   7.456  0.1666  0.2073 -0.0516
 1016MOL0     C37079   4.230   4.173   7.583 -0.0007 -0.1515 -0.1012
 1016MOL0     C37080   4.276   4.105   7.694 -0.9793 -0.7008 -0.1760
 1016MOL0     C37081   4.403   4.121   7.743 -0.1904  0.0793 -0.4836
 1016MOL0     C37082   4.495   4.202   7.676 -0.0191 -0.2892  0.1803
 1016MOL0     O37083   4.616   4.209   7.745 -0.7557 -0.0534 -0.3280
 1016MOL0     C37084   4.722   4.272   7.678 -0.4972 -1.0632  0.9528
 1016MOL0     C37085   4.841   4.278   7.772  0.1120  0.4825 -0.4415
 1016MOL0     C37086   4.896   4.138   7.800 -0.3386 -0.2180  0.4091
 1016MOL0     C37087   5.020   4.141   7.894  0.2833  0.2107 -0.1928
 1016MOL0     C37088   5.126   4.201   7.813  0.4669  0.6539  0.3404
 1016MOL0     C37089   5.220   4.254   7.759  0.6637 -0.7959  0.2123
 1016MOL0     C37090   4.451   4.265   7.558  0.2529 -0.0107 -0.1067
 1016MOL0     C37091   4.321   4.251   7.509  0.1118  0.1714 -0.6681
 1016MOL0     C37092   4.284   4.335   7.389 -0.2495 -0.2615 -0.4217
 1016MOL0     H37093   3.868   3.993   7.735  1.4746 -0.8961 -0.6302
 1016MOL0     H37094   3.622   3.925   7.684 -2.3334 -1.0312 -3.0308
 1016MOL0     H37095   3.421   4.041   7.300  0.7018  0.2344  0.6182
 1016MOL0     H37096   3.540   3.921   7.332 -0.8366 -2.3316 -0.9754
 1016MOL0     H37097   3.236   3.904   7.398 -0.1337 -0.5611 -1.9485
 1016MOL0     H37098   3.358   3.782   7.441  0.8992  0.1291 -0.0092
 1016MOL0     H37099   3.391   3.754   7.186  0.4841  2.3392  0.3781
 1016MOL0     H37100   3.271   3.881   7.164  1.1450  1.0163 -0.0435
 1016MOL0     H37101   3.240   3.607   7.284  0.1082  0.1144 -2.1027
 1016MOL0     H37102   3.116   3.734   7.307  0.0578  0.0348  0.1422
 1016MOL0     H37103   3.046   3.614   7.114 -0.6990  0.4202 -0.6747
 1016MOL0     H37104   3.136   3.748   7.044 -0.2983  0.4990  0.6052
 1016MOL0     H37105   3.337   3.599   7.005  0.0488  0.4701  1.6527
 1016MOL0     H37106   3.248   3.471   7.096  0.1742 -1.0906 -1.8605
 1016MOL0     H37107   3.171   3.575   6.827 -0.0255 -0.6029  0.2075
 1016MOL0     H37108   3.091   3.441   6.903 -1.1123  1.7512 -3.7478
 1016MOL0     H37109   3.244   3.379   6.728 -1.6054  1.9620 -0.0194
 1016MOL0     H37110   3.385   3.465   6.815  1.6091 -1.2988  2.2764
 1016MOL0     H37111   3.516   3.270   6.822  0.1087  1.2188  1.8657
 1016MOL0     H37112   3.577   2.976   6.896  0.2233  0.2195  0.7587
 1016MOL0     H37113   3.662   3.077   7.005  1.2096 -1.0379 -3.1320
 1016MOL0     H37114   3.502   2.967   7.188  3.7873  2.6359 -0.4653
 1016MOL0     H37115   3.439   2.866   7.048 -0.7935 -0.2090 -0.5669
 1016MOL0     H37116   3.704   2.840   7.200  0.0120  1.2281 -1.2461
 1016MOL0     H37117   3.686   2.793   7.030  0.5049 -2.6975  0.2265
 1016MOL0     H37118   3.644   2.614   7.206  1.3653  0.7614  0.6921
 1016MOL0     H37119   3.512   2.658   7.087  2.7057  0.3813 -2.3591
 1016MOL0     H37120   3.444   2.511   7.412  0.8286  1.2576  0.5614
 1016MOL0     H37121   3.224   2.387   7.416  1.1003  1.2849  1.6627
 1016MOL0     H37122   2.723   2.648   7.164  2.2173 -1.0402  0.6712
 1016MOL0     H37123   2.453   2.601   7.198 -0.1087 -1.6225  0.6620
 1016MOL0     H37124   2.326   2.566   7.572  0.8288 -1.1104  1.0045
 1016MOL0     H37125   2.245   2.638   7.433  0.5902  2.0389  3.2489
 1016MOL0     H37126   2.113   2.405   7.434  0.5389 -0.7121 -0.2112
 1016MOL0     H37127   2.216   2.365   7.563  0.2342  1.8495  3.3309
 1016MOL0     H37128   2.095   2.594   7.676  0.7162  0.3231 -0.4702
 1016MOL0     H37129   1.984   2.551   7.545  1.1922  0.5616 -0.3544
 1016MOL0     H37130   2.080   2.356   7.755  0.0606  0.0358  0.3982
 1016MOL0     H37131   1.955   2.326   7.639 -1.7216 -0.3186  1.4225
 1016MOL0     H37132   1.825   2.521   7.755 -0.9566 -0.8424  0.3275
 1016MOL0     H37133   1.953   2.527   7.879  1.6404  1.2017 -2.3698
 1016MOL0     H37134   1.887   2.312   7.968 -0.3291 -2.0799 -0.2406
 1016MOL0     H37135   1.737   2.397   7.924  1.0852  3.9519 -2.1861
 1016MOL0     H37136   1.882   2.164   7.795  0.2356 -0.9376  1.1923
 1016MOL0     H37137   1.757   2.258   7.697  0.6824 -0.8429 -0.8196
 1016MOL0     H37138   1.724   2.127   7.973  1.2347 -2.3721 -0.4596
 1016MOL0     H37139   1.594   2.194   7.888  1.9297  1.8849  1.3111
 1016MOL0     H37140   2.544   2.396   7.558  4.2113 -0.7204  1.6945
 1016MOL0     H37141   2.785   2.409   7.506  1.2448  2.1295  0.3580
 1016MOL0     H37142   3.045   2.712   7.201  1.8498  0.8036 -2.2172
 1016MOL0     H37143   3.269   2.818   7.188  1.3098  1.6040  2.7413
 1016MOL0     H37144   3.612   4.185   7.355  0.2012 -1.5708 -0.8087
 1016MOL0     H37145   3.835   4.254   7.392  1.2087 -1.1715 -1.0907
 1016MOL0     H37146   4.208   4.053   7.761 -3.5439  2.3891 -0.1130
 1016MOL0     H37147   4.434   4.066   7.831  1.1139 -0.4019 -1.2321
 1016MOL0     H37148   4.700   4.374   7.647  2.2679 -0.1980  1.5530
 1016MOL0     H37149   4.750   4.225   7.583  3.9450  3.4529 -0.4459
 1016MOL0     H37150   4.806   4.314   7.870 -1.7852 -2.3021  0.0267
 1016MOL0     H37151   4.924   4.338   7.734 -0.8461  1.2699 -1.3834
 1016MOL0     H37152   4.920   4.082   7.709 -2.4711  1.7570 -1.5090
 1016MOL0     H37153   4.818   4.088   7.857 -1.3756 -0.4017 -1.1145
 1016MOL0     H37154   5.004   4.214   7.975  0.7134 -1.3932  1.4094
 1016MOL0     H37155   5.029   4.041   7.937 -0.0189 -0.6149 -1.9882
 1016MOL0     H37156   5.308   4.298   7.716  1.1946 -1.3350  0.7211
 1016MOL0     H37157   4.521   4.324   7.499 -1.4694 -0.0593 -2.3512
 1016MOL0     H37158   4.199   4.291   7.336  0.0829 -2.3279  0.6650
 1016MOL0     H37159   4.254   4.437   7.415  1.9019  0.8385 -1.9510
 1016MOL0     H37160   4.367   4.335   7.319  0.6459  1.2154  0.5796
 1017MOL0     O37161   0.553   2.139   2.784  1.0797  0.4677  0.3327
 1017MOL0     C37162   0.477   2.171   2.874 -0.3762 -0.6786  0.5064
 1017MOL0     O37163   0.512   2.190   3.007 -0.1732  0.1534 -0.1126
 1017MOL0     C37164   0.647   2.180   3.035 -0.5977 -0.2192  0.3815
 1017MOL0     C37165   0.695   2.071   3.110 -0.3910 -0.1423 -0.6952
 1017MOL0     C37166   0.832   2.056   3.137  0.6779  1.0468  1.0077
 1017MOL0     C37167   0.926   2.144   3.082  0.5201 -0.5424  1.5031
 1017MOL0     O37168   1.064   2.131   3.100  0.2603  0.0140 -0.5166
 1017MOL0     C37169   1.121   2.010   3.160  0.8921  0.3557 -0.6748
 1017MOL0     C37170   1.265   2.021   3.202 -0.7829 -0.1157 -0.1352
 1017MOL0     C37171   1.330   1.880   3.215  0.4709  0.9804 -0.3278
 1017MOL0     C37172   1.460   1.876   3.305 -0.0212 -0.3253  0.1380
 1017MOL0     C37173   1.567   1.979   3.260 -0.1909 -0.0411  0.9030
 1017MOL0     C37174   1.708   1.939   3.294  0.3932 -0.4755 -0.0603
 1017MOL0     C37175   1.807   2.062   3.269  1.0196  0.0545 -0.2891
 1017MOL0     C37176   1.951   2.022   3.275 -1.0978  0.9918 -0.0793
 1017MOL0     N37177   2.030   2.134   3.242 -0.3077 -0.5262 -0.3615
 1017MOL0     C37178   2.058   2.183   3.119 -0.6197  0.8133 -0.2957
 1017MOL0     C37179   2.140   2.289   3.147 -0.3901 -0.2372  0.3738
 1017MOL0     C37180   2.198   2.372   3.039 -0.2810  0.3691 -0.6098
 1017MOL0     C37181   2.353   2.381   3.056  0.2092  0.0495 -0.3226
 1017MOL0     C37182   2.425   2.448   3.185  0.0599 -0.3595  0.7809
 1017MOL0     C37183   2.562   2.514   3.145 -0.7798 -0.1959 -0.4685
 1017MOL0     O37184   2.658   2.421   3.113 -0.2503 -0.1390  0.4570
 1017MOL0     C37185   2.779   2.462   3.069  0.1029  0.3381  0.2842
 1017MOL0     C37186   2.854   2.366   3.003 -0.2123  1.0071  0.5177
 1017MOL0     C37187   2.979   2.398   2.950 -0.0200 -0.1498  0.0631
 1017MOL0     C37188   3.035   2.523   2.973  0.0242  0.1261  0.0888
 1017MOL0     C37189   3.167   2.568   2.929 -0.7867 -0.2018 -0.5910
 1017MOL0     O37190   3.219   2.692   2.966 -0.0851 -0.4681  0.7066
 1017MOL0     C37191   3.344   2.729   2.915 -0.2323  0.1380 -0.4040
 1017MOL0     C37192   3.361   2.855   2.842  0.0299 -0.7316  1.1047
 1017MOL0     C37193   3.490   2.882   2.785 -0.2226  1.3072  0.3968
 1017MOL0     C37194   3.599   2.789   2.801  0.4087 -0.5643 -0.2143
 1017MOL0     O37195   3.717   2.843   2.748  0.2187 -0.3705 -0.0368
 1017MOL0     C37196   3.836   2.767   2.788  0.1115 -0.0437 -0.5154
 1017MOL0     C37197   3.951   2.816   2.699 -0.6333  0.3272 -0.0706
 1017MOL0     C37198   4.082   2.776   2.760 -0.0796 -0.7602 -0.8070
 1017MOL0     C37199   4.203   2.809   2.674  0.4780  0.2667  0.7380
 1017MOL0     C37200   4.341   2.786   2.749 -0.2144 -0.5027 -0.1676
 1017MOL0     C37201   4.455   2.833   2.666 -0.5953  0.0141  0.1157
 1017MOL0     C37202   4.481   2.748   2.538 -0.1764  0.1985  0.5435
 1017MOL0     C37203   4.619   2.779   2.476 -0.1371  0.6973  0.4246
 1017MOL0    Cl37204   4.774   2.752   2.566  0.1595  0.2377 -0.4203
 1017MOL0     C37205   3.583   2.672   2.883  0.0692 -0.6460 -1.2526
 1017MOL0     C37206   3.467   2.647   2.943 -0.1154 -0.2230 -0.0167
 1017MOL0     O37207   3.216   2.492   2.849 -0.6748  0.0036  0.4261
 1017MOL0     C37208   2.959   2.621   3.035  0.4572  0.4380 -0.7228
 1017MOL0     C37209   2.827   2.594   3.083  0.0462  0.1020  0.5071
 1017MOL0     N37210   2.156   2.297   3.290  0.4019  0.0886  0.9735
 1017MOL0     N37211   2.085   2.209   3.337 -0.1139 -0.2300  0.5066
 1017MOL0     C37212   0.876   2.263   3.031 -0.7375  0.1628 -0.0412
 1017MOL0     C37213   0.742   2.285   3.012 -0.7905  0.2415 -0.6640
 1017MOL0     C37214   0.344   2.218   2.857 -0.1536  0.1411 -0.7474
 1017MOL0     C37215   0.285   2.325   2.940  0.6029  0.7510 -0.8075
 1017MOL0     C37216   0.155   2.370   2.913  0.2755  0.2345 -0.2811
 1017MOL0     C37217   0.085   2.306   2.811  0.2657  0.0202  0.7008
 1017MOL0     O37218  -0.039   2.347   2.774 -0.3252 -0.9736  0.2552
 1017MOL0     C37219  -0.125   2.423   2.855  0.0168  0.5248  0.6635
 1017MOL0     C37220  -0.260   2.422   2.790 -0.4791 -0.3387  0.5698
 1017MOL0     C37221  -0.354   2.530   2.858  0.0067  0.1162  0.2541
 1017MOL0     C37222  -0.496   2.535   2.787  0.3179  0.1162 -0.5583
 1017MOL0     C37223  -0.523   2.661   2.716 -0.4218 -0.2122  0.4026
 1017MOL0     C37224  -0.546   2.771   2.669  0.4322  1.1402 -0.5590
 1017MOL0     C37225   0.145   2.205   2.735  0.9988  0.2646 -0.7911
 1017MOL0     C37226   0.266   2.150   2.756 -0.8287  0.2737  0.0558
 1017MOL0     C37227   0.305   2.024   2.679  0.0889 -0.5566 -0.4435
 1017MOL0     H37228   0.636   1.999   3.166  0.1550 -0.9583 -1.1496
 1017MOL0     H37229   0.855   1.966   3.193 -0.7262  0.1641  0.2147
 1017MOL0     H37230   1.078   1.977   3.255 -0.7685  0.5199 -1.3397
 1017MOL0     H37231   1.109   1.926   3.090  1.5457  0.1955 -0.5972
 1017MOL0     H37232   1.276   2.071   3.299  3.7609 -1.0415  0.0873
 1017MOL0     H37233   1.319   2.075   3.123 -0.6320 -1.4318 -0.9566
 1017MOL0     H37234   1.350   1.840   3.116 -2.3442 -0.1546 -0.5289
 1017MOL0     H37235   1.258   1.815   3.265 -1.0103  1.9807 -1.1142
 1017MOL0     H37236   1.438   1.887   3.411 -0.1585  0.2254  0.0576
 1017MOL0     H37237   1.512   1.780   3.297  1.5271  0.3617  1.3648
 1017MOL0     H37238   1.567   1.993   3.152 -1.9530 -0.1392  0.8642
 1017MOL0     H37239   1.550   2.076   3.308 -0.9862  1.9639 -3.0473
 1017MOL0     H37240   1.719   1.903   3.397 -0.1090 -0.3324  0.0486
 1017MOL0     H37241   1.743   1.858   3.230 -2.5353  0.7722 -3.5350
 1017MOL0     H37242   1.791   2.140   3.344  1.0105 -0.1578 -0.0665
 1017MOL0     H37243   1.782   2.094   3.168  1.4104  0.7009 -0.1840
 1017MOL0     H37244   1.983   1.984   3.372 -0.5989  0.1711 -0.5496
 1017MOL0     H37245   1.977   1.939   3.208  3.4983  0.9772  1.3596
 1017MOL0     H37246   2.044   2.138   3.021 -3.6883  0.0820  0.3799
 1017MOL0     H37247   2.176   2.321   2.944  0.9190  0.8357 -1.1546
 1017MOL0     H37248   2.151   2.471   3.035 -3.0340 -0.7882  0.5210
 1017MOL0     H37249   2.391   2.279   3.063 -0.4027 -0.1926 -0.5341
 1017MOL0     H37250   2.385   2.437   2.968 -2.3403  1.2270 -0.5859
 1017MOL0     H37251   2.446   2.371   3.260 -0.1742 -2.1101 -0.8845
 1017MOL0     H37252   2.354   2.517   3.231 -0.4593  0.5503 -1.2678
 1017MOL0     H37253   2.595   2.568   3.234 -1.6232  1.5973 -1.1934
 1017MOL0     H37254   2.552   2.584   3.061 -0.1132  0.7392  0.2162
 1017MOL0     H37255   2.797   2.278   2.976  1.0847  0.6781 -1.3120
 1017MOL0     H37256   3.028   2.320   2.892 -1.3466 -1.3928  0.5207
 1017MOL0     H37257   3.277   2.922   2.827 -3.6559 -4.8243  1.3645
 1017MOL0     H37258   3.501   2.976   2.731  0.4410  2.3590  2.2969
 1017MOL0     H37259   3.852   2.779   2.895 -2.7769 -0.1039  0.0023
 1017MOL0     H37260   3.827   2.660   2.768  1.1870 -0.4329  0.9238
 1017MOL0     H37261   3.946   2.765   2.602 -0.0046 -0.6512  0.4004
 1017MOL0     H37262   3.961   2.925   2.688 -0.3739  0.4524  1.2973
 1017MOL0     H37263   4.090   2.820   2.860 -3.0511  1.5601 -1.4365
 1017MOL0     H37264   4.072   2.668   2.772 -1.0912 -0.6158 -0.1496
 1017MOL0     H37265   4.201   2.914   2.644  1.8071  0.7054  2.0800
 1017MOL0     H37266   4.198   2.758   2.578  1.8063 -0.5631  1.0871
 1017MOL0     H37267   4.340   2.679   2.773  0.5379 -0.5783 -0.4497
 1017MOL0     H37268   4.351   2.849   2.838  2.3308 -1.3713  0.2184
 1017MOL0     H37269   4.444   2.939   2.641  1.8092  0.2523 -0.2102
 1017MOL0     H37270   4.541   2.820   2.733 -1.7819 -2.8075  1.2508
 1017MOL0     H37271   4.419   2.789   2.458 -0.8827 -0.7705  0.5886
 1017MOL0     H37272   4.484   2.640   2.551  3.2518  0.2199  0.8564
 1017MOL0     H37273   4.615   2.719   2.384  0.1554 -0.8743  1.3952
 1017MOL0     H37274   4.633   2.886   2.461  1.8199  0.5911  1.1745
 1017MOL0     H37275   3.667   2.606   2.903  0.7960 -0.0548 -2.2026
 1017MOL0     H37276   3.451   2.561   3.006  0.3410 -0.6727 -0.5111
 1017MOL0     H37277   2.989   2.723   3.056 -0.8045  0.9389 -1.2672
 1017MOL0     H37278   2.768   2.674   3.127  1.1906  2.3324 -1.7349
 1017MOL0     H37279   0.951   2.335   3.002 -0.3498 -1.2250 -2.8552
 1017MOL0     H37280   0.708   2.377   2.966 -0.2656 -0.7470 -3.2011
 1017MOL0     H37281   0.335   2.367   3.027 -0.8481 -0.6967  0.8261
 1017MOL0     H37282   0.110   2.451   2.970 -0.4033  0.9424 -1.7646
 1017MOL0     H37283  -0.079   2.523   2.864 -0.4169  0.8431 -0.4513
 1017MOL0     H37284  -0.130   2.373   2.952  1.0075 -1.3152 -0.1987
 1017MOL0     H37285  -0.304   2.322   2.793 -0.3186 -0.3804  2.8897
 1017MOL0     H37286  -0.251   2.449   2.684 -0.1400  1.6087  1.0524
 1017MOL0     H37287  -0.306   2.627   2.873  0.1240 -0.3063  3.1915
 1017MOL0     H37288  -0.368   2.491   2.959  0.3981  0.0523  0.2864
 1017MOL0     H37289  -0.498   2.452   2.716  0.0313 -1.8530  1.6548
 1017MOL0     H37290  -0.569   2.504   2.862  0.6094  0.8002  0.0236
 1017MOL0     H37291  -0.570   2.866   2.626  0.0778  1.4054  0.1895
 1017MOL0     H37292   0.085   2.169   2.652 -3.3546  2.8310  0.8766
 1017MOL0     H37293   0.342   2.039   2.577 -1.6218  1.0349 -0.8931
 1017MOL0     H37294   0.386   1.975   2.733 -0.4878  0.9361  1.9004
 1017MOL0     H37295   0.218   1.958   2.674  1.4932 -2.3871 -2.9392
 1018MOL0     O37296  10.585   0.607   2.904 -0.0693 -0.4109  0.4567
 1018MOL0     C37297  10.637   0.629   3.014  0.0514 -0.7005  1.2052
 1018MOL0     O37298  10.575   0.669   3.127  0.1648  0.4551 -0.7587
 1018MOL0     C37299  10.435   0.675   3.145  0.4155 -0.1363 -0.5422
 1018MOL0     C37300  10.333   0.597   3.074 -0.3910 -0.2680 -0.5348
 1018MOL0     C37301  10.203   0.609   3.115 -0.6866 -0.3661 -1.2380
 1018MOL0     C37302  10.166   0.707   3.209  0.5087  0.2305  1.1653
 1018MOL0     O37303  10.038   0.722   3.241  0.2169  0.6481  0.9509
 1018MOL0     C37304   9.929   0.669   3.168  0.7355  0.5336 -0.1312
 1018MOL0     C37305   9.794   0.716   3.226 -0.0269  1.2644 -0.7603
 1018MOL0     C37306   9.775   0.872   3.219  0.0455 -0.1941  0.4708
 1018MOL0     C37307   9.768   0.937   3.072 -0.2481  0.4320 -0.0534
 1018MOL0     C37308   9.750   1.089   3.068 -0.2589 -1.4813 -1.1732
 1018MOL0     C37309   9.854   1.165   3.165  0.8860  0.0144 -0.6145
 1018MOL0     C37310   9.841   1.313   3.142 -0.3441 -0.8798  0.0379
 1018MOL0     C37311   9.947   1.388   3.234  1.0432 -0.0674  0.5521
 1018MOL0     N37312  10.088   1.373   3.194 -0.9481 -0.9743  0.2579
 1018MOL0     C37313  10.146   1.415   3.075  0.4718 -0.2082  0.3206
 1018MOL0     C37314  10.279   1.395   3.084  0.0963  0.2407 -0.4897
 1018MOL0     C37315  10.383   1.449   2.975 -0.1390 -0.3264 -0.0620
 1018MOL0     C37316  10.531   1.427   3.025 -0.6013 -1.1289  0.7157
 1018MOL0     C37317  10.585   1.569   3.063 -0.1881  0.5212  0.2283
 1018MOL0     C37318  10.735   1.566   3.081  0.4355 -0.3480  0.0690
 1018MOL0     O37319  10.771   1.470   3.184 -0.1603  0.4498 -0.1801
 1018MOL0     C37320  10.905   1.447   3.210  0.5043  0.7027 -0.4268
 1018MOL0     C37321  11.013   1.499   3.138  1.0866 -0.1413 -0.0415
 1018MOL0     C37322  11.143   1.486   3.182 -0.2502  1.9204 -0.9407
 1018MOL0     C37323  11.177   1.412   3.298 -0.3869 -0.1788 -1.1191
 1018MOL0     C37324  11.315   1.396   3.348  0.0396 -0.1315 -1.1760
 1018MOL0     O37325  11.345   1.330   3.463  0.0705  0.0432  0.4919
 1018MOL0     C37326  11.467   1.345   3.522  0.0940 -0.7813  0.3236
 1018MOL0     C37327  11.529   1.244   3.587  0.3710  0.3133  0.4428
 1018MOL0     C37328  11.644   1.253   3.665 -0.3976 -0.2544  0.6087
 1018MOL0     C37329  11.707   1.374   3.683 -0.5142  0.0372 -1.2104
 1018MOL0     O37330  11.808   1.405   3.772 -0.2856  0.5018 -1.4165
 1018MOL0     C37331  11.886   1.306   3.835  0.7008 -0.3088  0.3781
 1018MOL0     C37332  12.013   1.366   3.896 -0.4934  0.2975  0.1912
 1018MOL0     C37333  12.132   1.261   3.903  0.7988  0.1069  0.8163
 1018MOL0     C37334  12.138   1.225   4.049  0.4366  0.0988  0.3606
 1018MOL0     C37335  12.228   1.117   4.089 -0.3949 -0.2872  0.3251
 1018MOL0     C37336  12.364   1.119   4.014  0.4167  0.1616  0.2481
 1018MOL0     C37337  12.445   1.243   4.029 -0.0979  0.0475 -1.0855
 1018MOL0     C37338  12.590   1.223   3.969  0.1029  0.9610  0.2711
 1018MOL0    Cl37339  12.699   1.186   4.113  0.0428  0.1357 -0.3630
 1018MOL0     C37340  11.653   1.484   3.612  0.0147  0.5531  0.5000
 1018MOL0     C37341  11.535   1.473   3.534  0.0795  0.2943  0.4333
 1018MOL0     O37342  11.400   1.454   3.291 -0.1699  0.1944  0.4579
 1018MOL0     C37343  11.069   1.348   3.361 -0.6951 -0.1938 -0.5702
 1018MOL0     C37344  10.937   1.371   3.324  0.0858  0.7592 -0.6481
 1018MOL0     N37345  10.296   1.329   3.210 -0.3365  0.0743  0.2804
 1018MOL0     N37346  10.179   1.314   3.277 -0.0502  0.6383  0.3807
 1018MOL0     C37347  10.262   0.784   3.277  0.0418 -0.0158 -0.5670
 1018MOL0     C37348  10.400   0.761   3.251 -0.6728 -0.6533  0.0602
 1018MOL0     C37349  10.785   0.641   3.023 -1.1553 -0.1257 -0.1196
 1018MOL0     C37350  10.843   0.630   3.155 -0.0753 -0.0285 -0.7217
 1018MOL0     C37351  10.983   0.644   3.168  0.1559 -0.2863 -0.1011
 1018MOL0     C37352  11.071   0.670   3.067 -0.4708  0.5696 -0.2532
 1018MOL0     O37353  11.200   0.685   3.107 -0.3867  0.5916 -0.2721
 1018MOL0     C37354  11.303   0.691   3.007  0.4070  0.1539 -0.5606
 1018MOL0     C37355  11.327   0.545   2.954 -0.3273 -0.5073  0.3039
 1018MOL0     C37356  11.391   0.452   3.057 -0.4203 -0.8036 -0.0784
 1018MOL0     C37357  11.403   0.305   3.008  1.0864  0.3370 -0.2463
 1018MOL0     C37358  11.507   0.296   2.901 -0.1512  0.2045  0.6519
 1018MOL0     C37359  11.598   0.295   2.815  0.4881  1.6037  0.0720
 1018MOL0     C37360  11.010   0.668   2.936  0.5778 -0.2589  0.3701
 1018MOL0     C37361  10.868   0.665   2.911 -0.8088  0.0428  0.2409
 1018MOL0     C37362  10.831   0.692   2.766 -0.5757 -0.2371 -1.1086
 1018MOL0     H37363  10.357   0.512   3.011 -1.7677 -1.1413  0.0584
 1018MOL0     H37364  10.130   0.548   3.062 -1.5913  1.6372 -2.4352
 1018MOL0     H37365   9.947   0.691   3.062  0.6306 -0.9090 -0.4667
 1018MOL0     H37366   9.937   0.562   3.188 -0.0474  0.4778 -0.0782
 1018MOL0     H37367   9.784   0.682   3.330  0.2016 -3.7180 -2.1333
 1018MOL0     H37368   9.724   0.659   3.164  0.1020  0.7870 -0.4735
 1018MOL0     H37369   9.869   0.910   3.259  0.9008 -0.4107 -1.2381
 1018MOL0     H37370   9.689   0.900   3.280  1.0431  4.6141  0.0200
 1018MOL0     H37371   9.860   0.911   3.020 -0.1231 -0.2151  0.4598
 1018MOL0     H37372   9.676   0.894   3.031 -1.5820  2.2184  0.9624
 1018MOL0     H37373   9.769   1.117   2.964  2.7544  1.2083 -0.0667
 1018MOL0     H37374   9.646   1.113   3.094 -0.2568 -0.9153 -1.6635
 1018MOL0     H37375   9.819   1.146   3.267 -0.2354 -2.7820 -1.4267
 1018MOL0     H37376   9.954   1.121   3.170  0.3750 -1.2136 -0.8920
 1018MOL0     H37377   9.741   1.347   3.168  0.3126  2.2592 -1.0244
 1018MOL0     H37378   9.870   1.349   3.043  1.6784  0.5969  1.0683
 1018MOL0     H37379   9.910   1.489   3.252 -2.4049 -0.9838 -0.5656
 1018MOL0     H37380   9.939   1.354   3.337  1.6647  2.0517  1.3574
 1018MOL0     H37381  10.096   1.467   2.994  3.3103  1.3129 -0.5912
 1018MOL0     H37382  10.365   1.386   2.887  2.0228 -1.7585  0.4294
 1018MOL0     H37383  10.363   1.555   2.957 -1.5901 -0.8390 -1.7816
 1018MOL0     H37384  10.536   1.361   3.112 -0.1206 -1.0960  0.7150
 1018MOL0     H37385  10.588   1.374   2.948  3.7917 -1.2414  3.6993
 1018MOL0     H37386  10.534   1.594   3.156 -3.2593  0.6532 -1.3578
 1018MOL0     H37387  10.564   1.638   2.981 -1.0813  0.4387  0.3790
 1018MOL0     H37388  10.760   1.666   3.117 -1.2268 -0.2653  1.1124
 1018MOL0     H37389  10.783   1.541   2.986  2.8362 -1.7662  1.5620
 1018MOL0     H37390  10.985   1.560   3.052 -1.6026 -1.4935 -0.2492
 1018MOL0     H37391  11.214   1.534   3.114  0.5344  0.1205 -1.4371
 1018MOL0     H37392  11.470   1.153   3.589 -1.7496  1.6291  0.4226
 1018MOL0     H37393  11.680   1.162   3.714 -1.2329 -1.7282 -1.3981
 1018MOL0     H37394  11.821   1.262   3.911 -0.0054 -1.8113 -1.0201
 1018MOL0     H37395  11.914   1.227   3.764  0.6958  0.6862 -0.7630
 1018MOL0     H37396  12.054   1.443   3.831 -1.5665  0.1247 -0.7151
 1018MOL0     H37397  11.985   1.411   3.992 -1.0374 -2.1704  1.2829
 1018MOL0     H37398  12.106   1.177   3.838  4.9925  0.4444 -1.6093
 1018MOL0     H37399  12.224   1.307   3.867 -1.2885  1.4251 -3.5109
 1018MOL0     H37400  12.040   1.213   4.097 -0.0515 -0.8516 -0.7901
 1018MOL0     H37401  12.181   1.314   4.095  0.1917  0.9373 -0.9926
 1018MOL0     H37402  12.176   1.028   4.052 -1.8386  0.6738 -0.0521
 1018MOL0     H37403  12.239   1.113   4.198 -5.3562 -4.7617  1.1126
 1018MOL0     H37404  12.422   1.028   4.033 -1.9832 -1.5903 -0.2879
 1018MOL0     H37405  12.343   1.118   3.906  2.6168 -0.3134 -0.2408
 1018MOL0     H37406  12.456   1.278   4.131 -0.9377  1.2521 -1.3880
 1018MOL0     H37407  12.403   1.334   3.986 -2.7988  0.0865  1.3429
 1018MOL0     H37408  12.582   1.148   3.889 -2.3624  1.4172  0.0162
 1018MOL0     H37409  12.632   1.309   3.916  2.1643 -0.3638 -0.4039
 1018MOL0     H37410  11.706   1.579   3.621  3.0571 -0.8531 -1.1616
 1018MOL0     H37411  11.501   1.567   3.491  1.8012  2.3354  3.2310
 1018MOL0     H37412  11.102   1.285   3.442  2.2436  2.0972  0.2082
 1018MOL0     H37413  10.860   1.322   3.382 -0.2153  0.9269 -0.8996
 1018MOL0     H37414  10.231   0.854   3.354  2.2704 -1.3700  1.7372
 1018MOL0     H37415  10.470   0.821   3.308 -2.7500  0.0632  1.9972
 1018MOL0     H37416  10.792   0.616   3.249 -0.6813  1.5968 -0.7746
 1018MOL0     H37417  11.028   0.642   3.267 -0.4236 -3.8712  0.1942
 1018MOL0     H37418  11.390   0.735   3.058  0.7822  0.5868 -1.5510
 1018MOL0     H37419  11.284   0.765   2.929  2.3455  2.9378  1.4088
 1018MOL0     H37420  11.385   0.544   2.862 -2.2307  0.1925 -0.9646
 1018MOL0     H37421  11.232   0.501   2.921  0.8422 -2.1184 -1.0850
 1018MOL0     H37422  11.319   0.454   3.139 -1.2885  1.1012 -0.8240
 1018MOL0     H37423  11.486   0.485   3.101 -1.7071  0.8252  1.6648
 1018MOL0     H37424  11.422   0.235   3.091 -1.1012  1.0176  0.8934
 1018MOL0     H37425  11.304   0.277   2.973  1.0926 -1.7523  1.2409
 1018MOL0     H37426  11.675   0.300   2.741 -0.4801  1.8279 -0.9565
 1018MOL0     H37427  11.083   0.683   2.857 -0.2685 -0.7251 -0.5177
 1018MOL0     H37428  10.889   0.766   2.709  1.5259 -1.7733 -1.0848
 1018MOL0     H37429  10.814   0.597   2.715 -2.0946  0.6413 -2.3350
 1018MOL0     H37430  10.738   0.749   2.767  0.5399  1.6936  0.9141
 1019MOL0     O37431   6.679  11.191   4.852  0.0779  0.2563  0.3254
 1019MOL0     C37432   6.735  11.161   4.960  0.0347  0.2184  0.8083
 1019MOL0     O37433   6.786  11.248   5.045  1.0555  0.4733  0.3901
 1019MOL0     C37434   6.853  11.355   4.996  0.5052  0.1436  0.4443
 1019MOL0     C37435   6.872  11.462   5.083  0.1018 -0.2989  0.2230
 1019MOL0     C37436   6.954  11.573   5.055  0.1802  0.1430  0.5155
 1019MOL0     C37437   7.013  11.581   4.925  0.1874 -0.3880 -0.0526
 1019MOL0     O37438   7.078  11.698   4.894 -0.2009  0.1498  0.3312
 1019MOL0     C37439   7.206  11.680   4.820 -0.0880 -0.5125  0.1592
 1019MOL0     C37440   7.248  11.823   4.777  0.8563 -0.7673 -0.2971
 1019MOL0     C37441   7.380  11.816   4.707  0.0242 -0.1177  0.6906
 1019MOL0     C37442   7.426  11.949   4.648  0.0482 -0.2354 -0.3164
 1019MOL0     C37443   7.568  11.932   4.595  0.1562  0.4211 -0.5554
 1019MOL0     C37444   7.613  12.070   4.536  0.2722 -0.3167 -0.2359
 1019MOL0     C37445   7.762  12.081   4.533  0.8344 -0.1741  0.4003
 1019MOL0     C37446   7.808  12.203   4.444 -0.1597  0.0990 -0.2629
 1019MOL0     N37447   7.954  12.191   4.412  0.5103  0.6047  0.6871
 1019MOL0     C37448   8.007  12.104   4.323 -0.5984  0.8613  0.3186
 1019MOL0     C37449   8.143  12.102   4.355 -0.4134 -1.1190 -0.1539
 1019MOL0     C37450   8.243  11.989   4.327  0.3029  0.4987  0.2374
 1019MOL0     C37451   8.324  11.998   4.202 -0.2861 -0.3989  0.6796
 1019MOL0     C37452   8.410  12.131   4.200 -0.1250 -0.1903 -0.3266
 1019MOL0     C37453   8.529  12.126   4.293 -0.0933 -0.7493  0.1153
 1019MOL0     O37454   8.594  12.253   4.305 -0.3492 -0.5395  0.6635
 1019MOL0     C37455   8.698  12.264   4.387  0.3006  0.3164 -0.3043
 1019MOL0     C37456   8.705  12.203   4.509  0.0111  0.3050 -0.9414
 1019MOL0     C37457   8.813  12.229   4.592 -0.3640 -0.4977 -1.1110
 1019MOL0     C37458   8.916  12.301   4.550 -0.1007 -0.1736  0.2678
 1019MOL0     C37459   9.034  12.313   4.648 -0.4606 -0.1129  0.4332
 1019MOL0     O37460   9.091  12.439   4.654 -0.5120 -0.3483  0.1851
 1019MOL0     C37461   9.202  12.459   4.734 -0.1748 -0.9340 -0.0792
 1019MOL0     C37462   9.200  12.421   4.867 -1.9297 -0.0017  0.2075
 1019MOL0     C37463   9.302  12.461   4.943 -0.2561  0.0252 -0.8139
 1019MOL0     C37464   9.418  12.542   4.900 -0.0690 -0.9267 -0.1077
 1019MOL0     O37465   9.519  12.583   4.992  0.3494  0.2259 -0.2388
 1019MOL0     C37466   9.607  12.692   4.941 -0.1826 -0.1627 -0.3527
 1019MOL0     C37467   9.690  12.754   5.058  0.2503  1.1713 -0.1514
 1019MOL0     C37468   9.795  12.661   5.121 -0.3941 -0.3065 -0.0127
 1019MOL0     C37469   9.841  12.708   5.257 -0.1573 -0.0634 -0.2632
 1019MOL0     C37470   9.938  12.600   5.311  0.5548 -0.5219 -0.1776
 1019MOL0     C37471   9.943  12.621   5.461  0.1568 -0.1599 -0.1155
 1019MOL0     C37472  10.031  12.529   5.547  0.2510 -0.2022 -0.4645
 1019MOL0     C37473  10.180  12.512   5.503 -0.3362 -0.4359  0.6716
 1019MOL0    Cl37474  10.286  12.451   5.636  0.5839  0.1076 -0.4789
 1019MOL0     C37475   9.408  12.566   4.760 -0.4026  0.6685 -0.0356
 1019MOL0     C37476   9.308  12.535   4.677 -0.2676  0.0598 -0.7098
 1019MOL0     O37477   9.057  12.220   4.729 -0.2090 -0.2077 -0.0253
 1019MOL0     C37478   8.910  12.373   4.429 -0.2292  0.5401 -0.8858
 1019MOL0     C37479   8.792  12.356   4.350 -0.2234  0.2645 -0.2190
 1019MOL0     N37480   8.165  12.210   4.440 -0.2036 -0.0588  0.8683
 1019MOL0     N37481   8.052  12.267   4.459 -0.2440 -0.2518 -0.5076
 1019MOL0     C37482   6.982  11.483   4.833 -0.2183 -0.0769 -0.1482
 1019MOL0     C37483   6.906  11.371   4.867 -0.2286  0.6210  0.5668
 1019MOL0     C37484   6.740  11.014   4.998 -0.2336  0.1554 -0.5697
 1019MOL0     C37485   6.721  10.922   4.894 -0.3004 -0.0703 -0.7654
 1019MOL0     C37486   6.703  10.789   4.927 -0.5401 -0.1804  0.7195
 1019MOL0     C37487   6.713  10.743   5.057  0.2266  0.2197  1.0369
 1019MOL0     O37488   6.680  10.611   5.069  0.0529  0.4185  0.1366
 1019MOL0     C37489   6.640  10.546   5.194  0.6015  0.4165  0.1823
 1019MOL0     C37490   6.519  10.446   5.164  0.1532 -1.3886  0.2582
 1019MOL0     C37491   6.493  10.348   5.282 -0.3555  0.1357 -0.0988
 1019MOL0     C37492   6.382  10.243   5.245  0.4983 -0.5885 -0.0875
 1019MOL0     C37493   6.248  10.307   5.223 -0.3044  0.1652 -0.3971
 1019MOL0     C37494   6.134  10.353   5.203 -0.0032 -0.9015  0.0022
 1019MOL0     C37495   6.734  10.834   5.163 -0.2435 -0.3875  0.2886
 1019MOL0     C37496   6.756  10.972   5.133  1.0499 -0.6515  0.2819
 1019MOL0     C37497   6.785  11.053   5.249 -0.2426  0.0910 -0.4204
 1019MOL0     H37498   6.830  11.465   5.184  2.5843  2.7337  1.3103
 1019MOL0     H37499   6.974  11.630   5.145 -1.5268 -1.1952  1.8284
 1019MOL0     H37500   7.290  11.638   4.876  0.1008  1.7115  1.6434
 1019MOL0     H37501   7.186  11.619   4.731 -0.0878 -2.2835  1.3158
 1019MOL0     H37502   7.257  11.880   4.869 -2.9019 -0.0174 -0.2555
 1019MOL0     H37503   7.176  11.868   4.709  1.5236 -1.0453 -1.2188
 1019MOL0     H37504   7.366  11.748   4.623  2.2758  0.1864  0.0005
 1019MOL0     H37505   7.461  11.782   4.772  1.4926  1.8694  0.0137
 1019MOL0     H37506   7.360  11.998   4.576  3.5664  4.6699 -0.6809
 1019MOL0     H37507   7.438  12.018   4.732  0.1954 -1.3323  0.5848
 1019MOL0     H37508   7.628  11.894   4.678  0.4926  2.6107  0.2845
 1019MOL0     H37509   7.562  11.856   4.517  0.1843 -1.1250  0.8815
 1019MOL0     H37510   7.570  12.079   4.436  0.3182  0.7938 -0.1671
 1019MOL0     H37511   7.578  12.151   4.601 -2.3012 -0.7352 -0.9955
 1019MOL0     H37512   7.812  11.991   4.495 -0.8831 -0.5652 -1.0714
 1019MOL0     H37513   7.801  12.105   4.632 -0.0532  1.8408  0.3049
 1019MOL0     H37514   7.736  12.203   4.362 -2.6843  3.1506  1.7093
 1019MOL0     H37515   7.799  12.297   4.499  3.2691 -0.9351  2.4467
 1019MOL0     H37516   7.954  12.038   4.256  1.8972  0.9214 -1.8676
 1019MOL0     H37517   8.311  11.980   4.412 -0.4097  0.3056  0.7988
 1019MOL0     H37518   8.188  11.895   4.317  0.4494  0.5765 -1.8958
 1019MOL0     H37519   8.400  11.919   4.192  0.3131  0.1262  1.0058
 1019MOL0     H37520   8.258  11.986   4.116  3.6100 -3.2688 -2.3162
 1019MOL0     H37521   8.341  12.210   4.233  0.2912  0.1175 -0.1950
 1019MOL0     H37522   8.439  12.148   4.096 -1.6382  0.7214 -0.6370
 1019MOL0     H37523   8.599  12.051   4.253  0.7770  0.2609 -0.3059
 1019MOL0     H37524   8.507  12.097   4.396  1.2442  0.0545  0.6552
 1019MOL0     H37525   8.616  12.152   4.544  0.4541  0.1653  0.0166
 1019MOL0     H37526   8.815  12.178   4.688 -2.7764 -1.9402 -1.7335
 1019MOL0     H37527   9.114  12.369   4.908 -1.7235  0.9535  1.9733
 1019MOL0     H37528   9.300  12.433   5.048 -0.3920 -0.6144 -0.9855
 1019MOL0     H37529   9.684  12.662   4.868 -0.3397 -0.4393 -0.4021
 1019MOL0     H37530   9.542  12.764   4.890  0.5358  1.9024  1.4747
 1019MOL0     H37531   9.730  12.849   5.020  2.6820 -0.0902 -0.9061
 1019MOL0     H37532   9.616  12.775   5.136 -3.8291 -3.7410 -2.0970
 1019MOL0     H37533   9.748  12.564   5.142 -4.5532  2.0182  3.1805
 1019MOL0     H37534   9.885  12.652   5.060 -0.4873 -1.7906  0.0292
 1019MOL0     H37535   9.753  12.714   5.322 -0.6000  1.7855 -0.9548
 1019MOL0     H37536   9.881  12.810   5.254  2.0115 -0.6331  3.2017
 1019MOL0     H37537  10.036  12.613   5.265  0.6719  1.1083  0.4934
 1019MOL0     H37538   9.901  12.502   5.277 -2.0234  0.1964  0.3253
 1019MOL0     H37539   9.980  12.724   5.471 -0.7639  0.5507 -2.9113
 1019MOL0     H37540   9.842  12.599   5.495  0.8970  0.3647  2.6370
 1019MOL0     H37541   9.973  12.438   5.565 -2.2628  1.7097  2.0288
 1019MOL0     H37542  10.022  12.581   5.643 -2.4411  0.7733 -1.1626
 1019MOL0     H37543  10.182  12.445   5.416  1.4429  1.5859 -0.9661
 1019MOL0     H37544  10.222  12.607   5.468 -1.7360  0.5508  1.5670
 1019MOL0     H37545   9.494  12.609   4.709  1.5512 -0.6162  2.0073
 1019MOL0     H37546   9.306  12.549   4.570 -1.8576  0.3685 -0.6650
 1019MOL0     H37547   8.990  12.435   4.389 -0.2641 -0.4807 -2.6365
 1019MOL0     H37548   8.792  12.380   4.244  2.2375 -0.4044 -0.4358
 1019MOL0     H37549   7.018  11.483   4.730  0.2058  1.4822 -0.0276
 1019MOL0     H37550   6.896  11.297   4.788  2.6502  0.3233  0.3741
 1019MOL0     H37551   6.710  10.966   4.795 -0.3963  4.4861  0.9960
 1019MOL0     H37552   6.685  10.709   4.856 -0.2867 -0.2986  0.7866
 1019MOL0     H37553   6.610  10.614   5.274  4.5702  0.0479  2.2107
 1019MOL0     H37554   6.713  10.476   5.235  2.2607  1.8398 -0.2296
 1019MOL0     H37555   6.547  10.388   5.076  1.1678 -0.1139 -0.2936
 1019MOL0     H37556   6.430  10.502   5.133  1.7247  0.0912 -1.8918
 1019MOL0     H37557   6.482  10.402   5.376  0.6427  1.7403 -0.8667
 1019MOL0     H37558   6.588  10.294   5.297 -0.2191  0.2667 -0.4912
 1019MOL0     H37559   6.413  10.187   5.156 -2.5530 -0.2773 -1.4813
 1019MOL0     H37560   6.367  10.182   5.334  0.6617 -0.5426 -0.0285
 1019MOL0     H37561   6.039  10.400   5.185  0.5425 -0.3913 -1.7757
 1019MOL0     H37562   6.752  10.790   5.261 -1.2004  1.8271  1.5268
 1019MOL0     H37563   6.737  11.006   5.334  0.6323 -0.2927 -0.1251
 1019MOL0     H37564   6.893  11.059   5.268 -0.0788 -1.4578 -0.7855
 1019MOL0     H37565   6.746  11.155   5.245 -1.0175 -0.1785  0.1573
 1020MOL0     O37566   2.755   0.943  10.712  0.2566 -0.6480 -0.2682
 1020MOL0     C37567   2.719   1.004  10.813  0.1896  0.6561  0.5233
 1020MOL0     O37568   2.804   1.064  10.902 -0.7751  0.1652 -0.3532
 1020MOL0     C37569   2.940   1.074  10.872  0.1219  0.0060  0.5838
 1020MOL0     C37570   3.008   0.959  10.822  0.4965 -0.2450 -0.2482
 1020MOL0     C37571   3.143   0.965  10.796 -0.5659 -0.0900  0.3303
 1020MOL0     C37572   3.206   1.079  10.812 -0.7482 -0.2641 -0.5259
 1020MOL0     O37573   3.344   1.077  10.777  0.0784  0.3227  0.0367
 1020MOL0     C37574   3.438   1.144  10.861 -0.4204  0.1778  0.3022
 1020MOL0     C37575   3.577   1.123  10.807 -0.0310 -0.2178 -0.5805
 1020MOL0     C37576   3.679   1.168  10.903  0.1165 -0.1208 -0.1383
 1020MOL0     C37577   3.811   1.136  10.845 -0.1309 -0.5190  0.5104
 1020MOL0     C37578   3.914   1.168  10.954  0.1243  0.1704  0.3852
 1020MOL0     C37579   4.054   1.173  10.897 -0.5071  1.0215 -0.8924
 1020MOL0     C37580   4.131   1.038  10.881  0.1003  0.0402 -1.0147
 1020MOL0     C37581   4.184   0.966  11.002 -0.4682  0.5714  0.9823
 1020MOL0     N37582   4.319   1.006  11.054  0.0310 -0.2153  0.6273
 1020MOL0     C37583   4.433   0.947  11.011 -0.4450  0.0720 -0.6667
 1020MOL0     C37584   4.525   1.012  11.094  0.3405  0.6119 -0.9170
 1020MOL0     C37585   4.668   0.978  11.074  0.2272 -0.2303  0.2066
 1020MOL0     C37586   4.722   0.865  11.154  0.1369  0.4948  0.7599
 1020MOL0     C37587   4.775   0.921  11.296 -0.0130 -0.2369  0.4170
 1020MOL0     C37588   4.928   0.956  11.294  0.1435 -0.6490 -0.3045
 1020MOL0     O37589   5.005   0.835  11.266 -0.0084  0.6021 -0.1561
 1020MOL0     C37590   5.140   0.862  11.260 -0.1348  0.8003  0.0056
 1020MOL0     C37591   5.201   0.763  11.184  0.3688  0.0627  0.2980
 1020MOL0     C37592   5.346   0.756  11.190 -0.1771 -0.3348  0.4398
 1020MOL0     C37593   5.420   0.852  11.252 -0.6608 -0.1830  0.0877
 1020MOL0     C37594   5.568   0.846  11.249 -0.0279 -0.9206  0.5507
 1020MOL0     O37595   5.632   0.768  11.147  0.2260 -0.4891  0.2657
 1020MOL0     C37596   5.769   0.762  11.145  0.3280  0.5002 -0.5489
 1020MOL0     C37597   5.846   0.881  11.165 -0.1963 -0.4168  0.3013
 1020MOL0     C37598   5.985   0.864  11.152 -0.1605 -0.8243 -0.1334
 1020MOL0     C37599   6.054   0.740  11.125 -0.1181  0.0756 -0.0628
 1020MOL0     O37600   6.185   0.748  11.111  0.5057  0.0689 -0.2386
 1020MOL0     C37601   6.276   0.629  11.146  0.9791 -0.1378  0.8583
 1020MOL0     C37602   6.424   0.671  11.117  1.2150  0.5356  0.8437
 1020MOL0     C37603   6.477   0.780  11.209 -0.5133 -0.3407 -0.2289
 1020MOL0     C37604   6.639   0.784  11.218 -0.3978 -0.5155 -0.1587
 1020MOL0     C37605   6.710   0.829  11.087  0.4414  0.1571 -0.7598
 1020MOL0     C37606   6.858   0.864  11.117  0.4518  0.6625  0.4482
 1020MOL0     C37607   6.921   0.925  10.985 -1.1698 -0.5056 -0.0483
 1020MOL0     C37608   7.070   0.920  11.008  0.5268  0.2520  0.6575
 1020MOL0    Cl37609   7.167   1.019  10.886  0.6433 -0.1746 -0.6296
 1020MOL0     C37610   5.978   0.632  11.125 -0.3774  0.2925  0.2010
 1020MOL0     C37611   5.836   0.641  11.135 -0.6832 -0.1309  0.5026
 1020MOL0     O37612   5.625   0.914  11.336  0.4338 -0.5682 -0.2010
 1020MOL0     C37613   5.351   0.954  11.328 -0.1318  0.5218  0.2556
 1020MOL0     C37614   5.214   0.958  11.320 -0.3233 -0.0975  0.6719
 1020MOL0     N37615   4.465   1.093  11.182 -0.0033  0.1541  0.0664
 1020MOL0     N37616   4.344   1.086  11.164 -0.3146  0.5951  0.1468
 1020MOL0     C37617   3.145   1.196  10.873 -0.1561 -0.2893 -0.4100
 1020MOL0     C37618   3.009   1.192  10.896 -0.3449  1.3867 -1.3048
 1020MOL0     C37619   2.577   1.017  10.839 -0.4072  0.9143  0.6503
 1020MOL0     C37620   2.531   1.003  10.968 -0.0812  0.4299  0.4292
 1020MOL0     C37621   2.397   0.999  10.998  0.1431  0.3847 -0.7510
 1020MOL0     C37622   2.301   1.028  10.905  0.3773  0.4369  0.5738
 1020MOL0     O37623   2.165   1.040  10.925  0.2645  0.0796 -0.5819
 1020MOL0     C37624   2.100   0.962  11.028 -0.2950 -0.6789 -0.3413
 1020MOL0     C37625   1.956   1.021  11.024  0.3080  0.2051  0.3955
 1020MOL0     C37626   1.894   0.989  10.890 -0.7383  0.4039  0.4260
 1020MOL0     C37627   1.757   1.052  10.877 -0.4954 -0.1411 -0.2887
 1020MOL0     C37628   1.654   0.962  10.938 -0.3951 -0.1455  0.4935
 1020MOL0     C37629   1.564   0.881  10.975 -1.3104  0.2984 -0.4624
 1020MOL0     C37630   2.342   1.058  10.778  0.0722  0.4528  0.8694
 1020MOL0     C37631   2.483   1.053  10.743  0.3348 -0.0006  0.5147
 1020MOL0     C37632   2.520   1.092  10.601  0.4142  1.5015  0.1304
 1020MOL0     H37633   2.956   0.865  10.811 -0.2440  0.0211  0.7915
 1020MOL0     H37634   3.196   0.878  10.759  2.3647  0.8056  1.9844
 1020MOL0     H37635   3.424   1.252  10.868  1.6703  0.3596  3.5705
 1020MOL0     H37636   3.429   1.089  10.955 -1.1665 -2.2972 -1.1016
 1020MOL0     H37637   3.599   1.180  10.716  0.5629 -0.6102 -0.6820
 1020MOL0     H37638   3.598   1.017  10.792 -0.0137 -0.5499  1.4980
 1020MOL0     H37639   3.654   1.120  10.998 -3.3299  0.0238 -0.8212
 1020MOL0     H37640   3.683   1.273  10.933  4.4012  0.1048 -0.9104
 1020MOL0     H37641   3.827   1.034  10.809  1.8875  0.6300 -2.2601
 1020MOL0     H37642   3.825   1.208  10.764  0.7817 -0.4651  0.7046
 1020MOL0     H37643   3.895   1.271  10.985 -1.4741  0.9020 -2.6927
 1020MOL0     H37644   3.912   1.100  11.040 -2.1057  0.6410  0.7664
 1020MOL0     H37645   4.077   1.226  10.804  1.9858  0.5864 -0.5883
 1020MOL0     H37646   4.112   1.225  10.975  0.1847 -0.8542 -0.1059
 1020MOL0     H37647   4.218   1.050  10.815  0.4419 -2.0574 -1.0170
 1020MOL0     H37648   4.065   0.966  10.833  1.9047 -2.7864  0.4560
 1020MOL0     H37649   4.112   0.980  11.083  2.5650  1.8925  3.7045
 1020MOL0     H37650   4.173   0.858  10.983 -0.0833  0.3660  1.8715
 1020MOL0     H37651   4.452   0.864  10.945 -0.8237 -2.4154  2.1430
 1020MOL0     H37652   4.672   0.952  10.968  1.0546  0.8904 -0.0569
 1020MOL0     H37653   4.723   1.071  11.087 -0.3341  0.1878 -0.3575
 1020MOL0     H37654   4.638   0.795  11.160  0.8686 -0.3974  0.8841
 1020MOL0     H37655   4.801   0.802  11.112 -1.0356 -0.6508  0.2059
 1020MOL0     H37656   4.775   0.839  11.368  1.6459  0.0488  0.7807
 1020MOL0     H37657   4.712   1.000  11.336 -0.3163 -1.6042  2.7812
 1020MOL0     H37658   4.960   1.007  11.385 -0.0053 -2.1262  0.6190
 1020MOL0     H37659   4.936   1.029  11.213 -2.7206 -1.4921 -1.4686
 1020MOL0     H37660   5.146   0.695  11.119  2.0456  0.0228 -1.1603
 1020MOL0     H37661   5.404   0.672  11.152 -0.5969 -0.7122  0.6172
 1020MOL0     H37662   5.804   0.979  11.183 -0.3794 -0.4409  0.0229
 1020MOL0     H37663   6.061   0.939  11.169 -2.0762  0.5777  3.1842
 1020MOL0     H37664   6.273   0.597  11.250  3.5896 -1.3141  0.6370
 1020MOL0     H37665   6.249   0.545  11.082  0.5260 -0.5125  1.5247
 1020MOL0     H37666   6.492   0.586  11.136  0.6587  0.3652  2.2116
 1020MOL0     H37667   6.426   0.696  11.011 -0.2761 -1.7353  0.2106
 1020MOL0     H37668   6.462   0.874  11.156  1.2405 -0.3099 -0.7440
 1020MOL0     H37669   6.433   0.786  11.309  0.3829  0.7859  0.1140
 1020MOL0     H37670   6.680   0.687  11.247  3.4893  1.2779  1.0489
 1020MOL0     H37671   6.654   0.858  11.297 -0.8927 -0.8732  0.2840
 1020MOL0     H37672   6.664   0.921  11.049  2.5189  1.6086  0.0164
 1020MOL0     H37673   6.704   0.751  11.011 -0.5874 -1.0506  0.5219
 1020MOL0     H37674   6.855   0.944  11.192 -0.9756  1.1820 -0.1255
 1020MOL0     H37675   6.918   0.777  11.145 -0.5440 -0.2721 -0.2342
 1020MOL0     H37676   6.892   1.030  10.979  0.6914  0.0088 -0.7428
 1020MOL0     H37677   6.893   0.870  10.894  1.1654  0.5824 -1.5287
 1020MOL0     H37678   7.098   0.956  11.107 -0.9857 -0.9769  1.5762
 1020MOL0     H37679   7.115   0.821  10.991 -2.3995 -0.7711 -2.2759
 1020MOL0     H37680   6.025   0.535  11.114 -0.7355  0.1833 -0.3650
 1020MOL0     H37681   5.780   0.550  11.121 -0.8751 -0.2211  1.8104
 1020MOL0     H37682   5.411   1.022  11.388  0.0535  0.8760 -0.3144
 1020MOL0     H37683   5.177   1.042  11.377 -0.3808  2.7030 -3.1002
 1020MOL0     H37684   3.203   1.282  10.903 -1.1804 -0.0444  0.9489
 1020MOL0     H37685   2.956   1.282  10.927  0.1280  2.1646 -2.6983
 1020MOL0     H37686   2.601   0.980  11.047 -1.1615 -1.3736  0.9215
 1020MOL0     H37687   2.364   0.985  11.100 -2.7164  0.3618 -1.6111
 1020MOL0     H37688   2.147   0.980  11.125  3.0325  0.9671 -2.0924
 1020MOL0     H37689   2.102   0.854  11.011 -0.4761 -0.4002 -2.4607
 1020MOL0     H37690   1.944   1.129  11.037  1.0923  0.5273 -1.2799
 1020MOL0     H37691   1.900   0.952  11.087 -0.0224  0.3319  0.2439
 1020MOL0     H37692   1.890   0.880  10.883  2.8558  0.1286  0.3494
 1020MOL0     H37693   1.954   1.011  10.801  0.2487  1.4526  1.3159
 1020MOL0     H37694   1.755   1.150  10.926  1.7580  0.6257 -1.5954
 1020MOL0     H37695   1.729   1.070  10.773  1.5227  2.2310 -0.5118
 1020MOL0     H37696   1.496   0.805  11.007  0.7678 -1.1053  0.8614
 1020MOL0     H37697   2.259   1.085  10.714  0.2653 -0.1770  0.3438
 1020MOL0     H37698   2.430   1.107  10.541 -1.7983 -0.4725  2.7391
 1020MOL0     H37699   2.581   1.183  10.599  1.8532  0.6256 -2.8440
 1020MOL0     H37700   2.568   1.004  10.556 -0.5339  0.5039  1.0230
 1021MOL0     O37701   6.951   8.989   2.466  0.3020 -0.3862 -0.4782
 1021MOL0     C37702   7.004   8.923   2.382 -0.5035  0.0635 -0.1066
 1021MOL0     O37703   6.933   8.881   2.272  0.4198 -0.0597  0.3440
 1021MOL0     C37704   6.793   8.876   2.286 -0.3866  0.3514  0.1276
 1021MOL0     C37705   6.735   8.749   2.322 -0.7336  0.0317  0.2912
 1021MOL0     C37706   6.595   8.743   2.352  0.4451 -0.5630  0.6591
 1021MOL0     C37707   6.515   8.854   2.326 -0.0376 -0.1196 -0.7962
 1021MOL0     O37708   6.374   8.834   2.339  1.2121  0.4470  0.0929
 1021MOL0     C37709   6.287   8.886   2.235 -0.0905 -0.7660  0.1430
 1021MOL0     C37710   6.132   8.884   2.286 -0.3285  0.1537  0.2523
 1021MOL0     C37711   6.046   8.962   2.193 -0.6531 -0.9774 -0.0146
 1021MOL0     C37712   5.908   8.942   2.240 -0.3822 -1.3925  0.0720
 1021MOL0     C37713   5.822   9.056   2.171 -0.5651 -0.2278  0.1932
 1021MOL0     C37714   5.772   9.011   2.037 -0.4300  0.4603  0.0712
 1021MOL0     C37715   5.678   9.107   1.976 -0.0882 -0.1558 -0.4933
 1021MOL0     C37716   5.638   9.068   1.837 -0.4725  0.1643  0.4905
 1021MOL0     N37717   5.745   9.084   1.737 -0.0172  0.5197 -0.0792
 1021MOL0     C37718   5.766   9.197   1.666 -0.4782  0.6743  0.4107
 1021MOL0     C37719   5.894   9.181   1.611  0.6935 -0.3030  0.0821
 1021MOL0     C37720   5.976   9.284   1.535 -0.8474 -0.0501 -0.5756
 1021MOL0     C37721   6.031   9.242   1.398  1.0843 -0.0959  0.4612
 1021MOL0     C37722   5.925   9.200   1.299  0.2317  0.5284  0.6523
 1021MOL0     C37723   5.969   9.135   1.165 -0.0561 -0.1622 -0.8999
 1021MOL0     O37724   6.032   9.240   1.079  0.3602 -0.0767 -0.0449
 1021MOL0     C37725   6.145   9.195   1.018  0.2974  0.7970  0.0130
 1021MOL0     C37726   6.164   9.071   0.949  0.1808  0.1643  0.2058
 1021MOL0     C37727   6.292   9.049   0.891  0.7401  0.1198 -0.5127
 1021MOL0     C37728   6.398   9.135   0.906  0.5472 -0.0739 -0.6335
 1021MOL0     C37729   6.527   9.109   0.849 -0.1259  0.3536  0.3393
 1021MOL0     O37730   6.547   8.980   0.800  0.1272 -0.3493 -0.0589
 1021MOL0     C37731   6.652   8.978   0.712  0.6362 -0.1338 -0.0250
 1021MOL0     C37732   6.645   9.044   0.590  0.4187  0.2853 -0.0089
 1021MOL0     C37733   6.751   9.030   0.502 -0.0483 -0.3609  0.0750
 1021MOL0     C37734   6.870   8.962   0.539  0.4220  0.2279 -0.2157
 1021MOL0     O37735   6.971   8.944   0.441 -0.3300 -0.5493  0.2343
 1021MOL0     C37736   7.094   8.870   0.476 -1.1871 -0.2548 -0.0037
 1021MOL0     C37737   7.181   8.858   0.353  0.1896  0.0637  0.2527
 1021MOL0     C37738   7.329   8.828   0.393 -1.2675 -0.0322 -0.1605
 1021MOL0     C37739   7.421   8.817   0.274  0.4920 -0.0486 -0.3746
 1021MOL0     C37740   7.568   8.792   0.327 -0.5354  1.0130  0.0306
 1021MOL0     C37741   7.652   8.764   0.209 -0.1153 -0.2947  0.3919
 1021MOL0     C37742   7.789   8.771   0.262 -0.5973  0.3469  0.6377
 1021MOL0     C37743   7.897   8.754   0.151  0.0345  0.0766 -0.9922
 1021MOL0    Cl37744   8.070   8.767   0.223  0.2672 -0.3238  0.2459
 1021MOL0     C37745   6.875   8.912   0.666 -0.1993 -0.2725 -0.0128
 1021MOL0     C37746   6.764   8.908   0.747  0.0721  0.1038  0.2352
 1021MOL0     O37747   6.610   9.195   0.856  0.6920 -0.5762  0.1689
 1021MOL0     C37748   6.377   9.257   0.970  0.4981 -0.0704 -0.3981
 1021MOL0     C37749   6.247   9.286   1.019 -0.2383 -0.7198  0.2761
 1021MOL0     N37750   5.936   9.053   1.643 -0.0004 -0.5335  0.3916
 1021MOL0     N37751   5.855   9.001   1.724  0.2311  0.0204  0.2466
 1021MOL0     C37752   6.572   8.977   2.294 -0.1520 -0.0985 -0.2703
 1021MOL0     C37753   6.708   8.990   2.278 -0.4270  0.3936 -0.0370
 1021MOL0     C37754   7.150   8.904   2.390 -0.6468 -0.8346 -0.4247
 1021MOL0     C37755   7.209   8.797   2.323  0.5034 -0.3809  0.2901
 1021MOL0     C37756   7.346   8.778   2.314  0.3539  0.3959  0.9152
 1021MOL0     C37757   7.427   8.879   2.364 -0.1231  0.6815  0.2616
 1021MOL0     O37758   7.562   8.857   2.351 -0.1963 -0.2392 -0.2153
 1021MOL0     C37759   7.632   8.968   2.306 -1.2904  0.2473 -0.8050
 1021MOL0     C37760   7.788   8.949   2.291  0.3950 -0.4052 -1.4451
 1021MOL0     C37761   7.838   8.822   2.225 -0.5033  0.6093 -0.3860
 1021MOL0     C37762   7.982   8.820   2.197  0.0528  0.5002 -0.0493
 1021MOL0     C37763   8.062   8.782   2.315 -0.5517 -0.6628  0.3644
 1021MOL0     C37764   8.150   8.753   2.390  0.2052 -1.3501  0.4630
 1021MOL0     C37765   7.378   8.987   2.434 -1.0645  0.1306 -0.4822
 1021MOL0     C37766   7.242   8.995   2.447  0.6148 -0.0357 -0.3293
 1021MOL0     C37767   7.200   9.110   2.538  0.2593  0.1826  0.1564
 1021MOL0     H37768   6.804   8.667   2.336 -0.6121  0.3123  1.3874
 1021MOL0     H37769   6.530   8.660   2.375 -0.0654 -0.5964 -0.8161
 1021MOL0     H37770   6.323   8.986   2.211 -0.4221 -1.0520 -1.7054
 1021MOL0     H37771   6.296   8.832   2.141  4.0721 -1.1561  0.5903
 1021MOL0     H37772   6.124   8.926   2.387 -3.2962 -0.4543  0.3608
 1021MOL0     H37773   6.096   8.783   2.304 -0.5157  0.1484 -0.1384
 1021MOL0     H37774   6.054   8.924   2.091  1.7339  0.7539 -0.5802
 1021MOL0     H37775   6.083   9.065   2.199 -0.8046 -0.9408  0.3197
 1021MOL0     H37776   5.869   8.844   2.211 -0.8226 -1.2914  0.3149
 1021MOL0     H37777   5.901   8.944   2.350  0.4841 -1.2595  0.1312
 1021MOL0     H37778   5.737   9.058   2.240 -1.7936  0.5662 -1.2804
 1021MOL0     H37779   5.878   9.150   2.169  1.9459 -1.6177  0.6247
 1021MOL0     H37780   5.857   8.993   1.971 -1.3466  1.5554 -1.4786
 1021MOL0     H37781   5.726   8.911   2.034 -0.9946  0.7068  0.2989
 1021MOL0     H37782   5.726   9.205   1.979  1.2753 -0.8153  0.4298
 1021MOL0     H37783   5.589   9.115   2.039  0.7991  0.0155  0.7928
 1021MOL0     H37784   5.615   8.961   1.840 -0.2364 -0.0358 -2.3894
 1021MOL0     H37785   5.549   9.122   1.806 -1.6996 -0.3461  2.8911
 1021MOL0     H37786   5.707   9.288   1.659 -0.8850  0.3558 -0.3827
 1021MOL0     H37787   5.910   9.370   1.521 -0.3179  0.7007  1.2703
 1021MOL0     H37788   6.063   9.309   1.596  1.2294 -1.0390 -2.9308
 1021MOL0     H37789   6.071   9.326   1.342  1.0583  0.8152  1.7584
 1021MOL0     H37790   6.106   9.162   1.405  1.1701 -0.0974 -0.3930
 1021MOL0     H37791   5.848   9.277   1.287  0.0219  0.3928  1.1042
 1021MOL0     H37792   5.865   9.122   1.348  1.5824 -0.2620  1.1116
 1021MOL0     H37793   5.884   9.078   1.126 -0.3778 -0.9423  0.8130
 1021MOL0     H37794   6.042   9.056   1.186  1.4421  1.3056 -0.3359
 1021MOL0     H37795   6.095   8.989   0.931  0.1360  0.5226 -1.3209
 1021MOL0     H37796   6.311   8.951   0.847 -0.4258 -2.1339  3.5419
 1021MOL0     H37797   6.553   9.094   0.562  0.1693  0.8577  1.6979
 1021MOL0     H37798   6.743   9.057   0.398 -0.6425 -3.4967 -0.8009
 1021MOL0     H37799   7.149   8.928   0.551  0.4840  0.3285 -1.5914
 1021MOL0     H37800   7.069   8.773   0.520  0.3308 -0.3993  0.6262
 1021MOL0     H37801   7.138   8.772   0.301 -2.1306  0.5885  1.1762
 1021MOL0     H37802   7.166   8.946   0.289  0.1772 -0.2199 -0.1374
 1021MOL0     H37803   7.367   8.908   0.455  0.7756  0.2010 -1.6184
 1021MOL0     H37804   7.344   8.739   0.455  2.4857  2.2247  2.5224
 1021MOL0     H37805   7.408   8.915   0.227  1.8811 -0.2297 -1.1879
 1021MOL0     H37806   7.388   8.735   0.209  2.2722 -0.0846 -1.3007
 1021MOL0     H37807   7.558   8.717   0.406 -0.6212  1.7777  0.7592
 1021MOL0     H37808   7.593   8.880   0.387 -1.7567  0.8769  0.7702
 1021MOL0     H37809   7.629   8.666   0.165  2.3384 -1.0457  0.6181
 1021MOL0     H37810   7.633   8.841   0.134 -0.2041 -1.3158 -0.6537
 1021MOL0     H37811   7.808   8.684   0.326  1.8912 -1.9499 -2.8599
 1021MOL0     H37812   7.805   8.869   0.308 -1.5380  0.7307  0.1739
 1021MOL0     H37813   7.880   8.655   0.108  1.3316 -1.0189  0.8709
 1021MOL0     H37814   7.889   8.836   0.078  1.8122  0.8589 -0.3845
 1021MOL0     H37815   6.964   8.871   0.713  0.9715  1.4256 -0.6126
 1021MOL0     H37816   6.765   8.858   0.844 -2.7866  1.4371  1.0358
 1021MOL0     H37817   6.461   9.322   0.996  3.3023 -3.5366 -0.0768
 1021MOL0     H37818   6.220   9.372   1.079 -2.5722 -0.0758 -1.5630
 1021MOL0     H37819   6.495   9.054   2.291 -1.7412 -1.6642 -1.6868
 1021MOL0     H37820   6.751   9.089   2.261 -0.3913  0.4144  0.1730
 1021MOL0     H37821   7.157   8.711   2.280  1.1369  1.0047 -3.7402
 1021MOL0     H37822   7.384   8.682   2.280 -3.1854 -0.3827 -1.3450
 1021MOL0     H37823   7.632   9.044   2.384 -1.5847 -3.2263  2.9362
 1021MOL0     H37824   7.590   9.015   2.216 -0.9850  1.1525 -0.4800
 1021MOL0     H37825   7.820   8.957   2.395 -0.8418  0.3866 -1.1077
 1021MOL0     H37826   7.825   9.035   2.233  0.7237  0.9238  0.6190
 1021MOL0     H37827   7.788   8.797   2.130  1.6390 -2.0178 -0.9699
 1021MOL0     H37828   7.823   8.728   2.280 -2.5136  1.0680 -0.0826
 1021MOL0     H37829   8.001   8.741   2.124  2.5586  0.7138  0.2799
 1021MOL0     H37830   8.011   8.917   2.153  1.9450  0.1676  0.3763
 1021MOL0     H37831   8.240   8.716   2.436  2.5109  1.1220 -1.6978
 1021MOL0     H37832   7.445   9.051   2.491 -1.2954 -0.8257  0.9233
 1021MOL0     H37833   7.287   9.167   2.571 -0.9133  1.0562  1.9040
 1021MOL0     H37834   7.119   9.175   2.502 -0.9376 -1.1479  0.3401
 1021MOL0     H37835   7.159   9.064   2.628  2.2099  0.1514  1.0682
 1022MOL0     O37836   3.211   0.648   5.421  0.4589  0.3611 -0.1576
 1022MOL0     C37837   3.144   0.663   5.525  0.2517  0.3422  0.0644
 1022MOL0     O37838   3.183   0.706   5.643  0.5653 -0.0773  0.6435
 1022MOL0     C37839   3.290   0.793   5.645 -0.4624 -0.0456  0.2359
 1022MOL0     C37840   3.420   0.746   5.637 -0.1194  0.2913  1.2058
 1022MOL0     C37841   3.528   0.840   5.636  0.1699 -0.0905 -0.4576
 1022MOL0     C37842   3.511   0.981   5.645  0.4694 -0.3411  0.6363
 1022MOL0     O37843   3.625   1.055   5.632 -0.2292  0.4409  0.2446
 1022MOL0     C37844   3.630   1.162   5.538  0.5760 -0.7301  0.8293
 1022MOL0     C37845   3.766   1.177   5.483  0.3049 -0.5876 -0.0355
 1022MOL0     C37846   3.875   1.206   5.590 -0.3755 -1.0113 -0.4557
 1022MOL0     C37847   4.001   1.180   5.513  0.5089  0.5821  0.1734
 1022MOL0     C37848   4.133   1.198   5.593 -0.1284 -0.0339 -0.2178
 1022MOL0     C37849   4.254   1.209   5.510  0.2934 -0.1358  1.2316
 1022MOL0     C37850   4.383   1.187   5.583 -0.8856  0.2271 -0.2858
 1022MOL0     C37851   4.499   1.218   5.489  0.3238  0.3543 -0.1103
 1022MOL0     N37852   4.627   1.183   5.557 -0.7363  0.7823  0.4328
 1022MOL0     C37853   4.687   1.054   5.558 -0.6099  0.3854 -0.2442
 1022MOL0     C37854   4.803   1.073   5.622 -0.1590 -0.7312 -0.5191
 1022MOL0     C37855   4.909   0.956   5.651 -0.5691 -0.3922  0.0518
 1022MOL0     C37856   5.040   0.957   5.564 -0.8008  0.0732  0.3655
 1022MOL0     C37857   5.004   0.971   5.417  0.1133 -0.4398  0.4748
 1022MOL0     C37858   5.125   0.980   5.336 -0.2126  0.3989  0.3765
 1022MOL0     O37859   5.169   1.115   5.367 -0.1656 -0.0816 -0.0712
 1022MOL0     C37860   5.291   1.151   5.321  0.1344 -0.2954  0.2786
 1022MOL0     C37861   5.389   1.063   5.265  0.9690  0.0286 -0.8774
 1022MOL0     C37862   5.510   1.110   5.222 -0.7013 -1.2613 -0.3170
 1022MOL0     C37863   5.560   1.239   5.263  0.4785 -0.3669  0.3208
 1022MOL0     C37864   5.697   1.276   5.235 -0.5723  0.2174 -0.3519
 1022MOL0     O37865   5.742   1.393   5.289  0.5517 -0.5825 -0.8975
 1022MOL0     C37866   5.869   1.437   5.254 -0.3147  0.1109  0.1776
 1022MOL0     C37867   5.977   1.402   5.337  0.6746  0.2540  0.7152
 1022MOL0     C37868   6.095   1.466   5.329 -0.5328 -0.1621  0.3552
 1022MOL0     C37869   6.125   1.559   5.233  0.7354  0.5232 -0.7610
 1022MOL0     O37870   6.251   1.610   5.216 -0.7219 -0.6701 -1.2032
 1022MOL0     C37871   6.353   1.519   5.236 -0.2314  0.3718  0.0407
 1022MOL0     C37872   6.483   1.583   5.207 -0.5064  0.1621  0.4294
 1022MOL0     C37873   6.603   1.490   5.228 -0.0927 -0.1412  0.4785
 1022MOL0     C37874   6.732   1.576   5.240  0.1099 -0.7731 -0.7287
 1022MOL0     C37875   6.840   1.493   5.289 -0.0644 -0.3016  0.2780
 1022MOL0     C37876   6.966   1.589   5.278 -0.0825 -0.1594 -0.7068
 1022MOL0     C37877   7.103   1.512   5.321 -0.7107 -0.8319  1.3802
 1022MOL0     C37878   7.229   1.580   5.258 -0.0096  0.3131  0.2155
 1022MOL0    Cl37879   7.370   1.501   5.323  0.0857  0.3001  0.1494
 1022MOL0     C37880   6.026   1.591   5.141  1.3921 -0.1335  0.5733
 1022MOL0     C37881   5.892   1.537   5.157 -0.4176  0.0388  0.4110
 1022MOL0     O37882   5.753   1.217   5.142 -0.5194  0.0254  0.8745
 1022MOL0     C37883   5.470   1.321   5.324  0.0133 -0.5974 -0.1115
 1022MOL0     C37884   5.334   1.283   5.341  0.2749 -0.2373 -1.2142
 1022MOL0     N37885   4.813   1.204   5.658  0.3070 -0.4518 -0.4577
 1022MOL0     N37886   4.703   1.268   5.620  0.5919  0.1128 -0.5138
 1022MOL0     C37887   3.378   1.032   5.645 -0.3988  0.1132  0.0803
 1022MOL0     C37888   3.273   0.935   5.662 -1.0669 -0.0209  0.6072
 1022MOL0     C37889   2.999   0.620   5.522  0.0446 -0.3381  0.3520
 1022MOL0     C37890   2.952   0.514   5.595  0.3419  0.5688 -0.1948
 1022MOL0     C37891   2.813   0.496   5.607 -0.6317  0.4180 -0.3284
 1022MOL0     C37892   2.723   0.573   5.532 -0.4583  0.3429 -0.1015
 1022MOL0     O37893   2.586   0.554   5.538 -1.5179  0.0818 -0.4743
 1022MOL0     C37894   2.550   0.425   5.504  0.3926 -0.0728 -0.3480
 1022MOL0     C37895   2.462   0.370   5.622  0.2402 -0.5791  0.1196
 1022MOL0     C37896   2.327   0.437   5.628 -0.8071 -0.1129 -0.4973
 1022MOL0     C37897   2.233   0.367   5.543 -0.9204  0.0600  0.3562
 1022MOL0     C37898   2.103   0.441   5.535 -0.0061  0.5247 -0.8157
 1022MOL0     C37899   2.002   0.507   5.520 -0.4963 -0.5886  0.6441
 1022MOL0     C37900   2.770   0.671   5.443  0.6326  0.5251 -0.4000
 1022MOL0     C37901   2.909   0.700   5.440  0.3106 -0.8232  0.0153
 1022MOL0     C37902   2.955   0.807   5.334 -0.8612  0.0305 -0.6569
 1022MOL0     H37903   3.438   0.640   5.651 -0.2844  0.1673  0.5369
 1022MOL0     H37904   3.633   0.813   5.634  0.6727  1.2773  2.4540
 1022MOL0     H37905   3.563   1.133   5.456  2.3733  2.1528 -1.8990
 1022MOL0     H37906   3.591   1.256   5.578  0.9839 -0.6711  1.0897
 1022MOL0     H37907   3.774   1.258   5.410  5.1035 -0.9585 -0.2012
 1022MOL0     H37908   3.789   1.085   5.429 -1.5452  0.3224 -2.6275
 1022MOL0     H37909   3.860   1.160   5.688 -2.8296  2.1329  0.8058
 1022MOL0     H37910   3.867   1.313   5.611  2.8055 -0.5045 -1.2211
 1022MOL0     H37911   4.001   1.077   5.477 -0.5774  0.9495 -0.9220
 1022MOL0     H37912   4.005   1.246   5.427 -1.8188  0.3185 -0.2025
 1022MOL0     H37913   4.124   1.294   5.645  2.6722 -0.2376  0.7957
 1022MOL0     H37914   4.133   1.129   5.678 -1.7900  0.3380  0.1193
 1022MOL0     H37915   4.235   1.141   5.426 -1.4195  3.6976 -1.8397
 1022MOL0     H37916   4.259   1.311   5.470 -0.8954 -0.1972  0.8622
 1022MOL0     H37917   4.385   1.081   5.609 -0.8889  0.7705  2.0691
 1022MOL0     H37918   4.398   1.249   5.672  2.3808 -0.4125 -0.2613
 1022MOL0     H37919   4.487   1.167   5.394 -1.6768 -0.0975  0.3379
 1022MOL0     H37920   4.504   1.325   5.466  1.1858  0.1075 -1.1393
 1022MOL0     H37921   4.650   0.973   5.496 -1.6884  2.7154 -2.8842
 1022MOL0     H37922   4.933   0.957   5.758  0.3686 -0.0315 -0.1508
 1022MOL0     H37923   4.864   0.859   5.629  2.2220 -1.1716 -3.1333
 1022MOL0     H37924   5.103   1.036   5.606  0.4206 -1.1653  0.9246
 1022MOL0     H37925   5.087   0.859   5.575 -0.0089  0.6858  3.2635
 1022MOL0     H37926   4.948   1.064   5.406 -1.2138 -1.2288  0.4181
 1022MOL0     H37927   4.936   0.897   5.374  0.4974  0.5781 -2.0418
 1022MOL0     H37928   5.106   0.959   5.231 -1.6061  0.3411  0.6193
 1022MOL0     H37929   5.198   0.912   5.382 -0.6991 -0.7587 -0.5144
 1022MOL0     H37930   5.351   0.962   5.253 -0.7659  0.4761  0.4019
 1022MOL0     H37931   5.584   1.048   5.172  1.9304  0.4957  1.1428
 1022MOL0     H37932   5.950   1.319   5.401 -2.5218 -1.5154 -2.5285
 1022MOL0     H37933   6.175   1.430   5.394 -0.9809 -2.0035 -0.0704
 1022MOL0     H37934   6.361   1.488   5.341 -0.4358  2.4587  0.7078
 1022MOL0     H37935   6.334   1.433   5.171 -3.3308  1.6662 -0.9257
 1022MOL0     H37936   6.490   1.627   5.107 -1.8892 -1.2421 -0.3241
 1022MOL0     H37937   6.486   1.669   5.275 -0.1940  1.1276 -0.7639
 1022MOL0     H37938   6.593   1.439   5.324  3.7163  1.7327  2.1149
 1022MOL0     H37939   6.608   1.420   5.144  0.0654 -0.3173  0.6314
 1022MOL0     H37940   6.720   1.660   5.309  2.2676  0.3944 -1.6748
 1022MOL0     H37941   6.759   1.617   5.143 -0.8059 -1.1755 -1.1680
 1022MOL0     H37942   6.855   1.413   5.216 -4.7485  1.2770 -2.8671
 1022MOL0     H37943   6.816   1.463   5.392 -0.3560 -1.7481 -0.1800
 1022MOL0     H37944   6.976   1.625   5.175  3.0697 -1.6993 -1.0672
 1022MOL0     H37945   6.962   1.670   5.352  4.3942 -0.4628  0.1298
 1022MOL0     H37946   7.094   1.409   5.286 -1.0331 -0.2292 -0.4630
 1022MOL0     H37947   7.110   1.513   5.430 -0.0398 -0.0494  1.3414
 1022MOL0     H37948   7.219   1.570   5.149 -2.0073  1.7227  0.2156
 1022MOL0     H37949   7.227   1.686   5.286 -0.5688 -0.4915  3.6935
 1022MOL0     H37950   6.021   1.672   5.069 -1.4781  0.8675  1.7500
 1022MOL0     H37951   5.818   1.579   5.089 -0.9180  0.6307  1.2966
 1022MOL0     H37952   5.490   1.425   5.351 -0.7089 -0.4161 -0.2507
 1022MOL0     H37953   5.264   1.358   5.379 -1.1106 -1.2271 -1.7380
 1022MOL0     H37954   3.354   1.138   5.642 -0.1267  0.1867  0.4256
 1022MOL0     H37955   3.170   0.969   5.673 -1.5512 -0.6827 -1.3201
 1022MOL0     H37956   3.020   0.453   5.653 -3.2975 -2.4416  1.3230
 1022MOL0     H37957   2.777   0.421   5.677  1.3337  1.1433  1.5951
 1022MOL0     H37958   2.634   0.355   5.497 -0.2903 -1.0928  1.1326
 1022MOL0     H37959   2.501   0.438   5.406  0.0452 -2.1279 -0.4925
 1022MOL0     H37960   2.517   0.384   5.715  1.2200 -0.0583 -0.5133
 1022MOL0     H37961   2.455   0.262   5.604  0.3287 -0.5161 -0.3065
 1022MOL0     H37962   2.350   0.543   5.615  1.3890  0.0019  2.9034
 1022MOL0     H37963   2.285   0.418   5.728  1.1085 -0.0733  0.3618
 1022MOL0     H37964   2.276   0.353   5.443 -1.8388 -1.6428  0.1531
 1022MOL0     H37965   2.209   0.270   5.588  0.1379  0.4958  1.9416
 1022MOL0     H37966   1.907   0.557   5.511 -1.3017 -2.4594 -3.1149
 1022MOL0     H37967   2.689   0.712   5.384 -0.5800 -2.0300 -0.6400
 1022MOL0     H37968   3.053   0.846   5.364 -1.2113  0.3304  0.1063
 1022MOL0     H37969   2.955   0.776   5.229  2.2737 -0.7521 -0.5205
 1022MOL0     H37970   2.893   0.897   5.334  0.4287  0.9416 -0.2758
 1023MOL0     O37971   7.479   1.261   1.694 -0.6128  0.5444 -0.9652
 1023MOL0     C37972   7.474   1.364   1.632 -0.2203 -0.3962 -0.6719
 1023MOL0     O37973   7.587   1.426   1.584 -0.4769 -0.3952  0.0358
 1023MOL0     C37974   7.711   1.386   1.632  0.9128  0.6888 -0.6170
 1023MOL0     C37975   7.804   1.380   1.536  0.5642 -0.5186  0.3347
 1023MOL0     C37976   7.932   1.353   1.573  0.1607  0.2944 -0.2580
 1023MOL0     C37977   7.975   1.342   1.702 -1.1935  0.5056 -0.8917
 1023MOL0     O37978   8.108   1.353   1.735 -0.4566 -0.1691  0.5609
 1023MOL0     C37979   8.138   1.275   1.849  0.2729  0.5979 -0.4577
 1023MOL0     C37980   8.277   1.250   1.874  0.8803 -0.0787 -0.0434
 1023MOL0     C37981   8.324   1.317   2.003 -0.4486  0.0540  0.7701
 1023MOL0     C37982   8.477   1.287   2.028  0.3179  0.2057 -0.6189
 1023MOL0     C37983   8.528   1.322   2.173  0.5259 -0.0251 -0.3030
 1023MOL0     C37984   8.678   1.278   2.184 -0.9225 -0.6267  0.5206
 1023MOL0     C37985   8.727   1.283   2.328 -0.9560  0.5834 -0.4969
 1023MOL0     C37986   8.779   1.419   2.379 -0.3406  0.3991  0.8806
 1023MOL0     N37987   8.839   1.418   2.507  0.0203 -0.4084 -0.2411
 1023MOL0     C37988   8.943   1.338   2.549 -0.0780 -0.7446 -0.0432
 1023MOL0     C37989   8.927   1.331   2.687 -0.9519  0.2099  0.1894
 1023MOL0     C37990   9.022   1.268   2.793 -0.0427  0.2460 -0.2015
 1023MOL0     C37991   9.163   1.264   2.728  0.2830 -0.1915 -0.5726
 1023MOL0     C37992   9.264   1.185   2.818  0.9181  0.4496  0.8363
 1023MOL0     C37993   9.392   1.142   2.747 -0.1140  0.4613 -0.1375
 1023MOL0     O37994   9.478   1.256   2.731  0.0636  0.4423  0.4961
 1023MOL0     C37995   9.616   1.244   2.734 -0.5312 -1.0651 -0.6136
 1023MOL0     C37996   9.687   1.364   2.758  0.0384  0.0652  0.3294
 1023MOL0     C37997   9.828   1.375   2.765  0.3962 -0.1810  0.0871
 1023MOL0     C37998   9.904   1.259   2.734 -1.1727 -0.0881 -0.0912
 1023MOL0     C37999  10.058   1.268   2.740  1.4202 -0.2470  0.1236
 1023MOL0     O38000  10.127   1.151   2.711  0.2855 -0.0168  0.2308
 1023MOL0     C38001  10.240   1.135   2.779 -0.4640  0.8779 -0.7714
 1023MOL0     C38002  10.233   1.061   2.900 -0.1323  0.0608  0.3435
 1023MOL0     C38003  10.350   1.015   2.961  0.5422 -0.8543  0.1111
 1023MOL0     C38004  10.475   1.056   2.905  0.0257 -0.3006 -0.8812
 1023MOL0     O38005  10.589   1.010   2.977  0.1496  0.3081 -0.0357
 1023MOL0     C38006  10.703   1.080   2.945  0.1982 -0.1952  0.1775
 1023MOL0     C38007  10.799   1.056   3.056 -0.0963  0.5157  0.6519
 1023MOL0     C38008  10.938   1.093   3.003  0.5545  0.7713  0.7611
 1023MOL0     C38009  11.040   1.070   3.118 -0.0211 -0.1664 -0.2314
 1023MOL0     C38010  11.179   1.100   3.054 -0.3444  0.4557 -0.1990
 1023MOL0     C38011  11.294   1.077   3.157  0.0960 -0.0506  0.4081
 1023MOL0     C38012  11.413   1.166   3.133 -0.9669 -0.3659  0.4343
 1023MOL0     C38013  11.514   1.113   3.031  0.4081  0.8317  0.3194
 1023MOL0    Cl38014  11.656   1.226   2.994 -0.0613  0.0937 -0.0254
 1023MOL0     C38015  10.477   1.133   2.789 -0.3130 -0.3748  0.2625
 1023MOL0     C38016  10.362   1.169   2.725  0.3892  0.9691 -0.3403
 1023MOL0     O38017  10.107   1.373   2.770 -0.1767 -0.6237  0.8069
 1023MOL0     C38018   9.836   1.138   2.707  0.7675  0.7055 -0.7506
 1023MOL0     C38019   9.695   1.132   2.705  0.7482  0.0132 -0.1475
 1023MOL0     N38020   8.821   1.411   2.722 -0.3768  0.1591  0.1659
 1023MOL0     N38021   8.767   1.459   2.617  0.6465  0.4586  0.2970
 1023MOL0     C38022   7.877   1.349   1.806  0.6318 -0.2280  0.3961
 1023MOL0     C38023   7.741   1.370   1.771  0.6449  0.2424  0.9498
 1023MOL0     C38024   7.336   1.427   1.634  0.6426  0.4718  0.5117
 1023MOL0     C38025   7.322   1.569   1.624 -0.5190  0.3940  0.2874
 1023MOL0     C38026   7.199   1.639   1.639 -0.3545  0.0948 -0.9760
 1023MOL0     C38027   7.081   1.573   1.658  0.6948  0.8022  0.4365
 1023MOL0     O38028   6.958   1.639   1.668  0.4338 -0.4626  0.1090
 1023MOL0     C38029   6.956   1.760   1.597 -0.0178 -0.2450  0.8742
 1023MOL0     C38030   6.805   1.798   1.566  0.1414 -0.3121  0.1095
 1023MOL0     C38031   6.722   1.681   1.501 -0.4754 -0.3484  0.6999
 1023MOL0     C38032   6.574   1.697   1.488 -0.1427  0.2077 -0.3889
 1023MOL0     C38033   6.505   1.703   1.617 -0.7352 -0.2775 -0.4578
 1023MOL0     C38034   6.452   1.701   1.730  0.6082  0.4815  0.2093
 1023MOL0     C38035   7.086   1.434   1.668 -0.1419 -0.3327  0.5627
 1023MOL0     C38036   7.207   1.366   1.658 -0.4632  0.6852  0.6095
 1023MOL0     C38037   7.200   1.219   1.682 -0.5783  0.1880 -0.2377
 1023MOL0     H38038   7.774   1.372   1.432  3.2867 -3.9204 -0.3755
 1023MOL0     H38039   8.009   1.346   1.496  1.0251 -2.0001  0.7413
 1023MOL0     H38040   8.094   1.331   1.932 -0.2435 -2.3224  1.3821
 1023MOL0     H38041   8.083   1.181   1.840  0.1038  0.6713 -0.1855
 1023MOL0     H38042   8.345   1.290   1.797  1.1714 -0.7710 -0.1565
 1023MOL0     H38043   8.295   1.142   1.878 -1.8012 -0.5400  2.3513
 1023MOL0     H38044   8.257   1.279   2.080 -0.2837 -1.5031  0.1858
 1023MOL0     H38045   8.311   1.426   2.004  1.7603  0.4237 -1.0890
 1023MOL0     H38046   8.491   1.179   2.020  1.9809  0.0767  2.4399
 1023MOL0     H38047   8.544   1.334   1.956 -0.9561 -0.0687 -2.0242
 1023MOL0     H38048   8.518   1.427   2.199  0.1302 -0.9098  3.7794
 1023MOL0     H38049   8.461   1.267   2.240  0.6187  0.0432 -0.1557
 1023MOL0     H38050   8.685   1.172   2.157 -4.4445 -0.9993  0.6994
 1023MOL0     H38051   8.741   1.332   2.112  0.8001 -1.6370  1.1868
 1023MOL0     H38052   8.812   1.216   2.343  0.8291  2.4462 -1.6619
 1023MOL0     H38053   8.642   1.243   2.383  0.4139 -1.5849  0.1596
 1023MOL0     H38054   8.857   1.454   2.310 -0.4552  0.3083  0.7063
 1023MOL0     H38055   8.702   1.496   2.367  0.7108  1.2275 -0.9281
 1023MOL0     H38056   9.006   1.288   2.476 -0.3741  2.5908 -2.8324
 1023MOL0     H38057   9.032   1.311   2.893  1.3334 -3.2687  1.3272
 1023MOL0     H38058   8.997   1.167   2.827  0.6556  0.1152 -0.0611
 1023MOL0     H38059   9.156   1.211   2.632 -0.9930 -0.5891 -0.2724
 1023MOL0     H38060   9.201   1.367   2.718 -1.3454  0.4727 -0.2166
 1023MOL0     H38061   9.214   1.093   2.851 -0.6261  0.0628 -2.2767
 1023MOL0     H38062   9.300   1.247   2.900  3.5264  0.6232 -0.3427
 1023MOL0     H38063   9.371   1.091   2.653 -1.0858  0.4630  0.0604
 1023MOL0     H38064   9.452   1.070   2.803  1.1657  1.0789 -0.6733
 1023MOL0     H38065   9.616   1.446   2.766 -0.6550 -0.4784 -0.0920
 1023MOL0     H38066   9.862   1.478   2.767 -1.0367  0.3099  0.2340
 1023MOL0     H38067  10.135   1.036   2.940 -0.0814 -1.4287 -0.3991
 1023MOL0     H38068  10.337   0.955   3.051 -1.0915  1.0048  1.1967
 1023MOL0     H38069  10.720   1.042   2.844 -1.9130 -3.3222  0.8564
 1023MOL0     H38070  10.680   1.187   2.942  0.8271 -0.0608 -2.6280
 1023MOL0     H38071  10.786   1.119   3.144  1.9479  1.6345  0.2030
 1023MOL0     H38072  10.802   0.951   3.087 -0.3363  0.2016 -0.3706
 1023MOL0     H38073  10.959   1.022   2.922 -0.9242 -0.7867  1.6854
 1023MOL0     H38074  10.943   1.198   2.973  0.7846  0.7585  0.7506
 1023MOL0     H38075  11.038   0.967   3.156  1.1697 -0.3072 -0.5083
 1023MOL0     H38076  11.019   1.136   3.202  1.6226 -0.6502  0.6115
 1023MOL0     H38077  11.178   1.198   3.005 -1.1664 -0.3368 -1.8436
 1023MOL0     H38078  11.192   1.022   2.979 -1.4741 -0.9483  0.9901
 1023MOL0     H38079  11.256   1.099   3.257  0.0001 -0.9000  0.5657
 1023MOL0     H38080  11.326   0.973   3.153  3.8285  0.9526 -2.6189
 1023MOL0     H38081  11.465   1.177   3.229 -0.9060  1.7715  0.2020
 1023MOL0     H38082  11.392   1.269   3.103  4.2093  0.6068 -0.7803
 1023MOL0     H38083  11.552   1.017   3.066  0.7327  1.4272  1.6797
 1023MOL0     H38084  11.462   1.092   2.937 -4.3289 -0.2465  2.8546
 1023MOL0     H38085  10.565   1.172   2.739 -0.0478 -0.6868  0.4816
 1023MOL0     H38086  10.358   1.224   2.631 -1.9354 -0.6443 -1.2693
 1023MOL0     H38087   9.886   1.043   2.688  0.0640  0.3222 -0.7034
 1023MOL0     H38088   9.651   1.035   2.685  0.2719  0.1943 -0.0113
 1023MOL0     H38089   7.890   1.355   1.913 -1.0426 -2.1832  0.7797
 1023MOL0     H38090   7.675   1.379   1.856 -0.4581 -3.2045  0.6336
 1023MOL0     H38091   7.416   1.616   1.598 -0.7748  0.7797  0.0572
 1023MOL0     H38092   7.208   1.746   1.619 -2.5785  0.5280  0.0442
 1023MOL0     H38093   7.001   1.755   1.497 -0.5437 -0.2317  0.6294
 1023MOL0     H38094   7.007   1.847   1.641 -1.1847  1.6235 -1.2376
 1023MOL0     H38095   6.789   1.887   1.503 -3.1027 -1.0149 -0.2276
 1023MOL0     H38096   6.751   1.825   1.657 -0.1240 -1.0573  0.1755
 1023MOL0     H38097   6.743   1.583   1.544  3.5039 -0.0945 -0.2796
 1023MOL0     H38098   6.757   1.660   1.400 -1.8249 -2.7528  0.6509
 1023MOL0     H38099   6.556   1.779   1.418 -2.0250  2.7888  2.7822
 1023MOL0     H38100   6.544   1.603   1.439 -1.9573  0.7346 -0.3884
 1023MOL0     H38101   6.398   1.695   1.823 -0.0455  0.2529 -0.1758
 1023MOL0     H38102   6.995   1.377   1.685  0.0948 -1.1743 -0.8479
 1023MOL0     H38103   7.104   1.167   1.679  0.9138 -2.8541  0.2149
 1023MOL0     H38104   7.265   1.169   1.608 -1.6068 -2.3481  0.4535
 1023MOL0     H38105   7.243   1.194   1.779 -1.5606  0.3943  0.2592
 1024MOL0     O38106   0.591   6.260   9.562 -0.2874  0.6867 -0.4372
 1024MOL0     C38107   0.549   6.217   9.457  0.6249  0.5546 -0.2514
 1024MOL0     O38108   0.606   6.119   9.375 -0.8751  0.1180 -0.5621
 1024MOL0     C38109   0.735   6.091   9.415  0.7189  0.2315 -0.0029
 1024MOL0     C38110   0.844   6.102   9.322 -0.8957 -0.7640  0.4648
 1024MOL0     C38111   0.962   6.042   9.350  0.2761 -0.6891 -0.0101
 1024MOL0     C38112   0.990   5.980   9.472  0.3601 -0.7579 -0.1889
 1024MOL0     O38113   1.115   5.940   9.504  0.1875  0.5458 -0.4417
 1024MOL0     C38114   1.218   5.924   9.404  0.0917  0.0931 -0.3518
 1024MOL0     C38115   1.291   6.054   9.367  0.1935  0.0740  0.5422
 1024MOL0     C38116   1.358   6.108   9.489 -0.5575  0.3929 -0.0636
 1024MOL0     C38117   1.446   6.225   9.454 -0.8120 -0.0096  0.5573
 1024MOL0     C38118   1.540   6.275   9.567  0.5657 -1.2340  0.3090
 1024MOL0     C38119   1.670   6.338   9.511 -0.0702  0.5256 -0.3863
 1024MOL0     C38120   1.783   6.369   9.609  0.5402  0.0069  0.1621
 1024MOL0     C38121   1.892   6.466   9.543  0.7363  0.2987  0.5432
 1024MOL0     N38122   1.970   6.409   9.434  0.0663 -0.5711 -0.2949
 1024MOL0     C38123   2.104   6.409   9.438  0.3853  1.3302  0.2083
 1024MOL0     C38124   2.138   6.379   9.312 -0.7428 -0.3636  0.5485
 1024MOL0     C38125   2.268   6.376   9.246  0.0700 -0.3213 -0.4743
 1024MOL0     C38126   2.296   6.270   9.137  0.1581  0.1500  0.3782
 1024MOL0     C38127   2.270   6.125   9.175 -0.0864  0.2194  0.1628
 1024MOL0     C38128   2.351   6.068   9.292  0.1939 -0.5426 -0.5926
 1024MOL0     O38129   2.489   6.108   9.287 -0.0458 -0.1924 -0.1088
 1024MOL0     C38130   2.552   6.116   9.405  0.0700 -0.5012 -1.0840
 1024MOL0     C38131   2.639   6.222   9.449  0.0621  0.5103 -0.5788
 1024MOL0     C38132   2.709   6.224   9.571 -1.0147 -0.2061 -0.6393
 1024MOL0     C38133   2.705   6.104   9.653  0.0024 -0.1017  0.9375
 1024MOL0     C38134   2.780   6.093   9.781  0.1423 -0.0119 -0.1423
 1024MOL0     O38135   2.874   6.187   9.808  0.3856  0.5265  0.2939
 1024MOL0     C38136   2.962   6.169   9.907  0.4901 -0.8289 -0.9571
 1024MOL0     C38137   3.088   6.211   9.882 -0.0540 -0.0507 -0.3003
 1024MOL0     C38138   3.187   6.201   9.981  0.9783  0.5287 -0.7688
 1024MOL0     C38139   3.160   6.167  10.114  0.8159 -0.0259  0.3591
 1024MOL0     O38140   3.247   6.162  10.221  0.4730  0.2821  0.7481
 1024MOL0     C38141   3.347   6.265  10.223 -0.4068 -0.0179  0.7651
 1024MOL0     C38142   3.439   6.246  10.354  0.3630 -0.3425  0.0658
 1024MOL0     C38143   3.536   6.123  10.337 -0.3979 -0.1870  0.1556
 1024MOL0     C38144   3.635   6.082  10.444  0.0142  0.2146 -0.7510
 1024MOL0     C38145   3.594   6.105  10.594  0.7573 -0.0249  0.1235
 1024MOL0     C38146   3.490   6.005  10.642 -0.7741  0.1454  0.5278
 1024MOL0     C38147   3.482   5.997  10.797  0.6593  0.0304 -0.3184
 1024MOL0     C38148   3.429   5.861  10.845 -0.9280 -0.6568 -0.3710
 1024MOL0    Cl38149   3.255   5.863  10.822 -0.0002  0.2693 -0.5184
 1024MOL0     C38150   3.026   6.136  10.137 -0.7865  0.4099  0.0154
 1024MOL0     C38151   2.931   6.135  10.037 -1.3467 -0.5374  0.3686
 1024MOL0     O38152   2.751   5.992   9.845 -0.2808  0.1981 -0.0214
 1024MOL0     C38153   2.628   5.999   9.605 -0.2340  0.7151 -0.0146
 1024MOL0     C38154   2.551   6.002   9.485  0.0639  1.5028  0.5254
 1024MOL0     N38155   2.019   6.379   9.233 -0.4070 -0.4141  0.3841
 1024MOL0     N38156   1.923   6.385   9.311  0.3671  0.2256  0.1343
 1024MOL0     C38157   0.885   5.987   9.573  0.0858  0.8411 -0.3417
 1024MOL0     C38158   0.757   6.031   9.541  0.6513  0.0273  0.0755
 1024MOL0     C38159   0.419   6.267   9.412 -0.6704 -0.4825 -0.8243
 1024MOL0     C38160   0.324   6.287   9.517 -0.5653  0.0054 -0.5682
 1024MOL0     C38161   0.197   6.330   9.487  0.1301 -0.4393  0.0730
 1024MOL0     C38162   0.166   6.366   9.356 -0.4815 -0.0758 -0.0180
 1024MOL0     O38163   0.043   6.418   9.340  0.0860  0.1364  0.4212
 1024MOL0     C38164   0.032   6.515   9.236  0.1130 -0.6202 -0.3672
 1024MOL0     C38165  -0.105   6.579   9.240  0.2580  0.2027 -0.2251
 1024MOL0     C38166  -0.124   6.665   9.117 -0.0576 -0.0080 -1.2291
 1024MOL0     C38167  -0.203   6.584   9.017 -0.2068 -0.2085 -0.3215
 1024MOL0     C38168  -0.349   6.572   9.050  0.4854  0.2473 -0.1807
 1024MOL0     C38169  -0.468   6.564   9.063  0.1704 -0.2556  0.3815
 1024MOL0     C38170   0.261   6.352   9.252 -0.2950 -0.1052 -0.7637
 1024MOL0     C38171   0.388   6.306   9.278  0.5691  0.2314  0.1634
 1024MOL0     C38172   0.481   6.291   9.153 -0.5393  0.2995 -0.4650
 1024MOL0     H38173   0.831   6.140   9.221  0.7593 -0.7346  0.2358
 1024MOL0     H38174   1.036   6.056   9.271  0.6197  2.8062  0.7416
 1024MOL0     H38175   1.293   5.856   9.445  0.9513  0.4422 -1.3169
 1024MOL0     H38176   1.179   5.889   9.308  1.5891  1.4703 -1.5119
 1024MOL0     H38177   1.230   6.129   9.317  0.3002 -1.7225 -2.5696
 1024MOL0     H38178   1.366   6.028   9.291 -2.4325  0.4465 -2.3830
 1024MOL0     H38179   1.417   6.029   9.538 -1.4029 -0.2969 -0.1304
 1024MOL0     H38180   1.276   6.134   9.557 -0.2535  2.9955 -0.6198
 1024MOL0     H38181   1.509   6.204   9.367 -1.6917 -0.7853  0.0922
 1024MOL0     H38182   1.370   6.297   9.422 -0.3619 -0.1516 -0.8952
 1024MOL0     H38183   1.496   6.353   9.630  3.1898 -0.7781  1.7397
 1024MOL0     H38184   1.564   6.194   9.635 -0.3869  1.0429  3.6079
 1024MOL0     H38185   1.699   6.260   9.440  1.3785 -0.5293  1.2780
 1024MOL0     H38186   1.643   6.428   9.456 -0.9517 -0.7363 -2.1254
 1024MOL0     H38187   1.826   6.281   9.658 -0.4047  0.6884  2.3841
 1024MOL0     H38188   1.739   6.412   9.700 -1.7673 -0.1125 -0.8404
 1024MOL0     H38189   1.855   6.566   9.521 -1.5705 -1.0135 -2.1550
 1024MOL0     H38190   1.954   6.487   9.631  1.1645  0.7502  0.1414
 1024MOL0     H38191   2.165   6.439   9.522  2.7369 -2.5505  0.1271
 1024MOL0     H38192   2.270   6.472   9.194 -0.3311  0.7438  1.3642
 1024MOL0     H38193   2.352   6.381   9.316 -0.4056  1.8282  0.0157
 1024MOL0     H38194   2.239   6.290   9.046  1.0941 -0.0847 -0.2722
 1024MOL0     H38195   2.401   6.288   9.116  0.4109  2.4686  2.9731
 1024MOL0     H38196   2.297   6.064   9.088 -0.2111 -0.1264  0.3654
 1024MOL0     H38197   2.162   6.118   9.191 -0.1106 -0.1992 -0.1696
 1024MOL0     H38198   2.339   5.960   9.295  1.4869 -0.7250 -1.2582
 1024MOL0     H38199   2.302   6.095   9.386 -0.5710 -1.6109 -0.6731
 1024MOL0     H38200   2.653   6.307   9.384  2.9673  1.6912  1.3912
 1024MOL0     H38201   2.772   6.311   9.588 -0.3771 -0.8021  0.0981
 1024MOL0     H38202   3.118   6.247   9.784  0.6505 -0.4875 -0.2457
 1024MOL0     H38203   3.288   6.229   9.955  1.1297  1.6818  0.8570
 1024MOL0     H38204   3.412   6.281  10.136  2.9585 -1.8521  2.7450
 1024MOL0     H38205   3.290   6.357  10.242 -1.0070  0.2477 -1.9325
 1024MOL0     H38206   3.494   6.339  10.369 -0.9379  0.6522 -0.9596
 1024MOL0     H38207   3.364   6.245  10.434  0.7695  3.0733  0.6279
 1024MOL0     H38208   3.464   6.042  10.322 -3.0278  2.1719 -0.5787
 1024MOL0     H38209   3.600   6.133  10.249  0.6063  2.0028  1.0551
 1024MOL0     H38210   3.734   6.129  10.432  0.1167  0.1522 -0.1750
 1024MOL0     H38211   3.656   5.975  10.437  1.4516  0.4172 -0.0897
 1024MOL0     H38212   3.567   6.209  10.612 -0.7058  0.0116 -1.9083
 1024MOL0     H38213   3.678   6.085  10.661  0.1124 -2.1103  0.3897
 1024MOL0     H38214   3.400   6.036  10.588 -0.5420  1.2982  0.7656
 1024MOL0     H38215   3.510   5.902  10.611 -1.0291  0.5253 -0.9784
 1024MOL0     H38216   3.431   6.086  10.834  5.7214  2.1953  2.3244
 1024MOL0     H38217   3.585   6.019  10.826  0.2328  1.2852  0.3051
 1024MOL0     H38218   3.475   5.771  10.804 -1.8497 -1.2840 -0.0536
 1024MOL0     H38219   3.456   5.847  10.950 -1.1291 -1.6866 -0.4404
 1024MOL0     H38220   2.995   6.102  10.235 -2.9218  1.0691 -0.3948
 1024MOL0     H38221   2.833   6.090  10.048 -1.7132  0.0853 -0.3077
 1024MOL0     H38222   2.614   5.910   9.664 -0.6900  1.2603  0.7148
 1024MOL0     H38223   2.509   5.910   9.445  1.9594  1.8769 -2.6328
 1024MOL0     H38224   0.897   5.943   9.672 -0.2842 -1.0321 -1.0810
 1024MOL0     H38225   0.672   6.026   9.609  0.1904  0.7716 -0.4337
 1024MOL0     H38226   0.342   6.283   9.624 -3.5964 -0.8211 -0.0142
 1024MOL0     H38227   0.117   6.348   9.559  1.0690  4.8887  0.1619
 1024MOL0     H38228   0.046   6.471   9.137 -0.0789 -3.5921  0.8093
 1024MOL0     H38229   0.107   6.593   9.249 -0.4322  0.1013 -1.4055
 1024MOL0     H38230  -0.107   6.634   9.334 -2.7138 -1.7948  1.0334
 1024MOL0     H38231  -0.174   6.495   9.230  0.9076 -0.1219 -2.8019
 1024MOL0     H38232  -0.032   6.684   9.062 -0.2213 -0.0974 -1.5324
 1024MOL0     H38233  -0.175   6.760   9.140  0.9217  1.0290 -3.0973
 1024MOL0     H38234  -0.202   6.644   8.925  1.8980 -1.2471 -1.0341
 1024MOL0     H38235  -0.162   6.485   8.997  1.4794  0.3630  0.1348
 1024MOL0     H38236  -0.573   6.563   9.080  0.3792 -0.4770  1.7505
 1024MOL0     H38237   0.234   6.360   9.147 -1.9857 -1.0444 -0.4312
 1024MOL0     H38238   0.489   6.188   9.119 -1.8651 -0.2801  0.8420
 1024MOL0     H38239   0.443   6.346   9.066  2.7859 -1.6430 -3.4236
 1024MOL0     H38240   0.581   6.326   9.183 -1.2925  0.5500  2.0003
  11.32462  11.32462  11.32462
